Title
19927
    1ASP      N    1   0.323   4.242   1.917 -0.1340  0.1974 -0.2739
    1ASP    HT1    2   0.233   4.190   1.926 -1.1753  1.9872  0.2027
    1ASP    HT2    3   0.377   4.206   1.998 -0.2951  0.0034 -0.2506
    1ASP    HT3    4   0.361   4.209   1.826 -0.0424  2.5613 -1.1670
    1ASP     CA    5   0.305   4.391   1.921 -1.0085 -0.0952  0.3487
    1ASP     HA    6   0.240   4.406   2.006 -0.3425 -2.5149  1.3853
    1ASP     CB    7   0.455   4.455   1.927  0.2596 -0.3073 -0.5464
    1ASP    HB1    8   0.444   4.565   1.916 -0.5886 -0.5148 -2.0958
    1ASP    HB2    9   0.515   4.424   1.839  1.4011  1.1527 -0.3276
    1ASP     CG   10   0.514   4.428   2.058 -0.4325  0.1562  0.7901
    1ASP    OD1   11   0.627   4.480   2.078 -0.3318  0.0617 -0.0296
    1ASP    OD2   12   0.461   4.357   2.144  0.7821  0.0235  0.2613
    1ASP      C   13   0.225   4.455   1.803 -0.1009  0.4936 -0.3366
    1ASP      O   14   0.225   4.395   1.696 -0.1222  0.0496 -0.5912
    2ALA      N   15   0.154   4.569   1.819 -0.4590  0.5742 -1.0746
    2ALA     HN   16   0.153   4.615   1.908 -1.8324  0.1035 -0.8275
    2ALA     CA   17   0.057   4.621   1.723 -0.1852  0.1205  0.0416
    2ALA     HA   18   0.079   4.570   1.631  1.0927 -2.0653  1.4668
    2ALA     CB   19  -0.089   4.601   1.770 -1.0120  0.0015  0.0305
    2ALA    HB1   20  -0.113   4.660   1.861  0.4825 -0.1089  0.5254
    2ALA    HB2   21  -0.100   4.498   1.811 -0.9400 -0.1893 -0.4176
    2ALA    HB3   22  -0.153   4.617   1.681 -0.8462 -0.5127 -0.1860
    2ALA      C   23   0.088   4.771   1.701  0.3893 -0.1981  0.8393
    2ALA      O   24   0.076   4.854   1.787 -0.5323  0.0124 -0.2226
    3ASP      N   25   0.124   4.809   1.573  0.2026 -0.3159  0.7150
    3ASP     HN   26   0.135   4.744   1.499  0.9933 -1.8858  2.1216
    3ASP     CA   27   0.131   4.948   1.534 -0.2559  0.2483 -0.5360
    3ASP     HA   28   0.198   5.004   1.598  1.6753 -1.1177 -1.2510
    3ASP     CB   29   0.170   4.962   1.386 -0.1004  0.1410 -0.1240
    3ASP    HB1   30   0.165   5.068   1.353  1.6164  0.4527  0.5039
    3ASP    HB2   31   0.115   4.892   1.320  2.2206 -1.0587 -0.8806
    3ASP     CG   32   0.316   4.916   1.370  0.4600 -0.2874 -0.1271
    3ASP    OD1   33   0.389   4.911   1.471 -0.0787  0.3081  0.6076
    3ASP    OD2   34   0.358   4.899   1.255  0.1428 -0.2698  0.0577
    3ASP      C   35   0.002   5.022   1.538 -0.0076  1.0409 -0.9795
    3ASP      O   36  -0.105   4.973   1.497  0.2478  0.1984 -0.2483
    4GLY      N   37   0.008   5.147   1.591 -0.5451  0.5338 -0.1962
    4GLY     HN   38   0.093   5.185   1.628 -1.6818  2.4439  0.6520
    4GLY     CA   39  -0.105   5.234   1.589 -0.0216  0.2003 -0.8332
    4GLY    HA1   40  -0.074   5.321   1.646  0.8452 -0.7318  0.1492
    4GLY    HA2   41  -0.188   5.182   1.632 -0.4338  1.3840 -0.1343
    4GLY      C   42  -0.156   5.276   1.452 -0.2105  0.0349  0.2728
    4GLY      O   43  -0.095   5.245   1.350 -0.7925  0.4939  0.2753
    5PRO      N   44  -0.262   5.345   1.438 -0.4615  0.2038 -0.7595
    5PRO     CD   45  -0.341   5.402   1.549 -0.3699 -0.7683 -0.3483
    5PRO    HD1   46  -0.274   5.473   1.603 -1.4688 -0.5893  0.8395
    5PRO    HD2   47  -0.371   5.326   1.625 -0.3634  1.0048  1.5229
    5PRO     CA   48  -0.315   5.393   1.309  0.3809 -0.0421 -0.4783
    5PRO     HA   49  -0.356   5.308   1.256  0.4997 -1.1477  1.1489
    5PRO     CB   50  -0.419   5.500   1.350  0.1241  0.2184 -0.0139
    5PRO    HB1   51  -0.500   5.486   1.275  0.1273  0.5968 -0.0927
    5PRO    HB2   52  -0.386   5.605   1.334 -1.3018  0.5259 -1.2186
    5PRO     CG   53  -0.463   5.476   1.495 -0.0797  0.2025  0.2704
    5PRO    HG1   54  -0.481   5.568   1.554  0.1323 -0.0157  0.6803
    5PRO    HG2   55  -0.554   5.413   1.482  0.0664  0.4177 -2.2046
    5PRO      C   56  -0.223   5.449   1.200 -0.3475 -0.4818 -0.2323
    5PRO      O   57  -0.117   5.502   1.226 -0.0475  0.6152  0.1170
    6GLY      N   58  -0.264   5.435   1.072 -0.2949  0.0386  0.0728
    6GLY     HN   59  -0.345   5.383   1.048 -1.2738  0.5571  1.9947
    6GLY     CA   60  -0.197   5.497   0.964  0.9109  0.4852  0.4911
    6GLY    HA1   61  -0.227   5.444   0.875 -1.3593  0.7926  1.0231
    6GLY    HA2   62  -0.090   5.494   0.979  0.9132 -2.1791  0.4153
    6GLY      C   63  -0.230   5.641   0.933 -0.7227  0.3718  0.3204
    6GLY      O   64  -0.260   5.721   1.017 -0.2312 -0.3527 -0.5581
    7ASP      N   65  -0.217   5.678   0.804  0.3467  0.0072  0.1713
    7ASP     HN   66  -0.189   5.607   0.740 -1.2033  0.0873 -0.6555
    7ASP     CA   67  -0.266   5.809   0.751 -0.2855 -0.0409 -1.1779
    7ASP     HA   68  -0.202   5.885   0.794 -1.7521 -0.0419  1.2037
    7ASP     CB   69  -0.236   5.817   0.604 -0.1247  0.3804 -0.0416
    7ASP    HB1   70  -0.264   5.913   0.557  2.4219  1.0998 -0.2813
    7ASP    HB2   71  -0.286   5.734   0.549 -0.2284  0.2873  0.1901
    7ASP     CG   72  -0.086   5.809   0.560 -0.9312 -0.3700 -0.8483
    7ASP    OD1   73   0.003   5.866   0.636 -0.3217  0.1172  0.4056
    7ASP    OD2   74  -0.057   5.753   0.452  0.7130 -0.9681  0.3409
    7ASP      C   75  -0.411   5.843   0.780 -0.1484  0.1715  0.2462
    7ASP      O   76  -0.481   5.744   0.800 -0.4149 -0.5278  0.1509
    8PRO      N   77  -0.460   5.964   0.793  0.0634 -0.4487 -0.1218
    8PRO     CD   78  -0.380   6.080   0.813  0.3939  0.0627  0.2657
    8PRO    HD1   79  -0.341   6.120   0.717 -0.0553  0.8747  0.4096
    8PRO    HD2   80  -0.298   6.054   0.883 -1.3179 -2.5844  1.4959
    8PRO     CA   81  -0.606   6.001   0.805 -0.0581  0.3694  0.1510
    8PRO     HA   82  -0.653   5.952   0.889  0.4500  0.0500  0.2574
    8PRO     CB   83  -0.605   6.153   0.819 -0.2527 -0.2256 -0.1093
    8PRO    HB1   84  -0.692   6.204   0.867  0.0671 -0.1756  0.4252
    8PRO    HB2   85  -0.594   6.195   0.717  3.2669 -2.0845 -0.6420
    8PRO     CG   86  -0.472   6.182   0.880 -0.1084 -0.6073  0.2698
    8PRO    HG1   87  -0.438   6.287   0.870 -1.1602 -0.1938  0.8776
    8PRO    HG2   88  -0.476   6.156   0.988 -0.2195 -0.2786  0.3459
    8PRO      C   89  -0.693   5.948   0.690 -0.3367 -0.0285 -0.2924
    8PRO      O   90  -0.643   5.928   0.578  0.4394 -0.5240  0.2268
    9ASP      N   91  -0.828   5.926   0.710 -0.6158 -0.2545  0.8459
    9ASP     HN   92  -0.861   5.948   0.801  0.5256  0.1130  1.1836
    9ASP     CA   93  -0.917   5.879   0.607 -0.0667 -0.1219 -0.0446
    9ASP     HA   94  -0.872   5.787   0.572  1.3504  0.2329  0.7905
    9ASP     CB   95  -1.056   5.851   0.678  0.0067 -0.2004  0.0655
    9ASP    HB1   96  -1.102   5.947   0.710 -1.4081 -1.4054  1.8211
    9ASP    HB2   97  -1.038   5.791   0.769 -0.3797 -0.1868  0.1525
    9ASP     CG   98  -1.152   5.765   0.595  1.5231 -0.0073 -0.4131
    9ASP    OD1   99  -1.112   5.707   0.488 -0.0225 -0.5175  0.3081
    9ASP    OD2  100  -1.270   5.744   0.642 -0.0184 -0.0074  1.3171
    9ASP      C  101  -0.927   5.974   0.478  0.1103  0.1641 -1.0756
    9ASP      O  102  -0.917   6.096   0.486  0.1548  0.0573 -0.0885
   10ALA      N  103  -0.942   5.904   0.370 -1.0360 -0.1049 -0.4495
   10ALA     HN  104  -0.962   5.809   0.392  1.7080 -0.5163  0.6335
   10ALA     CA  105  -0.956   5.942   0.234 -0.3160 -0.1827  0.2792
   10ALA     HA  106  -0.878   6.015   0.215  0.0706 -0.9105 -1.1103
   10ALA     CB  107  -0.941   5.815   0.147  0.6293  0.0788 -0.1868
   10ALA    HB1  108  -0.935   5.833   0.037  0.5679  0.2469 -0.1622
   10ALA    HB2  109  -1.022   5.741   0.166  0.3588 -0.3274 -2.5206
   10ALA    HB3  110  -0.848   5.767   0.182  0.1128 -0.1532  0.9009
   10ALA      C  111  -1.093   6.007   0.221  0.4441  0.4710 -0.0961
   10ALA      O  112  -1.195   5.969   0.278 -0.2719 -0.1454  0.1727
   11GLY      N  113  -1.100   6.106   0.139 -0.0209 -0.5417 -0.1350
   11GLY     HN  114  -1.019   6.152   0.105  0.8320 -1.4759  0.5922
   11GLY     CA  115  -1.232   6.158   0.087 -0.3213  0.3599  0.3707
   11GLY    HA1  116  -1.291   6.209   0.162 -1.4865  1.1065 -0.9797
   11GLY    HA2  117  -1.286   6.073   0.048  2.4444 -1.2387 -0.1611
   11GLY      C  118  -1.196   6.256  -0.028 -0.0860  0.2415  0.1749
   11GLY    OT1  119  -1.208   6.380  -0.005  0.1548 -0.1830  0.0030
   11GLY    OT2  120  -1.154   6.215  -0.144  0.5285 -0.4622 -0.5061
   12SOD    SOD  121   3.182   5.094   2.079  0.0739  0.1758  0.3166
   13SOD    SOD  122   4.798   5.108   1.374  0.6120  0.8085 -0.2729
   14SOD    SOD  123   4.130   4.855   3.212  0.1277 -0.1537  0.5638
   15SOD    SOD  124   6.027   4.803   3.220 -0.4549  0.5678  0.1621
   16SOD    SOD  125   0.082   3.230   0.933  0.3068 -0.0026 -0.0733
   17SOD    SOD  126   2.103   4.001   1.074 -0.3509  0.0657 -0.1112
   18SOD    SOD  127   1.577   1.954   1.594  0.2761  0.8167  0.1810
   19SOD    SOD  128   5.240   3.109   4.445  0.0949  0.0028  0.3152
   20SOD    SOD  129   5.869   5.515   3.627 -0.5309  0.3133 -0.0079
   21SOD    SOD  130   4.251   2.334   4.986  0.4202  0.1446 -0.0537
   22SOD    SOD  131   6.262   1.421   5.174  0.2098  0.4671  0.0825
   23SOD    SOD  132   2.104   5.758   3.356 -0.6599 -0.0858  0.5891
   24SOD    SOD  133   0.949   3.470   2.574  0.1803  0.2766  0.4275
   25SOD    SOD  134   4.958   5.467   0.434 -0.1317  0.2263 -0.2973
   26SOD    SOD  135   1.310   1.821   2.835  0.2038  0.4214  0.2924
   27SOD    SOD  136   1.330   5.410   1.372  0.5343  0.7180  0.1362
   28SOD    SOD  137   0.348   1.980   2.917  0.1528 -0.2306 -0.3333
   29SOD    SOD  138   3.487   2.984   5.027 -0.0956  0.2770  0.3733
   30SOD    SOD  139   2.485   5.642   5.162 -0.3281  0.0984 -0.3784
   31SOD    SOD  140   1.550   3.387   3.531  0.2002 -0.1573 -0.0436
   32SOD    SOD  141   6.133   5.538   2.990 -0.0750 -0.5788  0.1723
   33SOD    SOD  142   2.981   0.850   0.979 -0.3657 -0.0042 -0.1141
   34CLA    CLA  143   4.310   3.741   4.156 -0.1682 -0.0385  0.4014
   35CLA    CLA  144   4.764   3.585   0.580 -0.1588 -0.2705  0.2517
   36CLA    CLA  145   2.484   2.313   0.953 -0.2207  0.0526 -0.1639
   37CLA    CLA  146   2.495   5.451   3.588 -0.0491 -0.0068  0.0241
   38CLA    CLA  147   1.551   0.292   4.184 -0.0806 -0.1633 -0.1238
   39CLA    CLA  148   0.623   4.377   4.340  0.3051  0.3086  0.5116
   40CLA    CLA  149   4.829   0.740   1.727 -0.1797 -0.2456  0.0933
   41CLA    CLA  150   5.666   3.381   4.583  0.1139 -0.1452  0.1345
   42CLA    CLA  151   0.711   0.479   2.584  0.0955  0.0817 -0.2722
   43CLA    CLA  152   5.931   5.161   2.728  0.0466  0.1221 -0.0566
   44CLA    CLA  153   3.291   5.333   2.147 -0.0144  0.2270  0.0287
   45CLA    CLA  154   4.468   1.533   3.002 -0.0710  0.2627 -0.1001
   46CLA    CLA  155   0.343   5.382   4.395 -0.2790  0.0350  0.2133
   47CLA    CLA  156   2.454   1.257   1.631 -0.0570 -0.0776  0.1516
   48CLA    CLA  157   0.349   3.417   3.445 -0.2979 -0.1244 -0.1497
   49CLA    CLA  158   2.105   1.263   5.167  0.0588 -0.0941 -0.0001
   50CLA    CLA  159   0.290   4.093   3.973 -0.1947  0.0299 -0.1393
   51CLA    CLA  160   2.150   0.093   1.809 -0.0917 -0.0814 -0.0305
   52TIP3   OH2  161   1.674   1.008   5.128 -0.4113 -0.0125  0.3661
   52TIP3    H1  162   1.748   1.065   5.148  1.2618 -2.0612  0.3879
   52TIP3    H2  163   1.646   1.035   5.040  0.6775  0.4720  0.1554
   53TIP3   OH2  164   2.122   5.145   0.088 -0.1059  0.3296 -0.1914
   53TIP3    H1  165   2.158   5.142   0.177 -0.9473 -0.4277  0.1442
   53TIP3    H2  166   2.151   5.064   0.048 -1.5192 -0.3710  0.1388
   54TIP3   OH2  167   1.241   1.441   2.322  0.5798 -0.1675  0.5279
   54TIP3    H1  168   1.185   1.398   2.387 -0.6452  0.0741 -0.3478
   54TIP3    H2  169   1.185   1.453   2.246  1.3825  1.5056  0.1698
   55TIP3   OH2  170   5.474   4.348   3.648  0.1746 -0.7212 -0.2046
   55TIP3    H1  171   5.506   4.338   3.738 -1.5501  0.1448  0.5395
   55TIP3    H2  172   5.494   4.439   3.625 -3.3749  0.5377  1.0444
   56TIP3   OH2  173   0.880   2.062   0.253 -0.5062  0.7741 -0.3334
   56TIP3    H1  174   0.868   2.129   0.320  0.1051  0.1332  0.4351
   56TIP3    H2  175   0.975   2.049   0.248 -0.5976  0.1964 -0.7030
   57TIP3   OH2  176   0.561   3.591   2.034  0.0618  0.5945 -0.0195
   57TIP3    H1  177   0.528   3.562   2.119  1.2445  0.7788  0.5219
   57TIP3    H2  178   0.648   3.552   2.027  0.0838  0.7966 -1.0273
   58TIP3   OH2  179   3.486   2.914   1.011 -0.4376  0.1258 -0.0192
   58TIP3    H1  180   3.559   2.856   0.990 -0.4952 -0.8704  2.2490
   58TIP3    H2  181   3.515   3.001   0.985  1.6521 -0.2130  1.0303
   59TIP3   OH2  182   0.490   4.054   3.540 -0.0683 -0.0849 -0.1445
   59TIP3    H1  183   0.448   4.047   3.454 -1.0608  0.1795  0.2981
   59TIP3    H2  184   0.428   4.104   3.593  0.2244 -0.7923  0.9128
   60TIP3   OH2  185   5.584   4.425   2.259  0.3030 -0.0783 -0.5055
   60TIP3    H1  186   5.677   4.402   2.256  0.2403 -0.7988  1.5016
   60TIP3    H2  187   5.539   4.342   2.275 -0.8172  0.1119 -2.2834
   61TIP3   OH2  188   2.736   4.018   4.640 -0.5159  0.0678  0.0069
   61TIP3    H1  189   2.715   4.094   4.586 -1.5547 -1.1819 -1.4452
   61TIP3    H2  190   2.824   4.035   4.673 -0.8576  2.0455  0.0332
   62TIP3   OH2  191   3.576   1.018   4.712  0.1924  0.7127  0.5608
   62TIP3    H1  192   3.542   0.929   4.715  2.0894 -0.0910 -0.3809
   62TIP3    H2  193   3.501   1.071   4.683 -0.3858 -0.9022 -1.1065
   63TIP3   OH2  194   0.239   3.443   2.811  0.3292 -0.3383 -0.1194
   63TIP3    H1  195   0.165   3.388   2.784  1.4554 -1.6432 -0.6965
   63TIP3    H2  196   0.200   3.529   2.829 -0.9243 -0.0177 -3.5447
   64TIP3   OH2  197   5.462   1.819   1.540  0.0001 -0.5608  0.0959
   64TIP3    H1  198   5.462   1.727   1.567  0.1048 -0.8161 -0.7619
   64TIP3    H2  199   5.518   1.822   1.463 -0.1011  0.2023  0.0447
   65TIP3   OH2  200   4.605   5.757   1.137  0.7753 -0.5449  0.1321
   65TIP3    H1  201   4.651   5.708   1.069 -1.0197  0.0920 -1.6300
   65TIP3    H2  202   4.553   5.691   1.183  0.1240 -0.6717 -0.7466
   66TIP3   OH2  203   5.799   1.954   4.001  0.4727  0.1475  0.3129
   66TIP3    H1  204   5.821   2.037   4.043 -0.7510  0.9901 -0.6319
   66TIP3    H2  205   5.713   1.931   4.038  1.2990 -1.3055  1.4057
   67TIP3   OH2  206   4.316   4.477   3.292  0.4909  0.4897  0.1875
   67TIP3    H1  207   4.399   4.496   3.335  0.3652  1.1006  0.1697
   67TIP3    H2  208   4.254   4.466   3.364  0.6652 -0.3541  0.2117
   68TIP3   OH2  209   5.058   0.761   1.031  0.2847 -0.4145  0.5022
   68TIP3    H1  210   5.137   0.710   1.048 -0.1986 -0.8083  1.6251
   68TIP3    H2  211   5.079   0.849   1.064  0.9575  0.0387 -1.0338
   69TIP3   OH2  212   5.551   5.388   0.104  0.4139 -0.1247  0.2376
   69TIP3    H1  213   5.463   5.401   0.140  0.1540 -2.0719  0.4137
   69TIP3    H2  214   5.537   5.364   0.013  0.7754 -0.2345  0.2086
   70TIP3   OH2  215   5.450   5.806   3.761 -0.0348 -0.2770  0.0257
   70TIP3    H1  216   5.421   5.757   3.684 -0.2907  2.1845 -1.5847
   70TIP3    H2  217   5.437   5.898   3.736  2.3039  0.7086  2.0464
   71TIP3   OH2  218   6.021   1.630   4.187  0.1246  0.7644  0.1342
   71TIP3    H1  219   5.957   1.637   4.116 -0.4231  0.2805  0.5735
   71TIP3    H2  220   6.048   1.720   4.204  0.3934  0.8700 -0.8074
   72TIP3   OH2  221   4.711   3.922   1.160  0.1613  0.0128 -0.2150
   72TIP3    H1  222   4.749   3.945   1.245 -4.2098 -1.4176  2.4188
   72TIP3    H2  223   4.666   4.002   1.132  0.0234 -0.0665 -0.2181
   73TIP3   OH2  224   1.891   5.802   4.060  0.2247  0.3667  1.0629
   73TIP3    H1  225   1.830   5.820   3.988  0.7873 -1.1221  0.1792
   73TIP3    H2  226   1.837   5.759   4.127  0.0945 -0.0401  0.7011
   74TIP3   OH2  227   1.973   2.014   2.717 -0.4797  0.2499 -0.2295
   74TIP3    H1  228   1.922   2.022   2.798 -0.0527  1.6432 -0.0832
   74TIP3    H2  229   1.911   1.978   2.654 -0.8897 -0.6335  0.6285
   75TIP3   OH2  230   0.390   2.755   3.130 -0.0810 -0.4498  0.3500
   75TIP3    H1  231   0.424   2.833   3.085  1.2110 -0.0595  1.9128
   75TIP3    H2  232   0.449   2.685   3.104  0.6612 -0.2257  1.3821
   76TIP3   OH2  233   4.956   0.170   1.779 -0.1066  0.6758 -0.0554
   76TIP3    H1  234   5.032   0.227   1.790 -0.3944  0.8925  0.9214
   76TIP3    H2  235   4.898   0.193   1.852 -1.0069  0.3500 -0.6545
   77TIP3   OH2  236   1.344   5.757   1.691  0.0270  0.1029  0.3591
   77TIP3    H1  237   1.340   5.833   1.749 -0.0622 -0.5439  1.2181
   77TIP3    H2  238   1.263   5.762   1.639 -1.0038 -0.5007  1.8328
   78TIP3   OH2  239   0.023   2.687   2.126 -0.7810  0.4834 -0.2641
   78TIP3    H1  240   0.035   2.592   2.128  0.2915  0.5823 -1.2336
   78TIP3    H2  241   0.075   2.718   2.200 -0.8549  0.3508 -0.1542
   79TIP3   OH2  242   2.326   2.109   4.701  0.2664 -0.4603  0.3116
   79TIP3    H1  243   2.419   2.098   4.678  0.8180 -0.4051  2.3331
   79TIP3    H2  244   2.308   2.037   4.761 -0.6412  0.2885  0.9443
   80TIP3   OH2  245   3.413   0.044   1.803 -0.5449  0.0953 -0.2437
   80TIP3    H1  246   3.381   0.103   1.736  1.6848  0.2505 -1.2832
   80TIP3    H2  247   3.507   0.038   1.786 -0.1505 -1.0441  1.9659
   81TIP3   OH2  248   4.602   0.782   0.535  0.1618  0.0340  1.0916
   81TIP3    H1  249   4.643   0.768   0.450 -0.0852 -1.5912  1.1995
   81TIP3    H2  250   4.509   0.770   0.519 -0.1394  2.0734  1.1593
   82TIP3   OH2  251   0.336   5.844   1.257 -0.1106  0.1481  0.7156
   82TIP3    H1  252   0.328   5.927   1.304 -1.2296  1.0127 -0.8798
   82TIP3    H2  253   0.246   5.822   1.233  0.3360 -0.6962 -0.2604
   83TIP3   OH2  254   5.731   5.096   4.020 -0.2041  0.4743  0.5333
   83TIP3    H1  255   5.781   5.121   3.942 -1.6398 -0.9233 -0.9226
   83TIP3    H2  256   5.740   5.170   4.079  1.8086  1.1428 -0.5199
   84TIP3   OH2  257   1.271   4.109   3.275 -0.1889 -0.0877  0.2290
   84TIP3    H1  258   1.234   4.194   3.253  0.1559 -0.1009 -0.4349
   84TIP3    H2  259   1.206   4.046   3.244  0.1810 -0.0994 -0.5339
   85TIP3   OH2  260   1.080   3.550   0.976  0.0475  0.3404 -0.2689
   85TIP3    H1  261   1.115   3.471   0.935  0.1237  1.3094 -2.2089
   85TIP3    H2  262   1.157   3.599   1.004  0.0919  0.5970 -0.8250
   86TIP3   OH2  263   5.576   4.373   3.933  0.1521  0.7160  0.6329
   86TIP3    H1  264   5.589   4.459   3.974  0.1243  1.5237 -0.9941
   86TIP3    H2  265   5.642   4.317   3.974  1.9801  2.1790 -0.1616
   87TIP3   OH2  266   2.430   5.608   0.380  0.2624 -0.4015  0.2004
   87TIP3    H1  267   2.514   5.650   0.357 -0.0240  0.3140  0.4176
   87TIP3    H2  268   2.449   5.515   0.380  1.3908 -0.2079  1.4744
   88TIP3   OH2  269   4.665   4.761   1.401 -0.2142  0.1187  0.2844
   88TIP3    H1  270   4.711   4.754   1.485 -1.0304 -0.4919  0.7011
   88TIP3    H2  271   4.641   4.671   1.379 -0.3877  0.3265 -0.3820
   89TIP3   OH2  272   5.760   5.425   3.120  0.1136 -0.4280 -0.1455
   89TIP3    H1  273   5.668   5.449   3.135  0.8428  2.5118  0.3239
   89TIP3    H2  274   5.756   5.347   3.065 -2.6679 -0.0578 -0.6131
   90TIP3   OH2  275   3.855   3.922   0.571  0.0925 -0.4600  0.1395
   90TIP3    H1  276   3.915   3.850   0.552 -1.1350 -1.8180  1.1599
   90TIP3    H2  277   3.844   3.967   0.487  0.9957 -1.3767 -0.4942
   91TIP3   OH2  278   3.125   5.834   0.726 -0.0512  0.1004 -0.0205
   91TIP3    H1  279   3.053   5.788   0.768  0.2163 -0.1495  0.1688
   91TIP3    H2  280   3.117   5.812   0.633 -0.0094 -0.2148  0.0496
   92TIP3   OH2  281   4.591   1.260   2.399 -0.3323  0.5802 -0.2187
   92TIP3    H1  282   4.582   1.252   2.304  0.3247 -1.4972 -0.1609
   92TIP3    H2  283   4.530   1.195   2.434  0.7757 -0.0101  0.6829
   93TIP3   OH2  284   3.397   3.266   0.245  0.0063 -0.1465  0.2979
   93TIP3    H1  285   3.413   3.316   0.166  0.6114  0.2001  0.6350
   93TIP3    H2  286   3.441   3.315   0.314 -0.6783 -0.3348  0.8873
   94TIP3   OH2  287   0.158   2.423   4.094 -0.5427 -0.3350  0.3946
   94TIP3    H1  288   0.088   2.360   4.077  0.5073 -1.1654 -1.0914
   94TIP3    H2  289   0.183   2.407   4.186 -2.1693 -0.1071  0.9071
   95TIP3   OH2  290   6.153   2.107   3.616 -0.1423 -0.1496  0.2154
   95TIP3    H1  291   6.067   2.081   3.650  1.2961 -2.8626  2.1196
   95TIP3    H2  292   6.169   2.192   3.655 -1.6585  0.0982  0.3785
   96TIP3   OH2  293   2.763   0.158   2.760  0.3231  0.3578  0.0478
   96TIP3    H1  294   2.800   0.087   2.812  0.2575  0.8303  0.7541
   96TIP3    H2  295   2.779   0.132   2.669  1.8969  0.2964  0.3238
   97TIP3   OH2  296   4.025   0.374   2.318 -0.3475 -0.0212  0.1377
   97TIP3    H1  297   3.985   0.360   2.232 -0.1429 -0.7112  0.1493
   97TIP3    H2  298   4.099   0.314   2.320  0.8292  1.3592  0.0529
   98TIP3   OH2  299   3.611   0.769   2.454  0.0857 -0.0288 -0.0782
   98TIP3    H1  300   3.659   0.763   2.536  1.3269  0.1920 -0.7739
   98TIP3    H2  301   3.530   0.814   2.477 -0.1278 -1.0170  1.2448
   99TIP3   OH2  302   4.593   1.972   3.975  0.3477 -0.0141  0.3589
   99TIP3    H1  303   4.648   2.012   4.043  0.8411  1.6690 -0.9527
   99TIP3    H2  304   4.630   2.005   3.893 -1.4659 -0.3782 -0.6450
  100TIP3   OH2  305   2.928   5.931   4.790  0.4873 -0.0040 -0.4296
  100TIP3    H1  306   2.871   6.006   4.806  1.2323  0.2627  1.2267
  100TIP3    H2  307   3.015   5.969   4.781  0.9604 -0.6761  0.9922
  101TIP3   OH2  308   4.945   4.996   3.019  0.2930 -0.0131  0.2329
  101TIP3    H1  309   5.027   5.010   3.066 -0.2917 -0.1902  1.3254
  101TIP3    H2  310   4.877   5.022   3.080 -0.5250 -1.1223 -0.1782
  102TIP3   OH2  311   4.926   1.478   4.744 -0.8137  0.0011 -0.3357
  102TIP3    H1  312   4.932   1.447   4.654 -0.2226 -1.5870  0.2115
  102TIP3    H2  313   4.973   1.412   4.795 -1.4771  0.6531  1.1834
  103TIP3   OH2  314   4.017   3.116   1.337  0.1258 -0.0877 -0.5522
  103TIP3    H1  315   4.046   3.150   1.253 -0.0541 -0.2092 -0.6646
  103TIP3    H2  316   4.089   3.133   1.397  0.3824 -0.2840 -0.8039
  104TIP3   OH2  317   5.475   4.772   2.594  0.2226  0.3714  0.1180
  104TIP3    H1  318   5.529   4.693   2.587  0.1247 -0.0965  3.2978
  104TIP3    H2  319   5.519   4.825   2.660 -1.6338  1.3433  0.6298
  105TIP3   OH2  320   4.521   3.912   4.003  0.4528  0.2939 -0.1554
  105TIP3    H1  321   4.599   3.898   4.057  0.4522 -0.7162 -0.4004
  105TIP3    H2  322   4.454   3.858   4.045 -0.2126  1.3836  0.2262
  106TIP3   OH2  323   3.892   1.725   0.808  0.1963  0.2237  0.0461
  106TIP3    H1  324   3.971   1.777   0.793  1.7193 -2.3315 -1.5726
  106TIP3    H2  325   3.909   1.679   0.890  0.3247 -0.1643 -0.1942
  107TIP3   OH2  326   6.329   4.306   5.080  0.5497  0.0065 -0.5771
  107TIP3    H1  327   6.385   4.324   5.004 -0.6859  3.3962 -0.8816
  107TIP3    H2  328   6.247   4.275   5.043  0.6454 -0.3557 -0.4832
  108TIP3   OH2  329   0.104   3.922   2.602  0.5079  0.1231  0.3070
  108TIP3    H1  330   0.018   3.898   2.569  1.0799  0.3260 -1.4457
  108TIP3    H2  331   0.120   4.010   2.568  0.9360  0.5639  1.5922
  109TIP3   OH2  332   4.741   5.368   3.119 -0.1442 -0.1116  0.2667
  109TIP3    H1  333   4.670   5.383   3.056 -0.7430 -0.3651  0.8638
  109TIP3    H2  334   4.701   5.314   3.188  1.2027 -2.0780 -0.4199
  110TIP3   OH2  335   1.059   4.864   2.711  0.3321  0.2260  0.0824
  110TIP3    H1  336   1.062   4.800   2.782 -0.7173  2.7151  2.5636
  110TIP3    H2  337   1.149   4.892   2.700  0.1749  2.0424  2.7450
  111TIP3   OH2  338   3.903   5.506   2.897  0.0183 -0.0640  0.2681
  111TIP3    H1  339   3.891   5.557   2.817  0.5161 -2.5657 -1.5392
  111TIP3    H2  340   3.816   5.469   2.915  0.1236 -0.3056  0.2858
  112TIP3   OH2  341   5.009   4.503   4.212 -0.1478 -0.5728  0.0411
  112TIP3    H1  342   4.913   4.502   4.211 -0.3279  3.1362 -2.1031
  112TIP3    H2  343   5.035   4.450   4.137 -0.3918 -2.0942  0.9748
  113TIP3   OH2  344   3.030   3.451   4.345 -0.1107  0.3240  0.1942
  113TIP3    H1  345   2.983   3.399   4.279 -1.2945  0.1512  1.1445
  113TIP3    H2  346   3.087   3.509   4.293 -1.7929  0.9487 -1.0505
  114TIP3   OH2  347   2.129   2.204   1.261  0.1876  0.1310  0.0120
  114TIP3    H1  348   2.117   2.130   1.201 -0.5206 -0.6880  1.1266
  114TIP3    H2  349   2.208   2.247   1.230  0.5887 -1.0674 -0.6916
  115TIP3   OH2  350   4.292   2.124   5.074  1.0107  0.0303  0.1316
  115TIP3    H1  351   4.378   2.088   5.051  0.7157 -0.3049 -0.4649
  115TIP3    H2  352   4.278   2.095   5.164  1.3918 -0.1816  0.1262
  116TIP3   OH2  353   2.528   4.542   3.506  0.0253  0.4409 -0.5361
  116TIP3    H1  354   2.574   4.477   3.452  0.7763  0.7767 -0.3166
  116TIP3    H2  355   2.445   4.500   3.529  0.5229 -0.4615 -0.3441
  117TIP3   OH2  356   3.053   4.152   3.523 -0.3842  0.7000  0.0067
  117TIP3    H1  357   3.064   4.092   3.449 -0.6136  2.6262 -1.6633
  117TIP3    H2  358   3.115   4.121   3.589 -0.4380 -1.3020 -0.8122
  118TIP3   OH2  359   6.247   5.792   5.094 -0.5702 -0.1849 -0.3077
  118TIP3    H1  360   6.331   5.754   5.119 -0.6149 -0.4559 -0.5707
  118TIP3    H2  361   6.191   5.780   5.171  0.0315  1.2519  0.4066
  119TIP3   OH2  362   2.776   5.234   0.801  0.6327 -0.2273  0.3267
  119TIP3    H1  363   2.853   5.286   0.826  0.7332 -1.1901  2.2108
  119TIP3    H2  364   2.756   5.182   0.879 -1.9097 -0.0565 -0.1381
  120TIP3   OH2  365   5.010   1.303   2.471  0.2469 -0.3312 -0.0815
  120TIP3    H1  366   5.071   1.274   2.539  1.8223 -1.7247 -1.9859
  120TIP3    H2  367   4.938   1.343   2.520  1.6348 -0.5892  2.3597
  121TIP3   OH2  368   5.557   3.140   3.385  0.5480 -0.4743 -0.0753
  121TIP3    H1  369   5.633   3.193   3.408  1.5734 -2.1408  0.5662
  121TIP3    H2  370   5.549   3.077   3.456 -0.2209 -1.5782 -1.1006
  122TIP3   OH2  371   3.696   1.618   3.130 -0.4829 -0.2114  0.1424
  122TIP3    H1  372   3.651   1.681   3.074 -1.6578 -2.1643 -1.2141
  122TIP3    H2  373   3.774   1.594   3.081 -1.4282 -1.7993 -0.6561
  123TIP3   OH2  374   1.783   5.502   3.284 -0.4678  0.5256 -0.1784
  123TIP3    H1  375   1.803   5.449   3.361  1.3545 -2.0636 -2.2588
  123TIP3    H2  376   1.849   5.572   3.286  1.9980 -1.6101 -1.1464
  124TIP3   OH2  377   0.576   0.223   4.416 -0.6279  0.9396 -0.4687
  124TIP3    H1  378   0.550   0.153   4.357 -2.4870  0.1368  1.1667
  124TIP3    H2  379   0.660   0.255   4.382  0.3453 -2.1360 -1.2363
  125TIP3   OH2  380   1.848   3.829   3.858  0.2373  0.1734  0.1827
  125TIP3    H1  381   1.901   3.787   3.790 -0.9064 -1.9115  0.4900
  125TIP3    H2  382   1.806   3.902   3.813  2.3224  1.0905 -0.3802
  126TIP3   OH2  383   2.892   2.454   3.093  0.1378 -0.2838  0.5920
  126TIP3    H1  384   2.839   2.484   3.167 -0.5904  0.7682 -0.3119
  126TIP3    H2  385   2.830   2.413   3.033  0.2132  1.3565 -0.6873
  127TIP3   OH2  386   2.963   3.387   0.645 -0.3037 -0.3282  0.1012
  127TIP3    H1  387   2.914   3.343   0.714 -0.2666  0.1899  0.4613
  127TIP3    H2  388   3.020   3.319   0.609 -2.3225 -1.3643 -1.3515
  128TIP3   OH2  389   0.320   0.562   0.840  0.1807  0.2981  0.2940
  128TIP3    H1  390   0.364   0.576   0.924  3.8366 -1.2293 -1.1427
  128TIP3    H2  391   0.362   0.624   0.780 -0.3314 -0.5453 -0.9895
  129TIP3   OH2  392   0.840   5.942   1.562  0.1726  0.4208 -0.2913
  129TIP3    H1  393   0.829   5.974   1.651 -1.1032 -0.0932 -0.2406
  129TIP3    H2  394   0.795   5.858   1.561 -0.1196  0.5690 -1.4984
  130TIP3   OH2  395   0.678   2.175   1.024 -0.5080  0.3886  0.1665
  130TIP3    H1  396   0.655   2.176   1.116  3.3933  0.5725  1.3362
  130TIP3    H2  397   0.680   2.268   0.998 -2.6011  0.3018 -0.5055
  131TIP3   OH2  398   5.999   4.775   4.823 -0.1770  0.2331  0.1798
  131TIP3    H1  399   5.956   4.740   4.901 -0.1847 -0.3533 -0.0897
  131TIP3    H2  400   6.075   4.719   4.810  0.2230  0.7715  0.1747
  132TIP3   OH2  401   1.995   1.240   3.733 -0.1325 -0.0548  0.2239
  132TIP3    H1  402   1.949   1.321   3.714 -1.5016 -1.3563 -2.6382
  132TIP3    H2  403   2.087   1.260   3.718 -0.1930  1.4164  1.5339
  133TIP3   OH2  404   5.144   4.753   3.010 -0.1035 -0.7035  0.6355
  133TIP3    H1  405   5.117   4.844   3.015  1.4859  0.1277 -3.0982
  133TIP3    H2  406   5.216   4.746   3.073  1.6597  1.5083 -0.9561
  134TIP3   OH2  407   4.825   0.790   3.503 -0.1900  0.5420  0.3767
  134TIP3    H1  408   4.842   0.773   3.596 -1.4265 -1.0799  0.3322
  134TIP3    H2  409   4.754   0.731   3.479  0.8087  0.1485 -1.8926
  135TIP3   OH2  410   5.405   5.306   3.697 -0.4569  0.4300 -0.4718
  135TIP3    H1  411   5.450   5.372   3.749 -0.9594 -0.0020  0.5495
  135TIP3    H2  412   5.446   5.311   3.610  2.5623 -0.9126  0.7348
  136TIP3   OH2  413   0.129   0.621   4.910 -0.2948  0.3613 -0.3241
  136TIP3    H1  414   0.109   0.599   4.819 -1.8460  0.5290 -0.0606
  136TIP3    H2  415   0.047   0.603   4.957  0.4487  0.3743  1.0222
  137TIP3   OH2  416   4.685   3.124   3.051 -0.1176 -0.4824  0.6245
  137TIP3    H1  417   4.637   3.069   2.990 -0.7438 -0.6623  1.2671
  137TIP3    H2  418   4.717   3.064   3.118  1.8456 -0.5225 -0.2736
  138TIP3   OH2  419   1.287   3.849   2.159 -0.1788 -0.3392  0.0412
  138TIP3    H1  420   1.207   3.887   2.121 -1.7002 -1.0923  2.2894
  138TIP3    H2  421   1.358   3.900   2.120 -1.6945  0.2379 -2.2050
  139TIP3   OH2  422   3.913   2.224   0.077  0.2012  0.1277 -0.0998
  139TIP3    H1  423   3.938   2.311   0.107  0.3451  0.2883 -0.6724
  139TIP3    H2  424   3.997   2.179   0.060  0.1268  0.3800 -1.2067
  140TIP3   OH2  425   3.168   4.319   2.303 -0.0070  0.7801 -0.7280
  140TIP3    H1  426   3.238   4.343   2.364  1.4543 -1.6817 -1.2666
  140TIP3    H2  427   3.209   4.322   2.217 -1.6284  2.7320 -1.5129
  141TIP3   OH2  428   2.397   3.956   3.559 -0.4689 -0.1222 -0.5836
  141TIP3    H1  429   2.315   3.996   3.528  0.1354  2.1223  0.4957
  141TIP3    H2  430   2.451   4.031   3.584  1.3513 -1.6279  0.1512
  142TIP3   OH2  431   2.339   2.275   3.064 -0.2636 -0.0912  0.1501
  142TIP3    H1  432   2.262   2.224   3.038 -2.0527  2.5446 -0.1678
  142TIP3    H2  433   2.387   2.290   2.982 -2.2995  2.5726 -0.6922
  143TIP3   OH2  434   0.337   4.571   2.851 -0.5031 -0.2379 -0.1289
  143TIP3    H1  435   0.259   4.603   2.806 -0.4395 -1.6335 -1.2965
  143TIP3    H2  436   0.393   4.538   2.781  0.2018 -1.2399  0.8764
  144TIP3   OH2  437   5.929   5.596   4.895 -0.1638 -0.2824  0.7065
  144TIP3    H1  438   5.886   5.536   4.955 -0.5719 -1.8827 -1.0739
  144TIP3    H2  439   5.975   5.540   4.833  1.3065  1.3141  0.2465
  145TIP3   OH2  440   3.915   5.737   4.674  0.0686  0.2014  0.1059
  145TIP3    H1  441   3.912   5.717   4.581  1.8081  2.2308 -0.4697
  145TIP3    H2  442   4.006   5.720   4.699 -0.7402 -2.0399  1.9313
  146TIP3   OH2  443   6.154   3.697   2.386 -1.0150 -0.1748 -0.0743
  146TIP3    H1  444   6.235   3.747   2.395 -0.3889 -0.9108 -1.2338
  146TIP3    H2  445   6.170   3.640   2.311 -2.8592  0.1325 -0.7668
  147TIP3   OH2  446   1.675   2.284   4.235 -0.2572  0.7315 -0.6840
  147TIP3    H1  447   1.669   2.246   4.323 -1.7340 -2.5417 -2.0303
  147TIP3    H2  448   1.592   2.332   4.225  0.7744  2.8275  0.3374
  148TIP3   OH2  449   1.166   2.779   1.399 -0.5473  0.2288 -0.6092
  148TIP3    H1  450   1.072   2.774   1.382 -1.0826 -0.5002  2.1348
  148TIP3    H2  451   1.198   2.690   1.383 -0.8980 -0.2489  1.1923
  149TIP3   OH2  452   3.894   4.389   3.980 -0.0410 -0.1290  0.1951
  149TIP3    H1  453   3.801   4.402   3.997 -0.0179  0.3540 -0.0466
  149TIP3    H2  454   3.939   4.448   4.040  0.1568 -1.1841  1.1288
  150TIP3   OH2  455   2.144   3.495   2.634  0.6771 -0.4190  0.2590
  150TIP3    H1  456   2.230   3.503   2.595  0.7292  0.5996  0.5624
  150TIP3    H2  457   2.137   3.569   2.694  0.5228 -1.7977  2.0488
  151TIP3   OH2  458   0.496   4.666   1.434  0.0268 -0.1690 -0.9336
  151TIP3    H1  459   0.422   4.626   1.388 -0.6503  0.6002 -0.5567
  151TIP3    H2  460   0.469   4.758   1.446  1.2918  0.2646 -1.2845
  152TIP3   OH2  461   2.145   4.648   2.947  0.0330  0.4678  0.4260
  152TIP3    H1  462   2.177   4.680   3.031  0.9532 -0.7049  0.5554
  152TIP3    H2  463   2.221   4.607   2.906 -0.5542  0.4692 -0.7068
  153TIP3   OH2  464   0.030   2.411   2.074  0.2240 -0.4027  0.0621
  153TIP3    H1  465  -0.061   2.402   2.046 -0.4603  0.7182  1.7508
  153TIP3    H2  466   0.046   2.335   2.130  0.8326 -1.3746 -1.3714
  154TIP3   OH2  467   0.339   1.400   2.216  0.5397 -0.0607 -0.3415
  154TIP3    H1  468   0.274   1.402   2.146 -0.1273  2.0385  0.2749
  154TIP3    H2  469   0.288   1.398   2.297  1.2039  1.2410  0.1451
  155TIP3   OH2  470   5.285   5.526   0.907  0.5887 -0.0681 -0.1827
  155TIP3    H1  471   5.271   5.578   0.986  1.4128  0.3042 -0.2668
  155TIP3    H2  472   5.197   5.510   0.873  0.2547  0.1652  0.5545
  156TIP3   OH2  473   2.570   1.418   2.812  0.4943 -0.4090 -0.4552
  156TIP3    H1  474   2.590   1.467   2.892  1.7351 -0.6414 -0.6129
  156TIP3    H2  475   2.595   1.477   2.741 -0.4363 -0.2749 -0.6893
  157TIP3   OH2  476   4.887   0.980   1.522  0.1211  0.0184 -0.3210
  157TIP3    H1  477   4.859   0.939   1.604  0.3596 -0.4275 -0.4567
  157TIP3    H2  478   4.857   0.919   1.454  0.4314  0.0945 -0.5287
  158TIP3   OH2  479   1.107   3.160   1.256 -0.0019  0.1358 -0.3472
  158TIP3    H1  480   1.166   3.187   1.186  0.5289  1.6589  0.6324
  158TIP3    H2  481   1.071   3.243   1.290 -2.3059 -0.6952 -0.5447
  159TIP3   OH2  482   2.668   0.527   3.968  0.1034 -0.0833  0.0398
  159TIP3    H1  483   2.673   0.590   4.039  0.0928  1.2125 -1.0592
  159TIP3    H2  484   2.754   0.485   3.967  0.5278  0.7603  0.0608
  160TIP3   OH2  485   0.950   5.114   3.804  0.6460  0.1089  0.8318
  160TIP3    H1  486   0.857   5.110   3.784  0.4877 -0.3937  1.6602
  160TIP3    H2  487   0.961   5.197   3.852  0.9976  1.2294 -1.0728
  161TIP3   OH2  488   4.808   3.270   5.057 -0.2054 -0.3468  0.1892
  161TIP3    H1  489   4.773   3.357   5.072  1.0827  0.4694 -1.1557
  161TIP3    H2  490   4.830   3.237   5.144  1.2003  1.5519  0.6253
  162TIP3   OH2  491   2.599   4.166   1.047 -0.0951 -0.1217 -1.1242
  162TIP3    H1  492   2.623   4.250   1.085  0.2366 -0.3237 -0.8767
  162TIP3    H2  493   2.505   4.174   1.028 -0.5702 -0.3849  0.8008
  163TIP3   OH2  494   3.424   0.766   4.710 -0.0806  0.1909  0.1237
  163TIP3    H1  495   3.425   0.750   4.615  1.2529  0.9479 -0.0195
  163TIP3    H2  496   3.349   0.716   4.742 -0.6072 -0.0116 -1.3434
  164TIP3   OH2  497   5.579   5.245   0.350 -0.4936 -0.1832 -0.1405
  164TIP3    H1  498   5.567   5.318   0.290 -1.4244 -0.1795  0.0447
  164TIP3    H2  499   5.597   5.286   0.434 -1.6271 -0.1511  0.0936
  165TIP3   OH2  500   2.150   2.195   0.643 -0.1069  0.4561 -0.0287
  165TIP3    H1  501   2.233   2.234   0.616 -0.7185  2.5033  0.8067
  165TIP3    H2  502   2.164   2.101   0.635  1.4166  0.7962 -2.3525
  166TIP3   OH2  503   5.510   2.736   0.434  0.3241 -0.0147  0.2488
  166TIP3    H1  504   5.587   2.781   0.398 -0.0271  0.1817 -0.2682
  166TIP3    H2  505   5.437   2.765   0.379 -0.2628  0.4245  1.2393
  167TIP3   OH2  506   4.751   1.291   2.651 -0.1272  0.7094 -0.2947
  167TIP3    H1  507   4.729   1.244   2.570 -1.8557  0.0207  0.5162
  167TIP3    H2  508   4.667   1.326   2.681  0.6555  1.7843  0.7060
  168TIP3   OH2  509   4.429   3.246   1.121 -0.0872 -0.7918  0.5393
  168TIP3    H1  510   4.489   3.320   1.115 -0.2274 -0.7041  0.1683
  168TIP3    H2  511   4.356   3.278   1.173 -0.7276 -0.2638 -0.6422
  169TIP3   OH2  512   5.971   4.869   3.853 -0.0557  0.2322  0.0750
  169TIP3    H1  513   6.007   4.796   3.803 -0.7927 -0.5586  0.6606
  169TIP3    H2  514   5.991   4.848   3.944 -2.7259 -0.7418  0.5331
  170TIP3   OH2  515   0.471   5.020   0.443 -0.1784  0.1168 -0.2851
  170TIP3    H1  516   0.429   4.940   0.410 -0.3371 -0.0480  0.2963
  170TIP3    H2  517   0.484   5.002   0.536  0.0858  0.6450 -0.2218
  171TIP3   OH2  518   1.260   4.005   2.974  0.8369  0.4505  0.2375
  171TIP3    H1  519   1.308   3.940   3.026  0.4076  1.1165  1.5211
  171TIP3    H2  520   1.318   4.081   2.971  1.0419  0.2633 -0.6532
  172TIP3   OH2  521   2.280   0.147   4.722  0.1941 -0.2028  0.3952
  172TIP3    H1  522   2.330   0.065   4.713  1.5859  0.4994  1.3093
  172TIP3    H2  523   2.335   0.203   4.777 -0.7711  1.3251 -0.1139
  173TIP3   OH2  524   3.965   1.922   3.317  0.4708 -0.1953 -0.3504
  173TIP3    H1  525   4.010   1.983   3.375 -0.7649 -0.2754  0.7548
  173TIP3    H2  526   3.903   1.877   3.374 -1.9344  0.8228 -1.9738
  174TIP3   OH2  527   1.674   1.653   2.972  0.7898  0.3448 -0.0632
  174TIP3    H1  528   1.680   1.570   2.924 -1.4295 -0.5574  1.0988
  174TIP3    H2  529   1.611   1.705   2.923  0.3522  0.3853  0.5384
  175TIP3   OH2  530   2.561   5.255   1.153 -0.1909 -0.5731  0.4585
  175TIP3    H1  531   2.579   5.283   1.243 -0.8410  1.0893  0.1179
  175TIP3    H2  532   2.485   5.197   1.160 -0.9222  0.4149  0.8927
  176TIP3   OH2  533   0.283   3.673   0.823 -0.5370 -0.7712  0.4117
  176TIP3    H1  534   0.222   3.660   0.750  1.0839  0.8930 -1.3707
  176TIP3    H2  535   0.251   3.752   0.867  0.7348  0.7001 -1.1317
  177TIP3   OH2  536   5.241   3.313   4.276 -0.0152 -0.2343  0.1786
  177TIP3    H1  537   5.336   3.329   4.277 -0.0856  0.1895  0.2607
  177TIP3    H2  538   5.210   3.361   4.199 -0.5490  1.9557  1.6485
  178TIP3   OH2  539   3.731   5.033   3.414 -0.1615 -0.4272 -0.5562
  178TIP3    H1  540   3.653   5.070   3.455  0.0394 -1.7596  1.1697
  178TIP3    H2  541   3.736   4.944   3.448  1.5156 -0.7242 -1.4707
  179TIP3   OH2  542   5.572   5.493   3.852 -0.2653  0.0979  1.1688
  179TIP3    H1  543   5.605   5.566   3.798 -1.5479 -0.4527 -0.4335
  179TIP3    H2  544   5.638   5.425   3.842 -0.5988 -0.0849  0.0543
  180TIP3   OH2  545   3.266   2.502   2.429 -0.5438 -0.6652 -0.1616
  180TIP3    H1  546   3.316   2.503   2.511 -1.4126 -0.2691  0.3745
  180TIP3    H2  547   3.314   2.560   2.371 -0.2080 -0.5368  0.2411
  181TIP3   OH2  548   2.990   2.003   0.686 -0.3994 -0.1741  0.2265
  181TIP3    H1  549   2.918   1.941   0.677 -1.1682  0.7208 -0.0407
  181TIP3    H2  550   3.038   1.974   0.764 -0.1850 -1.6237 -0.4260
  182TIP3   OH2  551   1.277   4.536   1.491  0.7623  0.1495 -0.5671
  182TIP3    H1  552   1.237   4.610   1.536  1.7379  0.6624 -0.5359
  182TIP3    H2  553   1.241   4.540   1.402 -0.0450 -0.0149 -0.2623
  183TIP3   OH2  554   2.068   1.419   0.471 -0.0508  0.0122  0.0775
  183TIP3    H1  555   2.134   1.414   0.541  2.4577 -0.7871 -2.1780
  183TIP3    H2  556   2.062   1.512   0.451  1.1457  0.0162 -0.3217
  184TIP3   OH2  557   5.893   4.275   3.380  0.2570 -0.7678 -0.0321
  184TIP3    H1  558   5.853   4.291   3.294  0.2576 -1.3600 -0.1467
  184TIP3    H2  559   5.895   4.361   3.422 -0.6522 -0.6417 -0.2329
  185TIP3   OH2  560   4.097   5.395   3.709 -0.3323 -0.3653 -0.2864
  185TIP3    H1  561   4.159   5.384   3.637  1.1449  0.0788  0.8690
  185TIP3    H2  562   4.025   5.336   3.687  0.5621 -1.0275 -1.5984
  186TIP3   OH2  563   3.022   2.642   0.089  0.1777 -0.3748  0.0051
  186TIP3    H1  564   2.998   2.729   0.120 -2.2818 -0.9117 -0.1624
  186TIP3    H2  565   2.969   2.582   0.142 -0.3502 -1.5869 -1.7912
  187TIP3   OH2  566   3.855   5.631   1.920 -0.5594 -0.2698 -0.0806
  187TIP3    H1  567   3.841   5.654   2.012  0.8145 -1.1762  0.3879
  187TIP3    H2  568   3.854   5.715   1.874  1.9136  0.5728  1.2389
  188TIP3   OH2  569   1.294   0.475   4.206  0.3471  0.4202 -0.5040
  188TIP3    H1  570   1.252   0.410   4.262 -1.0560  1.3669 -0.4096
  188TIP3    H2  571   1.388   0.454   4.211 -0.0476 -1.5796 -0.4945
  189TIP3   OH2  572   2.154   3.004   4.346  0.1222  0.6243 -0.2244
  189TIP3    H1  573   2.210   3.058   4.290  0.6437  0.2753 -0.0529
  189TIP3    H2  574   2.215   2.944   4.390 -0.3074  0.7144  0.5112
  190TIP3   OH2  575   4.458   2.909   0.178 -0.3122 -0.0576  0.2141
  190TIP3    H1  576   4.387   2.889   0.239 -1.2072  0.0199 -0.7757
  190TIP3    H2  577   4.458   3.004   0.171  0.2091 -0.0288  0.5790
  191TIP3   OH2  578   2.488   2.870   4.983 -0.6999  0.3535  0.3903
  191TIP3    H1  579   2.430   2.808   5.027 -0.6963 -0.4261 -0.6662
  191TIP3    H2  580   2.451   2.881   4.896  0.1603  0.6475  0.0473
  192TIP3   OH2  581   0.053   2.156   4.972  0.0256 -0.0703 -0.1207
  192TIP3    H1  582   0.042   2.087   5.036  0.2987  0.2186  0.2387
  192TIP3    H2  583   0.076   2.234   5.023  0.3571  0.1371 -0.5746
  193TIP3   OH2  584   5.905   2.210   4.163  0.0149  0.3595 -0.1313
  193TIP3    H1  585   5.931   2.289   4.211  0.5278 -0.2798  0.6760
  193TIP3    H2  586   5.987   2.165   4.144 -0.0642  1.1396 -2.6562
  194TIP3   OH2  587   0.901   0.108   0.956  0.0469  0.5611  0.3717
  194TIP3    H1  588   0.854   0.030   0.928 -0.5107  0.5153  1.3981
  194TIP3    H2  589   0.867   0.127   1.043  0.0159  2.0756  0.0631
  195TIP3   OH2  590   3.842   2.700   4.472 -0.3306 -0.1664  0.2173
  195TIP3    H1  591   3.780   2.632   4.446 -1.2422  1.0821 -1.0250
  195TIP3    H2  592   3.922   2.681   4.423 -0.7357 -0.1064 -0.4827
  196TIP3   OH2  593   4.920   2.245   1.132 -0.9435  0.6090 -0.1602
  196TIP3    H1  594   4.844   2.297   1.158 -1.5446 -0.1937 -0.3056
  196TIP3    H2  595   4.886   2.157   1.118  0.1187  0.0906  0.3786
  197TIP3   OH2  596   6.357   2.701   0.222  0.3048  0.9706 -0.4274
  197TIP3    H1  597   6.340   2.794   0.212 -0.0933  0.9464  0.0213
  197TIP3    H2  598   6.271   2.661   0.226  0.4731  0.5984 -0.4624
  198TIP3   OH2  599   1.651   0.314   2.893  0.4328 -0.3779  0.2476
  198TIP3    H1  600   1.706   0.240   2.917 -0.2971 -1.3861 -1.1054
  198TIP3    H2  601   1.624   0.297   2.803 -0.1590  1.2916  0.0609
  199TIP3   OH2  602   3.214   1.425   1.650 -0.1754  0.0450 -0.1648
  199TIP3    H1  603   3.241   1.437   1.741 -0.2808 -1.4255  0.0793
  199TIP3    H2  604   3.175   1.509   1.625  2.1423  1.3339  0.3086
  200TIP3   OH2  605   1.485   0.933   1.299 -0.0824 -0.0880  0.6929
  200TIP3    H1  606   1.544   0.995   1.342 -0.1236  0.8994 -0.6131
  200TIP3    H2  607   1.533   0.850   1.300  1.7490  0.8606 -1.0594
  201TIP3   OH2  608   4.443   1.592   0.953  0.1023 -0.0830  0.1195
  201TIP3    H1  609   4.429   1.683   0.980  4.1203  0.2075  1.9951
  201TIP3    H2  610   4.485   1.598   0.868  0.6290 -0.1325  0.3710
  202TIP3   OH2  611   3.962   4.544   1.566 -0.5301  0.1415  0.2032
  202TIP3    H1  612   4.027   4.474   1.574  0.4988  0.8354 -1.5307
  202TIP3    H2  613   3.885   4.509   1.610 -0.2378 -2.3393 -1.0360
  203TIP3   OH2  614   4.041   3.402   0.759  0.7821 -0.2357 -0.0402
  203TIP3    H1  615   4.038   3.497   0.772 -0.8524 -0.4955  1.8453
  203TIP3    H2  616   4.134   3.382   0.746  1.0292  1.7421 -1.7705
  204TIP3   OH2  617   4.416   0.502   4.439 -0.5651 -0.2164 -0.4648
  204TIP3    H1  618   4.339   0.515   4.383 -1.8688 -0.6645  1.1403
  204TIP3    H2  619   4.380   0.491   4.527  1.5163  3.6824  1.1132
  205TIP3   OH2  620   5.625   3.664   0.295 -0.1523 -0.5327 -0.3836
  205TIP3    H1  621   5.719   3.657   0.277  0.1087 -1.5538  1.1961
  205TIP3    H2  622   5.593   3.574   0.290 -0.8939 -0.2883 -0.1468
  206TIP3   OH2  623   0.739   5.457   5.096 -0.4997  1.0548  0.0619
  206TIP3    H1  624   0.740   5.501   5.011 -1.4971  2.2159  0.6078
  206TIP3    H2  625   0.673   5.506   5.147  1.5488  1.7850  2.1993
  207TIP3   OH2  626   5.494   4.326   1.917  0.6917 -0.0972  0.7413
  207TIP3    H1  627   5.485   4.288   1.829 -1.2120  1.3269  0.2577
  207TIP3    H2  628   5.588   4.339   1.928  1.0831 -1.5684 -0.5120
  208TIP3   OH2  629   0.671   5.164   1.869  0.1379 -0.1607 -0.0672
  208TIP3    H1  630   0.584   5.125   1.865 -0.1303  0.2301  1.3831
  208TIP3    H2  631   0.703   5.161   1.778 -2.1275  1.4022 -1.0102
  209TIP3   OH2  632   0.751   4.315   0.850  0.5363  0.0768 -0.5878
  209TIP3    H1  633   0.687   4.375   0.888 -0.1532 -0.1241 -1.4047
  209TIP3    H2  634   0.745   4.236   0.903  0.4470  0.2295 -0.3712
  210TIP3   OH2  635   6.298   0.304   4.128  0.2809 -0.3296  0.0105
  210TIP3    H1  636   6.260   0.248   4.060 -0.2592  0.2448 -0.1743
  210TIP3    H2  637   6.366   0.251   4.169 -0.0091 -1.0005 -0.3756
  211TIP3   OH2  638   3.672   2.632   3.919 -0.3512  0.4762  0.3464
  211TIP3    H1  639   3.757   2.672   3.938 -1.2749  2.0114  1.5245
  211TIP3    H2  640   3.615   2.706   3.896 -1.5727 -0.4025  0.4079
  212TIP3   OH2  641   3.310   4.986   3.945 -0.5611 -0.6060 -0.2062
  212TIP3    H1  642   3.349   4.979   4.032 -1.0735 -1.0046 -0.0071
  212TIP3    H2  643   3.341   5.070   3.911 -1.6837  0.3296  1.0121
  213TIP3   OH2  644   4.930   4.118   3.879  0.5707  0.0854  0.9352
  213TIP3    H1  645   4.970   4.032   3.865  1.4969  0.5759  0.4563
  213TIP3    H2  646   4.857   4.121   3.817  0.2022 -0.5551  1.3311
  214TIP3   OH2  647   4.641   4.110   3.771  0.5905  0.2941  0.1249
  214TIP3    H1  648   4.608   4.180   3.715  1.4292  0.2784 -0.4027
  214TIP3    H2  649   4.571   4.045   3.773  0.6437  0.1867 -1.0980
  215TIP3   OH2  650   4.649   0.924   4.213 -0.3996 -0.3522 -0.2528
  215TIP3    H1  651   4.576   0.907   4.154 -1.4756 -0.9555  1.1916
  215TIP3    H2  652   4.649   0.850   4.274 -0.5192  1.0921  1.6174
  216TIP3   OH2  653   2.231   2.959   0.452 -0.6498 -0.6188  0.0097
  216TIP3    H1  654   2.161   3.020   0.475  1.3651  2.0954 -0.4197
  216TIP3    H2  655   2.260   2.988   0.365  2.5823  0.0616  1.1889
  217TIP3   OH2  656   2.823   5.517   0.407  0.6427  0.1987 -0.7117
  217TIP3    H1  657   2.769   5.492   0.482 -0.4147 -0.3529 -1.6217
  217TIP3    H2  658   2.778   5.593   0.369  1.0985  0.3993 -0.8576
  218TIP3   OH2  659   2.858   1.682   0.054  0.1842 -0.4197  0.1985
  218TIP3    H1  660   2.885   1.754   0.112  0.9248 -0.9468  0.5242
  218TIP3    H2  661   2.928   1.617   0.063 -0.1921 -0.9346 -0.5345
  219TIP3   OH2  662   5.117   2.709   2.663  0.1178  0.1266  0.0747
  219TIP3    H1  663   5.031   2.700   2.623  0.5020 -2.4542 -0.3621
  219TIP3    H2  664   5.112   2.791   2.713 -1.8180  1.1817 -1.6768
  220TIP3   OH2  665   2.010   5.579   1.526  0.0470 -0.5020 -0.1099
  220TIP3    H1  666   1.961   5.611   1.450 -1.6926  0.5864  1.3779
  220TIP3    H2  667   1.972   5.493   1.544  0.1930 -0.5921 -0.2267
  221TIP3   OH2  668   1.167   5.559   3.967  0.0180  0.3125  0.0911
  221TIP3    H1  669   1.259   5.535   3.982  0.0061  0.8349  1.0593
  221TIP3    H2  670   1.140   5.503   3.894  1.2416  0.4988 -0.5377
  222TIP3   OH2  671   5.802   3.134   0.044  1.1942 -0.0179 -0.4562
  222TIP3    H1  672   5.848   3.180  -0.026  1.8311 -0.1460 -0.1215
  222TIP3    H2  673   5.795   3.198   0.115  0.5671  0.1050 -0.6201
  223TIP3   OH2  674   1.804   0.673   4.812 -0.1529 -0.7493 -0.5063
  223TIP3    H1  675   1.804   0.768   4.821 -1.8583 -0.5914 -1.6867
  223TIP3    H2  676   1.751   0.641   4.885  1.4003 -0.9331  0.5956
  224TIP3   OH2  677   1.531   1.244   1.930  0.2754 -0.2960  0.4047
  224TIP3    H1  678   1.451   1.215   1.973  0.4314 -0.6450  0.4572
  224TIP3    H2  679   1.589   1.271   2.002  0.4504 -0.6625  0.3996
  225TIP3   OH2  680   3.933   5.428   1.152  0.3129 -0.5263  0.0452
  225TIP3    H1  681   3.932   5.523   1.162 -1.7640 -0.4828 -0.2198
  225TIP3    H2  682   3.911   5.394   1.239  1.9526 -0.8256  0.3715
  226TIP3   OH2  683   1.592   5.944   2.136  0.0900 -0.2616  0.0743
  226TIP3    H1  684   1.528   6.009   2.108  1.2299  0.8900  0.0635
  226TIP3    H2  685   1.555   5.906   2.216 -1.3217 -0.7570 -0.7740
  227TIP3   OH2  686   1.945   1.965   0.188 -0.7162 -0.2450 -0.4924
  227TIP3    H1  687   1.852   1.969   0.211 -0.7665 -0.3895 -0.6625
  227TIP3    H2  688   1.953   2.024   0.113 -0.3961  0.8549  0.3897
  228TIP3   OH2  689   3.334   3.792   0.618  0.1185 -0.1760 -0.1432
  228TIP3    H1  690   3.374   3.713   0.653 -0.5611  0.0164  1.1665
  228TIP3    H2  691   3.339   3.855   0.691 -1.2033  0.3104 -0.4358
  229TIP3   OH2  692   3.853   0.368   4.876 -0.2091  0.6469 -0.0794
  229TIP3    H1  693   3.784   0.361   4.810  2.0867 -0.1939 -2.5709
  229TIP3    H2  694   3.848   0.286   4.924  0.2357 -0.2656 -1.5328
  230TIP3   OH2  695   4.370   4.550   0.405 -0.3354  0.0195  0.1780
  230TIP3    H1  696   4.365   4.550   0.309  2.1085  0.8887 -0.0295
  230TIP3    H2  697   4.431   4.478   0.425 -0.1425  0.4134  1.0176
  231TIP3   OH2  698   2.011   3.861   4.094 -0.2015 -0.4144 -0.1321
  231TIP3    H1  699   1.957   3.847   4.017 -1.5218  1.0508  0.4519
  231TIP3    H2  700   2.095   3.891   4.060 -0.2822 -1.1485 -1.0193
  232TIP3   OH2  701   4.850   2.558   0.899 -0.3216 -0.1936  0.0223
  232TIP3    H1  702   4.883   2.645   0.919  2.0106 -0.9597 -0.1530
  232TIP3    H2  703   4.868   2.547   0.805  0.8820 -1.3892  0.3553
  233TIP3   OH2  704   0.496   3.765   3.398  0.3500 -0.2690  0.1916
  233TIP3    H1  705   0.489   3.802   3.486 -0.7746 -0.7996  0.3452
  233TIP3    H2  706   0.577   3.713   3.400  0.3566 -0.2431  0.9008
  234TIP3   OH2  707   0.125   4.787   4.362  0.0886  0.1197 -0.1772
  234TIP3    H1  708   0.154   4.832   4.441 -0.7556 -1.1740  0.9212
  234TIP3    H2  709   0.189   4.717   4.348  1.8353  1.9957 -2.3194
  235TIP3   OH2  710   3.026   0.313   4.739  0.2287 -0.1520  0.3315
  235TIP3    H1  711   3.051   0.340   4.651  0.0498 -2.2304 -0.4065
  235TIP3    H2  712   2.941   0.270   4.728 -0.1214  0.1528  1.6385
  236TIP3   OH2  713   2.406   3.465   3.160  0.3190  0.7023  0.2077
  236TIP3    H1  714   2.445   3.457   3.073  1.5884  2.2933  0.5897
  236TIP3    H2  715   2.481   3.470   3.219 -0.4907  1.8977  1.1733
  237TIP3   OH2  716   2.561   0.728   0.221  0.2525 -0.4735  0.3070
  237TIP3    H1  717   2.580   0.634   0.221  1.7755 -0.2440 -1.8180
  237TIP3    H2  718   2.535   0.746   0.131 -2.4174  0.7726  1.2237
  238TIP3   OH2  719   4.218   2.149   0.739 -0.3274  0.6131  0.4189
  238TIP3    H1  720   4.269   2.091   0.682 -0.5658 -1.2650  2.0191
  238TIP3    H2  721   4.268   2.230   0.741  2.8545 -1.1773  2.0447
  239TIP3   OH2  722   3.511   1.145   0.430  0.1514 -0.0340 -0.3857
  239TIP3    H1  723   3.474   1.199   0.500 -0.5925 -1.4703  0.3829
  239TIP3    H2  724   3.561   1.078   0.476 -0.4227 -1.0573 -1.2223
  240TIP3   OH2  725   4.886   3.807   0.371 -0.4186  0.2829  0.2741
  240TIP3    H1  726   4.895   3.721   0.412 -0.1956 -0.0780 -0.5060
  240TIP3    H2  727   4.794   3.812   0.348 -0.4636  0.3216  0.4585
  241TIP3   OH2  728   0.648   1.802   3.669 -0.0563 -0.7182  0.0779
  241TIP3    H1  729   0.727   1.756   3.697  0.3919  0.3898  0.6988
  241TIP3    H2  730   0.576   1.747   3.700  0.4499 -0.4336  1.8491
  242TIP3   OH2  731   0.707   1.842   5.010  0.3586  0.2858  0.0608
  242TIP3    H1  732   0.666   1.756   5.025 -0.4934  0.4561 -1.1681
  242TIP3    H2  733   0.801   1.823   5.010  0.2743 -0.3175  1.6842
  243TIP3   OH2  734   5.468   0.838   3.606 -0.6500 -0.0358 -0.2906
  243TIP3    H1  735   5.531   0.840   3.678 -0.5488 -1.9049 -0.2774
  243TIP3    H2  736   5.387   0.872   3.645 -0.1940  0.4600  0.2532
  244TIP3   OH2  737   2.889   2.754   2.520 -0.0828 -0.3031  0.0475
  244TIP3    H1  738   2.835   2.739   2.442 -1.5654  0.7491  0.8420
  244TIP3    H2  739   2.906   2.848   2.519  0.4166 -0.3846  0.6705
  245TIP3   OH2  740   4.045   1.172   1.481 -0.3322  0.1649  0.1955
  245TIP3    H1  741   4.055   1.267   1.469 -0.4414  0.1722  0.1604
  245TIP3    H2  742   4.091   1.154   1.563  0.4894  0.1004 -0.2705
  246TIP3   OH2  743   5.552   3.477   2.308  0.0432  0.1801 -0.2972
  246TIP3    H1  744   5.512   3.423   2.376  3.1935  0.2624  1.8333
  246TIP3    H2  745   5.588   3.414   2.245  2.3845 -0.3144  1.3940
  247TIP3   OH2  746   3.578   5.507   3.973  0.0732  0.1471 -0.4611
  247TIP3    H1  747   3.545   5.515   4.063 -1.5673 -1.2418 -0.8895
  247TIP3    H2  748   3.673   5.513   3.982 -0.1253  3.0713  0.9914
  248TIP3   OH2  749   5.596   2.803   2.161 -0.0198  0.2194 -0.9716
  248TIP3    H1  750   5.584   2.859   2.238  0.2801 -0.0698 -0.7128
  248TIP3    H2  751   5.527   2.738   2.168  1.0568 -0.8718  0.0092
  249TIP3   OH2  752   0.610   3.015   2.645  0.4377 -0.0780 -0.4003
  249TIP3    H1  753   0.550   3.074   2.689  0.4528  0.9768 -1.7426
  249TIP3    H2  754   0.679   2.998   2.709  0.3638  1.2524  0.0502
  250TIP3   OH2  755   1.688   1.687   1.297  0.3621  0.6255 -0.2166
  250TIP3    H1  756   1.710   1.775   1.328  0.2771  0.3629  0.6071
  250TIP3    H2  757   1.687   1.633   1.376 -0.3580  0.0375 -0.6174
  251TIP3   OH2  758   0.732   1.504   4.854 -0.4622 -0.0695  0.1062
  251TIP3    H1  759   0.699   1.417   4.878 -0.7840  0.3090  1.1037
  251TIP3    H2  760   0.734   1.504   4.758  2.5906 -2.2940  0.0652
  252TIP3   OH2  761   3.900   3.606   1.019 -0.8315 -0.2573 -0.1980
  252TIP3    H1  762   3.886   3.681   0.961  0.1023 -0.1420 -0.2994
  252TIP3    H2  763   3.925   3.645   1.103  1.7486 -0.4043 -0.7975
  253TIP3   OH2  764   3.451   3.218   2.884 -0.0727  0.4648  0.2796
  253TIP3    H1  765   3.460   3.225   2.789  2.5564  1.0914  0.4890
  253TIP3    H2  766   3.370   3.169   2.897 -0.3966  0.1772 -2.2760
  254TIP3   OH2  767   4.566   0.793   3.267  0.3658 -0.0703  0.0993
  254TIP3    H1  768   4.647   0.845   3.269  0.5212 -0.2953 -0.3029
  254TIP3    H2  769   4.591   0.712   3.222 -0.3883  0.3720 -1.1367
  255TIP3   OH2  770   3.004   4.606   4.379 -0.5176  0.3571 -0.2820
  255TIP3    H1  771   2.999   4.538   4.311  1.1790  1.3549 -1.4875
  255TIP3    H2  772   2.965   4.683   4.338 -1.9190  0.2985  0.8776
  256TIP3   OH2  773   1.268   4.366   3.925  0.4895  0.6778 -0.1363
  256TIP3    H1  774   1.286   4.317   4.005 -0.1826 -0.5580 -0.7153
  256TIP3    H2  775   1.209   4.436   3.953 -0.4597 -0.2665  0.3302
  257TIP3   OH2  776   2.498   0.972   5.105 -0.1387  0.3452 -0.0880
  257TIP3    H1  777   2.547   1.052   5.085  2.2277 -0.5121  1.8519
  257TIP3    H2  778   2.420   1.002   5.151  1.6437  1.5542  2.3704
  258TIP3   OH2  779   5.625   2.248   1.197 -0.6756 -0.1192 -0.0881
  258TIP3    H1  780   5.671   2.324   1.231  1.2671 -1.2304 -0.0873
  258TIP3    H2  781   5.592   2.276   1.111  1.6090  0.2224 -0.9185
  259TIP3   OH2  782   5.297   3.041   2.571 -0.1413  0.0034 -0.0418
  259TIP3    H1  783   5.330   3.026   2.660 -0.8459 -3.0018 -0.1792
  259TIP3    H2  784   5.362   3.001   2.514 -0.2846  0.8543 -0.8252
  260TIP3   OH2  785   5.034   5.644   4.232  0.4356 -0.2754  0.0617
  260TIP3    H1  786   5.088   5.723   4.238 -0.8809  0.7497 -0.8305
  260TIP3    H2  787   5.076   5.591   4.165  0.2256  0.6279 -0.8066
  261TIP3   OH2  788   2.954   2.259   1.090  0.2458 -0.0384  0.2444
  261TIP3    H1  789   2.932   2.315   1.016  2.1800  0.5105  0.0266
  261TIP3    H2  790   2.909   2.176   1.072  1.0209 -0.0829 -1.8228
  262TIP3   OH2  791   4.060   3.860   0.138  0.1536 -0.4378  0.1375
  262TIP3    H1  792   4.109   3.904   0.068 -1.5984  2.4671  0.5604
  262TIP3    H2  793   3.976   3.838   0.100 -0.1398 -0.5427  0.8244
  263TIP3   OH2  794   3.729   0.544   5.124  0.7681  0.1231 -0.1847
  263TIP3    H1  795   3.722   0.636   5.100 -0.2026  0.3464  0.9181
  263TIP3    H2  796   3.639   0.513   5.129  1.0143 -0.4170  1.2093
  264TIP3   OH2  797   4.209   2.211   2.285 -0.4551 -0.0489 -0.3943
  264TIP3    H1  798   4.157   2.177   2.212 -1.2945 -1.3520  0.7695
  264TIP3    H2  799   4.169   2.174   2.363  1.6745 -0.3858  0.6236
  265TIP3   OH2  800   5.295   1.156   0.501 -0.1707  0.3404  0.1327
  265TIP3    H1  801   5.253   1.213   0.436 -0.7070 -0.6306 -0.3782
  265TIP3    H2  802   5.352   1.099   0.449 -0.7013 -0.5264  0.4996
  266TIP3   OH2  803   2.882   5.015   1.082 -0.0168  0.7183  0.3609
  266TIP3    H1  804   2.799   5.020   1.036 -0.3459  0.8248  0.9486
  266TIP3    H2  805   2.896   5.104   1.116  0.0896  0.5826  0.6796
  267TIP3   OH2  806   1.700   0.470   1.978 -0.0653  0.1681 -0.2708
  267TIP3    H1  807   1.696   0.460   2.074  0.5550  1.5465 -0.0740
  267TIP3    H2  808   1.768   0.409   1.951  1.3150  1.2992  0.4663
  268TIP3   OH2  809   5.705   5.154   1.169 -0.0674  0.4349  0.5848
  268TIP3    H1  810   5.794   5.129   1.190  0.0294  1.8939  2.1176
  268TIP3    H2  811   5.668   5.077   1.125  1.6992 -0.4418  0.5458
  269TIP3   OH2  812   5.131   4.519   3.603  0.1072  0.0206  0.5353
  269TIP3    H1  813   5.160   4.595   3.653  2.2039 -0.6600  0.4360
  269TIP3    H2  814   5.208   4.493   3.552 -0.7307 -1.8188  0.1312
  270TIP3   OH2  815   0.842   4.217   2.520 -0.3897 -0.2964  0.1122
  270TIP3    H1  816   0.913   4.239   2.580 -1.6895  1.2380  1.2067
  270TIP3    H2  817   0.818   4.301   2.479 -1.1351 -0.8862 -0.7178
  271TIP3   OH2  818   2.225   0.334   2.031  0.3081  0.0973 -0.7341
  271TIP3    H1  819   2.187   0.319   2.118 -0.6095  1.6647 -0.8312
  271TIP3    H2  820   2.232   0.247   1.992  0.9456 -0.6574  0.9815
  272TIP3   OH2  821   6.123   0.969   2.088  0.2239 -0.2277 -0.5346
  272TIP3    H1  822   6.040   0.931   2.060 -0.6034 -1.1824  2.7933
  272TIP3    H2  823   6.109   1.064   2.081 -1.0938 -0.3837 -0.1550
  273TIP3   OH2  824   1.711   2.813   0.718  0.1212 -0.1071 -0.1638
  273TIP3    H1  825   1.789   2.839   0.669  0.7629 -0.2726  0.7427
  273TIP3    H2  826   1.741   2.807   0.809 -0.4439 -2.1227 -0.0643
  274TIP3   OH2  827   3.191   1.006   0.520 -0.1489 -0.1676 -0.1839
  274TIP3    H1  828   3.112   1.058   0.532  0.8415  1.2802  0.5026
  274TIP3    H2  829   3.185   0.972   0.431 -0.6740  1.4925 -0.8265
  275TIP3   OH2  830   1.844   1.571   4.225 -0.2683  0.3712  0.3355
  275TIP3    H1  831   1.796   1.488   4.223  0.4254 -0.0942  1.5301
  275TIP3    H2  832   1.913   1.560   4.160 -1.2840  0.7485 -0.8400
  276TIP3   OH2  833   5.670   4.647   1.892  0.1428 -0.1487 -0.4641
  276TIP3    H1  834   5.660   4.740   1.873  0.0208 -0.5537 -2.5758
  276TIP3    H2  835   5.596   4.625   1.949  0.3425  1.0694  0.2995
  277TIP3   OH2  836   3.612   4.933   2.414 -0.4282  0.1121  0.2205
  277TIP3    H1  837   3.592   4.912   2.506  0.2413  0.1312  0.3770
  277TIP3    H2  838   3.537   4.984   2.384 -0.0953  1.1796  1.1344
  278TIP3   OH2  839   5.937   3.775   4.610 -0.3716  0.5324  0.0691
  278TIP3    H1  840   5.939   3.684   4.580 -2.2813  0.8444 -1.2188
  278TIP3    H2  841   5.995   3.777   4.685  1.8745 -1.1339 -1.4922
  279TIP3   OH2  842   3.754   3.307   0.224 -0.0599 -0.4272 -0.0910
  279TIP3    H1  843   3.693   3.370   0.187 -0.3676 -0.4397  0.3883
  279TIP3    H2  844   3.741   3.314   0.319  0.5280 -0.5822  0.0058
  280TIP3   OH2  845   2.427   5.194   0.307 -0.1924 -0.3612 -0.3904
  280TIP3    H1  846   2.428   5.232   0.394  0.4632  1.3105 -1.0890
  280TIP3    H2  847   2.517   5.163   0.293 -0.9255 -3.1219  0.5221
  281TIP3   OH2  848   1.041   5.440   2.774  0.0921 -0.1456 -0.0325
  281TIP3    H1  849   1.110   5.435   2.708  0.0050  0.7710 -0.2006
  281TIP3    H2  850   1.039   5.532   2.800 -1.7737  0.0831 -0.8077
  282TIP3   OH2  851   6.004   1.659   3.801  0.0052 -0.2792  0.1583
  282TIP3    H1  852   6.091   1.657   3.839  0.2661 -0.2346 -0.4311
  282TIP3    H2  853   6.003   1.586   3.739  0.2115  0.7743 -1.1159
  283TIP3   OH2  854   4.927   5.392   4.308  0.1176  0.8948  0.2134
  283TIP3    H1  855   4.859   5.389   4.375 -1.8344  1.3177 -1.6698
  283TIP3    H2  856   4.918   5.478   4.267 -1.2431 -0.6008 -2.9760
  284TIP3   OH2  857   3.501   3.502   1.427 -0.2890 -0.0356 -0.1587
  284TIP3    H1  858   3.479   3.595   1.437  1.1338  0.6029 -2.0668
  284TIP3    H2  859   3.581   3.491   1.479  0.6192  0.3540 -1.4043
  285TIP3   OH2  860   1.339   1.445   3.756  0.4037 -0.0868  0.4935
  285TIP3    H1  861   1.393   1.523   3.771  1.0396 -0.3293 -0.5022
  285TIP3    H2  862   1.397   1.372   3.777  0.1122 -0.3238  0.4747
  286TIP3   OH2  863   3.238   1.301   3.674 -0.0269 -0.3309  0.0616
  286TIP3    H1  864   3.325   1.296   3.712  0.4401  0.0979 -0.9044
  286TIP3    H2  865   3.250   1.279   3.582 -0.9692 -0.4596 -0.0455
  287TIP3   OH2  866   0.379   5.691   3.516  0.5648  0.3077  0.3651
  287TIP3    H1  867   0.393   5.689   3.611  0.6250 -0.5637  0.3439
  287TIP3    H2  868   0.309   5.754   3.503  1.7258  1.7587  0.8341
  288TIP3   OH2  869   3.877   2.226   2.629 -0.0227  0.0448 -0.1870
  288TIP3    H1  870   3.847   2.222   2.538  1.9026 -1.2791 -0.8503
  288TIP3    H2  871   3.876   2.319   2.651 -2.2168  0.2575 -0.9101
  289TIP3   OH2  872   3.260   5.145   3.260  0.1689  0.0956  0.5634
  289TIP3    H1  873   3.230   5.136   3.351 -1.7920  0.3018 -0.0265
  289TIP3    H2  874   3.191   5.196   3.217  0.6103 -0.7808 -1.2623
  290TIP3   OH2  875   0.473   4.935   5.128 -0.0228  0.4210 -0.3371
  290TIP3    H1  876   0.467   4.857   5.073  0.6283 -0.6353  1.0327
  290TIP3    H2  877   0.459   4.903   5.217  0.0327  1.9106  0.2417
  291TIP3   OH2  878   6.370   1.764   0.999 -0.2167  0.2706 -0.1730
  291TIP3    H1  879   6.320   1.799   1.073 -0.5163  0.8015 -0.6268
  291TIP3    H2  880   6.324   1.795   0.922  1.6024  1.9730 -0.6399
  292TIP3   OH2  881   3.238   3.867   2.282  0.6907 -0.2806 -0.0600
  292TIP3    H1  882   3.197   3.882   2.367 -0.2728 -2.3852 -0.1082
  292TIP3    H2  883   3.165   3.849   2.223  1.4432 -0.2419 -1.0304
  293TIP3   OH2  884   4.397   4.019   0.164 -0.1770 -0.3316  0.0619
  293TIP3    H1  885   4.366   3.929   0.153  0.0562 -0.5318  1.0028
  293TIP3    H2  886   4.334   4.072   0.114  0.4544 -1.1141 -1.6632
  294TIP3   OH2  887   1.339   3.700   3.950  0.0427 -0.2243 -0.5146
  294TIP3    H1  888   1.308   3.753   4.024 -1.4125 -0.3285 -1.0270
  294TIP3    H2  889   1.319   3.610   3.975 -0.6972 -0.2407 -1.1364
  295TIP3   OH2  890   0.383   0.802   4.437 -0.0538  0.1277  0.2376
  295TIP3    H1  891   0.373   0.733   4.372  1.6425  0.7060 -0.7162
  295TIP3    H2  892   0.444   0.765   4.501  0.6419  0.5994 -0.1312
  296TIP3   OH2  893   2.348   2.227   0.233 -0.2550 -0.0936 -0.3056
  296TIP3    H1  894   2.353   2.291   0.163 -0.7449 -1.3948 -1.5734
  296TIP3    H2  895   2.439   2.214   0.261  0.3163 -1.5640 -2.6156
  297TIP3   OH2  896   4.498   0.041   1.300  0.0124 -0.1364 -0.2327
  297TIP3    H1  897   4.472  -0.051   1.298  1.8214 -0.6853 -0.2489
  297TIP3    H2  898   4.496   0.065   1.392 -3.9954  0.9761 -0.4054
  298TIP3   OH2  899   0.770   4.709   1.405  0.2753  0.2952 -0.3109
  298TIP3    H1  900   0.676   4.697   1.415  0.3770 -0.2908  0.0360
  298TIP3    H2  901   0.794   4.769   1.476  0.3884 -0.7801  0.6047
  299TIP3   OH2  902   6.127   4.366   3.811 -0.2644 -0.2313  0.2228
  299TIP3    H1  903   6.076   4.338   3.887 -0.6910  1.0383  0.4398
  299TIP3    H2  904   6.131   4.289   3.755  0.3454 -1.3005  1.6737
  300TIP3   OH2  905   1.468   0.332   2.422  0.0328  0.1164 -1.0804
  300TIP3    H1  906   1.491   0.424   2.411  0.3897  0.0137 -1.1926
  300TIP3    H2  907   1.409   0.313   2.349  0.4876  0.0774 -1.4343
  301TIP3   OH2  908   4.391   3.186   5.123  0.4149  0.4910  0.1924
  301TIP3    H1  909   4.381   3.268   5.075 -0.5102 -0.1201 -0.6883
  301TIP3    H2  910   4.380   3.211   5.215  0.4644  1.3925 -0.0341
  302TIP3   OH2  911   5.168   1.862   4.260  0.0356 -0.3494 -0.5450
  302TIP3    H1  912   5.121   1.795   4.309 -0.0738  0.3929  0.4118
  302TIP3    H2  913   5.138   1.852   4.170  0.6942 -2.1471 -0.6089
  303TIP3   OH2  914   4.035   2.667   1.580 -0.2355 -0.3383 -0.0766
  303TIP3    H1  915   4.074   2.736   1.635  0.4557 -0.9695  0.2479
  303TIP3    H2  916   4.108   2.608   1.562 -0.2642  0.2465 -2.3374
  304TIP3   OH2  917   5.062   0.193   0.739 -0.4178  0.0379 -0.1696
  304TIP3    H1  918   4.999   0.178   0.809  0.7630 -0.8100  0.7458
  304TIP3    H2  919   5.127   0.251   0.778  0.0423 -0.1123 -0.7022
  305TIP3   OH2  920   6.092   0.649   0.571 -0.2051 -0.1952  0.6675
  305TIP3    H1  921   6.098   0.617   0.481 -0.4324  0.5678  0.3757
  305TIP3    H2  922   6.122   0.576   0.625 -2.6301 -1.6657  0.1764
  306TIP3   OH2  923   3.922   1.601   1.039 -0.0076  0.1514 -0.3432
  306TIP3    H1  924   3.980   1.661   1.086 -0.7637  1.0649 -0.5493
  306TIP3    H2  925   3.887   1.543   1.107  1.4219 -0.6879 -0.2654
  307TIP3   OH2  926   5.974   1.798   0.275  0.9315  0.0474  0.4497
  307TIP3    H1  927   5.957   1.726   0.214 -1.5471  1.6179 -0.8598
  307TIP3    H2  928   6.064   1.825   0.256  0.3657  0.2640 -2.3658
  308TIP3   OH2  929   4.414   3.385   1.411  0.6039 -0.1405 -0.8710
  308TIP3    H1  930   4.494   3.349   1.448 -0.3323  0.1897  1.6670
  308TIP3    H2  931   4.391   3.458   1.468 -0.9230  0.4738 -2.1827
  309TIP3   OH2  932   2.006   3.042   4.102 -0.2503 -0.0278  0.2792
  309TIP3    H1  933   1.917   3.029   4.071 -0.5511  1.2005  0.5823
  309TIP3    H2  934   1.998   3.057   4.196  0.3885 -0.9057  0.4950
  310TIP3   OH2  935   1.689   1.572   2.116  0.3043 -0.0670 -0.6661
  310TIP3    H1  936   1.639   1.611   2.188  2.3204 -0.0279  0.7936
  310TIP3    H2  937   1.684   1.478   2.133  1.1325 -0.0349 -0.2057
  311TIP3   OH2  938   4.197   4.375   1.580 -0.2059 -0.3395 -0.7514
  311TIP3    H1  939   4.276   4.421   1.608  0.4472 -0.6644 -1.9979
  311TIP3    H2  940   4.186   4.306   1.646  1.1265 -0.9078 -1.0753
  312TIP3   OH2  941   0.108   5.853   2.859 -0.1167  0.0678 -0.4234
  312TIP3    H1  942   0.151   5.930   2.822  0.7966 -0.3468 -0.2482
  312TIP3    H2  943   0.023   5.849   2.815  0.1001  0.7924 -0.9143
  313TIP3   OH2  944   0.518   3.147   1.794 -0.1299 -0.0317  0.5432
  313TIP3    H1  945   0.480   3.140   1.706 -1.2903  1.7703  0.8390
  313TIP3    H2  946   0.449   3.118   1.853  0.4018 -0.5724  0.9170
  314TIP3   OH2  947   0.221   2.216   3.692  0.2398  0.9242 -0.0942
  314TIP3    H1  948   0.247   2.131   3.658 -0.3741  0.5236  0.4166
  314TIP3    H2  949   0.126   2.209   3.703  0.2053  1.6227  0.0948
  315TIP3   OH2  950   3.664   2.289   0.649  0.1863 -0.2707 -0.0907
  315TIP3    H1  951   3.673   2.308   0.556  1.5034  0.4246  0.1581
  315TIP3    H2  952   3.587   2.339   0.677 -0.5998 -0.9851 -0.9187
  316TIP3   OH2  953   0.891   1.554   0.852 -0.4122 -0.1848 -0.1646
  316TIP3    H1  954   0.816   1.541   0.794 -0.1011  0.2403 -0.6666
  316TIP3    H2  955   0.882   1.484   0.918 -3.0257  1.6730  1.6893
  317TIP3   OH2  956   1.970   2.724   1.709 -0.0449 -0.1543  0.1140
  317TIP3    H1  957   2.065   2.723   1.698 -0.0049  0.9435  0.2407
  317TIP3    H2  958   1.958   2.737   1.803 -0.3346 -1.2432  0.2370
  318TIP3   OH2  959   6.030   0.371   4.897  0.0575 -0.6739 -0.4389
  318TIP3    H1  960   6.054   0.300   4.836  1.5760 -1.4614  0.9934
  318TIP3    H2  961   6.104   0.432   4.893 -0.2324 -0.2919 -0.0362
  319TIP3   OH2  962   1.384   2.487   3.651 -0.2675  0.4041  0.0473
  319TIP3    H1  963   1.452   2.447   3.706  0.9434 -0.2255 -1.7896
  319TIP3    H2  964   1.333   2.541   3.711  2.8607  2.2572  1.2864
  320TIP3   OH2  965   1.394   1.422   1.472 -0.1606 -0.3407  0.3308
  320TIP3    H1  966   1.384   1.482   1.398 -0.4678 -1.0074 -0.1727
  320TIP3    H2  967   1.485   1.394   1.468  0.0657  0.3094  0.7433
  321TIP3   OH2  968   3.203   0.339   2.083  0.3433  0.3843 -0.0805
  321TIP3    H1  969   3.279   0.379   2.041 -0.6575  1.2777 -1.1401
  321TIP3    H2  970   3.128   0.381   2.041 -0.7913 -2.1179 -0.7836
  322TIP3   OH2  971   3.676   0.335   1.041 -0.8164 -0.2644 -0.0104
  322TIP3    H1  972   3.725   0.264   1.083  1.7123  1.5487  0.3626
  322TIP3    H2  973   3.633   0.381   1.114  2.0038  1.7233  0.5745
  323TIP3   OH2  974   6.223   1.641   5.083 -0.6879  0.6481 -0.0738
  323TIP3    H1  975   6.140   1.672   5.047 -0.9003  0.5529  0.3259
  323TIP3    H2  976   6.287   1.658   5.014 -1.1921 -0.1039 -0.7456
  324TIP3   OH2  977   5.930   0.629   4.222  0.3393 -0.2318  0.1095
  324TIP3    H1  978   5.864   0.689   4.256 -0.4292 -1.7060  1.3505
  324TIP3    H2  979   5.964   0.585   4.300  1.6853 -0.6041 -0.6636
  325TIP3   OH2  980   2.581   0.054   1.892 -0.0102 -0.2929 -0.8763
  325TIP3    H1  981   2.561   0.028   1.802 -1.2737  0.7459 -0.9237
  325TIP3    H2  982   2.496   0.057   1.936  0.3678  1.0735 -0.1705
  326TIP3   OH2  983   3.125   2.283   4.854  0.3601 -0.2338 -0.0207
  326TIP3    H1  984   3.040   2.279   4.896  0.1315  0.6994 -0.3841
  326TIP3    H2  985   3.107   2.314   4.765  0.7855 -2.4143 -0.9614
  327TIP3   OH2  986   3.298   3.451   4.850  0.9291 -0.7017  0.1744
  327TIP3    H1  987   3.305   3.356   4.840 -0.1477 -0.9107  1.2462
  327TIP3    H2  988   3.215   3.473   4.809  0.9798 -0.2694  0.3027
  328TIP3   OH2  989   2.618   4.820   0.478  0.2200 -0.3428  0.0677
  328TIP3    H1  990   2.588   4.833   0.568 -0.6011  1.1791 -0.3882
  328TIP3    H2  991   2.704   4.778   0.487 -0.1959 -0.9502  1.5180
  329TIP3   OH2  992   3.619   1.333   3.636 -0.0172  0.4145  0.2433
  329TIP3    H1  993   3.647   1.263   3.695  0.8722 -0.1327 -0.7813
  329TIP3    H2  994   3.583   1.287   3.560  0.0932  1.0666 -0.2126
  330TIP3   OH2  995   2.426   5.135   3.646  1.1452  0.0369  0.1935
  330TIP3    H1  996   2.474   5.197   3.591  2.4717 -0.6148  0.5914
  330TIP3    H2  997   2.475   5.133   3.728 -0.1899  0.1716  1.0358
  331TIP3   OH2  998   4.300   4.903   4.135  0.0923  0.2732  0.1704
  331TIP3    H1  999   4.261   4.831   4.085 -0.4420  1.0208 -0.5312
  331TIP3    H2 1000   4.367   4.862   4.189  0.3938 -0.6399 -0.8534
  332TIP3   OH2 1001   5.582   2.489   0.520  0.4013 -0.0320 -0.1182
  332TIP3    H1 1002   5.500   2.446   0.546  0.4574 -1.4176 -2.0209
  332TIP3    H2 1003   5.555   2.572   0.481 -0.1179 -0.4120 -0.5888
  333TIP3   OH2 1004   4.101   2.358   1.477 -0.8775  0.0759  0.6229
  333TIP3    H1 1005   4.148   2.274   1.477 -0.2588  0.4073 -0.2333
  333TIP3    H2 1006   4.170   2.424   1.485 -1.4543  0.5073  2.9923
  334TIP3   OH2 1007   1.102   5.231   5.126 -0.0029  0.6536 -0.1036
  334TIP3    H1 1008   1.159   5.306   5.109  0.9061 -0.0947 -0.4723
  334TIP3    H2 1009   1.163   5.161   5.151 -0.7496 -0.2245 -0.7086
  335TIP3   OH2 1010   3.642   0.413   3.162  0.4278 -0.5338  0.0939
  335TIP3    H1 1011   3.608   0.492   3.203  1.5320 -0.2511  0.4896
  335TIP3    H2 1012   3.584   0.343   3.193 -0.7941  0.1482 -0.5651
  336TIP3   OH2 1013   5.872   4.240   5.147  0.5238  0.2289  0.2669
  336TIP3    H1 1014   5.830   4.246   5.061  1.3691  1.8588 -0.0684
  336TIP3    H2 1015   5.801   4.256   5.210  0.0999  0.0640 -0.1676
  337TIP3   OH2 1016   0.111   1.412   2.739 -0.1743  0.4822  0.1601
  337TIP3    H1 1017   0.028   1.456   2.719 -0.1463  0.5640  0.2255
  337TIP3    H2 1018   0.115   1.411   2.835  0.2897  1.2052  0.1504
  338TIP3   OH2 1019   0.309   1.665   4.427  0.1657  0.0899  0.3589
  338TIP3    H1 1020   0.310   1.745   4.375 -1.1687  0.4469  0.8194
  338TIP3    H2 1021   0.356   1.601   4.374  0.1491  0.8405 -0.5932
  339TIP3   OH2 1022   6.184   5.081   3.914 -0.0179 -0.3345 -0.5568
  339TIP3    H1 1023   6.253   5.087   3.849  0.4301 -3.8441 -0.6045
  339TIP3    H2 1024   6.109   5.045   3.867 -1.5874  2.2179 -0.2260
  340TIP3   OH2 1025   1.238   5.190   1.332 -0.1742  0.1371  0.5976
  340TIP3    H1 1026   1.166   5.175   1.394 -0.7446  1.3020  0.2494
  340TIP3    H2 1027   1.297   5.116   1.346 -0.6529 -0.0257  2.0094
  341TIP3   OH2 1028   2.339   1.546   0.225 -0.1020  0.4346  0.0374
  341TIP3    H1 1029   2.351   1.604   0.300  1.8275  1.1765 -0.7765
  341TIP3    H2 1030   2.419   1.493   0.223  0.4234  1.2409 -2.1554
  342TIP3   OH2 1031   4.428   3.046   1.972 -0.0042 -0.1735  0.2998
  342TIP3    H1 1032   4.498   3.106   1.999 -0.5130  0.6400 -0.1485
  342TIP3    H2 1033   4.391   3.013   2.054  0.0233  0.4424  0.5643
  343TIP3   OH2 1034   2.933   1.988   1.638 -0.4151  0.5748  0.2785
  343TIP3    H1 1035   2.912   1.923   1.572 -2.2795  0.5232  0.8754
  343TIP3    H2 1036   3.026   1.973   1.658 -0.2431 -0.4331 -1.1519
  344TIP3   OH2 1037   0.269   0.564   3.322 -0.3030  0.1194  0.1189
  344TIP3    H1 1038   0.321   0.509   3.381 -0.4551 -0.0819  0.0662
  344TIP3    H2 1039   0.231   0.631   3.378 -1.3089 -0.6956  0.4300
  345TIP3   OH2 1040   2.119   4.034   0.181 -0.4493 -0.0418  0.1772
  345TIP3    H1 1041   2.044   4.045   0.123  0.9636 -0.3060 -1.7898
  345TIP3    H2 1042   2.130   3.939   0.188 -1.5474 -0.0713  2.2246
  346TIP3   OH2 1043   2.527   3.804   4.605  0.0791  0.2574 -0.1313
  346TIP3    H1 1044   2.569   3.889   4.614  0.0558  0.1023  2.1190
  346TIP3    H2 1045   2.548   3.776   4.516  1.5377  1.8434 -0.3405
  347TIP3   OH2 1046   5.891   1.194   3.355  0.2766 -0.5204  0.3850
  347TIP3    H1 1047   5.797   1.212   3.361  0.2301 -1.0473  1.4927
  347TIP3    H2 1048   5.910   1.139   3.431  1.5120 -0.3309  0.2382
  348TIP3   OH2 1049   2.242   4.404   4.604  0.3500 -0.2324 -0.3889
  348TIP3    H1 1050   2.299   4.332   4.630 -1.3541 -2.4188 -2.2810
  348TIP3    H2 1051   2.270   4.477   4.659  3.2926 -1.8174  0.4610
  349TIP3   OH2 1052   2.983   0.751   1.769 -0.4996  0.0681 -0.2376
  349TIP3    H1 1053   2.971   0.833   1.816  0.0439  0.0816 -0.1108
  349TIP3    H2 1054   3.006   0.777   1.680 -0.3887  0.0578 -0.2130
  350TIP3   OH2 1055   1.804   3.996   1.357  0.5944  0.5689 -0.7018
  350TIP3    H1 1056   1.728   4.054   1.354  0.1649 -0.0026 -1.1684
  350TIP3    H2 1057   1.777   3.924   1.413  1.3867  1.1563  0.4726
  351TIP3   OH2 1058   3.720   1.534   2.068  0.0874 -0.3076  0.3978
  351TIP3    H1 1059   3.684   1.622   2.059  0.0522 -0.2311  1.1669
  351TIP3    H2 1060   3.704   1.511   2.160  0.7525 -0.8256  0.3912
  352TIP3   OH2 1061   5.934   5.378   2.525  0.4150  0.1162 -0.4099
  352TIP3    H1 1062   5.940   5.451   2.586 -0.2810  0.2433 -0.4830
  352TIP3    H2 1063   5.930   5.300   2.580 -1.8405  0.3154 -0.1861
  353TIP3   OH2 1064   0.051   1.525   4.042  0.6868  0.9448 -0.5291
  353TIP3    H1 1065   0.095   1.488   3.966 -0.7597  1.4953 -1.6733
  353TIP3    H2 1066   0.121   1.570   4.090  1.6253  0.5739 -1.5138
  354TIP3   OH2 1067   2.791   1.939   2.332  0.1215  0.5485 -0.1595
  354TIP3    H1 1068   2.767   1.932   2.240 -0.4537  0.5939 -0.0133
  354TIP3    H2 1069   2.810   2.032   2.344  1.1636  0.3898 -0.4633
  355TIP3   OH2 1070   6.232   4.650   4.798 -0.3956  0.3002  0.4856
  355TIP3    H1 1071   6.288   4.716   4.758  1.4827 -1.1658  0.5178
  355TIP3    H2 1072   6.286   4.570   4.798 -1.8535 -0.7620  2.1525
  356TIP3   OH2 1073   4.944   4.571   1.155  0.1465  0.3238  0.3330
  356TIP3    H1 1074   4.979   4.651   1.193  0.4364 -0.2331  1.2593
  356TIP3    H2 1075   5.015   4.537   1.100  1.1040 -0.7640  2.1462
  357TIP3   OH2 1076   1.827   3.100   2.928 -0.2137  0.7028 -0.2791
  357TIP3    H1 1077   1.819   3.111   3.023 -0.8127  0.1644 -0.2621
  357TIP3    H2 1078   1.921   3.099   2.912 -0.1125  1.5264  0.2173
  358TIP3   OH2 1079   5.336   5.622   4.694 -0.2921 -0.3914 -0.3608
  358TIP3    H1 1080   5.259   5.667   4.660  0.2687  0.4686 -0.5189
  358TIP3    H2 1081   5.309   5.589   4.780 -0.2829  1.5494  0.4356
  359TIP3   OH2 1082   1.941   4.667   3.868  0.2317  0.0610 -0.3307
  359TIP3    H1 1083   1.953   4.752   3.909  0.4538 -0.4559  0.7012
  359TIP3    H2 1084   2.005   4.666   3.796 -0.6688  1.2553 -1.1935
  360TIP3   OH2 1085   1.928   1.235   1.576 -0.3564 -0.2184  0.0061
  360TIP3    H1 1086   1.945   1.151   1.532  1.4065 -0.3332  0.8333
  360TIP3    H2 1087   1.886   1.210   1.659 -3.0159 -0.0366 -1.1625
  361TIP3   OH2 1088   4.720   2.290   0.135 -0.1090 -0.2686  0.0385
  361TIP3    H1 1089   4.732   2.378   0.100 -0.6947 -0.1864  0.0394
  361TIP3    H2 1090   4.643   2.256   0.088  0.2881 -0.8909 -0.1839
  362TIP3   OH2 1091   2.903   2.109   0.428 -0.0698 -0.6481  0.4826
  362TIP3    H1 1092   2.905   2.196   0.468  0.5514  0.2731 -1.4241
  362TIP3    H2 1093   2.937   2.050   0.496  3.5347  1.2141  0.5609
  363TIP3   OH2 1094   2.908   3.637  -0.013  0.5037  0.2551  0.1306
  363TIP3    H1 1095   2.922   3.679   0.072 -1.2017  1.1190  0.0204
  363TIP3    H2 1096   2.896   3.544   0.009  1.2359  0.2792  0.6940
  364TIP3   OH2 1097   2.850   3.128   1.847 -0.3514  0.1477 -0.3993
  364TIP3    H1 1098   2.817   3.165   1.929  0.6070  0.0739  0.0318
  364TIP3    H2 1099   2.777   3.077   1.812 -1.4647  1.8400 -0.6513
  365TIP3   OH2 1100   5.682   1.639   4.223  0.0166 -0.9328 -0.6390
  365TIP3    H1 1101   5.744   1.646   4.150  0.5501 -2.6689 -0.4007
  365TIP3    H2 1102   5.669   1.729   4.253 -0.4545 -0.1356 -3.0463
  366TIP3   OH2 1103   4.236   5.570   1.023  0.2149  0.0340  0.0650
  366TIP3    H1 1104   4.309   5.584   0.963  2.8016 -2.8266  2.2411
  366TIP3    H2 1105   4.192   5.492   0.991 -0.4943  0.4204  0.0674
  367TIP3   OH2 1106   4.625   5.358   5.037 -0.1653  0.0849  0.4459
  367TIP3    H1 1107   4.694   5.419   5.064  0.8816 -1.0207  0.3446
  367TIP3    H2 1108   4.671   5.289   4.991 -0.6063 -3.1074  4.2376
  368TIP3   OH2 1109   5.877   3.675   0.221  0.4605 -0.5714 -0.2136
  368TIP3    H1 1110   5.881   3.763   0.184 -1.0529 -0.7593 -0.9319
  368TIP3    H2 1111   5.945   3.626   0.174 -1.5828 -0.8783 -3.1242
  369TIP3   OH2 1112   3.497   5.593   1.049  0.2158 -0.0474 -0.4547
  369TIP3    H1 1113   3.419   5.627   1.005  0.2478  1.2410  0.4104
  369TIP3    H2 1114   3.559   5.667   1.047  0.8811 -0.5760  0.1332
  370TIP3   OH2 1115   1.931   1.101   3.374 -0.2186  0.2596 -0.1876
  370TIP3    H1 1116   1.859   1.160   3.350 -1.1740 -0.9925 -0.4927
  370TIP3    H2 1117   1.943   1.045   3.298  0.6596  0.0336  0.1049
  371TIP3   OH2 1118   2.638   5.686   0.744  0.6365 -0.5304  0.3700
  371TIP3    H1 1119   2.610   5.737   0.821 -0.8399 -0.6768 -0.0408
  371TIP3    H2 1120   2.667   5.752   0.681 -1.5206 -0.1133 -0.2636
  372TIP3   OH2 1121   0.134   0.822   4.562 -0.4085 -0.1718  0.3167
  372TIP3    H1 1122   0.213   0.834   4.508 -0.3580  1.0995  0.6464
  372TIP3    H2 1123   0.077   0.894   4.537 -0.4733  0.3285  1.7964
  373TIP3   OH2 1124   4.557   5.933   4.737  0.5865  0.6308  0.1727
  373TIP3    H1 1125   4.573   6.020   4.702 -0.1426  0.8464  0.3455
  373TIP3    H2 1126   4.605   5.874   4.679 -0.1181  1.0316 -0.8514
  374TIP3   OH2 1127   1.778   1.855   1.531  0.2447 -0.0315  0.2857
  374TIP3    H1 1128   1.790   1.784   1.594  0.7458  0.7491  1.0912
  374TIP3    H2 1129   1.867   1.875   1.500 -0.0312 -0.7099 -1.0415
  375TIP3   OH2 1130   3.170   5.982   1.620 -0.1154  0.2774  0.6839
  375TIP3    H1 1131   3.079   6.004   1.603 -0.9934 -3.2402  0.1035
  375TIP3    H2 1132   3.211   5.978   1.533 -0.0093 -0.3285  0.7547
  376TIP3   OH2 1133   3.971   1.402   1.684  0.7111 -0.2703 -0.5143
  376TIP3    H1 1134   3.891   1.400   1.736  0.5844 -1.2701 -0.7100
  376TIP3    H2 1135   3.944   1.434   1.598  0.5563 -0.4305 -0.5246
  377TIP3   OH2 1136   0.142   3.479   4.587  0.0139 -0.5066 -0.0698
  377TIP3    H1 1137   0.131   3.427   4.507  0.7834  1.6629 -1.7167
  377TIP3    H2 1138   0.236   3.495   4.593 -0.2495  1.4048 -0.2035
  378TIP3   OH2 1139   3.336   1.068   1.221  0.8143  0.5252 -0.3547
  378TIP3    H1 1140   3.274   1.085   1.150 -0.6033 -0.3427  0.6130
  378TIP3    H2 1141   3.400   1.139   1.214  0.4107  0.7714 -2.1396
  379TIP3   OH2 1142   2.345   1.955   1.821  0.6745 -0.0304  0.5784
  379TIP3    H1 1143   2.252   1.932   1.810  0.9244 -0.8419  0.1434
  379TIP3    H2 1144   2.352   2.042   1.781  0.0317  0.1968  0.9332
  380TIP3   OH2 1145   1.600   4.354   3.286  0.0434  0.0726 -0.1257
  380TIP3    H1 1146   1.565   4.442   3.295 -0.3798 -0.1114  0.0398
  380TIP3    H2 1147   1.577   4.310   3.368 -0.7992 -0.5526 -0.6797
  381TIP3   OH2 1148   1.302   3.098   1.070 -0.2089 -0.5437  0.0704
  381TIP3    H1 1149   1.289   3.063   0.982  1.7987 -0.9749 -0.0920
  381TIP3    H2 1150   1.381   3.054   1.103  0.5870  1.4945  1.0805
  382TIP3   OH2 1151   4.936   4.854   5.021  0.6566  0.3777  0.0801
  382TIP3    H1 1152   4.967   4.844   4.931 -2.2174 -0.4988 -0.9072
  382TIP3    H2 1153   4.918   4.765   5.051  0.4195  0.7514  1.0896
  383TIP3   OH2 1154   0.670   3.090   0.358 -0.0237 -0.1151  0.1194
  383TIP3    H1 1155   0.604   3.027   0.329 -1.6418  1.5154  0.0493
  383TIP3    H2 1156   0.735   3.091   0.287  0.4417 -2.2033  0.4709
  384TIP3   OH2 1157   4.893   4.109   3.334  0.3390  0.0677  0.4841
  384TIP3    H1 1158   4.918   4.024   3.370  0.4895  1.0856  2.9804
  384TIP3    H2 1159   4.945   4.172   3.384  0.5254  1.6616 -1.5521
  385TIP3   OH2 1160   6.058   4.368   1.953 -0.0305 -0.2135 -0.4830
  385TIP3    H1 1161   6.115   4.389   2.027  0.8158 -0.0113 -1.1749
  385TIP3    H2 1162   6.111   4.309   1.899 -1.1527 -1.4849 -0.2319
  386TIP3   OH2 1163   4.844   3.927   2.453  0.3572 -0.9845 -0.6377
  386TIP3    H1 1164   4.785   3.946   2.525 -1.7833  0.1039 -2.5694
  386TIP3    H2 1165   4.929   3.913   2.495 -0.3452  1.5246  1.9454
  387TIP3   OH2 1166   1.402   4.616   2.128 -0.1191  0.1858  0.1467
  387TIP3    H1 1167   1.329   4.572   2.084  1.8397 -1.0572 -2.0674
  387TIP3    H2 1168   1.370   4.631   2.217 -3.5359  0.9194 -1.0503
  388TIP3   OH2 1169   1.829   2.260   4.587  0.5765  0.1399 -0.4968
  388TIP3    H1 1170   1.888   2.192   4.619  0.8339  0.5145 -0.1627
  388TIP3    H2 1171   1.769   2.214   4.528  0.5818 -0.4268 -0.0732
  389TIP3   OH2 1172   5.666   0.173   1.941 -0.1962 -0.4489  0.3458
  389TIP3    H1 1173   5.746   0.216   1.910  0.5007 -0.6143  1.8259
  389TIP3    H2 1174   5.597   0.206   1.883  0.7551  0.5552 -0.2522
  390TIP3   OH2 1175   2.618   5.528   5.003  0.0636  0.0824 -0.0099
  390TIP3    H1 1176   2.712   5.544   4.999  0.1082 -0.3430 -3.0109
  390TIP3    H2 1177   2.610   5.432   5.000 -0.4538  0.1578 -1.8461
  391TIP3   OH2 1178   1.169   0.129   0.885  0.0400 -0.0389 -0.3908
  391TIP3    H1 1179   1.080   0.135   0.918  0.4193 -0.0811  0.6860
  391TIP3    H2 1180   1.184   0.212   0.840 -0.2445  0.3416  0.2007
  392TIP3   OH2 1181   0.398   0.588   2.562 -0.9804 -0.2692 -0.5256
  392TIP3    H1 1182   0.461   0.525   2.596  0.9496  1.5186 -0.5979
  392TIP3    H2 1183   0.338   0.604   2.636 -1.1827 -1.7389 -0.3445
  393TIP3   OH2 1184   2.702   1.531   5.044  0.4781 -0.5634 -0.6195
  393TIP3    H1 1185   2.739   1.600   5.100  1.0460 -0.7342 -0.7714
  393TIP3    H2 1186   2.771   1.515   4.980  0.9418 -2.2444  0.2406
  394TIP3   OH2 1187   4.903   3.395   4.639  0.6833  0.4121  0.0335
  394TIP3    H1 1188   4.934   3.480   4.673  0.6658  0.8138 -0.9286
  394TIP3    H2 1189   4.831   3.371   4.697  0.3509  1.3121  0.0120
  395TIP3   OH2 1190   2.489   0.169   4.922  0.0346 -0.1498  0.7764
  395TIP3    H1 1191   2.567   0.176   4.867 -0.4073 -0.4165  0.1025
  395TIP3    H2 1192   2.495   0.244   4.981  1.3630 -0.7724  1.4846
  396TIP3   OH2 1193   1.909   0.885   0.855 -0.5028  0.5350 -0.4719
  396TIP3    H1 1194   1.920   0.800   0.813  1.1616 -0.3072  1.4934
  396TIP3    H2 1195   1.825   0.879   0.900 -1.4166  0.7801 -2.0539
  397TIP3   OH2 1196   2.269   0.029   5.013  0.2346  0.5351  0.5194
  397TIP3    H1 1197   2.257  -0.065   5.025  0.4585  0.5495  0.8806
  397TIP3    H2 1198   2.349   0.037   4.961 -0.4294  0.4907 -0.5408
  398TIP3   OH2 1199   1.215   2.572   1.003 -0.3793  0.3177 -0.3748
  398TIP3    H1 1200   1.213   2.511   1.076 -0.2808  1.4351  0.6007
  398TIP3    H2 1201   1.226   2.658   1.044  0.7782  0.8780 -1.7643
  399TIP3   OH2 1202   4.072   4.318   2.900  0.1540  0.5125  0.1143
  399TIP3    H1 1203   4.086   4.382   2.831 -0.0083  0.1766 -0.2328
  399TIP3    H2 1204   4.142   4.335   2.963  0.4993  0.6067 -0.2903
  400TIP3   OH2 1205   1.286   2.080   4.919 -0.1086 -0.0827 -0.1706
  400TIP3    H1 1206   1.256   2.166   4.947 -1.3268 -0.4839 -0.1990
  400TIP3    H2 1207   1.293   2.087   4.824 -1.9303 -0.4975 -0.3762
  401TIP3   OH2 1208   4.377   5.081   3.681 -0.1381  0.6228 -0.4322
  401TIP3    H1 1209   4.436   5.021   3.636  0.5044  1.1085 -0.2515
  401TIP3    H2 1210   4.321   5.116   3.611 -2.7762 -2.5775 -0.1674
  402TIP3   OH2 1211   1.491   1.000   3.903 -0.5337 -0.0747  0.4877
  402TIP3    H1 1212   1.484   0.923   3.846 -0.1533 -0.8252  1.4184
  402TIP3    H2 1213   1.460   0.969   3.988  1.8808  0.0937  1.5010
  403TIP3   OH2 1214   4.994   1.764   0.141  0.0807  0.4195 -0.0803
  403TIP3    H1 1215   5.025   1.817   0.068  2.5760  0.0422  0.6298
  403TIP3    H2 1216   5.019   1.813   0.219  2.2679 -1.5634  0.5958
  404TIP3   OH2 1217   1.615   3.609   3.579  0.1389 -0.7307 -0.0245
  404TIP3    H1 1218   1.616   3.696   3.539  0.3909 -1.3355 -1.3846
  404TIP3    H2 1219   1.617   3.626   3.673 -1.2576  0.7655 -0.2146
  405TIP3   OH2 1220   6.360   3.637   0.311 -0.1755 -0.4122  0.3426
  405TIP3    H1 1221   6.374   3.571   0.243 -1.6524 -1.0751  0.6335
  405TIP3    H2 1222   6.305   3.593   0.376  1.2922  0.1477  2.0739
  406TIP3   OH2 1223   3.715   0.383   0.056  0.2849 -0.1182  0.3837
  406TIP3    H1 1224   3.794   0.420   0.016  1.1575 -1.1778  1.0984
  406TIP3    H2 1225   3.732   0.386   0.150 -0.7718  0.1575  0.5815
  407TIP3   OH2 1226   5.752   0.726   4.966  0.1591  0.2532  0.6601
  407TIP3    H1 1227   5.677   0.725   5.027 -0.3638 -1.9217  0.0762
  407TIP3    H2 1228   5.712   0.717   4.880  1.0278  1.1829  0.1394
  408TIP3   OH2 1229   2.561   2.098   1.185 -0.2429  0.0394 -0.1823
  408TIP3    H1 1230   2.544   2.153   1.109 -0.9568  1.5070  0.9797
  408TIP3    H2 1231   2.550   2.157   1.260 -0.2843 -1.5178  1.0913
  409TIP3   OH2 1232   4.769   3.289   0.888  0.1067  0.4287 -0.3145
  409TIP3    H1 1233   4.730   3.376   0.897  1.2016  0.7945  1.3562
  409TIP3    H2 1234   4.813   3.291   0.803 -0.7107  1.1492 -0.7380
  410TIP3   OH2 1235   5.950   5.688   3.025 -0.0507 -0.1591 -0.2160
  410TIP3    H1 1236   5.862   5.725   3.021 -0.0392 -0.1558 -0.5125
  410TIP3    H2 1237   5.985   5.717   3.108 -0.1935  0.1547 -0.2651
  411TIP3   OH2 1238   2.236   5.015   2.767  0.3513 -0.0551  0.3806
  411TIP3    H1 1239   2.255   5.109   2.774  0.0092  0.0519 -0.0159
  411TIP3    H2 1240   2.320   4.975   2.747  0.3084  0.3109 -0.5980
  412TIP3   OH2 1241   5.246   0.762   3.440  0.3315  0.5670 -0.1614
  412TIP3    H1 1242   5.244   0.672   3.408  0.7412  0.5915 -0.2591
  412TIP3    H2 1243   5.319   0.763   3.502  0.4134  0.8673 -0.2646
  413TIP3   OH2 1244   2.313   5.144   4.938  0.4293 -0.0563 -0.3091
  413TIP3    H1 1245   2.272   5.164   5.022 -0.6565  3.3276 -1.5007
  413TIP3    H2 1246   2.402   5.177   4.946  1.0455 -1.7362  0.1748
  414TIP3   OH2 1247   0.497   2.372   4.483  0.1003  0.1626 -0.1547
  414TIP3    H1 1248   0.568   2.409   4.534 -1.4440  1.1230  1.4284
  414TIP3    H2 1249   0.540   2.321   4.414  2.2722  0.7447  0.6976
  415TIP3   OH2 1250   5.210   0.109   1.364  0.0913 -0.1281 -0.0565
  415TIP3    H1 1251   5.211   0.092   1.269  1.2935 -0.3566 -0.0182
  415TIP3    H2 1252   5.139   0.173   1.376  1.0157  1.2132 -1.3565
  416TIP3   OH2 1253   4.743   0.116   0.663  0.2437 -0.0317  0.2673
  416TIP3    H1 1254   4.762   0.129   0.756  1.5634  1.7509 -0.2002
  416TIP3    H2 1255   4.669   0.175   0.646 -0.2538 -0.6505  0.2615
  417TIP3   OH2 1256   2.881   2.168   3.311  0.0505  0.0359 -0.1821
  417TIP3    H1 1257   2.913   2.147   3.399 -0.3732  0.9096  0.1922
  417TIP3    H2 1258   2.862   2.262   3.314 -0.0040  0.0681 -1.1974
  418TIP3   OH2 1259   0.920   5.590   1.443  0.2307 -0.1177  0.2884
  418TIP3    H1 1260   0.891   5.528   1.509 -0.6856 -0.5846 -0.5144
  418TIP3    H2 1261   0.865   5.571   1.367  0.3146  1.2993 -0.1631
  419TIP3   OH2 1262   3.069   2.847   0.518  0.0913  0.2702 -0.1018
  419TIP3    H1 1263   3.093   2.838   0.425 -1.7542  0.0923 -0.5993
  419TIP3    H2 1264   3.014   2.771   0.536  1.9599 -0.7608  1.7223
  420TIP3   OH2 1265   0.647   1.034   0.768 -0.3334  0.3241  0.0170
  420TIP3    H1 1266   0.672   0.991   0.686 -1.0675  0.2881 -0.2011
  420TIP3    H2 1267   0.639   1.127   0.745  0.0324  0.3989  0.1896
  421TIP3   OH2 1268   1.045   4.345   3.701  0.3276  0.1613  0.3254
  421TIP3    H1 1269   1.023   4.261   3.660  1.5930 -0.0354  0.0087
  421TIP3    H2 1270   1.140   4.340   3.715  0.5265  1.8128 -0.3160
  422TIP3   OH2 1271   2.309   1.924   0.062 -0.0881  0.2213 -0.0085
  422TIP3    H1 1272   2.401   1.915   0.088 -0.4457 -2.0160  0.7058
  422TIP3    H2 1273   2.265   1.956   0.140  0.1179  1.8716 -0.5216
  423TIP3   OH2 1274   3.636   0.316   0.751  0.5631 -0.0895 -0.8519
  423TIP3    H1 1275   3.590   0.396   0.725  0.0805 -0.3803 -0.9037
  423TIP3    H2 1276   3.627   0.313   0.846  0.9580  0.1454 -0.8068
  424TIP3   OH2 1277   3.064   1.128   3.260 -0.0918  0.4741 -0.0464
  424TIP3    H1 1278   3.043   1.158   3.171 -2.5967 -2.0049 -0.4158
  424TIP3    H2 1279   2.994   1.166   3.314  0.6631  0.8758  0.6633
  425TIP3   OH2 1280   5.019   0.498   1.977  0.2484 -0.1530  0.0433
  425TIP3    H1 1281   5.001   0.546   1.897  0.5028 -0.6481 -0.3179
  425TIP3    H2 1282   5.028   0.565   2.045  0.8770  0.3243 -0.5075
  426TIP3   OH2 1283   4.655   5.395   4.450 -0.1564  0.2657 -0.4452
  426TIP3    H1 1284   4.657   5.444   4.533  1.7632  1.0891 -0.9248
  426TIP3    H2 1285   4.570   5.416   4.412 -0.4879  1.0200  0.6520
  427TIP3   OH2 1286   1.404   2.266   4.006  0.6314 -0.5181  0.5052
  427TIP3    H1 1287   1.429   2.353   4.038 -0.3406  0.6675 -1.6995
  427TIP3    H2 1288   1.483   2.233   3.963  0.6724 -0.1889  0.3194
  428TIP3   OH2 1289   5.207   3.159   0.095 -0.1556 -0.0022  0.1682
  428TIP3    H1 1290   5.127   3.203   0.124 -0.4544 -0.6479  0.3479
  428TIP3    H2 1291   5.191   3.066   0.113  0.6838 -0.1231  0.3128
  429TIP3   OH2 1292   6.317   1.815   1.259  0.0343  0.0991 -0.7080
  429TIP3    H1 1293   6.283   1.726   1.251 -1.5749  0.6417 -0.3125
  429TIP3    H2 1294   6.250   1.862   1.308  1.1733  1.3715 -0.2963
  430TIP3   OH2 1295   0.892   0.170   1.684 -0.0670  0.2520 -0.0383
  430TIP3    H1 1296   0.834   0.102   1.648  0.6144  0.0320 -0.7509
  430TIP3    H2 1297   0.977   0.127   1.690  0.5310  1.2202 -1.1094
  431TIP3   OH2 1298   4.781   5.233   3.782  0.0745  0.2281 -0.2636
  431TIP3    H1 1299   4.735   5.315   3.766 -0.3670 -0.1818 -1.2237
  431TIP3    H2 1300   4.823   5.244   3.867 -1.3233  0.8413  0.3717
  432TIP3   OH2 1301   5.170   3.694   3.423 -0.2175  0.4243 -0.1468
  432TIP3    H1 1302   5.162   3.744   3.504 -1.7817  0.5019 -0.3211
  432TIP3    H2 1303   5.252   3.725   3.384 -0.6052  2.0877  0.2703
  433TIP3   OH2 1304   2.988   3.980   4.142  0.2441  0.5269 -0.3156
  433TIP3    H1 1305   3.072   3.938   4.158  0.2376 -0.1248 -1.7885
  433TIP3    H2 1306   2.935   3.958   4.218  1.4714  1.1874  0.7756
  434TIP3   OH2 1307   3.692   0.053   0.913 -0.3938 -0.0702  0.5558
  434TIP3    H1 1308   3.769   0.029   0.861 -0.4271  1.0203 -0.0162
  434TIP3    H2 1309   3.704   0.006   0.996  1.0494  0.3185  0.5980
  435TIP3   OH2 1310   3.725   4.641   3.838  0.1482 -0.4284  0.6501
  435TIP3    H1 1311   3.800   4.688   3.801 -0.1633 -0.5557 -0.1695
  435TIP3    H2 1312   3.763   4.575   3.895  0.8892 -2.6453 -2.1662
  436TIP3   OH2 1313   4.732   4.470   4.213 -0.2111 -0.1758  0.1472
  436TIP3    H1 1314   4.648   4.457   4.257 -0.9343  2.4154 -0.3392
  436TIP3    H2 1315   4.709   4.487   4.122  0.8562  0.4104 -0.0200
  437TIP3   OH2 1316   3.343   2.333   2.069  0.5033 -0.1642 -0.1594
  437TIP3    H1 1317   3.417   2.384   2.036  0.2452  0.4491  0.1913
  437TIP3    H2 1318   3.269   2.394   2.066  0.7654  0.5122  3.0421
  438TIP3   OH2 1319   5.322   3.592   5.060 -0.6357  0.5151 -0.1657
  438TIP3    H1 1320   5.315   3.687   5.045  1.8310  0.3353 -3.4449
  438TIP3    H2 1321   5.236   3.558   5.037 -0.5975  1.7034 -2.3522
  439TIP3   OH2 1322   0.976   0.533   0.652  0.0863 -0.1034 -0.4872
  439TIP3    H1 1323   0.924   0.463   0.690 -0.4335  1.2080  1.3074
  439TIP3    H2 1324   1.026   0.489   0.582 -2.6176 -1.6051 -1.6683
  440TIP3   OH2 1325   6.172   0.664   2.694 -0.6187 -0.4400 -0.0634
  440TIP3    H1 1326   6.235   0.679   2.623 -1.0586  3.3314  0.1102
  440TIP3    H2 1327   6.191   0.733   2.757 -2.1506 -1.9027  2.1197
  441TIP3   OH2 1328   5.775   3.250   3.117 -0.4178 -0.1724 -0.1698
  441TIP3    H1 1329   5.768   3.261   3.212  0.8282 -2.3510  0.2432
  441TIP3    H2 1330   5.777   3.339   3.083 -1.3757  0.6663  1.7984
  442TIP3   OH2 1331   0.030   4.851   4.680 -0.0850  0.2472 -0.3291
  442TIP3    H1 1332   0.020   4.944   4.658  1.2178  0.5229  0.1774
  442TIP3    H2 1333  -0.008   4.805   4.605  3.5587  1.1587 -3.0442
  443TIP3   OH2 1334   1.815   5.367   1.581  0.5263  0.6430  0.0177
  443TIP3    H1 1335   1.736   5.387   1.631 -0.5692 -1.7959 -0.6109
  443TIP3    H2 1336   1.794   5.392   1.491  0.4987  0.0802 -0.1336
  444TIP3   OH2 1337   4.499   4.650   0.885  0.3984 -0.2094  0.0265
  444TIP3    H1 1338   4.449   4.603   0.819  0.2088 -0.3033  0.2356
  444TIP3    H2 1339   4.559   4.585   0.921 -0.1054 -0.3936  0.5632
  445TIP3   OH2 1340   1.595   5.866   1.139  0.0556  1.2293 -0.6351
  445TIP3    H1 1341   1.596   5.959   1.162 -0.7744  1.0528  0.1344
  445TIP3    H2 1342   1.503   5.846   1.124  0.2915  0.6537 -1.3516
  446TIP3   OH2 1343   5.386   0.952   5.104 -0.1721 -0.0676  0.6712
  446TIP3    H1 1344   5.314   0.907   5.060  0.5154 -0.8996  0.3679
  446TIP3    H2 1345   5.423   1.009   5.036  0.8240 -1.2758  0.1465
  447TIP3   OH2 1346   0.163   0.863   3.116 -0.0909  0.1741  0.5007
  447TIP3    H1 1347   0.208   0.836   3.036  0.1473  0.3538  0.5717
  447TIP3    H2 1348   0.126   0.782   3.151 -0.6820  0.1852 -0.0894
  448TIP3   OH2 1349   1.235   5.738   4.268 -0.0545 -0.5774 -0.0402
  448TIP3    H1 1350   1.235   5.820   4.218  1.7991 -0.7440 -0.3941
  448TIP3    H2 1351   1.201   5.673   4.207 -2.2370  0.0185  0.4792
  449TIP3   OH2 1352   0.898   0.365   4.894 -0.1219  0.2517 -0.0500
  449TIP3    H1 1353   0.897   0.453   4.931 -0.3917  0.5837 -0.8363
  449TIP3    H2 1354   0.978   0.326   4.928  0.4498  1.1030 -0.3866
  450TIP3   OH2 1355   2.772   2.451   3.343  0.5939  0.7047  0.1539
  450TIP3    H1 1356   2.681   2.448   3.373  0.0841  3.7124 -0.7001
  450TIP3    H2 1357   2.823   2.466   3.423  0.2007  0.2841  0.4884
  451TIP3   OH2 1358   0.762   0.669   2.843 -0.2486 -0.3615  0.2747
  451TIP3    H1 1359   0.672   0.692   2.867 -0.1907 -0.2343  0.3727
  451TIP3    H2 1360   0.753   0.594   2.785 -0.3493 -1.4756  1.6567
  452TIP3   OH2 1361   4.353   2.749   0.817 -0.1062 -0.3678  0.4056
  452TIP3    H1 1362   4.357   2.821   0.880  2.1996  0.6116 -0.7247
  452TIP3    H2 1363   4.443   2.715   0.815 -0.0115 -0.1424 -2.5511
  453TIP3   OH2 1364   3.211   1.415   2.474  0.1313  0.1114 -0.2917
  453TIP3    H1 1365   3.150   1.342   2.464  1.1355 -0.5061 -2.5222
  453TIP3    H2 1366   3.193   1.449   2.562 -1.7767 -1.5026  0.0192
  454TIP3   OH2 1367   3.007   1.449   3.402  0.0696  0.6714  0.0015
  454TIP3    H1 1368   2.962   1.405   3.330  0.5290  0.0418  0.0818
  454TIP3    H2 1369   2.942   1.506   3.441 -0.8240 -0.6111  0.4514
  455TIP3   OH2 1370   1.088   3.878   1.584  0.8557 -0.2104 -0.0443
  455TIP3    H1 1371   1.063   3.807   1.643  1.2877  0.1195  0.5426
  455TIP3    H2 1372   1.078   3.958   1.637 -1.1126  0.3360 -1.1381
  456TIP3   OH2 1373   1.602   3.107   4.554 -0.3255  0.1349 -0.5428
  456TIP3    H1 1374   1.649   3.044   4.609  1.6170 -0.1085 -2.3360
  456TIP3    H2 1375   1.635   3.192   4.581  0.0379  0.0737 -0.7865
  457TIP3   OH2 1376   1.334   4.210   0.395  0.0400 -0.8486  0.4560
  457TIP3    H1 1377   1.286   4.221   0.477  0.9475 -1.6685  1.1179
  457TIP3    H2 1378   1.275   4.244   0.328 -0.9127 -0.6050  1.3933
  458TIP3   OH2 1379   4.864   4.377   1.792  0.4249 -0.1884  0.1517
  458TIP3    H1 1380   4.835   4.437   1.860  0.4420 -1.0902  0.9677
  458TIP3    H2 1381   4.843   4.290   1.825 -1.6049 -0.6055 -1.9384
  459TIP3   OH2 1382   0.183   5.512   0.261  0.1892 -0.0365 -0.2251
  459TIP3    H1 1383   0.134   5.431   0.246 -0.8584  0.1108  2.0057
  459TIP3    H2 1384   0.254   5.486   0.320  0.0219  0.5799  0.2631
  460TIP3   OH2 1385   3.051   4.621   2.782  0.4250 -0.5333 -0.4696
  460TIP3    H1 1386   3.030   4.576   2.700 -0.4475 -1.1078  0.0554
  460TIP3    H2 1387   3.139   4.589   2.805  0.8536 -0.0440 -1.3864
  461TIP3   OH2 1388   2.909   3.251   4.182 -0.7391  0.0099 -0.1190
  461TIP3    H1 1389   2.829   3.270   4.134  0.4103  1.2841 -1.6376
  461TIP3    H2 1390   2.882   3.245   4.273 -2.6985 -0.6090 -0.6991
  462TIP3   OH2 1391   1.911   0.797   2.713  0.8950  0.2979  0.2160
  462TIP3    H1 1392   1.958   0.769   2.634 -1.1097  0.5830 -1.1351
  462TIP3    H2 1393   1.874   0.716   2.748  2.5470  0.0229  1.4667
  463TIP3   OH2 1394   2.222   1.482   2.400 -0.1458 -0.5090  0.3201
  463TIP3    H1 1395   2.160   1.555   2.393  2.1424  1.3690 -2.9516
  463TIP3    H2 1396   2.209   1.432   2.320  1.1508 -1.3030  0.5842
  464TIP3   OH2 1397   3.103   1.130   1.649  0.8199 -0.2800  0.0702
  464TIP3    H1 1398   3.054   1.135   1.567  1.1838 -0.0475 -0.1378
  464TIP3    H2 1399   3.154   1.211   1.651  0.2319  0.0835  0.9016
  465TIP3   OH2 1400   5.538   3.884   3.452 -0.5599 -0.9092 -0.2804
  465TIP3    H1 1401   5.566   3.924   3.534 -0.1578 -0.6081 -0.5610
  465TIP3    H2 1402   5.558   3.791   3.462  2.6272 -0.4740 -1.2640
  466TIP3   OH2 1403   0.858   5.219   4.675  0.2531 -0.2073  0.2005
  466TIP3    H1 1404   0.913   5.288   4.640  0.4056 -0.2587  0.3371
  466TIP3    H2 1405   0.875   5.220   4.769  2.5863 -2.4072 -0.0810
  467TIP3   OH2 1406   4.621   3.705   1.499  0.3197 -0.7875  0.0933
  467TIP3    H1 1407   4.564   3.696   1.423  1.0963  0.5156 -0.6791
  467TIP3    H2 1408   4.602   3.793   1.533 -0.1753 -1.4247  1.5582
  468TIP3   OH2 1409   0.080   0.444   1.997 -0.2569  0.6067 -0.0355
  468TIP3    H1 1410   0.103   0.380   2.065 -0.9733 -0.7198 -0.9913
  468TIP3    H2 1411   0.078   0.528   2.043  1.6719  0.1133  1.0648
  469TIP3   OH2 1412   1.766   2.155   4.011  0.0801 -0.3352  0.0824
  469TIP3    H1 1413   1.856   2.133   4.033  0.2215 -0.9137 -0.9601
  469TIP3    H2 1414   1.732   2.201   4.087  1.7077  1.2098 -0.0596
  470TIP3   OH2 1415   2.898   0.667   4.686  0.1890  0.3731 -0.0066
  470TIP3    H1 1416   2.923   0.757   4.709  0.2743 -0.0683  1.8041
  470TIP3    H2 1417   2.925   0.615   4.762  0.1738 -1.1939 -1.0379
  471TIP3   OH2 1418   4.110   3.311   1.890 -0.1490  0.0117  0.4196
  471TIP3    H1 1419   4.135   3.372   1.959  2.6877  0.6871 -1.0159
  471TIP3    H2 1420   4.149   3.228   1.916 -0.7036 -0.2185  0.5259
  472TIP3   OH2 1421   3.676   1.454   4.377 -0.6854 -0.1737  0.5283
  472TIP3    H1 1422   3.720   1.527   4.332  1.2001 -0.9312  1.0292
  472TIP3    H2 1423   3.616   1.497   4.438 -0.9807  0.9148 -0.4856
  473TIP3   OH2 1424   2.205   5.593   3.723  0.1113 -0.0755 -0.0319
  473TIP3    H1 1425   2.285   5.596   3.670 -0.3668  0.8180 -0.7383
  473TIP3    H2 1426   2.199   5.679   3.763 -0.2468 -0.2945  0.3936
  474TIP3   OH2 1427   4.389   0.504   1.344  0.2987 -0.2651 -0.5234
  474TIP3    H1 1428   4.372   0.509   1.250  0.1676 -0.6790 -0.5246
  474TIP3    H2 1429   4.343   0.580   1.381  2.5594  1.4989 -1.0859
  475TIP3   OH2 1430   1.089   0.129   2.335  0.6598 -0.7283  0.3472
  475TIP3    H1 1431   1.095   0.051   2.390  1.4768 -0.5604  0.5179
  475TIP3    H2 1432   1.023   0.108   2.269  0.5302 -1.3826  0.6846
  476TIP3   OH2 1433   0.886   3.848   1.379 -0.1337 -0.0344  0.2584
  476TIP3    H1 1434   0.842   3.796   1.446  2.2425  0.7142  2.5953
  476TIP3    H2 1435   0.940   3.910   1.429  1.2360  1.0644 -2.3834
  477TIP3   OH2 1436   6.300   1.121   4.734 -0.2307  0.1763  0.8130
  477TIP3    H1 1437   6.282   1.044   4.680 -0.7885 -0.1869  1.4898
  477TIP3    H2 1438   6.349   1.180   4.677  0.3366 -0.7433  0.3345
  478TIP3   OH2 1439   0.395   5.598   2.868 -0.0268 -0.2394 -0.1219
  478TIP3    H1 1440   0.363   5.647   2.792  1.1953  0.1544 -0.4235
  478TIP3    H2 1441   0.332   5.527   2.880 -0.5562  0.0332 -1.1511
  479TIP3   OH2 1442   1.318   4.923   2.664 -0.2792  0.1130  0.2686
  479TIP3    H1 1443   1.331   5.018   2.670  0.3155 -0.0499  2.4514
  479TIP3    H2 1444   1.401   4.890   2.631 -0.7394  0.3853 -1.2229
  480TIP3   OH2 1445   4.764   5.760   2.304  0.0990 -0.0315 -0.4011
  480TIP3    H1 1446   4.791   5.690   2.244 -0.0633  0.4333 -1.0162
  480TIP3    H2 1447   4.702   5.813   2.254 -1.8660 -0.9662  0.9058
  481TIP3   OH2 1448   0.683   3.627   4.832 -0.0743 -0.0134 -0.1997
  481TIP3    H1 1449   0.645   3.659   4.751 -0.2600 -0.8475 -0.4480
  481TIP3    H2 1450   0.766   3.675   4.841  0.2267 -0.3469 -1.1763
  482TIP3   OH2 1451   0.265   3.071   1.881 -0.0530 -0.0168  0.1513
  482TIP3    H1 1452   0.249   3.068   1.786  0.1610 -0.9102  0.1327
  482TIP3    H2 1453   0.191   3.025   1.919  0.1564 -0.1701  0.3755
  483TIP3   OH2 1454   5.988   3.729   4.309 -0.3269  0.6304 -0.2219
  483TIP3    H1 1455   5.926   3.660   4.334  0.5053 -0.0008  0.1966
  483TIP3    H2 1456   6.072   3.683   4.301  0.1870  1.5498 -0.2466
  484TIP3   OH2 1457   5.294   1.669   0.425  0.0255  0.2973  0.2780
  484TIP3    H1 1458   5.235   1.689   0.498 -1.4088 -1.5309 -0.3274
  484TIP3    H2 1459   5.274   1.736   0.359 -1.3291 -0.2453  0.1140
  485TIP3   OH2 1460   2.682   5.829   3.482 -0.4589 -0.1272 -0.3078
  485TIP3    H1 1461   2.723   5.758   3.432 -0.1735  0.2500 -0.6180
  485TIP3    H2 1462   2.645   5.786   3.559  1.1656 -0.3831  0.3757
  486TIP3   OH2 1463   0.903   4.545   0.667 -0.3138 -0.2514 -0.3532
  486TIP3    H1 1464   0.812   4.521   0.686  0.1299 -0.6074  1.5192
  486TIP3    H2 1465   0.898   4.638   0.644 -1.0987 -0.0729  0.4506
  487TIP3   OH2 1466   6.081   3.897   3.865 -0.5415  0.3184  0.7470
  487TIP3    H1 1467   6.026   3.970   3.893 -1.4217 -0.5606  1.3841
  487TIP3    H2 1468   6.164   3.938   3.839 -1.8928  1.8480 -1.5291
  488TIP3   OH2 1469   0.216   3.430   0.531  0.1367 -0.4202  0.8359
  488TIP3    H1 1470   0.178   3.513   0.561  0.7914 -0.0549  0.6758
  488TIP3    H2 1471   0.301   3.425   0.575  0.3794 -0.6944  0.3463
  489TIP3   OH2 1472  -0.012   3.976   3.963 -0.0486 -0.4644  0.3026
  489TIP3    H1 1473   0.082   3.991   3.951  0.3740 -2.2882  0.9997
  489TIP3    H2 1474  -0.023   3.968   4.058 -1.3205  1.8773  0.4451
  490TIP3   OH2 1475   0.926   4.457   3.212 -0.6473  0.6760 -0.6034
  490TIP3    H1 1476   0.897   4.450   3.121  0.7534 -1.2068 -0.9642
  490TIP3    H2 1477   0.910   4.370   3.249  0.0806  1.0144  0.5573
  491TIP3   OH2 1478   0.461   1.095   1.182 -0.5083  0.0921  0.4361
  491TIP3    H1 1479   0.447   1.050   1.265  1.0728  0.1935  0.7820
  491TIP3    H2 1480   0.464   1.026   1.117 -0.2982 -0.1175  0.6665
  492TIP3   OH2 1481   2.754   2.771   4.551  0.1561 -0.5311 -0.3749
  492TIP3    H1 1482   2.770   2.677   4.541 -0.8406 -0.5996 -1.7184
  492TIP3    H2 1483   2.694   2.792   4.479  0.0482  1.0574  0.1467
  493TIP3   OH2 1484   2.071   4.669   4.547 -0.2096 -0.2519 -0.7785
  493TIP3    H1 1485   2.111   4.599   4.599  0.3654  1.0530  0.6239
  493TIP3    H2 1486   1.997   4.699   4.601 -0.0053  0.6849 -1.0064
  494TIP3   OH2 1487   1.893   4.316   1.566 -0.4991  0.1534 -0.0211
  494TIP3    H1 1488   1.983   4.324   1.596 -0.4636  1.3754 -0.3735
  494TIP3    H2 1489   1.855   4.247   1.620  0.5653 -0.1833  0.3174
  495TIP3   OH2 1490   0.708   0.598   2.020  0.1071  0.3394 -0.1651
  495TIP3    H1 1491   0.615   0.578   2.029 -0.0998  0.9292 -0.8451
  495TIP3    H2 1492   0.742   0.596   2.109 -0.6453  0.4902  0.1339
  496TIP3   OH2 1493   6.054   4.127   4.034 -0.8944 -0.3918  0.3168
  496TIP3    H1 1494   6.137   4.138   3.988 -1.0846 -0.4823 -0.0560
  496TIP3    H2 1495   6.075   4.072   4.109 -0.6303 -0.4738  0.1847
  497TIP3   OH2 1496   3.026   3.718   3.987  0.1231  0.2464  0.0056
  497TIP3    H1 1497   3.032   3.624   3.972 -1.2959 -0.2388  2.0867
  497TIP3    H2 1498   3.113   3.743   4.017  1.1209  0.0719 -2.4565
  498TIP3   OH2 1499   1.803   1.930   2.511  0.1390  0.5819 -0.2189
  498TIP3    H1 1500   1.745   1.855   2.496  0.1950 -0.0319  2.2009
  498TIP3    H2 1501   1.787   1.988   2.436 -2.2013 -0.4102 -0.5883
  499TIP3   OH2 1502   0.421   4.567   2.599  0.1071  0.1137 -0.4147
  499TIP3    H1 1503   0.471   4.648   2.585 -1.6452  1.1156 -1.3179
  499TIP3    H2 1504   0.406   4.533   2.511  0.2772 -0.8521 -0.0739
  500TIP3   OH2 1505   0.856   5.746   0.718 -0.2694 -0.0575 -0.2979
  500TIP3    H1 1506   0.815   5.738   0.804 -1.1044 -0.3798 -0.7139
  500TIP3    H2 1507   0.840   5.662   0.675  2.3443 -0.8769  0.1475
  501TIP3   OH2 1508   1.134   5.279   3.479  0.5730  0.0021 -0.4410
  501TIP3    H1 1509   1.203   5.217   3.455  1.0513  0.3614 -0.0214
  501TIP3    H2 1510   1.164   5.363   3.445  1.6798  0.7025  2.0190
  502TIP3   OH2 1511   4.179   0.085   4.418  0.1962  0.1057 -0.1545
  502TIP3    H1 1512   4.117   0.068   4.347  0.6101 -0.8299 -0.2979
  502TIP3    H2 1513   4.133   0.146   4.476 -1.0335 -0.8966 -0.0389
  503TIP3   OH2 1514   0.282   0.311   3.122  0.5743  0.3664  0.2596
  503TIP3    H1 1515   0.245   0.341   3.205  0.2533 -0.1412  0.2998
  503TIP3    H2 1516   0.279   0.388   3.066  0.6602  0.6769  0.6705
  504TIP3   OH2 1517   0.682   5.787   3.679 -0.6988  0.4853 -0.1114
  504TIP3    H1 1518   0.620   5.812   3.748 -2.0079  1.2381 -1.4973
  504TIP3    H2 1519   0.634   5.723   3.626  0.2929 -0.0926 -0.3238
  505TIP3   OH2 1520   0.776   4.195   0.597 -0.5175 -0.1345  0.0142
  505TIP3    H1 1521   0.792   4.268   0.538 -0.8455  0.6367  0.8438
  505TIP3    H2 1522   0.788   4.232   0.685 -1.1700 -0.9494  0.4725
  506TIP3   OH2 1523   5.850   2.838   3.041 -0.5192 -0.0061 -0.6322
  506TIP3    H1 1524   5.894   2.873   2.963 -0.5953 -0.1259 -0.7286
  506TIP3    H2 1525   5.894   2.755   3.058 -1.1668 -0.4609 -1.1379
  507TIP3   OH2 1526   2.321   1.654   2.772 -0.3623 -0.3157  0.0768
  507TIP3    H1 1527   2.292   1.579   2.720 -0.9529  0.4397 -0.7155
  507TIP3    H2 1528   2.243   1.710   2.779  0.7640  1.6210 -1.8155
  508TIP3   OH2 1529   4.203   6.002   2.465  0.2398  0.1724  0.2796
  508TIP3    H1 1530   4.170   6.004   2.375  0.6635  3.4397  0.0822
  508TIP3    H2 1531   4.282   5.948   2.460 -0.1112 -0.2500 -1.1562
  509TIP3   OH2 1532   3.403   0.131   0.843 -0.2897  0.0211 -0.0909
  509TIP3    H1 1533   3.397   0.080   0.762  0.3729 -0.0984 -0.0752
  509TIP3    H2 1534   3.497   0.135   0.861 -0.3747  0.8103  0.1927
  510TIP3   OH2 1535   5.533   1.676   0.626  0.0753  0.0885  0.3493
  510TIP3    H1 1536   5.519   1.671   0.531 -0.3889 -0.8362  0.4560
  510TIP3    H2 1537   5.482   1.603   0.662 -1.3423  1.5516  1.4989
  511TIP3   OH2 1538   0.069   2.395   3.464 -0.3846 -0.6131  0.0710
  511TIP3    H1 1539   0.044   2.486   3.446 -1.0154 -1.1688 -2.1144
  511TIP3    H2 1540   0.035   2.378   3.552 -1.0831  0.9738  0.1417
  512TIP3   OH2 1541   5.801   5.403   5.014  0.1579  0.4705  0.6202
  512TIP3    H1 1542   5.791   5.316   5.054  0.3778  0.5564  0.8656
  512TIP3    H2 1543   5.750   5.461   5.071  2.5677  1.0445  2.3257
  513TIP3   OH2 1544   3.209   5.375   0.709  0.0254 -0.1205  0.1630
  513TIP3    H1 1545   3.150   5.370   0.633 -0.3226  1.4058  0.2986
  513TIP3    H2 1546   3.151   5.367   0.785 -0.0156  1.2018  0.2933
  514TIP3   OH2 1547   0.459   4.848   1.731  0.2577 -0.5575 -0.2269
  514TIP3    H1 1548   0.554   4.838   1.736  0.3694 -0.2459 -1.4231
  514TIP3    H2 1549   0.438   4.834   1.639 -0.8593 -0.6182  0.0265
  515TIP3   OH2 1550   1.844   0.849   0.478  0.1488  0.6638 -0.1042
  515TIP3    H1 1551   1.899   0.927   0.475  0.9372  0.1664  0.6084
  515TIP3    H2 1552   1.784   0.865   0.551  0.6301  0.4303  0.3604
  516TIP3   OH2 1553   1.016   2.896   3.137 -0.5009  0.1630  0.3669
  516TIP3    H1 1554   1.036   2.821   3.192 -1.5856  0.5771  1.3857
  516TIP3    H2 1555   1.063   2.881   3.056  0.7843 -0.6963  1.2466
  517TIP3   OH2 1556   4.176   4.638   3.116  0.0527 -0.4387  0.3160
  517TIP3    H1 1557   4.126   4.576   3.063 -0.6357 -1.0067  1.5846
  517TIP3    H2 1558   4.236   4.583   3.168 -0.0162  0.0095  0.8876
  518TIP3   OH2 1559   4.661   5.218   1.850  0.3111  0.1982 -0.1810
  518TIP3    H1 1560   4.733   5.247   1.794  0.4818 -0.8461 -0.5254
  518TIP3    H2 1561   4.583   5.234   1.797  0.4247 -0.2145 -0.4794
  519TIP3   OH2 1562   3.566   0.887   1.558  0.0562 -0.0175 -0.8106
  519TIP3    H1 1563   3.641   0.885   1.617 -0.8095  1.6177  0.4325
  519TIP3    H2 1564   3.575   0.969   1.509 -0.1156 -0.5607 -1.8007
  520TIP3   OH2 1565   3.283   0.599   2.494 -0.2797 -0.4074  0.1322
  520TIP3    H1 1566   3.348   0.669   2.496  0.8087 -1.3881  1.3332
  520TIP3    H2 1567   3.242   0.606   2.408  1.6631  0.0529 -0.8169
  521TIP3   OH2 1568   5.770   4.316   0.058  0.1002  0.0145 -0.1332
  521TIP3    H1 1569   5.863   4.320   0.037  0.0536  2.7006 -0.2211
  521TIP3    H2 1570   5.733   4.254  -0.005  1.4279  0.8525 -1.8083
  522TIP3   OH2 1571   3.535   0.640   3.253  0.1238 -0.0893  0.0794
  522TIP3    H1 1572   3.449   0.601   3.238  0.0164 -0.0287  0.5327
  522TIP3    H2 1573   3.519   0.710   3.316  0.7311 -1.0508  1.3608
  523TIP3   OH2 1574   4.671   3.128   0.437  0.3395 -0.0183  0.6500
  523TIP3    H1 1575   4.713   3.133   0.351  0.9570  1.1028  0.9935
  523TIP3    H2 1576   4.580   3.151   0.421 -0.2477 -2.6088 -0.1292
  524TIP3   OH2 1577   5.237   2.977   0.537  0.0605  0.0600 -0.4153
  524TIP3    H1 1578   5.263   2.915   0.605 -0.6985  0.0116 -0.1605
  524TIP3    H2 1579   5.293   3.053   0.551  0.5197 -0.2974 -0.2947
  525TIP3   OH2 1580   3.280   0.756   2.012 -0.6641  0.0418  0.0991
  525TIP3    H1 1581   3.201   0.792   1.972  0.0571  1.3502 -0.1791
  525TIP3    H2 1582   3.337   0.733   1.939 -0.9120 -1.2454  0.2870
  526TIP3   OH2 1583   6.379   0.587   3.764  0.6145 -0.5675 -0.6907
  526TIP3    H1 1584   6.294   0.558   3.734  0.4630 -1.1531  0.2491
  526TIP3    H2 1585   6.360   0.656   3.828  0.7916 -1.2019  0.0682
  527TIP3   OH2 1586   3.889   1.648   4.346  0.1803 -0.2994 -0.1172
  527TIP3    H1 1587   3.893   1.706   4.422 -1.3051 -1.2357  0.7433
  527TIP3    H2 1588   3.979   1.620   4.332  0.8133  1.5667 -0.0867
  528TIP3   OH2 1589   3.579   1.176   1.609 -0.5796  0.0299 -0.4001
  528TIP3    H1 1590   3.667   1.199   1.639  0.3323 -0.6213 -2.4072
  528TIP3    H2 1591   3.546   1.257   1.569 -0.3332 -0.0750 -0.8306
  529TIP3   OH2 1592   4.730   2.265   1.747 -0.3455  0.0491 -0.2271
  529TIP3    H1 1593   4.716   2.295   1.837 -0.3442 -1.5601  0.3294
  529TIP3    H2 1594   4.820   2.232   1.746 -0.0371  0.8725 -1.0701
  530TIP3   OH2 1595   3.270   3.210   3.875  0.4088 -0.0224 -0.4515
  530TIP3    H1 1596   3.217   3.289   3.864 -0.8724 -0.7747  0.0747
  530TIP3    H2 1597   3.231   3.147   3.815  2.0311  0.0111 -1.5870
  531TIP3   OH2 1598   1.047   2.349   1.736  0.0237 -0.2237 -0.0973
  531TIP3    H1 1599   1.025   2.283   1.801  0.4414  0.0636  0.3498
  531TIP3    H2 1600   1.001   2.428   1.766 -2.6290 -0.8953 -2.0285
  532TIP3   OH2 1601   3.716   2.862   0.092 -0.1899  0.3086 -0.4833
  532TIP3    H1 1602   3.680   2.861   0.180  2.9357  1.0135  0.9316
  532TIP3    H2 1603   3.753   2.950   0.081  0.6132 -0.1668 -1.9884
  533TIP3   OH2 1604   4.858   1.602   1.658  0.2605  0.1197  0.0304
  533TIP3    H1 1605   4.806   1.529   1.691  0.0482  0.0314 -0.4866
  533TIP3    H2 1606   4.931   1.561   1.612  0.8419  0.2446  0.8267
  534TIP3   OH2 1607   2.801   4.616   1.375  0.2784 -0.3527  0.0914
  534TIP3    H1 1608   2.844   4.577   1.299  0.9260 -1.5965  1.0702
  534TIP3    H2 1609   2.787   4.707   1.349  0.4381 -0.7506 -1.5305
  535TIP3   OH2 1610   0.202   1.172   1.607 -0.4437  0.0588  0.0948
  535TIP3    H1 1611   0.191   1.166   1.512 -2.8865 -1.4140  0.3863
  535TIP3    H2 1612   0.254   1.251   1.620  1.2918 -0.5337 -2.5145
  536TIP3   OH2 1613   0.317   2.440   2.933 -0.1437 -0.2326 -0.0095
  536TIP3    H1 1614   0.254   2.503   2.966 -1.2939 -1.9394  1.1925
  536TIP3    H2 1615   0.282   2.414   2.847 -1.2567 -1.3477  0.7517
  537TIP3   OH2 1616   4.448   1.077   2.538 -0.0228  0.7310 -0.3207
  537TIP3    H1 1617   4.505   1.045   2.608  0.3180 -1.2449 -1.4162
  537TIP3    H2 1618   4.371   1.111   2.583  1.5320  2.5220  1.1416
  538TIP3   OH2 1619   3.005   3.412   2.689  0.1414 -0.2567  0.2602
  538TIP3    H1 1620   3.088   3.459   2.694  0.0397 -0.1445  1.0070
  538TIP3    H2 1621   3.030   3.322   2.669  0.3626  0.0081 -0.7162
  539TIP3   OH2 1622   3.206   2.014   3.291 -0.0351 -0.3066 -0.0568
  539TIP3    H1 1623   3.177   2.094   3.335 -0.1654 -0.5519  0.3054
  539TIP3    H2 1624   3.270   1.976   3.351  1.6613  0.6229 -1.1778
  540TIP3   OH2 1625   5.302   4.267   2.571 -0.3312 -0.2375  0.4313
  540TIP3    H1 1626   5.256   4.237   2.649 -1.5675  0.5273  0.0247
  540TIP3    H2 1627   5.235   4.269   2.502  0.7464 -1.0000 -0.6951
  541TIP3   OH2 1628   3.972   5.131   0.400 -0.2391 -0.5433 -0.0569
  541TIP3    H1 1629   4.044   5.192   0.387 -0.7947 -0.0818 -1.0678
  541TIP3    H2 1630   3.924   5.132   0.317 -0.3805 -2.2093 -0.0358
  542TIP3   OH2 1631   2.768   0.423   4.887 -0.1177  0.0493  0.3959
  542TIP3    H1 1632   2.859   0.403   4.865  0.2885  1.7253  0.4050
  542TIP3    H2 1633   2.773   0.465   4.973 -1.1534 -1.7171  1.3829
  543TIP3   OH2 1634   4.221   4.115   5.123  0.1480 -0.1925 -0.3405
  543TIP3    H1 1635   4.260   4.198   5.151 -1.8275  0.9273 -0.7458
  543TIP3    H2 1636   4.228   4.059   5.201  0.9493  0.5433  0.1436
  544TIP3   OH2 1637   1.322   1.031   1.637 -0.4178 -0.3811  0.4046
  544TIP3    H1 1638   1.415   1.053   1.647  0.4836 -2.1639 -2.5157
  544TIP3    H2 1639   1.314   0.945   1.678 -0.0953 -1.3445 -1.4451
  545TIP3   OH2 1640   6.219   5.142   3.150  0.4516  0.5820 -0.4124
  545TIP3    H1 1641   6.298   5.098   3.118  0.6705  0.4816  0.2396
  545TIP3    H2 1642   6.197   5.205   3.082  0.7735  0.2264 -0.8547
  546TIP3   OH2 1643   1.254   5.543   1.209 -0.9532  0.4337  0.2787
  546TIP3    H1 1644   1.191   5.547   1.138 -1.7296  0.3972  0.9552
  546TIP3    H2 1645   1.304   5.625   1.202 -1.6798  0.8790  0.2978
  547TIP3   OH2 1646   5.722   3.403   1.528  0.0510 -0.0498 -0.0401
  547TIP3    H1 1647   5.637   3.447   1.518 -0.3556  0.3712  3.7827
  547TIP3    H2 1648   5.699   3.312   1.547  0.5900 -0.3998 -1.0005
  548TIP3   OH2 1649   4.696   2.163   4.504 -0.1558  0.2427 -0.0466
  548TIP3    H1 1650   4.698   2.257   4.523  0.3905  0.0804  0.7412
  548TIP3    H2 1651   4.660   2.123   4.583  1.9552 -0.4318  0.6240
  549TIP3   OH2 1652   6.315   0.446   1.270 -0.1968  0.2209 -0.4187
  549TIP3    H1 1653   6.391   0.392   1.291 -0.4844 -0.4274 -1.0012
  549TIP3    H2 1654   6.352   0.524   1.230  0.1551 -0.2765 -1.0874
  550TIP3   OH2 1655   2.379   0.264   3.705  0.1047  0.8424 -0.1616
  550TIP3    H1 1656   2.303   0.246   3.761  0.5370 -0.0796  0.1348
  550TIP3    H2 1657   2.422   0.339   3.747 -0.0403  0.6857  0.2707
  551TIP3   OH2 1658   0.454   1.962   3.166  0.2138 -0.1929 -0.3814
  551TIP3    H1 1659   0.421   2.048   3.191  0.0400 -0.0901 -0.9453
  551TIP3    H2 1660   0.485   1.923   3.248  0.9702  0.6958 -0.2221
  552TIP3   OH2 1661   4.697   6.001   3.886 -0.0978  0.2937 -0.0988
  552TIP3    H1 1662   4.606   6.022   3.908 -0.7005 -2.2589  0.2211
  552TIP3    H2 1663   4.727   5.946   3.958  1.6397  0.8606 -0.3417
  553TIP3   OH2 1664   1.999   5.142   4.310 -0.1930 -0.0586  0.1984
  553TIP3    H1 1665   2.060   5.155   4.236 -0.0757 -0.7632  0.1629
  553TIP3    H2 1666   2.002   5.225   4.358 -0.4716  0.5050 -0.7359
  554TIP3   OH2 1667   5.965   3.902   0.059 -0.4716  0.8317 -0.7486
  554TIP3    H1 1668   5.963   3.849  -0.021  0.9512  0.2176 -0.4112
  554TIP3    H2 1669   6.049   3.947   0.056  0.0651  0.0038  0.8749
  555TIP3   OH2 1670   4.169   0.819   1.029 -0.3949  0.1748  0.2363
  555TIP3    H1 1671   4.085   0.826   1.074 -0.3023 -1.9731  0.8837
  555TIP3    H2 1672   4.175   0.898   0.975 -2.9045  0.2926  0.0332
  556TIP3   OH2 1673   2.935   1.016   1.837  0.0594 -0.7963 -0.6492
  556TIP3    H1 1674   2.984   1.065   1.770 -0.5468 -2.0628 -2.0858
  556TIP3    H2 1675   2.876   1.080   1.876 -0.2861 -0.2098 -2.0674
  557TIP3   OH2 1676   0.618   1.606   1.708 -0.0607 -0.1094  0.9488
  557TIP3    H1 1677   0.607   1.565   1.622 -0.5281  1.4385  0.2153
  557TIP3    H2 1678   0.602   1.699   1.691 -0.8274  0.1383  2.8549
  558TIP3   OH2 1679   0.498   1.858   3.429 -0.0125 -0.3788  0.0651
  558TIP3    H1 1680   0.515   1.780   3.376 -1.4432 -0.6683 -0.0153
  558TIP3    H2 1681   0.531   1.836   3.516 -0.7877 -1.2537  0.1500
  559TIP3   OH2 1682  -0.008   5.488   2.970  0.2104 -0.2270  0.3432
  559TIP3    H1 1683   0.046   5.456   2.897  0.6283  1.2368 -0.0159
  559TIP3    H2 1684   0.042   5.467   3.048  1.0139  0.5127  0.0492
  560TIP3   OH2 1685   1.479   2.358   4.822 -0.3039  0.0146 -0.4287
  560TIP3    H1 1686   1.512   2.269   4.830 -1.9116 -0.6333 -0.6941
  560TIP3    H2 1687   1.541   2.401   4.762 -0.1196 -1.2252 -1.1604
  561TIP3   OH2 1688   0.057   2.586   0.955  0.0935  0.0595 -0.4803
  561TIP3    H1 1689   0.030   2.497   0.934  0.4327 -0.0479 -0.4703
  561TIP3    H2 1690  -0.016   2.623   1.005  0.1589 -0.3773 -0.0601
  562TIP3   OH2 1691   5.497   1.549   1.459 -0.5767 -0.4418  0.1142
  562TIP3    H1 1692   5.507   1.480   1.525  0.6781  0.0191  0.4347
  562TIP3    H2 1693   5.581   1.550   1.413 -1.0563 -0.0229 -0.7817
  563TIP3   OH2 1694   2.935   4.768   3.073 -0.3016 -0.1654 -0.1862
  563TIP3    H1 1695   3.012   4.722   3.107  0.5444  0.3315 -1.3355
  563TIP3    H2 1696   2.958   4.861   3.079 -2.4081  0.2855  3.1022
  564TIP3   OH2 1697   4.480   0.574   3.405  0.0647 -0.2684 -0.7280
  564TIP3    H1 1698   4.408   0.587   3.467  0.1641 -1.8539 -0.2281
  564TIP3    H2 1699   4.489   0.658   3.361 -0.5182  0.6780  0.8696
  565TIP3   OH2 1700   3.613   0.007   0.280  0.4228 -0.0294 -0.0185
  565TIP3    H1 1701   3.655   0.001   0.194 -0.2116 -1.9039 -0.2398
  565TIP3    H2 1702   3.539   0.066   0.267  1.0175  0.6506 -0.4311
  566TIP3   OH2 1703   0.483   5.256   3.065  0.1620  0.0782  0.4866
  566TIP3    H1 1704   0.474   5.324   3.132  0.8960 -1.9177  2.7796
  566TIP3    H2 1705   0.575   5.232   3.067  0.1268 -0.3028 -1.0146
  567TIP3   OH2 1706   2.039   2.281   0.338  0.3312  0.1531 -0.3034
  567TIP3    H1 1707   1.972   2.240   0.393  0.3788  1.1122  0.4993
  567TIP3    H2 1708   2.104   2.314   0.400 -0.4095  2.7022 -0.7564
  568TIP3   OH2 1709   0.502   5.845   1.035  0.7536  0.2034  0.5018
  568TIP3    H1 1710   0.549   5.922   1.066  2.0789 -0.7157  0.8560
  568TIP3    H2 1711   0.436   5.827   1.102  0.4189  1.0227  0.4017
  569TIP3   OH2 1712   2.951   1.738   0.457  0.4507  0.0634  0.0382
  569TIP3    H1 1713   2.942   1.796   0.382  0.9826  0.8233  0.5465
  569TIP3    H2 1714   3.045   1.734   0.474  0.3209  0.1467  0.8377
  570TIP3   OH2 1715   0.322   1.901   2.458  0.1848 -0.7859  0.3604
  570TIP3    H1 1716   0.306   1.905   2.364 -0.7356  0.1731  0.5338
  570TIP3    H2 1717   0.256   1.841   2.491  0.3286 -0.9047  0.4346
  571TIP3   OH2 1718   0.056   2.587   5.116 -0.6120 -0.4918  0.3870
  571TIP3    H1 1719   0.052   2.643   5.194  0.5590 -2.1328  1.6978
  571TIP3    H2 1720   0.149   2.578   5.098 -0.7088 -2.4939  0.6330
  572TIP3   OH2 1721   3.444   1.035   0.181  0.2467  0.2347 -0.4220
  572TIP3    H1 1722   3.442   0.943   0.205 -1.2043  0.3222 -0.1548
  572TIP3    H2 1723   3.495   1.077   0.250  1.6724 -0.4775 -1.0076
  573TIP3   OH2 1724   5.631   0.726   3.228 -0.8467 -0.4388 -0.3697
  573TIP3    H1 1725   5.650   0.693   3.317 -1.6492 -0.0412 -0.0487
  573TIP3    H2 1726   5.545   0.767   3.235 -0.3610  0.7312 -1.0397
  574TIP3   OH2 1727   2.048   1.530   4.990  0.1083  0.0354 -0.4175
  574TIP3    H1 1728   2.020   1.462   5.052 -1.2952 -0.2512 -1.3250
  574TIP3    H2 1729   2.134   1.557   5.022 -1.0278  0.7437  2.3636
  575TIP3   OH2 1730   5.945   0.934   0.379 -0.2885  0.8308  0.4696
  575TIP3    H1 1731   6.037   0.918   0.404  0.0270  0.5618 -0.8185
  575TIP3    H2 1732   5.897   0.929   0.462  0.6166 -0.8326  0.9433
  576TIP3   OH2 1733   5.843   2.281   4.522 -0.5380 -0.6173 -0.1109
  576TIP3    H1 1734   5.886   2.253   4.442  0.2407  0.0255  0.0630
  576TIP3    H2 1735   5.779   2.212   4.541  0.6495 -1.7892 -0.2005
  577TIP3   OH2 1736   5.175   2.259   0.252  0.4066 -0.6297  0.1956
  577TIP3    H1 1737   5.192   2.256   0.157  1.0485  2.1101  0.1476
  577TIP3    H2 1738   5.083   2.235   0.260 -0.1980  0.9743 -1.3640
  578TIP3   OH2 1739   6.196   4.783   2.651 -0.1282  0.5387 -0.1949
  578TIP3    H1 1740   6.160   4.829   2.575  1.1734  1.2650 -0.3916
  578TIP3    H2 1741   6.203   4.849   2.719  1.0235  0.4669 -0.2310
  579TIP3   OH2 1742   1.378   4.841   1.648 -0.6248  0.3713  0.1222
  579TIP3    H1 1743   1.342   4.811   1.732  0.1429  0.4742  0.5028
  579TIP3    H2 1744   1.472   4.828   1.657 -0.4257  1.4202 -0.2938
  580TIP3   OH2 1745   0.033   4.712   2.428  0.2546 -0.9163  0.0113
  580TIP3    H1 1746  -0.005   4.735   2.512  0.9471 -0.6686  0.2610
  580TIP3    H2 1747   0.072   4.626   2.441  1.4455 -0.3489  0.3056
  581TIP3   OH2 1748   1.283   1.295   1.712 -0.5702  0.8721 -0.4830
  581TIP3    H1 1749   1.312   1.352   1.641 -1.0781  0.9789 -0.6123
  581TIP3    H2 1750   1.288   1.207   1.676 -0.9213  0.9336 -0.6908
  582TIP3   OH2 1751   3.305   1.411   0.696  0.3836  0.1948 -1.0395
  582TIP3    H1 1752   3.325   1.367   0.614  0.3806 -2.3968  0.2702
  582TIP3    H2 1753   3.389   1.420   0.740  0.0867 -0.8728 -0.2068
  583TIP3   OH2 1754   2.927   4.101   0.462  0.5974  0.0164  0.3275
  583TIP3    H1 1755   2.999   4.053   0.503  0.9077 -0.7407 -1.0692
  583TIP3    H2 1756   2.963   4.133   0.380 -0.7668 -0.7079 -0.5783
  584TIP3   OH2 1757   1.288   2.325   2.188  1.3293  0.2008  0.4934
  584TIP3    H1 1758   1.210   2.320   2.242  1.7953  0.8542  1.2584
  584TIP3    H2 1759   1.259   2.300   2.101  0.3398  0.1252  0.8331
  585TIP3   OH2 1760   5.252   5.350   1.476  0.0054 -0.0123 -0.3369
  585TIP3    H1 1761   5.260   5.312   1.564 -3.1647 -0.9233 -0.3190
  585TIP3    H2 1762   5.342   5.368   1.450  1.2837 -2.3562  1.9550
  586TIP3   OH2 1763   2.563   2.768   3.846 -0.0779 -0.3392  0.4821
  586TIP3    H1 1764   2.510   2.688   3.849 -1.8080  0.7683  0.8875
  586TIP3    H2 1765   2.631   2.749   3.782  0.0094 -2.3965  1.1182
  587TIP3   OH2 1766   4.851   0.918   2.481 -0.1601 -0.0092 -0.2228
  587TIP3    H1 1767   4.901   0.918   2.563 -0.7215 -0.9542  0.1415
  587TIP3    H2 1768   4.897   0.980   2.424  1.6855 -1.1473 -0.0601
  588TIP3   OH2 1769   4.875   5.610   0.038  0.8379  0.3559  0.4254
  588TIP3    H1 1770   4.801   5.608   0.098 -0.2908  0.6422 -0.9177
  588TIP3    H2 1771   4.926   5.687   0.066 -0.2377  1.1040  0.3793
  589TIP3   OH2 1772   1.542   4.515   1.547  0.0650 -0.5269 -0.3252
  589TIP3    H1 1773   1.575   4.456   1.479 -0.8201  0.3995 -1.6264
  589TIP3    H2 1774   1.447   4.517   1.531 -0.2618 -0.8647  1.4398
  590TIP3   OH2 1775   4.484   1.250   3.801  0.4626 -0.5813 -0.2236
  590TIP3    H1 1776   4.391   1.228   3.804 -0.0023  0.9963 -1.6257
  590TIP3    H2 1777   4.528   1.166   3.785 -0.7385 -1.2969  0.1115
  591TIP3   OH2 1778   1.756   4.873   0.044 -0.0343  0.4175 -0.2772
  591TIP3    H1 1779   1.699   4.797   0.057  1.4956 -0.6790  0.2528
  591TIP3    H2 1780   1.794   4.890   0.130 -1.5034  2.8209  0.0199
  592TIP3   OH2 1781   4.716   1.727   1.247  0.1709 -0.0698  0.7115
  592TIP3    H1 1782   4.762   1.647   1.270  0.7012  0.1970  0.5846
  592TIP3    H2 1783   4.627   1.714   1.282 -0.1606 -1.2696 -0.4843
  593TIP3   OH2 1784   3.547   2.847   3.801  0.0477 -0.2303 -0.0451
  593TIP3    H1 1785   3.525   2.884   3.887  1.6260  2.0670 -0.5535
  593TIP3    H2 1786   3.518   2.913   3.738  0.5927 -1.0401 -1.1710
  594TIP3   OH2 1787   0.950   5.694   0.287 -0.1295  0.2925 -0.5729
  594TIP3    H1 1788   0.945   5.601   0.309 -0.7149  0.6956  1.2085
  594TIP3    H2 1789   0.864   5.729   0.312  0.1310  1.3394 -1.0907
  595TIP3   OH2 1790   5.919   0.740   2.580  0.6064 -0.0789  0.4433
  595TIP3    H1 1791   5.901   0.807   2.647 -0.7317 -1.8615  1.9962
  595TIP3    H2 1792   5.983   0.682   2.621  0.5744 -0.6196 -0.2533
  596TIP3   OH2 1793   5.651   2.619   4.305  0.3789  0.1635 -0.3704
  596TIP3    H1 1794   5.714   2.690   4.293 -0.9407  1.7093  1.2962
  596TIP3    H2 1795   5.671   2.583   4.391 -2.5106  2.4762  1.4879
  597TIP3   OH2 1796   2.407   3.098   2.668 -0.2027 -0.1903 -0.2052
  597TIP3    H1 1797   2.374   3.017   2.631  1.5044 -1.0808  0.1016
  597TIP3    H2 1798   2.411   3.159   2.594 -2.6777  0.0604 -0.1933
  598TIP3   OH2 1799   3.865   3.329   1.082  0.4935  0.5029 -0.7091
  598TIP3    H1 1800   3.880   3.424   1.078  0.1429  0.5288 -1.4630
  598TIP3    H2 1801   3.952   3.290   1.080  0.5947  0.7598 -1.9511
  599TIP3   OH2 1802   4.265   3.440   2.086 -0.2533 -0.4717  0.0636
  599TIP3    H1 1803   4.331   3.371   2.085 -1.4401 -1.7599  2.3595
  599TIP3    H2 1804   4.314   3.521   2.103  0.8568 -1.1812  0.3087
  600TIP3   OH2 1805   4.886   0.157   1.208 -0.0713  0.5939  0.2727
  600TIP3    H1 1806   4.917   0.219   1.274 -0.2197 -0.6207  1.5371
  600TIP3    H2 1807   4.791   0.160   1.215 -0.1033  0.8121 -0.2339
  601TIP3   OH2 1808   4.757   1.334   4.176  0.3096 -0.6928 -0.1035
  601TIP3    H1 1809   4.696   1.405   4.196  1.2423  0.1356 -0.1147
  601TIP3    H2 1810   4.836   1.378   4.143  0.0409 -1.8388 -2.5035
  602TIP3   OH2 1811   4.099   0.773   2.227 -0.7516  0.1783 -0.1241
  602TIP3    H1 1812   4.006   0.778   2.250 -0.8655  2.1540 -0.8632
  602TIP3    H2 1813   4.102   0.800   2.135  0.6611  1.1323  0.1806
  603TIP3   OH2 1814   0.067   3.256   0.702 -0.3593 -0.1685 -0.2340
  603TIP3    H1 1815  -0.016   3.248   0.657  0.2843 -1.5462 -1.2537
  603TIP3    H2 1816   0.124   3.302   0.640 -0.1143  0.0073  0.1137
  604TIP3   OH2 1817   2.042   0.623   4.715 -0.1581  0.6381  0.1518
  604TIP3    H1 1818   1.950   0.632   4.740 -1.7520 -2.5666 -3.4219
  604TIP3    H2 1819   2.077   0.555   4.773 -0.6194  0.5476  0.3240
  605TIP3   OH2 1820   3.314   4.362   4.486 -0.1675  0.0321  0.5944
  605TIP3    H1 1821   3.286   4.271   4.478  0.8422 -0.1886 -0.5973
  605TIP3    H2 1822   3.267   4.394   4.564 -1.9051 -0.9654  0.0175
  606TIP3   OH2 1823   5.466   0.122   4.479 -0.5633 -0.6192 -0.1787
  606TIP3    H1 1824   5.412   0.095   4.405 -1.3526 -2.0973  0.8847
  606TIP3    H2 1825   5.549   0.076   4.466  0.4902  1.5388 -1.7347
  607TIP3   OH2 1826   2.931   5.659   4.822  0.1086  0.1898  0.1880
  607TIP3    H1 1827   2.843   5.640   4.789  0.2510  1.1521 -0.8063
  607TIP3    H2 1828   2.929   5.752   4.843  1.4215  0.6933 -1.6740
  608TIP3   OH2 1829   0.026   3.595   1.391  0.0488  1.1459  0.3982
  608TIP3    H1 1830   0.008   3.685   1.365 -0.7254  0.6939 -0.7115
  608TIP3    H2 1831   0.024   3.546   1.308  0.0586  0.0506  1.0318
  609TIP3   OH2 1832   4.307   1.217   2.766 -0.1017 -0.1386  0.0169
  609TIP3    H1 1833   4.327   1.154   2.835  0.2280  0.9210  0.9216
  609TIP3    H2 1834   4.218   1.246   2.785 -1.1507 -1.9564 -1.7260
  610TIP3   OH2 1835   2.201   1.365   3.188  0.2564 -0.2230  0.0354
  610TIP3    H1 1836   2.147   1.334   3.115 -1.2197  0.5802  0.7523
  610TIP3    H2 1837   2.266   1.421   3.147  0.8793 -1.5648 -0.8997
  611TIP3   OH2 1838   4.806   5.795   3.660  0.6326 -0.1431  0.0497
  611TIP3    H1 1839   4.890   5.842   3.666  0.3637  0.3207  0.2150
  611TIP3    H2 1840   4.748   5.844   3.718 -0.0178  0.0908 -0.7926
  612TIP3   OH2 1841   5.601   4.547   1.452 -0.4838  0.2986  0.3010
  612TIP3    H1 1842   5.528   4.565   1.511 -0.1885 -1.0197  1.1096
  612TIP3    H2 1843   5.575   4.587   1.368 -1.8933  0.2810  0.7058
  613TIP3   OH2 1844   0.860   0.849   0.146 -0.7234 -0.4962 -0.2455
  613TIP3    H1 1845   0.918   0.910   0.101 -0.0189 -0.2294  0.9590
  613TIP3    H2 1846   0.893   0.848   0.236 -4.4387  2.0611  1.3809
  614TIP3   OH2 1847   3.935   4.225   0.127  0.1403 -0.5640  0.1445
  614TIP3    H1 1848   4.029   4.228   0.109  0.1211 -3.3645 -0.9495
  614TIP3    H2 1849   3.894   4.249   0.044 -0.0778 -1.5917 -0.0493
  615TIP3   OH2 1850   2.051   2.477   3.662  0.7822  0.1156  0.3498
  615TIP3    H1 1851   2.114   2.425   3.713  0.0399 -0.8837  0.2666
  615TIP3    H2 1852   1.985   2.503   3.726 -0.9337 -2.3565 -0.2872
  616TIP3   OH2 1853   3.278   4.873   2.527 -0.5833  0.2925 -0.4353
  616TIP3    H1 1854   3.310   4.914   2.607 -1.4366  0.0889  0.0200
  616TIP3    H2 1855   3.258   4.783   2.553 -1.2794  0.3448 -0.7571
  617TIP3   OH2 1856   6.009   1.275   0.068 -0.0736 -0.1941  0.5943
  617TIP3    H1 1857   6.104   1.286   0.063 -0.0874 -0.5499 -0.8493
  617TIP3    H2 1858   5.974   1.365   0.071  0.3121 -0.0594  2.1333
  618TIP3   OH2 1859   4.053   2.881   5.022  0.2828  0.3243 -0.3742
  618TIP3    H1 1860   4.096   2.877   5.107  0.2377  0.6626 -0.3364
  618TIP3    H2 1861   4.116   2.926   4.965  0.4295 -0.1435 -0.5916
  619TIP3   OH2 1862   4.848   4.031   3.026  0.0406  0.2649 -1.1664
  619TIP3    H1 1863   4.863   4.106   2.968  0.0696  0.7528 -0.5405
  619TIP3    H2 1864   4.916   4.039   3.094  0.0444 -0.3287 -1.0939
  620TIP3   OH2 1865   5.359   4.243   0.917 -0.3327  0.3802  0.0368
  620TIP3    H1 1866   5.403   4.258   0.833  0.4533 -0.1488  0.3402
  620TIP3    H2 1867   5.282   4.191   0.895  0.8315 -1.3343 -0.1816
  621TIP3   OH2 1868   5.084   2.729   1.840 -0.1124  0.4144  0.4989
  621TIP3    H1 1869   5.063   2.792   1.771 -0.0180  1.0696  1.0549
  621TIP3    H2 1870   5.002   2.717   1.887 -0.5207 -1.0651 -0.5255
  622TIP3   OH2 1871   5.542   3.225   4.087  0.5582 -0.4076 -0.0237
  622TIP3    H1 1872   5.556   3.299   4.028  1.0841  0.4698  1.1448
  622TIP3    H2 1873   5.549   3.263   4.175  1.0862 -1.8786  0.6145
  623TIP3   OH2 1874   2.519   0.093   0.265 -0.3863  0.5032  0.1661
  623TIP3    H1 1875   2.468   0.014   0.280  0.6236 -0.6259 -1.8621
  623TIP3    H2 1876   2.565   0.108   0.347 -2.1872  0.2375  1.2769
  624TIP3   OH2 1877   1.717   0.340   2.223 -0.5645 -0.5177  0.0091
  624TIP3    H1 1878   1.753   0.319   2.309 -1.5625 -0.6244  0.4122
  624TIP3    H2 1879   1.640   0.284   2.214 -1.7262  1.0082 -0.0191
  625TIP3   OH2 1880   4.535   0.471   2.899 -0.5191  0.5861 -0.3227
  625TIP3    H1 1881   4.598   0.500   2.833 -0.1659  0.4930 -0.0303
  625TIP3    H2 1882   4.504   0.386   2.867 -1.1018  1.0031 -0.8743
  626TIP3   OH2 1883   4.599   0.080   4.526 -0.8522 -0.3200 -0.5472
  626TIP3    H1 1884   4.676   0.135   4.511 -0.5376 -0.4090  0.6533
  626TIP3    H2 1885   4.546   0.093   4.448  0.1159  0.1802 -1.1506
  627TIP3   OH2 1886   3.358   2.804   4.969  0.1227 -0.5898  0.5622
  627TIP3    H1 1887   3.375   2.773   4.880 -1.1710 -0.7759  0.3575
  627TIP3    H2 1888   3.309   2.732   5.010 -1.8054  0.6079  0.4812
  628TIP3   OH2 1889   5.009   4.768   3.335  0.2274  0.9060 -0.5616
  628TIP3    H1 1890   4.984   4.700   3.272 -0.9946  0.3717  0.4536
  628TIP3    H2 1891   5.104   4.762   3.340  0.1975 -0.2804 -0.9930
  629TIP3   OH2 1892   0.011   1.157   1.833 -0.4519 -0.2058 -0.0836
  629TIP3    H1 1893   0.075   1.144   1.902  0.7182  0.2406 -1.0430
  629TIP3    H2 1894   0.063   1.174   1.754 -1.7085 -1.2093 -1.2032
  630TIP3   OH2 1895   0.439   2.797   4.746  0.3395 -0.2785  1.3920
  630TIP3    H1 1896   0.433   2.826   4.837  1.9804  2.8602  0.6311
  630TIP3    H2 1897   0.530   2.771   4.734  0.2960 -0.0845  0.5240
  631TIP3   OH2 1898   3.892   3.573   2.117 -0.4149 -0.1593  0.0631
  631TIP3    H1 1899   3.965   3.588   2.058 -0.8263 -1.5850 -0.8656
  631TIP3    H2 1900   3.818   3.556   2.059 -1.4484  1.0187  0.9810
  632TIP3   OH2 1901   0.921   2.653   2.659 -0.8055 -0.1380  0.1821
  632TIP3    H1 1902   0.898   2.571   2.703 -1.7319  0.7383  1.4231
  632TIP3    H2 1903   1.017   2.657   2.664 -0.7542 -1.1118  0.1363
  633TIP3   OH2 1904   6.339   5.794   4.849  0.1210  0.6691 -0.1448
  633TIP3    H1 1905   6.310   5.802   4.940 -1.9078  1.1738 -0.7686
  633TIP3    H2 1906   6.278   5.849   4.800  0.3588 -0.5925 -1.9651
  634TIP3   OH2 1907   1.917   3.702   0.242 -0.5029 -0.4112  0.2797
  634TIP3    H1 1908   1.848   3.716   0.177 -2.0024 -0.5077  1.7626
  634TIP3    H2 1909   1.934   3.608   0.239 -0.5003 -0.4025 -0.0340
  635TIP3   OH2 1910   0.803   5.315   2.556  0.4195 -0.3161  0.5399
  635TIP3    H1 1911   0.864   5.300   2.628  0.8226 -0.3254  0.2020
  635TIP3    H2 1912   0.747   5.386   2.586 -0.4343 -1.3664  1.4920
  636TIP3   OH2 1913   2.183   0.950   0.148  0.4528  0.6566  0.4028
  636TIP3    H1 1914   2.110   0.891   0.164  0.4720  0.1763 -1.1065
  636TIP3    H2 1915   2.250   0.924   0.211 -0.0069 -0.0932  0.5906
  637TIP3   OH2 1916   5.063   4.887   0.859  0.8992  0.0570 -0.3207
  637TIP3    H1 1917   4.981   4.858   0.821  0.3413 -0.1324  0.9520
  637TIP3    H2 1918   5.052   4.981   0.871 -0.1555 -0.2787  2.0454
  638TIP3   OH2 1919   0.802   1.317   0.120  0.0737 -0.1621  0.0950
  638TIP3    H1 1920   0.832   1.252   0.057  0.6019  0.7211 -0.5865
  638TIP3    H2 1921   0.715   1.287   0.146  1.0036 -2.1160  1.1838
  639TIP3   OH2 1922   4.631   4.676   3.123 -0.0534 -0.2309 -0.1442
  639TIP3    H1 1923   4.564   4.695   3.056 -2.1308 -1.6673  1.3843
  639TIP3    H2 1924   4.648   4.582   3.113 -0.6562 -0.5437  1.5043
  640TIP3   OH2 1925   1.605   2.689   4.830 -0.1171 -0.1039 -0.0398
  640TIP3    H1 1926   1.618   2.661   4.921 -0.4007 -1.1367 -0.2980
  640TIP3    H2 1927   1.647   2.621   4.778 -0.5219  0.1415 -0.6954
  641TIP3   OH2 1928   1.133   4.040   5.191  0.4427  0.2570 -0.0549
  641TIP3    H1 1929   1.039   4.026   5.181  0.4294  0.8136 -0.7611
  641TIP3    H2 1930   1.162   4.074   5.106  1.1327  0.8545  0.4019
  642TIP3   OH2 1931   5.062   2.604   5.091  0.0087  0.3132  0.8337
  642TIP3    H1 1932   5.104   2.652   5.163 -0.0531  0.7465  0.5840
  642TIP3    H2 1933   5.112   2.630   5.014 -2.1646  2.7314  0.1164
  643TIP3   OH2 1934   3.924   2.750   0.555  0.4767 -0.4111 -0.2697
  643TIP3    H1 1935   4.011   2.717   0.577 -0.0704 -1.2767  0.6963
  643TIP3    H2 1936   3.899   2.807   0.628  0.4251  0.2249 -0.7747
  644TIP3   OH2 1937   2.185   0.841   2.149 -0.3701 -0.5585 -0.2732
  644TIP3    H1 1938   2.242   0.888   2.210 -1.0602 -0.2773  0.1616
  644TIP3    H2 1939   2.196   0.749   2.172  2.1653 -0.8274 -2.1230
  645TIP3   OH2 1940   3.087   0.904   1.206 -0.1210 -0.0207  0.6971
  645TIP3    H1 1941   3.084   0.999   1.193  0.6448 -0.2914 -2.1530
  645TIP3    H2 1942   3.086   0.892   1.301 -0.3145  2.8193  1.1217
  646TIP3   OH2 1943   2.768   3.511   4.681 -0.9257  0.2305 -0.1000
  646TIP3    H1 1944   2.828   3.461   4.736 -0.4327 -1.0804 -1.7087
  646TIP3    H2 1945   2.790   3.602   4.696  1.1401 -0.2032 -0.2305
  647TIP3   OH2 1946   6.029   2.666   4.218  0.1600  0.4878 -0.0722
  647TIP3    H1 1947   5.976   2.737   4.255  0.3615  0.9531 -0.6589
  647TIP3    H2 1948   6.119   2.694   4.232  0.3236 -0.8791  2.0492
  648TIP3   OH2 1949   1.289   2.720   3.103 -0.2951  0.2252 -0.2877
  648TIP3    H1 1950   1.358   2.719   3.169  0.4550 -1.9489 -1.0255
  648TIP3    H2 1951   1.326   2.769   3.030  0.0769 -0.0787 -0.3008
  649TIP3   OH2 1952   0.942   5.183   1.144 -0.3402  0.1258  0.2183
  649TIP3    H1 1953   0.934   5.170   1.049 -3.1738  0.1451  0.3793
  649TIP3    H2 1954   1.035   5.205   1.157  0.4366 -1.2619 -2.3389
  650TIP3   OH2 1955   1.665   1.936   0.918 -0.4019  0.0115 -0.1143
  650TIP3    H1 1956   1.754   1.959   0.893  0.0446  1.2126  2.3263
  650TIP3    H2 1957   1.613   2.012   0.892 -0.1409  0.7217  1.3570
  651TIP3   OH2 1958   2.685   3.484   3.237 -0.1060  0.0425 -0.4124
  651TIP3    H1 1959   2.717   3.574   3.228  1.0285 -0.5109 -2.3790
  651TIP3    H2 1960   2.763   3.432   3.255 -0.5518 -0.7140 -0.6175
  652TIP3   OH2 1961   4.437   3.668   2.121 -0.1915  0.3546  0.1138
  652TIP3    H1 1962   4.522   3.695   2.157  0.7950  2.1534 -3.2095
  652TIP3    H2 1963   4.398   3.749   2.088 -2.5010 -0.6984  0.1005
  653TIP3   OH2 1964   4.106   3.635   1.900  0.4475  0.5036 -0.3421
  653TIP3    H1 1965   4.138   3.718   1.935  1.1392  0.0822  0.0535
  653TIP3    H2 1966   4.185   3.582   1.888  0.0443  0.0147 -0.8952
  654TIP3   OH2 1967   4.386   2.025   1.523 -0.2747  0.5790 -0.2896
  654TIP3    H1 1968   4.472   2.025   1.565  0.0247 -0.3862 -0.8711
  654TIP3    H2 1969   4.405   2.034   1.430 -0.7365 -0.4952 -0.5031
  655TIP3   OH2 1970   4.391   3.637   0.789 -0.0734 -0.1757  0.1163
  655TIP3    H1 1971   4.415   3.686   0.711 -0.1117 -0.8258 -0.3151
  655TIP3    H2 1972   4.321   3.688   0.830  1.0796  1.0271  0.6479
  656TIP3   OH2 1973   4.680   1.355   3.343 -0.5449 -0.5069  0.3253
  656TIP3    H1 1974   4.755   1.379   3.287  1.2246 -0.3944  2.6040
  656TIP3    H2 1975   4.660   1.435   3.391 -0.8696 -1.0691  1.1424
  657TIP3   OH2 1976   3.685   4.147   3.092 -0.4013  0.2877 -0.5359
  657TIP3    H1 1977   3.726   4.208   3.153 -0.5582  0.5887 -0.7326
  657TIP3    H2 1978   3.594   4.141   3.121 -0.1075 -0.8030  0.2394
  658TIP3   OH2 1979   5.792   0.412   4.553  0.8611 -0.1997  0.0282
  658TIP3    H1 1980   5.705   0.447   4.572  0.4228 -0.4868 -1.3516
  658TIP3    H2 1981   5.794   0.326   4.595  0.7267  0.0686  0.5967
  659TIP3   OH2 1982   4.727   3.024   3.905 -0.3001 -0.3090  0.1620
  659TIP3    H1 1983   4.765   2.967   3.839  1.3213 -0.6412  1.3145
  659TIP3    H2 1984   4.749   3.112   3.877  0.2286 -0.4377  0.1770
  660TIP3   OH2 1985   1.032   3.752   3.380 -0.2144  0.1748  0.3099
  660TIP3    H1 1986   0.991   3.837   3.366  0.3208  0.3316 -0.3467
  660TIP3    H2 1987   1.023   3.736   3.474  0.6781  1.4828  0.6420
  661TIP3   OH2 1988   2.012   1.263   0.246 -0.2949  0.2451 -0.1248
  661TIP3    H1 1989   1.960   1.325   0.195 -1.5410 -0.1121  0.6521
  661TIP3    H2 1990   2.053   1.317   0.314  0.2125  0.5086 -0.6409
  662TIP3   OH2 1991   0.251   5.094   2.316 -0.0254 -0.8191 -0.0170
  662TIP3    H1 1992   0.296   5.042   2.383  2.3921  1.0054 -0.0947
  662TIP3    H2 1993   0.271   5.184   2.339 -1.2941 -0.0367 -1.7787
  663TIP3   OH2 1994   0.093   2.825   3.646 -0.1697  0.0711 -0.3251
  663TIP3    H1 1995   0.007   2.833   3.686 -0.4681  0.0989 -0.9771
  663TIP3    H2 1996   0.137   2.758   3.699  0.2005  1.5723  1.3686
  664TIP3   OH2 1997   4.437   5.369   2.473  0.5116 -0.0829 -0.2070
  664TIP3    H1 1998   4.395   5.295   2.430 -0.9562  0.7342 -0.2449
  664TIP3    H2 1999   4.453   5.432   2.402  0.7436  0.0912 -0.0035
  665TIP3   OH2 2000   0.047   0.530   0.822  0.2717  0.1524  0.4131
  665TIP3    H1 2001   0.136   0.513   0.855  0.3703  0.9251  0.5764
  665TIP3    H2 2002   0.059   0.598   0.756  0.2682 -2.3323 -2.3630
  666TIP3   OH2 2003   0.347   1.838   0.158 -0.3738 -0.0595  0.6087
  666TIP3    H1 2004   0.405   1.794   0.097 -0.7881  0.3330 -0.0854
  666TIP3    H2 2005   0.303   1.767   0.205 -1.2510 -0.4187 -0.7007
  667TIP3   OH2 2006   5.905   0.322   1.593 -0.5666 -0.1221  0.2706
  667TIP3    H1 2007   5.993   0.355   1.572 -0.4019 -0.8255 -0.1634
  667TIP3    H2 2008   5.886   0.258   1.525 -0.8843 -0.9214  1.0920
  668TIP3   OH2 2009   2.628   5.045   0.963 -0.1926 -0.1027  0.0519
  668TIP3    H1 2010   2.570   5.081   1.030  0.4617  0.2519  0.4393
  668TIP3    H2 2011   2.570   4.996   0.905 -0.7272 -0.7099  1.0705
  669TIP3   OH2 2012   3.652   0.658   4.323  0.2215  0.3480  0.1393
  669TIP3    H1 2013   3.673   0.748   4.350 -0.1940  0.1117  1.3144
  669TIP3    H2 2014   3.723   0.605   4.358  1.1171  0.3217 -1.5842
  670TIP3   OH2 2015   5.091   4.167   1.076  0.2446  0.9093  0.3012
  670TIP3    H1 2016   5.066   4.246   1.028  0.4634  0.3995 -0.6707
  670TIP3    H2 2017   5.034   4.098   1.041  0.7983  0.4121  0.3639
  671TIP3   OH2 2018   3.248   0.568   4.747 -0.7743  0.5111 -0.1504
  671TIP3    H1 2019   3.277   0.490   4.796  0.3717  1.1362  0.1900
  671TIP3    H2 2020   3.231   0.535   4.658  0.7138  0.0550 -0.2852
  672TIP3   OH2 2021   5.304   0.652   4.150 -0.0119  0.2283 -0.4088
  672TIP3    H1 2022   5.284   0.670   4.058  2.0813 -2.5418 -1.5468
  672TIP3    H2 2023   5.391   0.689   4.163 -1.1311  2.5219  1.2069
  673TIP3   OH2 2024   3.635   0.796   3.033  0.0079  0.5159  0.2657
  673TIP3    H1 2025   3.609   0.770   3.121  0.2663  2.3642  0.9442
  673TIP3    H2 2026   3.667   0.716   2.992 -1.9801 -0.7896  1.1305
  674TIP3   OH2 2027   6.328   4.516   3.485 -0.3041  0.2548  0.4799
  674TIP3    H1 2028   6.356   4.430   3.454 -0.6806  0.2698  0.0881
  674TIP3    H2 2029   6.354   4.577   3.416 -1.2490  0.2748  0.1264
  675TIP3   OH2 2030   2.784   5.596   3.366  0.6798  0.6621 -0.3131
  675TIP3    H1 2031   2.860   5.538   3.361  0.3270 -0.0018  1.2967
  675TIP3    H2 2032   2.712   5.537   3.389 -0.4072  1.2363 -2.0255
  676TIP3   OH2 2033   3.640   0.830   2.021 -0.1135 -0.1550  0.3294
  676TIP3    H1 2034   3.659   0.922   2.002  0.4076 -0.5483 -1.1884
  676TIP3    H2 2035   3.724   0.785   2.008 -0.4250 -0.8823  0.7916
  677TIP3   OH2 2036   2.847   2.552   4.067  0.1128  0.1932 -0.2720
  677TIP3    H1 2037   2.799   2.632   4.087 -1.9060 -1.2337  0.8352
  677TIP3    H2 2038   2.930   2.562   4.114 -1.2475  0.4626  2.2145
  678TIP3   OH2 2039   4.747   2.220   2.474  0.2620 -0.1879  0.1463
  678TIP3    H1 2040   4.838   2.243   2.495 -0.4326  1.1140  1.9650
  678TIP3    H2 2041   4.704   2.305   2.462 -0.6183 -0.8018 -1.2798
  679TIP3   OH2 2042   0.344   4.115   0.734 -0.2142 -0.2265  0.7739
  679TIP3    H1 2043   0.411   4.085   0.673 -0.3088  0.2752  0.4220
  679TIP3    H2 2044   0.339   4.045   0.800  2.2502  0.6721  2.0697
  680TIP3   OH2 2045   3.801   2.186   4.076 -0.0937 -0.1234  0.7193
  680TIP3    H1 2046   3.820   2.220   4.164 -0.4767  1.7007  0.1304
  680TIP3    H2 2047   3.887   2.184   4.033  0.0250 -0.5777  0.9623
  681TIP3   OH2 2048   4.239   5.343   2.209  0.1865  0.0458  0.1474
  681TIP3    H1 2049   4.270   5.428   2.241  0.1318 -0.2863  1.0950
  681TIP3    H2 2050   4.145   5.344   2.227  0.0408  0.0924 -0.5691
  682TIP3   OH2 2051   5.897   1.827   3.309 -0.2814  0.5763  0.0109
  682TIP3    H1 2052   5.879   1.754   3.250  1.0344 -0.1010  0.4259
  682TIP3    H2 2053   5.975   1.868   3.274 -0.8503  1.6278 -0.0576
  683TIP3   OH2 2054   6.134   1.882   4.184 -0.3127 -0.4943  0.1433
  683TIP3    H1 2055   6.229   1.872   4.178  0.0903  1.2793  2.2874
  683TIP3    H2 2056   6.112   1.946   4.116  0.7095  2.1281  2.1192
  684TIP3   OH2 2057   1.298   0.607   3.837  0.3366  0.2714  0.5457
  684TIP3    H1 2058   1.272   0.651   3.917 -0.9206 -0.3161  0.4827
  684TIP3    H2 2059   1.325   0.519   3.866  0.3299  0.2150  0.3830
  685TIP3   OH2 2060   1.911   4.263   0.847 -0.2377  0.8049 -0.0605
  685TIP3    H1 2061   1.994   4.253   0.800  0.2450  2.6048  0.3392
  685TIP3    H2 2062   1.928   4.333   0.910 -2.1653  1.3907 -0.1561
  686TIP3   OH2 2063   1.526   4.017   4.911 -0.1172 -0.0903  0.2740
  686TIP3    H1 2064   1.588   3.960   4.955 -0.4347 -2.5081 -2.1405
  686TIP3    H2 2065   1.565   4.035   4.825 -0.7798  2.0797  0.3474
  687TIP3   OH2 2066   0.531   2.898   0.727  0.6375  0.5577  0.7143
  687TIP3    H1 2067   0.436   2.905   0.723  0.2548 -2.4829  1.9872
  687TIP3    H2 2068   0.562   2.988   0.719 -2.0417  1.4216 -4.3065
  688TIP3   OH2 2069   0.858   2.503   2.905  0.0030  0.2812 -0.0720
  688TIP3    H1 2070   0.788   2.569   2.897  1.3053  1.5813 -1.5328
  688TIP3    H2 2071   0.905   2.528   2.984 -1.0893 -0.5616  0.8839
  689TIP3   OH2 2072   0.444   0.389   0.358 -0.1641 -0.2687  0.3393
  689TIP3    H1 2073   0.411   0.346   0.437 -1.8642 -1.7888 -1.1267
  689TIP3    H2 2074   0.532   0.352   0.346 -0.2597 -0.7312  0.9891
  690TIP3   OH2 2075   2.078   1.089   0.869 -0.5863  0.1979  0.9860
  690TIP3    H1 2076   2.014   1.152   0.903  0.0081  0.8690  0.8605
  690TIP3    H2 2077   2.026   1.010   0.853 -0.9624 -0.0599  3.1440
  691TIP3   OH2 2078   1.730   2.547   2.094  0.5901  0.9286 -0.5931
  691TIP3    H1 2079   1.748   2.561   2.187  0.4229 -0.2657 -0.3709
  691TIP3    H2 2080   1.635   2.539   2.088  0.7228 -1.2211 -0.5087
  692TIP3   OH2 2081   1.958   5.575   2.230  0.1103 -0.1108  0.0698
  692TIP3    H1 2082   1.873   5.600   2.195 -1.0509 -0.9176  2.1506
  692TIP3    H2 2083   1.987   5.503   2.175  0.8793  1.9834 -2.4709
  693TIP3   OH2 2084   1.025   3.949   2.081  0.0586 -0.5885 -0.4331
  693TIP3    H1 2085   0.963   3.930   2.012  1.3028 -0.1176 -1.7354
  693TIP3    H2 2086   0.977   4.006   2.142 -1.6340 -2.5230  0.1351
  694TIP3   OH2 2087   0.892   5.568   3.101 -0.7573 -0.7040 -0.0979
  694TIP3    H1 2088   0.848   5.607   3.026 -1.3419  0.0857  0.6421
  694TIP3    H2 2089   0.952   5.503   3.062  0.2406  0.8944 -1.3545
  695TIP3   OH2 2090   5.395   2.475   4.383 -0.0156 -0.0669 -0.1173
  695TIP3    H1 2091   5.328   2.527   4.428  1.0844  1.0616  0.2787
  695TIP3    H2 2092   5.460   2.539   4.354  0.4446 -1.0328 -1.3056
  696TIP3   OH2 2093   4.274   2.419   3.923 -0.5904  0.3353 -0.4401
  696TIP3    H1 2094   4.369   2.410   3.926 -0.4926  1.5036  0.2070
  696TIP3    H2 2095   4.250   2.387   3.835  0.5839  1.6884 -1.2834
  697TIP3   OH2 2096   4.705   0.810   3.953  0.5925  0.5485 -0.3394
  697TIP3    H1 2097   4.755   0.861   4.017  1.8560 -0.9037 -0.1181
  697TIP3    H2 2098   4.616   0.843   3.960  1.0965  1.7398  0.7913
  698TIP3   OH2 2099   3.884   0.548   0.650 -0.5276 -0.6071 -0.0453
  698TIP3    H1 2100   3.904   0.468   0.698  0.0742 -0.8889 -0.7446
  698TIP3    H2 2101   3.968   0.593   0.642 -1.2255  1.3694  2.5256
  699TIP3   OH2 2102   1.553   2.507   4.078 -0.2031  0.4004 -0.0134
  699TIP3    H1 2103   1.504   2.580   4.115  0.1234  0.8892 -0.5310
  699TIP3    H2 2104   1.645   2.530   4.093 -0.1062 -0.2536  0.4723
  700TIP3   OH2 2105   0.500   5.623   1.300  0.0916 -0.2651 -0.0471
  700TIP3    H1 2106   0.483   5.565   1.227 -0.7361  0.1474 -0.2078
  700TIP3    H2 2107   0.438   5.696   1.287  1.3988  0.8736 -0.1018
  701TIP3   OH2 2108   2.439   0.873   1.379 -0.2281  0.5731  0.0954
  701TIP3    H1 2109   2.516   0.922   1.410  0.0415 -0.1615  0.6327
  701TIP3    H2 2110   2.476   0.797   1.335 -0.5500 -1.7588  3.4811
  702TIP3   OH2 2111   3.621   4.419   4.025 -0.4219  0.1794 -0.0418
  702TIP3    H1 2112   3.543   4.419   3.970 -0.8014 -0.2990  0.4820
  702TIP3    H2 2113   3.587   4.418   4.114  0.1841  0.5382  0.1956
  703TIP3   OH2 2114   2.225   0.185   3.314  0.6309  0.3106 -0.2400
  703TIP3    H1 2115   2.243   0.274   3.345  0.4919 -0.2930  1.7281
  703TIP3    H2 2116   2.280   0.175   3.237  2.0704  1.4910  0.5806
  704TIP3   OH2 2117   5.980   0.325   3.436 -0.8536  0.9332  0.0633
  704TIP3    H1 2118   5.956   0.359   3.350 -3.7232 -0.1110  0.3370
  704TIP3    H2 2119   6.027   0.243   3.417  1.4175  2.2688 -0.4768
  705TIP3   OH2 2120   4.113   4.545   0.506  0.5142  0.2908  0.8255
  705TIP3    H1 2121   4.045   4.535   0.439 -0.9759 -0.5578  2.3781
  705TIP3    H2 2122   4.191   4.572   0.457 -0.5972  0.0799 -1.1885
  706TIP3   OH2 2123   1.374   1.643   0.022 -0.3441  0.2360 -0.1400
  706TIP3    H1 2124   1.465   1.671   0.012  0.1315 -1.2712 -0.2971
  706TIP3    H2 2125   1.376   1.582   0.095 -1.0212 -0.6119 -0.8100
  707TIP3   OH2 2126   1.919   1.136   4.270  0.1747 -0.1237 -0.2336
  707TIP3    H1 2127   1.938   1.044   4.253  2.1720  0.1560  0.2604
  707TIP3    H2 2128   1.913   1.176   4.182  0.1972 -0.5598 -0.4350
  708TIP3   OH2 2129   2.604   1.706   2.367  0.0026 -0.2601  0.5062
  708TIP3    H1 2130   2.673   1.772   2.363 -1.9922  1.9055 -0.0881
  708TIP3    H2 2131   2.604   1.667   2.279  0.2468 -0.0418  0.4062
  709TIP3   OH2 2132   4.714   1.090   4.811  0.3313 -0.3409 -0.2948
  709TIP3    H1 2133   4.621   1.068   4.820  0.2586  0.2020  0.3615
  709TIP3    H2 2134   4.749   1.080   4.899  0.6111  0.7230 -0.2768
  710TIP3   OH2 2135   0.499   0.102   0.617  0.3153 -0.3819 -0.6402
  710TIP3    H1 2136   0.469   0.059   0.696  0.4611 -0.6234 -0.7153
  710TIP3    H2 2137   0.421   0.145   0.582 -0.3845 -2.3969 -1.7556
  711TIP3   OH2 2138   5.335   4.287   2.117 -0.0400  0.6362 -0.1281
  711TIP3    H1 2139   5.358   4.248   2.033  2.2129 -1.5671  1.3566
  711TIP3    H2 2140   5.382   4.370   2.119 -0.7571  1.0896 -1.3154
  712TIP3   OH2 2141   0.019   3.665   5.058  0.0047  0.0034  0.0302
  712TIP3    H1 2142   0.004   3.758   5.042 -0.6217 -0.0366  0.3826
  712TIP3    H2 2143   0.033   3.628   4.971  2.4505  0.7861  0.0102
  713TIP3   OH2 2144   4.246   5.665   4.395  0.6230  0.3461 -0.3642
  713TIP3    H1 2145   4.239   5.707   4.481  1.6391  2.1397 -1.0889
  713TIP3    H2 2146   4.243   5.738   4.333  0.9724 -0.8126 -1.7953
  714TIP3   OH2 2147   5.977   1.688   4.968 -0.2605 -0.6946 -0.3834
  714TIP3    H1 2148   5.952   1.746   5.040 -0.5213  0.8863 -1.6891
  714TIP3    H2 2149   5.962   1.740   4.889  1.0087 -2.0006 -1.5401
  715TIP3   OH2 2150   3.389   3.721   2.459 -0.3669  0.2252 -0.4006
  715TIP3    H1 2151   3.325   3.753   2.396 -1.2232  0.6971  0.6761
  715TIP3    H2 2152   3.430   3.800   2.495 -0.2878 -0.0110  0.0403
  716TIP3   OH2 2153   1.631   0.704   3.352 -0.0112  0.2754  0.3157
  716TIP3    H1 2154   1.716   0.737   3.322  0.1678  0.1553  0.6807
  716TIP3    H2 2155   1.605   0.765   3.421  0.4586 -0.4866  1.1976
  717TIP3   OH2 2156   1.925   0.122   2.666  0.2276 -0.2382  0.1875
  717TIP3    H1 2157   1.931   0.146   2.759  1.1053 -2.6468  0.8195
  717TIP3    H2 2158   2.013   0.136   2.632 -0.3755  1.8506 -0.6810
  718TIP3   OH2 2159   0.045   2.264   0.238  0.3735  0.6820  0.4984
  718TIP3    H1 2160   0.111   2.310   0.289 -1.0016  2.7649  0.4930
  718TIP3    H2 2161   0.015   2.194   0.296  0.3973  1.6399  1.6927
  719TIP3   OH2 2162   1.192   3.259   2.241 -0.2421  0.2136  0.2326
  719TIP3    H1 2163   1.242   3.208   2.178  0.2104  1.1375 -0.1729
  719TIP3    H2 2164   1.255   3.283   2.309 -0.4201  0.3468  0.3525
  720TIP3   OH2 2165   3.228   3.041   0.894 -0.5020  0.2738  0.5159
  720TIP3    H1 2166   3.317   3.024   0.927 -0.0236  0.8896 -0.3922
  720TIP3    H2 2167   3.226   2.995   0.810 -0.9696  0.4470  0.4343
  721TIP3   OH2 2168   2.821   1.424   3.739  0.3105  0.4771 -0.5960
  721TIP3    H1 2169   2.754   1.411   3.806  0.3378 -0.5928 -0.7576
  721TIP3    H2 2170   2.802   1.510   3.703  0.7272  1.3985  1.2729
  722TIP3   OH2 2171   0.876   3.301   3.221 -0.3755 -0.2479 -0.3111
  722TIP3    H1 2172   0.784   3.314   3.201 -0.7148 -0.4362  1.0646
  722TIP3    H2 2173   0.884   3.317   3.315  1.3928  1.9384 -0.7318
  723TIP3   OH2 2174   2.089   0.543   5.157  0.6048 -0.1581  0.3083
  723TIP3    H1 2175   2.118   0.611   5.096  0.7301 -1.4645 -1.1586
  723TIP3    H2 2176   1.994   0.543   5.150  0.5841  0.0624  0.5539
  724TIP3   OH2 2177   3.436   5.963   1.062  0.2316 -0.1169  0.1850
  724TIP3    H1 2178   3.491   5.895   1.023  1.7499  0.7949  0.6615
  724TIP3    H2 2179   3.386   5.999   0.989  0.8895 -0.3939 -0.4062
  725TIP3   OH2 2180   3.597   2.581   0.546  0.1397  0.4962  0.1984
  725TIP3    H1 2181   3.664   2.631   0.592  1.2676 -0.6296 -0.1810
  725TIP3    H2 2182   3.517   2.632   0.558  1.3494  2.7053 -0.6933
  726TIP3   OH2 2183   1.033   0.969   5.027 -0.6079 -0.0233  0.6075
  726TIP3    H1 2184   1.095   0.935   4.962 -3.0343 -2.1986 -0.7778
  726TIP3    H2 2185   1.016   1.059   4.999 -1.0133 -0.6598 -1.3865
  727TIP3   OH2 2186   1.660   0.629   0.936 -0.1385 -0.2300 -0.1024
  727TIP3    H1 2187   1.735   0.585   0.976  0.4160  0.6590 -0.1226
  727TIP3    H2 2188   1.665   0.719   0.969 -1.7268 -0.3666  0.6199
  728TIP3   OH2 2189   1.437   4.225   2.887 -0.2460 -0.4220 -0.0152
  728TIP3    H1 2190   1.454   4.319   2.878 -0.3326 -0.1771  1.9573
  728TIP3    H2 2191   1.513   4.191   2.934 -0.2633 -1.3375 -0.6256
  729TIP3   OH2 2192   0.972   5.618   3.361 -0.5430 -0.4858 -0.3465
  729TIP3    H1 2193   1.057   5.577   3.343 -0.6239 -0.3994 -0.9407
  729TIP3    H2 2194   0.922   5.604   3.281 -0.7182  0.4168 -0.3997
  730TIP3   OH2 2195   5.130   5.568   2.285 -0.2595  0.0993 -0.6528
  730TIP3    H1 2196   5.205   5.534   2.333 -0.5820  0.5640  0.1848
  730TIP3    H2 2197   5.129   5.662   2.303  0.5869  0.6110 -2.9056
  731TIP3   OH2 2198   3.248   3.945   1.155  0.6388  0.5216  0.7234
  731TIP3    H1 2199   3.314   3.958   1.223  1.0547 -0.8896  0.6120
  731TIP3    H2 2200   3.282   3.873   1.102 -0.8336 -0.0205  0.4611
  732TIP3   OH2 2201   2.190   1.995   0.303 -0.0000  0.4859 -0.0760
  732TIP3    H1 2202   2.192   2.089   0.281  1.1218  0.4073 -0.3655
  732TIP3    H2 2203   2.110   1.963   0.262 -1.2519  1.6064  1.3313
  733TIP3   OH2 2204   4.190   1.019   3.474 -0.0546  0.3241 -0.2481
  733TIP3    H1 2205   4.174   1.113   3.468  0.5594  0.6429  2.2826
  733TIP3    H2 2206   4.228   0.996   3.389  1.0976  2.6208 -0.4210
  734TIP3   OH2 2207   5.861   2.472   0.995  0.2280  0.0603  0.2308
  734TIP3    H1 2208   5.897   2.389   1.026 -0.7698  0.0863  1.5265
  734TIP3    H2 2209   5.822   2.450   0.910  0.6319 -0.6301  0.2166
  735TIP3   OH2 2210   4.991   1.384   4.478 -0.4815  0.3813  0.1020
  735TIP3    H1 2211   4.959   1.295   4.468  0.2578  0.1310 -0.0831
  735TIP3    H2 2212   5.080   1.382   4.443 -0.6849  1.3444 -0.5060
  736TIP3   OH2 2213   2.358   2.546   3.543 -0.4651 -0.2120 -0.2797
  736TIP3    H1 2214   2.282   2.568   3.597  0.2844  3.2560 -0.3816
  736TIP3    H2 2215   2.323   2.491   3.473 -3.4428  2.7321 -1.4089
  737TIP3   OH2 2216   2.261   3.918   4.695  0.0502  0.1278 -0.7698
  737TIP3    H1 2217   2.236   3.996   4.645  0.2779 -0.0306 -1.1336
  737TIP3    H2 2218   2.312   3.865   4.634  1.5205  0.5686  0.0349
  738TIP3   OH2 2219   0.055   1.130   2.769 -0.4701 -0.6190 -0.0228
  738TIP3    H1 2220   0.143   1.161   2.791 -0.9739 -0.1456  1.4112
  738TIP3    H2 2221   0.051   1.137   2.673  0.3288  1.3636  0.0327
  739TIP3   OH2 2222   4.431   4.149   3.264 -0.1438 -0.4387  0.0588
  739TIP3    H1 2223   4.419   4.067   3.216 -2.0737  0.8503 -1.8605
  739TIP3    H2 2224   4.516   4.181   3.236 -0.2063 -0.8730 -0.6595
  740TIP3   OH2 2225   1.856   4.283   2.729  0.2454  0.1015 -0.9807
  740TIP3    H1 2226   1.820   4.302   2.815  1.7337 -1.4340  0.0398
  740TIP3    H2 2227   1.892   4.367   2.699  0.1457  0.5384  0.1134
  741TIP3   OH2 2228   5.801   4.186   4.020  0.3916  0.6408  0.3812
  741TIP3    H1 2229   5.754   4.122   4.073  0.0762 -0.7585 -1.4875
  741TIP3    H2 2230   5.893   4.173   4.044  0.6190 -2.1779 -1.4870
  742TIP3   OH2 2231   1.456   1.435   2.596  0.3997 -0.1222  1.0096
  742TIP3    H1 2232   1.462   1.346   2.561 -3.0839  0.7222 -2.5125
  742TIP3    H2 2233   1.385   1.431   2.660 -1.2601  0.3826 -0.7172
  743TIP3   OH2 2234   5.444   3.392   2.644 -0.0959  0.0467  0.0871
  743TIP3    H1 2235   5.511   3.455   2.668 -1.8994  1.7304  1.0100
  743TIP3    H2 2236   5.437   3.334   2.720  0.9421 -0.7617 -0.4060
  744TIP3   OH2 2237   3.312   4.308   0.013  0.2274 -0.2513 -0.0494
  744TIP3    H1 2238   3.270   4.249   0.076 -0.1583  2.5614  2.5800
  744TIP3    H2 2239   3.390   4.340   0.060  2.5026 -1.3317 -2.7960
  745TIP3   OH2 2240   5.209   1.743   1.761 -0.0003 -0.5523 -0.1417
  745TIP3    H1 2241   5.219   1.660   1.714  0.3193 -0.7630  0.2807
  745TIP3    H2 2242   5.204   1.810   1.693 -0.1355 -0.9079 -0.4833
  746TIP3   OH2 2243   3.285   1.218   3.419 -0.3204 -0.0087 -0.5582
  746TIP3    H1 2244   3.327   1.277   3.356  0.7987 -0.8691 -0.6558
  746TIP3    H2 2245   3.206   1.187   3.375  0.3446 -0.4414 -1.4812
  747TIP3   OH2 2246   1.665   0.924   3.524  0.3378  0.9617  0.3214
  747TIP3    H1 2247   1.597   0.959   3.467 -0.4719  1.5890  1.6199
  747TIP3    H2 2248   1.670   0.986   3.596  0.6724 -0.2762  1.4066
  748TIP3   OH2 2249   1.106   1.604   3.986  0.3334 -0.4850 -0.2416
  748TIP3    H1 2250   1.110   1.699   4.003 -1.6955 -0.2152 -1.0373
  748TIP3    H2 2251   1.155   1.592   3.905 -1.5322  0.3463 -1.5842
  749TIP3   OH2 2252   1.478   2.310   0.084 -0.6382  0.0534 -0.1978
  749TIP3    H1 2253   1.409   2.375   0.099 -1.3916 -0.1740 -2.4032
  749TIP3    H2 2254   1.558   2.361   0.077 -1.0436  0.6354 -0.6980
  750TIP3   OH2 2255   1.526   0.885   2.130  0.4141 -0.0463 -0.4519
  750TIP3    H1 2256   1.434   0.894   2.106  0.7062  0.0446 -1.6282
  750TIP3    H2 2257   1.528   0.900   2.224 -0.5540  1.7552 -0.6669
  751TIP3   OH2 2258   1.686   5.508   2.775  0.5443 -0.7403  0.1650
  751TIP3    H1 2259   1.726   5.586   2.814 -0.3343 -0.9860  1.6359
  751TIP3    H2 2260   1.760   5.459   2.739  1.5535 -0.8636  2.2211
  752TIP3   OH2 2261   0.919   3.687   4.222 -0.9506  0.3529 -0.0209
  752TIP3    H1 2262   0.987   3.705   4.287 -1.1019  0.8053  0.0145
  752TIP3    H2 2263   0.878   3.772   4.205  0.6172  0.7404 -2.4646
  753TIP3   OH2 2264   2.306   3.694   0.793  0.1365  0.5079 -0.2670
  753TIP3    H1 2265   2.272   3.658   0.711  0.8948 -0.8606 -0.0150
  753TIP3    H2 2266   2.366   3.763   0.766  0.2390  0.1892 -0.8671
  754TIP3   OH2 2267   6.267   1.831   2.533 -0.1720  0.4712 -0.0878
  754TIP3    H1 2268   6.213   1.755   2.556  0.5302 -0.3287 -0.9587
  754TIP3    H2 2269   6.275   1.880   2.614 -1.7122  0.3122  0.2054
  755TIP3   OH2 2270   3.573   5.653   1.875 -0.5511  0.4621 -0.1978
  755TIP3    H1 2271   3.663   5.671   1.903 -0.5985 -0.0636  0.3199
  755TIP3    H2 2272   3.578   5.567   1.833 -0.7654  0.5463 -0.3944
  756TIP3   OH2 2273   0.200   1.614   0.235 -0.2242  0.3519  0.1506
  756TIP3    H1 2274   0.116   1.638   0.195 -0.4912  0.0206  0.5103
  756TIP3    H2 2275   0.181   1.604   0.328  0.3933  1.1003  0.3736
  757TIP3   OH2 2276   4.922   3.247   2.540 -0.8203  0.2466  0.1565
  757TIP3    H1 2277   4.846   3.284   2.496 -2.2194 -2.1195  0.4374
  757TIP3    H2 2278   4.951   3.316   2.600  0.2378  3.0000 -3.1851
  758TIP3   OH2 2279   2.345   3.774   2.397  0.7741  0.4457  0.5754
  758TIP3    H1 2280   2.271   3.718   2.373  0.2297 -0.6757  4.1845
  758TIP3    H2 2281   2.357   3.832   2.322 -1.4990 -1.6000 -1.5644
  759TIP3   OH2 2282   2.748   4.329   4.662 -0.1399  0.2221  0.0817
  759TIP3    H1 2283   2.691   4.291   4.596  2.0232 -1.1642 -1.1169
  759TIP3    H2 2284   2.772   4.415   4.627 -1.3881  0.7964  0.5753
  760TIP3   OH2 2285   4.386   2.195   0.358 -0.1639  0.4518  0.2169
  760TIP3    H1 2286   4.303   2.240   0.339 -0.4729  0.2416  1.0304
  760TIP3    H2 2287   4.360   2.109   0.392  0.3660  0.5812  0.9856
  761TIP3   OH2 2288   4.543   4.139   2.938 -0.1181 -0.8393  0.1784
  761TIP3    H1 2289   4.484   4.076   2.981 -0.1423 -1.4575 -0.7468
  761TIP3    H2 2290   4.626   4.092   2.929  0.2034 -0.3419  0.4982
  762TIP3   OH2 2291   4.542   0.479   5.123  0.2600 -0.7307 -0.0070
  762TIP3    H1 2292   4.536   0.414   5.194  0.9804  0.5990  1.3094
  762TIP3    H2 2293   4.598   0.548   5.158 -0.4605  0.6020 -1.3915
  763TIP3   OH2 2294   5.634   4.973   4.953 -0.0094 -0.4352  0.6823
  763TIP3    H1 2295   5.711   5.010   4.995  0.7693 -0.2027 -0.8848
  763TIP3    H2 2296   5.594   5.046   4.905  0.3058 -1.0901 -0.6459
  764TIP3   OH2 2297   1.471   0.883   2.417 -0.0391 -0.1053 -0.0484
  764TIP3    H1 2298   1.557   0.925   2.414 -0.7507  1.3590 -2.1618
  764TIP3    H2 2299   1.453   0.871   2.511  0.7855  3.1868  0.6354
  765TIP3   OH2 2300   4.396   5.066   0.486  0.0492  0.4569 -0.4284
  765TIP3    H1 2301   4.328   5.108   0.539  0.3980  0.3479  0.1120
  765TIP3    H2 2302   4.437   5.004   0.545  1.5093  1.4533 -0.3619
  766TIP3   OH2 2303   1.553   5.830   4.085  0.5978  0.1795 -0.8312
  766TIP3    H1 2304   1.526   5.873   4.166  2.8616  0.1919  0.0005
  766TIP3    H2 2305   1.505   5.747   4.084  1.8625 -0.6928  1.5698
  767TIP3   OH2 2306   4.824   1.676   3.413 -0.0937  0.0698 -0.3946
  767TIP3    H1 2307   4.840   1.758   3.460 -0.7043  0.8226 -1.4508
  767TIP3    H2 2308   4.732   1.656   3.431  0.5848 -1.6164  1.6677
  768TIP3   OH2 2309   6.046   1.422   0.689  0.5718 -0.4657  0.0088
  768TIP3    H1 2310   6.051   1.388   0.778 -2.1164  1.9032  1.2332
  768TIP3    H2 2311   5.971   1.377   0.650 -0.7994  1.3202  0.4382
  769TIP3   OH2 2312   3.643   3.533   0.532 -0.0189  0.1644 -0.3235
  769TIP3    H1 2313   3.702   3.521   0.458 -0.2418 -0.5166 -0.3980
  769TIP3    H2 2314   3.697   3.518   0.610  0.2211  0.9045 -0.3371
  770TIP3   OH2 2315   3.961   1.536   3.693 -0.3585  0.5156 -0.1383
  770TIP3    H1 2316   4.056   1.547   3.695 -0.4406  1.3183  1.6679
  770TIP3    H2 2317   3.948   1.449   3.655  0.9668  1.1692 -2.2709
  771TIP3   OH2 2318   6.100   4.600   3.665 -0.3430 -1.0079  0.4089
  771TIP3    H1 2319   6.174   4.573   3.612 -0.5312 -0.4397 -0.1449
  771TIP3    H2 2320   6.100   4.539   3.739  0.5413 -1.1397  0.3026
  772TIP3   OH2 2321   3.454   5.539   3.301 -0.1303 -0.0211 -0.3275
  772TIP3    H1 2322   3.420   5.591   3.373 -1.2612 -0.3526 -0.5971
  772TIP3    H2 2323   3.521   5.594   3.261 -0.0220  0.4662  0.5043
  773TIP3   OH2 2324   5.077   2.118   2.198 -0.1083 -0.1426 -0.3707
  773TIP3    H1 2325   5.154   2.068   2.225 -0.8538 -1.1990 -0.1637
  773TIP3    H2 2326   5.029   2.060   2.139 -1.1630  0.1781  0.1446
  774TIP3   OH2 2327   0.221   3.038   3.527  0.1595 -0.2903 -0.1960
  774TIP3    H1 2328   0.162   3.050   3.453 -0.9982  1.7229  0.9870
  774TIP3    H2 2329   0.190   2.958   3.570 -0.6928 -0.1311 -0.5022
  775TIP3   OH2 2330   0.198   0.356   1.340 -0.5053 -0.3162 -0.3868
  775TIP3    H1 2331   0.237   0.337   1.425  1.2647  1.1166 -0.8196
  775TIP3    H2 2332   0.232   0.288   1.282  0.8338  0.5031 -0.5987
  776TIP3   OH2 2333   4.391   3.230   4.719  0.3049 -0.1630 -0.1860
  776TIP3    H1 2334   4.460   3.179   4.676  0.5245  0.7069 -0.9022
  776TIP3    H2 2335   4.314   3.219   4.664 -0.5109 -2.0380  1.1969
  777TIP3   OH2 2336   5.536   3.214   4.800 -0.1406  0.1593  0.0166
  777TIP3    H1 2337   5.530   3.271   4.877  1.7994  0.3906  0.0451
  777TIP3    H2 2338   5.578   3.268   4.733 -2.4518  0.2028 -1.4982
  778TIP3   OH2 2339   4.710   1.675   2.073  0.5981  0.1463 -0.1539
  778TIP3    H1 2340   4.633   1.684   2.129  0.4114  1.7948 -0.6305
  778TIP3    H2 2341   4.784   1.687   2.132  0.4013  1.9113 -0.2193
  779TIP3   OH2 2342   1.023   0.096   4.286  0.2552  0.0496 -0.1153
  779TIP3    H1 2343   0.979   0.115   4.204 -0.0897 -2.1717 -0.5182
  779TIP3    H2 2344   1.105   0.054   4.260  0.3682 -0.2439  0.6690
  780TIP3   OH2 2345   4.998   3.328   2.279 -0.6693 -0.1713  0.7169
  780TIP3    H1 2346   5.066   3.395   2.272  0.0675 -1.0342 -1.0550
  780TIP3    H2 2347   5.006   3.295   2.368  0.5639  0.4670  0.8670
  781TIP3   OH2 2348   1.511   2.418   0.935 -0.1316 -0.0491 -0.0159
  781TIP3    H1 2349   1.508   2.453   0.846 -2.3526 -0.0349 -0.0026
  781TIP3    H2 2350   1.604   2.406   0.953  0.4486  1.3139 -1.7848
  782TIP3   OH2 2351   5.013   4.640   1.444 -0.4706  0.0683 -0.0052
  782TIP3    H1 2352   5.025   4.675   1.532 -1.8407  0.3615  0.0894
  782TIP3    H2 2353   4.956   4.564   1.457  0.0870 -0.4576 -0.5470
  783TIP3   OH2 2354   6.102   0.287   4.330 -0.0161  0.2532 -0.1413
  783TIP3    H1 2355   6.160   0.269   4.404  0.0853 -1.0051 -0.4923
  783TIP3    H2 2356   6.160   0.284   4.253 -0.5887 -1.6793 -0.5660
  784TIP3   OH2 2357   4.867   5.661   0.546 -0.1267 -0.2227 -0.6221
  784TIP3    H1 2358   4.948   5.694   0.584  0.3393 -2.2422  0.2463
  784TIP3    H2 2359   4.833   5.734   0.494 -0.2927  2.3567  2.8047
  785TIP3   OH2 2360   4.131   2.318   0.349  0.4383  0.0902  0.5201
  785TIP3    H1 2361   4.089   2.357   0.272 -2.0128 -2.7995  0.1946
  785TIP3    H2 2362   4.096   2.367   0.423 -0.6055  0.1533  0.0023
  786TIP3   OH2 2363   5.672   4.933   4.262 -0.2432  0.0285 -0.1625
  786TIP3    H1 2364   5.748   4.964   4.212  0.1912  0.8574  0.9763
  786TIP3    H2 2365   5.706   4.863   4.317 -0.0457  1.0404  1.0585
  787TIP3   OH2 2366   0.250   2.614   1.269 -0.5095  0.0673 -0.3379
  787TIP3    H1 2367   0.328   2.567   1.298  0.2481  2.3254  1.6425
  787TIP3    H2 2368   0.226   2.572   1.186  1.4941 -2.1102  0.0696
  788TIP3   OH2 2369   1.043   2.125   4.396  0.3313 -1.1213  0.2086
  788TIP3    H1 2370   1.033   2.080   4.480  0.5714 -2.3932 -0.4209
  788TIP3    H2 2371   0.959   2.115   4.352  0.2341 -0.5338  0.2473
  789TIP3   OH2 2372   1.492   0.346   3.684  0.1597  0.1688  0.0365
  789TIP3    H1 2373   1.531   0.301   3.759 -0.0509 -1.5797 -0.8623
  789TIP3    H2 2374   1.561   0.346   3.618 -0.0425  0.6635 -0.1775
  790TIP3   OH2 2375   3.854   2.969   3.089  0.3313  0.2096  0.1754
  790TIP3    H1 2376   3.946   2.989   3.070  0.4058  1.1832  1.4372
  790TIP3    H2 2377   3.806   3.004   3.014  0.9174  0.5261 -0.0598
  791TIP3   OH2 2378   1.777   5.633   1.069  0.3609  0.5127  0.9368
  791TIP3    H1 2379   1.727   5.618   0.989  3.2499  1.2717 -1.1830
  791TIP3    H2 2380   1.745   5.717   1.102  1.5569  2.0846 -1.5961
  792TIP3   OH2 2381   5.225   1.870   2.813 -0.2610 -0.0183  0.4934
  792TIP3    H1 2382   5.131   1.855   2.802  0.0966 -2.0377 -0.2684
  792TIP3    H2 2383   5.266   1.797   2.767  1.7507  1.9810 -1.0587
  793TIP3   OH2 2384   4.861   0.487   1.203  0.0348  0.5226 -0.2987
  793TIP3    H1 2385   4.945   0.453   1.232  0.3144  3.0904  2.3116
  793TIP3    H2 2386   4.797   0.422   1.232  0.6126  1.5243  3.7472
  794TIP3   OH2 2387   0.185   3.202   0.289  0.3626  0.0798  0.3811
  794TIP3    H1 2388   0.190   3.282   0.341  1.3556  0.5895 -0.4708
  794TIP3    H2 2389   0.268   3.199   0.241  0.3927 -1.5191  0.4787
  795TIP3   OH2 2390   3.206   3.867   1.617  0.5150 -0.3782  0.3073
  795TIP3    H1 2391   3.120   3.836   1.587  0.4240  0.4413 -0.3218
  795TIP3    H2 2392   3.186   3.941   1.673  0.8267  0.1909 -0.3207
  796TIP3   OH2 2393   3.799   5.462   3.377 -0.2915 -0.2704  0.3721
  796TIP3    H1 2394   3.774   5.490   3.465 -0.6260  0.0496  0.1772
  796TIP3    H2 2395   3.783   5.538   3.321  3.0299  0.6681  0.5203
  797TIP3   OH2 2396   1.687   1.793   4.322 -0.4114 -0.0680  0.1593
  797TIP3    H1 2397   1.702   1.777   4.415 -2.8178 -0.1474  0.6185
  797TIP3    H2 2398   1.742   1.729   4.277  0.0061 -0.7313  1.5625
  798TIP3   OH2 2399   1.138   0.896   2.777  0.0406 -0.2179 -0.4645
  798TIP3    H1 2400   1.187   0.879   2.857 -0.5467  0.5814  0.0831
  798TIP3    H2 2401   1.159   0.822   2.720 -0.5081 -1.4941  0.8904
  799TIP3   OH2 2402   3.031   2.374   2.552  0.3258  0.3204  0.2320
  799TIP3    H1 2403   3.111   2.411   2.517  1.1162 -0.8463  0.7220
  799TIP3    H2 2404   3.057   2.338   2.637 -0.4249 -1.0971 -0.1078
  800TIP3   OH2 2405   5.676   3.690   4.675  0.0949  0.1569  0.0200
  800TIP3    H1 2406   5.661   3.596   4.662  1.7217  0.0240 -1.1316
  800TIP3    H2 2407   5.770   3.698   4.687 -0.2538  1.4320  2.4266
  801TIP3   OH2 2408   0.049   5.863   1.311 -0.0978 -0.6170 -0.1123
  801TIP3    H1 2409  -0.009   5.808   1.362 -0.9866 -0.4828 -0.9620
  801TIP3    H2 2410   0.053   5.945   1.360  2.0920 -1.7118  1.7444
  802TIP3   OH2 2411   2.872   3.173   4.835  0.2448  0.2948 -0.7335
  802TIP3    H1 2412   2.906   3.151   4.922 -0.5799  1.9638  0.0589
  802TIP3    H2 2413   2.906   3.261   4.817  0.3959 -0.0218 -2.1049
  803TIP3   OH2 2414   3.986   1.754   1.419  0.0634 -0.0783 -0.4150
  803TIP3    H1 2415   4.019   1.815   1.484  0.5999 -1.5474  0.7313
  803TIP3    H2 2416   4.021   1.786   1.336 -0.1648  1.4884  0.0710
  804TIP3   OH2 2417   5.809   2.322   1.599 -0.2384 -0.1597 -0.1784
  804TIP3    H1 2418   5.805   2.356   1.510 -1.1235  0.4348  0.0783
  804TIP3    H2 2419   5.729   2.354   1.641 -0.8632 -2.1618  0.2288
  805TIP3   OH2 2420   5.058   5.304   5.034  0.0814 -0.2321  0.6625
  805TIP3    H1 2421   5.123   5.370   5.059  0.6700 -0.3658 -0.4424
  805TIP3    H2 2422   5.100   5.255   4.963 -0.7942 -1.0596  0.7000
  806TIP3   OH2 2423   2.443   3.881   4.901 -0.2267  0.1340  0.2120
  806TIP3    H1 2424   2.394   3.891   4.819 -0.1831  0.5903  0.2392
  806TIP3    H2 2425   2.462   3.788   4.906  1.1845  0.3156 -1.1254
  807TIP3   OH2 2426   5.919   1.070   2.402  0.2636  0.0889 -0.4145
  807TIP3    H1 2427   5.913   0.974   2.410  0.7863  0.0911  0.0699
  807TIP3    H2 2428   5.852   1.093   2.337 -0.0377 -0.5802 -0.3497
  808TIP3   OH2 2429   4.038   4.082   4.067  0.0169 -0.4544 -0.9978
  808TIP3    H1 2430   3.959   4.044   4.029 -0.1892  0.4487 -1.4909
  808TIP3    H2 2431   4.070   4.143   4.001  0.7963 -0.3666 -0.5516
  809TIP3   OH2 2432   1.100   5.673   3.591 -0.0654 -0.2492 -0.3964
  809TIP3    H1 2433   1.025   5.667   3.650 -0.2030  0.2829 -0.5141
  809TIP3    H2 2434   1.071   5.630   3.511 -0.5935  0.7907 -0.7836
  810TIP3   OH2 2435   1.510   0.037   4.971  0.3855 -0.1787 -0.5083
  810TIP3    H1 2436   1.551  -0.043   4.938  0.1204 -0.1635 -0.8832
  810TIP3    H2 2437   1.561   0.060   5.048  1.8899  0.5151 -1.6552
  811TIP3   OH2 2438   2.626   3.961   3.361  0.7424 -0.7265 -0.3896
  811TIP3    H1 2439   2.699   3.899   3.368 -0.1480 -1.6501  1.2030
  811TIP3    H2 2440   2.568   3.938   3.433  0.6156  2.3175  0.5947
  812TIP3   OH2 2441   3.066   1.251   4.099 -0.2043  0.0309 -0.7335
  812TIP3    H1 2442   3.066   1.180   4.164  1.2036  0.7811  0.1407
  812TIP3    H2 2443   2.986   1.238   4.049  0.0870 -2.2574 -0.6922
  813TIP3   OH2 2444   4.693   4.997   4.935 -0.3592  0.0363  0.9952
  813TIP3    H1 2445   4.651   4.915   4.960  1.6299 -1.6990 -0.9031
  813TIP3    H2 2446   4.782   4.990   4.970  0.9751 -0.3561 -2.1479
  814TIP3   OH2 2447   3.164   4.250   3.179 -0.1206 -0.1716  0.1881
  814TIP3    H1 2448   3.111   4.173   3.199 -0.5450  0.3703  1.1914
  814TIP3    H2 2449   3.104   4.309   3.132 -0.2090  0.1343  0.6766
  815TIP3   OH2 2450   4.004   1.089   0.421  0.7999 -0.3585 -0.6927
  815TIP3    H1 2451   3.980   1.118   0.509  2.4204 -1.9422  0.3350
  815TIP3    H2 2452   4.045   1.166   0.382  1.8136 -0.1626  0.6736
  816TIP3   OH2 2453   1.006   3.067   2.257 -0.1495  0.0962 -0.4922
  816TIP3    H1 2454   1.055   3.146   2.237 -1.1922  0.2358 -2.7398
  816TIP3    H2 2455   0.941   3.095   2.322  0.8855  0.5363  0.3883
  817TIP3   OH2 2456   5.391   4.272   0.148 -0.3968  0.0444  0.0762
  817TIP3    H1 2457   5.456   4.287   0.217 -0.0752 -1.8427  0.2305
  817TIP3    H2 2458   5.425   4.319   0.072  0.1506  0.6656  0.6941
  818TIP3   OH2 2459   4.424   2.983   0.972 -0.2007  0.0501  0.0071
  818TIP3    H1 2460   4.512   2.953   0.950 -0.2224  0.1016 -0.1467
  818TIP3    H2 2461   4.437   3.036   1.051 -0.1447 -0.2564  0.2068
  819TIP3   OH2 2462   2.844   1.909   4.458 -0.0969 -0.0692  0.0527
  819TIP3    H1 2463   2.783   1.911   4.384 -1.9701 -0.4193  1.5145
  819TIP3    H2 2464   2.878   1.999   4.463 -0.2330  0.0552 -0.9767
  820TIP3   OH2 2465   2.730   3.338   5.217 -0.2959 -0.7881  0.4139
  820TIP3    H1 2466   2.696   3.383   5.139 -1.8388 -0.9689  0.9420
  820TIP3    H2 2467   2.825   3.345   5.209 -0.4463  0.3936 -0.7842
  821TIP3   OH2 2468   0.676   5.430   3.229 -0.4682 -0.3313 -0.1983
  821TIP3    H1 2469   0.592   5.476   3.223 -0.0548  0.4049 -0.4388
  821TIP3    H2 2470   0.736   5.482   3.176  0.1395 -0.8615 -0.0451
  822TIP3   OH2 2471   4.129   4.165   1.811 -0.3024 -0.3072 -0.3836
  822TIP3    H1 2472   4.125   4.108   1.888 -0.3564  1.1820  0.7485
  822TIP3    H2 2473   4.040   4.161   1.775 -0.4787 -0.4262  0.0560
  823TIP3   OH2 2474   0.056   4.461   2.505 -0.9035  0.2024  0.2328
  823TIP3    H1 2475   0.048   4.462   2.600 -0.0945  0.7453  0.3071
  823TIP3    H2 2476   0.093   4.375   2.485  1.0887  0.9109  0.6342
  824TIP3   OH2 2477   0.862   2.602   4.200 -0.5442  0.3496  0.5062
  824TIP3    H1 2478   0.918   2.659   4.253  1.7577  0.2320 -1.6402
  824TIP3    H2 2479   0.879   2.628   4.110 -0.7628 -2.5021 -0.4684
  825TIP3   OH2 2480   5.378   2.025   4.169  0.5059  0.0396 -0.1068
  825TIP3    H1 2481   5.338   2.076   4.099 -0.4464 -0.6829 -0.1059
  825TIP3    H2 2482   5.306   1.977   4.209  1.4596 -1.9900 -0.6868
  826TIP3   OH2 2483   5.462   2.897   2.391 -0.1545  0.6464 -0.0716
  826TIP3    H1 2484   5.385   2.840   2.397 -1.2111  2.0763  0.6842
  826TIP3    H2 2485   5.517   2.870   2.465  0.8690 -1.4254 -1.5081
  827TIP3   OH2 2486   3.683   3.676   4.826 -0.2632 -0.3260  0.4586
  827TIP3    H1 2487   3.778   3.668   4.818 -0.3309 -0.2753 -0.5301
  827TIP3    H2 2488   3.668   3.702   4.917  0.6957  0.1445  0.4866
  828TIP3   OH2 2489   1.286   0.118   4.187  0.2486  0.0230 -0.1678
  828TIP3    H1 2490   1.301   0.046   4.126 -1.2875 -2.3073  2.0061
  828TIP3    H2 2491   1.362   0.175   4.177  1.3838 -1.7201 -2.1994
  829TIP3   OH2 2492   5.190   3.251   1.877 -0.4628  0.0111  0.4640
  829TIP3    H1 2493   5.258   3.230   1.941 -0.2339  2.9012  1.3225
  829TIP3    H2 2494   5.177   3.170   1.828  1.8435 -1.3202  1.8729
  830TIP3   OH2 2495   3.444   3.890   4.016  0.5201  0.2053 -0.0621
  830TIP3    H1 2496   3.528   3.855   4.046  0.5991 -0.1928 -0.7194
  830TIP3    H2 2497   3.450   3.887   3.921 -0.5318 -0.5285 -0.1160
  831TIP3   OH2 2498   2.462   3.622   0.458 -0.6710  0.2979 -0.0687
  831TIP3    H1 2499   2.510   3.544   0.485 -1.2074  0.2469  0.7566
  831TIP3    H2 2500   2.473   3.683   0.530  1.0604  1.6059 -1.3614
  832TIP3   OH2 2501   2.430   5.915   2.430  0.0227  0.1003 -0.0786
  832TIP3    H1 2502   2.501   5.950   2.376  1.5211 -1.9463  0.4385
  832TIP3    H2 2503   2.360   5.896   2.368  1.6212 -1.9768 -1.3519
  833TIP3   OH2 2504   5.506   2.074   1.645 -0.1804 -0.0360  0.3910
  833TIP3    H1 2505   5.520   2.110   1.557  0.3178  0.2696  0.5846
  833TIP3    H2 2506   5.509   1.979   1.634 -0.1244  0.0027  0.0761
  834TIP3   OH2 2507   1.969   0.380   0.858  0.0919 -0.2560 -0.0841
  834TIP3    H1 2508   1.896   0.342   0.906  0.2564 -0.3000  0.1314
  834TIP3    H2 2509   2.025   0.305   0.836  0.1831 -0.1961 -0.0573
  835TIP3   OH2 2510   4.422   2.499   0.152  0.1347 -0.2726  0.3577
  835TIP3    H1 2511   4.390   2.535   0.070  2.4916  1.4897  0.1193
  835TIP3    H2 2512   4.473   2.422   0.125  0.1884 -0.2045  0.2641
  836TIP3   OH2 2513   5.429   3.714   3.839 -0.5482  0.3746  0.4167
  836TIP3    H1 2514   5.450   3.698   3.930  2.1556 -1.6782 -0.4472
  836TIP3    H2 2515   5.508   3.752   3.802 -1.3809  0.6148 -1.2186
  837TIP3   OH2 2516   5.792   0.675   0.282  0.1446  0.2719 -0.4455
  837TIP3    H1 2517   5.858   0.737   0.250  0.6777 -0.2534 -0.3942
  837TIP3    H2 2518   5.799   0.679   0.377 -1.1276  1.4980 -0.3673
  838TIP3   OH2 2519   1.681   4.097   2.561  0.1538  0.5340  0.1788
  838TIP3    H1 2520   1.754   4.080   2.621  1.9931  2.4944 -1.3485
  838TIP3    H2 2521   1.671   4.192   2.563 -1.5142  0.3962 -0.6537
  839TIP3   OH2 2522   2.450   0.760   1.982 -0.2714  0.2608 -0.0375
  839TIP3    H1 2523   2.414   0.834   1.933  0.6448 -0.3570 -1.6958
  839TIP3    H2 2524   2.373   0.708   2.006 -0.9049  1.5984  0.9784
  840TIP3   OH2 2525   5.845   3.823   4.105 -0.1404  0.8022 -0.1591
  840TIP3    H1 2526   5.774   3.857   4.158  0.7200  0.8392  1.0038
  840TIP3    H2 2527   5.912   3.797   4.168 -0.1035 -1.5631 -1.0701
  841TIP3   OH2 2528   2.122   0.721   2.500  0.5343 -0.6818  0.4893
  841TIP3    H1 2529   2.093   0.804   2.461  1.0004 -0.0166  1.5166
  841TIP3    H2 2530   2.210   0.741   2.534  2.2987 -2.5941 -2.5038
  842TIP3   OH2 2531   0.764   5.351   2.855  0.0830  0.2240  0.5002
  842TIP3    H1 2532   0.796   5.267   2.888  0.9602  1.1451  2.0859
  842TIP3    H2 2533   0.841   5.407   2.852 -0.4925  0.9914 -0.5504
  843TIP3   OH2 2534   2.251   2.335   3.816  0.2715  0.0270 -0.3116
  843TIP3    H1 2535   2.334   2.293   3.840  0.0475 -1.0838 -1.3644
  843TIP3    H2 2536   2.184   2.272   3.842 -0.2283  0.7675  0.2081
  844TIP3   OH2 2537   4.912   4.682   3.783 -0.4373 -0.0930  0.4225
  844TIP3    H1 2538   4.888   4.705   3.872 -0.3440  0.9484  0.1898
  844TIP3    H2 2539   5.005   4.705   3.776  0.3433 -2.6978  0.8603
  845TIP3   OH2 2540   6.143   0.221   3.879 -0.3014 -0.4485  0.1067
  845TIP3    H1 2541   6.123   0.164   3.953  0.9687 -1.5678 -0.3763
  845TIP3    H2 2542   6.194   0.166   3.820  1.2624  1.2856 -0.2375
  846TIP3   OH2 2543   0.629   4.531   0.644  0.6096 -0.1524 -0.3606
  846TIP3    H1 2544   0.576   4.468   0.694  1.8131 -0.4520  0.5736
  846TIP3    H2 2545   0.565   4.594   0.612 -0.2407  0.0642  1.5698
  847TIP3   OH2 2546   0.809   4.938   1.015 -0.1826 -0.4676  0.1347
  847TIP3    H1 2547   0.857   4.952   1.096 -1.4090 -0.2144  0.8514
  847TIP3    H2 2548   0.717   4.953   1.039 -0.5820 -0.5197 -1.2683
  848TIP3   OH2 2549   3.287   3.453   5.134 -0.2177 -0.6699 -0.1032
  848TIP3    H1 2550   3.214   3.392   5.146 -0.0946 -0.6680  0.7098
  848TIP3    H2 2551   3.301   3.455   5.039 -0.0671 -2.0927 -0.1360
  849TIP3   OH2 2552   0.339   4.686   3.644  0.0596  0.0511 -0.1518
  849TIP3    H1 2553   0.314   4.700   3.736  0.0134 -2.4522  0.2933
  849TIP3    H2 2554   0.327   4.771   3.602  0.5286  1.3886  2.2502
  850TIP3   OH2 2555   4.716   4.457   1.024  0.5968 -0.4910 -0.6648
  850TIP3    H1 2556   4.680   4.415   1.102 -1.2880  0.9377 -0.6932
  850TIP3    H2 2557   4.780   4.520   1.059  2.3546 -2.2204 -0.5484
  851TIP3   OH2 2558   5.791   0.370   2.304 -0.3119  0.6352 -0.3720
  851TIP3    H1 2559   5.851   0.323   2.245 -1.4622 -0.8602 -0.4010
  851TIP3    H2 2560   5.806   0.331   2.390 -1.1375  0.3351 -0.3568
  852TIP3   OH2 2561   4.589   2.394   4.751  0.1072 -0.0444  0.4358
  852TIP3    H1 2562   4.649   2.450   4.701 -1.0188  1.1027  0.3153
  852TIP3    H2 2563   4.646   2.340   4.805  1.2467  1.5315  0.8874
  853TIP3   OH2 2564   1.396   5.436   0.396  0.2903  0.0382  0.0339
  853TIP3    H1 2565   1.426   5.524   0.417 -1.1259  0.9273 -1.4227
  853TIP3    H2 2566   1.431   5.419   0.309 -2.2023  0.6023 -1.1661
  854TIP3   OH2 2567   3.474   0.488   2.786  0.6513  0.1979  0.1747
  854TIP3    H1 2568   3.489   0.466   2.694 -0.1333  2.3368 -0.5171
  854TIP3    H2 2569   3.498   0.580   2.793  0.8499  0.0330  2.1681
  855TIP3   OH2 2570   4.391   2.465   4.307  0.0540  0.2760  0.0143
  855TIP3    H1 2571   4.371   2.472   4.400  1.8992 -1.2846  0.6161
  855TIP3    H2 2572   4.419   2.553   4.282 -0.4650  0.7188  0.9228
  856TIP3   OH2 2573   5.642   1.880   4.311  0.2937 -0.3073  0.2735
  856TIP3    H1 2574   5.604   1.966   4.293 -0.0819 -0.4435  0.3949
  856TIP3    H2 2575   5.679   1.888   4.399 -1.2501 -0.7522  1.0191
  857TIP3   OH2 2576   1.965   5.362   0.080 -0.1004 -0.5617  0.1050
  857TIP3    H1 2577   2.019   5.283   0.078 -0.6951 -0.9624 -0.2401
  857TIP3    H2 2578   1.989   5.411   0.001 -1.5484 -1.6360 -1.0644
  858TIP3   OH2 2579   5.468   1.484   3.634 -0.2332 -0.0278 -0.0512
  858TIP3    H1 2580   5.408   1.472   3.707 -2.8722 -0.5526 -2.1651
  858TIP3    H2 2581   5.482   1.579   3.630 -1.0683  0.1224  0.3855
  859TIP3   OH2 2582   2.452   4.697   3.727  0.2768 -0.1938 -0.1591
  859TIP3    H1 2583   2.487   4.786   3.722 -2.0757  0.9056  1.2123
  859TIP3    H2 2584   2.509   4.646   3.670  2.2323  2.0034 -0.3298
  860TIP3   OH2 2585   2.275   4.828   1.129  0.0813  0.0621 -0.0880
  860TIP3    H1 2586   2.213   4.766   1.166  0.5928 -0.7061 -0.4761
  860TIP3    H2 2587   2.298   4.887   1.201 -0.7017  0.0346  0.1832
  861TIP3   OH2 2588   1.634   2.450   2.819 -0.9290  0.6228  0.3212
  861TIP3    H1 2589   1.644   2.385   2.889 -1.1818  1.7592  1.4334
  861TIP3    H2 2590   1.719   2.451   2.775 -0.6054  0.2668  0.9320
  862TIP3   OH2 2591   3.989   0.722   3.972 -0.4589  0.0161 -0.0313
  862TIP3    H1 2592   4.058   0.656   3.964 -0.8518 -0.5884  1.2080
  862TIP3    H2 2593   3.993   0.771   3.890  0.1760 -1.2217 -0.7750
  863TIP3   OH2 2594   3.777   3.109   1.741 -0.0715 -0.0755 -0.0777
  863TIP3    H1 2595   3.697   3.101   1.690 -0.6956 -0.9056  0.9922
  863TIP3    H2 2596   3.819   3.023   1.735 -0.6280 -0.5044  1.5151
  864TIP3   OH2 2597   2.421   4.453   1.919  0.1442  0.2934 -0.7416
  864TIP3    H1 2598   2.433   4.491   1.831  1.9713  0.4502 -0.4766
  864TIP3    H2 2599   2.372   4.373   1.904  0.6345  0.1935 -1.9683
  865TIP3   OH2 2600   0.166   4.656   4.838  0.1284 -0.6186 -0.0755
  865TIP3    H1 2601   0.125   4.737   4.807  0.9645  0.1587  0.7987
  865TIP3    H2 2602   0.198   4.614   4.758  0.2812  0.2498 -0.4803
  866TIP3   OH2 2603   4.799   2.984   2.413  0.1472 -0.2265 -0.4795
  866TIP3    H1 2604   4.725   2.989   2.353 -1.1989 -2.2579  0.8639
  866TIP3    H2 2605   4.781   3.053   2.478 -0.0726 -0.1130 -0.6575
  867TIP3   OH2 2606   6.315   1.397   1.014 -0.0592  0.0452  0.0452
  867TIP3    H1 2607   6.348   1.452   1.085  0.3204 -2.3793  1.8780
  867TIP3    H2 2608   6.375   1.322   1.012 -1.4372 -1.0782 -1.2772
  868TIP3   OH2 2609   5.268   5.801   4.126  0.0961  0.3859  0.3250
  868TIP3    H1 2610   5.332   5.770   4.061  1.4351  1.3690  1.1355
  868TIP3    H2 2611   5.316   5.802   4.209 -1.0103  1.0704  0.9853
  869TIP3   OH2 2612   1.401   5.658   3.394 -0.3547 -0.5830  0.1143
  869TIP3    H1 2613   1.414   5.744   3.353 -0.8958  0.0729  1.2676
  869TIP3    H2 2614   1.400   5.676   3.488 -0.1421 -1.9114  0.3900
  870TIP3   OH2 2615   1.994   4.511   3.488 -0.4173 -0.1433  0.0079
  870TIP3    H1 2616   2.040   4.566   3.551 -0.8187  0.3535 -0.1286
  870TIP3    H2 2617   2.060   4.490   3.421 -0.6603  1.4980 -0.7911
  871TIP3   OH2 2618   2.016   1.047   2.735 -0.2157 -0.1880 -0.2135
  871TIP3    H1 2619   2.099   1.018   2.696  0.2489 -0.9463  1.2419
  871TIP3    H2 2620   1.964   0.967   2.742 -0.9062  0.2053 -0.6778
  872TIP3   OH2 2621   6.196   2.909   4.001 -1.1887  0.2165 -0.2645
  872TIP3    H1 2622   6.157   2.983   4.048 -1.0941  0.0014  0.1625
  872TIP3    H2 2623   6.209   2.842   4.068  0.4610  0.4927 -0.2582
  873TIP3   OH2 2624   6.318   3.653   3.255 -0.2206 -0.2766 -0.0616
  873TIP3    H1 2625   6.280   3.653   3.167 -1.3890 -0.9441  0.4272
  873TIP3    H2 2626   6.263   3.714   3.305  0.8971  0.6900  0.0447
  874TIP3   OH2 2627   3.660   1.303   3.285 -0.1919  0.0320  0.6265
  874TIP3    H1 2628   3.719   1.378   3.280  0.0298 -0.2131 -0.9255
  874TIP3    H2 2629   3.572   1.342   3.284 -0.0768  0.3318  1.5053
  875TIP3   OH2 2630   6.116   5.013   3.583 -0.4050 -0.3355  0.2041
  875TIP3    H1 2631   6.194   4.959   3.597 -0.8943 -1.2213 -0.3655
  875TIP3    H2 2632   6.140   5.071   3.510  0.3266  0.6561  1.1986
  876TIP3   OH2 2633   5.595   4.521   2.499  0.3841  0.0262  0.0330
  876TIP3    H1 2634   5.577   4.437   2.539 -0.3162  0.0673 -0.1766
  876TIP3    H2 2635   5.564   4.512   2.408  3.0889 -0.4903 -0.9202
  877TIP3   OH2 2636   4.347   1.698   3.239  0.4834  0.0963 -0.4971
  877TIP3    H1 2637   4.387   1.639   3.176 -0.4647  0.0752 -1.1029
  877TIP3    H2 2638   4.272   1.735   3.193  0.2554  0.7119  0.3433
  878TIP3   OH2 2639   1.831   1.690   4.986 -0.1937 -0.2693  0.6361
  878TIP3    H1 2640   1.782   1.636   5.048  1.4024 -3.2429 -0.5014
  878TIP3    H2 2641   1.913   1.642   4.971  1.1719  2.3004 -0.8316
  879TIP3   OH2 2642   0.942   0.806   3.958 -0.1155 -0.1861 -0.6201
  879TIP3    H1 2643   0.967   0.743   4.026 -0.1368 -0.4325 -0.8404
  879TIP3    H2 2644   0.990   0.779   3.880 -0.3687 -0.1187 -0.8010
  880TIP3   OH2 2645   4.246   2.542   4.897 -0.0984  0.2337  0.0367
  880TIP3    H1 2646   4.326   2.591   4.913 -0.2429  0.1110  1.2096
  880TIP3    H2 2647   4.202   2.590   4.827  0.0340  1.4602  0.7614
  881TIP3   OH2 2648   5.210   5.493   3.242 -0.6208 -0.1191  0.2534
  881TIP3    H1 2649   5.135   5.444   3.208 -1.3368  0.9751  0.1669
  881TIP3    H2 2650   5.176   5.582   3.253  0.1858  0.0331  1.8411
  882TIP3   OH2 2651   2.381   0.979   2.287  0.2288 -0.2346 -0.5219
  882TIP3    H1 2652   2.454   0.917   2.292  1.1393  0.8456  0.0191
  882TIP3    H2 2653   2.420   1.064   2.309 -1.0409  0.4938 -0.9806
  883TIP3   OH2 2654   4.107   5.220   4.461  0.3100  0.0132  0.0310
  883TIP3    H1 2655   4.128   5.302   4.507  1.0557 -0.1447 -0.0283
  883TIP3    H2 2656   4.066   5.165   4.528 -0.6301  0.6039 -0.0438
  884TIP3   OH2 2657   3.999   4.224   3.419  0.3189  0.2979  0.0321
  884TIP3    H1 2658   4.083   4.180   3.410 -0.3171 -1.1033  0.5677
  884TIP3    H2 2659   4.021   4.316   3.433  1.7449 -0.0121 -0.0337
  885TIP3   OH2 2660   2.233   2.394   1.515  0.6622  0.6583 -0.4616
  885TIP3    H1 2661   2.139   2.394   1.532  0.5670 -1.0042 -0.8621
  885TIP3    H2 2662   2.241   2.391   1.420  1.1357  1.4702 -0.4567
  886TIP3   OH2 2663   0.807   3.717   0.559 -0.0651  0.1114 -0.2738
  886TIP3    H1 2664   0.833   3.679   0.643  0.2711  2.0459  0.5443
  886TIP3    H2 2665   0.711   3.716   0.561 -0.1591 -3.0589 -1.4386
  887TIP3   OH2 2666   5.256   4.471   4.642 -0.3030  0.5888  0.1483
  887TIP3    H1 2667   5.344   4.453   4.675 -0.1652 -2.2602 -1.4951
  887TIP3    H2 2668   5.198   4.453   4.716  0.2453 -2.1095  0.0054
  888TIP3   OH2 2669   2.143   5.586   2.451 -0.0912 -0.3423  0.2594
  888TIP3    H1 2670   2.189   5.527   2.391 -1.2480 -0.3076 -0.7146
  888TIP3    H2 2671   2.071   5.621   2.399  1.6829  3.5939  0.1082
  889TIP3   OH2 2672   3.058   1.659   1.691 -0.0552  0.1094 -0.1027
  889TIP3    H1 2673   2.966   1.684   1.698 -0.4522 -1.5865  1.2350
  889TIP3    H2 2674   3.085   1.640   1.780  1.6113  0.5459 -0.4818
  890TIP3   OH2 2675   4.101   1.815   0.523  0.5999  0.3045 -0.1438
  890TIP3    H1 2676   4.085   1.751   0.454  1.7744  1.2718 -1.3625
  890TIP3    H2 2677   4.022   1.869   0.526  0.1043 -0.4224  0.0479
  891TIP3   OH2 2678   1.087   1.213   1.189  0.9347 -0.3759  0.0376
  891TIP3    H1 2679   1.167   1.256   1.161 -0.0253  1.0716 -0.6038
  891TIP3    H2 2680   1.116   1.134   1.234  2.7283  0.4682  0.4229
  892TIP3   OH2 2681   1.327   0.634   0.072  0.5110  0.6571  0.6688
  892TIP3    H1 2682   1.266   0.565   0.047  0.4344  0.4714  1.3472
  892TIP3    H2 2683   1.356   0.609   0.161  0.9147  1.1925  0.6905
  893TIP3   OH2 2684   3.974   0.254   2.060  0.5112  0.3011 -0.1166
  893TIP3    H1 2685   3.912   0.202   2.008  2.9870  0.6141 -3.7762
  893TIP3    H2 2686   3.994   0.329   2.004  2.4048  1.4350  1.9517
  894TIP3   OH2 2687   5.518   2.390   2.246  0.6134 -0.9687  0.0991
  894TIP3    H1 2688   5.509   2.334   2.169  2.8296  0.1534 -1.0587
  894TIP3    H2 2689   5.561   2.335   2.311 -0.6193 -1.6992  0.3384
  895TIP3   OH2 2690   0.897   5.464   3.567  0.0423  0.0114 -0.0491
  895TIP3    H1 2691   0.802   5.472   3.573 -0.0020 -0.0497 -0.6131
  895TIP3    H2 2692   0.922   5.523   3.495  0.9111  3.2945  2.6752
  896TIP3   OH2 2693   1.124   4.855   0.991  0.0043 -0.4091 -0.2047
  896TIP3    H1 2694   1.042   4.848   1.038 -1.1400  1.7741 -1.7121
  896TIP3    H2 2695   1.177   4.914   1.044  0.1751 -0.8910  0.1730
  897TIP3   OH2 2696   3.886   4.118   2.890 -0.4296 -0.5088 -0.2890
  897TIP3    H1 2697   3.961   4.169   2.919 -1.3000  0.8920 -0.4260
  897TIP3    H2 2698   3.834   4.105   2.969 -0.3946 -0.8858 -0.3250
  898TIP3   OH2 2699   3.934   5.841   1.752  0.3207  0.3974  0.1605
  898TIP3    H1 2700   3.853   5.893   1.746 -0.7180 -0.9137  1.7475
  898TIP3    H2 2701   3.997   5.900   1.794 -1.1076  0.2013  2.8023
  899TIP3   OH2 2702   3.656   3.107   4.914  0.2510 -0.3351 -0.2059
  899TIP3    H1 2703   3.708   3.123   4.993 -0.5946  2.5235 -0.1141
  899TIP3    H2 2704   3.720   3.089   4.846  1.0848 -1.1934  0.7775
  900TIP3   OH2 2705   2.404   4.076   0.077  0.0858  0.2037 -0.3535
  900TIP3    H1 2706   2.343   4.050   0.009 -1.5988 -0.3329  1.3007
  900TIP3    H2 2707   2.391   4.013   0.148  1.1207  1.2760  0.8490
  901TIP3   OH2 2708   4.828   1.673   0.366 -0.2316  0.0940 -0.2852
  901TIP3    H1 2709   4.902   1.629   0.324 -0.6642 -0.5999 -0.3409
  901TIP3    H2 2710   4.782   1.603   0.413 -1.2230  0.3935 -0.7793
  902TIP3   OH2 2711   4.658   4.651   4.559 -0.9309  0.9729  0.4398
  902TIP3    H1 2712   4.605   4.600   4.498  1.2276 -1.0711  0.1135
  902TIP3    H2 2713   4.651   4.605   4.642 -0.2990  1.0964  0.5712
  903TIP3   OH2 2714   1.916   0.319   1.885 -0.3020 -0.0089  0.0899
  903TIP3    H1 2715   1.847   0.281   1.831  0.4557  0.3487 -1.1734
  903TIP3    H2 2716   1.991   0.261   1.874  0.2614  0.7703 -0.2849
  904TIP3   OH2 2717   2.620   2.000   0.756 -0.2793  0.0849 -0.3111
  904TIP3    H1 2718   2.674   2.055   0.812 -1.6121  0.1234  0.9922
  904TIP3    H2 2719   2.566   2.062   0.706  0.1151  0.0176 -0.8297
  905TIP3   OH2 2720   2.247   4.892   4.501 -0.1029 -0.2336  0.3261
  905TIP3    H1 2721   2.195   4.827   4.548 -0.0050 -0.8315 -0.3693
  905TIP3    H2 2722   2.243   4.971   4.556  2.5007 -1.7303  2.8942
  906TIP3   OH2 2723   3.461   2.543   4.581  0.5120 -0.3430  0.5543
  906TIP3    H1 2724   3.435   2.455   4.609 -1.4924  0.2303  0.6823
  906TIP3    H2 2725   3.428   2.601   4.650 -1.5812  0.8006 -1.2534
  907TIP3   OH2 2726   3.433   1.868   4.060  0.3226 -0.2263 -0.5590
  907TIP3    H1 2727   3.415   1.908   3.975 -0.5312  0.4751 -0.0681
  907TIP3    H2 2728   3.524   1.889   4.079  0.1378  0.7524 -0.7120
  908TIP3   OH2 2729   5.754   3.620   0.762 -0.4406 -0.0871 -0.2737
  908TIP3    H1 2730   5.727   3.653   0.847 -0.8666  0.7014 -0.7051
  908TIP3    H2 2731   5.678   3.572   0.729 -0.7004  0.5920 -0.6983
  909TIP3   OH2 2732   0.605   5.396   4.654  0.0161 -0.2314 -0.1950
  909TIP3    H1 2733   0.682   5.365   4.605  0.2797 -0.3241  0.2647
  909TIP3    H2 2734   0.530   5.364   4.604  0.2824 -0.7697 -0.2617
  910TIP3   OH2 2735   1.976   1.536   2.162 -0.6943  0.0163  0.4642
  910TIP3    H1 2736   1.996   1.447   2.192  0.4454  0.1414  0.1157
  910TIP3    H2 2737   1.884   1.532   2.136  0.2204 -2.1196 -3.0935
  911TIP3   OH2 2738   3.724   5.564   3.604 -0.9617  0.0424  0.0638
  911TIP3    H1 2739   3.655   5.591   3.664 -0.7824  0.1740  0.2123
  911TIP3    H2 2740   3.791   5.631   3.613  0.2862 -1.3364  1.7494
  912TIP3   OH2 2741   3.344   3.570   3.826 -0.6435 -0.2830  0.3839
  912TIP3    H1 2742   3.400   3.514   3.880 -1.0977 -1.0347  0.1017
  912TIP3    H2 2743   3.400   3.596   3.753 -0.2938 -0.0035  0.7499
  913TIP3   OH2 2744   5.803   5.856   1.179 -0.2748 -0.4365 -0.7728
  913TIP3    H1 2745   5.775   5.826   1.266  0.6884  0.9628  0.0710
  913TIP3    H2 2746   5.765   5.793   1.118 -1.2803 -1.2523  0.6379
  914TIP3   OH2 2747   1.674   1.447   1.486  0.3704  0.0858 -0.3547
  914TIP3    H1 2748   1.741   1.378   1.481  0.4317  0.0435  0.7714
  914TIP3    H2 2749   1.659   1.459   1.580 -0.7508  0.5393 -0.5759
  915TIP3   OH2 2750   5.132   0.342   4.076 -0.3409 -0.5440  0.4749
  915TIP3    H1 2751   5.170   0.268   4.123  0.5263  0.6598  1.7350
  915TIP3    H2 2752   5.182   0.346   3.994  1.2493  0.0292  1.4192
  916TIP3   OH2 2753   6.039   4.229   4.678  0.3131  0.6404  0.1615
  916TIP3    H1 2754   5.946   4.206   4.672  0.4789 -0.2234  0.8173
  916TIP3    H2 2755   6.085   4.154   4.641  0.7595  1.1674 -0.3919
  917TIP3   OH2 2756   4.672   2.748   2.080 -0.1872  0.3267 -0.4194
  917TIP3    H1 2757   4.598   2.716   2.030 -0.0796 -2.1863  0.8715
  917TIP3    H2 2758   4.749   2.725   2.027 -0.2029  0.2488 -0.4086
  918TIP3   OH2 2759   0.702   4.011   0.252  0.4762  0.0090 -0.6763
  918TIP3    H1 2760   0.675   3.924   0.221 -0.9714  0.3751 -0.5026
  918TIP3    H2 2761   0.794   3.999   0.279  0.5385 -1.2706 -1.3653
  919TIP3   OH2 2762   1.753   5.696   0.620  0.1339 -0.1155  0.2210
  919TIP3    H1 2763   1.697   5.685   0.697  0.1830 -1.1501  0.1185
  919TIP3    H2 2764   1.767   5.608   0.587 -0.8732  0.3815 -1.6815
  920TIP3   OH2 2765   5.755   0.058   4.448  0.0990 -0.3563 -0.4037
  920TIP3    H1 2766   5.758  -0.012   4.384  1.3338  0.2154 -1.0170
  920TIP3    H2 2767   5.847   0.076   4.468 -0.2333 -1.1281  2.2332
  921TIP3   OH2 2768   0.130   0.297   3.735 -0.5068  0.4161  0.8245
  921TIP3    H1 2769   0.119   0.392   3.740 -0.7302  0.3568  1.5912
  921TIP3    H2 2770   0.044   0.264   3.709 -0.4902  0.4080  0.7796
  922TIP3   OH2 2771   3.161   0.609   1.152 -0.3265  0.2900  0.2964
  922TIP3    H1 2772   3.161   0.688   1.206  0.6303 -0.3236  1.2290
  922TIP3    H2 2773   3.071   0.603   1.118 -0.1028  2.4289 -0.8061
  923TIP3   OH2 2774   0.321   3.668   3.226  0.2209  0.3855 -0.1806
  923TIP3    H1 2775   0.389   3.722   3.267 -0.7116  2.3019 -1.0428
  923TIP3    H2 2776   0.338   3.580   3.259  2.0212  1.1154  1.0229
  924TIP3   OH2 2777   5.283   5.163   1.672  0.2742  0.1303  0.2679
  924TIP3    H1 2778   5.216   5.117   1.723  1.8451 -1.5887  0.8901
  924TIP3    H2 2779   5.307   5.102   1.602 -1.0507  2.0182 -1.9597
  925TIP3   OH2 2780   4.191   3.087   4.860  0.1012 -0.7426  0.5253
  925TIP3    H1 2781   4.241   3.142   4.920 -0.0714 -1.4611  1.3429
  925TIP3    H2 2782   4.126   3.146   4.823  0.0942 -0.3264  1.1816
  926TIP3   OH2 2783   0.588   4.318   5.039  0.5591 -0.5227  0.1804
  926TIP3    H1 2784   0.675   4.298   5.073  0.8694  0.2781 -0.1024
  926TIP3    H2 2785   0.585   4.414   5.039 -0.1923 -0.5452 -0.1339
  927TIP3   OH2 2786   3.115   4.559   2.461 -0.6125 -0.0439  0.7195
  927TIP3    H1 2787   3.042   4.614   2.433 -0.1142  1.7308  2.6584
  927TIP3    H2 2788   3.174   4.556   2.386  0.0202  3.3185  0.9236
  928TIP3   OH2 2789   1.281   5.186   3.910  0.4641 -0.0540 -0.2256
  928TIP3    H1 2790   1.271   5.125   3.836 -1.4482  1.6091 -1.4470
  928TIP3    H2 2791   1.312   5.267   3.870 -1.0467  1.0219  0.6814
  929TIP3   OH2 2792   5.644   5.391   4.479 -0.5511  0.3591 -0.0572
  929TIP3    H1 2793   5.705   5.420   4.546 -0.9941 -0.6659  0.8129
  929TIP3    H2 2794   5.664   5.298   4.466  0.6926  0.8729 -2.6253
  930TIP3   OH2 2795   1.266   0.332   2.608 -0.2710 -0.3448 -0.0145
  930TIP3    H1 2796   1.334   0.355   2.545 -0.2587  1.6832  0.6542
  930TIP3    H2 2797   1.185   0.366   2.569 -0.5720 -0.8713  0.1441
  931TIP3   OH2 2798   1.660   0.982   0.672 -0.4714  0.1870 -0.6825
  931TIP3    H1 2799   1.747   0.985   0.713 -1.5959 -1.5132  2.1454
  931TIP3    H2 2800   1.634   1.073   0.664 -0.6121  0.7913  3.8352
  932TIP3   OH2 2801   1.076   0.095   4.812 -0.3465 -0.1647 -0.3219
  932TIP3    H1 2802   1.092   0.157   4.883 -0.3205 -0.0146 -0.4602
  932TIP3    H2 2803   1.038   0.018   4.856 -0.8527  0.1397 -0.2194
  933TIP3   OH2 2804   0.851   1.241   4.023 -0.1020  0.3170 -0.6982
  933TIP3    H1 2805   0.909   1.168   4.046  0.8458  0.9626 -0.9760
  933TIP3    H2 2806   0.788   1.245   4.095  2.7895  2.3351  2.0056
  934TIP3   OH2 2807   0.445   3.675   3.689 -0.3423  0.2531 -0.2055
  934TIP3    H1 2808   0.420   3.643   3.602 -0.4444  1.7174 -0.7317
  934TIP3    H2 2809   0.524   3.625   3.710  0.8626  1.2871 -2.0396
  935TIP3   OH2 2810   2.588   5.300   3.322  0.4488 -0.5465 -0.1419
  935TIP3    H1 2811   2.668   5.272   3.366  1.0243 -0.7315 -1.2628
  935TIP3    H2 2812   2.539   5.347   3.390 -0.3041 -3.6699  1.6603
  936TIP3   OH2 2813   3.437   0.689   1.439  0.0879  0.2554 -0.0471
  936TIP3    H1 2814   3.343   0.703   1.445  0.0363 -0.3639  0.7602
  936TIP3    H2 2815   3.475   0.770   1.473 -0.1021  1.1865 -1.9027
  937TIP3   OH2 2816   2.316   5.111   1.047 -0.0158  0.3896 -0.1778
  937TIP3    H1 2817   2.238   5.164   1.060  1.1792  2.0741  0.5543
  937TIP3    H2 2818   2.285   5.021   1.053 -1.9587  0.9993 -0.3659
  938TIP3   OH2 2819   1.876   0.599   0.418 -0.1402  0.5222 -0.3140
  938TIP3    H1 2820   1.870   0.562   0.506 -1.8500  0.7921 -0.2697
  938TIP3    H2 2821   1.884   0.693   0.432  1.5272  0.4227 -0.4517
  939TIP3   OH2 2822   0.615   0.206   1.323 -0.1620 -0.3793 -0.3834
  939TIP3    H1 2823   0.538   0.253   1.355  0.1721 -0.9219  1.3047
  939TIP3    H2 2824   0.586   0.114   1.318 -0.0506 -0.3804 -1.2053
  940TIP3   OH2 2825   4.658   0.561   3.614  0.0465 -0.0254 -0.0665
  940TIP3    H1 2826   4.665   0.465   3.610  0.0976 -0.1139  1.6512
  940TIP3    H2 2827   4.590   0.582   3.550  0.3151 -1.1596 -0.7668
  941TIP3   OH2 2828   1.070   1.570   1.109 -0.1951  0.1057  0.0706
  941TIP3    H1 2829   1.053   1.539   1.198 -1.1509 -1.3133 -0.5619
  941TIP3    H2 2830   1.032   1.658   1.106  1.1231  0.7620  1.4449
  942TIP3   OH2 2831   5.700   2.846   3.936  0.3882 -0.2477 -0.1684
  942TIP3    H1 2832   5.702   2.762   3.983 -0.3254 -1.1067 -1.5851
  942TIP3    H2 2833   5.717   2.822   3.845  4.4511  1.6215 -0.1308
  943TIP3   OH2 2834   3.064   3.007   4.183 -0.3983 -0.3377 -0.4171
  943TIP3    H1 2835   2.980   3.045   4.211  0.1169  0.4285  0.1205
  943TIP3    H2 2836   3.082   2.940   4.249  0.7930  1.4366  1.1701
  944TIP3   OH2 2837   4.642   0.226   3.116 -0.3429 -0.4785  0.7621
  944TIP3    H1 2838   4.637   0.172   3.037  1.2823 -1.4648  1.2767
  944TIP3    H2 2839   4.578   0.188   3.176 -1.8516  0.5000 -0.1575
  945TIP3   OH2 2840   1.725   2.600   1.672  0.5213  0.2525  0.0202
  945TIP3    H1 2841   1.694   2.656   1.743 -1.9539 -2.4360  1.2938
  945TIP3    H2 2842   1.820   2.603   1.679  0.3972  1.9120  1.9491
  946TIP3   OH2 2843   1.437   4.272   4.576 -0.4049 -0.0947  0.1459
  946TIP3    H1 2844   1.404   4.332   4.509  0.4144 -0.7094 -0.8468
  946TIP3    H2 2845   1.456   4.327   4.652  0.0005  0.8551 -0.6271
  947TIP3   OH2 2846   3.694   0.714   0.560  0.9167  0.4193  0.5974
  947TIP3    H1 2847   3.670   0.687   0.471  0.7170 -0.7233  0.9799
  947TIP3    H2 2848   3.765   0.654   0.584  1.9130  1.6064  0.7175
  948TIP3   OH2 2849   4.394   2.719   1.978 -0.0393  0.0141 -0.5937
  948TIP3    H1 2850   4.309   2.679   1.960 -0.4515 -0.0779  1.3261
  948TIP3    H2 2851   4.385   2.809   1.947 -0.7383 -0.0791 -0.6856
  949TIP3   OH2 2852   1.080   2.266   1.468  0.5029  0.0883  0.1700
  949TIP3    H1 2853   0.984   2.273   1.472  0.2749 -1.7492 -0.9493
  949TIP3    H2 2854   1.108   2.284   1.557 -0.7119  2.3525  0.1824
  950TIP3   OH2 2855   4.651   4.970   3.800 -0.7121  0.2284 -0.1449
  950TIP3    H1 2856   4.706   5.048   3.811 -0.1606 -0.2418  0.5863
  950TIP3    H2 2857   4.587   4.976   3.871 -0.6695  0.0246 -0.0880
  951TIP3   OH2 2858   0.847   2.288   0.402 -0.1830  0.3547 -0.2658
  951TIP3    H1 2859   0.829   2.245   0.485 -1.6672 -2.3361 -1.8547
  951TIP3    H2 2860   0.796   2.370   0.407 -1.9943 -0.7585  0.6815
  952TIP3   OH2 2861   5.310   5.941   2.544 -0.4309  0.3222  0.4003
  952TIP3    H1 2862   5.321   5.847   2.552  0.9081  0.4763  0.6050
  952TIP3    H2 2863   5.382   5.978   2.596 -0.1293  1.4388 -0.7635
  953TIP3   OH2 2864   3.945   0.176   1.398 -0.0184 -0.2531 -0.7192
  953TIP3    H1 2865   3.985   0.224   1.325 -2.5277  3.2766 -0.0303
  953TIP3    H2 2866   3.930   0.243   1.465 -4.0942 -1.8449  0.2418
  954TIP3   OH2 2867   2.507   2.349   3.940 -0.1111 -0.2633  0.1330
  954TIP3    H1 2868   2.593   2.368   3.902  0.1011  0.3316  0.8999
  954TIP3    H2 2869   2.501   2.407   4.016 -1.9529  1.0562 -0.9503
  955TIP3   OH2 2870   4.633   5.467   4.745 -0.8593 -0.1336 -0.0804
  955TIP3    H1 2871   4.553   5.440   4.790 -1.1086  1.0679  0.2239
  955TIP3    H2 2872   4.691   5.392   4.753 -2.4967 -1.6669 -1.7000
  956TIP3   OH2 2873   5.595   3.100   1.484 -0.2664 -0.3043  0.2694
  956TIP3    H1 2874   5.591   3.021   1.538  2.1987 -1.0478 -0.4976
  956TIP3    H2 2875   5.508   3.107   1.445 -1.1049 -1.5625  1.7991
  957TIP3   OH2 2876   4.382   1.828   1.109 -0.1563  0.2771 -0.5413
  957TIP3    H1 2877   4.414   1.762   1.170 -1.1176 -0.6615 -1.0134
  957TIP3    H2 2878   4.372   1.907   1.162 -1.2709 -0.5972  0.6092
  958TIP3   OH2 2879   3.562   1.920   0.573 -0.3830  0.0024  0.0404
  958TIP3    H1 2880   3.524   1.856   0.633 -2.0567  0.1360 -0.8363
  958TIP3    H2 2881   3.531   1.893   0.486  0.8473  0.6233 -0.6211
  959TIP3   OH2 2882   2.281   5.595   4.267 -0.5916 -0.0893 -0.3591
  959TIP3    H1 2883   2.267   5.599   4.362  0.7545  0.0005 -0.1426
  959TIP3    H2 2884   2.193   5.587   4.230 -1.1378 -0.1179  0.8931
  960TIP3   OH2 2885   4.878   2.541   1.373 -0.0366  0.2207 -0.1714
  960TIP3    H1 2886   4.897   2.453   1.406 -1.0673 -0.1167 -0.4635
  960TIP3    H2 2887   4.964   2.577   1.351  0.9289  0.9559  3.9662
  961TIP3   OH2 2888   0.675   1.844   1.126 -0.2564  0.4201  0.6312
  961TIP3    H1 2889   0.602   1.804   1.078  0.7037 -1.7029  0.8357
  961TIP3    H2 2890   0.744   1.854   1.060  1.3103 -3.1148  1.4574
  962TIP3   OH2 2891   6.206   4.717   4.458 -0.0905  0.0692 -0.8245
  962TIP3    H1 2892   6.166   4.631   4.469 -0.0224  0.1217 -0.0833
  962TIP3    H2 2893   6.281   4.702   4.401 -1.2107 -0.0088 -2.3382
  963TIP3   OH2 2894   3.836   4.443   4.984 -0.2299 -0.1971  0.4938
  963TIP3    H1 2895   3.827   4.392   4.904  0.5740 -0.1786  0.3910
  963TIP3    H2 2896   3.873   4.382   5.048 -1.9644 -0.5673  1.2242
  964TIP3   OH2 2897   5.209   4.201   2.840  0.3427 -0.0126  0.6147
  964TIP3    H1 2898   5.261   4.145   2.898  2.4928  0.9675 -0.2606
  964TIP3    H2 2899   5.251   4.287   2.846 -0.3502  0.4953 -1.2264
  965TIP3   OH2 2900   0.657   2.814   1.926  0.2919 -0.4152  0.0544
  965TIP3    H1 2901   0.668   2.875   1.998  1.0291  0.3010 -0.6437
  965TIP3    H2 2902   0.741   2.769   1.919 -0.3209 -1.7073  0.7193
  966TIP3   OH2 2903   5.302   2.799   1.503 -0.3302  0.0570 -0.3725
  966TIP3    H1 2904   5.376   2.823   1.559 -1.8988  1.4271  1.2339
  966TIP3    H2 2905   5.320   2.709   1.477  1.3577 -0.0142  0.8695
  967TIP3   OH2 2906   3.195   3.685   0.088 -0.6740 -0.1568  0.1865
  967TIP3    H1 2907   3.134   3.753   0.117 -0.7692 -0.5953  1.0599
  967TIP3    H2 2908   3.152   3.645   0.013 -1.3401 -0.2613  0.6089
  968TIP3   OH2 2909   3.750   0.694   3.763 -0.3431 -0.0530  0.1805
  968TIP3    H1 2910   3.759   0.660   3.852  2.2979 -0.1754 -0.0584
  968TIP3    H2 2911   3.766   0.619   3.706  0.4961  0.5188 -0.3681
  969TIP3   OH2 2912   0.196   1.434   1.964 -0.3726 -0.6458 -0.2972
  969TIP3    H1 2913   0.289   1.431   1.940  0.2902  0.2280  1.9116
  969TIP3    H2 2914   0.165   1.517   1.929  0.4825  0.4411  1.3899
  970TIP3   OH2 2915   1.169   4.566   1.219  0.3227 -0.0279  0.4432
  970TIP3    H1 2916   1.189   4.540   1.129  0.5191  0.0418  0.4668
  970TIP3    H2 2917   1.094   4.512   1.243 -0.8443  1.1872 -0.3654
  971TIP3   OH2 2918   0.767   2.997   3.172 -0.4708  0.3611 -0.2908
  971TIP3    H1 2919   0.778   3.059   3.244 -1.1197  1.3145 -0.9799
  971TIP3    H2 2920   0.856   2.976   3.144 -0.1150 -1.5485  2.0013
  972TIP3   OH2 2921   0.899   0.254   0.724  0.0041  0.3279  0.5807
  972TIP3    H1 2922   0.898   0.195   0.800  0.0162 -0.3834  0.0444
  972TIP3    H2 2923   0.906   0.195   0.649  0.7595  1.0612  0.0600
  973TIP3   OH2 2924   5.254   4.602   2.700  0.2695 -0.5799  0.2252
  973TIP3    H1 2925   5.192   4.555   2.645  0.5870 -1.2489  0.4369
  973TIP3    H2 2926   5.315   4.642   2.638  0.8301 -1.6179  0.0908
  974TIP3   OH2 2927   0.966   2.395   0.832  0.0995  0.0419  0.2603
  974TIP3    H1 2928   1.045   2.340   0.837 -2.0966 -3.4186  0.3640
  974TIP3    H2 2929   0.937   2.402   0.923 -0.8348 -0.5682  0.0188
  975TIP3   OH2 2930   6.058   1.920   4.441 -0.1224  0.0217  0.0659
  975TIP3    H1 2931   6.140   1.945   4.485 -0.5778  1.8794 -0.0745
  975TIP3    H2 2932   6.081   1.921   4.348 -0.6968  2.3917 -0.1167
  976TIP3   OH2 2933   6.063   2.395   3.957 -0.4641 -0.0416 -0.0482
  976TIP3    H1 2934   6.119   2.349   4.019 -0.3805 -0.6416 -0.5588
  976TIP3    H2 2935   6.118   2.466   3.923 -0.5956  0.4490  0.7467
  977TIP3   OH2 2936   3.107   3.067   0.115  0.3604  0.1021  0.1603
  977TIP3    H1 2937   3.064   3.061   0.030 -0.6647  0.3416  0.6495
  977TIP3    H2 2938   3.195   3.100   0.095 -0.5940  2.3452 -0.6091
  978TIP3   OH2 2939   3.236   4.080   4.709  0.2563  0.0278  0.0472
  978TIP3    H1 2940   3.149   4.047   4.732  0.5179  0.0283  1.0552
  978TIP3    H2 2941   3.242   4.065   4.614 -0.3788 -1.0575  0.1602
  979TIP3   OH2 2942   2.422   1.872   4.129  0.1843 -0.6638  0.1723
  979TIP3    H1 2943   2.422   1.778   4.148  2.3021 -0.4470  1.5651
  979TIP3    H2 2944   2.438   1.878   4.035 -1.4413 -1.6887 -0.1992
  980TIP3   OH2 2945   6.136   2.493   3.277  0.2352  0.4442  0.0402
  980TIP3    H1 2946   6.169   2.477   3.366  0.0636  1.5507  0.3210
  980TIP3    H2 2947   6.047   2.458   3.278  0.4725 -0.1685  0.0873
  981TIP3   OH2 2948   0.394   2.011   2.184 -0.3359  0.0224 -0.1464
  981TIP3    H1 2949   0.423   1.946   2.120  0.4557 -0.0297  0.2515
  981TIP3    H2 2950   0.463   2.011   2.250 -1.4130 -0.3559  1.0190
  982TIP3   OH2 2951   3.688   5.414   0.316 -0.0415 -0.0405  0.0693
  982TIP3    H1 2952   3.614   5.473   0.298 -0.4479 -1.0598 -1.8821
  982TIP3    H2 2953   3.697   5.417   0.412  0.5466  3.7957  0.0759
  983TIP3   OH2 2954   0.724   2.036   0.015  0.4254  0.5807 -0.1147
  983TIP3    H1 2955   0.788   2.059   0.082 -0.3917  0.7198  0.6438
  983TIP3    H2 2956   0.775   1.997  -0.055  1.3416  0.7286  0.4534
  984TIP3   OH2 2957   5.708   1.441   3.895 -0.4149  0.1233  0.0724
  984TIP3    H1 2958   5.773   1.431   3.965  0.6489 -1.2858 -1.0586
  984TIP3    H2 2959   5.704   1.536   3.879  1.8656  0.2230 -0.2354
  985TIP3   OH2 2960   3.140   1.573   2.718  0.1553  0.0745 -0.2749
  985TIP3    H1 2961   3.155   1.655   2.765  0.5122 -0.9075  1.4076
  985TIP3    H2 2962   3.052   1.583   2.681  0.2963  1.3089 -0.3160
  986TIP3   OH2 2963   5.099   5.036   2.050  0.1929 -0.4466 -0.3063
  986TIP3    H1 2964   5.163   5.052   2.119 -0.8670  1.6182  0.2996
  986TIP3    H2 2965   5.019   5.079   2.082 -0.2295  0.9493 -2.9728
  987TIP3   OH2 2966   2.694   5.075   1.507  0.2346 -0.0177  0.4149
  987TIP3    H1 2967   2.730   5.070   1.596  0.1501 -0.9395  0.4064
  987TIP3    H2 2968   2.703   5.167   1.483  1.7051 -0.0400  0.7840
  988TIP3   OH2 2969   3.208   2.242   0.916  0.1612 -0.1673 -0.5699
  988TIP3    H1 2970   3.191   2.230   1.010  1.3658  1.0731 -0.1451
  988TIP3    H2 2971   3.290   2.195   0.901  0.6901  0.7681 -0.6767
  989TIP3   OH2 2972   3.509   4.961   5.009  0.1126  0.4015 -0.1889
  989TIP3    H1 2973   3.525   4.992   5.098  0.6353  0.9175 -0.4586
  989TIP3    H2 2974   3.442   5.019   4.974  0.6187  0.8260 -0.4671
  990TIP3   OH2 2975   5.814   2.832   4.296  0.0513 -0.5063  0.1119
  990TIP3    H1 2976   5.860   2.816   4.379 -0.9264 -1.6501  0.4500
  990TIP3    H2 2977   5.795   2.926   4.297  1.4680 -0.1968  0.4238
  991TIP3   OH2 2978   0.909   1.021   4.364 -0.6433 -0.4745 -0.1312
  991TIP3    H1 2979   0.913   1.105   4.410 -1.5829 -0.2058 -0.5245
  991TIP3    H2 2980   0.815   1.002   4.356 -0.4500 -1.4529 -0.2470
  992TIP3   OH2 2981   0.522   4.537   3.481  0.1496 -0.2005 -0.0405
  992TIP3    H1 2982   0.561   4.490   3.555  0.2036 -0.8308 -0.4569
  992TIP3    H2 2983   0.452   4.589   3.520  0.6127  0.0042  0.5480
  993TIP3   OH2 2984   3.279   3.614   4.393 -0.6117 -0.6735 -0.1229
  993TIP3    H1 2985   3.286   3.592   4.300 -1.9453 -1.5636 -0.0298
  993TIP3    H2 2986   3.350   3.565   4.435  0.8071  0.7039 -0.7875
  994TIP3   OH2 2987   4.838   1.412   3.101 -0.3398  1.0717  0.3412
  994TIP3    H1 2988   4.863   1.338   3.046 -0.9856  0.0225  1.4281
  994TIP3    H2 2989   4.818   1.482   3.039  0.7606  0.5084 -0.6873
  995TIP3   OH2 2990   6.322   3.947   0.639 -0.1687  0.3784 -0.7426
  995TIP3    H1 2991   6.240   3.900   0.622 -1.4036  1.7837  0.8761
  995TIP3    H2 2992   6.316   4.026   0.586  0.7033 -0.0505 -1.5021
  996TIP3   OH2 2993   4.607   5.575   0.616  0.7846 -0.5365  0.0302
  996TIP3    H1 2994   4.589   5.645   0.679 -0.1235 -0.4250 -0.3364
  996TIP3    H2 2995   4.698   5.590   0.589  0.2720  1.1910 -0.8749
  997TIP3   OH2 2996   2.319   0.260   0.649 -0.3277 -0.0283 -0.6512
  997TIP3    H1 2997   2.259   0.186   0.636 -1.9308  1.4443 -2.0670
  997TIP3    H2 2998   2.377   0.257   0.572 -0.4189  0.1999 -0.7297
  998TIP3   OH2 2999   6.308   4.304   1.633  0.7234  0.1637  0.0358
  998TIP3    H1 3000   6.328   4.397   1.625 -1.1807  0.7291  1.2820
  998TIP3    H2 3001   6.295   4.274   1.543  1.2341  1.1224 -0.3697
  999TIP3   OH2 3002   1.732   1.858   3.457  0.2514 -0.4950 -0.0371
  999TIP3    H1 3003   1.688   1.777   3.483  1.5583 -0.7766  1.4914
  999TIP3    H2 3004   1.675   1.928   3.488 -0.5641 -0.8211 -0.7672
 1000TIP3   OH2 3005   2.578   2.465   4.610  0.2074  0.7347 -0.0921
 1000TIP3    H1 3006   2.500   2.500   4.566  0.8399  0.5200 -1.4233
 1000TIP3    H2 3007   2.600   2.531   4.676 -0.4828  1.3001 -0.4136
 1001TIP3   OH2 3008   0.507   0.861   2.721  0.4383 -0.3352  0.2742
 1001TIP3    H1 3009   0.501   0.770   2.750  1.9601 -1.4099 -2.4145
 1001TIP3    H2 3010   0.510   0.856   2.626 -0.7708  2.6706 -0.0364
 1002TIP3   OH2 3011   5.169   1.315   2.717 -0.2427 -0.5386 -1.1123
 1002TIP3    H1 3012   5.246   1.285   2.765 -0.5675 -0.3648 -0.4726
 1002TIP3    H2 3013   5.095   1.290   2.772 -0.5642  0.6576 -0.9622
 1003TIP3   OH2 3014   5.567   3.434   3.916  0.3828  0.8587 -0.5139
 1003TIP3    H1 3015   5.634   3.439   3.848  0.7566  0.3831 -0.1930
 1003TIP3    H2 3016   5.484   3.443   3.870  0.6298  0.4659 -1.0475
 1004TIP3   OH2 3017   3.404   0.804   4.427  0.1088  0.0066  0.1434
 1004TIP3    H1 3018   3.443   0.720   4.404 -1.5517 -0.7510 -0.0343
 1004TIP3    H2 3019   3.461   0.869   4.387  0.6989 -1.0882 -0.8384
 1005TIP3   OH2 3020   4.134   0.119   1.740  0.1822  0.0944  1.0039
 1005TIP3    H1 3021   4.125   0.052   1.808  0.7767  0.0326  1.0280
 1005TIP3    H2 3022   4.050   0.165   1.739 -0.0916 -0.4004  1.2560
 1006TIP3   OH2 3023   4.464   0.936   1.715  0.4194 -0.0952 -0.6152
 1006TIP3    H1 3024   4.394   0.878   1.684 -1.4000  1.5647  0.1910
 1006TIP3    H2 3025   4.456   0.934   1.811  1.0229  0.6500 -0.5419
 1007TIP3   OH2 3026   2.573   3.429   5.028  0.0681  0.2764  0.3043
 1007TIP3    H1 3027   2.618   3.454   4.948  0.0196  0.8135  0.4382
 1007TIP3    H2 3028   2.481   3.449   5.011 -0.3639 -2.1729 -0.5030
 1008TIP3   OH2 3029   3.641   4.553   2.952  0.1715 -0.2474 -0.5919
 1008TIP3    H1 3030   3.573   4.508   2.901  0.4827 -2.7569  1.0006
 1008TIP3    H2 3031   3.723   4.513   2.921  0.3962 -1.4820  1.4133
 1009TIP3   OH2 3032   0.477   3.332   2.612  0.7497  0.2706 -0.0443
 1009TIP3    H1 3033   0.411   3.264   2.625  0.7964 -0.4770 -3.0091
 1009TIP3    H2 3034   0.441   3.409   2.656 -1.3925 -0.5147 -0.3034
 1010TIP3   OH2 3035   4.189   5.751   4.678 -0.0606 -0.6155  0.3623
 1010TIP3    H1 3036   4.195   5.657   4.663  0.3967 -0.5390  0.0433
 1010TIP3    H2 3037   4.251   5.768   4.749  0.9197 -0.3527 -0.5296
 1011TIP3   OH2 3038   4.711   0.150   5.064 -0.1506  0.1334  0.3648
 1011TIP3    H1 3039   4.740   0.101   5.141 -0.3461  0.9736  0.9841
 1011TIP3    H2 3040   4.767   0.227   5.061  1.4058 -0.9605 -1.6638
 1012TIP3   OH2 3041   4.212   1.829   1.617 -0.1585 -0.0095 -0.1282
 1012TIP3    H1 3042   4.236   1.736   1.622 -0.2006  0.0064  0.3685
 1012TIP3    H2 3043   4.284   1.869   1.568  0.1281 -0.2093  0.1251
 1013TIP3   OH2 3044   4.343   4.154   0.412 -0.3965 -0.0437 -0.1328
 1013TIP3    H1 3045   4.413   4.219   0.419 -2.1492  1.9032  0.6190
 1013TIP3    H2 3046   4.346   4.126   0.321  2.3047 -1.2371  0.2277
 1014TIP3   OH2 3047   1.268   2.820   1.113  0.1163  0.3138 -0.0283
 1014TIP3    H1 3048   1.201   2.882   1.139  1.1940  1.1063  0.9645
 1014TIP3    H2 3049   1.350   2.869   1.118  0.9079 -0.9449 -0.0843
 1015TIP3   OH2 3050   6.320   0.233   0.526 -0.1774 -0.3158  0.3779
 1015TIP3    H1 3051   6.349   0.324   0.529 -1.4805  0.1465  3.4902
 1015TIP3    H2 3052   6.264   0.228   0.449  0.2284  1.4154 -0.0810
 1016TIP3   OH2 3053   6.233   2.476   4.934 -0.3077  0.0472  0.3307
 1016TIP3    H1 3054   6.278   2.472   4.850 -0.9238 -0.0842 -0.0052
 1016TIP3    H2 3055   6.296   2.515   4.994  0.3150 -0.3083 -0.0760
 1017TIP3   OH2 3056   2.041   5.126   3.392  0.7321 -0.4571  0.4436
 1017TIP3    H1 3057   2.087   5.047   3.420  1.2616 -0.4711 -0.4166
 1017TIP3    H2 3058   2.104   5.197   3.408  0.4692 -0.2824  0.6976
 1018TIP3   OH2 3059   3.418   3.299   4.462  0.6168 -0.5622  0.0695
 1018TIP3    H1 3060   3.334   3.254   4.461  0.4671 -0.4347  2.1772
 1018TIP3    H2 3061   3.428   3.330   4.553  1.5437  2.0402 -0.8124
 1019TIP3   OH2 3062   1.527   5.356   1.257 -0.2566 -0.8636  0.6660
 1019TIP3    H1 3063   1.545   5.357   1.163  1.0592  3.0223  0.7832
 1019TIP3    H2 3064   1.596   5.301   1.294 -0.2624 -1.7100 -0.5039
 1020TIP3   OH2 3065   3.764   0.557   4.038 -0.2260  0.1287 -0.3410
 1020TIP3    H1 3066   3.836   0.620   4.043 -0.5130  0.4938 -0.7762
 1020TIP3    H2 3067   3.704   0.582   4.108 -2.1802  2.6603 -2.7064
 1021TIP3   OH2 3068   5.605   3.657   1.060 -0.3237  0.6658 -0.0786
 1021TIP3    H1 3069   5.555   3.730   1.096 -0.3480  0.4143  0.3998
 1021TIP3    H2 3070   5.697   3.681   1.076 -0.3558  0.2523  0.7387
 1022TIP3   OH2 3071   1.207   1.332   0.540  0.2592  0.0600 -0.3295
 1022TIP3    H1 3072   1.146   1.259   0.544  0.8665 -0.5260 -1.1922
 1022TIP3    H2 3073   1.152   1.410   0.539 -0.5909 -0.4844 -2.3889
 1023TIP3   OH2 3074   5.421   2.560   1.730  0.2917 -0.1872  0.3007
 1023TIP3    H1 3075   5.335   2.521   1.743  0.0159 -0.0658 -1.0432
 1023TIP3    H2 3076   5.414   2.648   1.767  0.0865 -0.4443  0.8843
 1024TIP3   OH2 3077   2.610   3.608   1.715 -0.2447 -0.4723  0.5702
 1024TIP3    H1 3078   2.518   3.582   1.702 -1.2688  1.2392  3.4253
 1024TIP3    H2 3079   2.638   3.555   1.790  0.3692  0.5900  1.0996
 1025TIP3   OH2 3080   5.034   1.631   4.372 -0.3380  0.4115  0.3884
 1025TIP3    H1 3081   4.982   1.557   4.402 -0.3671  0.4785  0.5045
 1025TIP3    H2 3082   5.059   1.677   4.452  2.5349 -1.3529  0.6484
 1026TIP3   OH2 3083   5.329   3.782   1.485  0.3400  0.4205  0.3715
 1026TIP3    H1 3084   5.365   3.790   1.397  1.9332  0.4078  0.9776
 1026TIP3    H2 3085   5.329   3.688   1.503 -1.9156  0.2374 -0.3308
 1027TIP3   OH2 3086   0.570   1.505   0.324 -0.7237 -0.5686  0.6830
 1027TIP3    H1 3087   0.496   1.485   0.267 -0.0652 -3.3770  0.6346
 1027TIP3    H2 3088   0.600   1.591   0.297 -3.1977  0.0920 -0.1121
 1028TIP3   OH2 3089   0.982   0.861   4.654 -0.2794 -0.0841  0.1991
 1028TIP3    H1 3090   0.927   0.929   4.693 -1.1498 -1.2665  1.0825
 1028TIP3    H2 3091   0.921   0.798   4.618  0.5189 -0.7485 -0.0205
 1029TIP3   OH2 3092   5.626   4.546   3.264 -0.5238  1.0966  0.5191
 1029TIP3    H1 3093   5.675   4.482   3.213 -2.3480 -1.6923  2.0368
 1029TIP3    H2 3094   5.535   4.533   3.237 -1.0105  2.7502  1.2435
 1030TIP3   OH2 3095   3.598   3.134   0.841 -0.5621  0.0381  0.4815
 1030TIP3    H1 3096   3.690   3.157   0.835 -0.9403  1.8564  0.9228
 1030TIP3    H2 3097   3.576   3.097   0.756  0.0510  1.7937 -0.4839
 1031TIP3   OH2 3098   2.550   0.058   3.662 -0.5006  0.2162  0.3189
 1031TIP3    H1 3099   2.579   0.036   3.751  1.3973  2.6269  0.4009
 1031TIP3    H2 3100   2.503   0.141   3.672  0.4860  0.9648 -0.9977
 1032TIP3   OH2 3101   2.244   3.164   4.775 -0.4498  0.1473 -0.0225
 1032TIP3    H1 3102   2.298   3.193   4.701 -1.3514  0.3478 -0.6184
 1032TIP3    H2 3103   2.307   3.135   4.841  0.5101  3.0001  0.4393
 1033TIP3   OH2 3104   1.598   5.630   0.851  0.1831 -0.0897 -0.4938
 1033TIP3    H1 3105   1.544   5.551   0.847  0.6840 -0.4365 -0.4426
 1033TIP3    H2 3106   1.534   5.702   0.855 -0.2750 -0.5000 -0.2885
 1034TIP3   OH2 3107   3.919   4.129   0.390 -0.1124 -0.1226  0.2401
 1034TIP3    H1 3108   3.912   4.112   0.296  3.2688  0.2320 -0.2055
 1034TIP3    H2 3109   3.917   4.225   0.397  0.3213 -0.1212  0.4104
 1035TIP3   OH2 3110   4.643   0.276   2.527 -0.1429  0.2746 -0.3433
 1035TIP3    H1 3111   4.692   0.217   2.469 -0.8603  1.6642 -2.4662
 1035TIP3    H2 3112   4.581   0.218   2.573  0.7541 -0.9281 -0.5963
 1036TIP3   OH2 3113   1.331   0.974   3.181  0.4014 -1.0315 -0.3492
 1036TIP3    H1 3114   1.344   0.936   3.095 -1.3519 -1.3283 -0.5233
 1036TIP3    H2 3115   1.302   0.901   3.236  0.4930 -0.6446  0.2321
 1037TIP3   OH2 3116   2.512   4.632   0.856 -0.3270  0.1028 -0.3628
 1037TIP3    H1 3117   2.578   4.592   0.799 -1.7434 -0.6483 -1.5182
 1037TIP3    H2 3118   2.540   4.610   0.944  1.5100  0.6538 -0.7544
 1038TIP3   OH2 3119   4.874   4.441   0.248  0.2237  0.6578 -0.2854
 1038TIP3    H1 3120   4.953   4.395   0.219 -0.8734 -1.3170 -0.3045
 1038TIP3    H2 3121   4.867   4.516   0.190  0.6448 -0.6189 -2.0745
 1039TIP3   OH2 3122   5.412   0.355   2.632  0.3169  0.1900 -0.2300
 1039TIP3    H1 3123   5.347   0.306   2.683  0.8036 -0.2645 -0.0363
 1039TIP3    H2 3124   5.401   0.445   2.661  0.1410  0.0352  0.2057
 1040TIP3   OH2 3125   5.316   4.728   3.339  0.0117 -0.2196 -0.0161
 1040TIP3    H1 3126   5.366   4.707   3.418 -0.2456 -3.8036 -0.6561
 1040TIP3    H2 3127   5.379   4.718   3.267 -0.5344 -0.1959 -0.5018
 1041TIP3   OH2 3128   3.621   2.162   4.990 -0.0143  0.1897 -0.4931
 1041TIP3    H1 3129   3.677   2.239   4.995  0.7318 -0.2897 -1.1282
 1041TIP3    H2 3130   3.680   2.088   5.006 -0.7438 -0.2451  0.2762
 1042TIP3   OH2 3131   1.814   1.971   5.134  0.3060 -0.3035 -0.1306
 1042TIP3    H1 3132   1.776   2.053   5.101 -2.2792 -0.5135  1.9829
 1042TIP3    H2 3133   1.838   1.922   5.055 -0.2408  1.5226 -1.4921
 1043TIP3   OH2 3134   2.350   2.547   1.923 -0.6424  0.0037 -0.3950
 1043TIP3    H1 3135   2.387   2.600   1.993  1.6332  0.6134 -1.9304
 1043TIP3    H2 3136   2.398   2.464   1.928  0.1509  0.3498 -1.6559
 1044TIP3   OH2 3137   1.720   1.280   4.373  0.1084 -0.0111 -0.3470
 1044TIP3    H1 3138   1.794   1.238   4.331 -0.3603 -0.8243 -0.3749
 1044TIP3    H2 3139   1.645   1.259   4.318  0.0430  2.0473 -1.1581
 1045TIP3   OH2 3140   1.710   5.175   4.075  0.2882  0.7055 -0.1510
 1045TIP3    H1 3141   1.797   5.136   4.071 -0.1190 -0.1176 -2.6422
 1045TIP3    H2 3142   1.698   5.217   3.990 -2.4129 -0.8061 -0.6580
 1046TIP3   OH2 3143   5.605   2.977   3.022 -0.5507  0.1702  0.3006
 1046TIP3    H1 3144   5.653   3.059   3.039 -0.8854  0.4907 -0.2951
 1046TIP3    H2 3145   5.668   2.908   3.045 -0.3868  0.5839  1.1576
 1047TIP3   OH2 3146   5.939   0.999   0.100 -0.5732 -0.3980  0.2430
 1047TIP3    H1 3147   5.963   0.989   0.192  0.5463  1.5395  0.2296
 1047TIP3    H2 3148   5.960   1.091   0.080 -2.1389 -0.3791 -1.5607
 1048TIP3   OH2 3149   0.547   1.894   2.854 -0.1863  0.3262 -0.7975
 1048TIP3    H1 3150   0.531   1.875   2.762 -0.2205  1.6644 -1.0944
 1048TIP3    H2 3151   0.643   1.895   2.862 -0.1396 -2.2053 -0.2424
 1049TIP3   OH2 3152   3.728   4.758   5.116 -0.3202 -0.3486  0.1094
 1049TIP3    H1 3153   3.734   4.809   5.035 -0.9065  0.6675  0.6889
 1049TIP3    H2 3154   3.817   4.757   5.150 -0.6918  2.6896  1.4941
 1050TIP3   OH2 3155   6.108   0.249   1.226 -0.5307  0.8121  0.1227
 1050TIP3    H1 3156   6.109   0.237   1.131  1.3727 -0.6415  0.2703
 1050TIP3    H2 3157   6.161   0.327   1.241  1.7569 -0.6540  0.0975
 1051TIP3   OH2 3158   1.453   4.772   1.237  0.0821  0.1805 -0.1348
 1051TIP3    H1 3159   1.375   4.717   1.226 -1.9045  2.4592  1.3968
 1051TIP3    H2 3160   1.462   4.817   1.153 -1.7804  1.6077  0.3573
 1052TIP3   OH2 3161   4.374   4.198   2.703 -0.3944  0.2197 -0.1630
 1052TIP3    H1 3162   4.365   4.111   2.741  0.3711  0.4501  0.5863
 1052TIP3    H2 3163   4.450   4.236   2.748 -1.0146  1.4615 -0.1220
 1053TIP3   OH2 3164   2.616   4.479   1.544 -0.4020  0.1469  0.5289
 1053TIP3    H1 3165   2.688   4.447   1.599 -0.6314 -0.6370  0.3898
 1053TIP3    H2 3166   2.658   4.500   1.461 -0.7394 -3.6036 -0.8014
 1054TIP3   OH2 3167   2.653   0.379   0.384  0.2043 -0.1406 -0.1165
 1054TIP3    H1 3168   2.573   0.424   0.357  0.2633 -0.3112 -0.5917
 1054TIP3    H2 3169   2.696   0.440   0.443  1.4067  1.4451 -2.4586
 1055TIP3   OH2 3170   0.673   2.416   3.807  0.3199 -0.0422  0.4340
 1055TIP3    H1 3171   0.647   2.442   3.895  1.5025  4.4412 -0.3062
 1055TIP3    H2 3172   0.729   2.340   3.820 -1.1707 -0.8087  3.2833
 1056TIP3   OH2 3173   5.015   2.431   4.412  0.0188 -0.2841 -0.7962
 1056TIP3    H1 3174   5.050   2.488   4.479 -1.3452 -2.2753  1.8099
 1056TIP3    H2 3175   5.092   2.394   4.368  0.9337  1.2406 -0.5238
 1057TIP3   OH2 3176   5.751   1.123   1.561  0.0744  0.4543 -0.0543
 1057TIP3    H1 3177   5.813   1.184   1.520  1.4641 -0.2912  0.8559
 1057TIP3    H2 3178   5.791   1.101   1.645 -1.8349  0.5324  0.9161
 1058TIP3   OH2 3179   0.976   0.510   2.203  0.1661 -0.5903 -0.2444
 1058TIP3    H1 3180   0.888   0.522   2.239  0.3724 -1.6414  0.6497
 1058TIP3    H2 3181   1.007   0.599   2.186 -0.1536 -0.0706  1.6796
 1059TIP3   OH2 3182   4.627   2.997   5.175  0.1723  0.5295 -0.1300
 1059TIP3    H1 3183   4.680   3.035   5.106  0.0926  0.5924 -0.1568
 1059TIP3    H2 3184   4.632   3.059   5.247  0.7172  0.1944  0.1312
 1060TIP3   OH2 3185   0.040   4.917   5.201  1.1482  0.3765  0.5596
 1060TIP3    H1 3186   0.064   4.839   5.151  1.9554 -0.2559  1.8886
 1060TIP3    H2 3187  -0.044   4.944   5.164  1.3721 -0.4829 -0.6429
 1061TIP3   OH2 3188   3.287   4.273   1.436 -0.2899  0.6462 -0.1033
 1061TIP3    H1 3189   3.374   4.278   1.474 -0.4192  0.6614  0.1955
 1061TIP3    H2 3190   3.290   4.331   1.360  1.0979 -2.1416 -2.3564
 1062TIP3   OH2 3191   5.306   4.603   4.971 -0.1046  0.6112 -0.2516
 1062TIP3    H1 3192   5.211   4.620   4.970 -0.0760  1.3966  2.3832
 1062TIP3    H2 3193   5.319   4.543   5.045  1.5019  0.9224 -0.2511
 1063TIP3   OH2 3194   2.836   3.141   4.470 -0.3144  0.4027 -0.4853
 1063TIP3    H1 3195   2.745   3.115   4.455 -0.9513  1.7792  0.7080
 1063TIP3    H2 3196   2.853   3.117   4.561  0.2146  0.9466 -0.4361
 1064TIP3   OH2 3197   5.155   5.182   3.802 -0.3437  0.2099  0.0518
 1064TIP3    H1 3198   5.075   5.203   3.753  1.0600  0.4071 -2.3168
 1064TIP3    H2 3199   5.226   5.211   3.745  1.4549  0.8582  2.4557
 1065TIP3   OH2 3200   1.196   2.135   1.271  0.2613 -0.6414  0.4046
 1065TIP3    H1 3201   1.153   2.196   1.331 -0.1234  0.5891 -1.0783
 1065TIP3    H2 3202   1.174   2.048   1.306 -0.9207  0.0171  1.3765
 1066TIP3   OH2 3203   5.129   2.271   3.118 -0.2322 -0.4806  0.4986
 1066TIP3    H1 3204   5.134   2.348   3.061 -1.3271 -0.2817  0.6500
 1066TIP3    H2 3205   5.110   2.199   3.059 -0.7821 -0.3722  0.5433
 1067TIP3   OH2 3206   0.691   4.483   1.611  0.0325 -0.1673 -0.3608
 1067TIP3    H1 3207   0.781   4.508   1.590  0.4407 -1.5365 -0.3350
 1067TIP3    H2 3208   0.637   4.534   1.550  0.7167  1.6580  0.4973
 1068TIP3   OH2 3209   0.450   5.147   1.562  0.2486 -0.0390  0.0393
 1068TIP3    H1 3210   0.413   5.062   1.538 -2.2192  0.5592  1.4261
 1068TIP3    H2 3211   0.524   5.126   1.618  0.7684 -1.2608 -1.0492
 1069TIP3   OH2 3212   0.558   4.461   1.084  0.0015  0.3771 -0.0538
 1069TIP3    H1 3213   0.485   4.521   1.069 -0.0847  0.3418  0.2164
 1069TIP3    H2 3214   0.637   4.513   1.065 -0.1297 -0.4735 -3.5904
 1070TIP3   OH2 3215   5.167   4.338   0.350 -0.5576  0.9897  0.2924
 1070TIP3    H1 3216   5.237   4.328   0.285  0.2482  1.9445  0.9782
 1070TIP3    H2 3217   5.196   4.283   0.424 -2.1021 -1.1533 -0.5904
 1071TIP3   OH2 3218   4.193   3.980   2.353  0.0194 -0.5568  0.0834
 1071TIP3    H1 3219   4.269   3.941   2.397  0.9286  1.0400  0.0128
 1071TIP3    H2 3220   4.221   4.069   2.330 -1.8557  0.0616 -0.0179
 1072TIP3   OH2 3221   4.309   5.248   4.142 -0.7169 -0.4172 -0.3614
 1072TIP3    H1 3222   4.221   5.226   4.112 -0.1814 -2.3872 -0.5972
 1072TIP3    H2 3223   4.365   5.238   4.065  0.1614 -2.2733  0.4616
 1073TIP3   OH2 3224   5.836   3.573   4.929 -0.2614  0.2914 -0.5960
 1073TIP3    H1 3225   5.914   3.563   4.983  0.0463 -0.3937 -1.1436
 1073TIP3    H2 3226   5.852   3.517   4.853 -1.0332  0.5990 -1.0022
 1074TIP3   OH2 3227   1.164   3.357   2.950 -0.2638  0.1402  0.0444
 1074TIP3    H1 3228   1.084   3.307   2.967 -0.6891  0.8432  0.1824
 1074TIP3    H2 3229   1.233   3.308   2.995 -1.0234  0.8237  2.0998
 1075TIP3   OH2 3230   2.749   4.949   4.841  0.5943 -0.6699 -0.0436
 1075TIP3    H1 3231   2.787   4.901   4.915  2.6467 -0.8294 -1.1572
 1075TIP3    H2 3232   2.817   5.011   4.815 -1.2025  1.4333 -0.0003
 1076TIP3   OH2 3233   6.331   5.913   1.044  0.1892  0.0548 -0.1746
 1076TIP3    H1 3234   6.370   5.834   1.005 -0.8038 -1.4213  1.6140
 1076TIP3    H2 3235   6.341   5.900   1.139  1.8841  3.1338  0.1896
 1077TIP3   OH2 3236   0.133   4.195   2.842 -0.8357  0.1758 -0.1187
 1077TIP3    H1 3237   0.113   4.282   2.809 -0.4164  0.8437  1.2948
 1077TIP3    H2 3238   0.048   4.152   2.852 -1.2178  1.1113  0.9237
 1078TIP3   OH2 3239   6.027   2.052   2.770  0.2193  0.2404 -0.4805
 1078TIP3    H1 3240   5.987   1.968   2.752  0.3249  0.2483 -0.7588
 1078TIP3    H2 3241   6.042   2.091   2.684  0.4484  0.4124 -0.3662
 1079TIP3   OH2 3242   1.575   5.966   3.536 -0.6527  0.3544  0.1800
 1079TIP3    H1 3243   1.653   5.917   3.511 -0.3309  0.7861  0.3091
 1079TIP3    H2 3244   1.609   6.044   3.580 -1.1088  1.0901 -0.7091
 1080TIP3   OH2 3245   5.383   5.847   3.463 -0.1751 -0.0458 -0.6477
 1080TIP3    H1 3246   5.298   5.839   3.421  0.3816 -0.4026 -1.7645
 1080TIP3    H2 3247   5.444   5.864   3.390  0.9666 -1.5883 -0.1051
 1081TIP3   OH2 3248   2.307   5.595   4.797  0.4980 -0.1338  0.3001
 1081TIP3    H1 3249   2.275   5.581   4.709  1.0949  0.0974  0.0394
 1081TIP3    H2 3250   2.253   5.538   4.852  0.2410 -0.4089 -0.2338
 1082TIP3   OH2 3251   0.162   4.405   0.063 -0.1963  0.5961 -0.3457
 1082TIP3    H1 3252   0.102   4.453   0.006  0.4815  1.1247 -0.6266
 1082TIP3    H2 3253   0.160   4.453   0.146 -2.3509 -1.0387  0.6417
 1083TIP3   OH2 3254   3.613   0.188   2.275 -0.0496  0.5194 -0.0806
 1083TIP3    H1 3255   3.613   0.226   2.187  0.0634 -1.0668 -0.7938
 1083TIP3    H2 3256   3.532   0.222   2.314 -1.7611 -1.1502 -1.9219
 1084TIP3   OH2 3257   1.803   6.007   0.708  0.1684 -0.7243 -0.0690
 1084TIP3    H1 3258   1.732   5.952   0.675  1.4018 -2.8073  0.5851
 1084TIP3    H2 3259   1.883   5.960   0.683  1.2345 -0.1112  1.9813
 1085TIP3   OH2 3260   2.079   0.219   5.058  0.2359  0.0437  0.1533
 1085TIP3    H1 3261   2.139   0.146   5.049  1.2428  0.9005 -0.3503
 1085TIP3    H2 3262   2.035   0.205   5.142  0.9087 -0.7584  0.3777
 1086TIP3   OH2 3263   5.192   3.546   1.292 -0.4697 -0.1063 -0.0296
 1086TIP3    H1 3264   5.223   3.505   1.211  1.2569 -0.4098  0.7436
 1086TIP3    H2 3265   5.137   3.618   1.263  0.4628  0.0474 -1.4958
 1087TIP3   OH2 3266   5.578   1.745   2.033 -0.6271 -0.2613  0.2665
 1087TIP3    H1 3267   5.484   1.726   2.029 -0.5913 -0.4513  0.3149
 1087TIP3    H2 3268   5.592   1.812   1.967 -0.8245 -0.1274  0.3597
 1088TIP3   OH2 3269   3.313   2.983   3.679  0.4659 -0.1680 -0.0643
 1088TIP3    H1 3270   3.232   2.934   3.671  0.9944 -1.0423 -0.1770
 1088TIP3    H2 3271   3.343   2.996   3.589 -1.3479  3.3248 -0.3392
 1089TIP3   OH2 3272   4.136   1.371   2.121 -0.0627 -0.7114  0.5916
 1089TIP3    H1 3273   4.214   1.341   2.074 -0.8629 -0.2433 -1.1106
 1089TIP3    H2 3274   4.129   1.464   2.097 -0.3635 -0.3794  1.8796
 1090TIP3   OH2 3275   4.056   5.476   4.809 -0.2359 -0.3074  0.3829
 1090TIP3    H1 3276   4.135   5.434   4.773  0.4506 -1.4055  2.9641
 1090TIP3    H2 3277   3.984   5.438   4.758  0.8465  1.3822 -2.6410
 1091TIP3   OH2 3278   1.669   2.880   2.131  0.0860 -0.5101  0.2324
 1091TIP3    H1 3279   1.646   2.954   2.186  0.5928  0.1809 -0.4634
 1091TIP3    H2 3280   1.760   2.896   2.106 -0.7309  0.3326 -2.5218
 1092TIP3   OH2 3281   0.949   1.663   1.959  0.3337 -0.3735 -0.0484
 1092TIP3    H1 3282   0.933   1.729   2.026 -1.4989 -0.6573 -0.1692
 1092TIP3    H2 3283   1.037   1.683   1.926  0.5120  0.9047  1.1298
 1093TIP3   OH2 3284   2.085   2.119   3.865 -0.3111  0.1392  0.0794
 1093TIP3    H1 3285   2.049   2.054   3.806 -2.2696  1.4955 -0.3331
 1093TIP3    H2 3286   2.046   2.097   3.951  0.1420 -0.0619  0.2335
 1094TIP3   OH2 3287   1.085   0.658   1.912 -0.5304 -0.2673  0.2954
 1094TIP3    H1 3288   1.086   0.753   1.904  0.4573 -0.3584 -0.9519
 1094TIP3    H2 3289   1.003   0.631   1.871 -0.5266  0.0079  0.1074
 1095TIP3   OH2 3290   2.316   2.239   1.731 -0.4626 -0.2502  0.0477
 1095TIP3    H1 3291   2.223   2.217   1.742 -1.1793  1.7216 -1.4061
 1095TIP3    H2 3292   2.317   2.301   1.658  1.5436  2.7003  2.3578
 1096TIP3   OH2 3293   4.726   1.918   4.340 -0.1468  0.2414 -0.1301
 1096TIP3    H1 3294   4.717   1.982   4.411  0.0330  1.6637 -1.3238
 1096TIP3    H2 3295   4.732   1.972   4.260 -0.7715 -1.3026 -1.2711
 1097TIP3   OH2 3296   0.660   0.686   4.292  0.4540 -0.3308  0.3355
 1097TIP3    H1 3297   0.574   0.646   4.306 -1.5870  3.1501 -0.8823
 1097TIP3    H2 3298   0.696   0.639   4.217 -1.5380 -0.3903 -0.6662
 1098TIP3   OH2 3299   2.396   2.380   2.358 -0.3908 -0.0197 -0.4623
 1098TIP3    H1 3300   2.487   2.355   2.377 -0.4761  1.4398  2.5321
 1098TIP3    H2 3301   2.404   2.463   2.312 -0.1508  0.6009  0.6493
 1099TIP3   OH2 3302   6.193   2.325   1.163 -0.4565  0.2937  0.0903
 1099TIP3    H1 3303   6.118   2.289   1.115 -1.2165  1.7893  0.0987
 1099TIP3    H2 3304   6.182   2.292   1.252 -0.8443  0.1019 -0.0265
 1100TIP3   OH2 3305   2.388   1.017   1.824 -0.3331 -0.2679  0.0469
 1100TIP3    H1 3306   2.415   1.078   1.756 -3.9132  2.2733  0.6342
 1100TIP3    H2 3307   2.408   1.062   1.906 -2.4652 -0.0524  0.5015
 1101TIP3   OH2 3308   1.844   4.909   1.648 -0.2894  0.2552  0.2934
 1101TIP3    H1 3309   1.911   4.860   1.695 -0.3993  0.5868  0.8041
 1101TIP3    H2 3310   1.768   4.850   1.646  0.1265 -0.2621 -0.6025
 1102TIP3   OH2 3311   2.701   1.960   2.031  0.1229  0.1555  0.4118
 1102TIP3    H1 3312   2.705   2.016   1.953 -0.4018 -3.1171 -2.1867
 1102TIP3    H2 3313   2.614   1.976   2.068 -0.8917 -0.4791 -1.5836
 1103TIP3   OH2 3314   1.567   1.000   0.323 -0.3417 -0.3978  0.5430
 1103TIP3    H1 3315   1.551   1.018   0.415 -0.5358  0.2685  0.3847
 1103TIP3    H2 3316   1.537   0.910   0.310  0.4317 -0.7837  1.3078
 1104TIP3   OH2 3317   4.368   3.919   2.029  0.5049  0.3866  0.0050
 1104TIP3    H1 3318   4.424   3.987   2.067  0.1173  0.3542  0.6644
 1104TIP3    H2 3319   4.279   3.953   2.039  0.3436  0.0210 -0.1526
 1105TIP3   OH2 3320   4.894   2.469   4.159  0.4268  0.4404  0.3859
 1105TIP3    H1 3321   4.915   2.465   4.252 -0.1403  1.6200  0.5910
 1105TIP3    H2 3322   4.805   2.436   4.152  1.4046 -2.4033 -0.1787
 1106TIP3   OH2 3323   2.609   1.481   3.908 -0.2667 -0.1967 -0.4148
 1106TIP3    H1 3324   2.542   1.416   3.927 -0.6091 -0.0554 -1.1271
 1106TIP3    H2 3325   2.564   1.549   3.858 -0.1995  1.1613  1.2485
 1107TIP3   OH2 3326   4.011   4.504   3.422 -0.3871  0.1361 -0.2019
 1107TIP3    H1 3327   3.973   4.580   3.377  1.0946  0.9843 -0.1125
 1107TIP3    H2 3328   4.074   4.542   3.483  1.7673 -1.2030 -1.4644
 1108TIP3   OH2 3329   1.629   2.888   3.585  0.4503 -0.4289 -0.5084
 1108TIP3    H1 3330   1.551   2.938   3.561 -0.6200 -1.3787  0.8793
 1108TIP3    H2 3331   1.702   2.940   3.550 -0.7534  0.7807 -1.3140
 1109TIP3   OH2 3332   1.170   0.435   2.849 -0.2154 -0.1620  0.4742
 1109TIP3    H1 3333   1.213   0.463   2.768  0.5461  0.9966  1.2498
 1109TIP3    H2 3334   1.076   0.440   2.829 -0.0381 -0.3034 -0.4617
 1110TIP3   OH2 3335   5.094   4.381   5.186  0.3121 -0.0713  0.5249
 1110TIP3    H1 3336   5.049   4.390   5.102  0.4157 -2.0143  0.2104
 1110TIP3    H2 3337   5.046   4.313   5.232  0.1445  1.0958  2.1570
 1111TIP3   OH2 3338   1.060   0.501   4.451  0.2625  0.0538  0.3241
 1111TIP3    H1 3339   1.087   0.524   4.540 -0.6245 -0.4248  0.7250
 1111TIP3    H2 3340   1.131   0.444   4.419  0.5347  0.1380  0.7634
 1112TIP3   OH2 3341   2.632   5.811   5.099 -0.2982  0.3922  0.3282
 1112TIP3    H1 3342   2.697   5.881   5.107 -1.3567  1.3294  1.0594
 1112TIP3    H2 3343   2.606   5.813   5.007  0.9900 -0.2907 -0.0803
 1113TIP3   OH2 3344   2.291   1.317   0.005 -0.3595 -0.3702 -0.1859
 1113TIP3    H1 3345   2.331   1.288   0.087 -2.3216 -1.3674  0.4997
 1113TIP3    H2 3346   2.288   1.412   0.012 -1.2063 -0.4674  1.3217
 1114TIP3   OH2 3347   3.536   3.228   3.941 -0.3200 -0.0975 -0.1017
 1114TIP3    H1 3348   3.526   3.205   4.033  0.1375  1.9583  0.5044
 1114TIP3    H2 3349   3.447   3.226   3.906 -0.5332 -0.5758  0.4496
 1115TIP3   OH2 3350   3.975   5.451   0.891 -0.2426  0.0651  0.4873
 1115TIP3    H1 3351   3.959   5.457   0.985  1.6037 -0.5708  0.8804
 1115TIP3    H2 3352   3.946   5.363   0.866  1.0260 -0.4832  0.8719
 1116TIP3   OH2 3353   3.252   4.630   2.217 -0.2234 -0.8578 -0.0385
 1116TIP3    H1 3354   3.329   4.674   2.183 -0.8194 -1.3502 -2.1343
 1116TIP3    H2 3355   3.210   4.592   2.141 -2.7497 -0.3246  0.9992
 1117TIP3   OH2 3356   5.757   5.852   4.274  0.5193  0.0239  0.2565
 1117TIP3    H1 3357   5.779   5.759   4.283 -0.3016 -0.1342  0.7093
 1117TIP3    H2 3358   5.666   5.852   4.245  0.9544  0.6704 -1.1810
 1118TIP3   OH2 3359   2.248   3.287   0.594  0.5604  0.1023  0.4061
 1118TIP3    H1 3360   2.255   3.345   0.669 -0.0860 -0.5892  1.0181
 1118TIP3    H2 3361   2.318   3.315   0.535  2.5490 -0.7304  2.2209
 1119TIP3   OH2 3362   5.778   4.346   3.129  0.0589  0.0153 -0.2259
 1119TIP3    H1 3363   5.709   4.311   3.074 -0.0564  1.4550 -1.0641
 1119TIP3    H2 3364   5.858   4.335   3.078 -0.1168  1.8174 -0.9754
 1120TIP3   OH2 3365   2.250   4.952   3.467 -0.0797  0.5307 -0.1047
 1120TIP3    H1 3366   2.302   4.878   3.435  0.3955  2.2057 -3.6560
 1120TIP3    H2 3367   2.315   5.015   3.498 -0.2197  1.0290 -0.8152
 1121TIP3   OH2 3368   2.768   0.373   0.747  0.6192  0.5889 -0.2948
 1121TIP3    H1 3369   2.861   0.355   0.734  0.5637 -0.6510  0.8742
 1121TIP3    H2 3370   2.761   0.395   0.840 -0.3895 -0.2884 -0.1469
 1122TIP3   OH2 3371   5.815   5.310   3.778 -0.2471 -0.2997  0.1901
 1122TIP3    H1 3372   5.887   5.317   3.841 -0.1463  0.2168  0.0211
 1122TIP3    H2 3373   5.829   5.225   3.736  0.2854 -0.1907  0.1356
 1123TIP3   OH2 3374   0.563   5.134   2.578 -0.4218 -0.3003  0.4146
 1123TIP3    H1 3375   0.622   5.209   2.580 -1.9340  0.9118  1.5114
 1123TIP3    H2 3376   0.567   5.102   2.488 -0.3774  1.5987 -0.2961
 1124TIP3   OH2 3377   4.239   3.053   2.587  0.3820 -0.5154 -0.4995
 1124TIP3    H1 3378   4.145   3.068   2.596  0.5171  0.4469 -0.6682
 1124TIP3    H2 3379   4.277   3.096   2.664  0.7904  0.1875 -1.0893
 1125TIP3   OH2 3380   2.348   2.579   1.030  0.0193 -0.2775 -0.5438
 1125TIP3    H1 3381   2.399   2.514   0.983 -2.3009 -2.6189 -0.0312
 1125TIP3    H2 3382   2.332   2.540   1.116  0.2019  1.8737  0.5516
 1126TIP3   OH2 3383   2.869   1.476   1.461 -0.5218 -0.0818 -0.4227
 1126TIP3    H1 3384   2.873   1.396   1.514 -1.6079  0.2912  0.2571
 1126TIP3    H2 3385   2.790   1.522   1.492 -1.1156  0.2314 -2.2721
 1127TIP3   OH2 3386   0.054   1.916   5.128 -0.5704  0.3421  0.2985
 1127TIP3    H1 3387   0.017   1.834   5.095  0.6638 -0.4463  0.8182
 1127TIP3    H2 3388   0.146   1.914   5.102 -0.6704  1.8839 -0.2444
 1128TIP3   OH2 3389   0.997   1.825   1.662 -0.2847 -0.8354 -0.0177
 1128TIP3    H1 3390   0.964   1.735   1.658 -2.0056 -0.2137 -0.8069
 1128TIP3    H2 3391   0.927   1.878   1.622  0.4159  0.9287  0.9843
 1129TIP3   OH2 3392   5.406   4.852   0.596 -0.2082  0.4361  0.1150
 1129TIP3    H1 3393   5.434   4.783   0.535 -3.1499 -0.1640 -0.7065
 1129TIP3    H2 3394   5.338   4.811   0.649 -1.1282  2.3370  0.4762
 1130TIP3   OH2 3395   1.624   0.722   1.299 -0.3244  0.1192 -0.5736
 1130TIP3    H1 3396   1.673   0.647   1.265  0.5402  0.0169  0.8250
 1130TIP3    H2 3397   1.630   0.713   1.394 -0.9455  1.4936 -0.3894
 1131TIP3   OH2 3398   0.410   5.669   1.550  0.2323  0.0012  0.3322
 1131TIP3    H1 3399   0.453   5.646   1.467 -0.4231 -0.8984  0.2130
 1131TIP3    H2 3400   0.380   5.759   1.538  0.7041  0.0954 -0.1658
 1132TIP3   OH2 3401   2.907   1.874   4.744  0.1521 -0.0915 -0.3687
 1132TIP3    H1 3402   2.916   1.891   4.650 -1.9064  1.3899 -0.3793
 1132TIP3    H2 3403   2.885   1.781   4.749 -1.2985  0.1429 -1.5427
 1133TIP3   OH2 3404   6.362   4.446   2.768  0.2369  0.1194 -0.1681
 1133TIP3    H1 3405   6.401   4.494   2.841  1.0665 -0.3900 -0.2769
 1133TIP3    H2 3406   6.268   4.461   2.778  0.3451  0.0961  0.9769
 1134TIP3   OH2 3407   1.865   1.460   4.603 -0.0856  0.0661  0.1451
 1134TIP3    H1 3408   1.886   1.397   4.534 -3.5562 -1.0674 -0.0304
 1134TIP3    H2 3409   1.904   1.422   4.682  0.0933 -0.9261 -0.4057
 1135TIP3   OH2 3410   3.261   4.053   0.086  0.0479 -0.3562  0.3444
 1135TIP3    H1 3411   3.208   4.013   0.017  0.4067 -2.8531  1.4034
 1135TIP3    H2 3412   3.352   4.039   0.057  0.2961  3.3111 -1.1418
 1136TIP3   OH2 3413   1.016   1.108   1.613  0.6940 -0.4328  0.2629
 1136TIP3    H1 3414   0.955   1.109   1.539  1.6106 -1.8202 -0.5450
 1136TIP3    H2 3415   1.102   1.096   1.573  1.2851 -0.5188  1.5228
 1137TIP3   OH2 3416   0.068   5.221   4.344  0.4929  0.2823 -0.2580
 1137TIP3    H1 3417   0.151   5.257   4.375  1.9885 -1.2903 -2.2137
 1137TIP3    H2 3418   0.060   5.254   4.254 -2.0822  2.0487  0.5076
 1138TIP3   OH2 3419   3.570   2.689   2.498 -0.0026  0.1942 -0.1794
 1138TIP3    H1 3420   3.662   2.712   2.485 -0.3302  1.0659 -1.0419
 1138TIP3    H2 3421   3.537   2.668   2.411 -0.7714  0.4852  0.0289
 1139TIP3   OH2 3422   2.653   0.964   2.658  0.2412 -0.5931 -0.1309
 1139TIP3    H1 3423   2.691   0.878   2.678  1.1747 -0.2627 -0.4285
 1139TIP3    H2 3424   2.645   0.966   2.563 -0.4324 -0.6119 -0.0799
 1140TIP3   OH2 3425   4.147   2.990   4.110 -0.2887  0.2180 -0.1978
 1140TIP3    H1 3426   4.234   2.952   4.098  0.9782  1.7923  2.9521
 1140TIP3    H2 3427   4.161   3.084   4.111 -1.8176  0.4905  1.3596
 1141TIP3   OH2 3428   5.415  -0.006   1.872 -0.3393  0.0017  0.3313
 1141TIP3    H1 3429   5.362  -0.020   1.794  0.3617 -1.3719  0.0732
 1141TIP3    H2 3430   5.413   0.089   1.886 -1.8693  0.1011 -0.3434
 1142TIP3   OH2 3431   1.276   3.491   1.382 -0.1265 -0.0368 -0.3211
 1142TIP3    H1 3432   1.210   3.546   1.340 -1.3457  0.6106  2.2101
 1142TIP3    H2 3433   1.232   3.456   1.460  2.4101  0.1953  1.3445
 1143TIP3   OH2 3434   0.311   4.901   4.566 -0.0421  0.3177  0.0532
 1143TIP3    H1 3435   0.356   4.959   4.505  1.0025 -0.7634 -0.2306
 1143TIP3    H2 3436   0.312   4.949   4.649 -1.3158  1.7209 -0.6832
 1144TIP3   OH2 3437   1.559   3.020   2.341  0.4945  0.2496  0.1139
 1144TIP3    H1 3438   1.567   2.946   2.401 -1.0009 -0.3761 -0.3971
 1144TIP3    H2 3439   1.561   3.097   2.398  2.6274 -0.1175  0.6010
 1145TIP3   OH2 3440   5.771   4.423   4.287  0.5835 -0.1653 -0.1195
 1145TIP3    H1 3441   5.685   4.452   4.318 -0.1242  0.5050 -2.5279
 1145TIP3    H2 3442   5.788   4.343   4.337  0.8707  2.1427  3.9617
 1146TIP3   OH2 3443   6.117   2.638  -0.012 -0.4539  0.3398 -0.3784
 1146TIP3    H1 3444   6.160   2.553  -0.003  1.2199  1.1357 -0.4716
 1146TIP3    H2 3445   6.109   2.670   0.077 -3.0950 -0.7881 -0.1063
 1147TIP3   OH2 3446   2.124   1.619   0.074  0.3430 -0.1212 -0.4303
 1147TIP3    H1 3447   2.054   1.556   0.094 -0.5046  0.0155 -2.7260
 1147TIP3    H2 3448   2.193   1.597   0.137 -0.9653 -1.5672  0.6035
 1148TIP3   OH2 3449   2.655   2.231   0.259 -0.2623 -0.2419 -0.5927
 1148TIP3    H1 3450   2.688   2.198   0.174  0.6744 -2.0085  0.3855
 1148TIP3    H2 3451   2.734   2.237   0.314 -0.7737  1.4713 -0.0041
 1149TIP3   OH2 3452   5.563   5.689   2.464 -0.8943  0.5112 -0.1383
 1149TIP3    H1 3453   5.512   5.741   2.402 -1.8449 -1.6966 -1.3446
 1149TIP3    H2 3454   5.654   5.701   2.437 -1.2724 -0.2265 -1.8805
 1150TIP3   OH2 3455   4.003   5.870   0.171 -0.2228  0.4134  0.6131
 1150TIP3    H1 3456   3.979   5.777   0.171 -0.0741  0.3634 -0.9352
 1150TIP3    H2 3457   4.091   5.872   0.208 -0.1981 -0.0680  0.5865
 1151TIP3   OH2 3458   2.996   5.128   4.948  0.2318  0.4378  0.4732
 1151TIP3    H1 3459   3.026   5.123   4.858  0.5990  1.6259  0.5071
 1151TIP3    H2 3460   3.068   5.170   4.996 -1.0814  2.6578  0.6974
 1152TIP3   OH2 3461   2.999   3.087   1.027  0.2955  0.0539  0.3243
 1152TIP3    H1 3462   3.067   3.057   0.967  0.3296 -0.2284  0.5011
 1152TIP3    H2 3463   2.929   3.023   1.017 -0.4925  1.0469 -0.8085
 1153TIP3   OH2 3464   2.632   0.027   4.577 -0.2516  0.4175 -0.0042
 1153TIP3    H1 3465   2.699  -0.018   4.525 -0.7975 -0.8339  0.3463
 1153TIP3    H2 3466   2.552   0.021   4.525 -0.4637  0.4648  0.3114
 1154TIP3   OH2 3467   2.437   5.187   2.486 -0.2432  0.0063 -0.6206
 1154TIP3    H1 3468   2.470   5.276   2.472  0.9078 -0.6005 -1.9610
 1154TIP3    H2 3469   2.473   5.162   2.572  0.7012  0.2983 -0.9152
 1155TIP3   OH2 3470   1.968   0.300   4.316  0.2626  0.7439  0.4134
 1155TIP3    H1 3471   1.928   0.347   4.389  1.0990  1.3847  0.4814
 1155TIP3    H2 3472   1.938   0.346   4.238  0.6911  1.0975  0.4532
 1156TIP3   OH2 3473   6.016   5.480   3.187  0.1043 -0.4843 -0.8327
 1156TIP3    H1 3474   5.932   5.439   3.163 -0.7199  0.6106  0.0730
 1156TIP3    H2 3475   5.999   5.520   3.272  1.3978  0.2452 -0.9076
 1157TIP3   OH2 3476   2.745   0.131   0.491 -0.2212  0.3759 -0.2864
 1157TIP3    H1 3477   2.724   0.216   0.451 -1.0709  1.4628  2.2732
 1157TIP3    H2 3478   2.835   0.113   0.464 -0.1676  1.8568 -1.2304
 1158TIP3   OH2 3479   3.511   5.294   3.181  0.7489  0.1487  0.4327
 1158TIP3    H1 3480   3.491   5.371   3.234 -0.5063 -0.0709  0.3072
 1158TIP3    H2 3481   3.432   5.240   3.186 -0.6134  1.3898 -3.8691
 1159TIP3   OH2 3482   5.489   4.654   3.565  0.4759 -0.3579 -0.8281
 1159TIP3    H1 3483   5.444   4.661   3.649  1.3745 -1.2641 -0.2357
 1159TIP3    H2 3484   5.552   4.726   3.565 -0.2722  0.3100 -1.2236
 1160TIP3   OH2 3485   3.402   5.914   0.495  0.0644  0.2690 -0.0846
 1160TIP3    H1 3486   3.355   5.831   0.492  0.5556 -0.0435  0.6716
 1160TIP3    H2 3487   3.365   5.964   0.423  0.1085 -0.7901 -0.8694
 1161TIP3   OH2 3488   6.120   2.356   2.393 -0.3301 -0.4020 -0.1845
 1161TIP3    H1 3489   6.106   2.389   2.482 -0.7534 -1.1376  0.0272
 1161TIP3    H2 3490   6.209   2.384   2.371  0.3110 -1.4198  1.0068
 1162TIP3   OH2 3491   5.064   2.989   2.355  0.0661  0.1475  0.1576
 1162TIP3    H1 3492   4.968   2.986   2.353  0.0648 -3.6523  0.0789
 1162TIP3    H2 3493   5.084   3.030   2.440 -1.5837  0.7104  0.3257
 1163TIP3   OH2 3494   5.021   0.553   2.764  0.5180 -0.5302 -0.5614
 1163TIP3    H1 3495   5.031   0.552   2.668 -1.2913 -0.1260 -0.7782
 1163TIP3    H2 3496   4.929   0.531   2.779  0.7333 -0.3948  1.0918
 1164TIP3   OH2 3497   3.237   5.914   2.229 -0.5367 -0.1214  0.9802
 1164TIP3    H1 3498   3.320   5.915   2.182 -1.5187  1.2354 -0.9053
 1164TIP3    H2 3499   3.203   5.825   2.216 -0.6056  0.1091 -0.6664
 1165TIP3   OH2 3500   3.006   1.908   1.989 -0.0903  0.0702  0.0935
 1165TIP3    H1 3501   2.923   1.950   2.009  1.3546  1.8522  3.1066
 1165TIP3    H2 3502   3.060   1.978   1.951  0.5415 -0.6532 -0.3851
 1166TIP3   OH2 3503   1.409   1.072   5.194  0.1164 -0.3181  0.3605
 1166TIP3    H1 3504   1.406   1.154   5.144 -1.0397 -0.5300  0.0443
 1166TIP3    H2 3505   1.499   1.042   5.187  0.3698  0.5349 -0.1660
 1167TIP3   OH2 3506   3.194   5.504   4.141 -0.0224 -0.0997 -0.2268
 1167TIP3    H1 3507   3.152   5.589   4.157  1.0428  0.8445 -2.1389
 1167TIP3    H2 3508   3.123   5.440   4.147 -1.2023  1.1423 -0.6499
 1168TIP3   OH2 3509   4.583   3.062   2.595  0.5823  0.3451  0.4222
 1168TIP3    H1 3510   4.501   3.015   2.609  0.4188  0.3173 -0.6090
 1168TIP3    H2 3511   4.590   3.120   2.671 -0.6709  0.7459  0.2509
 1169TIP3   OH2 3512   5.503   0.559   4.925 -0.3538  0.2927 -0.1383
 1169TIP3    H1 3513   5.541   0.564   4.837  0.3212  2.1657  0.2065
 1169TIP3    H2 3514   5.459   0.643   4.937 -0.8446 -0.1213  1.1443
 1170TIP3   OH2 3515   0.063   3.005   3.306 -0.1190 -0.1023 -0.1536
 1170TIP3    H1 3516   0.114   3.024   3.228 -1.4340 -0.0516 -1.0301
 1170TIP3    H2 3517  -0.028   2.998   3.275 -0.7273  0.2852  1.4162
 1171TIP3   OH2 3518   5.831   0.370   1.173 -0.1525  0.1736  0.0912
 1171TIP3    H1 3519   5.896   0.304   1.196 -0.3817 -0.3604 -0.7902
 1171TIP3    H2 3520   5.751   0.343   1.218 -0.6031 -0.8790 -1.2820
 1172TIP3   OH2 3521   1.190   2.176   0.272  0.1720 -0.3879 -0.2293
 1172TIP3    H1 3522   1.209   2.179   0.178  0.9255 -1.5547 -0.1225
 1172TIP3    H2 3523   1.271   2.206   0.314 -0.6373  1.5794  0.0384
 1173TIP3   OH2 3524   4.223   1.800   4.254  0.2108  0.0412 -0.6039
 1173TIP3    H1 3525   4.300   1.829   4.303  0.6879 -0.7425 -0.8766
 1173TIP3    H2 3526   4.200   1.715   4.292 -0.8914  0.5329 -0.1294
 1174TIP3   OH2 3527   3.829   3.491   1.343  0.5542  0.1336  0.0475
 1174TIP3    H1 3528   3.830   3.404   1.384 -1.7705  1.3099  2.9903
 1174TIP3    H2 3529   3.761   3.485   1.276 -0.5961 -0.0231  1.1870
 1175TIP3   OH2 3530   0.952   0.023   4.555  0.2036 -0.3829 -0.2721
 1175TIP3    H1 3531   0.981   0.062   4.638  0.3369 -2.7680  0.8675
 1175TIP3    H2 3532   1.027   0.036   4.496  0.3399  0.8055  0.1230
 1176TIP3   OH2 3533   0.834   6.000   0.947 -0.1128 -0.0134  0.0513
 1176TIP3    H1 3534   0.759   6.040   0.990 -0.3357 -0.7162  0.3325
 1176TIP3    H2 3535   0.814   5.906   0.947  0.1356 -0.0868 -1.0808
 1177TIP3   OH2 3536   2.228   3.497   0.377  0.5000 -0.4996 -0.1456
 1177TIP3    H1 3537   2.173   3.556   0.428  1.0809  1.6503 -1.8565
 1177TIP3    H2 3538   2.313   3.541   0.373  1.1290 -1.7233 -1.0414
 1178TIP3   OH2 3539   5.989   5.595   3.833  0.5094  0.2635 -0.2024
 1178TIP3    H1 3540   6.067   5.626   3.878  0.4119  0.6601 -0.3022
 1178TIP3    H2 3541   5.917   5.620   3.892  0.0135  4.0124 -2.0966
 1179TIP3   OH2 3542   0.515   1.062   3.497  0.1228 -0.2039 -1.1842
 1179TIP3    H1 3543   0.556   1.129   3.442  1.9380 -1.3409 -1.2924
 1179TIP3    H2 3544   0.490   0.993   3.436  1.9522 -1.3784 -0.7030
 1180TIP3   OH2 3545   2.711   2.010   2.923  0.6527  0.2189 -0.2735
 1180TIP3    H1 3546   2.736   1.986   3.012  1.5736 -1.9330 -1.0490
 1180TIP3    H2 3547   2.665   1.933   2.889 -0.7076  1.4229 -1.3066
 1181TIP3   OH2 3548   2.250   1.598   1.205  0.3331  0.1829 -0.1120
 1181TIP3    H1 3549   2.343   1.621   1.209 -0.2927  3.2002 -0.4555
 1181TIP3    H2 3550   2.216   1.649   1.131 -1.8119  0.1223  0.7510
 1182TIP3   OH2 3551   3.294   3.818   3.200 -0.6435  0.8727  0.6042
 1182TIP3    H1 3552   3.343   3.852   3.125 -2.4771  2.6857  0.1154
 1182TIP3    H2 3553   3.238   3.891   3.226 -2.5807 -0.8426  1.5230
 1183TIP3   OH2 3554   0.273   3.387   3.817 -0.0714 -0.0116 -0.2391
 1183TIP3    H1 3555   0.309   3.334   3.746  0.3214 -0.8663  0.5812
 1183TIP3    H2 3556   0.195   3.428   3.778 -0.9012 -1.8725 -0.6786
 1184TIP3   OH2 3557   1.543   5.481   2.222 -0.0082 -0.4497  0.4879
 1184TIP3    H1 3558   1.509   5.407   2.173  2.9978 -1.4245 -0.3858
 1184TIP3    H2 3559   1.618   5.445   2.270  0.5405  1.6727  1.3307
 1185TIP3   OH2 3560   5.817   5.624   4.050 -0.2527 -0.3202 -0.0505
 1185TIP3    H1 3561   5.865   5.631   4.133 -0.1599  2.5456 -0.2582
 1185TIP3    H2 3562   5.727   5.605   4.077 -0.0964 -0.0934  0.6612
 1186TIP3   OH2 3563   0.931   4.659   0.165  0.3551  0.0161  0.3137
 1186TIP3    H1 3564   0.988   4.712   0.220  1.9742  0.5495 -1.7683
 1186TIP3    H2 3565   0.860   4.719   0.139  1.1393  0.6188 -0.4784
 1187TIP3   OH2 3566   3.160   2.719   1.529 -0.1022  0.2795  0.1668
 1187TIP3    H1 3567   3.185   2.812   1.528 -0.6818  0.5094  2.1165
 1187TIP3    H2 3568   3.236   2.674   1.566  0.0423  0.0289 -0.4351
 1188TIP3   OH2 3569   4.331   2.284   3.686 -0.6567 -0.4459  0.1283
 1188TIP3    H1 3570   4.424   2.262   3.681  0.0882  2.4492 -0.3203
 1188TIP3    H2 3571   4.313   2.330   3.604 -2.2413 -0.0951  0.6488
 1189TIP3   OH2 3572   1.800   2.200   4.972 -0.2641  0.8906 -0.1808
 1189TIP3    H1 3573   1.884   2.216   5.016  2.5389 -1.1075 -4.1290
 1189TIP3    H2 3574   1.812   2.237   4.885 -3.8070  0.9780 -0.7572
 1190TIP3   OH2 3575   4.595   4.571   2.491  0.5377 -0.4823  0.3655
 1190TIP3    H1 3576   4.568   4.479   2.489  0.1684 -0.3611 -0.6838
 1190TIP3    H2 3577   4.596   4.594   2.584 -0.8641 -1.1058  0.5468
 1191TIP3   OH2 3578   2.579   4.213   4.106 -0.2846  0.0288  0.7343
 1191TIP3    H1 3579   2.660   4.236   4.151  0.8010 -0.6696 -0.7640
 1191TIP3    H2 3580   2.596   4.126   4.069 -1.6470 -0.0497  0.2271
 1192TIP3   OH2 3581   3.728   2.864   3.311  0.1908 -0.1568 -0.1419
 1192TIP3    H1 3582   3.687   2.949   3.328 -0.3659 -0.5864  0.7026
 1192TIP3    H2 3583   3.773   2.876   3.227  0.4565  1.0862  0.1543
 1193TIP3   OH2 3584   1.117   5.068   2.924 -0.3902 -0.6654  0.0623
 1193TIP3    H1 3585   1.025   5.069   2.951 -0.6117  0.9660 -0.6371
 1193TIP3    H2 3586   1.115   5.045   2.831  0.0122 -1.6867  0.2900
 1194TIP3   OH2 3587   4.376   2.157   3.257  0.3818 -0.5726  0.7890
 1194TIP3    H1 3588   4.389   2.235   3.310  0.0610 -0.7893  1.1883
 1194TIP3    H2 3589   4.407   2.085   3.312  1.0760 -0.6845  0.2616
 1195TIP3   OH2 3590   3.641   0.044   1.649 -0.2036 -0.0827  0.1223
 1195TIP3    H1 3591   3.642   0.102   1.573 -0.4717 -1.2406 -0.7958
 1195TIP3    H2 3592   3.693  -0.032   1.622 -0.0559 -0.3907  1.2051
 1196TIP3   OH2 3593   1.770   5.903   1.368  0.7226  0.2164  0.1392
 1196TIP3    H1 3594   1.824   5.979   1.390  1.6502 -0.0904 -0.9956
 1196TIP3    H2 3595   1.790   5.884   1.276 -0.8998 -0.2654 -0.1517
 1197TIP3   OH2 3596   4.350   5.784   4.894 -0.2810 -1.2426 -0.8713
 1197TIP3    H1 3597   4.423   5.812   4.839 -0.4973 -0.4315 -0.7649
 1197TIP3    H2 3598   4.391   5.754   4.975 -0.0590 -0.7381 -0.7901
 1198TIP3   OH2 3599   3.129   1.882   1.156  0.9303 -0.2801  0.5581
 1198TIP3    H1 3600   3.037   1.888   1.183  0.3552 -0.1724 -1.2394
 1198TIP3    H2 3601   3.174   1.948   1.208 -0.5249  1.5788 -0.3899
 1199TIP3   OH2 3602   0.751   5.971   2.567  0.0142 -0.4643 -0.2011
 1199TIP3    H1 3603   0.707   5.908   2.510 -0.8052  0.6544 -0.8421
 1199TIP3    H2 3604   0.827   6.000   2.517  0.1922 -0.6550 -0.0488
 1200TIP3   OH2 3605   0.177   2.173   2.250 -0.3985 -0.0763  0.1136
 1200TIP3    H1 3606   0.247   2.109   2.237 -0.4154  0.2294 -1.6909
 1200TIP3    H2 3607   0.124   2.136   2.320  0.8179 -0.9589  0.6062
 1201TIP3   OH2 3608   2.966   3.652   5.130 -0.3548  0.4326  0.2448
 1201TIP3    H1 3609   3.006   3.566   5.143 -1.1529 -0.0998 -0.6090
 1201TIP3    H2 3610   2.971   3.694   5.215  1.4291  0.1575  0.3060
 1202TIP3   OH2 3611   5.872   2.951   0.666  0.0172 -0.3286 -0.1528
 1202TIP3    H1 3612   5.952   2.899   0.668 -0.3998 -0.9702  1.4370
 1202TIP3    H2 3613   5.851   2.966   0.758 -1.1165  0.7388 -0.5602
 1203TIP3   OH2 3614   4.382   1.038   0.281 -0.0578 -0.0173  0.2119
 1203TIP3    H1 3615   4.327   1.047   0.203  1.1583  0.1049 -0.6591
 1203TIP3    H2 3616   4.443   0.968   0.259 -0.2612 -0.5874  1.4106
 1204TIP3   OH2 3617   5.137   5.740   3.370 -0.1239  0.0401 -0.1488
 1204TIP3    H1 3618   5.102   5.793   3.298 -2.0167 -0.3572  0.4368
 1204TIP3    H2 3619   5.062   5.690   3.402  0.5657  0.4838  2.3705
 1205TIP3   OH2 3620   3.857   5.137   0.150  0.8595  0.4225  0.0746
 1205TIP3    H1 3621   3.861   5.061   0.092  0.9928  0.9638 -0.6347
 1205TIP3    H2 3622   3.831   5.210   0.094 -0.2902  0.7226  0.9401
 1206TIP3   OH2 3623   3.208   0.618   1.620 -0.5472  0.5255  0.0404
 1206TIP3    H1 3624   3.266   0.653   1.688  2.9887 -0.9837 -1.9153
 1206TIP3    H2 3625   3.146   0.563   1.667  0.7231  0.8110  2.1704
 1207TIP3   OH2 3626   4.877   0.150   0.397  0.1738  0.1049 -0.3265
 1207TIP3    H1 3627   4.844   0.157   0.486  0.2663  1.7384 -0.3828
 1207TIP3    H2 3628   4.801   0.169   0.341  0.3668  0.2024 -0.5580
 1208TIP3   OH2 3629   6.284   0.251   4.523 -0.8258  0.6583  0.0991
 1208TIP3    H1 3630   6.278   0.284   4.613  0.4392  1.4764 -0.0802
 1208TIP3    H2 3631   6.366   0.288   4.491  0.0135 -1.6685 -0.5741
 1209TIP3   OH2 3632   2.316   4.225   4.153 -0.2363 -0.0046  0.1851
 1209TIP3    H1 3633   2.326   4.306   4.203 -0.0934 -0.4578  0.8918
 1209TIP3    H2 3634   2.404   4.188   4.151 -0.8506 -1.8141  2.7109
 1210TIP3   OH2 3635   2.095   1.624   1.428  0.0366 -0.1602 -0.0790
 1210TIP3    H1 3636   2.031   1.554   1.413  0.2727 -0.3832 -0.0464
 1210TIP3    H2 3637   2.156   1.617   1.355 -0.6162  0.7907 -0.7540
 1211TIP3   OH2 3638   6.360   3.782   0.029 -0.3536  0.2226  0.4080
 1211TIP3    H1 3639   6.307   3.710   0.063  0.6451 -0.2766  0.9645
 1211TIP3    H2 3640   6.305   3.859   0.037 -0.7968 -0.1890  1.4906
 1212TIP3   OH2 3641   3.739   1.428   0.879 -0.4373  0.1630  0.0200
 1212TIP3    H1 3642   3.823   1.474   0.876 -0.6447  0.5559  0.1332
 1212TIP3    H2 3643   3.691   1.462   0.804 -0.6642  0.2698  0.2141
 1213TIP3   OH2 3644   5.289   5.403   0.198 -0.1717  0.0082 -0.3099
 1213TIP3    H1 3645   5.240   5.411   0.116 -1.8806 -1.4832  0.4803
 1213TIP3    H2 3646   5.233   5.348   0.253  1.3233  0.2678  1.5552
 1214TIP3   OH2 3647   1.793   5.816   2.782 -0.1767  0.4690  0.1485
 1214TIP3    H1 3648   1.876   5.768   2.793  1.3190  2.8497  0.0314
 1214TIP3    H2 3649   1.777   5.814   2.687  0.9322  1.7301 -0.1052
 1215TIP3   OH2 3650   5.143   1.410   2.211  0.1055 -0.3722  0.1449
 1215TIP3    H1 3651   5.078   1.376   2.273 -0.0406 -1.9586 -0.8221
 1215TIP3    H2 3652   5.093   1.426   2.131  0.5584  0.2571 -0.0143
 1216TIP3   OH2 3653   4.318   3.208   2.395 -0.1798  0.1398 -0.6129
 1216TIP3    H1 3654   4.283   3.158   2.468 -2.3999  2.6706  0.2060
 1216TIP3    H2 3655   4.262   3.185   2.321 -0.2556  0.2894 -0.6025
 1217TIP3   OH2 3656   1.530   5.398   3.481  0.0085  0.1537  0.2231
 1217TIP3    H1 3657   1.560   5.334   3.417 -1.4751  0.2048 -0.5699
 1217TIP3    H2 3658   1.506   5.474   3.429  0.3883  0.8341  1.0232
 1218TIP3   OH2 3659   0.772   2.393   1.439  0.5146  0.5874  0.1365
 1218TIP3    H1 3660   0.713   2.317   1.444 -0.0541  0.9932 -0.3504
 1218TIP3    H2 3661   0.739   2.453   1.505  0.2264  0.9235 -0.3125
 1219TIP3   OH2 3662   6.297   5.090   4.539  0.3921 -0.3929  0.3043
 1219TIP3    H1 3663   6.324   5.165   4.485  0.5050 -0.3655  0.3999
 1219TIP3    H2 3664   6.202   5.085   4.526  0.3527 -0.1031  0.4635
 1220TIP3   OH2 3665   0.909   1.766   1.273 -0.4089  0.4429 -0.1535
 1220TIP3    H1 3666   0.867   1.705   1.334  0.4614  0.2770  0.3037
 1220TIP3    H2 3667   0.839   1.795   1.216 -1.3082  0.7882  1.0849
 1221TIP3   OH2 3668   2.736   4.287   0.260 -0.0695 -0.0038 -0.7806
 1221TIP3    H1 3669   2.788   4.332   0.326 -1.5070 -1.3005  1.3676
 1221TIP3    H2 3670   2.648   4.323   0.270 -0.0586  0.7974 -3.0338
 1222TIP3   OH2 3671   1.917   4.879   4.233  0.1971 -0.7092  0.0981
 1222TIP3    H1 3672   1.853   4.913   4.170  1.1204 -2.0258 -1.6232
 1222TIP3    H2 3673   1.956   4.958   4.271 -0.2236  0.1328 -1.1422
 1223TIP3   OH2 3674   5.163   0.174   0.141  0.7122 -0.2365  0.6896
 1223TIP3    H1 3675   5.148   0.243   0.076 -1.0508 -0.1986  1.0605
 1223TIP3    H2 3676   5.121   0.097   0.104 -1.8665  0.2004  2.4051
 1224TIP3   OH2 3677   4.570   5.445   2.881  0.3069  0.2557  0.6555
 1224TIP3    H1 3678   4.652   5.435   2.832  0.2149  1.7624  0.1450
 1224TIP3    H2 3679   4.506   5.393   2.832  0.7743 -0.2658  0.5945
 1225TIP3   OH2 3680   5.426   1.357   4.733 -0.1401  0.3401  0.1065
 1225TIP3    H1 3681   5.429   1.452   4.722  2.6052  0.7955  3.2273
 1225TIP3    H2 3682   5.480   1.323   4.663  0.4975  1.2792  0.1289
 1226TIP3   OH2 3683   5.809   3.627   1.372  0.0082  0.2117 -0.1844
 1226TIP3    H1 3684   5.900   3.645   1.350 -0.4048 -1.0154 -3.5000
 1226TIP3    H2 3685   5.812   3.556   1.435  1.3437  0.2179 -0.2216
 1227TIP3   OH2 3686   0.925   3.746   3.662  0.3196  0.1776 -0.5553
 1227TIP3    H1 3687   0.839   3.763   3.624 -0.8733 -0.3495  1.7258
 1227TIP3    H2 3688   0.939   3.817   3.725  1.0733 -0.3273 -0.1310
 1228TIP3   OH2 3689   1.894   0.802   3.335  0.0887 -0.7829  0.3272
 1228TIP3    H1 3690   1.962   0.755   3.383  0.4092 -0.4526  0.2073
 1228TIP3    H2 3691   1.867   0.872   3.394  1.3632  0.3910 -0.4218
 1229TIP3   OH2 3692   2.427   2.878   2.483 -0.1706 -0.3524  0.1434
 1229TIP3    H1 3693   2.335   2.872   2.454 -0.2982 -2.5583  0.8234
 1229TIP3    H2 3694   2.444   2.795   2.526  1.0359  1.4441  3.4756
 1230TIP3   OH2 3695   5.253   4.558   0.050 -0.9499 -0.3089  0.5244
 1230TIP3    H1 3696   5.348   4.549   0.052 -0.7780  1.1962  1.2881
 1230TIP3    H2 3697   5.224   4.496  -0.017  0.6618 -0.0095 -0.5149
 1231TIP3   OH2 3698   4.966   1.709   4.625 -0.1039  0.0930  0.3036
 1231TIP3    H1 3699   4.966   1.627   4.675  0.8023 -1.1689 -1.6369
 1231TIP3    H2 3700   4.880   1.712   4.584 -1.2883  1.6978  2.6491
 1232TIP3   OH2 3701   0.457   1.736   4.639  0.0699  0.8229  0.6220
 1232TIP3    H1 3702   0.538   1.770   4.600 -0.4148  1.9948  0.6024
 1232TIP3    H2 3703   0.401   1.716   4.564 -0.4514  2.0453  0.6659
 1233TIP3   OH2 3704   5.497   2.069   0.777  0.1581 -0.0753  0.2113
 1233TIP3    H1 3705   5.419   2.047   0.829 -1.1800  0.8841 -1.3048
 1233TIP3    H2 3706   5.528   1.985   0.744 -0.4364 -0.4398  0.5535
 1234TIP3   OH2 3707   4.352   0.275   1.473 -0.0209  0.4018 -0.8083
 1234TIP3    H1 3708   4.330   0.283   1.566  0.8552 -0.4441 -0.5115
 1234TIP3    H2 3709   4.371   0.365   1.446 -1.0010  0.7577 -0.3637
 1235TIP3   OH2 3710   3.765   5.869   3.847  0.0254 -0.4156 -0.5755
 1235TIP3    H1 3711   3.790   5.790   3.894  0.4441  0.0587  0.0149
 1235TIP3    H2 3712   3.829   5.875   3.776 -0.5877 -1.1124 -1.2147
 1236TIP3   OH2 3713   1.392   3.953   0.539 -0.0020  0.2358  0.3425
 1236TIP3    H1 3714   1.481   3.980   0.562  0.2256 -1.2714  1.3717
 1236TIP3    H2 3715   1.353   4.030   0.498  1.6218  1.0657  0.2977
 1237TIP3   OH2 3716   0.871   0.379   2.826 -0.5527  0.1255 -0.1256
 1237TIP3    H1 3717   0.894   0.289   2.806  0.3125  0.4249 -0.5401
 1237TIP3    H2 3718   0.808   0.404   2.758 -2.0927 -0.6638  0.9491
 1238TIP3   OH2 3719   0.449   0.800   5.191  0.2329 -0.0372 -0.7091
 1238TIP3    H1 3720   0.478   0.848   5.114  0.2428 -1.1873 -1.4510
 1238TIP3    H2 3721   0.440   0.867   5.259 -0.2780  1.0917 -1.8367
 1239TIP3   OH2 3722   5.441   1.419   0.701  0.2993  0.5368 -0.5659
 1239TIP3    H1 3723   5.449   1.390   0.610  0.4298 -0.8995 -0.1184
 1239TIP3    H2 3724   5.514   1.378   0.746  1.5065  2.9389 -0.1770
 1240TIP3   OH2 3725   2.779   3.465   0.453 -0.2699 -0.2731 -0.2778
 1240TIP3    H1 3726   2.847   3.424   0.507  0.8226  0.6523 -0.8848
 1240TIP3    H2 3727   2.697   3.430   0.486  0.2902  0.7419  2.4399
 1241TIP3   OH2 3728   2.114   2.005   1.049 -0.0455 -0.1726 -0.0015
 1241TIP3    H1 3729   2.197   2.026   1.008  0.4882 -0.4940  0.8760
 1241TIP3    H2 3730   2.103   1.911   1.035  0.5194 -0.4395  1.2135
 1242TIP3   OH2 3731   5.452   4.223   3.246 -0.8433  0.0589  0.2218
 1242TIP3    H1 3732   5.456   4.127   3.239 -0.4071 -0.0812  1.8693
 1242TIP3    H2 3733   5.502   4.255   3.171 -1.2623 -1.0016 -0.5256
 1243TIP3   OH2 3734   5.536   4.221   4.236  0.2340 -0.6212 -0.5156
 1243TIP3    H1 3735   5.495   4.156   4.293 -0.1913  0.0896  0.0112
 1243TIP3    H2 3736   5.594   4.270   4.294 -0.8724  0.6957 -0.4728
 1244TIP3   OH2 3737   1.865   1.460   1.869  0.0380  0.3488  0.7117
 1244TIP3    H1 3738   1.890   1.369   1.850 -0.6355  0.2223  0.4196
 1244TIP3    H2 3739   1.948   1.504   1.886  0.5621  0.1102 -1.0281
 1245TIP3   OH2 3740   3.910   3.855   3.512  0.0707 -0.0804 -0.3419
 1245TIP3    H1 3741   3.911   3.765   3.545 -0.1793 -0.2037 -0.6546
 1245TIP3    H2 3742   3.982   3.859   3.448 -0.2184 -0.2024 -0.6820
 1246TIP3   OH2 3743   0.824   5.387   1.617 -0.2746 -0.2714 -0.1289
 1246TIP3    H1 3744   0.754   5.404   1.554  0.0700  0.3039 -0.3656
 1246TIP3    H2 3745   0.828   5.292   1.623 -1.6548 -0.3161  0.5448
 1247TIP3   OH2 3746   4.447   1.663   2.194  0.2039 -0.1626  0.3928
 1247TIP3    H1 3747   4.406   1.748   2.211 -0.6688 -0.3592 -0.6348
 1247TIP3    H2 3748   4.445   1.618   2.278 -1.0195  0.1223  0.5377
 1248TIP3   OH2 3749   5.816   1.658   1.749 -0.1940 -0.6528  0.2543
 1248TIP3    H1 3750   5.855   1.622   1.828  0.9135  0.2573  0.1456
 1248TIP3    H2 3751   5.759   1.728   1.780  0.3815 -0.1747  0.2478
 1249TIP3   OH2 3752   3.358   2.198   0.555  0.3847 -0.4174  0.1117
 1249TIP3    H1 3753   3.311   2.115   0.544  0.0718 -0.4450  1.5368
 1249TIP3    H2 3754   3.346   2.243   0.471 -2.3390 -0.3505  0.4593
 1250TIP3   OH2 3755   3.438   3.895   2.978 -0.2061  0.4441 -0.1589
 1250TIP3    H1 3756   3.394   3.904   2.894  1.0428  1.2269 -0.7600
 1250TIP3    H2 3757   3.441   3.984   3.013  2.2263  0.7231 -0.8712
 1251TIP3   OH2 3758   5.843   2.601   3.961  0.4669 -0.4151  0.6679
 1251TIP3    H1 3759   5.867   2.510   3.944  1.3735 -0.2177  0.8440
 1251TIP3    H2 3760   5.907   2.631   4.025  1.8520  1.1192 -1.2869
 1252TIP3   OH2 3761   5.679   4.712   0.221 -0.0622 -0.2175  0.0990
 1252TIP3    H1 3762   5.704   4.663   0.299  1.0050  0.1908  0.0233
 1252TIP3    H2 3763   5.586   4.731   0.233 -0.3963 -1.8430  0.3522
 1253TIP3   OH2 3764   3.436   3.706   1.071  0.5514 -0.1657 -0.1471
 1253TIP3    H1 3765   3.453   3.684   0.980  0.5236  0.6174 -0.3532
 1253TIP3    H2 3766   3.432   3.622   1.116 -1.8257 -0.7723 -1.2809
 1254TIP3   OH2 3767   1.173   5.606   0.050  0.4245  0.6427 -0.2072
 1254TIP3    H1 3768   1.103   5.669   0.067  0.4839  1.6372 -3.1310
 1254TIP3    H2 3769   1.161   5.581  -0.041  3.9049  0.9585 -0.9018
 1255TIP3   OH2 3770   1.769   4.697   3.478  0.0833  0.1869  0.0202
 1255TIP3    H1 3771   1.804   4.723   3.393 -0.3916 -0.9185 -0.5328
 1255TIP3    H2 3772   1.808   4.611   3.495  0.9617  0.8197  1.4103
 1256TIP3   OH2 3773   0.811   1.955   4.120 -0.1384  0.0814  0.0582
 1256TIP3    H1 3774   0.786   2.046   4.133 -1.8693 -0.0269 -1.9811
 1256TIP3    H2 3775   0.885   1.958   4.059 -1.5751  0.1073 -1.7509
 1257TIP3   OH2 3776   1.232   4.070   0.157  0.1377 -0.1490 -0.2086
 1257TIP3    H1 3777   1.300   4.011   0.190 -1.2112 -2.1479 -0.7908
 1257TIP3    H2 3778   1.213   4.038   0.068 -1.2866  0.5676 -0.1984
 1258TIP3   OH2 3779   0.331   1.174   4.709  0.3546  0.1413 -0.3829
 1258TIP3    H1 3780   0.416   1.202   4.676  0.5555 -0.3622 -0.2841
 1258TIP3    H2 3781   0.328   1.080   4.693 -0.5532  0.2967 -1.2214
 1259TIP3   OH2 3782   0.860   0.110   3.332 -0.2714 -0.4698 -0.1824
 1259TIP3    H1 3783   0.799   0.182   3.314  0.7500  0.6941  0.8122
 1259TIP3    H2 3784   0.946   0.152   3.337  0.3166 -1.7117  0.7642
 1260TIP3   OH2 3785   1.565   5.315   4.454  0.0771 -0.0472 -0.3488
 1260TIP3    H1 3786   1.551   5.346   4.544 -4.0233 -1.6957 -0.2249
 1260TIP3    H2 3787   1.595   5.225   4.465  2.4675  0.6082 -0.7703
 1261TIP3   OH2 3788   4.557   4.686   4.074 -0.7944  0.0815  0.3120
 1261TIP3    H1 3789   4.497   4.644   4.135 -2.4433  0.6237 -0.8891
 1261TIP3    H2 3790   4.582   4.768   4.116  0.6671 -1.0023  1.6638
 1262TIP3   OH2 3791   1.497   5.524   3.130 -0.1764 -0.2499  0.2747
 1262TIP3    H1 3792   1.579   5.571   3.113 -1.0675  1.0787 -0.5226
 1262TIP3    H2 3793   1.442   5.587   3.176 -1.0511 -0.8532  0.0859
 1263TIP3   OH2 3794   5.035   5.815   0.088 -0.0256 -0.3331 -0.5280
 1263TIP3    H1 3795   5.077   5.868   0.019 -1.1737  0.9801 -0.2522
 1263TIP3    H2 3796   5.028   5.874   0.163 -0.8397 -1.0582 -0.0172
 1264TIP3   OH2 3797   2.590   0.678   3.690  0.8701 -0.7196 -0.3083
 1264TIP3    H1 3798   2.607   0.676   3.596 -1.8026 -2.1460 -0.8653
 1264TIP3    H2 3799   2.652   0.615   3.727  0.8188 -1.4035 -1.3516
 1265TIP3   OH2 3800   0.365   3.482   1.173 -0.3079 -0.0854 -0.1103
 1265TIP3    H1 3801   0.321   3.485   1.257 -2.7865 -1.5654 -1.2432
 1265TIP3    H2 3802   0.412   3.398   1.173  2.8189  1.4962  1.1082
 1266TIP3   OH2 3803   2.339   2.608   3.094  0.1905  0.0282  0.0625
 1266TIP3    H1 3804   2.294   2.692   3.086 -0.2030 -0.1354  0.5213
 1266TIP3    H2 3805   2.297   2.565   3.168 -0.7519 -1.2643 -1.1590
 1267TIP3   OH2 3806   1.935   0.153   3.400 -0.0009  0.0755  0.0645
 1267TIP3    H1 3807   2.027   0.172   3.381  0.1004 -0.3946  0.0769
 1267TIP3    H2 3808   1.918   0.200   3.482  0.1406  0.4152 -0.1000
 1268TIP3   OH2 3809   4.884   3.014   1.201  0.2052  0.6313 -0.0039
 1268TIP3    H1 3810   4.896   3.103   1.169  0.2529  0.5434 -0.2272
 1268TIP3    H2 3811   4.856   3.025   1.292  0.0403  0.8780 -0.0846
 1269TIP3   OH2 3812   1.128   2.301   5.027 -1.3271 -0.3762  0.1242
 1269TIP3    H1 3813   1.050   2.246   5.028 -0.7010 -1.2715  0.1961
 1269TIP3    H2 3814   1.117   2.360   5.102 -0.9186 -1.9453  1.4562
 1270TIP3   OH2 3815   1.672   2.506   0.014  0.2409  0.2323  0.0577
 1270TIP3    H1 3816   1.740   2.461   0.064 -0.2026 -0.8674 -0.3048
 1270TIP3    H2 3817   1.720   2.562  -0.048  0.9188 -2.1050 -1.6641
 1271TIP3   OH2 3818   5.546   3.517   0.611 -0.5133  0.1530 -0.4494
 1271TIP3    H1 3819   5.451   3.508   0.625 -0.3376 -2.2537 -0.2984
 1271TIP3    H2 3820   5.563   3.469   0.531  0.4351  1.8695 -1.3322
 1272TIP3   OH2 3821   4.965   5.963   2.775 -0.2024 -0.0968 -0.1840
 1272TIP3    H1 3822   4.954   5.907   2.698  0.0961  0.1284 -0.3906
 1272TIP3    H2 3823   4.877   5.998   2.791 -0.3415 -0.4357 -0.1966
 1273TIP3   OH2 3824   5.347   0.564   2.248  0.4829  0.0380  0.1663
 1273TIP3    H1 3825   5.361   0.537   2.157 -0.4651 -1.4860  0.4236
 1273TIP3    H2 3826   5.392   0.497   2.300  0.1996  0.3477  0.8220
 1274TIP3   OH2 3827   1.985   0.994   3.085  0.1780  0.1447 -0.2181
 1274TIP3    H1 3828   1.995   0.907   3.047  0.6025  0.1408 -0.1127
 1274TIP3    H2 3829   2.075   1.027   3.094  0.0144  0.6472 -0.3776
 1275TIP3   OH2 3830   1.266   4.591   5.049 -0.4717  0.1616 -0.6448
 1275TIP3    H1 3831   1.359   4.601   5.066 -0.6973  3.1792 -0.6343
 1275TIP3    H2 3832   1.225   4.589   5.136 -0.6239  2.6206 -0.5855
 1276TIP3   OH2 3833   0.806   4.917   0.098 -0.2519  0.3237  0.8598
 1276TIP3    H1 3834   0.887   4.968   0.103  0.3627 -0.3813 -1.0808
 1276TIP3    H2 3835   0.737   4.981   0.116  0.6069  1.4283  0.4205
 1277TIP3   OH2 3836   4.355   4.512   0.128 -1.0010 -0.1262 -0.5050
 1277TIP3    H1 3837   4.309   4.433   0.098 -0.0228 -1.1890  0.6719
 1277TIP3    H2 3838   4.441   4.508   0.086 -1.2384  0.7799 -1.1053
 1278TIP3   OH2 3839   5.012   5.663   2.819  0.3358  0.0524 -0.0301
 1278TIP3    H1 3840   5.004   5.629   2.908  0.3206  0.7157  0.2278
 1278TIP3    H2 3841   4.999   5.757   2.828  1.7312  0.3147 -0.5384
 1279TIP3   OH2 3842   2.521   3.783   3.758 -0.0959 -0.7096  0.6993
 1279TIP3    H1 3843   2.491   3.817   3.673 -1.1336  3.2277  2.3815
 1279TIP3    H2 3844   2.616   3.783   3.751 -0.0949  1.1192 -0.0354
 1280TIP3   OH2 3845   3.157   0.888   3.276  0.3640  0.7213  0.0264
 1280TIP3    H1 3846   3.229   0.888   3.213 -1.7457 -1.2168 -2.6653
 1280TIP3    H2 3847   3.110   0.970   3.259  0.9888  1.2073  0.6165
 1281TIP3   OH2 3848   2.092   0.332   1.292  0.6264  0.5974 -0.3956
 1281TIP3    H1 3849   2.038   0.308   1.216  2.1297 -4.5434 -0.2620
 1281TIP3    H2 3850   2.031   0.330   1.366 -0.0183  0.8538 -0.9089
 1282TIP3   OH2 3851   6.356   5.290   2.719  0.2016 -0.2675  0.3157
 1282TIP3    H1 3852   6.305   5.357   2.675 -1.6112 -1.1023  1.0508
 1282TIP3    H2 3853   6.391   5.236   2.648  0.1437  0.3610 -0.2009
 1283TIP3   OH2 3854   1.172   5.328   1.961 -0.1386 -0.5076  0.0008
 1283TIP3    H1 3855   1.084   5.365   1.968  0.6433  1.9483 -1.8190
 1283TIP3    H2 3856   1.206   5.363   1.879  2.1773 -2.2764  0.1075
 1284TIP3   OH2 3857   4.520   2.307   0.551 -0.4152  0.0225 -0.0381
 1284TIP3    H1 3858   4.565   2.364   0.489 -1.6380  1.1189  0.0387
 1284TIP3    H2 3859   4.474   2.243   0.497 -0.1938 -0.0178 -0.1812
 1285TIP3   OH2 3860   5.666   2.067   4.594 -0.3241  0.1979 -0.1922
 1285TIP3    H1 3861   5.570   2.075   4.597 -0.2473  1.0295  2.0628
 1285TIP3    H2 3862   5.682   1.973   4.601 -0.9438 -0.0801 -1.8990
 1286TIP3   OH2 3863   5.140   1.351   0.355  0.4935 -0.7521  0.3348
 1286TIP3    H1 3864   5.069   1.405   0.389 -0.0203 -1.4012  0.2904
 1286TIP3    H2 3865   5.149   1.379   0.264 -0.0884 -1.0691  0.1786
 1287TIP3   OH2 3866   0.714   2.988   2.131 -0.3476 -0.3788 -0.4570
 1287TIP3    H1 3867   0.706   2.926   2.203  1.4769  0.4881  0.5707
 1287TIP3    H2 3868   0.667   3.066   2.160 -0.8947 -0.5411 -0.8778
 1288TIP3   OH2 3869   2.634   2.553   0.396  0.0133 -0.1319  0.1909
 1288TIP3    H1 3870   2.586   2.524   0.473 -0.5705  1.0302  0.2816
 1288TIP3    H2 3871   2.660   2.643   0.415 -0.1776  0.1965 -0.9674
 1289TIP3   OH2 3872   1.187   0.979   1.333  0.3680 -0.1997  0.4908
 1289TIP3    H1 3873   1.200   0.884   1.325  2.8426  0.2246 -2.3358
 1289TIP3    H2 3874   1.270   1.012   1.366  1.0742  1.2212 -2.3435
 1290TIP3   OH2 3875   0.025   5.608   3.637 -0.1056  0.6391 -0.2481
 1290TIP3    H1 3876   0.106   5.649   3.607 -0.2262  0.5652 -0.6965
 1290TIP3    H2 3877  -0.032   5.681   3.661  0.5427  0.6576  1.3074
 1291TIP3   OH2 3878   4.442   2.503   3.293  1.0611  0.2940 -0.8413
 1291TIP3    H1 3879   4.463   2.593   3.321  0.9753 -0.6112  2.6150
 1291TIP3    H2 3880   4.513   2.450   3.329  0.0408 -1.2386 -1.0359
 1292TIP3   OH2 3881   6.320   3.328   2.997  0.3644 -0.5143 -0.1711
 1292TIP3    H1 3882   6.394   3.270   3.014  0.4119  0.1013  2.0543
 1292TIP3    H2 3883   6.292   3.357   3.084 -1.5312  0.4688 -1.0557
 1293TIP3   OH2 3884   5.410   1.019   3.235  0.0805  0.0246 -0.0496
 1293TIP3    H1 3885   5.379   1.097   3.190 -0.9237  0.6726  1.6554
 1293TIP3    H2 3886   5.381   0.946   3.180 -1.5350  0.7564 -0.2131
 1294TIP3   OH2 3887   5.914   5.129   0.459 -0.2550 -0.2385 -0.6598
 1294TIP3    H1 3888   5.966   5.064   0.412  0.7175 -0.2438  0.3717
 1294TIP3    H2 3889   5.823   5.101   0.446  0.0237 -0.6023 -1.9497
 1295TIP3   OH2 3890   0.849   5.495   1.160  0.0547  0.2189 -0.1625
 1295TIP3    H1 3891   0.860   5.401   1.170 -0.1759  0.1147 -0.8573
 1295TIP3    H2 3892   0.936   5.527   1.135  0.4906  0.4019  1.4174
 1296TIP3   OH2 3893   5.890   5.459   0.133  0.5903 -0.3319  0.9417
 1296TIP3    H1 3894   5.811   5.509   0.150  0.6220  0.3791 -0.8080
 1296TIP3    H2 3895   5.936   5.510   0.066  2.3657 -0.9031  1.6731
 1297TIP3   OH2 3896   5.195   1.381   3.101 -0.0910 -0.4751 -0.0820
 1297TIP3    H1 3897   5.149   1.321   3.042  1.2666  0.0390 -1.7417
 1297TIP3    H2 3898   5.125   1.432   3.142 -1.1417 -1.7107 -0.2591
 1298TIP3   OH2 3899   4.899   4.743   2.535  0.9009 -0.2269 -0.5271
 1298TIP3    H1 3900   4.883   4.831   2.501 -0.7092 -0.5455 -0.6551
 1298TIP3    H2 3901   4.890   4.752   2.630  0.9568 -0.2161 -0.5226
 1299TIP3   OH2 3902   3.170   3.190   4.443 -0.2219  0.0048 -0.5288
 1299TIP3    H1 3903   3.101   3.253   4.463 -0.8439 -0.4938 -1.0517
 1299TIP3    H2 3904   3.148   3.156   4.356 -0.1746 -1.2720 -0.0755
 1300TIP3   OH2 3905   2.610   3.029   4.770  0.2408 -0.3666 -0.0882
 1300TIP3    H1 3906   2.689   3.061   4.814  0.8214 -1.9827  0.0754
 1300TIP3    H2 3907   2.542   3.034   4.838 -0.0674  1.8306 -0.4600
 1301TIP3   OH2 3908   5.096   3.560   1.553  0.1853 -0.1368  0.2058
 1301TIP3    H1 3909   5.133   3.567   1.465 -0.2203  2.7950  0.1806
 1301TIP3    H2 3910   5.001   3.551   1.539  0.1264  0.2710  0.3135
 1302TIP3   OH2 3911   1.453   1.940   0.599  0.0134 -0.0249  0.5961
 1302TIP3    H1 3912   1.525   2.001   0.585 -0.4866  0.3204 -0.5634
 1302TIP3    H2 3913   1.375   1.995   0.604 -0.3468 -0.5010  0.3479
 1303TIP3   OH2 3914   4.120   5.741   5.104  0.2139 -0.6614 -0.7045
 1303TIP3    H1 3915   4.183   5.758   5.173  2.3485  0.4922 -2.7898
 1303TIP3    H2 3916   4.099   5.649   5.113  0.3588 -0.5356  1.4767
 1304TIP3   OH2 3917   3.106   1.408   1.283 -0.0871 -0.1391  0.4964
 1304TIP3    H1 3918   3.048   1.420   1.358  0.2886  0.4802  0.6896
 1304TIP3    H2 3919   3.187   1.452   1.308  0.5481 -1.1841  0.3146
 1305TIP3   OH2 3920   1.241   3.334   4.879  0.3697 -0.2885 -0.4880
 1305TIP3    H1 3921   1.311   3.297   4.826 -0.0453 -0.7351 -0.7312
 1305TIP3    H2 3922   1.220   3.417   4.838  1.5259  0.3898  0.2423
 1306TIP3   OH2 3923   4.253   1.397   0.148 -0.0060 -0.0757  0.3723
 1306TIP3    H1 3924   4.342   1.364   0.163  0.0930 -0.4566 -0.9259
 1306TIP3    H2 3925   4.236   1.377   0.056 -2.1082 -1.6006  1.0165
 1307TIP3   OH2 3926   0.206   0.536   1.770 -0.2710 -0.4489  0.0096
 1307TIP3    H1 3927   0.118   0.567   1.748 -1.1501 -2.6787  0.1122
 1307TIP3    H2 3928   0.194   0.482   1.848  0.9461 -1.9758 -0.8110
 1308TIP3   OH2 3929   6.096   3.073   0.816 -0.5140 -0.6673 -0.1319
 1308TIP3    H1 3930   6.007   3.094   0.843 -0.9931 -0.1558 -1.9241
 1308TIP3    H2 3931   6.152   3.100   0.889 -1.6307  1.2151  0.0875
 1309TIP3   OH2 3932   6.201   1.901   0.180  0.2991 -0.1627 -0.2220
 1309TIP3    H1 3933   6.248   1.916   0.262  0.8091  0.9032 -0.6864
 1309TIP3    H2 3934   6.267   1.911   0.112 -0.3631  0.2029 -0.8251
 1310TIP3   OH2 3935   1.639   0.269   4.842 -0.0505 -0.3155 -0.3094
 1310TIP3    H1 3936   1.687   0.234   4.766  1.4846 -2.1606  1.3964
 1310TIP3    H2 3937   1.592   0.195   4.878  0.8238 -0.0088  1.6444
 1311TIP3   OH2 3938   3.740   0.573   2.937 -0.9019  0.3231  0.2879
 1311TIP3    H1 3939   3.697   0.512   2.997 -1.7450  0.8753  0.2655
 1311TIP3    H2 3940   3.825   0.533   2.919 -1.4579 -0.8866  0.2095
 1312TIP3   OH2 3941   1.522   3.186   3.422  0.2424 -0.1439 -0.2209
 1312TIP3    H1 3942   1.448   3.130   3.447 -1.0738  0.3128 -2.7977
 1312TIP3    H2 3943   1.547   3.155   3.335  1.9923  0.8494 -0.1202
 1313TIP3   OH2 3944   1.576   2.074   4.794 -0.1318 -0.0407  0.4090
 1313TIP3    H1 3945   1.523   2.050   4.718 -1.0894  0.2446  0.9641
 1313TIP3    H2 3946   1.647   2.010   4.795 -1.0357 -1.0809  0.2064
 1314TIP3   OH2 3947   1.610   3.554   2.395  0.6277 -0.0400 -0.3096
 1314TIP3    H1 3948   1.690   3.504   2.416  2.0893  2.8594  1.7118
 1314TIP3    H2 3949   1.554   3.541   2.471 -1.5502 -2.9873 -2.1919
 1315TIP3   OH2 3950   0.954   1.301   3.761 -0.1031  0.8172  0.1435
 1315TIP3    H1 3951   0.877   1.271   3.809 -0.5344  0.1312 -0.9471
 1315TIP3    H2 3952   1.028   1.256   3.802 -0.4988  0.0199  0.0009
 1316TIP3   OH2 3953   5.532   1.735   3.568  0.2611 -0.4305  0.7101
 1316TIP3    H1 3954   5.628   1.731   3.570  0.3529  0.2793 -0.8113
 1316TIP3    H2 3955   5.511   1.812   3.620  0.6774  0.6794 -0.6950
 1317TIP3   OH2 3956   2.939   2.258   1.561  0.2607 -0.5390 -0.6416
 1317TIP3    H1 3957   2.939   2.168   1.592  0.9481  0.4681  2.6389
 1317TIP3    H2 3958   3.025   2.268   1.519  0.8844 -0.9654  0.4954
 1318TIP3   OH2 3959   0.659   0.914   2.190  0.0795 -0.1606 -0.0673
 1318TIP3    H1 3960   0.595   0.923   2.260 -0.1321 -0.5349 -0.2115
 1318TIP3    H2 3961   0.687   1.004   2.171 -1.0718  0.1016 -0.6230
 1319TIP3   OH2 3962   3.758   5.581   4.486 -0.0641  0.0920  0.0718
 1319TIP3    H1 3963   3.681   5.585   4.543 -1.1165  0.7128 -1.3357
 1319TIP3    H2 3964   3.810   5.509   4.522 -1.1850 -0.1987  1.1949
 1320TIP3   OH2 3965   3.918   0.004   4.223 -0.2816  0.4646 -0.0800
 1320TIP3    H1 3966   3.919   0.084   4.169  0.8400  0.9909  0.6759
 1320TIP3    H2 3967   3.977  -0.056   4.177  1.5940  1.3263  1.1033
 1321TIP3   OH2 3968   1.924   2.782   2.524  0.6572  0.0619  0.1735
 1321TIP3    H1 3969   1.896   2.871   2.547  0.2412  0.2093 -0.8667
 1321TIP3    H2 3970   1.848   2.744   2.479 -0.6817 -2.1727  3.7823
 1322TIP3   OH2 3971   6.111   2.397   1.979  0.5555  0.6277 -0.1290
 1322TIP3    H1 3972   6.026   2.400   2.023 -0.1100  1.3764 -1.4066
 1322TIP3    H2 3973   6.111   2.474   1.923  1.6055  0.0163 -0.9979
 1323TIP3   OH2 3974   5.316   0.589   2.774 -0.1158  0.5854 -0.6657
 1323TIP3    H1 3975   5.220   0.592   2.771 -0.2807 -2.1501 -1.2833
 1323TIP3    H2 3976   5.336   0.532   2.848  0.9188 -0.3688 -1.6361
 1324TIP3   OH2 3977   3.245   3.524   1.231 -0.3621  0.2933 -0.9877
 1324TIP3    H1 3978   3.247   3.448   1.173  2.8960  0.1102 -0.8632
 1324TIP3    H2 3979   3.231   3.487   1.318  1.2520 -0.2616 -0.9212
 1325TIP3   OH2 3980   0.364   3.023   1.536  0.0530 -0.3558 -0.3971
 1325TIP3    H1 3981   0.353   2.928   1.547 -1.0460 -0.1595  0.3367
 1325TIP3    H2 3982   0.426   3.031   1.464 -0.5785 -1.6230 -1.1214
 1326TIP3   OH2 3983   4.713   1.473   1.881 -0.0215  0.3942 -0.3385
 1326TIP3    H1 3984   4.697   1.546   1.941 -1.6343 -1.3935  1.5695
 1326TIP3    H2 3985   4.640   1.477   1.819 -1.0792 -0.5120  0.7951
 1327TIP3   OH2 3986   0.881   3.286   3.923  0.2973  0.1655  0.1656
 1327TIP3    H1 3987   0.819   3.324   3.984 -2.0234  2.2591 -3.1703
 1327TIP3    H2 3988   0.933   3.361   3.893 -1.5498  0.2078 -3.4390
 1328TIP3   OH2 3989   2.238   1.820   3.836 -0.1883 -0.5447 -0.0066
 1328TIP3    H1 3990   2.311   1.859   3.884 -1.8023  4.2743 -0.8551
 1328TIP3    H2 3991   2.261   1.831   3.743 -1.5130  0.1286 -0.2794
 1329TIP3   OH2 3992   6.058   2.174   3.018  0.2428 -0.0564 -0.0047
 1329TIP3    H1 3993   6.040   2.140   2.930  2.4759  1.5064 -1.1822
 1329TIP3    H2 3994   5.993   2.242   3.031  0.3966  0.2698 -0.8378
 1330TIP3   OH2 3995   2.259   3.387   5.123 -0.7626  0.1777 -0.7467
 1330TIP3    H1 3996   2.188   3.342   5.169 -1.4654  1.6569 -0.3483
 1330TIP3    H2 3997   2.334   3.378   5.182 -0.6906 -1.0503 -0.9924
 1331TIP3   OH2 3998   5.968   0.466   3.186  0.2774 -0.0773  0.1240
 1331TIP3    H1 3999   5.995   0.503   3.102  0.4439 -1.8543 -0.6520
 1331TIP3    H2 4000   6.008   0.523   3.251  0.2988  1.2342 -1.0028
 1332TIP3   OH2 4001   2.292   2.879   3.063 -0.2755  0.1100 -0.2011
 1332TIP3    H1 4002   2.210   2.929   3.058 -0.0052  0.4842 -1.0034
 1332TIP3    H2 4003   2.359   2.938   3.029  0.5717  0.2776  1.6374
 1333TIP3   OH2 4004   6.046   3.329   3.676 -0.6213 -0.3026 -0.5361
 1333TIP3    H1 4005   6.082   3.275   3.605  0.2432 -1.2112  0.5551
 1333TIP3    H2 4006   6.123   3.358   3.725 -1.2978 -1.6139  1.3816
 1334TIP3   OH2 4007   3.165   2.847   2.538 -0.1414 -0.0223  0.1502
 1334TIP3    H1 4008   3.236   2.840   2.474  0.5823 -1.6018  1.0508
 1334TIP3    H2 4009   3.091   2.804   2.495 -0.6703  1.8691 -0.8985
 1335TIP3   OH2 4010   0.416   0.701   4.894  0.3156  0.2166 -0.6742
 1335TIP3    H1 4011   0.331   0.688   4.936  0.3760 -0.1904 -0.6760
 1335TIP3    H2 4012   0.440   0.614   4.860 -0.0920  0.6686 -2.2389
 1336TIP3   OH2 4013   2.604   5.160   4.345 -0.5736  0.6983  0.4045
 1336TIP3    H1 4014   2.610   5.223   4.417 -1.7846 -0.2309  1.3493
 1336TIP3    H2 4015   2.608   5.075   4.388 -1.4833  0.1286 -0.6043
 1337TIP3   OH2 4016   0.782   2.181   4.281 -0.1779 -0.7910  0.2182
 1337TIP3    H1 4017   0.759   2.272   4.302 -1.2719 -1.0102 -0.0067
 1337TIP3    H2 4018   0.749   2.130   4.354  1.9817 -0.8712  1.2328
 1338TIP3   OH2 4019   3.257   5.672   1.373 -0.3706 -0.3169 -0.8573
 1338TIP3    H1 4020   3.312   5.748   1.354  0.4553  0.4689  3.7242
 1338TIP3    H2 4021   3.168   5.702   1.355  0.0868  1.1033 -0.8226
 1339TIP3   OH2 4022   4.888   5.372   0.678  0.0263  0.3732  0.3679
 1339TIP3    H1 4023   4.954   5.435   0.709  0.1873  1.0115 -1.1585
 1339TIP3    H2 4024   4.813   5.386   0.735  0.2139  1.6683  0.3299
 1340TIP3   OH2 4025   3.265   1.480   4.931  0.1588  0.3443  0.3252
 1340TIP3    H1 4026   3.191   1.437   4.888 -1.3457  1.1445  2.0094
 1340TIP3    H2 4027   3.318   1.407   4.965 -0.7822 -0.2316  0.5975
 1341TIP3   OH2 4028   4.512   1.547   4.369  0.1194 -0.1411  0.1319
 1341TIP3    H1 4029   4.470   1.461   4.375 -0.1664  0.0977  2.1546
 1341TIP3    H2 4030   4.529   1.558   4.276  0.0156 -2.3165 -0.2157
 1342TIP3   OH2 4031   5.179   4.781   3.707 -0.3132  0.3103 -0.4035
 1342TIP3    H1 4032   5.197   4.856   3.650  1.1456 -0.7313 -1.3743
 1342TIP3    H2 4033   5.257   4.773   3.762 -0.6236 -0.2428 -0.0327
 1343TIP3   OH2 4034   2.320   3.847   2.676  0.2922  0.0893 -0.7890
 1343TIP3    H1 4035   2.361   3.854   2.590 -0.4578  0.1171 -1.1548
 1343TIP3    H2 4036   2.230   3.820   2.658  0.4486 -1.1018  0.0501
 1344TIP3   OH2 4037   6.173   2.384   0.821  0.5510 -0.3116 -0.6979
 1344TIP3    H1 4038   6.155   2.464   0.871  1.0474  0.5315 -1.8177
 1344TIP3    H2 4039   6.252   2.347   0.862 -0.8576 -1.4143  1.1661
 1345TIP3   OH2 4040   2.138   5.774   3.945 -0.1175 -0.5134  0.1301
 1345TIP3    H1 4041   2.146   5.700   4.005  2.5811 -0.2388  0.2066
 1345TIP3    H2 4042   2.048   5.806   3.958 -0.4439 -2.0590  2.0726
 1346TIP3   OH2 4043   6.075   2.636   0.946  0.4271  0.1826 -0.1823
 1346TIP3    H1 4044   5.995   2.590   0.971  0.9319 -0.1791  0.8479
 1346TIP3    H2 4045   6.108   2.672   1.028  2.1108 -0.9579 -0.3104
 1347TIP3   OH2 4046   4.038   1.334   0.301 -0.1397  0.2871 -0.1116
 1347TIP3    H1 4047   3.956   1.373   0.271  0.4721  1.3142 -0.4778
 1347TIP3    H2 4048   4.103   1.365   0.239  0.3150 -1.6780 -0.6788
 1348TIP3   OH2 4049   3.818   4.105   3.589  0.1086  0.2994  0.1828
 1348TIP3    H1 4050   3.879   4.143   3.525 -1.2316  1.3805 -0.4885
 1348TIP3    H2 4051   3.817   4.011   3.568 -0.4614  0.6558 -1.5441
 1349TIP3   OH2 4052   0.192   0.088   3.915  0.1441  0.0073  0.2260
 1349TIP3    H1 4053   0.110   0.050   3.884 -0.6888  0.6223  1.5852
 1349TIP3    H2 4054   0.204   0.168   3.863  0.0492 -0.2503 -0.1894
 1350TIP3   OH2 4055   3.599   1.905   3.572 -0.4008  0.1489  0.3729
 1350TIP3    H1 4056   3.685   1.863   3.577  0.5644  2.1671  2.6263
 1350TIP3    H2 4057   3.611   1.976   3.509 -0.9586 -0.5551 -0.5682
 1351TIP3   OH2 4058   1.490   4.597   3.320 -0.3127  0.3239 -0.2494
 1351TIP3    H1 4059   1.479   4.646   3.402  4.0752  0.5835  0.4159
 1351TIP3    H2 4060   1.465   4.659   3.252 -1.2411  1.1315  0.7867
 1352TIP3   OH2 4061   1.226   2.096   4.167  0.1734  0.1965  0.0740
 1352TIP3    H1 4062   1.289   2.165   4.147  1.4741 -0.4061  1.8295
 1352TIP3    H2 4063   1.177   2.129   4.242  2.5167 -1.6391  2.6259
 1353TIP3   OH2 4064   0.510   0.814   2.450  0.3381  0.3474  0.4040
 1353TIP3    H1 4065   0.486   0.724   2.472  0.4343 -0.8130 -3.4726
 1353TIP3    H2 4066   0.433   0.850   2.406  1.0311  1.3788 -0.0271
 1354TIP3   OH2 4067   4.365   5.837   2.946 -0.4958  0.1506  0.0671
 1354TIP3    H1 4068   4.378   5.921   2.991 -1.1896 -0.2576  1.0533
 1354TIP3    H2 4069   4.420   5.776   2.995 -2.3200 -0.5924  1.2871
 1355TIP3   OH2 4070   5.835   5.868   1.714 -0.8376 -0.1659 -0.2503
 1355TIP3    H1 4071   5.924   5.837   1.698 -0.3998  0.5748  0.6522
 1355TIP3    H2 4072   5.786   5.790   1.740 -0.3354 -0.4939 -0.2862
 1356TIP3   OH2 4073   1.684   4.263   3.026 -0.2615  0.5891 -0.3813
 1356TIP3    H1 4074   1.727   4.348   3.014 -2.9371  1.8084 -2.6119
 1356TIP3    H2 4075   1.644   4.269   3.113 -0.3869  1.6180 -0.4935
 1357TIP3   OH2 4076   2.235   4.614   0.918  0.0088  0.0914 -0.1730
 1357TIP3    H1 4077   2.211   4.606   0.826  2.1742 -0.0743 -0.7883
 1357TIP3    H2 4078   2.330   4.628   0.917  0.1150 -0.0524  2.0375
 1358TIP3   OH2 4079   5.423   0.406   4.104 -0.7837 -0.2009 -0.2181
 1358TIP3    H1 4080   5.488   0.464   4.064  0.6278 -0.1076  2.0661
 1358TIP3    H2 4081   5.362   0.465   4.147  1.1107 -0.2321  2.8178
 1359TIP3   OH2 4082   1.734   5.661   0.229 -0.2018 -0.3244  0.2543
 1359TIP3    H1 4083   1.704   5.691   0.143  0.2602 -0.0337  0.1894
 1359TIP3    H2 4084   1.724   5.738   0.285 -1.0498 -0.6808  0.6024
 1360TIP3   OH2 4085   3.481   5.912   3.735  0.1079  0.4404  0.1773
 1360TIP3    H1 4086   3.455   5.824   3.712  2.0391  0.0793 -0.8632
 1360TIP3    H2 4087   3.558   5.900   3.792 -0.8021  1.4409  1.6861
 1361TIP3   OH2 4088   0.309   1.434   1.591 -0.6134  0.0132  0.3217
 1361TIP3    H1 4089   0.305   1.497   1.520 -1.7272  0.4987  0.7903
 1361TIP3    H2 4090   0.369   1.473   1.655  0.1519 -0.2834 -0.2086
 1362TIP3   OH2 4091   5.395   2.054   4.708  0.2749  0.7322 -0.2387
 1362TIP3    H1 4092   5.306   2.018   4.715  0.8858 -1.5299 -2.4898
 1362TIP3    H2 4093   5.452   1.982   4.737  1.4409  2.2753  1.5514
 1363TIP3   OH2 4094   1.874   4.051   1.059 -0.6524  0.5662  0.4252
 1363TIP3    H1 4095   1.882   4.135   1.014  1.8599 -0.0296 -0.3983
 1363TIP3    H2 4096   1.783   4.025   1.046 -0.9970  2.2858 -0.9074
 1364TIP3   OH2 4097   1.394   3.257   4.674 -0.0203  0.2118 -0.3374
 1364TIP3    H1 4098   1.353   3.306   4.602  1.3959  1.6916 -0.2176
 1364TIP3    H2 4099   1.464   3.208   4.632  0.7660  1.0251 -0.0090
 1365TIP3   OH2 4100   3.280   5.262   4.265  0.6197 -0.2149 -0.1075
 1365TIP3    H1 4101   3.289   5.324   4.193 -1.1765 -0.1089 -0.2626
 1365TIP3    H2 4102   3.288   5.316   4.344  4.6200 -0.5772 -0.0541
 1366TIP3   OH2 4103   0.710   2.114   3.402  0.0912 -0.0406 -0.1914
 1366TIP3    H1 4104   0.716   2.141   3.311 -0.2075  1.1799  0.1304
 1366TIP3    H2 4105   0.661   2.184   3.445  1.4200  0.0991  1.1805
 1367TIP3   OH2 4106   1.546   3.863   3.539 -0.1702 -0.1050  0.1847
 1367TIP3    H1 4107   1.509   3.903   3.460  1.3326 -0.4756 -0.7367
 1367TIP3    H2 4108   1.603   3.929   3.576 -1.9079  0.5931  1.8104
 1368TIP3   OH2 4109   0.033   2.307   0.976 -0.2588 -0.0224 -0.5639
 1368TIP3    H1 4110  -0.017   2.327   1.056  0.7452  0.3187  0.0009
 1368TIP3    H2 4111   0.080   2.226   0.998 -1.3587 -0.9431 -1.4757
 1369TIP3   OH2 4112   2.670   0.924   2.377  1.0170 -0.1359  0.4662
 1369TIP3    H1 4113   2.674   0.833   2.348 -0.4618 -0.7475  1.9959
 1369TIP3    H2 4114   2.731   0.970   2.320  2.3083 -2.1932  0.0810
 1370TIP3   OH2 4115   3.309   5.682   4.415 -0.2999 -0.0153  0.5328
 1370TIP3    H1 4116   3.295   5.590   4.437 -2.5093  0.0565 -0.2642
 1370TIP3    H2 4117   3.324   5.725   4.499 -1.8224 -0.7477  1.2287
 1371TIP3   OH2 4118   5.201   3.738   1.785  0.2057  0.3578  0.4807
 1371TIP3    H1 4119   5.133   3.711   1.724 -1.3118  2.6162  1.0693
 1371TIP3    H2 4120   5.251   3.804   1.738  0.3432  0.6055  0.9704
 1372TIP3   OH2 4121   1.434   0.953   4.260  0.0390 -0.1626  0.7850
 1372TIP3    H1 4122   1.419   0.944   4.355  0.3449 -0.5021  0.8009
 1372TIP3    H2 4123   1.455   0.865   4.231 -1.9914 -0.4585  0.0489
 1373TIP3   OH2 4124   4.555   2.521   2.816  0.0708 -0.3728  0.1115
 1373TIP3    H1 4125   4.517   2.540   2.730  0.3511  1.0031  0.2598
 1373TIP3    H2 4126   4.508   2.580   2.875 -0.0548 -1.2459  0.8858
 1374TIP3   OH2 4127   1.417   1.637   4.174  0.2495 -0.1180  0.1281
 1374TIP3    H1 4128   1.354   1.565   4.175  1.1874 -0.9624 -0.0542
 1374TIP3    H2 4129   1.469   1.624   4.253 -0.7811  1.5002  1.1318
 1375TIP3   OH2 4130   0.432   2.864   1.191  0.3768 -0.4435 -0.0212
 1375TIP3    H1 4131   0.457   2.786   1.240 -0.8573 -1.9261 -1.6020
 1375TIP3    H2 4132   0.340   2.879   1.214  0.9109  1.3370  1.1911
 1376TIP3   OH2 4133   2.773   5.447   3.735 -0.9288 -0.0081  0.0059
 1376TIP3    H1 4134   2.846   5.504   3.711 -0.8443  0.1194  0.5360
 1376TIP3    H2 4135   2.707   5.462   3.667 -1.9398  2.6390  1.3997
 1377TIP3   OH2 4136   5.412   5.650   1.629 -0.1841 -0.0482  0.3642
 1377TIP3    H1 4137   5.350   5.608   1.689 -0.2687 -0.8425 -0.2571
 1377TIP3    H2 4138   5.441   5.579   1.571 -0.0129  0.6723 -0.4543
 1378TIP3   OH2 4139   1.137   1.508   3.357 -0.2287  0.2636 -0.2522
 1378TIP3    H1 4140   1.121   1.505   3.451 -2.6328 -0.5557 -0.6296
 1378TIP3    H2 4141   1.229   1.484   3.348 -0.1354 -0.3644  1.8242
 1379TIP3   OH2 4142   5.297   2.782   0.271 -0.0433  0.2400  0.4894
 1379TIP3    H1 4143   5.213   2.820   0.297  0.3072  0.2873  1.6118
 1379TIP3    H2 4144   5.278   2.736   0.189 -1.3466 -0.4029  1.1135
 1380TIP3   OH2 4145   0.743   2.652   5.050 -0.9777  0.5041  0.5522
 1380TIP3    H1 4146   0.731   2.558   5.035  0.2519 -0.0119  2.4425
 1380TIP3    H2 4147   0.814   2.677   4.990 -1.3809  0.2744 -0.0340
 1381TIP3   OH2 4148   2.067   3.839   0.425  0.2380 -0.2138 -0.0025
 1381TIP3    H1 4149   2.019   3.908   0.471  1.1845  0.6947 -0.3407
 1381TIP3    H2 4150   2.000   3.793   0.374 -0.3673  0.6632 -0.0179
 1382TIP3   OH2 4151   3.945   1.484   1.428 -0.1960  0.0413 -0.3205
 1382TIP3    H1 4152   3.894   1.457   1.352  1.6374 -0.6905 -1.3644
 1382TIP3    H2 4153   3.943   1.579   1.426 -1.5719  0.0341 -0.2564
 1383TIP3   OH2 4154   1.052   4.866   0.722 -0.3224 -0.3718 -0.0020
 1383TIP3    H1 4155   1.118   4.825   0.666 -0.5802  0.0571 -0.6289
 1383TIP3    H2 4156   1.089   4.862   0.811  0.3687 -0.4883 -0.2926
 1384TIP3   OH2 4157   3.435   1.918   5.116  0.2683 -0.5496 -0.0358
 1384TIP3    H1 4158   3.468   1.931   5.027 -0.9135  2.0140 -0.1866
 1384TIP3    H2 4159   3.366   1.852   5.106 -0.1332  0.0067 -1.1122
 1385TIP3   OH2 4160   0.717   4.421   1.310 -0.1008 -0.3208 -0.3542
 1385TIP3    H1 4161   0.693   4.345   1.365  1.7283 -2.1466 -1.9090
 1385TIP3    H2 4162   0.649   4.425   1.243 -1.0670  0.4568  0.6384
 1386TIP3   OH2 4163   1.135   3.425   3.324 -0.2964 -0.3164 -0.0112
 1386TIP3    H1 4164   1.065   3.398   3.383  0.5822 -2.1884  0.2148
 1386TIP3    H2 4165   1.093   3.428   3.237 -1.2331  1.0468  0.4488
 1387TIP3   OH2 4166   0.648   2.396   0.879 -0.3562  0.3246  0.2703
 1387TIP3    H1 4167   0.628   2.484   0.847  0.4675  0.5789  0.4400
 1387TIP3    H2 4168   0.659   2.343   0.799  0.2117  0.6238  0.1425
 1388TIP3   OH2 4169   2.287   5.503   1.001 -0.4148  0.2707  0.5670
 1388TIP3    H1 4170   2.298   5.491   1.095 -1.5694 -1.0826  0.5701
 1388TIP3    H2 4171   2.192   5.504   0.988 -0.2721  0.2920 -0.6101
 1389TIP3   OH2 4172   2.907   4.778   1.824 -0.7654 -0.5179  0.8472
 1389TIP3    H1 4173   2.896   4.784   1.729 -1.7770  1.1117  1.0334
 1389TIP3    H2 4174   2.863   4.696   1.848 -0.6577 -0.8540 -0.0540
 1390TIP3   OH2 4175   4.422   5.927   1.852 -0.3720  0.1696 -0.7209
 1390TIP3    H1 4176   4.331   5.948   1.832 -0.9394  0.3811  1.7114
 1390TIP3    H2 4177   4.417   5.872   1.930  1.5616 -0.7839 -1.2024
 1391TIP3   OH2 4178   3.094   5.950   2.472  0.2103  0.6557  0.2572
 1391TIP3    H1 4179   3.148   5.954   2.393 -1.5607 -3.0945 -1.3767
 1391TIP3    H2 4180   3.157   5.950   2.544  2.0043  1.9071 -1.2222
 1392TIP3   OH2 4181   0.816   1.050   1.435  0.0860  0.0546 -0.1015
 1392TIP3    H1 4182   0.812   1.001   1.353  2.0163 -1.1346  0.4540
 1392TIP3    H2 4183   0.747   1.010   1.490 -0.3620  0.0038 -0.6888
 1393TIP3   OH2 4184   6.212   4.606   0.681  0.3458  0.1851 -0.1169
 1393TIP3    H1 4185   6.306   4.606   0.666  0.7731 -2.1092  2.0691
 1393TIP3    H2 4186   6.184   4.694   0.653  3.5230  1.9494  1.6188
 1394TIP3   OH2 4187   5.550   0.745   4.215  0.5767  0.1109  0.4409
 1394TIP3    H1 4188   5.589   0.764   4.301  1.3213 -1.7838  0.5580
 1394TIP3    H2 4189   5.617   0.773   4.152 -0.5482  2.9016  0.3253
 1395TIP3   OH2 4190   4.193   3.539   4.674 -0.5432 -0.5308  0.4224
 1395TIP3    H1 4191   4.284   3.563   4.656 -0.1434 -1.8426  0.6370
 1395TIP3    H2 4192   4.198   3.456   4.722 -1.8654 -0.8393  0.0744
 1396TIP3   OH2 4193   4.217   5.219   0.837  0.4406 -0.8214 -0.2495
 1396TIP3    H1 4194   4.165   5.171   0.773  0.0019 -1.4915  0.5848
 1396TIP3    H2 4195   4.238   5.301   0.793 -0.5914 -0.8896 -0.9311
 1397TIP3   OH2 4196   4.396   5.318   0.094  0.2309  0.6335 -0.5339
 1397TIP3    H1 4197   4.480   5.334   0.053 -0.1425 -3.1794 -3.3853
 1397TIP3    H2 4198   4.333   5.318   0.022 -1.5244 -0.5631  0.8817
 1398TIP3   OH2 4199   5.403   1.605   4.647  0.0736  0.1638 -0.1806
 1398TIP3    H1 4200   5.411   1.646   4.561 -2.3142  2.3630  0.5077
 1398TIP3    H2 4201   5.319   1.636   4.680  1.0101 -0.4238  3.0666
 1399TIP3   OH2 4202   2.603   5.688   1.296  0.1646 -0.4594 -0.0894
 1399TIP3    H1 4203   2.513   5.701   1.327  0.2426  0.2065 -0.1287
 1399TIP3    H2 4204   2.657   5.731   1.363  0.4924 -1.3900  0.2515
 1400TIP3   OH2 4205   1.773   5.979   1.925 -0.4488  0.3775  0.2530
 1400TIP3    H1 4206   1.707   5.974   1.994 -1.4618 -0.4203 -0.7249
 1400TIP3    H2 4207   1.744   5.916   1.860  0.5811  0.9692 -0.8241
 1401TIP3   OH2 4208   3.088   4.983   1.879 -0.4839  0.6424 -0.1535
 1401TIP3    H1 4209   3.037   5.056   1.845 -1.2861 -0.5523 -1.6107
 1401TIP3    H2 4210   3.030   4.907   1.875  0.3590 -0.1447  1.2100
 1402TIP3   OH2 4211   2.714   1.183   2.843  0.0125 -0.6253  0.0915
 1402TIP3    H1 4212   2.672   1.263   2.811 -1.4796 -1.6022 -0.5384
 1402TIP3    H2 4213   2.684   1.115   2.782  1.1951 -1.6716  0.6402
 1403TIP3   OH2 4214   5.797   5.555   2.803  0.0498 -0.7236 -0.2253
 1403TIP3    H1 4215   5.890   5.530   2.813 -0.1726 -0.9532  1.9339
 1403TIP3    H2 4216   5.791   5.640   2.847 -1.0935 -1.6415  1.5132
 1404TIP3   OH2 4217   3.928   5.587   2.193 -0.0716 -0.2954 -0.0889
 1404TIP3    H1 4218   3.931   5.508   2.139 -1.6847 -0.0456 -0.5908
 1404TIP3    H2 4219   3.872   5.564   2.267 -0.7638  0.4444 -0.3716
 1405TIP3   OH2 4220   2.955   5.061   0.255  0.1451  0.2153  0.3475
 1405TIP3    H1 4221   3.027   5.058   0.192 -1.1815 -2.0205 -1.2046
 1405TIP3    H2 4222   2.993   5.027   0.336  0.7426 -1.4287 -0.5825
 1406TIP3   OH2 4223   2.576   4.551   0.147  0.5953  0.2192  0.8483
 1406TIP3    H1 4224   2.531   4.467   0.149 -1.4011  1.1396 -0.9119
 1406TIP3    H2 4225   2.578   4.575   0.054  0.7927  2.2407  1.3146
 1407TIP3   OH2 4226   4.695   3.203   4.786 -0.1787  0.1839 -0.1191
 1407TIP3    H1 4227   4.702   3.240   4.874  0.4214 -2.1277  0.8857
 1407TIP3    H2 4228   4.773   3.149   4.776  0.0431  0.8001 -2.3299
 1408TIP3   OH2 4229   1.880   1.874   2.180 -0.4073 -0.1740 -0.0364
 1408TIP3    H1 4230   1.915   1.798   2.135  0.9978 -0.9980  2.2780
 1408TIP3    H2 4231   1.931   1.948   2.147 -0.7937 -0.4162 -1.2186
 1409TIP3   OH2 4232   2.110   2.051   5.023 -0.3116  0.5550 -0.1488
 1409TIP3    H1 4233   2.066   1.987   4.967  0.2337  0.0369  0.0089
 1409TIP3    H2 4234   2.200   2.053   4.992  0.0727  0.0397  0.8954
 1410TIP3   OH2 4235   3.574   0.549   1.212  0.6223  0.4154 -0.0247
 1410TIP3    H1 4236   3.625   0.615   1.164 -0.2294  1.4813  0.4934
 1410TIP3    H2 4237   3.546   0.594   1.292  0.1859 -0.6464  0.4375
 1411TIP3   OH2 4238   5.041   3.050   1.779  0.4245  0.4873 -0.4179
 1411TIP3    H1 4239   5.024   3.004   1.697  2.5244 -0.1325 -0.5574
 1411TIP3    H2 4240   4.970   3.023   1.837  0.0283 -0.6559 -1.4073
 1412TIP3   OH2 4241   4.402   3.877   3.756 -0.5010  0.1524  0.8571
 1412TIP3    H1 4242   4.450   3.859   3.837  1.9222 -2.2616 -0.9286
 1412TIP3    H2 4243   4.314   3.844   3.772 -0.1296 -0.0839  2.5590
 1413TIP3   OH2 4244   4.372   4.716   5.046 -0.6439  0.0655 -0.0477
 1413TIP3    H1 4245   4.322   4.663   5.108  1.3211 -0.3682  1.2677
 1413TIP3    H2 4246   4.407   4.788   5.098  0.3204  0.2042 -0.8441
 1414TIP3   OH2 4247   1.685   4.327   1.978 -0.0406  0.1422 -0.8924
 1414TIP3    H1 4248   1.674   4.315   2.072 -2.0588 -0.6890 -1.1832
 1414TIP3    H2 4249   1.715   4.242   1.946  0.7941  0.4662 -1.0183
 1415TIP3   OH2 4250   0.646   1.499   3.179  0.2624 -0.2250 -0.0056
 1415TIP3    H1 4251   0.682   1.500   3.268  0.9849  1.3738 -0.2874
 1415TIP3    H2 4252   0.603   1.584   3.169  0.3182 -0.3231 -1.2295
 1416TIP3   OH2 4253   5.240   1.707   3.112  0.2308 -0.1022  0.0690
 1416TIP3    H1 4254   5.181   1.656   3.167  0.1341  1.0506  1.0730
 1416TIP3    H2 4255   5.263   1.648   3.041 -0.2908 -1.3609  0.9078
 1417TIP3   OH2 4256   4.875   2.506   3.617 -0.1044 -0.3104 -0.4860
 1417TIP3    H1 4257   4.858   2.514   3.711 -0.3933 -0.5894 -0.5117
 1417TIP3    H2 4258   4.969   2.517   3.609 -0.2808  1.6079 -0.3748
 1418TIP3   OH2 4259   2.454   5.177   3.112  0.4115  0.2087 -0.1409
 1418TIP3    H1 4260   2.501   5.227   3.179  1.5476 -0.9715 -0.0218
 1418TIP3    H2 4261   2.449   5.088   3.147 -1.3148  0.1219 -0.4775
 1419TIP3   OH2 4262   2.412   4.288   3.359 -0.2243  0.5281  0.4521
 1419TIP3    H1 4263   2.421   4.244   3.443 -0.7029  1.3314  0.9308
 1419TIP3    H2 4264   2.424   4.218   3.294 -0.9287 -0.3032  1.1992
 1420TIP3   OH2 4265   0.219   3.418   5.178 -0.2268 -0.1036  0.3309
 1420TIP3    H1 4266   0.182   3.481   5.116  0.0330  0.4695  0.7560
 1420TIP3    H2 4267   0.312   3.439   5.182  0.1046 -1.3033 -0.4478
 1421TIP3   OH2 4268   3.989   0.487   3.104  0.2622 -0.4138 -0.0692
 1421TIP3    H1 4269   4.001   0.393   3.087 -0.7339 -0.5186 -0.2686
 1421TIP3    H2 4270   3.934   0.490   3.182  0.5859  0.0125  0.1452
 1422TIP3   OH2 4271   0.647   5.416   1.426 -0.2974  0.0990 -0.2457
 1422TIP3    H1 4272   0.590   5.484   1.390 -2.0803 -1.2120 -0.0256
 1422TIP3    H2 4273   0.627   5.339   1.374  1.9857 -0.2122 -0.7534
 1423TIP3   OH2 4274   5.517   5.300   4.139  0.0718  0.2250  0.4737
 1423TIP3    H1 4275   5.612   5.309   4.138 -0.0234  1.4403 -0.1258
 1423TIP3    H2 4276   5.501   5.207   4.156  1.3619 -0.0175  0.4364
 1424TIP3   OH2 4277   0.102   5.132   2.959 -0.4162  0.0194  0.7040
 1424TIP3    H1 4278   0.175   5.087   3.000 -0.4101  0.1145  0.8001
 1424TIP3    H2 4279   0.121   5.225   2.972 -0.5665  0.0442  0.7540
 1425TIP3   OH2 4280   2.380   1.838   2.473 -0.1161 -0.0552  0.0639
 1425TIP3    H1 4281   2.447   1.784   2.431  0.1571  1.0080 -0.9381
 1425TIP3    H2 4282   2.325   1.867   2.400 -1.0929 -0.1326  0.7624
 1426TIP3   OH2 4283   2.026   2.209   4.799 -0.4599  0.0518 -0.4175
 1426TIP3    H1 4284   2.019   2.149   4.873  1.5601  2.0353  1.5755
 1426TIP3    H2 4285   2.090   2.168   4.741 -1.3546 -1.0819 -0.6417
 1427TIP3   OH2 4286   4.993   1.362   3.864 -0.3252 -0.5010  0.1525
 1427TIP3    H1 4287   4.902   1.354   3.835 -0.0238  2.1258 -1.9087
 1427TIP3    H2 4288   4.988   1.408   3.947 -0.9012 -1.5658  0.7279
 1428TIP3   OH2 4289   0.773   0.449   4.653  0.8693  0.9465  0.4157
 1428TIP3    H1 4290   0.843   0.427   4.714  1.3143  2.0478  0.3228
 1428TIP3    H2 4291   0.779   0.383   4.584  1.1111  0.3876  0.9585
 1429TIP3   OH2 4292   2.690   0.882   2.082  0.3366 -0.4839  0.4929
 1429TIP3    H1 4293   2.629   0.809   2.084 -0.6928  0.3438  1.6313
 1429TIP3    H2 4294   2.694   0.909   1.991  1.5038 -2.5291 -0.1176
 1430TIP3   OH2 4295   4.124   1.586   3.411 -0.0099 -0.9231  0.3734
 1430TIP3    H1 4296   4.184   1.599   3.485 -0.3784  1.0126  0.3770
 1430TIP3    H2 4297   4.179   1.596   3.334 -0.5049  2.5900  0.3347
 1431TIP3   OH2 4298   2.002   3.955   2.429  0.1413 -0.2542  0.2432
 1431TIP3    H1 4299   1.944   3.986   2.360  0.6540 -0.7595 -0.4167
 1431TIP3    H2 4300   2.083   3.931   2.385 -0.0162 -1.9586  0.8009
 1432TIP3   OH2 4301   1.093   3.784   2.897  0.2555 -0.7249  0.4881
 1432TIP3    H1 4302   1.169   3.833   2.927 -0.8742  0.4429  1.6083
 1432TIP3    H2 4303   1.020   3.845   2.908 -0.7301 -1.4964 -1.3969
 1433TIP3   OH2 4304   3.390   5.023   1.983  0.0133 -0.1050  0.0483
 1433TIP3    H1 4305   3.396   4.964   1.908 -1.2168  2.1875 -2.0529
 1433TIP3    H2 4306   3.436   5.102   1.954  0.8376  0.3230  2.3769
 1434TIP3   OH2 4307   4.757   3.658   2.735 -0.3912 -0.2497  0.5562
 1434TIP3    H1 4308   4.804   3.582   2.699 -0.9440 -1.1978  1.7798
 1434TIP3    H2 4309   4.820   3.698   2.794 -0.8011 -1.0287  1.5490
 1435TIP3   OH2 4310   6.018   0.977   1.168 -0.0470  0.0693 -0.0356
 1435TIP3    H1 4311   6.029   0.972   1.072  1.2812 -0.9227  0.1280
 1435TIP3    H2 4312   6.055   0.894   1.199  0.1338  0.6739  1.3922
 1436TIP3   OH2 4313   5.792   2.007   1.194 -0.3109  0.0316  0.0343
 1436TIP3    H1 4314   5.790   1.980   1.286 -0.1410 -0.5998 -0.1362
 1436TIP3    H2 4315   5.711   2.056   1.181 -0.8382 -0.7609  0.2667
 1437TIP3   OH2 4316   6.364   5.107   1.111 -0.0248  0.0384  0.2393
 1437TIP3    H1 4317   6.350   5.149   1.196 -0.9394 -0.3566  0.2986
 1437TIP3    H2 4318   6.340   5.015   1.126  1.4595 -0.4220 -0.0070
 1438TIP3   OH2 4319   4.552   3.135   2.277  0.2444  0.5313 -0.4392
 1438TIP3    H1 4320   4.538   3.040   2.272  0.5352  0.3673  1.3658
 1438TIP3    H2 4321   4.479   3.166   2.330  1.4477  0.9772  0.9998
 1439TIP3   OH2 4322   1.286   4.291   1.594 -0.4638  0.3461  0.0951
 1439TIP3    H1 4323   1.379   4.271   1.586 -0.3918  0.6814  0.0765
 1439TIP3    H2 4324   1.279   4.381   1.565 -0.5428  0.8611  1.6227
 1440TIP3   OH2 4325   5.286   0.884   4.359 -0.0192  0.2193  0.4041
 1440TIP3    H1 4326   5.242   0.962   4.392 -2.4233 -0.5580 -0.7197
 1440TIP3    H2 4327   5.318   0.910   4.272  2.3915  0.9451  1.4253
 1441TIP3   OH2 4328   1.945   0.533   3.859  0.2055  0.0573 -0.3845
 1441TIP3    H1 4329   1.875   0.586   3.820 -1.1695 -1.0651  0.4792
 1441TIP3    H2 4330   2.015   0.596   3.875 -0.1285  1.0109 -2.3224
 1442TIP3   OH2 4331   4.368   5.403   1.786  0.0093  0.2846 -0.0656
 1442TIP3    H1 4332   4.275   5.423   1.800  0.0281 -0.9125  2.1326
 1442TIP3    H2 4333   4.382   5.321   1.832  1.6653 -0.8377 -2.3771
 1443TIP3   OH2 4334   5.753   5.016   2.156  0.1556 -0.1861  0.2659
 1443TIP3    H1 4335   5.694   4.960   2.207 -0.9592  0.2078 -0.5400
 1443TIP3    H2 4336   5.793   4.957   2.093 -1.4640 -0.0376 -0.9728
 1444TIP3   OH2 4337   2.386   4.187   4.668  0.3546 -0.1308 -0.5910
 1444TIP3    H1 4338   2.446   4.142   4.728  1.0219  2.1703  0.5902
 1444TIP3    H2 4339   2.407   4.151   4.582  3.5888  0.6496 -0.2536
 1445TIP3   OH2 4340   5.108   5.518   1.746  0.5180 -0.1553  0.3653
 1445TIP3    H1 4341   5.084   5.610   1.750 -3.3787 -0.9379 -0.7482
 1445TIP3    H2 4342   5.124   5.493   1.837 -0.9588  1.0931  1.0125
 1446TIP3   OH2 4343   5.937   1.900   4.792  0.3534  0.1914  0.0540
 1446TIP3    H1 4344   5.904   1.989   4.806 -2.6798 -0.8229  0.1881
 1446TIP3    H2 4345   5.927   1.885   4.698 -0.6559 -0.4823  0.2503
 1447TIP3   OH2 4346   1.649   4.720   1.665  0.1302 -0.1124 -0.1837
 1447TIP3    H1 4347   1.603   4.637   1.650 -0.8810  0.2510  0.7571
 1447TIP3    H2 4348   1.705   4.702   1.742  1.5503 -0.5228 -1.2583
 1448TIP3   OH2 4349   5.884   2.903   3.317  0.0278  0.5363 -0.4803
 1448TIP3    H1 4350   5.849   2.918   3.229 -2.1407 -0.7300  0.0972
 1448TIP3    H2 4351   5.958   2.844   3.303 -1.3089 -0.9984 -1.3671
 1449TIP3   OH2 4352   1.389   3.082   0.262  0.4245 -0.3170  0.2183
 1449TIP3    H1 4353   1.362   3.058   0.173  0.0877 -1.7088  0.6781
 1449TIP3    H2 4354   1.347   3.018   0.318  1.5850 -0.1660  1.2954
 1450TIP3   OH2 4355   1.237   0.994   2.323  0.7303 -0.5710 -0.3408
 1450TIP3    H1 4356   1.153   0.952   2.343 -0.7481  2.3659  0.2150
 1450TIP3    H2 4357   1.300   0.947   2.377 -1.2259 -0.5146  2.1881
 1451TIP3   OH2 4358   3.300   1.661   0.818 -0.1508  0.1734 -0.3967
 1451TIP3    H1 4359   3.387   1.684   0.849  0.1103 -0.8159 -0.3746
 1451TIP3    H2 4360   3.304   1.567   0.800 -1.0927  0.1915 -0.7885
 1452TIP3   OH2 4361   2.789   1.281   1.643  0.1408 -0.0891  0.3389
 1452TIP3    H1 4362   2.704   1.250   1.673  0.5760 -0.4389  1.2442
 1452TIP3    H2 4363   2.825   1.207   1.593  0.6243 -0.5891  1.3975
 1453TIP3   OH2 4364   0.435   1.406   3.828 -0.0951  0.0615 -1.3437
 1453TIP3    H1 4365   0.346   1.372   3.827 -0.2175  0.3112 -0.1876
 1453TIP3    H2 4366   0.490   1.328   3.839 -0.4770  0.2017  3.7755
 1454TIP3   OH2 4367   0.338   0.552   3.774  0.2418  0.5531 -0.2712
 1454TIP3    H1 4368   0.262   0.570   3.829  1.4000  2.6216  0.7540
 1454TIP3    H2 4369   0.410   0.599   3.815  2.0678 -1.1303 -1.3554
 1455TIP3   OH2 4370   0.225   0.038   3.122 -0.2179 -0.4348 -0.1891
 1455TIP3    H1 4371   0.266   0.035   3.208  0.0832  0.2873 -0.2992
 1455TIP3    H2 4372   0.203   0.131   3.110 -0.2369 -0.5295 -0.8949
 1456TIP3   OH2 4373   5.630   2.914   4.605 -0.2394  0.1996  0.7807
 1456TIP3    H1 4374   5.685   2.954   4.673  0.9328 -0.5461  0.3068
 1456TIP3    H2 4375   5.604   2.830   4.642 -0.4194  0.2121  0.6846
 1457TIP3   OH2 4376   3.605   4.589   2.329 -0.1726 -0.1448 -0.1024
 1457TIP3    H1 4377   3.599   4.679   2.297 -2.1157 -0.6380 -1.2744
 1457TIP3    H2 4378   3.643   4.539   2.257 -2.4016 -0.8485 -0.8616
 1458TIP3   OH2 4379   4.328   2.561   4.565 -0.5681 -0.2450 -0.2222
 1458TIP3    H1 4380   4.407   2.558   4.618 -0.2537 -0.3871 -0.6967
 1458TIP3    H2 4381   4.326   2.651   4.531 -0.3588 -0.3820 -0.5937
 1459TIP3   OH2 4382   2.171   4.753   0.372  0.2810 -0.4402 -0.1434
 1459TIP3    H1 4383   2.196   4.701   0.449 -0.8114  1.1376  1.3823
 1459TIP3    H2 4384   2.248   4.752   0.316  1.9329  0.0601  1.9746
 1460TIP3   OH2 4385   2.099   3.691   2.284  0.1213  0.2927  0.3928
 1460TIP3    H1 4386   2.080   3.702   2.191 -1.6424 -1.8056  0.4076
 1460TIP3    H2 4387   2.014   3.697   2.327  0.5359 -1.2091  1.5497
 1461TIP3   OH2 4388   4.142   3.705   3.887 -0.4294  0.7748  0.2318
 1461TIP3    H1 4389   4.173   3.647   3.817  0.6646  1.2128  0.3249
 1461TIP3    H2 4390   4.202   3.689   3.960  1.1119  3.2914 -0.3496
 1462TIP3   OH2 4391   5.650   1.018   3.397  0.4211  0.0856  0.0824
 1462TIP3    H1 4392   5.580   0.991   3.338  0.5598  1.9201 -0.9930
 1462TIP3    H2 4393   5.606   1.057   3.472  0.2715  1.1381 -0.5426
 1463TIP3   OH2 4394   1.523   5.905   0.654 -0.1685 -0.0146  0.1768
 1463TIP3    H1 4395   1.455   5.961   0.617 -1.4215 -1.9139 -0.5780
 1463TIP3    H2 4396   1.496   5.891   0.745  1.0888  1.9349  0.8994
 1464TIP3   OH2 4397   3.344   5.139   0.259  0.1090 -0.6056 -0.2600
 1464TIP3    H1 4398   3.292   5.085   0.200 -2.1362 -1.3652  2.2178
 1464TIP3    H2 4399   3.402   5.076   0.303  1.4995 -0.1034 -1.3126
 1465TIP3   OH2 4400   1.112   2.316   1.090  0.2717  0.6294 -0.3857
 1465TIP3    H1 4401   1.151   2.280   1.170 -1.6385  1.0106  0.7866
 1465TIP3    H2 4402   1.056   2.246   1.057 -0.8786  1.3316  0.0296
 1466TIP3   OH2 4403   4.612   3.896   2.753  0.1748  0.0308  0.1254
 1466TIP3    H1 4404   4.655   3.813   2.731 -0.9703 -0.4120 -0.5139
 1466TIP3    H2 4405   4.520   3.873   2.765  0.0681  0.9833  1.3424
 1467TIP3   OH2 4406   0.250   3.623   4.024 -0.1337  0.3097  0.1363
 1467TIP3    H1 4407   0.272   3.540   3.982 -0.7555  0.0182  0.3755
 1467TIP3    H2 4408   0.208   3.674   3.955 -0.2185  0.2249  0.1242
 1468TIP3   OH2 4409   3.493   3.253   4.743  0.6892 -0.1591  0.2549
 1468TIP3    H1 4410   3.526   3.195   4.811  2.5370  0.4383 -0.0740
 1468TIP3    H2 4411   3.533   3.221   4.662 -0.5431 -0.1410 -0.3849
 1469TIP3   OH2 4412   5.551   1.334   1.618 -0.0385 -0.6969  0.0084
 1469TIP3    H1 4413   5.634   1.292   1.595  1.4993  0.8386  2.2686
 1469TIP3    H2 4414   5.533   1.303   1.707  0.2757  1.9725  1.0836
 1470TIP3   OH2 4415   4.542   1.573   3.447  0.6420 -0.0571 -0.3077
 1470TIP3    H1 4416   4.466   1.537   3.492  1.0561 -0.9113 -0.2674
 1470TIP3    H2 4417   4.508   1.605   3.363  0.0740  0.4751  0.1187
 1471TIP3   OH2 4418   4.477   2.181   0.094 -0.0548  0.0479 -1.0024
 1471TIP3    H1 4419   4.410   2.128   0.050 -0.5247  1.5042 -2.1212
 1471TIP3    H2 4420   4.436   2.208   0.177 -0.7898  0.7172 -1.5648
 1472TIP3   OH2 4421   0.168   4.555   1.095 -0.0891  0.9317  0.4380
 1472TIP3    H1 4422   0.244   4.610   1.109  1.1695 -0.6703  0.1651
 1472TIP3    H2 4423   0.120   4.599   1.025  1.6698  0.9472 -0.8245
 1473TIP3   OH2 4424   1.697   2.654   5.076 -0.0255  0.9688 -0.2650
 1473TIP3    H1 4425   1.702   2.605   5.159 -0.4454 -0.0158 -0.8089
 1473TIP3    H2 4426   1.667   2.741   5.102 -1.6067  0.2522  0.4831
 1474TIP3   OH2 4427   0.095   5.448   0.806  0.0776 -0.2800 -0.6211
 1474TIP3    H1 4428   0.095   5.526   0.861  0.2256 -1.3141  0.8857
 1474TIP3    H2 4429   0.115   5.481   0.718  1.6821  1.1935  0.2355
 1475TIP3   OH2 4430   2.675   2.808   2.777 -0.0459 -0.0793  0.1109
 1475TIP3    H1 4431   2.743   2.796   2.710 -0.7979  0.9255 -0.8797
 1475TIP3    H2 4432   2.624   2.727   2.775  0.1247 -0.1784 -0.3083
 1476TIP3   OH2 4433   0.667   3.343   1.901 -0.0669 -0.6799  0.1924
 1476TIP3    H1 4434   0.681   3.407   1.831 -2.1061  0.1462  0.4558
 1476TIP3    H2 4435   0.637   3.264   1.856  1.3876 -1.1353 -0.0434
 1477TIP3   OH2 4436   6.194   3.266   1.006 -0.1476  0.4918 -0.2975
 1477TIP3    H1 4437   6.172   3.349   0.963 -1.0538  0.8085  0.7386
 1477TIP3    H2 4438   6.181   3.283   1.099  0.7665 -0.4948  0.0249
 1478TIP3   OH2 4439   5.517   5.415   1.476 -0.1302 -0.1296  0.6354
 1478TIP3    H1 4440   5.531   5.452   1.388  0.2050 -0.0164  0.7368
 1478TIP3    H2 4441   5.543   5.323   1.467 -2.2529 -0.7456  0.0201
 1479TIP3   OH2 4442   1.303   0.347   3.955 -0.2523 -0.4701  0.0556
 1479TIP3    H1 4443   1.349   0.395   4.024 -1.4060  0.5698  0.1277
 1479TIP3    H2 4444   1.313   0.255   3.979  1.0700 -0.2296  0.5097
 1480TIP3   OH2 4445  -0.019   3.996   3.665 -0.2478  0.0435  0.2541
 1480TIP3    H1 4446   0.018   4.026   3.748  0.0243 -0.7413  0.4288
 1480TIP3    H2 4447   0.055   3.954   3.620 -0.6924 -0.6640  0.1755
 1481TIP3   OH2 4448   0.350   0.186   1.808 -0.0500  0.9612 -0.7449
 1481TIP3    H1 4449   0.265   0.226   1.788 -0.3805  2.2860  2.6671
 1481TIP3    H2 4450   0.329   0.096   1.831 -0.7941  1.5809  1.2024
 1482TIP3   OH2 4451   0.085   5.484   2.390  0.6413 -0.2513  0.1499
 1482TIP3    H1 4452   0.046   5.445   2.312 -0.0404 -0.1966  0.4635
 1482TIP3    H2 4453   0.168   5.438   2.401  0.2998 -0.9275 -0.0530
 1483TIP3   OH2 4454   6.063   0.844   4.021 -0.0128 -0.4308 -0.2438
 1483TIP3    H1 4455   6.109   0.881   3.946  2.7482 -0.2097  1.4545
 1483TIP3    H2 4456   6.057   0.750   4.001  0.1884 -0.2981 -0.9544
 1484TIP3   OH2 4457   6.013   1.506   4.428  0.0473  0.6015  0.2189
 1484TIP3    H1 4458   5.989   1.570   4.360  0.9313  0.9564  0.2249
 1484TIP3    H2 4459   6.073   1.554   4.485  0.4806 -0.1440  0.4001
 1485TIP3   OH2 4460   4.942   4.338   0.927 -0.1885 -0.1546  0.1631
 1485TIP3    H1 4461   4.870   4.398   0.945  0.4944  0.5208  0.6881
 1485TIP3    H2 4462   4.949   4.337   0.832 -1.6723 -1.1786  0.0247
 1486TIP3   OH2 4463   5.644   3.085   4.412  0.1727  0.2763  0.4399
 1486TIP3    H1 4464   5.676   3.008   4.460  1.7342  0.1223 -0.7362
 1486TIP3    H2 4465   5.661   3.159   4.471 -0.3521 -0.1634  1.1563
 1487TIP3   OH2 4466   0.862   1.909   2.081  0.6707 -0.0842  0.3473
 1487TIP3    H1 4467   0.803   1.964   2.030  1.3179 -0.2243 -0.5978
 1487TIP3    H2 4468   0.928   1.969   2.115  1.6906 -0.2995 -1.1406
 1488TIP3   OH2 4469   6.127   2.507   4.536 -0.2957 -0.0578  0.3394
 1488TIP3    H1 4470   6.083   2.499   4.621  0.8617  1.4704  1.1485
 1488TIP3    H2 4471   6.219   2.488   4.555  0.1928  1.5129 -0.2869
 1489TIP3   OH2 4472   1.074   2.067   3.538  0.3190 -0.3259 -0.4472
 1489TIP3    H1 4473   1.077   2.158   3.507  0.6237  0.6049  2.1260
 1489TIP3    H2 4474   0.995   2.062   3.591  1.7375 -0.6930  1.7680
 1490TIP3   OH2 4475   3.826   0.340   3.878 -0.1070  0.5341  0.3037
 1490TIP3    H1 4476   3.894   0.362   3.814 -0.8744 -0.0583 -0.7491
 1490TIP3    H2 4477   3.810   0.421   3.925  0.3853  1.0218 -0.3485
 1491TIP3   OH2 4478   0.037   1.273   4.533 -0.0636  0.1082  0.2580
 1491TIP3    H1 4479   0.035   1.331   4.457  0.2688  0.1508  0.2797
 1491TIP3    H2 4480   0.081   1.324   4.602 -1.3322  0.4713  0.8185
 1492TIP3   OH2 4481   0.696   3.624   1.410  0.1554 -0.2846 -0.1919
 1492TIP3    H1 4482   0.695   3.574   1.328  3.9895  1.9771 -1.8758
 1492TIP3    H2 4483   0.654   3.708   1.386  0.4349  0.0386  0.4479
 1493TIP3   OH2 4484   6.215   5.754   3.106  0.0826  0.2025  0.0320
 1493TIP3    H1 4485   6.211   5.776   3.199 -1.2750  1.3049 -0.2658
 1493TIP3    H2 4486   6.252   5.831   3.064 -0.3820  0.1565 -0.4738
 1494TIP3   OH2 4487   1.450   5.039   0.873 -0.2062  0.0499 -0.2449
 1494TIP3    H1 4488   1.523   5.078   0.824  0.8167 -0.2332  1.0090
 1494TIP3    H2 4489   1.373   5.090   0.845  0.7737  1.6444 -0.1739
 1495TIP3   OH2 4490   1.966   2.749   4.595  0.7074  0.4255  0.0769
 1495TIP3    H1 4491   2.013   2.745   4.679 -0.8312 -0.8778  0.9193
 1495TIP3    H2 4492   2.017   2.693   4.537  0.6357 -0.3710  0.7630
 1496TIP3   OH2 4493   2.497   0.296   2.823  0.1651  0.2766  0.4428
 1496TIP3    H1 4494   2.591   0.306   2.810  0.2660 -0.7017  0.2858
 1496TIP3    H2 4495   2.461   0.298   2.734  0.2676 -1.2220  0.3372
 1497TIP3   OH2 4496   1.296   4.047   1.901 -0.4601  0.2647  0.4920
 1497TIP3    H1 4497   1.303   4.131   1.946 -3.6349 -0.5893  2.9173
 1497TIP3    H2 4498   1.213   4.052   1.853 -0.0859 -1.0572 -0.3605
 1498TIP3   OH2 4499   4.292   5.060   0.209 -0.2607  0.4194  0.1861
 1498TIP3    H1 4500   4.319   5.046   0.300  0.9669  1.3180 -0.0146
 1498TIP3    H2 4501   4.368   5.101   0.168 -0.5375 -0.6180 -1.4425
 1499TIP3   OH2 4502   1.223   2.008   2.693 -0.3797  0.9832 -0.3206
 1499TIP3    H1 4503   1.188   2.063   2.763 -2.0216  0.4211 -0.6539
 1499TIP3    H2 4504   1.187   2.046   2.613 -3.1966 -1.5719 -0.4531
 1500TIP3   OH2 4505   4.202   2.464   2.372 -0.1281  0.2554  0.4487
 1500TIP3    H1 4506   4.193   2.379   2.329 -0.3762 -0.5691  2.0595
 1500TIP3    H2 4507   4.274   2.507   2.325  0.0858 -0.8814 -0.3056
 1501TIP3   OH2 4508   4.306   3.179   2.809  0.0064 -0.2767  0.3164
 1501TIP3    H1 4509   4.217   3.144   2.821 -0.4065  1.0332  1.4576
 1501TIP3    H2 4510   4.325   3.222   2.893  1.7510 -0.5799  0.1022
 1502TIP3   OH2 4511   0.704   2.881   4.365  0.1745  0.3328  0.9745
 1502TIP3    H1 4512   0.610   2.885   4.349 -0.1316  2.0876  2.8091
 1502TIP3    H2 4513   0.738   2.962   4.326  1.0971 -0.6391 -0.3469
 1503TIP3   OH2 4514   2.786   1.701   1.226  0.8472  0.7428  0.4238
 1503TIP3    H1 4515   2.789   1.720   1.132  1.1529 -0.6995  0.1227
 1503TIP3    H2 4516   2.778   1.606   1.231 -0.3195  0.8852  1.8625
 1504TIP3   OH2 4517   2.202   2.835   0.936 -0.2285 -0.0492 -0.4659
 1504TIP3    H1 4518   2.231   2.749   0.966 -0.3529 -0.0510 -0.3487
 1504TIP3    H2 4519   2.235   2.842   0.846  1.5094  0.5803  0.1696
 1505TIP3   OH2 4520   6.223   4.090   2.872 -0.0646 -0.1038  0.0749
 1505TIP3    H1 4521   6.146   4.126   2.830  0.1617  0.2315 -0.0550
 1505TIP3    H2 4522   6.203   3.997   2.884 -0.0787 -0.2268 -0.8771
 1506TIP3   OH2 4523   2.987   3.987   1.217  0.9501  0.2649 -0.2742
 1506TIP3    H1 4524   3.082   3.983   1.210  1.3910 -0.5854  3.8475
 1506TIP3    H2 4525   2.964   3.918   1.279 -2.2494  1.1371 -0.2946
 1507TIP3   OH2 4526   3.839   5.663   2.687 -0.1133 -0.6001  0.1034
 1507TIP3    H1 4527   3.757   5.696   2.722  0.9212  0.0742  2.0337
 1507TIP3    H2 4528   3.894   5.741   2.677  0.2242 -1.0058 -1.4158
 1508TIP3   OH2 4529   6.043   5.954   1.151  0.7092 -0.1942  0.0019
 1508TIP3    H1 4530   6.081   5.893   1.087 -0.1216 -0.9234  0.1829
 1508TIP3    H2 4531   5.955   5.919   1.168  0.5723  0.5224  0.8364
 1509TIP3   OH2 4532   6.208   5.818   3.707  0.7407 -0.1579  0.1086
 1509TIP3    H1 4533   6.158   5.865   3.775  0.0532  0.2383 -0.6530
 1509TIP3    H2 4534   6.283   5.875   3.690  1.4842 -0.7503  1.2499
 1510TIP3   OH2 4535   3.192   2.607   5.021 -0.4201 -0.2534  0.3927
 1510TIP3    H1 4536   3.151   2.626   4.937 -2.3797 -1.0599  1.0990
 1510TIP3    H2 4537   3.176   2.514   5.035  1.1126 -0.4494  1.0464
 1511TIP3   OH2 4538   0.320   1.387   0.130 -0.1683  0.0481 -0.5505
 1511TIP3    H1 4539   0.249   1.350   0.078 -0.4674  0.5767 -0.5272
 1511TIP3    H2 4540   0.285   1.470   0.163  0.7972  0.8317 -1.3897
 1512TIP3   OH2 4541   1.694   5.676   4.528  0.8347 -0.2371  0.0106
 1512TIP3    H1 4542   1.606   5.668   4.492  1.2688 -2.3188 -0.7084
 1512TIP3    H2 4543   1.696   5.615   4.602  1.6519 -0.1315  0.0850
 1513TIP3   OH2 4544   5.769   1.683   2.713  0.0849  0.0514 -0.6360
 1513TIP3    H1 4545   5.703   1.752   2.713  1.4263  1.5049 -3.0217
 1513TIP3    H2 4546   5.721   1.602   2.699 -1.5387  0.3976  2.2044
 1514TIP3   OH2 4547   0.127   4.672   0.682  0.2620 -0.3851  0.3075
 1514TIP3    H1 4548   0.141   4.751   0.630 -0.0431 -0.6712 -0.2229
 1514TIP3    H2 4549   0.131   4.702   0.773 -0.8559  0.4338  0.1161
 1515TIP3   OH2 4550   2.554   5.116   4.663 -0.1673  0.1127  0.4650
 1515TIP3    H1 4551   2.589   5.204   4.673 -0.6003  0.2278  0.9827
 1515TIP3    H2 4552   2.622   5.059   4.699 -0.4206  0.3235  1.2859
 1516TIP3   OH2 4553   1.200   4.725   1.854  0.0877 -0.2499  0.0917
 1516TIP3    H1 4554   1.162   4.650   1.901 -0.6795 -0.4229 -0.7917
 1516TIP3    H2 4555   1.211   4.792   1.922 -0.7059 -0.6028  0.5887
 1517TIP3   OH2 4556   5.809   1.021   0.603 -0.4360 -0.0053  0.2090
 1517TIP3    H1 4557   5.782   1.108   0.575 -0.4221 -0.3697 -0.9912
 1517TIP3    H2 4558   5.780   1.015   0.694 -0.7142  1.1257  0.2120
 1518TIP3   OH2 4559   6.247   4.336   3.200 -0.7646 -0.0642 -0.3325
 1518TIP3    H1 4560   6.220   4.263   3.256 -0.6405  0.0720 -0.0934
 1518TIP3    H2 4561   6.328   4.306   3.159 -1.9155 -0.9917 -2.0528
 1519TIP3   OH2 4562   4.990   4.689   1.710  0.1092 -0.1167  0.1238
 1519TIP3    H1 4563   5.042   4.659   1.784 -1.0866 -1.3069  0.5077
 1519TIP3    H2 4564   4.904   4.709   1.747 -0.3944 -0.3640 -0.8794
 1520TIP3   OH2 4565   2.364   1.968   4.929 -0.7548  0.1479  0.0314
 1520TIP3    H1 4566   2.397   2.024   5.000  0.2602  0.0645 -0.3657
 1520TIP3    H2 4567   2.384   1.879   4.957 -0.6690  0.0953 -0.1946
 1521TIP3   OH2 4568   0.776   3.699   3.009  0.3533  0.3117 -0.3853
 1521TIP3    H1 4569   0.741   3.622   2.964  0.0098 -0.0590  0.5046
 1521TIP3    H2 4570   0.861   3.670   3.042  0.6653  0.6253 -0.9055
 1522TIP3   OH2 4571   3.432   0.836   1.075 -0.4611 -0.3031 -0.0990
 1522TIP3    H1 4572   3.523   0.812   1.088 -0.5883 -1.0562 -0.5136
 1522TIP3    H2 4573   3.425   0.925   1.109 -0.1507 -1.1111  2.2761
 1523TIP3   OH2 4574   5.840   0.682   3.639 -0.0358  0.0083 -0.2236
 1523TIP3    H1 4575   5.875   0.599   3.673  0.3531  0.5876  0.8383
 1523TIP3    H2 4576   5.751   0.660   3.612 -0.4154 -0.4912  1.2918
 1524TIP3   OH2 4577   4.795   3.075   1.468 -0.2014  0.3606 -0.0402
 1524TIP3    H1 4578   4.820   3.165   1.488 -1.5628  0.7566 -0.0169
 1524TIP3    H2 4579   4.702   3.070   1.491 -0.1559 -1.0494 -0.0588
 1525TIP3   OH2 4580   4.846   2.731   2.519  0.5662  0.4109 -0.2184
 1525TIP3    H1 4581   4.840   2.816   2.477  1.8741  0.4443 -0.3613
 1525TIP3    H2 4582   4.814   2.669   2.453 -1.0449  0.8169  0.1226
 1526TIP3   OH2 4583   1.755   3.753   0.455 -0.2948 -0.9560  0.1737
 1526TIP3    H1 4584   1.797   3.722   0.375 -0.4347 -0.8126  0.0428
 1526TIP3    H2 4585   1.717   3.838   0.430  1.4532  0.1018  0.9359
 1527TIP3   OH2 4586   1.063   0.426   0.225  0.0451 -0.4360  0.8133
 1527TIP3    H1 4587   1.015   0.412   0.144  2.0064 -3.0272 -0.0844
 1527TIP3    H2 4588   1.148   0.459   0.197  0.0194  0.7335  2.0301
 1528TIP3   OH2 4589   2.780   1.938   3.208  0.0056 -0.3390  0.5428
 1528TIP3    H1 4590   2.707   1.929   3.268 -1.2396  1.1396 -0.6498
 1528TIP3    H2 4591   2.822   2.020   3.233  0.7911 -0.7802  0.7135
 1529TIP3   OH2 4592   0.390   2.738   1.985 -0.0138 -0.5069 -0.6434
 1529TIP3    H1 4593   0.461   2.782   1.938 -0.0060 -0.2090 -0.3518
 1529TIP3    H2 4594   0.426   2.723   2.072 -0.4496 -0.0014 -0.3743
 1530TIP3   OH2 4595   2.320   3.721   3.921 -0.3231  0.1410  0.4377
 1530TIP3    H1 4596   2.278   3.805   3.939  0.8502  0.3517  2.5643
 1530TIP3    H2 4597   2.379   3.739   3.848 -0.3907  1.0938  0.5980
 1531TIP3   OH2 4598   2.905   2.727   1.438 -0.3337 -0.1822 -0.1550
 1531TIP3    H1 4599   2.938   2.718   1.349 -0.0009  0.1489 -0.0641
 1531TIP3    H2 4600   2.977   2.698   1.494 -1.5663 -3.4275 -0.0530
 1532TIP3   OH2 4601   3.202   1.865   1.563  0.2114 -0.3348 -0.3667
 1532TIP3    H1 4602   3.260   1.798   1.601 -1.2374 -1.0406  0.7132
 1532TIP3    H2 4603   3.135   1.815   1.516 -1.6377  0.2083  1.5164
 1533TIP3   OH2 4604   3.383   2.840   2.734  0.3677  1.1072 -0.3691
 1533TIP3    H1 4605   3.288   2.830   2.737 -0.0236  3.9274  2.5562
 1533TIP3    H2 4606   3.410   2.793   2.655 -3.3068 -0.5691 -0.8248
 1534TIP3   OH2 4607   0.918   4.212   1.511 -0.1253  0.7392 -0.1476
 1534TIP3    H1 4608   0.925   4.305   1.489  0.7781  1.3013  2.2534
 1534TIP3    H2 4609   0.831   4.204   1.551  0.4022  0.9072  1.0653
 1535TIP3   OH2 4610   2.088   0.771   3.636  0.0413  0.2789  0.5977
 1535TIP3    H1 4611   2.127   0.856   3.613  1.3151  0.2201  2.3474
 1535TIP3    H2 4612   2.161   0.709   3.630 -0.5762 -0.4692  0.6613
 1536TIP3   OH2 4613   2.426   0.680   3.378  0.2650  0.0698 -0.3315
 1536TIP3    H1 4614   2.411   0.595   3.336  0.5854  0.2093 -0.7333
 1536TIP3    H2 4615   2.342   0.725   3.371  0.2042 -0.0625 -0.4750
 1537TIP3   OH2 4616   5.565   5.753   2.174 -0.2569  0.0345  0.2772
 1537TIP3    H1 4617   5.564   5.808   2.095 -0.3896  0.5776  0.6528
 1537TIP3    H2 4618   5.621   5.679   2.150 -0.6769 -0.0480 -0.4901
 1538TIP3   OH2 4619   6.248   2.803   4.866 -0.2034 -0.3560  0.2454
 1538TIP3    H1 4620   6.295   2.839   4.942 -0.1234 -0.3391  0.1884
 1538TIP3    H2 4621   6.316   2.755   4.817 -0.2206 -0.2305  0.0986
 1539TIP3   OH2 4622   1.355   2.458   2.952 -0.2337  0.5880  0.1853
 1539TIP3    H1 4623   1.436   2.411   2.933 -1.6727 -2.5365  1.1234
 1539TIP3    H2 4624   1.381   2.526   3.015  1.6171 -0.3921  0.5461
 1540TIP3   OH2 4625   5.009   5.293   3.150 -0.3632  0.3152  0.2090
 1540TIP3    H1 4626   5.010   5.215   3.205 -0.8863  0.7143  0.7920
 1540TIP3    H2 4627   4.917   5.320   3.148 -0.3410  0.3694 -0.7787
 1541TIP3   OH2 4628   5.139   1.849   3.726  0.1032 -0.4329  0.2281
 1541TIP3    H1 4629   5.132   1.924   3.667 -0.8793 -0.6359  0.0628
 1541TIP3    H2 4630   5.164   1.776   3.669  0.9997 -0.2558  0.3794
 1542TIP3   OH2 4631   2.368   0.092   3.087  0.2032 -0.7999  0.1613
 1542TIP3    H1 4632   2.379   0.073   2.993 -0.9607 -0.5572 -0.0442
 1542TIP3    H2 4633   2.450   0.064   3.127  0.5878 -1.2324 -0.8899
 1543TIP3   OH2 4634   1.719   0.498   1.529 -0.5413 -0.2376 -0.7992
 1543TIP3    H1 4635   1.760   0.584   1.521 -0.5309 -0.4223 -3.4204
 1543TIP3    H2 4636   1.626   0.517   1.544 -0.4701  0.2145 -0.9213
 1544TIP3   OH2 4637   0.457   1.355   1.017  0.3808  0.0104 -0.7129
 1544TIP3    H1 4638   0.448   1.294   0.944 -0.4177 -0.7774  0.0368
 1544TIP3    H2 4639   0.458   1.300   1.095  0.5381  0.8949 -0.0777
 1545TIP3   OH2 4640   0.330   2.418   3.366  0.0479  0.1800  0.9602
 1545TIP3    H1 4641   0.249   2.397   3.412 -0.0312  0.7550  1.1000
 1545TIP3    H2 4642   0.389   2.450   3.435  0.1488  0.4330  0.7571
 1546TIP3   OH2 4643   6.037   4.962   4.609  0.4510 -0.4360  0.0869
 1546TIP3    H1 4644   6.103   4.931   4.671  0.3209 -0.3048  0.2906
 1546TIP3    H2 4645   5.972   5.007   4.663 -0.8131 -2.2244  0.1463
 1547TIP3   OH2 4646   0.173   0.927   1.725 -0.1597 -0.2836  0.3843
 1547TIP3    H1 4647   0.169   1.015   1.687 -0.6634 -1.3432 -2.2107
 1547TIP3    H2 4648   0.265   0.914   1.746  0.1940  0.3040 -0.7080
 1548TIP3   OH2 4649   2.227   4.605   4.810 -0.0197  0.2999 -0.1070
 1548TIP3    H1 4650   2.286   4.553   4.864  0.1047  0.3241 -0.2196
 1548TIP3    H2 4651   2.216   4.687   4.858 -4.1516 -1.5634  2.6893
 1549TIP3   OH2 4652   5.084   5.777   4.656 -0.2140  0.2625 -0.6274
 1549TIP3    H1 4653   5.132   5.842   4.605 -1.0246  1.2377 -0.1797
 1549TIP3    H2 4654   5.024   5.828   4.710 -0.9840 -0.8729 -0.3732
 1550TIP3   OH2 4655   4.464   0.823   0.887 -0.2302  0.2214 -0.5951
 1550TIP3    H1 4656   4.369   0.825   0.898 -0.0125 -0.6365  2.3262
 1550TIP3    H2 4657   4.499   0.852   0.971  2.0854 -1.4793 -0.8557
 1551TIP3   OH2 4658   5.981   3.526   3.154  0.6849 -0.9766 -0.2319
 1551TIP3    H1 4659   5.977   3.521   3.250 -0.2875  0.2354 -0.1779
 1551TIP3    H2 4660   6.001   3.437   3.126  0.2824 -1.5069  1.0649
 1552TIP3   OH2 4661   6.245   1.631   0.657  0.3045  0.4233  0.5417
 1552TIP3    H1 4662   6.175   1.573   0.686 -1.0019  1.3896 -0.5708
 1552TIP3    H2 4663   6.228   1.714   0.702 -1.4777  1.8021 -2.3654
 1553TIP3   OH2 4664   0.272   3.710   4.736  0.5622  0.3045 -0.4457
 1553TIP3    H1 4665   0.300   3.779   4.796  1.7517 -1.1366  0.7595
 1553TIP3    H2 4666   0.304   3.629   4.776 -1.3619 -1.0395 -1.4457
 1554TIP3   OH2 4667   3.514   3.927   2.588 -0.0414 -0.0503  0.1157
 1554TIP3    H1 4668   3.595   3.948   2.634 -0.9838 -2.0899  3.0240
 1554TIP3    H2 4669   3.445   3.968   2.642 -1.1021 -0.4790 -0.8684
 1555TIP3   OH2 4670   6.256   1.620   0.131  0.2983  0.0728 -0.3810
 1555TIP3    H1 4671   6.232   1.700   0.085 -0.3950  0.4292  0.5696
 1555TIP3    H2 4672   6.235   1.549   0.070 -1.3894  0.4838 -0.3141
 1556TIP3   OH2 4673   2.612   3.117   3.960 -0.4381  0.0794 -0.0041
 1556TIP3    H1 4674   2.606   3.022   3.967 -2.2714  0.2412  1.1887
 1556TIP3    H2 4675   2.549   3.140   3.892  0.9125  0.3977 -1.2175
 1557TIP3   OH2 4676   2.482   4.190   2.331  0.0619  0.1553 -0.2922
 1557TIP3    H1 4677   2.554   4.131   2.354 -1.7763 -1.8308  0.7698
 1557TIP3    H2 4678   2.438   4.147   2.258  0.2609  1.6384 -1.3181
 1558TIP3   OH2 4679   3.421   5.907   1.359 -1.0377  0.0928 -0.3969
 1558TIP3    H1 4680   3.437   5.919   1.265 -1.1441  1.7968 -0.2235
 1558TIP3    H2 4681   3.437   5.993   1.397  1.3134 -1.0698  1.4982
 1559TIP3   OH2 4682   3.557   1.138   2.063 -0.3332 -0.0270 -0.1012
 1559TIP3    H1 4683   3.616   1.112   2.133 -0.0226 -0.5807 -0.5561
 1559TIP3    H2 4684   3.509   1.212   2.098 -2.0099 -1.8419  1.6495
 1560TIP3   OH2 4685   0.779   2.428   4.384  0.1962 -0.4842 -0.2878
 1560TIP3    H1 4686   0.796   2.503   4.327  2.1613 -1.2613 -0.8436
 1560TIP3    H2 4687   0.810   2.456   4.470 -0.8935 -0.0082 -0.0374
 1561TIP3   OH2 4688   2.015   3.137   0.507  0.0230 -0.1251 -0.4769
 1561TIP3    H1 4689   1.936   3.192   0.501 -1.4279 -1.9670  0.4863
 1561TIP3    H2 4690   2.088   3.199   0.502 -1.4886  1.7261 -0.7797
 1562TIP3   OH2 4691   1.094   5.468   4.298  0.3737 -0.1745  0.1731
 1562TIP3    H1 4692   1.180   5.483   4.339  1.7774  1.3279 -2.9156
 1562TIP3    H2 4693   1.111   5.402   4.231 -0.4649  1.1738 -1.4563
 1563TIP3   OH2 4694   6.118   4.878   0.609  0.9426 -0.4814 -0.1932
 1563TIP3    H1 4695   6.163   4.906   0.689 -0.5556  1.4335  0.0569
 1563TIP3    H2 4696   6.176   4.906   0.538  0.4039  1.5794  0.1343
 1564TIP3   OH2 4697   2.050   2.501   0.615  0.3268  0.0775 -0.0062
 1564TIP3    H1 4698   2.080   2.518   0.704 -0.1258  3.4900 -0.3777
 1564TIP3    H2 4699   1.954   2.503   0.621  0.2950  0.3734 -0.5560
 1565TIP3   OH2 4700   3.441   5.146   2.347  0.4990  0.8223 -0.1638
 1565TIP3    H1 4701   3.511   5.212   2.354 -0.3339  1.6974  0.0875
 1565TIP3    H2 4702   3.368   5.193   2.307  0.4691 -0.4412 -1.6730
 1566TIP3   OH2 4703   5.512   4.153   4.613  0.1208  0.1637 -0.1234
 1566TIP3    H1 4704   5.453   4.082   4.588 -1.2735  1.9043 -2.0980
 1566TIP3    H2 4705   5.462   4.206   4.675 -0.1095  1.1487 -1.1143
 1567TIP3   OH2 4706   2.934   5.553   2.302  0.6930  0.2229  0.1979
 1567TIP3    H1 4707   2.872   5.542   2.374  2.0372 -0.2723  1.3305
 1567TIP3    H2 4708   2.882   5.539   2.223 -0.5999 -0.3255  1.1127
 1568TIP3   OH2 4709   1.107   0.341   1.181  0.7684 -0.3148  0.2697
 1568TIP3    H1 4710   1.190   0.367   1.141  1.6664 -2.3107  0.7043
 1568TIP3    H2 4711   1.107   0.386   1.266 -0.0133  2.0008 -0.8717
 1569TIP3   OH2 4712   4.853   5.834   2.555 -0.1127  0.0964 -0.1939
 1569TIP3    H1 4713   4.767   5.826   2.596 -0.0106 -0.1021 -0.0148
 1569TIP3    H2 4714   4.835   5.827   2.461 -0.1198 -1.7299 -0.0952
 1570TIP3   OH2 4715   2.283   5.455   2.196 -0.3168 -0.5064  0.3825
 1570TIP3    H1 4716   2.334   5.517   2.145  2.3569 -2.6206  0.2434
 1570TIP3    H2 4717   2.197   5.455   2.154  0.9226 -0.1297 -2.4275
 1571TIP3   OH2 4718   6.197   0.400   2.758  0.0967  0.4400 -0.7153
 1571TIP3    H1 4719   6.197   0.495   2.755 -1.1266  0.4339 -2.2384
 1571TIP3    H2 4720   6.194   0.373   2.666 -1.7350 -1.0128 -0.3044
 1572TIP3   OH2 4721   2.695   4.703   2.148  1.1835  0.1380  0.1894
 1572TIP3    H1 4722   2.731   4.791   2.155  1.2149  0.1656 -0.2762
 1572TIP3    H2 4723   2.602   4.713   2.166  1.0642  0.3786 -0.5143
 1573TIP3   OH2 4724   5.869   1.152   2.687 -0.2992 -0.0571 -0.5186
 1573TIP3    H1 4725   5.897   1.115   2.603  0.3157  0.3602 -0.5056
 1573TIP3    H2 4726   5.923   1.231   2.697 -0.0725 -0.3313  0.4580
 1574TIP3   OH2 4727   5.480   2.301   3.985 -0.0251 -0.1870  0.1822
 1574TIP3    H1 4728   5.500   2.247   3.909 -1.0471  0.8722 -0.8713
 1574TIP3    H2 4729   5.566   2.319   4.024  0.5181 -0.7323 -0.7248
 1575TIP3   OH2 4730   0.435   0.842   1.778 -0.1945  0.3140 -0.0291
 1575TIP3    H1 4731   0.422   0.758   1.822  0.1688 -0.1741 -0.8340
 1575TIP3    H2 4732   0.453   0.904   1.849  0.4172 -0.4631  0.5088
 1576TIP3   OH2 4733   5.134   2.193   2.785 -0.2363  0.1775 -0.0691
 1576TIP3    H1 4734   5.058   2.184   2.727 -2.6242  0.2422  2.7783
 1576TIP3    H2 4735   5.156   2.104   2.810 -0.3547  0.2302  0.2312
 1577TIP3   OH2 4736   2.016   2.823   3.555  0.9900 -0.1087  0.1896
 1577TIP3    H1 4737   1.994   2.784   3.640  0.8744 -2.9066 -1.0238
 1577TIP3    H2 4738   2.000   2.753   3.492 -0.0872  2.2520 -2.3255
 1578TIP3   OH2 4739   4.158   1.550   4.329 -0.2413 -0.3801 -0.0136
 1578TIP3    H1 4740   4.145   1.508   4.244  1.7598  0.2015 -0.6717
 1578TIP3    H2 4741   4.225   1.497   4.372 -0.6028 -0.1581  0.8454
 1579TIP3   OH2 4742   4.215   1.128   4.855  0.7892 -0.1763 -0.1496
 1579TIP3    H1 4743   4.161   1.051   4.838 -0.3501  0.8048 -1.1705
 1579TIP3    H2 4744   4.305   1.094   4.859  0.7070 -1.2466 -3.6648
 1580TIP3   OH2 4745   4.474   2.801   5.005 -0.4224 -0.3306 -0.1376
 1580TIP3    H1 4746   4.426   2.847   4.935  1.0913  0.3438 -0.7876
 1580TIP3    H2 4747   4.510   2.872   5.059  0.0904 -0.7968  0.1387
 1581TIP3   OH2 4748   4.938   1.110   0.757 -0.1294 -0.1022  0.1311
 1581TIP3    H1 4749   4.854   1.065   0.756 -0.5457  0.6630  0.1750
 1581TIP3    H2 4750   5.000   1.045   0.791 -0.8341 -0.4257  0.8232
 1582TIP3   OH2 4751   3.002   0.374   3.110  0.3294 -0.6359  0.4630
 1582TIP3    H1 4752   3.075   0.346   3.053 -0.8931 -0.3441 -1.3411
 1582TIP3    H2 4753   2.968   0.453   3.067 -0.3662 -0.1323  1.8965
 1583TIP3   OH2 4754   1.712   4.147   0.674  0.0980  0.2362 -0.7224
 1583TIP3    H1 4755   1.623   4.172   0.697  0.3760 -1.3108  2.5556
 1583TIP3    H2 4756   1.768   4.195   0.736  1.4754  0.2802 -1.9361
 1584TIP3   OH2 4757   0.099   3.422   2.175  0.7228  0.3524 -0.4790
 1584TIP3    H1 4758   0.031   3.361   2.204  0.4239  0.1002 -1.6690
 1584TIP3    H2 4759   0.137   3.456   2.257 -1.3046  1.0333  0.2508
 1585TIP3   OH2 4760   4.339   2.882   4.746  0.1195 -0.2476  0.3458
 1585TIP3    H1 4761   4.319   2.962   4.795  0.2403  0.0569 -0.0992
 1585TIP3    H2 4762   4.254   2.838   4.735 -0.1497  0.4552 -0.5107
 1586TIP3   OH2 4763   3.907   3.934   5.114  0.1632  0.0001 -0.6492
 1586TIP3    H1 4764   3.893   3.977   5.198  1.6787 -1.5836  0.4764
 1586TIP3    H2 4765   3.819   3.922   5.079 -0.4454  1.6505  0.1658
 1587TIP3   OH2 4766   1.378   3.610   2.242 -0.5038  0.2841 -0.0261
 1587TIP3    H1 4767   1.444   3.621   2.309 -1.1739 -2.0680  1.1314
 1587TIP3    H2 4768   1.351   3.699   2.219  0.1013  1.1728  2.4591
 1588TIP3   OH2 4769   5.439   1.159   1.247  0.0125 -0.0848  0.5509
 1588TIP3    H1 4770   5.507   1.099   1.277  0.6914  0.7899  0.7999
 1588TIP3    H2 4771   5.387   1.178   1.325  0.1698  0.1212  0.6071
 1589TIP3   OH2 4772   5.189   5.014   3.143 -0.1027 -0.2292 -0.1737
 1589TIP3    H1 4773   5.201   5.105   3.168 -0.1110 -0.3623  0.3231
 1589TIP3    H2 4774   5.260   4.967   3.188  0.5927 -0.3222 -1.3103
 1590TIP3   OH2 4775   4.833   0.717   1.350  0.2127 -0.1164 -0.1989
 1590TIP3    H1 4776   4.877   0.665   1.417  1.4607  0.7952 -0.2819
 1590TIP3    H2 4777   4.846   0.668   1.269  1.2555  0.2275 -0.2527
 1591TIP3   OH2 4778   0.712   2.516   1.838  0.5555  0.0393  0.0285
 1591TIP3    H1 4779   0.802   2.542   1.819 -0.1694  1.7378 -1.4135
 1591TIP3    H2 4780   0.700   2.433   1.792  2.0371 -1.4504  2.1946
 1592TIP3   OH2 4781   3.076   3.449   3.896 -0.5925  0.1219  0.7819
 1592TIP3    H1 4782   2.986   3.434   3.926 -0.4782 -1.0348  0.6129
 1592TIP3    H2 4783   3.070   3.448   3.800 -0.1951 -1.6413  0.7312
 1593TIP3   OH2 4784   4.396   0.455   2.579  0.4376 -0.7171 -0.5708
 1593TIP3    H1 4785   4.461   0.473   2.511 -0.0751 -1.2141 -1.2023
 1593TIP3    H2 4786   4.325   0.516   2.561 -0.0470 -1.3850 -0.9785
 1594TIP3   OH2 4787   3.391   1.251   4.996  0.4971  0.3239  0.0304
 1594TIP3    H1 4788   3.445   1.183   5.035  0.5111 -0.1665 -0.8094
 1594TIP3    H2 4789   3.308   1.208   4.975 -0.1330  0.9910  1.0175
 1595TIP3   OH2 4790   1.213   4.557   0.741  0.0485 -0.5473  0.2933
 1595TIP3    H1 4791   1.183   4.509   0.663  0.5566 -0.7701  0.2310
 1595TIP3    H2 4792   1.133   4.582   0.786 -0.3185  0.7569 -0.9909
 1596TIP3   OH2 4793   4.866   0.276   3.429 -0.3605 -0.3393  0.5356
 1596TIP3    H1 4794   4.801   0.287   3.498 -1.0884 -1.3114  0.0293
 1596TIP3    H2 4795   4.927   0.348   3.442 -1.2598  0.3063  1.3363
 1597TIP3   OH2 4796   6.220   4.069   0.060  0.4239 -0.3093  0.1271
 1597TIP3    H1 4797   6.187   4.074  -0.030 -0.3158  1.0729  0.4489
 1597TIP3    H2 4798   6.315   4.077   0.051  0.3844 -0.5287 -0.5569
 1598TIP3   OH2 4799   4.695   1.293   1.557  0.0423  0.2605 -0.3099
 1598TIP3    H1 4800   4.724   1.249   1.477 -0.6560  0.7624 -0.8483
 1598TIP3    H2 4801   4.645   1.227   1.604  1.7622 -0.5342  0.4985
 1599TIP3   OH2 4802   1.570   2.021   3.582  0.1069 -0.1550 -0.3330
 1599TIP3    H1 4803   1.477   2.041   3.568 -0.1236 -0.4068  0.7884
 1599TIP3    H2 4804   1.580   2.020   3.677  1.2301 -0.2934 -0.4470
 1600TIP3   OH2 4805   3.425   4.853   1.747 -0.8273  0.3462 -0.4513
 1600TIP3    H1 4806   3.335   4.858   1.713 -0.4941  1.5851 -1.2015
 1600TIP3    H2 4807   3.467   4.787   1.691 -1.6697 -1.5162  0.9713
 1601TIP3   OH2 4808   1.335   2.998   1.451 -0.2189  0.0639 -0.5810
 1601TIP3    H1 4809   1.289   2.918   1.479 -0.9291  0.9089  0.7426
 1601TIP3    H2 4810   1.266   3.053   1.414  0.1590  0.3424 -0.8749
 1602TIP3   OH2 4811   0.026   2.073   2.042 -0.0281 -0.1579  0.3421
 1602TIP3    H1 4812   0.093   2.071   1.973 -1.1649  0.3915 -0.8199
 1602TIP3    H2 4813   0.067   2.122   2.113 -0.1429  2.8911 -1.4886
 1603TIP3   OH2 4814   0.849   2.578   0.658 -0.0906 -0.3882 -0.2672
 1603TIP3    H1 4815   0.760   2.545   0.648 -0.6551  1.0903 -0.3655
 1603TIP3    H2 4816   0.891   2.515   0.717 -0.8870 -1.6240 -0.9682
 1604TIP3   OH2 4817   5.155   0.825   5.102 -0.2376 -0.0320 -0.2555
 1604TIP3    H1 4818   5.194   0.819   5.190 -1.0664  2.5433  0.3805
 1604TIP3    H2 4819   5.085   0.759   5.103 -0.7041  0.4168  1.3340
 1605TIP3   OH2 4820   0.581   4.746   3.796 -0.1060 -0.2731  0.5058
 1605TIP3    H1 4821   0.654   4.737   3.735 -0.0381 -1.9023  0.7924
 1605TIP3    H2 4822   0.503   4.745   3.741  0.0270  2.8602  0.0485
 1606TIP3   OH2 4823   0.054   1.238   5.173  0.0469 -0.2553 -0.2310
 1606TIP3    H1 4824   0.046   1.165   5.234 -1.2424  0.0546  0.0046
 1606TIP3    H2 4825   0.112   1.206   5.104  1.0817 -0.8042  0.8485
 1607TIP3   OH2 4826   0.447   4.281   3.002  0.4415 -0.0326  0.1237
 1607TIP3    H1 4827   0.515   4.348   2.989 -0.2069  0.1973 -2.6943
 1607TIP3    H2 4828   0.466   4.215   2.935 -2.1027  0.0781 -0.8027
 1608TIP3   OH2 4829   4.510   1.383   2.689  0.3391 -0.1001  0.0868
 1608TIP3    H1 4830   4.525   1.443   2.762 -0.5501 -0.1346  0.3148
 1608TIP3    H2 4831   4.437   1.329   2.718 -0.1656  0.0222 -0.9145
 1609TIP3   OH2 4832   1.938   0.798   0.160 -0.1705  0.0402 -0.2230
 1609TIP3    H1 4833   1.923   0.824   0.250  0.0151  0.0511 -0.1935
 1609TIP3    H2 4834   1.904   0.870   0.107 -0.8433 -0.2437 -0.1816
 1610TIP3   OH2 4835   2.443   5.500   1.832 -0.1882 -0.1828 -0.2109
 1610TIP3    H1 4836   2.350   5.482   1.840 -0.5568  1.1730 -1.1592
 1610TIP3    H2 4837   2.481   5.466   1.913 -1.2703 -2.0317 -0.4111
 1611TIP3   OH2 4838   0.009   1.450   1.511 -0.0671  0.0700 -0.4203
 1611TIP3    H1 4839   0.102   1.437   1.492 -0.0330 -1.5404  0.6418
 1611TIP3    H2 4840  -0.037   1.390   1.452 -0.3308 -0.1988  0.0498
 1612TIP3   OH2 4841   1.558   4.851   3.520  0.0842  0.0776  0.3293
 1612TIP3    H1 4842   1.629   4.792   3.494  0.3774  0.7216 -0.3722
 1612TIP3    H2 4843   1.571   4.929   3.466 -0.8000  0.4474  0.6364
 1613TIP3   OH2 4844   2.758   0.927   0.269 -0.3576  0.2515  0.1277
 1613TIP3    H1 4845   2.824   0.866   0.301  1.0715  2.2220  1.1670
 1613TIP3    H2 4846   2.689   0.872   0.232  0.2311 -2.0049  2.1804
 1614TIP3   OH2 4847   4.948   1.714   2.220 -0.1103  0.0961 -0.2540
 1614TIP3    H1 4848   4.980   1.772   2.151 -0.3100  0.4454 -0.0591
 1614TIP3    H2 4849   5.026   1.694   2.272  0.1091 -0.4695 -0.7933
 1615TIP3   OH2 4850   1.048   4.902   4.537 -0.0232  0.3619  0.1393
 1615TIP3    H1 4851   1.081   4.986   4.506 -0.0017  0.4719  0.4524
 1615TIP3    H2 4852   1.092   4.837   4.483 -0.2956  0.5671 -0.3329
 1616TIP3   OH2 4853   2.940   5.034   3.026 -0.2110 -0.0064 -0.0484
 1616TIP3    H1 4854   2.999   5.102   3.057 -0.6219  0.2353  0.2140
 1616TIP3    H2 4855   2.852   5.070   3.039 -0.4119  0.3090 -1.9389
 1617TIP3   OH2 4856   0.471   5.234   3.488 -0.2825 -0.0676 -0.8726
 1617TIP3    H1 4857   0.408   5.256   3.420 -0.5546 -0.3642 -0.7157
 1617TIP3    H2 4858   0.437   5.274   3.567  0.3466  0.7976 -1.0239
 1618TIP3   OH2 4859   0.402   3.199   4.266 -0.9120 -0.3441  0.3023
 1618TIP3    H1 4860   0.443   3.265   4.210 -0.0425 -0.1191  1.1772
 1618TIP3    H2 4861   0.326   3.169   4.216 -0.8368  0.7059 -0.4781
 1619TIP3   OH2 4862   2.822   4.241   0.777 -0.1339 -0.8571  0.0062
 1619TIP3    H1 4863   2.822   4.195   0.860 -0.6421  0.9168  1.0409
 1619TIP3    H2 4864   2.743   4.211   0.733 -0.9098 -0.3775  1.0315
 1620TIP3   OH2 4865   2.929   0.644   0.304  0.0607 -0.6238 -0.5772
 1620TIP3    H1 4866   2.969   0.710   0.248  1.2493  0.7279  1.7577
 1620TIP3    H2 4867   3.000   0.614   0.361 -0.7894 -2.9117 -0.6143
 1621TIP3   OH2 4868   0.796   1.342   1.493 -0.3900 -0.0900  0.5374
 1621TIP3    H1 4869   0.703   1.324   1.477 -0.3416  0.5951 -0.5831
 1621TIP3    H2 4870   0.833   1.257   1.517 -1.2848 -0.3837  0.9194
 1622TIP3   OH2 4871   5.244   2.246   1.557 -0.6472  0.0100  0.0185
 1622TIP3    H1 4872   5.215   2.315   1.617 -1.3163  0.0737 -0.3690
 1622TIP3    H2 4873   5.339   2.245   1.566 -0.7148  0.2138  0.8698
 1623TIP3   OH2 4874   3.676   1.689   2.782 -0.6132  0.0532 -0.1285
 1623TIP3    H1 4875   3.743   1.633   2.744  0.1410  1.1577 -0.4728
 1623TIP3    H2 4876   3.700   1.778   2.754 -1.4997  0.6059  0.7976
 1624TIP3   OH2 4877   3.748   1.440   4.893  0.6665  0.1935  0.0803
 1624TIP3    H1 4878   3.788   1.440   4.806  0.5514  1.6753  0.0043
 1624TIP3    H2 4879   3.665   1.486   4.881 -0.5799 -1.8641  0.4687
 1625TIP3   OH2 4880   4.155   2.470   2.991  0.3542  0.0302  0.3256
 1625TIP3    H1 4881   4.129   2.407   3.059  0.1030 -0.6634 -0.4033
 1625TIP3    H2 4882   4.081   2.531   2.987 -1.1502 -1.7616 -1.5253
 1626TIP3   OH2 4883   4.421   4.568   2.736  0.1676 -0.0474  0.0430
 1626TIP3    H1 4884   4.361   4.504   2.696 -0.3913  0.3633  0.2119
 1626TIP3    H2 4885   4.487   4.514   2.780  0.4125 -0.5051 -0.8667
 1627TIP3   OH2 4886   0.983   3.367   0.272 -0.1709 -0.1387 -0.1758
 1627TIP3    H1 4887   0.999   3.331   0.360 -0.9350  0.2222  0.1169
 1627TIP3    H2 4888   1.071   3.375   0.234  0.4169  1.9658  1.4620
 1628TIP3   OH2 4889   4.109   4.936   2.055 -0.2026 -0.1667  0.4994
 1628TIP3    H1 4890   4.081   4.939   1.964 -0.1931  0.6557  0.5172
 1628TIP3    H2 4891   4.052   4.869   2.095 -0.5524 -0.1655  0.0117
 1629TIP3   OH2 4892   1.692   3.847   1.122  0.3273  0.6790 -0.1039
 1629TIP3    H1 4893   1.617   3.818   1.174  1.3859 -0.1401  1.0246
 1629TIP3    H2 4894   1.752   3.886   1.186  2.0307 -1.0739 -0.5358
 1630TIP3   OH2 4895   2.656   0.345   3.450 -0.4419  0.1188 -0.2869
 1630TIP3    H1 4896   2.590   0.346   3.381 -1.6418 -0.2598  0.8056
 1630TIP3    H2 4897   2.725   0.288   3.417 -1.3294 -0.6399 -0.8832
 1631TIP3   OH2 4898   0.420   3.328   0.182  0.6202  0.4354  0.3998
 1631TIP3    H1 4899   0.408   3.391   0.253  0.2550  0.5635  0.2287
 1631TIP3    H2 4900   0.514   3.327   0.166  0.5922  1.1985  0.1662
 1632TIP3   OH2 4901   0.708   1.719   4.527 -0.3362  0.0785 -0.0008
 1632TIP3    H1 4902   0.733   1.718   4.434  1.2843 -0.6375  0.4101
 1632TIP3    H2 4903   0.688   1.628   4.548  0.6705  0.0078  0.6858
 1633TIP3   OH2 4904   3.442   5.827   2.039  0.5635  0.1567  0.7794
 1633TIP3    H1 4905   3.385   5.865   1.972  1.5845 -0.6400 -0.6045
 1633TIP3    H2 4906   3.483   5.753   1.995  0.3354 -1.1788  2.6921
 1634TIP3   OH2 4907   5.037   4.322   4.024 -0.0390 -0.1319  0.3731
 1634TIP3    H1 4908   4.999   4.243   3.986  1.1408 -1.1386  1.2190
 1634TIP3    H2 4909   5.112   4.342   3.968 -0.1005  0.1666  0.3949
 1635TIP3   OH2 4910   1.209   4.103   3.802 -0.0472 -0.1412  0.1232
 1635TIP3    H1 4911   1.295   4.062   3.811  0.7978  0.8962 -2.4859
 1635TIP3    H2 4912   1.220   4.189   3.842 -0.1430 -0.3174  0.5370
 1636TIP3   OH2 4913   0.430   1.295   3.039  0.0883  0.2438  0.2884
 1636TIP3    H1 4914   0.482   1.373   3.024 -0.2323  0.4960  0.4910
 1636TIP3    H2 4915   0.490   1.233   3.080  0.5300  0.1360 -0.5089
 1637TIP3   OH2 4916   2.471   2.867   0.495 -0.4424 -0.1265  0.0913
 1637TIP3    H1 4917   2.481   2.785   0.446  1.7012  0.0014  0.2227
 1637TIP3    H2 4918   2.386   2.902   0.467 -1.0114 -1.9545 -0.5970
 1638TIP3   OH2 4919   6.218   5.870   3.391  0.4738 -0.5849 -0.2162
 1638TIP3    H1 4920   6.285   5.810   3.422  0.5463  0.3679  1.6150
 1638TIP3    H2 4921   6.242   5.955   3.429 -1.5962 -0.1646  0.2670
 1639TIP3   OH2 4922   0.999   4.468   2.613 -0.2100 -0.0815 -0.4450
 1639TIP3    H1 4923   0.980   4.552   2.569 -0.1393 -0.4749 -1.2434
 1639TIP3    H2 4924   0.913   4.428   2.626 -0.1772 -0.3197 -0.9470
 1640TIP3   OH2 4925   5.044   5.866   1.274 -0.5451  0.4568  0.2780
 1640TIP3    H1 4926   5.067   5.828   1.189  0.1021  0.8286  0.2859
 1640TIP3    H2 4927   5.118   5.846   1.330 -1.4291 -0.7322  1.0701
 1641TIP3   OH2 4928   4.040   1.257   4.460 -0.3003  0.4004 -0.4366
 1641TIP3    H1 4929   4.095   1.194   4.412  0.6834 -0.1732  1.3484
 1641TIP3    H2 4930   4.100   1.298   4.523 -1.3236  1.8795 -0.3792
 1642TIP3   OH2 4931   0.714   2.627   2.460  0.7930  0.3600 -0.1020
 1642TIP3    H1 4932   0.664   2.708   2.451 -0.8263 -0.4178  1.1076
 1642TIP3    H2 4933   0.766   2.639   2.539 -1.0629 -0.4629  1.3459
 1643TIP3   OH2 4934   4.376   5.084   2.523 -0.2708  0.2120 -0.4034
 1643TIP3    H1 4935   4.450   5.024   2.518  1.1425  1.5273  2.3413
 1643TIP3    H2 4936   4.305   5.038   2.478  1.0853 -2.9171  0.3432
 1644TIP3   OH2 4937   1.042   1.732   4.251  0.6816  0.0796  0.1597
 1644TIP3    H1 4938   1.033   1.778   4.168 -0.0968 -1.5347 -0.6983
 1644TIP3    H2 4939   0.952   1.712   4.278  0.9488  0.0967  1.1108
 1645TIP3   OH2 4940   1.299   5.424   2.966 -0.5500 -0.2622  0.5253
 1645TIP3    H1 4941   1.226   5.474   2.930  1.0129  0.9698 -1.1384
 1645TIP3    H2 4942   1.333   5.479   3.036 -0.0920  0.0781  0.0479
 1646TIP3   OH2 4943   3.436   0.191   4.677  0.6327 -0.2305 -0.1057
 1646TIP3    H1 4944   3.362   0.132   4.687 -0.8702  1.6751  0.5108
 1646TIP3    H2 4945   3.511   0.132   4.664 -0.9477 -2.2262 -0.8722
 1647TIP3   OH2 4946   6.081   4.450   4.508 -0.0073  0.5717 -0.3014
 1647TIP3    H1 4947   6.107   4.410   4.425  2.8161 -0.2358  0.8725
 1647TIP3    H2 4948   6.061   4.376   4.565  0.9575  0.9926  0.5968
 1648TIP3   OH2 4949   3.634   1.483   2.342  0.4689  0.6978 -0.1187
 1648TIP3    H1 4950   3.593   1.524   2.418  1.3676  1.6009 -0.0924
 1648TIP3    H2 4951   3.687   1.413   2.378 -1.3270 -0.7701 -0.1893
 1649TIP3   OH2 4952   0.713   5.250   0.800  0.6584  0.2277  0.2271
 1649TIP3    H1 4953   0.660   5.245   0.880  0.8000 -1.1410  0.2542
 1649TIP3    H2 4954   0.649   5.248   0.729  0.5818  0.4692  0.2884
 1650TIP3   OH2 4955   2.080   3.594   3.772  0.7208 -0.7535 -0.7291
 1650TIP3    H1 4956   2.129   3.622   3.850  1.6642  0.0949 -1.5808
 1650TIP3    H2 4957   2.025   3.523   3.802  1.5897 -0.9191  0.5635
 1651TIP3   OH2 4958   2.420   0.461   4.955 -0.0586  0.6094 -0.0493
 1651TIP3    H1 4959   2.438   0.552   4.976 -1.2047  0.6881  0.7050
 1651TIP3    H2 4960   2.456   0.448   4.867  1.0270  1.4897  0.2481
 1652TIP3   OH2 4961   4.507   2.361   5.035 -0.2517 -0.1222  0.3575
 1652TIP3    H1 4962   4.579   2.408   4.993  0.2999 -0.8260  0.4980
 1652TIP3    H2 4963   4.534   2.270   5.033 -0.6114 -0.2627  1.4578
 1653TIP3   OH2 4964   1.317   0.527   0.343 -0.0149 -0.0480  0.3685
 1653TIP3    H1 4965   1.229   0.501   0.372  0.1604  0.5990  1.5512
 1653TIP3    H2 4966   1.371   0.451   0.360 -0.1711 -0.1193  0.5560
 1654TIP3   OH2 4967   4.372   5.539   4.017  0.3822  0.1958 -0.1972
 1654TIP3    H1 4968   4.313   5.545   3.941  0.0012  1.6509  0.1744
 1654TIP3    H2 4969   4.388   5.445   4.027 -0.5645 -0.1202 -1.3111
 1655TIP3   OH2 4970   2.090   5.422   4.887  0.3262 -0.3236 -0.3614
 1655TIP3    H1 4971   2.089   5.343   4.833  0.0533 -0.4011 -0.2439
 1655TIP3    H2 4972   2.095   5.390   4.977 -1.0755 -0.2531 -0.2344
 1656TIP3   OH2 4973   4.854   1.951   0.390  0.1882 -0.3981  0.1485
 1656TIP3    H1 4974   4.850   1.862   0.425  1.1074 -0.5396 -0.0867
 1656TIP3    H2 4975   4.777   1.959   0.334  0.5175 -1.3086 -0.4437
 1657TIP3   OH2 4976   5.399   0.883   1.186  0.2715 -0.3837  0.2205
 1657TIP3    H1 4977   5.331   0.936   1.145  0.8212 -0.9953 -1.5729
 1657TIP3    H2 4978   5.430   0.937   1.258 -0.5753  0.8612 -0.2964
 1658TIP3   OH2 4979   6.042   4.274   0.033  0.6632 -0.2975  0.2795
 1658TIP3    H1 4980   6.095   4.199   0.060  1.8602  0.0933 -0.8775
 1658TIP3    H2 4981   6.091   4.313  -0.038 -3.1262 -2.3903 -3.9923
 1659TIP3   OH2 4982   3.681   5.874   5.049  0.5255  0.1549 -0.3467
 1659TIP3    H1 4983   3.707   5.787   5.016 -0.8621 -0.5796  0.3980
 1659TIP3    H2 4984   3.738   5.889   5.124 -0.4852 -1.0164  0.7091
 1660TIP3   OH2 4985   3.283   4.500   1.239  0.2106  0.6386 -0.8043
 1660TIP3    H1 4986   3.336   4.566   1.284  0.6471 -0.1386 -0.1577
 1660TIP3    H2 4987   3.198   4.543   1.227 -0.6432  0.2428  2.6597
 1661TIP3   OH2 4988   5.877   2.498   2.100  0.4369 -0.4067  0.0163
 1661TIP3    H1 4989   5.793   2.510   2.056  0.5364 -1.5514 -0.5350
 1661TIP3    H2 4990   5.909   2.587   2.117 -0.3392  0.0435 -0.8159
 1662TIP3   OH2 4991   3.119   5.771   3.893  0.4021  0.3255 -0.4813
 1662TIP3    H1 4992   3.207   5.733   3.886 -0.2425 -1.3369 -0.2219
 1662TIP3    H2 4993   3.130   5.847   3.950  1.7998  0.6347 -1.1263
 1663TIP3   OH2 4994   0.574   0.702   0.140 -0.1464 -0.7452 -0.8343
 1663TIP3    H1 4995   0.576   0.755   0.220 -0.3068  1.3530 -2.1379
 1663TIP3    H2 4996   0.656   0.652   0.142 -0.4005 -1.1566  0.8683
 1664TIP3   OH2 4997   4.855   1.072   5.043 -0.4006 -0.0488 -0.1940
 1664TIP3    H1 4998   4.933   1.120   5.018 -0.7626  0.5478 -0.1892
 1664TIP3    H2 4999   4.831   1.108   5.129  0.1927 -1.2941  0.5207
 1665TIP3   OH2 5000   4.251   5.325   0.333  0.4943 -0.1693 -0.0625
 1665TIP3    H1 5001   4.266   5.259   0.265 -0.1726 -1.7601  1.2634
 1665TIP3    H2 5002   4.199   5.393   0.290  0.6421 -0.8181 -1.3027
 1666TIP3   OH2 5003   3.403   0.941   2.178  0.1770 -0.8930 -0.1844
 1666TIP3    H1 5004   3.363   0.887   2.110  0.1159 -0.9460 -0.1065
 1666TIP3    H2 5005   3.468   0.994   2.131 -0.0543 -0.7329 -0.3279
 1667TIP3   OH2 5006   1.838   4.732   4.686 -0.0436 -0.2652  0.0008
 1667TIP3    H1 5007   1.758   4.700   4.645  1.6734 -1.0038 -3.0423
 1667TIP3    H2 5008   1.848   4.677   4.764 -1.5405 -1.4263 -0.5735
 1668TIP3   OH2 5009   2.145   3.221   3.978  0.4822  0.5340  0.1301
 1668TIP3    H1 5010   2.144   3.202   3.884 -0.7310 -1.2059  0.4425
 1668TIP3    H2 5011   2.104   3.145   4.018  0.2574  1.5901  2.0218
 1669TIP3   OH2 5012   4.059   2.169   3.954 -0.4346  0.1927  0.4272
 1669TIP3    H1 5013   4.134   2.138   4.006 -0.0008 -0.0518 -0.3285
 1669TIP3    H2 5014   4.093   2.245   3.907 -0.9945  0.7719  0.9357
 1670TIP3   OH2 5015   5.655   1.418   0.254 -0.1873 -0.1014 -0.3982
 1670TIP3    H1 5016   5.566   1.388   0.273 -0.1783  1.2419  2.1009
 1670TIP3    H2 5017   5.710   1.344   0.280 -0.5172 -1.3479 -2.9100
 1671TIP3   OH2 5018   3.553   1.816   0.021 -0.0781 -0.1777  0.0427
 1671TIP3    H1 5019   3.601   1.868   0.086  0.4188  0.2441 -0.6520
 1671TIP3    H2 5020   3.502   1.880  -0.029  0.5423 -0.3385 -0.8209
 1672TIP3   OH2 5021   3.277   4.448   3.376  0.0071  0.4493 -0.0212
 1672TIP3    H1 5022   3.270   4.371   3.320  1.9630  0.9126 -0.9621
 1672TIP3    H2 5023   3.186   4.472   3.396 -0.6478 -2.3962  0.7737
 1673TIP3   OH2 5024   5.139   1.638   3.537 -0.2386  0.1614 -0.0517
 1673TIP3    H1 5025   5.085   1.641   3.458 -0.0061  0.9717 -0.1999
 1673TIP3    H2 5026   5.184   1.554   3.533 -2.4781 -1.1609  0.7783
 1674TIP3   OH2 5027   0.383   1.014   1.416 -0.3460  0.2411  0.2097
 1674TIP3    H1 5028   0.319   0.955   1.456 -0.3616  0.6042  0.7336
 1674TIP3    H2 5029   0.468   0.979   1.444 -0.2944 -0.4437 -0.7707
 1675TIP3   OH2 5030   3.844   5.998   2.983 -0.5291 -0.4303  0.1879
 1675TIP3    H1 5031   3.936   6.026   2.980  0.2692 -2.8753 -2.1332
 1675TIP3    H2 5032   3.841   5.937   3.058  0.5893 -2.5657 -1.3824
 1676TIP3   OH2 5033   2.648   2.663   2.397 -0.7448  0.6124 -0.4727
 1676TIP3    H1 5034   2.610   2.635   2.480 -1.2268 -0.3662 -1.0100
 1676TIP3    H2 5035   2.576   2.656   2.334 -0.2903  0.9994 -1.0431
 1677TIP3   OH2 5036   0.110   5.729   0.866  0.3537  0.2279 -0.1467
 1677TIP3    H1 5037   0.202   5.754   0.876  0.7047 -0.0932 -2.1481
 1677TIP3    H2 5038   0.087   5.758   0.777 -0.7032 -1.9258 -0.6477
 1678TIP3   OH2 5039   0.338   0.340   0.110  0.2728 -0.0319  0.4494
 1678TIP3    H1 5040   0.360   0.365   0.199  0.1105 -0.4067  0.5941
 1678TIP3    H2 5041   0.420   0.354   0.061  0.1819  0.7927  0.5191
 1679TIP3   OH2 5042   1.510   4.346   1.270  0.2088 -0.0523  0.1692
 1679TIP3    H1 5043   1.603   4.362   1.256 -0.2079  1.8226 -0.9375
 1679TIP3    H2 5044   1.469   4.371   1.187 -1.4354  1.1166  1.2587
 1680TIP3   OH2 5045   2.849   4.216   4.226  0.0018  0.1292  0.2105
 1680TIP3    H1 5046   2.882   4.145   4.170 -1.5177  1.3722 -2.4376
 1680TIP3    H2 5047   2.898   4.293   4.199 -1.8546  1.0795 -0.5964
 1681TIP3   OH2 5048   4.737   2.115   4.145 -0.0967 -0.1072 -0.1223
 1681TIP3    H1 5049   4.828   2.109   4.175 -0.3264 -0.2860  0.5325
 1681TIP3    H2 5050   4.722   2.209   4.134 -0.5354  0.1040  1.9563
 1682TIP3   OH2 5051   2.491   2.232   2.815  0.1124 -0.3209 -0.3730
 1682TIP3    H1 5052   2.488   2.296   2.744  1.1483 -0.0726 -0.2195
 1682TIP3    H2 5053   2.495   2.147   2.772  1.4431 -0.1436 -0.6661
 1683TIP3   OH2 5054   4.550   4.904   0.980  0.0666  0.2533 -0.0459
 1683TIP3    H1 5055   4.527   4.813   0.961 -0.6263  0.5766 -0.8602
 1683TIP3    H2 5056   4.486   4.932   1.044  1.6046 -0.4469  1.8892
 1684TIP3   OH2 5057   4.531   4.861   2.518  0.0003  0.3855  0.3047
 1684TIP3    H1 5058   4.529   4.768   2.539  3.0824 -0.0695 -0.9015
 1684TIP3    H2 5059   4.527   4.865   2.422 -1.5557  1.6256  0.3804
 1685TIP3   OH2 5060   1.548   4.524   5.081  0.4224  0.1637 -0.3116
 1685TIP3    H1 5061   1.570   4.502   5.171 -2.1946 -3.2710 -0.2926
 1685TIP3    H2 5062   1.550   4.440   5.034 -0.2314  1.5165 -2.9869
 1686TIP3   OH2 5063   4.417   5.565   3.079 -0.3672 -0.2271  0.0286
 1686TIP3    H1 5064   4.329   5.550   3.044 -0.6616 -1.3509  1.2142
 1686TIP3    H2 5065   4.474   5.511   3.024 -0.4420  0.2413 -0.5257
 1687TIP3   OH2 5066   5.055   4.451   2.114  0.6530  0.2182 -0.9544
 1687TIP3    H1 5067   4.969   4.483   2.139  0.3988 -0.9128 -0.2984
 1687TIP3    H2 5068   5.117   4.505   2.164  0.2666  0.0821 -0.3280
 1688TIP3   OH2 5069   4.938   3.722   0.798 -0.7435 -0.2558 -0.0087
 1688TIP3    H1 5070   4.921   3.683   0.712  1.6502  0.3431 -0.8432
 1688TIP3    H2 5071   4.851   3.744   0.832 -1.8216 -1.4894 -1.7954
 1689TIP3   OH2 5072   6.046   4.394   4.897  0.0343 -0.6497  0.2123
 1689TIP3    H1 5073   6.066   4.365   4.808 -0.6977 -0.7750  0.0810
 1689TIP3    H2 5074   5.950   4.404   4.899 -0.0249 -1.1978  1.1433
 1690TIP3   OH2 5075   2.750   4.783   0.173  0.1771  0.0748 -0.2198
 1690TIP3    H1 5076   2.681   4.717   0.164 -0.4998  0.8445 -0.9119
 1690TIP3    H2 5077   2.773   4.806   0.083  1.6015 -0.4176  0.0016
 1691TIP3   OH2 5078   0.942   0.114   2.744 -0.2807  0.4488 -0.5621
 1691TIP3    H1 5079   0.960   0.078   2.657  0.1819 -2.6239  0.6502
 1691TIP3    H2 5080   0.860   0.072   2.771  1.8024 -2.3797  2.1275
 1692TIP3   OH2 5081   6.250   0.552   5.067  0.5003  0.5537  0.2906
 1692TIP3    H1 5082   6.218   0.472   5.108 -0.8471  1.3067  0.7803
 1692TIP3    H2 5083   6.192   0.621   5.100  1.8180  1.7893  0.1334
 1693TIP3   OH2 5084   2.156   2.884   2.404  0.4107  0.3162 -0.0485
 1693TIP3    H1 5085   2.181   2.825   2.334 -0.7922  0.4334 -0.6099
 1693TIP3    H2 5086   2.090   2.836   2.453  1.5189  0.0788  1.2722
 1694TIP3   OH2 5087   4.701   3.243   0.169  0.2739 -0.5317 -0.5266
 1694TIP3    H1 5088   4.625   3.220   0.115 -0.2217  1.0285 -0.5673
 1694TIP3    H2 5089   4.717   3.335   0.148  0.9637 -0.2939  0.9436
 1695TIP3   OH2 5090   5.046   4.994   1.780  0.2712 -0.1437 -0.2247
 1695TIP3    H1 5091   5.084   5.002   1.867 -0.1882 -0.0181 -0.0316
 1695TIP3    H2 5092   4.999   4.911   1.782  0.9615 -0.5591 -0.6362
 1696TIP3   OH2 5093   2.209   5.683   0.589  0.4024 -0.2206 -0.0210
 1696TIP3    H1 5094   2.293   5.684   0.543 -0.1796 -0.0515 -1.1126
 1696TIP3    H2 5095   2.157   5.617   0.542 -0.7350  1.0461 -0.6177
 1697TIP3   OH2 5096   6.064   2.098   2.481  0.3347 -0.0695 -0.4936
 1697TIP3    H1 5097   6.078   2.172   2.422 -1.8109  0.0115 -0.9512
 1697TIP3    H2 5098   6.034   2.027   2.425  0.3429 -0.6555  0.2227
 1698TIP3   OH2 5099   1.191   2.539   4.862 -0.0414  0.5543  0.1570
 1698TIP3    H1 5100   1.244   2.609   4.901  0.4751 -0.7180  1.8496
 1698TIP3    H2 5101   1.182   2.474   4.932  0.2371 -1.4868 -1.5917
 1699TIP3   OH2 5102   2.829   4.731   3.844 -0.2636 -0.0591  0.0250
 1699TIP3    H1 5103   2.922   4.721   3.863 -0.1275  1.7400  0.5527
 1699TIP3    H2 5104   2.790   4.646   3.864  1.2796 -0.8615 -0.3064
 1700TIP3   OH2 5105   1.595   2.920   0.476 -0.3460 -0.1650  0.5324
 1700TIP3    H1 5106   1.528   2.983   0.503 -1.9545 -1.1409 -0.9648
 1700TIP3    H2 5107   1.627   2.882   0.558 -0.5200  1.3764  1.3632
 1701TIP3   OH2 5108   2.105   5.873   3.578  0.4725 -0.1697 -0.2497
 1701TIP3    H1 5109   2.024   5.838   3.614  1.2952 -1.5168  0.3444
 1701TIP3    H2 5110   2.098   5.968   3.591 -0.1705 -0.4296  1.5443
 1702TIP3   OH2 5111   6.133   3.989   4.585 -0.3098  0.2361  0.2985
 1702TIP3    H1 5112   6.065   3.922   4.577  0.8185 -0.7673 -1.4979
 1702TIP3    H2 5113   6.214   3.940   4.598  0.5744  1.1992 -1.2891
 1703TIP3   OH2 5114   4.325   3.602   1.561 -0.0787 -0.1929 -0.1803
 1703TIP3    H1 5115   4.253   3.663   1.546 -0.3343 -0.2524  0.7674
 1703TIP3    H2 5116   4.335   3.598   1.656  1.0748 -0.3136 -0.2873
 1704TIP3   OH2 5117   4.972   5.508   4.851  0.3787 -0.4292  0.0159
 1704TIP3    H1 5118   4.962   5.425   4.897  1.4722  0.1116  1.2823
 1704TIP3    H2 5119   5.014   5.484   4.768 -0.0873 -1.2164 -0.0054
 1705TIP3   OH2 5120   4.585   4.361   1.230 -0.1559 -0.1264  0.1705
 1705TIP3    H1 5121   4.560   4.302   1.301 -1.6695  0.6643  0.3370
 1705TIP3    H2 5122   4.537   4.442   1.248 -1.1804 -0.1328 -2.1469
 1706TIP3   OH2 5123   5.941   2.422   4.727  0.2332  0.3456  0.0595
 1706TIP3    H1 5124   5.922   2.370   4.649  0.2183  1.9698 -1.0681
 1706TIP3    H2 5125   5.979   2.359   4.789  0.4241 -0.9559 -1.3155
 1707TIP3   OH2 5126   1.924   4.254   4.931  0.2815  0.3288  1.0386
 1707TIP3    H1 5127   1.888   4.280   4.846 -2.0346 -0.2312  1.7587
 1707TIP3    H2 5128   1.959   4.166   4.915 -0.9417 -0.1458  0.8106
 1708TIP3   OH2 5129   6.233   5.007   2.810 -0.3356  0.0276  0.1722
 1708TIP3    H1 5130   6.167   5.062   2.769  0.9527  1.5536  0.0444
 1708TIP3    H2 5131   6.287   5.068   2.861 -0.0533 -1.3952  1.6769
 1709TIP3   OH2 5132   1.874   1.480   0.071  0.1958 -0.0340 -0.1850
 1709TIP3    H1 5133   1.783   1.493   0.098  0.3596  0.5261  0.1125
 1709TIP3    H2 5134   1.872   1.404   0.013 -0.0729 -1.8403  2.0554
 1710TIP3   OH2 5135   4.426   4.537   1.578 -0.4863 -0.6002 -0.5794
 1710TIP3    H1 5136   4.507   4.488   1.596  0.8029  0.6172 -2.6804
 1710TIP3    H2 5137   4.437   4.619   1.626  0.2483  0.1795 -2.0263
 1711TIP3   OH2 5138   4.111   1.792   3.116 -0.1379  0.0105 -0.0792
 1711TIP3    H1 5139   4.067   1.837   3.189 -2.9303 -0.1798 -1.5371
 1711TIP3    H2 5140   4.140   1.863   3.059  1.7093  0.1413  0.9364
 1712TIP3   OH2 5141   4.171   0.638   3.540  0.4931  0.0739 -0.3882
 1712TIP3    H1 5142   4.118   0.704   3.495  1.7140  1.6884  0.4463
 1712TIP3    H2 5143   4.232   0.688   3.594  2.8351 -1.6485 -1.2106
 1713TIP3   OH2 5144   5.808   0.423   5.043  0.3360  0.5955  0.8131
 1713TIP3    H1 5145   5.872   0.401   4.975 -1.9832 -0.5813 -1.1307
 1713TIP3    H2 5146   5.737   0.467   4.996 -1.8076 -1.1470  2.2199
 1714TIP3   OH2 5147   0.388   4.662   0.611 -0.3183  0.0210 -0.0161
 1714TIP3    H1 5148   0.320   4.602   0.641 -0.5152 -0.1066 -0.7118
 1714TIP3    H2 5149   0.348   4.712   0.540  0.5033 -0.5374 -0.9048
 1715TIP3   OH2 5150   3.004   4.714   2.267 -0.2956 -0.1683 -0.0566
 1715TIP3    H1 5151   3.099   4.723   2.264 -0.3108  0.2822  0.6936
 1715TIP3    H2 5152   2.979   4.701   2.175  0.3997  0.6940 -0.3843
 1716TIP3   OH2 5153   4.594   5.280   0.510  0.2954 -0.6946 -0.0001
 1716TIP3    H1 5154   4.534   5.349   0.538  2.0278 -0.4655  3.7648
 1716TIP3    H2 5155   4.540   5.203   0.497 -1.0698  0.0827  0.9090
 1717TIP3   OH2 5156   5.598   3.869   4.214 -0.1849  0.3820 -0.2096
 1717TIP3    H1 5157   5.563   3.931   4.278  2.1585  1.6278 -0.0570
 1717TIP3    H2 5158   5.557   3.895   4.131 -1.8030 -0.0726  0.4016
 1718TIP3   OH2 5159   1.834   4.129   1.807 -0.5566  0.4227 -0.4654
 1718TIP3    H1 5160   1.923   4.159   1.828  0.6042 -1.5855 -2.0500
 1718TIP3    H2 5161   1.830   4.040   1.842 -2.8458  1.2536  1.6316
 1719TIP3   OH2 5162   5.778   4.783   0.653 -0.2545  0.2777  0.4228
 1719TIP3    H1 5163   5.811   4.812   0.738 -0.8450  1.2556  0.3316
 1719TIP3    H2 5164   5.760   4.864   0.605 -0.5891 -0.2568 -0.3785
 1720TIP3   OH2 5165   5.847   3.703   3.846 -0.0855  0.3582 -0.2860
 1720TIP3    H1 5166   5.854   3.697   3.941  2.6160 -2.0475 -0.4757
 1720TIP3    H2 5167   5.927   3.748   3.819  0.5049 -1.3062 -1.4786
 1721TIP3   OH2 5168   6.130   3.230   3.185  0.3206 -0.1221 -0.3583
 1721TIP3    H1 5169   6.150   3.149   3.138 -1.0894 -0.8963  0.3167
 1721TIP3    H2 5170   6.052   3.209   3.236  1.7273  0.6662  2.3210
 1722TIP3   OH2 5171   1.983   1.699   2.972 -0.0258 -0.0287 -0.0997
 1722TIP3    H1 5172   1.908   1.707   3.031 -0.4886  2.5671 -0.9241
 1722TIP3    H2 5173   1.966   1.619   2.922 -1.7509  0.0097  0.3722
 1723TIP3   OH2 5174   1.369   1.840   3.359  0.6497 -0.3245 -0.5642
 1723TIP3    H1 5175   1.356   1.781   3.433  0.8491  0.1145 -0.1771
 1723TIP3    H2 5176   1.369   1.928   3.397 -2.4744  0.1788 -1.4374
 1724TIP3   OH2 5177   2.155   1.865   2.862  0.0551 -0.3034 -0.2522
 1724TIP3    H1 5178   2.087   1.907   2.810  0.2163 -0.2801 -0.4426
 1724TIP3    H2 5179   2.108   1.803   2.917 -0.2265  0.3348  0.2540
 1725TIP3   OH2 5180   2.139   5.978   4.888 -0.1222 -0.1025 -0.1169
 1725TIP3    H1 5181   2.114   5.897   4.933 -0.0750 -0.0829 -0.0544
 1725TIP3    H2 5182   2.199   5.949   4.819  0.2977 -0.0703  0.2287
 1726TIP3   OH2 5183   5.559   2.336   3.045  0.9061 -0.2653  0.6908
 1726TIP3    H1 5184   5.523   2.285   3.117 -0.5661  1.6410  1.3693
 1726TIP3    H2 5185   5.502   2.314   2.970  1.7472 -1.3755  0.3351
 1727TIP3   OH2 5186   0.140   1.372   3.827 -0.0014 -0.2337  0.0051
 1727TIP3    H1 5187   0.111   1.457   3.792 -0.3119 -0.0633  0.6595
 1727TIP3    H2 5188   0.128   1.311   3.754 -1.0462  0.0305 -0.0646
 1728TIP3   OH2 5189   2.377   3.207   2.176 -0.4393  0.8234 -0.2074
 1728TIP3    H1 5190   2.341   3.296   2.177 -0.7509  0.7316  2.3901
 1728TIP3    H2 5191   2.303   3.153   2.150  0.2025  1.3886 -3.6504
 1729TIP3   OH2 5192   3.676   0.791   4.996  0.3597  0.0345 -0.4347
 1729TIP3    H1 5193   3.594   0.784   5.044  0.0324 -1.7941 -1.1690
 1729TIP3    H2 5194   3.651   0.824   4.910  0.0389 -2.3076 -1.3219
 1730TIP3   OH2 5195   4.327   0.244   3.770 -0.0561  0.7366 -0.0419
 1730TIP3    H1 5196   4.373   0.271   3.849  0.3610 -0.2113  0.0552
 1730TIP3    H2 5197   4.375   0.167   3.740 -0.9226  0.3858 -0.5654
 1731TIP3   OH2 5198   2.339   5.723   0.841  0.1110 -0.2148 -0.3079
 1731TIP3    H1 5199   2.332   5.721   0.746  0.1702 -0.5086 -0.3080
 1731TIP3    H2 5200   2.336   5.631   0.867 -0.1335 -0.1269 -0.0099
 1732TIP3   OH2 5201   3.218   5.206   5.193  0.3762 -0.1814 -0.1867
 1732TIP3    H1 5202   3.199   5.285   5.244 -1.1315  0.0330 -1.0258
 1732TIP3    H2 5203   3.260   5.239   5.114  1.9425 -0.4480  0.4968
 1733TIP3   OH2 5204   4.874   1.902   5.025 -0.3113 -0.5039 -0.5369
 1733TIP3    H1 5205   4.946   1.949   5.065 -2.2769  1.2069  1.2778
 1733TIP3    H2 5206   4.870   1.935   4.935  0.3177  0.3917 -0.2482
 1734TIP3   OH2 5207   2.229   3.640   4.546  0.4519  0.4516 -0.9417
 1734TIP3    H1 5208   2.302   3.581   4.530 -0.0495 -0.1972 -0.9000
 1734TIP3    H2 5209   2.208   3.676   4.460 -0.4845 -0.9376 -1.3240
 1735TIP3   OH2 5210   4.692   4.696   5.083 -0.1446  0.0033 -0.2758
 1735TIP3    H1 5211   4.728   4.609   5.064 -0.4984  0.0997 -1.5039
 1735TIP3    H2 5212   4.615   4.702   5.025  0.7939  1.7477 -1.4239
 1736TIP3   OH2 5213   0.981   1.175   3.475 -0.1387  0.1962 -0.8515
 1736TIP3    H1 5214   0.954   1.083   3.466 -0.6188  0.3099 -0.6469
 1736TIP3    H2 5215   0.924   1.209   3.545 -0.0502  0.6806 -1.0146
 1737TIP3   OH2 5216   3.874   1.228   4.222 -0.6158 -0.2552 -0.0106
 1737TIP3    H1 5217   3.866   1.316   4.185 -0.4180 -0.6382 -1.0184
 1737TIP3    H2 5218   3.926   1.240   4.301  0.7921  0.3495 -0.9749
 1738TIP3   OH2 5219   0.979   5.994   0.717  0.4306  0.2096  0.0574
 1738TIP3    H1 5220   0.958   5.901   0.704  1.3791 -0.1087  0.7093
 1738TIP3    H2 5221   0.926   6.021   0.791  0.9797 -0.1207  0.5797
 1739TIP3   OH2 5222   2.340   5.749   5.019  0.3136 -0.4991 -0.4068
 1739TIP3    H1 5223   2.255   5.716   5.048 -0.4465  1.6029 -0.0481
 1739TIP3    H2 5224   2.345   5.726   4.926 -1.3764  0.6591 -0.8313
 1740TIP3   OH2 5225   3.194   2.166   1.483 -0.6959  0.2905  0.7387
 1740TIP3    H1 5226   3.208   2.084   1.529  2.4816  1.0518  1.3450
 1740TIP3    H2 5227   3.231   2.233   1.540 -0.4975  1.7923 -1.0417
 1741TIP3   OH2 5228   5.522   1.241   4.390  0.5250  0.3446  0.4059
 1741TIP3    H1 5229   5.443   1.287   4.364  0.9199  0.0209 -1.5362
 1741TIP3    H2 5230   5.592   1.305   4.380  1.0594 -0.5138 -2.1853
 1742TIP3   OH2 5231   3.533   3.486   4.093  0.1569 -0.2467  0.0137
 1742TIP3    H1 5232   3.594   3.558   4.109 -0.1056  0.1955 -0.9242
 1742TIP3    H2 5233   3.587   3.407   4.099  0.9392  0.1663 -1.3159
 1743TIP3   OH2 5234   0.487   2.032   0.863 -0.2365  0.3893 -0.0100
 1743TIP3    H1 5235   0.559   2.070   0.912 -1.2062  2.3877 -0.0303
 1743TIP3    H2 5236   0.491   2.074   0.777 -0.8333 -0.2090 -0.3413
 1744TIP3   OH2 5237   1.620   0.237   1.271 -0.1419  0.0475  0.4242
 1744TIP3    H1 5238   1.601   0.144   1.258 -1.1226  0.1043  1.3738
 1744TIP3    H2 5239   1.633   0.247   1.365  1.7469  0.5755  0.1582
 1745TIP3   OH2 5240   0.987   2.025   3.137  0.1740  0.5343  0.0360
 1745TIP3    H1 5241   1.052   2.091   3.161 -0.2078  1.0574 -0.3616
 1745TIP3    H2 5242   0.958   1.989   3.221  1.0260  0.2416  0.2184
 1746TIP3   OH2 5243   2.956   2.272   1.967 -0.0696  0.2307  0.1120
 1746TIP3    H1 5244   2.865   2.298   1.980 -0.2991 -0.2736 -0.4370
 1746TIP3    H2 5245   2.993   2.270   2.056 -1.1264 -1.4273  0.5751
 1747TIP3   OH2 5246   4.387   5.273   2.739  0.2298  0.4934 -0.1519
 1747TIP3    H1 5247   4.327   5.206   2.770  0.4813  0.2891 -0.1069
 1747TIP3    H2 5248   4.393   5.259   2.645  0.2248  0.4994 -0.1532
 1748TIP3   OH2 5249   5.906   2.791   1.338  0.2615 -0.5722 -0.0996
 1748TIP3    H1 5250   5.924   2.856   1.271 -0.1139 -0.2446  0.1146
 1748TIP3    H2 5251   5.845   2.730   1.296  1.6362 -1.5523 -0.7471
 1749TIP3   OH2 5252   2.290   0.611   4.294  0.5169 -0.0132 -0.0646
 1749TIP3    H1 5253   2.250   0.651   4.371  0.5770 -0.4012  0.1696
 1749TIP3    H2 5254   2.226   0.626   4.224  0.6966  0.7897 -0.0590
 1750TIP3   OH2 5255   0.744   3.945   2.538 -0.1703 -0.2325  0.0348
 1750TIP3    H1 5256   0.723   3.944   2.631 -1.0128  1.1084 -0.0992
 1750TIP3    H2 5257   0.810   4.015   2.529 -0.7366  0.2552 -0.4694
 1751TIP3   OH2 5258   2.431   4.103   1.626 -0.1942  0.4997  0.1145
 1751TIP3    H1 5259   2.446   4.169   1.558 -0.7641 -0.6598 -1.1889
 1751TIP3    H2 5260   2.405   4.024   1.578  1.0262 -0.8654  1.5662
 1752TIP3   OH2 5261   5.848   2.013   2.237  0.3061  0.7967 -0.0436
 1752TIP3    H1 5262   5.856   2.084   2.302  0.3336  1.9166 -1.2308
 1752TIP3    H2 5263   5.806   2.055   2.162  0.4117 -0.4466 -0.8092
 1753TIP3   OH2 5264   2.967   0.941   2.470  0.1426 -0.1229  0.3874
 1753TIP3    H1 5265   3.044   0.991   2.442  1.1925 -0.7379  2.0432
 1753TIP3    H2 5266   2.894   0.983   2.424  1.3562  0.9444 -0.6652
 1754TIP3   OH2 5267   5.795   5.118   5.110 -0.6989  0.0914 -0.2711
 1754TIP3    H1 5268   5.712   5.111   5.158 -1.3029  2.2522 -0.8643
 1754TIP3    H2 5269   5.858   5.145   5.177 -1.2175  1.6115 -0.3423
 1755TIP3   OH2 5270   5.841   1.106   3.048 -0.4093 -0.2032  0.3818
 1755TIP3    H1 5271   5.786   1.178   3.019 -0.5791  0.0159  1.2182
 1755TIP3    H2 5272   5.852   1.120   3.142  0.2571 -0.7942  0.4050
 1756TIP3   OH2 5273   2.819   3.374   1.201 -0.5188  0.1244 -0.8007
 1756TIP3    H1 5274   2.862   3.407   1.123  0.4779  0.0585 -0.2905
 1756TIP3    H2 5275   2.813   3.450   1.259  1.0490 -0.3634  0.0529
 1757TIP3   OH2 5276   4.083   2.103   2.476  0.0279 -0.6794 -0.0464
 1757TIP3    H1 5277   4.002   2.063   2.444 -0.9879 -0.4299  2.0396
 1757TIP3    H2 5278   4.056   2.154   2.553  2.1724 -0.6005  0.7276
 1758TIP3   OH2 5279   6.103   1.629   3.028  0.2641  0.0119  0.3019
 1758TIP3    H1 5280   6.155   1.587   3.096  0.9515  2.0637  1.1443
 1758TIP3    H2 5281   6.013   1.600   3.045  0.6935 -1.0825  0.8121
 1759TIP3   OH2 5282   4.832   0.510   0.630 -0.1854  0.6482  0.1764
 1759TIP3    H1 5283   4.890   0.548   0.564  1.3300 -2.5750 -0.5819
 1759TIP3    H2 5284   4.878   0.525   0.713  1.4960 -1.1010 -0.3298
 1760TIP3   OH2 5285   5.471   2.845   0.699 -0.2384  0.1016 -0.6530
 1760TIP3    H1 5286   5.508   2.813   0.617  0.5950 -1.1190  0.1541
 1760TIP3    H2 5287   5.527   2.919   0.724  3.2251 -2.8939  1.5585
 1761TIP3   OH2 5288   0.482   0.644   2.893 -0.4114  0.0415  0.1164
 1761TIP3    H1 5289   0.451   0.679   2.977 -1.4872 -0.7594  0.0737
 1761TIP3    H2 5290   0.485   0.549   2.907  0.6552 -0.0039 -0.3493
 1762TIP3   OH2 5291   4.266   0.361   1.746 -0.5630 -0.1881 -0.6634
 1762TIP3    H1 5292   4.308   0.359   1.832  0.6104 -0.6869 -1.2238
 1762TIP3    H2 5293   4.220   0.277   1.740  0.0967 -0.5376 -0.8749
 1763TIP3   OH2 5294   4.201   1.583   1.795 -0.3419  0.1180  0.7123
 1763TIP3    H1 5295   4.232   1.526   1.725  0.7896  2.8691 -1.2329
 1763TIP3    H2 5296   4.105   1.582   1.788 -0.2665 -0.3528 -0.2717
 1764TIP3   OH2 5297   0.551   0.264   3.106 -0.1510  0.0241  0.4382
 1764TIP3    H1 5298   0.547   0.224   3.019 -0.0572  1.2222 -0.1453
 1764TIP3    H2 5299   0.460   0.269   3.134 -0.4291  1.7350 -0.6247
 1765TIP3   OH2 5300   1.812   4.121   4.146 -0.3166 -0.0716  0.1809
 1765TIP3    H1 5301   1.769   4.183   4.088 -0.2686 -1.5336 -1.4761
 1765TIP3    H2 5302   1.817   4.039   4.096  3.2111 -0.3733  0.7243
 1766TIP3   OH2 5303   0.648   1.577   5.091 -0.2919  0.4802  0.3878
 1766TIP3    H1 5304   0.560   1.540   5.079 -0.6058  0.6949  1.8150
 1766TIP3    H2 5305   0.699   1.543   5.017 -0.9962 -1.4171  0.7242
 1767TIP3   OH2 5306   0.891   4.880   1.574  0.1855 -0.2126 -0.2517
 1767TIP3    H1 5307   0.840   4.856   1.652  0.2542  1.1639  0.2565
 1767TIP3    H2 5308   0.977   4.842   1.589 -0.2039 -1.1305 -0.3138
 1768TIP3   OH2 5309   4.759   5.589   1.383 -0.4255  0.1539  0.0079
 1768TIP3    H1 5310   4.841   5.555   1.345  0.2834  1.7252  0.0414
 1768TIP3    H2 5311   4.772   5.684   1.386 -0.8710  0.2211  3.2184
 1769TIP3   OH2 5312   5.722   5.130   4.480  0.5274 -0.3430  0.7360
 1769TIP3    H1 5313   5.726   5.070   4.405  0.9340 -0.2120  0.6529
 1769TIP3    H2 5314   5.731   5.073   4.556  0.0439 -0.4849  0.6927
 1770TIP3   OH2 5315   5.360   4.656   4.154  0.3779 -0.5063 -0.3468
 1770TIP3    H1 5316   5.453   4.633   4.151  1.1300  1.9126  1.2975
 1770TIP3    H2 5317   5.327   4.615   4.234  0.9928  1.5124  1.0087
 1771TIP3   OH2 5318   0.781   5.324   2.085 -0.6415  0.2231  0.4406
 1771TIP3    H1 5319   0.809   5.410   2.054 -0.1911 -0.3451 -0.8259
 1771TIP3    H2 5320   0.772   5.272   2.005 -1.6887 -0.6823  1.1229
 1772TIP3   OH2 5321   1.156   4.240   2.261  0.0203 -0.6336 -0.0228
 1772TIP3    H1 5322   1.067   4.210   2.240 -0.9349  0.8310  1.7127
 1772TIP3    H2 5323   1.196   4.257   2.176 -2.1578  0.8300 -0.8438
 1773TIP3   OH2 5324   4.056   3.646   1.317  0.3181  0.1667 -0.5266
 1773TIP3    H1 5325   4.085   3.670   1.405 -0.1682  0.0197 -0.3243
 1773TIP3    H2 5326   3.975   3.597   1.330 -0.1757  0.8061 -1.0996
 1774TIP3   OH2 5327   3.430   5.276   1.476 -0.1081  0.2767 -0.3038
 1774TIP3    H1 5328   3.415   5.324   1.395  0.8723  0.5336 -0.3522
 1774TIP3    H2 5329   3.479   5.338   1.531  1.6857 -0.8258 -0.5728
 1775TIP3   OH2 5330   6.056   2.149   0.171 -0.0036 -0.0755  0.4141
 1775TIP3    H1 5331   6.062   2.181   0.261 -0.3402 -1.7349  1.0734
 1775TIP3    H2 5332   6.084   2.057   0.177 -1.7329 -0.7381 -0.8344
 1776TIP3   OH2 5333   1.373   5.366   3.708 -0.5532  0.1321 -0.3919
 1776TIP3    H1 5334   1.408   5.365   3.619 -0.6159  0.5493 -0.4246
 1776TIP3    H2 5335   1.282   5.395   3.697 -0.9830 -1.1349 -0.3324
 1777TIP3   OH2 5336   4.114   5.458   5.077 -0.1865  0.2303  0.2787
 1777TIP3    H1 5337   4.207   5.440   5.091 -0.6058 -2.3541  0.1105
 1777TIP3    H2 5338   4.101   5.445   4.983 -0.6253  1.1828  0.1965
 1778TIP3   OH2 5339   6.050   0.096  -0.010  0.1501 -0.2524  0.1172
 1778TIP3    H1 5340   6.043   0.057   0.077  1.2660  0.1911  0.4284
 1778TIP3    H2 5341   6.105   0.034  -0.059 -0.9960 -0.8182 -0.4809
 1779TIP3   OH2 5342   4.147   2.431   4.195 -0.0091 -0.4631  0.1876
 1779TIP3    H1 5343   4.235   2.461   4.217 -0.5132  0.7466  0.6651
 1779TIP3    H2 5344   4.152   2.405   4.103  1.4073 -2.7278  0.8361
 1780TIP3   OH2 5345   4.766   0.266   1.977 -0.1078  0.0750  0.7296
 1780TIP3    H1 5346   4.823   0.282   2.052  1.8912  0.8305 -0.8526
 1780TIP3    H2 5347   4.743   0.353   1.945 -0.9727 -0.2356  0.4605
 1781TIP3   OH2 5348   0.831   5.246   4.962 -0.3107  0.3703 -0.3450
 1781TIP3    H1 5349   0.780   5.309   5.013 -0.4665  0.3692 -0.4989
 1781TIP3    H2 5350   0.922   5.270   4.979 -0.3681  1.1335 -1.0040
 1782TIP3   OH2 5351   1.543   3.651   3.131 -0.2384  0.1247 -0.0994
 1782TIP3    H1 5352   1.589   3.729   3.100  0.6759  0.0261  0.9809
 1782TIP3    H2 5353   1.462   3.685   3.169 -0.1230  0.4835 -0.1675
 1783TIP3   OH2 5354   5.480   2.997   5.099  0.1999 -0.1914  0.0003
 1783TIP3    H1 5355   5.550   3.060   5.080  1.4118 -2.0066 -1.9437
 1783TIP3    H2 5356   5.524   2.926   5.145 -0.9026 -0.2441  1.0079
 1784TIP3   OH2 5357   1.067   0.455   1.432 -0.1710 -0.3174  0.2838
 1784TIP3    H1 5358   1.127   0.437   1.504 -1.5763  0.3428  1.6604
 1784TIP3    H2 5359   0.987   0.408   1.455 -0.5861 -0.2736 -0.9690
 1785TIP3   OH2 5360   1.525   3.148   3.985 -0.1608  0.3307  0.1158
 1785TIP3    H1 5361   1.607   3.106   4.011 -0.3762 -0.2354 -0.1088
 1785TIP3    H2 5362   1.472   3.077   3.947 -0.8452  0.6430  0.4694
 1786TIP3   OH2 5363   5.018   5.579   0.832 -0.0984  0.0074 -0.4965
 1786TIP3    H1 5364   5.045   5.629   0.755  0.8643  0.0015 -0.1710
 1786TIP3    H2 5365   4.923   5.593   0.838  0.0365  1.1705 -0.8588
 1787TIP3   OH2 5366   6.172   3.011   3.516 -0.0679  0.5964 -0.0264
 1787TIP3    H1 5367   6.187   3.104   3.533 -0.4659  0.7957 -0.7502
 1787TIP3    H2 5368   6.260   2.973   3.516  0.0691  0.8756  0.7638
 1788TIP3   OH2 5369   3.474   3.710   1.887 -0.1694 -1.2058  0.2969
 1788TIP3    H1 5370   3.382   3.723   1.912 -0.2625 -0.8889 -0.1889
 1788TIP3    H2 5371   3.518   3.790   1.916 -0.2972 -0.7918 -0.6198
 1789TIP3   OH2 5372   1.809   3.243   4.173  0.8326 -0.0614  0.5287
 1789TIP3    H1 5373   1.818   3.302   4.098 -0.2577  0.5758  0.8751
 1789TIP3    H2 5374   1.827   3.298   4.249 -1.8002  0.3144  0.9813
 1790TIP3   OH2 5375   1.171   0.926   1.879 -0.3015  0.3169 -0.0329
 1790TIP3    H1 5376   1.182   0.979   1.958 -2.3454  0.7434  0.0149
 1790TIP3    H2 5377   1.171   0.989   1.807 -0.2593  0.1119 -0.2150
 1791TIP3   OH2 5378   2.515   1.634   1.180  0.2231  0.4469  0.0502
 1791TIP3    H1 5379   2.541   1.614   1.090 -1.0484  0.3071 -0.2994
 1791TIP3    H2 5380   2.577   1.702   1.208  0.4596  0.6822 -1.0190
 1792TIP3   OH2 5381   6.060   4.271   1.031  0.0824  0.3816 -0.6199
 1792TIP3    H1 5382   6.105   4.290   0.949  1.6428 -2.5932 -0.6107
 1792TIP3    H2 5383   6.005   4.347   1.047  2.0297  2.4058 -2.8197
 1793TIP3   OH2 5384   4.779   2.272   4.927 -0.0673 -0.1080  0.1594
 1793TIP3    H1 5385   4.852   2.333   4.916  0.0828  0.0809  1.8427
 1793TIP3    H2 5386   4.778   2.254   5.021 -0.6222 -2.0773 -0.1859
 1794TIP3   OH2 5387   2.438   2.230   4.270 -0.2856  0.6354  0.1171
 1794TIP3    H1 5388   2.361   2.222   4.326  0.1250  0.0170  0.6192
 1794TIP3    H2 5389   2.409   2.200   4.185 -0.3284 -0.7037  0.5756
 1795TIP3   OH2 5390   0.833   1.513   2.974 -0.2370  0.3350 -0.2314
 1795TIP3    H1 5391   0.880   1.589   3.008 -0.7826  0.9849 -0.8879
 1795TIP3    H2 5392   0.758   1.503   3.034  0.3563 -0.2825  0.4161
 1796TIP3   OH2 5393   4.523   4.149   4.331 -0.3065  0.5389  0.0030
 1796TIP3    H1 5394   4.443   4.111   4.295  1.7627 -2.9089 -1.4423
 1796TIP3    H2 5395   4.584   4.152   4.257  0.9396  3.2260  1.0111
 1797TIP3   OH2 5396   0.387   5.193   5.007 -0.6350  0.4856 -0.1377
 1797TIP3    H1 5397   0.297   5.161   5.018 -1.2121  1.8350 -0.7050
 1797TIP3    H2 5398   0.438   5.144   5.072 -1.6628 -0.7303 -0.2084
 1798TIP3   OH2 5399   3.398   4.377   3.606 -0.4574  0.1990 -0.0795
 1798TIP3    H1 5400   3.350   4.395   3.525 -0.9714  0.4122  0.2647
 1798TIP3    H2 5401   3.432   4.462   3.634  0.2675  0.0253 -0.4039
 1799TIP3   OH2 5402   3.228   1.023   4.894  0.2711  0.1949 -0.1182
 1799TIP3    H1 5403   3.236   0.928   4.890  1.0888  0.1793  1.3043
 1799TIP3    H2 5404   3.134   1.038   4.904  0.0196 -0.3936 -1.4178
 1800TIP3   OH2 5405   1.219   4.967   0.168  0.4103 -0.3842  0.3981
 1800TIP3    H1 5406   1.303   5.004   0.194 -0.1697  0.4108  1.2000
 1800TIP3    H2 5407   1.209   4.890   0.225 -0.0096  0.3027  1.2907
 1801TIP3   OH2 5408   0.570   2.354   2.803 -0.7500  0.2619  0.1635
 1801TIP3    H1 5409   0.546   2.397   2.721 -0.2051  0.5875  0.1708
 1801TIP3    H2 5410   0.553   2.420   2.870 -3.7834 -0.8438  0.6710
 1802TIP3   OH2 5411   4.189   4.612   0.979  0.2278  0.0468  0.0810
 1802TIP3    H1 5412   4.160   4.653   0.898  1.5272  0.4514 -0.2003
 1802TIP3    H2 5413   4.283   4.626   0.981  0.0097  1.7164  2.6022
 1803TIP3   OH2 5414   1.347   3.488   3.500  0.0109  0.0944  0.0799
 1803TIP3    H1 5415   1.300   3.492   3.416 -0.9381  0.0651  0.5957
 1803TIP3    H2 5416   1.349   3.579   3.530  2.5411  0.5279 -1.1097
 1804TIP3   OH2 5417   3.513   2.548   1.983 -0.3023 -0.9189  0.3551
 1804TIP3    H1 5418   3.591   2.603   1.984 -0.8435 -0.0632 -1.1026
 1804TIP3    H2 5419   3.516   2.502   1.899 -0.8538 -1.6272  0.7125
 1805TIP3   OH2 5420   2.644   4.301   2.040 -0.0613 -0.1321  0.2192
 1805TIP3    H1 5421   2.587   4.375   2.019 -0.2849 -0.4850 -0.4412
 1805TIP3    H2 5422   2.676   4.320   2.128 -0.9947  0.2001  0.4965
 1806TIP3   OH2 5423   4.964   4.028   1.739  0.1456  0.0500 -0.4858
 1806TIP3    H1 5424   5.044   4.008   1.691  0.7186  1.6967 -0.2702
 1806TIP3    H2 5425   4.983   4.006   1.830  0.7720  1.4328 -0.2508
 1807TIP3   OH2 5426   3.299   4.665   1.586 -0.6627 -0.2366  0.2372
 1807TIP3    H1 5427   3.299   4.685   1.492  0.4679 -3.9946 -0.7369
 1807TIP3    H2 5428   3.207   4.661   1.610 -0.9558  1.5326 -0.4666
 1808TIP3   OH2 5429   6.276   0.099   1.399 -0.6280  0.3426 -0.0021
 1808TIP3    H1 5430   6.207   0.148   1.355 -1.3147 -0.0004  0.6768
 1808TIP3    H2 5431   6.245   0.008   1.400 -0.2246  0.2027  0.4162
 1809TIP3   OH2 5432   6.338   1.073   2.503 -0.6370  0.3509  0.3729
 1809TIP3    H1 5433   6.274   1.144   2.513 -0.6922  0.2865  0.4823
 1809TIP3    H2 5434   6.358   1.071   2.409 -0.4168  0.7032  0.4065
 1810TIP3   OH2 5435   1.291   4.785   2.923  0.2039 -0.0135 -0.3836
 1810TIP3    H1 5436   1.248   4.705   2.893 -1.7270  1.2999 -1.3583
 1810TIP3    H2 5437   1.315   4.831   2.842  1.7581  0.1830  0.1611
 1811TIP3   OH2 5438   2.954   5.766   1.677  0.3854  0.1551 -0.0316
 1811TIP3    H1 5439   2.996   5.774   1.762  0.7047 -0.4873 -0.1200
 1811TIP3    H2 5440   3.018   5.801   1.615 -0.4960  2.1732  0.1304
 1812TIP3   OH2 5441   0.705   4.711   3.275  0.6168 -0.6122 -0.1943
 1812TIP3    H1 5442   0.684   4.690   3.366  0.4741 -2.5539 -0.6159
 1812TIP3    H2 5443   0.778   4.772   3.280  1.4409 -1.6574  1.2288
 1813TIP3   OH2 5444   2.936   0.568   3.628  0.2457 -0.5420  0.3407
 1813TIP3    H1 5445   3.016   0.519   3.646 -0.2581 -1.3680  0.3983
 1813TIP3    H2 5446   2.866   0.512   3.661 -0.5122 -0.7850 -1.5373
 1814TIP3   OH2 5447   2.189   5.422   1.865 -0.0249  0.0927  0.5545
 1814TIP3    H1 5448   2.114   5.480   1.857  0.4611  0.5994 -0.4534
 1814TIP3    H2 5449   2.162   5.340   1.823 -0.0975  0.1890  0.4160
 1815TIP3   OH2 5450   1.192   5.719   2.375  0.0850 -0.4723  0.7156
 1815TIP3    H1 5451   1.198   5.692   2.284  1.0572 -0.3394  0.7291
 1815TIP3    H2 5452   1.121   5.783   2.377  0.4805  0.0011 -0.0665
 1816TIP3   OH2 5453   5.704   5.568   4.714  0.2167  0.1466 -0.4528
 1816TIP3    H1 5454   5.780   5.585   4.770  0.6557  1.9028 -1.5076
 1816TIP3    H2 5455   5.636   5.627   4.748 -0.7106 -1.3487  0.4303
 1817TIP3   OH2 5456   0.712   2.958   4.959  0.5772 -0.2496 -0.2947
 1817TIP3    H1 5457   0.708   2.867   4.930 -1.6747 -0.4925  0.5470
 1817TIP3    H2 5458   0.701   3.009   4.879  0.3683 -0.7568 -0.5962
 1818TIP3   OH2 5459   2.093   3.533   1.136 -0.1995  0.3927 -0.5939
 1818TIP3    H1 5460   2.050   3.458   1.096  0.4231  0.0620 -0.6477
 1818TIP3    H2 5461   2.183   3.530   1.103  0.2791  0.2271  0.6634
 1819TIP3   OH2 5462   6.043   0.864   3.567  0.1031 -0.3361 -0.1904
 1819TIP3    H1 5463   5.995   0.897   3.491 -0.6724  0.3042  0.5689
 1819TIP3    H2 5464   5.993   0.788   3.596 -0.3835  0.2485  0.5166
 1820TIP3   OH2 5465   2.678   5.687   0.059 -0.2306 -0.1465 -0.5136
 1820TIP3    H1 5466   2.710   5.735   0.136  0.0920 -0.4227 -0.4737
 1820TIP3    H2 5467   2.757   5.668   0.009 -0.4634  0.2522 -1.0435
 1821TIP3   OH2 5468   1.912   4.488   1.921  0.0679  0.4312  0.1393
 1821TIP3    H1 5469   1.936   4.454   1.834 -2.2612  1.6879 -1.1007
 1821TIP3    H2 5470   1.850   4.424   1.955  1.6599 -0.5336  1.3568
 1822TIP3   OH2 5471   1.316   3.736   3.644  0.9769 -0.2025 -0.6756
 1822TIP3    H1 5472   1.328   3.758   3.736  0.8238  1.1324 -0.9533
 1822TIP3    H2 5473   1.385   3.785   3.598  0.7066 -0.4076 -1.3192
 1823TIP3   OH2 5474   1.243   3.062   2.703 -0.0623 -0.0412  0.0727
 1823TIP3    H1 5475   1.262   3.059   2.609  0.7112 -0.7950  0.2376
 1823TIP3    H2 5476   1.325   3.092   2.742 -0.1593 -0.4293  0.5692
 1824TIP3   OH2 5477   2.181   2.095   2.577 -0.1549  0.4351 -0.2850
 1824TIP3    H1 5478   2.260   2.067   2.624  0.3486  0.0980 -1.3034
 1824TIP3    H2 5479   2.109   2.067   2.633  0.4273  0.2274  0.3864
 1825TIP3   OH2 5480   5.042   3.519   3.869  0.2349  0.0303  0.0671
 1825TIP3    H1 5481   5.011   3.463   3.940 -0.0303 -0.3141 -0.3080
 1825TIP3    H2 5482   5.090   3.590   3.912 -0.8118  0.4041  0.6431
 1826TIP3   OH2 5483   1.164   5.654   2.099 -0.2979 -0.4297 -0.2017
 1826TIP3    H1 5484   1.198   5.595   2.032  1.9700  0.5042  0.0366
 1826TIP3    H2 5485   1.114   5.719   2.051 -1.5605 -1.6370 -0.6050
 1827TIP3   OH2 5486   1.264   1.299   3.475 -0.0458 -0.2263  0.1890
 1827TIP3    H1 5487   1.191   1.238   3.468 -0.2558  0.0490 -0.0251
 1827TIP3    H2 5488   1.269   1.322   3.568  0.9821 -1.7305  0.5443
 1828TIP3   OH2 5489   5.650   2.939   1.896  0.1636 -0.4113 -0.4343
 1828TIP3    H1 5490   5.595   2.895   1.961 -0.5712 -1.8363 -1.9491
 1828TIP3    H2 5491   5.592   3.004   1.856  0.8746  1.1235  0.8834
 1829TIP3   OH2 5492   4.143   3.054   3.074  0.4075 -0.4633  0.0820
 1829TIP3    H1 5493   4.235   3.043   3.098  1.1783  0.7774 -1.9933
 1829TIP3    H2 5494   4.117   3.136   3.115  0.0232 -1.1062  1.1514
 1830TIP3   OH2 5495   1.491   2.798   2.948  0.8109  0.1104  0.5427
 1830TIP3    H1 5496   1.523   2.780   3.036  1.2757 -0.0914  0.3383
 1830TIP3    H2 5497   1.569   2.825   2.899  1.0505 -2.0830 -0.4296
 1831TIP3   OH2 5498   0.482   0.080   4.980  0.5267 -0.0414 -0.7049
 1831TIP3    H1 5499   0.447   0.108   4.895  0.9369  1.7114 -0.3226
 1831TIP3    H2 5500   0.534   0.154   5.010 -1.4518  0.3657  2.1370
 1832TIP3   OH2 5501   4.750   5.408   0.337 -0.0532  0.3877  0.0478
 1832TIP3    H1 5502   4.718   5.365   0.417 -0.5610 -0.4310 -0.5768
 1832TIP3    H2 5503   4.745   5.340   0.270  0.7620  0.9471 -0.5968
 1833TIP3   OH2 5504   0.847   2.835   1.056  0.4716  0.1707 -0.6630
 1833TIP3    H1 5505   0.886   2.855   1.141  2.0222  0.2497 -1.3551
 1833TIP3    H2 5506   0.813   2.919   1.025 -1.2420 -0.0815  0.3841
 1834TIP3   OH2 5507   1.004   3.625   3.137  0.4139 -0.3591 -0.0817
 1834TIP3    H1 5508   0.995   3.679   3.216 -1.1039  0.1267 -0.5405
 1834TIP3    H2 5509   1.055   3.678   3.077 -0.7231  0.4348 -0.3803
 1835TIP3   OH2 5510   2.310   3.246   2.445  0.3009 -0.4451 -0.2516
 1835TIP3    H1 5511   2.316   3.336   2.478  0.7183 -0.6302  0.1905
 1835TIP3    H2 5512   2.361   3.247   2.364  0.1809 -0.2494 -0.3262
 1836TIP3   OH2 5513   5.657   2.794   2.589  0.2882  0.0214 -0.1099
 1836TIP3    H1 5514   5.718   2.732   2.550  0.5743  1.1232 -1.4473
 1836TIP3    H2 5515   5.612   2.743   2.657  2.1433 -1.0069  0.4020
 1837TIP3   OH2 5516   3.353   0.392   0.757  0.2520 -0.1710  0.2845
 1837TIP3    H1 5517   3.384   0.306   0.787 -1.6952 -1.1037 -0.2087
 1837TIP3    H2 5518   3.374   0.452   0.828  1.4240 -1.0927  0.7523
 1838TIP3   OH2 5519   0.100   3.497   3.630  0.4461  0.0243  0.3208
 1838TIP3    H1 5520   0.100   3.592   3.625  1.2157  0.0265  0.1823
 1838TIP3    H2 5521   0.167   3.470   3.566  0.1959 -0.6077  0.3188
 1839TIP3   OH2 5522   5.046   4.466   3.272  0.1192  0.3172 -0.5626
 1839TIP3    H1 5523   4.998   4.404   3.327 -0.2554  2.4159  1.6558
 1839TIP3    H2 5524   5.135   4.466   3.309  0.1905  0.8561 -0.7300
 1840TIP3   OH2 5525   3.865   3.969   4.402  0.3491  0.1262  0.2952
 1840TIP3    H1 5526   3.924   3.897   4.381 -0.6822 -0.1837 -1.8038
 1840TIP3    H2 5527   3.796   3.929   4.454  1.4823  0.3244  2.0305
 1841TIP3   OH2 5528   3.351   1.708   1.722  0.0403  0.0584 -0.2153
 1841TIP3    H1 5529   3.311   1.723   1.808 -2.8221 -3.4327 -0.7078
 1841TIP3    H2 5530   3.411   1.635   1.737  1.2915  0.9270 -0.8262
 1842TIP3   OH2 5531   5.919   0.391   0.164  0.4245  0.2185  0.0406
 1842TIP3    H1 5532   5.904   0.473   0.117 -1.1510  0.3764  0.7622
 1842TIP3    H2 5533   5.857   0.329   0.124  0.9235 -0.3688  0.1533
 1843TIP3   OH2 5534   4.066   2.661   4.331  0.0880 -0.1344 -0.7124
 1843TIP3    H1 5535   4.085   2.570   4.308  1.3932 -1.0295  3.1405
 1843TIP3    H2 5536   4.152   2.702   4.340 -0.4154  0.8625 -0.2946
 1844TIP3   OH2 5537   3.213   5.749   3.354  0.0584 -0.1005 -0.0659
 1844TIP3    H1 5538   3.156   5.714   3.285  0.2817 -1.6518  0.4855
 1844TIP3    H2 5539   3.153   5.774   3.424 -0.0667  0.0859 -0.2386
 1845TIP3   OH2 5540   3.335   0.152   2.762  0.2428  0.3835 -0.0094
 1845TIP3    H1 5541   3.429   0.152   2.746  0.6452 -0.3534  2.0176
 1845TIP3    H2 5542   3.299   0.095   2.693  0.9923  2.1095 -1.9201
 1846TIP3   OH2 5543   4.453   4.295   2.454 -0.5272 -0.0019  0.6703
 1846TIP3    H1 5544   4.454   4.247   2.537 -1.1230 -0.2641  0.5355
 1846TIP3    H2 5545   4.525   4.257   2.403 -0.5486 -0.2683  0.8365
 1847TIP3   OH2 5546   3.569   4.724   4.042  0.4101  0.1214 -0.1890
 1847TIP3    H1 5547   3.627   4.801   4.045 -0.2095  0.6393 -0.8918
 1847TIP3    H2 5548   3.601   4.674   3.966  0.9160 -0.4092  0.3671
 1848TIP3   OH2 5549   2.263   1.720   0.445 -0.0473  0.2756  0.0671
 1848TIP3    H1 5550   2.173   1.688   0.448 -0.8569  2.4394  1.0891
 1848TIP3    H2 5551   2.255   1.815   0.436  2.1857  0.4096 -1.5206
 1849TIP3   OH2 5552   0.676   3.058   1.275  0.3560 -0.3259  0.3425
 1849TIP3    H1 5553   0.630   2.980   1.244  0.6855 -0.4149  0.0738
 1849TIP3    H2 5554   0.765   3.029   1.293  1.0523  0.3768 -1.6576
 1850TIP3   OH2 5555   2.366   2.878   4.000  0.5162  0.2468 -0.1507
 1850TIP3    H1 5556   2.430   2.828   3.949 -0.5640 -1.8275  0.4366
 1850TIP3    H2 5557   2.283   2.865   3.954 -0.0776  0.1459  0.9119
 1851TIP3   OH2 5558   3.802   3.872   1.014 -0.3154  0.3366 -0.3543
 1851TIP3    H1 5559   3.859   3.937   1.055  0.8377 -1.3869  0.8933
 1851TIP3    H2 5560   3.726   3.866   1.072 -0.0032 -0.0653  0.0153
 1852TIP3   OH2 5561   3.394   5.425   4.763  0.1130 -0.0182  0.1394
 1852TIP3    H1 5562   3.386   5.469   4.847 -1.0428 -1.2226  0.7108
 1852TIP3    H2 5563   3.488   5.421   4.746  0.6084 -2.2008  2.7610
 1853TIP3   OH2 5564   1.121   4.704   4.834  0.0894 -0.1332 -0.2439
 1853TIP3    H1 5565   1.174   4.783   4.841 -0.5288  0.5283 -2.2493
 1853TIP3    H2 5566   1.136   4.657   4.916  1.4828  1.4246  0.4449
 1854TIP3   OH2 5567   4.333   5.367   0.597 -0.2432  0.0665  0.1781
 1854TIP3    H1 5568   4.279   5.431   0.642 -0.0684 -0.3911  1.0675
 1854TIP3    H2 5569   4.302   5.369   0.506 -1.6657 -0.0916  0.6298
 1855TIP3   OH2 5570   0.527   4.032   1.989  0.7905  0.5185 -0.1425
 1855TIP3    H1 5571   0.457   3.977   1.952 -0.0486  2.0844 -1.0001
 1855TIP3    H2 5572   0.513   4.028   2.083 -1.1348  1.5821 -0.3335
 1856TIP3   OH2 5573   2.358   1.290   2.704 -0.1472  0.4731  0.5267
 1856TIP3    H1 5574   2.378   1.202   2.734 -0.1537  1.1985  2.8118
 1856TIP3    H2 5575   2.430   1.344   2.736 -1.7331  1.8127  2.0802
 1857TIP3   OH2 5576   3.147   3.841   4.489 -0.4393 -0.1043  0.2370
 1857TIP3    H1 5577   3.190   3.761   4.457 -0.3156  0.0744 -0.0497
 1857TIP3    H2 5578   3.109   3.816   4.573 -0.6119 -0.5335  0.0326
 1858TIP3   OH2 5579   5.221   1.332   3.420 -0.8156 -0.1316  0.6132
 1858TIP3    H1 5580   5.295   1.355   3.477 -0.6949 -1.8740  1.1979
 1858TIP3    H2 5581   5.225   1.397   3.349 -0.0511  1.1428  1.7634
 1859TIP3   OH2 5582   3.431   0.553   4.199  0.4959  0.1283  0.1435
 1859TIP3    H1 5583   3.473   0.591   4.122  0.6395  1.2565  0.7563
 1859TIP3    H2 5584   3.500   0.550   4.265  0.1642 -0.0385  0.4860
 1860TIP3   OH2 5585   6.329   2.216   2.732 -0.1923  0.4930 -0.7390
 1860TIP3    H1 5586   6.349   2.236   2.824  0.5935 -2.1861 -0.2323
 1860TIP3    H2 5587   6.238   2.243   2.721 -0.6802 -0.1601  1.1883
 1861TIP3   OH2 5588   0.118   4.426   0.336  0.4969  0.3801  0.0486
 1861TIP3    H1 5589   0.164   4.343   0.325 -0.6743 -0.1596 -1.0697
 1861TIP3    H2 5590   0.160   4.467   0.411  0.7250 -1.4899  1.0103
 1862TIP3   OH2 5591   1.072   4.840   3.948 -0.2280 -0.0167 -0.0207
 1862TIP3    H1 5592   1.071   4.915   3.889 -1.0092  0.8758  1.0930
 1862TIP3    H2 5593   1.004   4.858   4.012 -0.3459 -1.6209  0.3616
 1863TIP3   OH2 5594   2.027   2.163   4.174  0.1969 -0.4751  1.0079
 1863TIP3    H1 5595   2.122   2.176   4.171  0.0280  0.6556  0.3323
 1863TIP3    H2 5596   1.997   2.223   4.242  0.1305 -2.0384  2.4259
 1864TIP3   OH2 5597   4.807   0.096   2.375  0.1089 -0.1985 -0.4811
 1864TIP3    H1 5598   4.847   0.029   2.431  1.1034  0.4999 -0.3471
 1864TIP3    H2 5599   4.866   0.103   2.301 -0.2815  0.1524 -0.7587
 1865TIP3   OH2 5600   4.439   5.275   3.900 -0.1731  0.6040 -0.5379
 1865TIP3    H1 5601   4.534   5.267   3.889 -0.2126 -0.6318 -0.1020
 1865TIP3    H2 5602   4.403   5.209   3.841 -0.5500 -2.8815  3.1970
 1866TIP3   OH2 5603   2.825   1.756   0.946  0.3031  0.2440  0.0152
 1866TIP3    H1 5604   2.859   1.672   0.976  0.7825 -0.2084 -1.6788
 1866TIP3    H2 5605   2.823   1.748   0.851 -1.9215  1.2936 -0.0780
 1867TIP3   OH2 5606   3.218   1.978   0.228  0.3887 -0.4942 -0.2435
 1867TIP3    H1 5607   3.205   1.885   0.209 -1.0771 -0.2449 -0.5332
 1867TIP3    H2 5608   3.237   1.981   0.322 -1.1834 -0.9622  0.1168
 1868TIP3   OH2 5609   2.590   5.695   2.471  0.1818 -0.8145 -0.4457
 1868TIP3    H1 5610   2.670   5.742   2.494  0.7937 -2.0991  0.1633
 1868TIP3    H2 5611   2.523   5.763   2.465  1.1716  0.2041 -0.2886
 1869TIP3   OH2 5612   3.097   5.518   2.842  0.0075 -0.5398 -0.1791
 1869TIP3    H1 5613   3.003   5.540   2.840 -0.0196 -0.6850 -2.3970
 1869TIP3    H2 5614   3.141   5.603   2.830  0.1818 -0.5184  0.5323
 1870TIP3   OH2 5615   1.684   0.702   3.944  0.1009  0.0095 -0.0100
 1870TIP3    H1 5616   1.615   0.682   3.881  0.3576  1.6009 -0.8393
 1870TIP3    H2 5617   1.744   0.760   3.897  1.3430 -0.3434  1.0878
 1871TIP3   OH2 5618   4.963   4.064   0.500 -0.7601  0.2582 -0.4279
 1871TIP3    H1 5619   4.920   3.993   0.547 -3.0576  0.4670 -2.0763
 1871TIP3    H2 5620   4.984   4.028   0.414  1.3163  0.5621 -0.1087
 1872TIP3   OH2 5621   5.268   2.988   2.163 -0.5467 -0.2610  0.0738
 1872TIP3    H1 5622   5.189   3.009   2.212 -1.3053 -1.2116 -0.7105
 1872TIP3    H2 5623   5.333   2.965   2.230 -1.0786  0.0386  0.6994
 1873TIP3   OH2 5624   4.844   3.553   1.452  0.0737  0.0910  0.1050
 1873TIP3    H1 5625   4.767   3.583   1.501 -0.3758 -0.4408 -0.2571
 1873TIP3    H2 5626   4.826   3.580   1.362 -0.3048 -1.1673 -0.2161
 1874TIP3   OH2 5627   3.525   2.237   3.623  0.2106 -0.3670 -0.0147
 1874TIP3    H1 5628   3.579   2.314   3.638 -0.7928  0.7219 -1.6677
 1874TIP3    H2 5629   3.456   2.267   3.564 -1.7762 -1.8819  1.4067
 1875TIP3   OH2 5630   5.126   0.739   1.617  0.5090 -0.9231 -0.4861
 1875TIP3    H1 5631   5.189   0.742   1.689  1.7265 -1.5992 -1.4763
 1875TIP3    H2 5632   5.040   0.740   1.660  1.1936 -1.0390  0.9477
 1876TIP3   OH2 5633   5.065   5.766   1.016  0.1331  0.2717 -0.1085
 1876TIP3    H1 5634   5.072   5.682   0.972  0.2375  0.0433  0.3347
 1876TIP3    H2 5635   5.029   5.825   0.951  1.7952  0.3346 -1.0194
 1877TIP3   OH2 5636   5.078   3.285   0.688 -0.1216  0.1316 -0.0960
 1877TIP3    H1 5637   4.997   3.274   0.639 -0.0768 -4.4899  0.4396
 1877TIP3    H2 5638   5.140   3.225   0.646  2.9105  2.9271 -0.0059
 1878TIP3   OH2 5639   2.811   5.433   2.613  0.1377  0.0588  0.4808
 1878TIP3    H1 5640   2.784   5.514   2.656 -0.0105  0.1989  0.1277
 1878TIP3    H2 5641   2.877   5.395   2.672  1.5365  1.3296 -0.1994
 1879TIP3   OH2 5642   3.904   4.039   1.631  0.0280 -0.3470  0.2744
 1879TIP3    H1 5643   3.901   3.998   1.718  0.9339 -0.5624  0.2101
 1879TIP3    H2 5644   3.817   4.021   1.594 -0.3597 -0.2847  1.1087
 1880TIP3   OH2 5645   6.138   4.633   5.099 -0.0556 -0.6476 -0.2982
 1880TIP3    H1 5646   6.230   4.639   5.123 -0.2285 -0.1452  0.2845
 1880TIP3    H2 5647   6.138   4.606   5.008  0.6426 -2.6476  0.2590
 1881TIP3   OH2 5648   3.588   4.720   1.133  0.1581  0.3508  0.6466
 1881TIP3    H1 5649   3.633   4.791   1.179 -1.5700  3.1679 -1.7114
 1881TIP3    H2 5650   3.657   4.677   1.082  0.9723  1.4730  0.7585
 1882TIP3   OH2 5651   1.164   2.315   2.542  0.4209 -0.1640  0.0001
 1882TIP3    H1 5652   1.246   2.363   2.553 -0.0433  0.5581  0.4307
 1882TIP3    H2 5653   1.106   2.377   2.499  0.3031 -0.9104 -0.9550
 1883TIP3   OH2 5654   2.580   5.412   2.062 -0.2934  0.0033 -0.5299
 1883TIP3    H1 5655   2.649   5.355   2.029 -1.9108 -0.6906 -3.0153
 1883TIP3    H2 5656   2.512   5.353   2.092 -0.2110  0.6831  1.1333
 1884TIP3   OH2 5657   0.506   3.849   4.044 -0.3403  0.1874 -0.4815
 1884TIP3    H1 5658   0.412   3.835   4.027 -0.5619  1.3584 -0.3783
 1884TIP3    H2 5659   0.519   3.942   4.022  0.4970  0.3878  0.7984
 1885TIP3   OH2 5660   0.198   2.406   2.690  0.7205 -0.1557  0.3988
 1885TIP3    H1 5661   0.139   2.333   2.711 -2.5214  2.0415 -0.2843
 1885TIP3    H2 5662   0.207   2.403   2.595  0.0492  0.6132  0.2933
 1886TIP3   OH2 5663   0.368   4.047   2.798 -0.3955  0.1677  0.6021
 1886TIP3    H1 5664   0.288   4.095   2.818  0.6458  1.6139  1.4340
 1886TIP3    H2 5665   0.427   4.112   2.760  0.8548 -0.5753  1.2147
 1887TIP3   OH2 5666   0.190   3.814   4.487 -0.3046  0.0940  1.0523
 1887TIP3    H1 5667   0.209   3.894   4.537  2.9368 -0.0641  0.2601
 1887TIP3    H2 5668   0.212   3.743   4.547  0.1223 -0.1506  0.6036
 1888TIP3   OH2 5669   2.376   5.844   4.210  0.2014 -0.2658  0.0832
 1888TIP3    H1 5670   2.455   5.809   4.169 -0.5487 -1.8118 -0.1172
 1888TIP3    H2 5671   2.336   5.768   4.254 -0.5932  0.7183  1.1104
 1889TIP3   OH2 5672   4.732   2.535   0.030  0.4398  0.2844 -0.0321
 1889TIP3    H1 5673   4.682   2.591  -0.029 -0.9920  0.5847  1.3964
 1889TIP3    H2 5674   4.732   2.582   0.113  0.3901 -1.1911  0.8450
 1890TIP3   OH2 5675   3.355   1.800   3.471  0.4630 -0.0145 -0.2704
 1890TIP3    H1 5676   3.326   1.712   3.496 -1.7715  0.4855 -0.9252
 1890TIP3    H2 5677   3.434   1.814   3.523  0.0798 -1.8565  0.9143
 1891TIP3   OH2 5678   0.255   3.590   4.299 -0.2065  0.2520  0.4454
 1891TIP3    H1 5679   0.239   3.599   4.205  0.0891 -0.3905  0.3236
 1891TIP3    H2 5680   0.253   3.679   4.333  1.1997  0.6411 -0.4224
 1892TIP3   OH2 5681   3.256   4.393   5.013 -0.1547  0.1056 -0.1059
 1892TIP3    H1 5682   3.312   4.471   5.005 -0.3469  0.1440 -1.2522
 1892TIP3    H2 5683   3.281   4.354   5.096  0.2923  1.1250  0.2622
 1893TIP3   OH2 5684   3.598   3.899   1.242  0.6073 -0.1219  0.3226
 1893TIP3    H1 5685   3.554   3.935   1.319 -1.4348 -0.6100 -0.5636
 1893TIP3    H2 5686   3.528   3.860   1.190  1.6994  1.3659 -2.4576
 1894TIP3   OH2 5687   1.457   1.085   3.418 -0.6899  0.5873 -0.0364
 1894TIP3    H1 5688   1.404   1.154   3.378 -1.0708  0.8887  0.9727
 1894TIP3    H2 5689   1.394   1.019   3.446 -0.5518  0.9728  1.2163
 1895TIP3   OH2 5690   3.589   5.698   2.779 -0.0471 -0.2999  0.4194
 1895TIP3    H1 5691   3.575   5.677   2.871  2.3383 -0.1631  0.8608
 1895TIP3    H2 5692   3.550   5.624   2.731  1.7584 -2.1407  1.6825
 1896TIP3   OH2 5693   1.983   5.632   1.909  0.0604 -0.1572 -0.2426
 1896TIP3    H1 5694   1.909   5.603   1.962 -1.8305  2.1173 -1.4875
 1896TIP3    H2 5695   2.004   5.720   1.942  1.2742 -0.1869 -0.8698
 1897TIP3   OH2 5696   5.282   3.143   1.016  0.7296  0.1499  0.2782
 1897TIP3    H1 5697   5.251   3.194   0.941 -0.3834  0.1455  0.7110
 1897TIP3    H2 5698   5.321   3.208   1.074 -0.6606  0.5498  0.8146
 1898TIP3   OH2 5699   2.542   2.882   0.171  0.7935 -0.2920  0.4808
 1898TIP3    H1 5700   2.495   2.799   0.177  1.8055 -0.9619 -0.4835
 1898TIP3    H2 5701   2.613   2.865   0.109 -0.0385  1.7929 -1.1404
 1899TIP3   OH2 5702   2.191   4.435   1.420  0.2886 -0.1974 -0.4496
 1899TIP3    H1 5703   2.118   4.487   1.454 -1.8182 -1.4555 -2.7214
 1899TIP3    H2 5704   2.212   4.374   1.491 -0.2562  0.7759  0.5715
 1900TIP3   OH2 5705   2.026   1.687   4.424 -0.0817 -0.1724  0.1251
 1900TIP3    H1 5706   2.057   1.618   4.483 -1.1359 -1.0087 -0.2789
 1900TIP3    H2 5707   1.951   1.649   4.380 -3.0073  2.3857  2.4365
 1901TIP3   OH2 5708   3.457   5.839   3.417  0.0661  0.3875  0.0105
 1901TIP3    H1 5709   3.457   5.780   3.493  0.5039 -0.2510 -0.4631
 1901TIP3    H2 5710   3.369   5.832   3.381  0.5029 -1.1335 -0.8786
 1902TIP3   OH2 5711   2.171   4.136   0.429  0.2906 -0.4332  0.5924
 1902TIP3    H1 5712   2.094   4.107   0.476  0.7924 -2.0172  0.4871
 1902TIP3    H2 5713   2.155   4.112   0.338  0.8179 -0.5870  0.5345
 1903TIP3   OH2 5714   1.302   1.628   3.183  0.1582 -0.4509  0.0673
 1903TIP3    H1 5715   1.332   1.697   3.241  1.0540 -1.5347  0.9303
 1903TIP3    H2 5716   1.215   1.605   3.216  0.7917 -1.2771  1.1925
 1904TIP3   OH2 5717   4.666   1.973   4.760 -0.2668 -0.2195  0.7318
 1904TIP3    H1 5718   4.761   1.976   4.751 -0.3912  0.4509 -0.7066
 1904TIP3    H2 5719   4.647   2.036   4.829  0.2325  1.1290 -0.3043
 1905TIP3   OH2 5720   6.016   0.708   4.924  0.0708  0.5993 -0.1925
 1905TIP3    H1 5721   5.926   0.695   4.955  0.1637 -1.5024 -0.6503
 1905TIP3    H2 5722   6.005   0.738   4.834 -0.1991 -0.0185 -0.3749
 1906TIP3   OH2 5723   2.330   3.956   1.145  0.5752 -0.0429  0.1322
 1906TIP3    H1 5724   2.377   4.012   1.206  1.6342  0.5422 -1.1673
 1906TIP3    H2 5725   2.396   3.892   1.116 -0.1171 -0.7973  0.1740
 1907TIP3   OH2 5726   0.666   4.342   4.665  0.5267 -0.3832 -0.4536
 1907TIP3    H1 5727   0.677   4.345   4.570  1.9621  0.6864 -0.2745
 1907TIP3    H2 5728   0.571   4.336   4.677  0.3681 -1.7773 -1.9490
 1908TIP3   OH2 5729   4.623   2.714   0.838 -0.2647  0.2348  0.0010
 1908TIP3    H1 5730   4.693   2.653   0.861 -1.2036  0.1451  2.9950
 1908TIP3    H2 5731   4.666   2.800   0.836  0.2172  0.0073  0.3238
 1909TIP3   OH2 5732   3.467   0.971   4.148 -0.1607  0.2729  0.3112
 1909TIP3    H1 5733   3.407   1.033   4.190 -0.1778 -0.7782  1.9171
 1909TIP3    H2 5734   3.461   0.991   4.054 -1.6817  1.3417  0.6048
 1910TIP3   OH2 5735   2.490   1.838   1.619 -0.0863 -0.2584  0.4014
 1910TIP3    H1 5736   2.448   1.757   1.591  1.2273 -1.0517  0.6157
 1910TIP3    H2 5737   2.447   1.860   1.702 -0.2448 -0.8979  0.4882
 1911TIP3   OH2 5738   0.333   5.348   2.366  0.0465  0.4487 -0.0897
 1911TIP3    H1 5739   0.364   5.433   2.397  0.4342  0.1858  0.2568
 1911TIP3    H2 5740   0.396   5.323   2.299 -0.4772  0.7618 -0.7062
 1912TIP3   OH2 5741   5.202   5.821   2.059 -0.0152  0.1335  0.4201
 1912TIP3    H1 5742   5.159   5.802   1.975  1.6320  0.7556 -0.6044
 1912TIP3    H2 5743   5.131   5.817   2.123 -0.9648 -2.5482 -0.6533
 1913TIP3   OH2 5744   1.287   1.223   4.935  0.0029  0.5607 -0.1439
 1913TIP3    H1 5745   1.239   1.246   5.015 -1.7808  0.4151 -1.1069
 1913TIP3    H2 5746   1.230   1.253   4.864  0.8853 -0.5597 -1.3730
 1914TIP3   OH2 5747   5.483   4.585   1.045  0.2381  0.0028  0.0235
 1914TIP3    H1 5748   5.517   4.628   0.966  0.5275  0.0932  0.1985
 1914TIP3    H2 5749   5.523   4.632   1.118 -0.3360  0.1726  0.2349
 1915TIP3   OH2 5750   2.695   2.932   3.564 -0.1125 -1.0771 -0.0825
 1915TIP3    H1 5751   2.752   3.003   3.593 -0.4703  0.4350 -2.7201
 1915TIP3    H2 5752   2.606   2.968   3.574 -0.2734 -0.8095 -2.0784
 1916TIP3   OH2 5753   4.585   5.728   4.343  0.2108  0.2827 -0.0310
 1916TIP3    H1 5754   4.602   5.764   4.256 -1.4087 -0.0222 -0.5120
 1916TIP3    H2 5755   4.510   5.779   4.375 -0.2818 -0.7323  0.4730
 1917TIP3   OH2 5756   1.106   1.986   2.170 -0.4485  0.1906  0.3904
 1917TIP3    H1 5757   1.121   1.892   2.155 -2.7416 -0.1892  0.1251
 1917TIP3    H2 5758   1.086   1.992   2.264  1.6553  0.7550  0.8508
 1918TIP3   OH2 5759   2.917   3.016   2.582  0.0495 -0.2476  0.2773
 1918TIP3    H1 5760   2.854   3.052   2.519 -2.0629  0.2894  2.5206
 1918TIP3    H2 5761   3.001   3.055   2.557 -0.1277 -1.8771 -3.5468
 1919TIP3   OH2 5762   4.677   3.417   1.793 -0.2198  0.3126  0.3405
 1919TIP3    H1 5763   4.631   3.357   1.852 -0.1507  0.5560  0.6435
 1919TIP3    H2 5764   4.761   3.373   1.776 -0.4012  0.0566  0.1063
 1920TIP3   OH2 5765   4.121   1.886   3.603  0.4379  0.0672 -0.2892
 1920TIP3    H1 5766   4.128   1.965   3.550 -0.0174 -1.5247 -2.9128
 1920TIP3    H2 5767   4.182   1.901   3.675  1.2450  2.3166 -1.3259
 1921TIP3   OH2 5768   5.036   0.556   3.728 -0.4016  0.3494  0.3428
 1921TIP3    H1 5769   4.982   0.622   3.685 -2.6574 -1.9264 -0.6063
 1921TIP3    H2 5770   4.997   0.546   3.815 -1.8439 -1.5211 -0.4538
 1922TIP3   OH2 5771   5.458   1.216   1.842 -0.1153 -0.0711  0.1944
 1922TIP3    H1 5772   5.488   1.167   1.919  1.1252  0.4042  0.0382
 1922TIP3    H2 5773   5.380   1.263   1.873 -0.9475 -1.5857  0.5256
 1923TIP3   OH2 5774   0.507   5.800   4.842  0.2556  0.0209 -0.1089
 1923TIP3    H1 5775   0.440   5.850   4.796 -0.1036 -0.6946 -0.3839
 1923TIP3    H2 5776   0.590   5.841   4.816 -0.0701  1.0171  0.3717
 1924TIP3   OH2 5777   1.894   4.420   0.550 -0.6104 -0.0043  0.2219
 1924TIP3    H1 5778   1.897   4.343   0.493  3.0287 -0.8403  1.2591
 1924TIP3    H2 5779   1.832   4.397   0.619 -0.6260 -1.4345 -0.2308
 1925TIP3   OH2 5780   4.354   1.266   1.754  0.1237  0.5613 -0.5734
 1925TIP3    H1 5781   4.362   1.201   1.684 -0.3868  0.6551 -0.7228
 1925TIP3    H2 5782   4.412   1.338   1.726 -1.3420  1.3408 -1.7638
 1926TIP3   OH2 5783   1.431   0.706   4.674 -0.1410  0.5020 -0.5164
 1926TIP3    H1 5784   1.344   0.667   4.679 -0.6248  1.3946 -1.5056
 1926TIP3    H2 5785   1.488   0.635   4.645 -0.4796 -0.1520  0.3796
 1927TIP3   OH2 5786   3.588   0.409   1.724 -0.1929  0.0940  0.4581
 1927TIP3    H1 5787   3.619   0.500   1.720 -3.0232  1.1820  0.6285
 1927TIP3    H2 5788   3.616   0.378   1.810  0.4922  0.9345  0.5568
 1928TIP3   OH2 5789   1.018   4.716   4.309 -0.0888 -0.1981 -0.1941
 1928TIP3    H1 5790   0.967   4.646   4.349 -0.1483 -0.1606 -0.2051
 1928TIP3    H2 5791   0.957   4.759   4.249  0.3506 -1.0803 -1.3199
 1929TIP3   OH2 5792   3.921   4.280   1.331  0.5232  0.6083 -0.3121
 1929TIP3    H1 5793   3.999   4.233   1.360  0.5580 -0.0396 -1.3505
 1929TIP3    H2 5794   3.931   4.285   1.235 -1.6970 -1.4567 -0.7584
 1930TIP3   OH2 5795   2.408   1.647   4.874 -0.6659  0.3956  0.5221
 1930TIP3    H1 5796   2.361   1.666   4.955  0.5544  1.5750  0.9940
 1930TIP3    H2 5797   2.363   1.699   4.807 -1.4042 -0.2389  0.5122
 1931TIP3   OH2 5798   0.712   0.619   3.351  0.1171  0.0778 -0.3613
 1931TIP3    H1 5799   0.714   0.527   3.324 -0.0124  0.0106 -0.1371
 1931TIP3    H2 5800   0.733   0.618   3.444  0.5292  0.3108 -0.4471
 1932TIP3   OH2 5801   2.612   3.337   1.470  0.5846  0.6284  0.4811
 1932TIP3    H1 5802   2.541   3.386   1.428 -0.2741 -1.6039 -0.8394
 1932TIP3    H2 5803   2.575   3.308   1.554  1.1782  2.3441  1.3781
 1933TIP3   OH2 5804   1.088   2.518   2.361 -0.6793 -0.3586  0.1067
 1933TIP3    H1 5805   1.044   2.591   2.404 -1.2406 -0.3361 -0.4955
 1933TIP3    H2 5806   1.103   2.547   2.272  0.1387 -0.5493  0.1687
 1934TIP3   OH2 5807   3.251   1.722   0.155 -0.0080  0.1210  0.5474
 1934TIP3    H1 5808   3.226   1.638   0.193  1.5001 -0.1528  0.9741
 1934TIP3    H2 5809   3.263   1.704   0.062  0.7007 -0.2309  0.7038
 1935TIP3   OH2 5810   0.954   3.570   3.949 -0.5038 -0.2571 -0.0835
 1935TIP3    H1 5811   0.995   3.655   3.929 -3.1352  0.7630 -1.6695
 1935TIP3    H2 5812   0.914   3.583   4.036  1.4983 -0.9164  0.9976
 1936TIP3   OH2 5813   6.209   1.438   1.812  0.4617 -0.1813 -0.3337
 1936TIP3    H1 5814   6.298   1.412   1.786  0.2575 -0.7934 -0.4465
 1936TIP3    H2 5815   6.202   1.529   1.786  1.6245  0.3638  1.1241
 1937TIP3   OH2 5816   2.349   1.108   0.897  0.1645  0.1499  0.0508
 1937TIP3    H1 5817   2.277   1.139   0.841  0.8540 -0.1162 -1.0194
 1937TIP3    H2 5818   2.341   1.159   0.977 -1.2149  0.1268 -0.0449
 1938TIP3   OH2 5819   0.877   3.700   2.531 -0.0484  0.0391 -0.2351
 1938TIP3    H1 5820   0.814   3.773   2.528  0.4099  0.3981 -2.0788
 1938TIP3    H2 5821   0.961   3.741   2.511  0.4544 -0.7906  0.1438
 1939TIP3   OH2 5822   3.132   1.179   2.049 -0.3715  0.1803  0.0995
 1939TIP3    H1 5823   3.108   1.125   1.973 -0.5143 -0.6425  0.7053
 1939TIP3    H2 5824   3.058   1.238   2.060  0.2672  1.2974 -1.2450
 1940TIP3   OH2 5825   0.743   0.315   3.791 -0.2314  0.4654  0.0187
 1940TIP3    H1 5826   0.831   0.278   3.796 -0.2501  0.3096 -0.6644
 1940TIP3    H2 5827   0.704   0.297   3.876  0.2206  0.0830  0.1465
 1941TIP3   OH2 5828   3.151   3.148   1.506 -0.4666 -0.2363 -0.4267
 1941TIP3    H1 5829   3.150   3.103   1.422  0.9535  0.1464 -0.6614
 1941TIP3    H2 5830   3.188   3.234   1.487  1.2334 -0.6427  0.8117
 1942TIP3   OH2 5831   0.579   1.166   3.859  0.3425 -0.0327  0.0864
 1942TIP3    H1 5832   0.642   1.152   3.930 -0.5456 -1.7605  0.5677
 1942TIP3    H2 5833   0.602   1.100   3.794 -2.3950 -2.4267  1.3192
 1943TIP3   OH2 5834   3.789   3.643   0.298 -0.0004  0.0085 -0.2427
 1943TIP3    H1 5835   3.722   3.699   0.337 -0.8726 -0.5275 -0.9219
 1943TIP3    H2 5836   3.796   3.674   0.207 -0.1323 -0.6455 -0.4824
 1944TIP3   OH2 5837   6.144   4.646   1.317 -0.1368 -0.2560  0.3142
 1944TIP3    H1 5838   6.085   4.609   1.383  0.9695 -1.2930  0.7697
 1944TIP3    H2 5839   6.169   4.570   1.263  0.3392  0.2646 -0.2042
 1945TIP3   OH2 5840   1.803   0.563   5.157  0.0002 -0.1734  0.1028
 1945TIP3    H1 5841   1.804   0.544   5.251  0.2460  0.3694  0.2117
 1945TIP3    H2 5842   1.735   0.630   5.147  0.9072  0.7781  0.1025
 1946TIP3   OH2 5843   2.073   1.763   2.010 -0.3714 -0.1044  0.3521
 1946TIP3    H1 5844   2.090   1.761   1.916  1.3681 -0.1526  0.6317
 1946TIP3    H2 5845   2.076   1.670   2.036  1.4345  0.0342  0.7812
 1947TIP3   OH2 5846   2.563   2.041   3.402  0.3889  0.8049  0.3636
 1947TIP3    H1 5847   2.486   2.056   3.347  0.9266  1.1236 -0.3063
 1947TIP3    H2 5848   2.542   2.084   3.485 -0.9845 -0.8030  0.9144
 1948TIP3   OH2 5849   4.939   2.361   2.220 -0.6537 -0.1907 -0.1700
 1948TIP3    H1 5850   5.009   2.420   2.248 -1.9456  0.8950  0.8856
 1948TIP3    H2 5851   4.971   2.274   2.245  0.6750  0.1846 -0.4743
 1949TIP3   OH2 5852   2.018   0.972   5.082 -0.6995  0.3171 -0.4988
 1949TIP3    H1 5853   1.981   0.967   4.994 -0.7551  2.4342 -0.6485
 1949TIP3    H2 5854   2.046   1.063   5.091  3.3847 -0.7866  0.0522
 1950TIP3   OH2 5855   5.273   3.224   1.467  0.1496  0.1799  0.4738
 1950TIP3    H1 5856   5.217   3.185   1.400  0.6374  1.1059 -0.4999
 1950TIP3    H2 5857   5.255   3.172   1.546 -2.3958  0.6999  0.3364
 1951TIP3   OH2 5858   1.439   2.679   1.302 -0.1705  0.9190 -0.1850
 1951TIP3    H1 5859   1.499   2.626   1.250 -1.2517  0.0748 -0.5932
 1951TIP3    H2 5860   1.368   2.703   1.242  0.0053  2.3727  0.1414
 1952TIP3   OH2 5861   2.140   4.520   2.165  0.3792 -0.6175  0.1594
 1952TIP3    H1 5862   2.211   4.494   2.223  0.8770 -1.1818 -0.6759
 1952TIP3    H2 5863   2.183   4.558   2.088 -0.2473 -0.2365 -0.0182
 1953TIP3   OH2 5864   4.113   3.264   3.262  0.1650 -0.1050  0.3734
 1953TIP3    H1 5865   4.205   3.291   3.268 -0.2499  1.1419  2.5363
 1953TIP3    H2 5866   4.067   3.342   3.230 -0.1803 -0.6725 -0.5482
 1954TIP3   OH2 5867   5.943   5.857   4.919  0.4634 -0.1420 -0.1562
 1954TIP3    H1 5868   5.931   5.764   4.901  2.7097 -0.2576 -1.4277
 1954TIP3    H2 5869   5.990   5.860   5.003  1.1180 -0.2194 -0.5119
 1955TIP3   OH2 5870   1.902   1.426   3.049 -0.2281 -0.2746 -0.2092
 1955TIP3    H1 5871   1.941   1.356   2.996 -1.5179 -2.7311  1.8615
 1955TIP3    H2 5872   1.811   1.431   3.020 -0.3333  0.0329  0.1699
 1956TIP3   OH2 5873   2.414   0.004   4.402  0.4993  0.0026  0.6928
 1956TIP3    H1 5874   2.352  -0.060   4.436  1.6704 -1.7516 -0.3477
 1956TIP3    H2 5875   2.368   0.088   4.409 -1.6439 -1.1165  0.7667
 1957TIP3   OH2 5876   5.273   0.820   2.441  0.4580  0.3296  0.5597
 1957TIP3    H1 5877   5.361   0.811   2.404  0.6726  0.9353  0.9073
 1957TIP3    H2 5878   5.247   0.730   2.462  0.2698 -0.0577 -1.1673
 1958TIP3   OH2 5879   2.282   0.701   1.638  0.0627 -0.8417  0.1167
 1958TIP3    H1 5880   2.316   0.789   1.619 -0.4069 -0.4753  0.9215
 1958TIP3    H2 5881   2.269   0.662   1.551  2.5229 -1.0260 -0.2364
 1959TIP3   OH2 5882   1.060   5.607   0.999 -0.0006  0.2354  0.0059
 1959TIP3    H1 5883   1.059   5.694   0.958  0.1931  2.8152  4.6912
 1959TIP3    H2 5884   1.040   5.547   0.928  1.4481  3.8859 -3.9444
 1960TIP3   OH2 5885   1.845   1.503   3.332  0.0403  0.0397  0.3573
 1960TIP3    H1 5886   1.872   1.442   3.263  2.1122  0.0768  1.0851
 1960TIP3    H2 5887   1.890   1.585   3.311  0.1737  0.2458  1.3952
 1961TIP3   OH2 5888   2.240   3.451   2.197  0.0700 -0.8212  0.0302
 1961TIP3    H1 5889   2.298   3.494   2.134  0.5588 -0.2470  0.8531
 1961TIP3    H2 5890   2.192   3.523   2.238 -0.9121 -1.2600 -0.3135
 1962TIP3   OH2 5891   5.493   2.480   1.293  0.0786  0.3120  0.3716
 1962TIP3    H1 5892   5.417   2.499   1.237 -0.0821 -0.2226  0.3978
 1962TIP3    H2 5893   5.562   2.537   1.260 -0.5701  1.4197  0.8855
 1963TIP3   OH2 5894   5.179   5.081   3.454 -0.3165  0.2049 -0.4248
 1963TIP3    H1 5895   5.235   5.018   3.500 -0.8819 -1.2069 -1.6162
 1963TIP3    H2 5896   5.106   5.096   3.514  0.8846  1.4548  0.8016
 1964TIP3   OH2 5897   4.453   4.775   2.914  0.2954  0.5230  0.5447
 1964TIP3    H1 5898   4.377   4.804   2.965  1.9234  1.6561  2.4607
 1964TIP3    H2 5899   4.421   4.700   2.864 -1.7812  0.2440  2.1585
 1965TIP3   OH2 5900   6.280   1.240   3.565  0.0909 -0.4914  0.0678
 1965TIP3    H1 5901   6.246   1.173   3.506 -0.5624 -1.4805  1.5243
 1965TIP3    H2 5902   6.357   1.274   3.520 -0.0779 -1.5903 -1.1063
 1966TIP3   OH2 5903   3.052   5.690   3.140 -0.5165  0.0613  0.5523
 1966TIP3    H1 5904   2.986   5.758   3.126 -0.3357  0.2797  0.7512
 1966TIP3    H2 5905   3.090   5.675   3.053 -0.7716 -0.0072  0.4524
 1967TIP3   OH2 5906   5.900   4.520   1.090  0.1309  0.6078  0.2081
 1967TIP3    H1 5907   5.826   4.550   1.037  0.5427 -0.3446 -0.9399
 1967TIP3    H2 5908   5.859   4.480   1.167 -0.5946 -0.4425 -0.6951
 1968TIP3   OH2 5909   2.344   3.843   0.330  0.3768 -0.0827 -0.0410
 1968TIP3    H1 5910   2.398   3.774   0.370 -0.8174 -1.0728 -0.0953
 1968TIP3    H2 5911   2.273   3.857   0.393  0.5330  1.0258 -0.0921
 1969TIP3   OH2 5912   2.091   0.088   1.496 -0.0363 -0.1862  0.2078
 1969TIP3    H1 5913   2.047   0.173   1.487 -1.2705 -0.8259  0.0558
 1969TIP3    H2 5914   2.116   0.084   1.589  2.1761  1.3272 -0.2275
 1970TIP3   OH2 5915   4.824   3.278   0.597  0.3116  0.4295 -0.2859
 1970TIP3    H1 5916   4.749   3.233   0.558  0.0034  0.7251 -0.0504
 1970TIP3    H2 5917   4.805   3.371   0.584  1.7790  0.5002 -2.3243
 1971TIP3   OH2 5918   3.409   1.790   2.742  0.3975  0.2145  0.1047
 1971TIP3    H1 5919   3.495   1.750   2.745 -0.4612 -1.7260  0.0336
 1971TIP3    H2 5920   3.402   1.840   2.823  1.8512  1.0236 -0.2419
 1972TIP3   OH2 5921   3.783   0.625   1.707 -1.1480 -0.0836 -0.2543
 1972TIP3    H1 5922   3.869   0.614   1.749 -1.4269  0.8699  0.6070
 1972TIP3    H2 5923   3.762   0.718   1.720 -2.7867 -0.5214  0.4938
 1973TIP3   OH2 5924   3.524   3.581   2.890 -0.0332  0.0690  0.3033
 1973TIP3    H1 5925   3.560   3.669   2.883 -0.4999  0.2984  0.7253
 1973TIP3    H2 5926   3.593   3.524   2.855 -0.2058  0.6881 -1.1113
 1974TIP3   OH2 5927   4.721   0.374   4.747 -0.3622  0.2713 -0.0333
 1974TIP3    H1 5928   4.664   0.442   4.781  0.8177  1.0514  0.4407
 1974TIP3    H2 5929   4.667   0.325   4.685 -2.2237 -0.4205  2.0050
 1975TIP3   OH2 5930   0.872   0.832   1.988 -0.2354  0.5678 -0.2239
 1975TIP3    H1 5931   0.844   0.740   1.987  0.6190  0.2904 -1.6732
 1975TIP3    H2 5932   0.799   0.879   2.029 -0.5708 -0.7815  0.7904
 1976TIP3   OH2 5933   1.047   5.134   0.341 -0.4452 -0.5925  0.6001
 1976TIP3    H1 5934   1.137   5.112   0.316 -0.0720  0.5439  0.8700
 1976TIP3    H2 5935   1.003   5.050   0.350  0.6154 -1.1676  0.5357
 1977TIP3   OH2 5936   6.206   4.127   3.424 -0.4921 -0.0700 -0.2446
 1977TIP3    H1 5937   6.286   4.111   3.475 -0.6729 -0.0678  0.0422
 1977TIP3    H2 5938   6.137   4.132   3.490 -1.2355 -3.0568 -0.6280
 1978TIP3   OH2 5939   0.610   4.700   2.219  0.1730 -0.1343  0.2052
 1978TIP3    H1 5940   0.523   4.688   2.258  0.4051  0.3290  0.8907
 1978TIP3    H2 5941   0.617   4.631   2.154 -1.4338  0.9128 -1.1604
 1979TIP3   OH2 5942   3.943   5.265   1.764 -0.1653 -0.1676  0.1493
 1979TIP3    H1 5943   3.863   5.244   1.716 -1.1488 -0.4929  1.8680
 1979TIP3    H2 5944   3.989   5.182   1.773 -1.0238 -0.5120  1.5737
 1980TIP3   OH2 5945   0.924   2.032   2.657 -0.0511 -0.1084  0.3977
 1980TIP3    H1 5946   0.914   2.105   2.719  0.0738  1.9139 -1.8167
 1980TIP3    H2 5947   0.860   1.967   2.687 -1.9760  1.9503  1.0572
 1981TIP3   OH2 5948   2.786   3.628   1.034  0.1546  0.2804 -0.3033
 1981TIP3    H1 5949   2.770   3.662   0.946  0.2190  0.9098 -0.0787
 1981TIP3    H2 5950   2.871   3.664   1.058  0.2787 -0.1458 -0.1027
 1982TIP3   OH2 5951   1.455   4.036   3.924 -0.0303 -0.0464 -0.1718
 1982TIP3    H1 5952   1.406   4.063   4.002  1.0216  1.1370  0.1104
 1982TIP3    H2 5953   1.499   3.956   3.951  0.4941  0.4684  0.5414
 1983TIP3   OH2 5954   0.046   1.647   2.175  0.2176  0.7726  0.1529
 1983TIP3    H1 5955   0.008   1.575   2.226  1.0659  0.5124  0.4394
 1983TIP3    H2 5956  -0.025   1.711   2.166  0.2300  1.1699  2.3267
 1984TIP3   OH2 5957   4.017   2.466   0.112  0.2656  0.5448  0.1490
 1984TIP3    H1 5958   4.072   2.480   0.035  2.4036 -0.4770  1.3813
 1984TIP3    H2 5959   3.990   2.553   0.139  1.2115  1.0794 -0.5690
 1985TIP3   OH2 5960   2.410   2.899   2.178 -0.6802  0.0731 -0.7006
 1985TIP3    H1 5961   2.332   2.949   2.201 -1.2999 -0.5257 -1.4188
 1985TIP3    H2 5962   2.407   2.893   2.082 -0.1245 -0.5371 -0.6887
 1986TIP3   OH2 5963   1.247   2.338   4.672 -0.4263 -0.0515 -0.0547
 1986TIP3    H1 5964   1.327   2.339   4.723 -1.3023  1.4056  1.3748
 1986TIP3    H2 5965   1.185   2.392   4.721 -2.5273 -1.6526 -0.7570
 1987TIP3   OH2 5966   4.119   1.636   0.285  0.8155  0.3375  0.7487
 1987TIP3    H1 5967   4.176   1.574   0.238  1.0466 -1.5601  3.3200
 1987TIP3    H2 5968   4.047   1.652   0.225  1.2250 -1.7224 -0.4025
 1988TIP3   OH2 5969   1.806   0.618   2.278  0.6799 -0.1972 -0.3372
 1988TIP3    H1 5970   1.806   0.697   2.223  0.1451  0.2925  0.3423
 1988TIP3    H2 5971   1.748   0.557   2.232 -0.3551  0.4749  0.0292
 1989TIP3   OH2 5972   5.044   5.940   3.630 -0.2305  0.1346  0.1850
 1989TIP3    H1 5973   5.042   5.982   3.544 -0.5890  1.3293  0.7473
 1989TIP3    H2 5974   5.081   6.007   3.688  0.6790 -0.8951  0.8444
 1990TIP3   OH2 5975   1.150   5.457   1.527 -0.0780  0.8341  0.5470
 1990TIP3    H1 5976   1.086   5.515   1.486 -0.3177  0.3099  0.1538
 1990TIP3    H2 5977   1.097   5.387   1.565  0.2523  0.4464  0.3047
 1991TIP3   OH2 5978   0.535   4.414   0.372  0.2627  0.0246 -0.1466
 1991TIP3    H1 5979   0.471   4.397   0.441  0.2789 -0.0684 -0.1541
 1991TIP3    H2 5980   0.615   4.371   0.402  0.1595 -0.3531 -0.4062
 1992TIP3   OH2 5981   3.699   3.842   2.925  0.5523 -0.4680 -0.0890
 1992TIP3    H1 5982   3.720   3.924   2.881 -1.7765 -0.8717 -2.1608
 1992TIP3    H2 5983   3.617   3.859   2.971  0.5835 -1.3393  0.3023
 1993TIP3   OH2 5984   2.701   2.663   3.648  0.9815  0.0195  0.0975
 1993TIP3    H1 5985   2.691   2.733   3.584 -1.3540 -1.9404 -1.8824
 1993TIP3    H2 5986   2.775   2.611   3.615  2.6523  1.3839  1.5144
 1994TIP3   OH2 5987   3.397   4.114   4.170 -0.9117  0.4670  0.1149
 1994TIP3    H1 5988   3.354   4.184   4.121  1.9007  2.7243  0.5955
 1994TIP3    H2 5989   3.421   4.049   4.104  1.1767  2.5841 -1.3416
 1995TIP3   OH2 5990   1.966   3.928   4.509  0.4508  0.0610 -0.0150
 1995TIP3    H1 5991   2.012   3.871   4.447  0.4790  0.2570 -0.1768
 1995TIP3    H2 5992   2.020   4.007   4.513 -0.3057  0.6391 -0.8512
 1996TIP3   OH2 5993   0.857   5.613   4.017 -0.4394  0.3490  0.4514
 1996TIP3    H1 5994   0.899   5.646   3.937 -0.1346 -0.5243  0.2349
 1996TIP3    H2 5995   0.857   5.687   4.077  2.7847  0.0337  1.0072
 1997TIP3   OH2 5996   0.377   1.844   3.875  0.0444  0.3610  0.2208
 1997TIP3    H1 5997   0.428   1.827   3.796  1.6000  0.8443  1.0791
 1997TIP3    H2 5998   0.420   1.792   3.943 -0.5120  0.9170  1.0182
 1998TIP3   OH2 5999   5.909   0.948   1.785 -0.2097 -0.2695 -0.7123
 1998TIP3    H1 6000   5.993   0.960   1.740  0.8195  1.0428  1.4052
 1998TIP3    H2 6001   5.933   0.918   1.873 -1.9999 -0.4599 -0.2628
 1999TIP3   OH2 6002   2.424   3.945   2.188  0.4507  0.0991  0.5191
 1999TIP3    H1 6003   2.361   3.947   2.116 -0.0307  2.4354  0.9312
 1999TIP3    H2 6004   2.480   3.870   2.169 -0.1838  0.1498 -1.8011
 2000TIP3   OH2 6005   4.369   4.505   3.782  0.2743  0.6375 -0.0055
 2000TIP3    H1 6006   4.441   4.483   3.840 -0.0856 -0.6961 -0.0457
 2000TIP3    H2 6007   4.352   4.426   3.731  0.7529  1.8168 -2.1611
 2001TIP3   OH2 6008   0.222   4.993   2.716 -0.7450  0.5361 -0.2002
 2001TIP3    H1 6009   0.143   5.047   2.715  0.3015  2.1856 -2.2664
 2001TIP3    H2 6010   0.285   5.044   2.768 -0.3529  0.3429 -0.4777
 2002TIP3   OH2 6011   4.641   0.035   2.925  0.5134  0.8128  0.0700
 2002TIP3    H1 6012   4.626  -0.051   2.963  2.0723  0.0949 -0.8587
 2002TIP3    H2 6013   4.589   0.036   2.845  0.0223  0.9762  0.3872
 2003TIP3   OH2 6014   2.791   0.928   2.959  0.3177  0.0365  0.0542
 2003TIP3    H1 6015   2.759   1.016   2.937  0.7506  0.2002  0.0520
 2003TIP3    H2 6016   2.805   0.931   3.053 -0.9542 -0.4694  0.2766
 2004TIP3   OH2 6017   4.659   1.158   0.492  0.0163  0.5652  0.1477
 2004TIP3    H1 6018   4.564   1.154   0.503 -0.1208 -1.6975 -1.2345
 2004TIP3    H2 6019   4.694   1.110   0.567 -0.1269 -0.8299 -0.6251
 2005TIP3   OH2 6020   4.958   0.281   2.153  0.2746  0.3128  0.3526
 2005TIP3    H1 6021   5.011   0.271   2.232  0.0067 -1.0237  0.3784
 2005TIP3    H2 6022   4.968   0.373   2.129  2.1422  0.2253  0.6707
 2006TIP3   OH2 6023   5.026   0.142   2.944  0.4103  0.8239  0.4799
 2006TIP3    H1 6024   5.034   0.116   3.036  1.2001  0.2054  0.2469
 2006TIP3    H2 6025   4.992   0.231   2.947 -2.5579 -0.2402  1.2982
 2007TIP3   OH2 6026   4.791   0.136   1.542 -0.2769 -0.3197  0.6734
 2007TIP3    H1 6027   4.736   0.094   1.608 -0.7014  1.3649  1.4682
 2007TIP3    H2 6028   4.858   0.181   1.593 -0.8526  1.3559  0.0416
 2008TIP3   OH2 6029   0.519   1.683   0.011  0.3043 -0.2367 -0.2545
 2008TIP3    H1 6030   0.584   1.692   0.080 -1.1895 -0.3854  1.2228
 2008TIP3    H2 6031   0.531   1.593  -0.022  0.4682 -0.4588  0.4011
 2009TIP3   OH2 6032   3.364   1.235   4.116 -0.0678 -0.1021  0.2750
 2009TIP3    H1 6033   3.268   1.240   4.112 -0.1308  1.5061  2.0243
 2009TIP3    H2 6034   3.393   1.311   4.065  0.3118 -0.8456 -0.6321
 2010TIP3   OH2 6035   3.977   0.455   3.679 -0.2420  0.4522 -0.1409
 2010TIP3    H1 6036   4.053   0.508   3.705 -0.5107  0.6380  0.2543
 2010TIP3    H2 6037   3.947   0.496   3.597 -0.7203  1.1886  0.3935
 2011TIP3   OH2 6038   0.269   2.482   4.555  0.0824  0.6840  0.6725
 2011TIP3    H1 6039   0.279   2.561   4.502  1.1892 -0.1281 -0.3966
 2011TIP3    H2 6040   0.352   2.434   4.543 -0.1827 -0.1861  2.0542
 2012TIP3   OH2 6041   1.412   1.928   1.433  0.0024  0.1855  0.8150
 2012TIP3    H1 6042   1.326   1.898   1.403  0.2502 -0.3668  0.6607
 2012TIP3    H2 6043   1.470   1.914   1.358  0.4129 -0.2634  1.2168
 2013TIP3   OH2 6044   6.035   0.482   1.013 -0.1279  0.4248  0.1800
 2013TIP3    H1 6045   6.043   0.397   0.970  0.2754 -0.3763  1.7464
 2013TIP3    H2 6046   5.946   0.482   1.048 -0.3861  0.9836 -0.4533
 2014TIP3   OH2 6047   4.661   0.021   1.827  0.1390 -0.1768 -0.1560
 2014TIP3    H1 6048   4.668   0.116   1.840  0.9938 -0.0892 -1.1073
 2014TIP3    H2 6049   4.721  -0.017   1.891  0.3377 -0.0420 -0.2640
 2015TIP3   OH2 6050  -0.024   3.231   1.560 -0.1907 -0.3235  0.8895
 2015TIP3    H1 6051   0.003   3.140   1.548  0.2980 -0.1157  0.3589
 2015TIP3    H2 6052   0.040   3.267   1.621  0.8078  0.1923 -0.4321
 2016TIP3   OH2 6053   1.879   4.052   0.059  0.1864 -0.4427  0.0937
 2016TIP3    H1 6054   1.889   4.071  -0.034 -0.9740 -0.5667 -0.0628
 2016TIP3    H2 6055   1.794   4.009   0.067 -0.5245  1.0591  1.4186
 2017TIP3   OH2 6056   0.711   4.243   3.497  0.3302  0.6468 -0.0789
 2017TIP3    H1 6057   0.663   4.215   3.574  0.6583 -1.0155 -0.4159
 2017TIP3    H2 6058   0.738   4.333   3.515 -1.2507  0.9578  0.8955
 2018TIP3   OH2 6059   5.430   5.574   0.384  0.4919 -0.6933 -0.1778
 2018TIP3    H1 6060   5.363   5.609   0.442  2.1547  2.0365  0.2861
 2018TIP3    H2 6061   5.382   5.531   0.313 -1.6437 -0.5579  1.1239
 2019TIP3   OH2 6062   1.919   1.566   3.870 -0.3383 -0.2394  0.1423
 2019TIP3    H1 6063   2.006   1.533   3.896  0.3331  1.4011  0.0573
 2019TIP3    H2 6064   1.912   1.544   3.777  0.6439  0.9348 -0.2342
 2020TIP3   OH2 6065   1.866   1.155   1.833  0.4878  0.7271  0.3219
 2020TIP3    H1 6066   1.826   1.110   1.907  1.1768 -1.4890 -0.5558
 2020TIP3    H2 6067   1.955   1.120   1.829 -0.3344 -1.4574 -3.1318
 2021TIP3   OH2 6068   3.526   0.370   3.760 -0.6725 -0.4523 -0.9615
 2021TIP3    H1 6069   3.466   0.309   3.716 -0.3762  0.2253 -2.3687
 2021TIP3    H2 6070   3.552   0.324   3.840 -2.1391 -1.2551 -0.8991
 2022TIP3   OH2 6071   1.530   1.760   5.038 -0.6997  0.0600 -0.0660
 2022TIP3    H1 6072   1.596   1.824   5.011  0.8694 -0.5416  2.0790
 2022TIP3    H2 6073   1.467   1.810   5.090  0.1092  0.0416  0.9646
 2023TIP3   OH2 6074   5.020   0.555   2.480 -0.2748 -0.2247 -0.1768
 2023TIP3    H1 6075   4.956   0.589   2.418 -1.8183 -1.0242  0.9156
 2023TIP3    H2 6076   5.021   0.461   2.465 -2.3218 -0.7703  2.3572
 2024TIP3   OH2 6077   4.543   3.592   4.003  0.4335 -0.2097  0.1096
 2024TIP3    H1 6078   4.603   3.652   4.047  2.0355 -1.2485 -0.5559
 2024TIP3    H2 6079   4.456   3.620   4.030  1.2777 -0.4079  3.4680
 2025TIP3   OH2 6080   2.675   0.591   2.218  0.3434  0.9224 -0.2026
 2025TIP3    H1 6081   2.691   0.553   2.132 -0.9802  0.0297 -0.0776
 2025TIP3    H2 6082   2.754   0.572   2.268  0.2329 -0.5378 -0.5507
 2026TIP3   OH2 6083   3.301   4.598   4.087 -0.6946 -0.0240 -0.3199
 2026TIP3    H1 6084   3.380   4.653   4.083 -1.3753  0.9713 -0.2867
 2026TIP3    H2 6085   3.232   4.656   4.118 -1.5844 -0.7320 -0.9098
 2027TIP3   OH2 6086   0.699   0.868   1.237 -0.4890 -0.3360  0.2831
 2027TIP3    H1 6087   0.767   0.837   1.177  1.0071  0.5137  1.4459
 2027TIP3    H2 6088   0.679   0.792   1.291  1.0113 -0.1290  1.2023
 2028TIP3   OH2 6089   2.908   3.942   2.910 -0.0143 -0.2075 -0.2271
 2028TIP3    H1 6090   2.907   4.022   2.857 -2.9235  1.3992  1.9926
 2028TIP3    H2 6091   2.868   3.876   2.854 -0.7553  0.7962 -0.9137
 2029TIP3   OH2 6092   2.572   5.123   0.037  0.3287  0.2245 -0.5097
 2029TIP3    H1 6093   2.601   5.208   0.003 -0.7800  0.4951 -0.8184
 2029TIP3    H2 6094   2.515   5.145   0.111  2.0019 -0.3385  0.9989
 2030TIP3   OH2 6095   3.081   0.449   4.968 -0.4517  0.0973  0.1362
 2030TIP3    H1 6096   3.056   0.418   4.881  1.6474 -0.3999 -0.3388
 2030TIP3    H2 6097   3.101   0.369   5.017  1.0455  0.4735  0.1826
 2031TIP3   OH2 6098   2.774   5.257   1.924  0.0496 -0.4026  0.1237
 2031TIP3    H1 6099   2.760   5.182   1.866  1.7804  0.1035 -1.0102
 2031TIP3    H2 6100   2.816   5.322   1.869  2.9075 -0.3152  2.2095
 2032TIP3   OH2 6101   3.744   1.132   4.926  0.1926 -0.4382 -0.3324
 2032TIP3    H1 6102   3.741   1.228   4.928  3.1112 -0.2517 -0.7452
 2032TIP3    H2 6103   3.670   1.107   4.870 -1.3510  1.4560  0.7232
 2033TIP3   OH2 6104   1.758   5.879   0.411 -0.5752 -0.2566 -0.4581
 2033TIP3    H1 6105   1.752   5.812   0.480 -2.3722 -0.5063 -0.8018
 2033TIP3    H2 6106   1.703   5.950   0.443  1.1560  1.0393 -0.1933
 2034TIP3   OH2 6107   0.522   4.856   4.248 -0.2437 -0.0400  0.4750
 2034TIP3    H1 6108   0.507   4.879   4.156  1.7141  1.3489  0.4196
 2034TIP3    H2 6109   0.481   4.927   4.298  0.9643  0.6617  0.5240
 2035TIP3   OH2 6110   4.572   0.847   0.211 -0.2986 -0.1951  0.4488
 2035TIP3    H1 6111   4.641   0.908   0.237  0.9522 -1.9200  1.3674
 2035TIP3    H2 6112   4.615   0.762   0.209 -2.4488 -1.3710  1.2032
 2036TIP3   OH2 6113   3.208   3.293   1.090  0.5758 -0.0661 -0.2293
 2036TIP3    H1 6114   3.248   3.338   1.016  0.7918  1.3874  0.7324
 2036TIP3    H2 6115   3.131   3.250   1.052  0.9959  0.1598 -1.3929
 2037TIP3   OH2 6116   0.593   2.633   2.184  0.4459  0.1735  0.7932
 2037TIP3    H1 6117   0.655   2.663   2.117 -0.3694  1.7801  0.7227
 2037TIP3    H2 6118   0.635   2.655   2.267  1.0614 -1.0152  0.8137
 2038TIP3   OH2 6119   1.397   1.032   2.710  0.5391 -0.3394 -0.6834
 2038TIP3    H1 6120   1.443   0.955   2.743  0.9464 -0.2783 -1.0987
 2038TIP3    H2 6121   1.304   1.011   2.721  0.5673  0.8107  3.1789
 2039TIP3   OH2 6122   4.859   4.907   1.303 -0.7306 -0.2156  0.5890
 2039TIP3    H1 6123   4.908   4.857   1.237 -0.1717 -2.0126  2.2545
 2039TIP3    H2 6124   4.802   4.841   1.345 -0.2318  0.5966  2.6507
 2040TIP3   OH2 6125   1.884   1.757  -0.016 -0.0805 -0.3365 -0.4425
 2040TIP3    H1 6126   1.928   1.674   0.006 -0.9359 -0.3627  1.3274
 2040TIP3    H2 6127   1.905   1.815   0.057 -1.7691  0.1152 -0.2885
 2041TIP3   OH2 6128   4.259   5.059   2.245  0.3265  0.3157 -0.0875
 2041TIP3    H1 6129   4.236   5.151   2.240  2.8316  1.0234  0.0429
 2041TIP3    H2 6130   4.214   5.019   2.171 -1.2223  1.5092  0.1592
 2042TIP3   OH2 6131   3.504   2.885   4.064  0.1766 -0.2698  0.0016
 2042TIP3    H1 6132   3.497   2.814   4.128 -1.1310  0.0887  0.2803
 2042TIP3    H2 6133   3.433   2.945   4.087  1.6710  1.5154  0.2339
 2043TIP3   OH2 6134   3.817   1.784   4.578  0.6100  0.0006 -0.4221
 2043TIP3    H1 6135   3.854   1.785   4.666  2.4274 -0.1052 -1.1469
 2043TIP3    H2 6136   3.816   1.876   4.551  0.1940  0.0171 -0.3640
 2044TIP3   OH2 6137   1.637   5.492   4.706 -0.1193  0.4582  0.2286
 2044TIP3    H1 6138   1.608   5.401   4.713 -0.1439  0.4825  0.4611
 2044TIP3    H2 6139   1.659   5.517   4.796  1.2503  0.2412 -0.0339
 2045TIP3   OH2 6140   0.674   1.537   1.956  0.5170  0.0785  0.3911
 2045TIP3    H1 6141   0.645   1.555   1.866  1.7234 -0.3416 -0.1172
 2045TIP3    H2 6142   0.750   1.594   1.967 -0.5965  1.3636  1.7669
 2046TIP3   OH2 6143   1.531   1.078   4.901  0.4536  0.2995  0.0651
 2046TIP3    H1 6144   1.457   1.139   4.904 -0.9171 -1.3123  0.9107
 2046TIP3    H2 6145   1.542   1.057   4.808 -0.5547  0.0931 -0.0133
 2047TIP3   OH2 6146   1.684   3.453   0.336 -0.3043  0.1543  0.2166
 2047TIP3    H1 6147   1.676   3.504   0.255 -0.5277 -0.6159 -0.2555
 2047TIP3    H2 6148   1.745   3.382   0.314 -1.1044 -0.6155  0.4347
 2048TIP3   OH2 6149   0.348   3.949   4.848  0.3968  0.8703  0.2820
 2048TIP3    H1 6150   0.438   3.983   4.851  0.2782  1.5096 -1.8317
 2048TIP3    H2 6151   0.295   4.024   4.820 -0.7100  0.3204  0.8351
 2049TIP3   OH2 6152   1.672   2.460   4.670 -0.0397  0.4099 -0.0070
 2049TIP3    H1 6153   1.671   2.514   4.591  0.5220  0.5413  0.0760
 2049TIP3    H2 6154   1.738   2.393   4.652  0.7770  1.0054  0.7243
 2050TIP3   OH2 6155   4.183   3.247   4.541  0.1182 -0.1619 -0.7099
 2050TIP3    H1 6156   4.193   3.311   4.470 -0.4092  0.2214 -0.4439
 2050TIP3    H2 6157   4.098   3.267   4.579  0.4578 -0.2666  0.1236
 2051TIP3   OH2 6158   6.049   0.608   1.937  0.0158  0.5109  0.1915
 2051TIP3    H1 6159   5.998   0.681   1.973  0.1153  0.3143  0.7460
 2051TIP3    H2 6160   6.072   0.556   2.014 -1.1529 -0.8134 -0.3230
 2052TIP3   OH2 6161   0.037   2.430   4.706 -0.0984 -0.1572 -0.3920
 2052TIP3    H1 6162   0.025   2.335   4.705 -0.4088 -0.1758  1.5877
 2052TIP3    H2 6163   0.120   2.444   4.660 -0.1418 -1.3457 -0.8858
 2053TIP3   OH2 6164   4.428   0.822   5.006 -0.2351  0.1549  0.8144
 2053TIP3    H1 6165   4.380   0.815   5.089  0.4804 -0.8804  1.1605
 2053TIP3    H2 6166   4.520   0.807   5.030 -0.0295 -0.2233 -0.1687
 2054TIP3   OH2 6167   4.347   5.855   1.529  0.3849  0.1413  0.0999
 2054TIP3    H1 6168   4.331   5.876   1.436  0.2508  0.4293  0.1849
 2054TIP3    H2 6169   4.389   5.769   1.527 -2.1651 -1.1978 -0.0986
 2055TIP3   OH2 6170   3.697   2.497   4.412  0.0604  0.1677 -0.0121
 2055TIP3    H1 6171   3.649   2.473   4.332  1.3745 -0.1993 -0.7334
 2055TIP3    H2 6172   3.629   2.513   4.477 -1.0326 -0.2996 -0.9911
 2056TIP3   OH2 6173   6.156   4.143   2.248 -0.5914  0.3588  0.2930
 2056TIP3    H1 6174   6.084   4.091   2.284 -0.7159 -0.0588 -0.5469
 2056TIP3    H2 6175   6.144   4.230   2.286 -0.6599 -0.0913  1.3382
 2057TIP3   OH2 6176   4.495   1.315   0.247 -0.3110 -0.1975  0.1516
 2057TIP3    H1 6177   4.589   1.304   0.260 -0.5365 -0.6078  1.5696
 2057TIP3    H2 6178   4.455   1.247   0.301 -1.4286 -0.0433 -0.4514
 2058TIP3   OH2 6179   4.411   2.135   2.649 -0.7205  1.0127  0.4218
 2058TIP3    H1 6180   4.423   2.212   2.704  1.5315 -0.4001  2.0638
 2058TIP3    H2 6181   4.350   2.079   2.698 -0.2803  0.6129  0.5202
 2059TIP3   OH2 6182   3.601   2.647   3.455  0.4240 -0.1828 -0.2086
 2059TIP3    H1 6183   3.637   2.592   3.525  1.9518 -0.2047 -0.9615
 2059TIP3    H2 6184   3.656   2.725   3.455 -1.6088  1.3430  0.7303
 2060TIP3   OH2 6185   1.130   5.235   4.120  0.3424 -0.3036 -0.1046
 2060TIP3    H1 6186   1.174   5.196   4.196  1.5611 -1.0790 -1.1804
 2060TIP3    H2 6187   1.165   5.188   4.045 -1.1319  0.1953 -1.1426
 2061TIP3   OH2 6188   0.375   1.607   3.409 -0.1973  0.4461 -0.1279
 2061TIP3    H1 6189   0.470   1.614   3.398 -0.0821 -1.3111 -0.5987
 2061TIP3    H2 6190   0.348   1.541   3.345 -1.5063 -0.2288  1.0606
 2062TIP3   OH2 6191   3.464   0.502   5.123  0.1347  0.4936  0.1514
 2062TIP3    H1 6192   3.426   0.452   5.194 -0.0197  0.3195 -0.0545
 2062TIP3    H2 6193   3.470   0.441   5.050  1.6007  0.2736  0.4331
 2063TIP3   OH2 6194  -0.007   5.399   5.074 -0.1712 -0.4747  0.5463
 2063TIP3    H1 6195  -0.028   5.442   4.991 -2.0817  0.4113  1.4167
 2063TIP3    H2 6196   0.036   5.318   5.049  0.1868  0.2295 -1.2774
 2064TIP3   OH2 6197   3.628   3.139   2.355 -0.1452 -0.0395  0.4218
 2064TIP3    H1 6198   3.566   3.104   2.291  0.7267  0.3793 -0.6733
 2064TIP3    H2 6199   3.595   3.226   2.376  1.0053  0.9380 -1.5512
 2065TIP3   OH2 6200   6.088   5.588   2.759 -0.3072 -0.2870 -0.1557
 2065TIP3    H1 6201   6.123   5.556   2.676 -1.6420  0.2103 -0.9527
 2065TIP3    H2 6202   6.080   5.683   2.747  1.6281  0.1276  1.4001
 2066TIP3   OH2 6203   1.205   5.497   2.538  0.5384  0.4486 -0.4368
 2066TIP3    H1 6204   1.199   5.440   2.462  2.2470 -0.3373 -0.0528
 2066TIP3    H2 6205   1.194   5.586   2.504 -0.2748  0.0153 -1.3368
 2067TIP3   OH2 6206   5.975   5.075   1.171  0.1169 -0.0358  0.0299
 2067TIP3    H1 6207   6.069   5.057   1.180  0.4513  1.4829 -0.1160
 2067TIP3    H2 6208   5.968   5.123   1.088 -0.5540  1.2314  0.7942
 2068TIP3   OH2 6209   4.071   5.473   3.308  0.1562 -0.7769 -0.3748
 2068TIP3    H1 6210   3.985   5.432   3.295  0.9166 -2.2951 -0.8494
 2068TIP3    H2 6211   4.130   5.424   3.251  1.7475 -1.2323  1.5604
 2069TIP3   OH2 6212   4.339   3.422   5.005 -0.0986  0.4377  0.1960
 2069TIP3    H1 6213   4.382   3.384   4.929  0.7187  0.1398  0.7962
 2069TIP3    H2 6214   4.362   3.515   5.002  2.0814 -0.0200  1.4728
 2070TIP3   OH2 6215   0.906   4.479   4.387  0.4636  0.5463  0.6871
 2070TIP3    H1 6216   0.813   4.455   4.387  0.6573 -0.2482  0.7922
 2070TIP3    H2 6217   0.945   4.419   4.323  0.6035  2.1502 -0.8070
 2071TIP3   OH2 6218   4.954   3.195   2.052 -0.1876 -0.4575 -0.0001
 2071TIP3    H1 6219   4.954   3.234   2.139  2.7245 -0.0870 -0.0759
 2071TIP3    H2 6220   5.043   3.208   2.019 -0.4648 -2.8475 -2.0161
 2072TIP3   OH2 6221   5.614   2.624   3.128 -0.9292  0.3623  0.4587
 2072TIP3    H1 6222   5.610   2.542   3.079 -1.4840  0.0152  1.0595
 2072TIP3    H2 6223   5.543   2.677   3.092 -2.1764 -0.3792  1.6868
 2073TIP3   OH2 6224   5.229   5.823   1.489 -0.1834  0.1264  0.4219
 2073TIP3    H1 6225   5.261   5.914   1.485  0.1731  0.0010  0.4319
 2073TIP3    H2 6226   5.292   5.778   1.543 -0.1366 -0.2240  0.0789
 2074TIP3   OH2 6227   3.743   5.408   0.600  0.3266 -0.0354  0.4656
 2074TIP3    H1 6228   3.657   5.420   0.639 -0.2111 -0.4520 -0.5597
 2074TIP3    H2 6229   3.802   5.398   0.675 -0.8630 -2.2218  1.1874
 2075TIP3   OH2 6230   3.462   3.186   1.743  0.3432 -0.6041  0.5452
 2075TIP3    H1 6231   3.469   3.155   1.653 -0.0762 -0.8630  0.5957
 2075TIP3    H2 6232   3.414   3.117   1.788  0.7880 -0.6004  1.0335
 2076TIP3   OH2 6233   6.290   1.514   3.220  0.4423  0.3115  0.3574
 2076TIP3    H1 6234   6.232   1.441   3.241 -1.7899  2.2865  1.4373
 2076TIP3    H2 6235   6.349   1.478   3.153 -1.3708 -2.0916 -0.1151
 2077TIP3   OH2 6236   5.400   5.328   4.721  0.1864  0.0276  0.0785
 2077TIP3    H1 6237   5.369   5.250   4.675 -1.1413  0.7736 -0.3492
 2077TIP3    H2 6238   5.392   5.399   4.658  1.3280  0.5322  0.4785
 2078TIP3   OH2 6239   2.406   0.796   4.071  0.1561 -0.6346  0.2674
 2078TIP3    H1 6240   2.398   0.879   4.119  0.8288 -0.7383  0.5764
 2078TIP3    H2 6241   2.447   0.736   4.134  0.2372 -1.0274 -0.1523
 2079TIP3   OH2 6242   3.922   2.990   0.412  0.0568 -0.1526  0.5683
 2079TIP3    H1 6243   3.902   2.903   0.447 -1.4597  0.1087  0.4356
 2079TIP3    H2 6244   3.981   3.029   0.476  0.0920 -0.9703  1.0518
 2080TIP3   OH2 6245   0.538   3.813   2.435  0.5329  0.4383 -0.5484
 2080TIP3    H1 6246   0.467   3.832   2.496  1.0200  0.8376 -0.1074
 2080TIP3    H2 6247   0.608   3.874   2.457  0.7791  0.4880 -1.4044
 2081TIP3   OH2 6248   2.846   0.121   4.007 -0.5064  0.5370 -0.3195
 2081TIP3    H1 6249   2.871   0.207   4.040  0.3954 -0.5477  2.0307
 2081TIP3    H2 6250   2.925   0.068   4.013 -1.8096 -1.3646  1.6406
 2082TIP3   OH2 6251   1.123   1.896   1.413 -0.2649  0.3503  0.3942
 2082TIP3    H1 6252   1.037   1.868   1.382 -1.6026  2.0719  2.2375
 2082TIP3    H2 6253   1.108   1.923   1.504  2.6734 -1.2155  1.4781
 2083TIP3   OH2 6254   4.941   1.642   5.102 -0.7851  0.3124 -0.2087
 2083TIP3    H1 6255   4.869   1.669   5.046  0.6332  1.8314 -1.4334
 2083TIP3    H2 6256   4.968   1.723   5.146  0.3909 -0.1209 -0.0910
 2084TIP3   OH2 6257   0.276   1.179   3.641  0.1666 -0.0710 -0.0554
 2084TIP3    H1 6258   0.353   1.124   3.627 -0.5577 -0.9032 -0.8558
 2084TIP3    H2 6259   0.254   1.212   3.554 -1.0376 -0.7497 -0.0335
 2085TIP3   OH2 6260   1.835   3.169   1.359 -0.0109 -0.0666 -0.4997
 2085TIP3    H1 6261   1.881   3.090   1.331 -0.6091  0.1755 -2.3716
 2085TIP3    H2 6262   1.750   3.138   1.390  0.9814 -0.4233  2.0309
 2086TIP3   OH2 6263   4.968   4.791   2.029 -0.1550  0.1780  0.0262
 2086TIP3    H1 6264   5.051   4.824   2.064 -0.3769  0.2345  0.5138
 2086TIP3    H2 6265   4.902   4.852   2.063 -0.3559  0.3471 -0.6627
 2087TIP3   OH2 6266   3.333   2.666   3.079  0.3155 -0.0125  0.1557
 2087TIP3    H1 6267   3.279   2.694   3.004  0.1086  1.2665  0.7477
 2087TIP3    H2 6268   3.273   2.669   3.154  1.2202  1.6751  0.8705
 2088TIP3   OH2 6269   2.977   3.470   0.264  0.3973  0.9171  0.2540
 2088TIP3    H1 6270   2.888   3.482   0.297  0.3907 -0.1026  0.6222
 2088TIP3    H2 6271   2.991   3.376   0.267  1.3109  1.0299 -0.2860
 2089TIP3   OH2 6272   0.337   0.963   0.232 -0.4009  0.1456  0.1933
 2089TIP3    H1 6273   0.361   1.038   0.178  0.4612  0.0930  0.4814
 2089TIP3    H2 6274   0.397   0.967   0.307 -1.0336 -0.2430  0.7336
 2090TIP3   OH2 6275   5.128   2.894   4.429 -0.3683  0.2009  0.0753
 2090TIP3    H1 6276   5.046   2.866   4.470  0.6206 -1.1034  1.2745
 2090TIP3    H2 6277   5.116   2.876   4.335 -0.7148 -2.0281  0.4924
 2091TIP3   OH2 6278   0.033   2.955   5.084  0.5443 -0.3693  0.0865
 2091TIP3    H1 6279   0.089   2.879   5.065 -0.7528 -1.9468  2.1417
 2091TIP3    H2 6280   0.072   2.994   5.163  0.4532  0.3127 -0.2033
 2092TIP3   OH2 6281   4.674   5.050   1.566 -0.0179 -0.2881 -0.4821
 2092TIP3    H1 6282   4.692   5.008   1.650 -0.3409 -0.6508 -0.5921
 2092TIP3    H2 6283   4.600   5.108   1.582  0.4841  0.3139 -0.3095
 2093TIP3   OH2 6284   2.034   0.382   2.868  0.0003  0.1214 -0.4988
 2093TIP3    H1 6285   2.091   0.418   2.936  1.1684 -2.1671 -0.1500
 2093TIP3    H2 6286   2.094   0.354   2.799 -0.9760  0.2418 -1.4218
 2094TIP3   OH2 6287   5.616   4.310   0.299 -0.2647  0.1771  0.2885
 2094TIP3    H1 6288   5.710   4.300   0.280 -0.3828  0.6050 -0.5581
 2094TIP3    H2 6289   5.613   4.330   0.392  0.4492 -0.4024  0.4465
 2095TIP3   OH2 6290   4.501   3.479   4.614  0.9122 -0.1273 -0.2752
 2095TIP3    H1 6291   4.584   3.496   4.659  1.0865 -0.2565 -0.5419
 2095TIP3    H2 6292   4.467   3.399   4.655  1.1967 -0.3896 -0.5439
 2096TIP3   OH2 6293   1.375   5.723   3.652  0.3757 -0.0645  0.1689
 2096TIP3    H1 6294   1.286   5.689   3.661  1.1780 -2.2574  0.3975
 2096TIP3    H2 6295   1.365   5.818   3.657 -1.9822 -0.2333 -0.2398
 2097TIP3   OH2 6296   3.514   5.703   1.539 -0.1968 -0.2847  0.1716
 2097TIP3    H1 6297   3.467   5.735   1.461  1.2495  0.3745 -0.4656
 2097TIP3    H2 6298   3.449   5.652   1.587 -1.5593  0.6060 -0.6677
 2098TIP3   OH2 6299   3.948   4.815   3.767 -0.5484 -0.3009 -0.0425
 2098TIP3    H1 6300   3.925   4.871   3.841  1.0361  1.5415 -0.8457
 2098TIP3    H2 6301   4.042   4.830   3.754 -0.8453 -0.2595 -2.6297
 2099TIP3   OH2 6302   5.140   0.588   4.432  0.1269  0.3340 -0.1817
 2099TIP3    H1 6303   5.051   0.623   4.429  0.7934  2.0951 -2.2611
 2099TIP3    H2 6304   5.181   0.619   4.351  2.7306 -0.1870  0.8234
 2100TIP3   OH2 6305   3.547   4.232   2.604 -0.3002 -0.0231  0.7336
 2100TIP3    H1 6306   3.569   4.139   2.604 -1.2999 -0.2697  1.2763
 2100TIP3    H2 6307   3.617   4.273   2.656 -0.0578 -0.5086  0.7970
 2101TIP3   OH2 6308   3.529   1.200   2.671  0.0484  0.2648 -0.0032
 2101TIP3    H1 6309   3.584   1.158   2.737 -0.4024  0.4186  0.4816
 2101TIP3    H2 6310   3.521   1.291   2.701  0.9826  0.7081 -1.0170
 2102TIP3   OH2 6311   4.052   3.252   0.252 -0.4794 -0.3600  0.0086
 2102TIP3    H1 6312   4.059   3.163   0.218 -0.6864  0.2783 -1.8699
 2102TIP3    H2 6313   3.970   3.253   0.301  0.2278 -1.5447  1.2565
 2103TIP3   OH2 6314   4.379   3.915   0.977  0.0839 -0.1771 -0.7949
 2103TIP3    H1 6315   4.457   3.937   0.925  0.9036 -1.4948 -0.1521
 2103TIP3    H2 6316   4.330   3.997   0.980  1.8198  0.9184 -0.5638
 2104TIP3   OH2 6317   2.223   2.932   1.808 -0.1328  0.1775 -0.1395
 2104TIP3    H1 6318   2.174   2.988   1.747 -1.5859 -0.4595  0.3922
 2104TIP3    H2 6319   2.259   2.863   1.753  0.1787  0.6633 -0.5492
 2105TIP3   OH2 6320   1.629   3.203   1.105  0.0100  0.2698  0.0077
 2105TIP3    H1 6321   1.697   3.218   1.171 -0.2097  0.0393  0.2858
 2105TIP3    H2 6322   1.562   3.268   1.124  0.3425  0.7884 -0.5371
 2106TIP3   OH2 6323   3.562   1.596   1.112  0.8053 -0.4923 -0.1592
 2106TIP3    H1 6324   3.495   1.544   1.067  0.8082  0.0330 -0.7797
 2106TIP3    H2 6325   3.591   1.660   1.047  1.3648 -0.2171  0.3487
 2107TIP3   OH2 6326   5.901   5.271   0.687 -0.1080  0.0432 -0.0872
 2107TIP3    H1 6327   5.942   5.352   0.657 -0.0429  0.4630  1.0709
 2107TIP3    H2 6328   5.904   5.212   0.611  1.1004  0.6482 -0.5269
 2108TIP3   OH2 6329   0.118   1.329   2.996 -0.1642 -0.0435  0.2457
 2108TIP3    H1 6330   0.211   1.310   3.005  0.2088  1.3031 -0.5609
 2108TIP3    H2 6331   0.074   1.254   3.037  1.2643 -0.5393  0.9211
 2109TIP3   OH2 6332   0.773   0.363   0.467  1.0194  0.0309  0.2542
 2109TIP3    H1 6333   0.802   0.284   0.513 -1.5299 -1.5263 -0.5733
 2109TIP3    H2 6334   0.697   0.393   0.518  1.5050  1.5580  0.1332
 2110TIP3   OH2 6335   5.968   1.793   2.208  0.3031 -0.0373  0.2274
 2110TIP3    H1 6336   5.919   1.874   2.214  0.5647  0.2245 -0.9263
 2110TIP3    H2 6337   6.050   1.817   2.165 -0.2517 -1.1401 -1.5603
 2111TIP3   OH2 6338   1.735   3.276   3.625 -0.1388 -0.4894 -0.3343
 2111TIP3    H1 6339   1.828   3.276   3.648 -0.8961 -1.3535  3.2885
 2111TIP3    H2 6340   1.712   3.183   3.622 -0.8226 -0.2981 -1.7166
 2112TIP3   OH2 6341   3.014   1.176   1.185  0.2156 -0.1760  0.2557
 2112TIP3    H1 6342   2.941   1.235   1.165  0.5815  0.3619  0.4705
 2112TIP3    H2 6343   3.089   1.235   1.194  0.7623 -0.7575 -0.3925
 2113TIP3   OH2 6344   5.472   1.575   0.137  0.3718 -0.2725 -0.2467
 2113TIP3    H1 6345   5.470   1.665   0.169 -2.4472 -0.8644  1.6904
 2113TIP3    H2 6346   5.562   1.546   0.152  1.1223  1.9530 -0.1394
 2114TIP3   OH2 6347   4.774   4.557   0.604  0.2126 -0.2458 -0.1425
 2114TIP3    H1 6348   4.726   4.487   0.647 -0.0838  0.3379  0.5010
 2114TIP3    H2 6349   4.709   4.601   0.550 -1.2337  3.1705  3.8274
 2115TIP3   OH2 6350   2.611   2.328   2.548 -0.1266 -0.4803 -0.1641
 2115TIP3    H1 6351   2.664   2.403   2.575 -0.0122  0.1356 -1.9726
 2115TIP3    H2 6352   2.675   2.263   2.518 -0.3027 -0.4628 -0.5871
 2116TIP3   OH2 6353   5.031   3.584   4.779  0.2924 -0.3177 -0.2913
 2116TIP3    H1 6354   4.969   3.649   4.812  1.1945  0.4590 -0.0651
 2116TIP3    H2 6355   5.036   3.519   4.849  1.6331  0.9394  0.8579
 2117TIP3   OH2 6356   3.291   2.453   4.217 -0.4270 -0.2585 -0.1658
 2117TIP3    H1 6357   3.353   2.384   4.241 -0.0395  0.4064  0.7996
 2117TIP3    H2 6358   3.303   2.464   4.122  0.2864 -0.7668 -0.1423
 2118TIP3   OH2 6359   0.844   4.322   5.085 -0.8739 -0.2875 -0.5079
 2118TIP3    H1 6360   0.877   4.368   5.008  0.1893 -1.3564 -0.7203
 2118TIP3    H2 6361   0.895   4.358   5.158 -0.5609 -0.5942 -0.5723
 2119TIP3   OH2 6362   2.073   5.342   5.164  0.3924  0.5047  0.2826
 2119TIP3    H1 6363   1.989   5.337   5.118  0.1260  1.7236  0.6101
 2119TIP3    H2 6364   2.062   5.283   5.239 -0.3062  0.9439  0.5339
 2120TIP3   OH2 6365   5.030   4.338   1.557 -0.4693  0.1339  0.0263
 2120TIP3    H1 6366   4.977   4.374   1.486 -0.0919  0.9084  0.1276
 2120TIP3    H2 6367   4.992   4.375   1.637 -0.1438  0.2181  0.1419
 2121TIP3   OH2 6368   3.376   5.154   0.766 -0.4787 -0.2337  0.5937
 2121TIP3    H1 6369   3.336   5.240   0.750  0.6804  0.4958  1.4270
 2121TIP3    H2 6370   3.307   5.091   0.744 -0.1858  0.6797 -3.9187
 2122TIP3   OH2 6371   2.492   2.416   5.144 -0.2586  0.0407 -0.6339
 2122TIP3    H1 6372   2.422   2.461   5.098  0.6077  1.9230 -0.1916
 2122TIP3    H2 6373   2.565   2.415   5.082  0.3393  0.9796  0.0396
 2123TIP3   OH2 6374   2.166   2.498   4.255 -0.2225  0.5264 -0.6471
 2123TIP3    H1 6375   2.080   2.458   4.259 -0.2730  0.4379 -2.2044
 2123TIP3    H2 6376   2.150   2.587   4.223 -0.0151  1.5794  1.9001
 2124TIP3   OH2 6377   0.424   5.076   4.755  0.0515 -0.0554 -0.4395
 2124TIP3    H1 6378   0.508   5.031   4.761 -0.3743 -0.6591  1.6820
 2124TIP3    H2 6379   0.414   5.120   4.839 -1.5862  0.3528 -0.8094
 2125TIP3   OH2 6380   0.642   3.485   1.177  0.2714  0.1418  0.1928
 2125TIP3    H1 6381   0.597   3.522   1.101  1.6671 -0.5091 -1.0060
 2125TIP3    H2 6382   0.659   3.394   1.153 -1.0447 -0.6839  2.1446
 2126TIP3   OH2 6383   4.056   5.097   3.232  0.0455  0.4381 -0.6853
 2126TIP3    H1 6384   3.967   5.132   3.228 -0.8572 -1.7667 -0.8676
 2126TIP3    H2 6385   4.109   5.160   3.181 -1.2873  2.0213 -0.1792
 2127TIP3   OH2 6386   2.551   0.551   1.442  0.0322 -0.7564 -0.2724
 2127TIP3    H1 6387   2.462   0.518   1.431 -0.3145 -0.5552  1.5763
 2127TIP3    H2 6388   2.605   0.472   1.449  0.3979 -0.9225 -3.5639
 2128TIP3   OH2 6389   1.617   3.251   2.495 -0.2098 -0.1875 -0.2304
 2128TIP3    H1 6390   1.684   3.291   2.439 -0.8941  1.4600  0.0616
 2128TIP3    H2 6391   1.658   3.243   2.581  0.8477 -2.7308 -0.8782
 2129TIP3   OH2 6392   5.941   2.088   1.569  0.2709  0.6483  0.2300
 2129TIP3    H1 6393   5.881   2.024   1.530  1.8072 -0.1890 -0.8609
 2129TIP3    H2 6394   5.892   2.170   1.566 -1.4088 -0.2858  0.8363
 2130TIP3   OH2 6395   4.411   1.305   3.208  0.0703  0.0382 -0.8155
 2130TIP3    H1 6396   4.488   1.299   3.265  0.5850 -1.2130 -1.5996
 2130TIP3    H2 6397   4.432   1.374   3.146  0.1829  0.3046 -0.4851
 2131TIP3   OH2 6398   4.653   3.301   2.046 -0.3940  0.0589 -0.4107
 2131TIP3    H1 6399   4.744   3.333   2.049  0.1102 -1.3717  0.1459
 2131TIP3    H2 6400   4.641   3.257   2.130 -2.2555  1.8371  0.3478
 2132TIP3   OH2 6401   1.692   2.266   3.083  0.0477 -0.1188  0.0629
 2132TIP3    H1 6402   1.605   2.244   3.050 -0.5120 -2.2967  2.6315
 2132TIP3    H2 6403   1.685   2.257   3.178  2.2860  2.8696  0.6945
 2133TIP3   OH2 6404   4.973   3.196   0.238  0.5458  0.1405 -0.6632
 2133TIP3    H1 6405   4.890   3.224   0.200  1.0762  1.1039 -1.1307
 2133TIP3    H2 6406   4.997   3.266   0.298 -0.2929 -1.3572  1.5845
 2134TIP3   OH2 6407   3.207   0.811   0.936  0.0451 -0.3351 -0.1455
 2134TIP3    H1 6408   3.269   0.807   1.009 -0.6716 -1.7091  0.4307
 2134TIP3    H2 6409   3.257   0.778   0.861  0.8524  1.2904 -0.3749
 2135TIP3   OH2 6410   4.645   1.775   0.150 -0.7608 -0.1134  0.5956
 2135TIP3    H1 6411   4.719   1.730   0.190 -0.3593 -0.1144 -0.1438
 2135TIP3    H2 6412   4.609   1.829   0.221 -0.0857 -0.1527  0.9753
 2136TIP3   OH2 6413   3.841   1.028   4.591  0.2308  0.1205  0.6465
 2136TIP3    H1 6414   3.858   1.111   4.546  0.0300  0.2725  0.8525
 2136TIP3    H2 6415   3.746   1.023   4.598  0.0314 -1.5316 -2.0084
 2137TIP3   OH2 6416   4.884   1.152   4.389  0.2349  0.4484  0.2370
 2137TIP3    H1 6417   4.820   1.191   4.330  0.6165  0.4558 -0.1735
 2137TIP3    H2 6418   4.840   1.073   4.423  0.1239  0.2870 -0.2761
 2138TIP3   OH2 6419   0.756   5.151   2.328 -0.5495 -0.5105 -0.5001
 2138TIP3    H1 6420   0.778   5.199   2.408 -1.6652  0.8503 -0.9748
 2138TIP3    H2 6421   0.772   5.213   2.257 -2.0050 -0.8145 -1.1334
 2139TIP3   OH2 6422   2.657   4.003   0.449  0.2514 -0.2087 -0.4450
 2139TIP3    H1 6423   2.656   3.912   0.419 -0.4410 -0.3929  0.1068
 2139TIP3    H2 6424   2.746   4.033   0.433  0.7853 -1.3112  0.3551
 2140TIP3   OH2 6425   2.534   2.532   0.132  0.0634 -0.4488  0.2349
 2140TIP3    H1 6426   2.570   2.542   0.220 -0.3250 -0.4214  0.3922
 2140TIP3    H2 6427   2.583   2.458   0.095 -0.0421 -0.7124  0.6133
 2141TIP3   OH2 6428   4.041   3.344   5.058 -0.2540  0.5201 -0.5511
 2141TIP3    H1 6429   3.997   3.429   5.063  0.5485  0.8587  1.9294
 2141TIP3    H2 6430   4.131   3.363   5.083 -0.1779 -1.1393  0.5433
 2142TIP3   OH2 6431   4.889   4.674   0.080  0.0156 -0.0018  0.6582
 2142TIP3    H1 6432   4.820   4.740   0.068  1.6291  1.7436  0.4325
 2142TIP3    H2 6433   4.969   4.725   0.084  1.2073 -1.8888  2.0227
 2143TIP3   OH2 6434   3.210   5.507   2.422 -0.0162 -0.7033 -0.2516
 2143TIP3    H1 6435   3.247   5.457   2.349  0.0885 -0.3660 -0.4307
 2143TIP3    H2 6436   3.125   5.536   2.390 -0.6314 -1.8113  0.3000
 2144TIP3   OH2 6437   3.661   5.049   2.853  0.0172 -0.0537  0.5139
 2144TIP3    H1 6438   3.745   5.086   2.880  0.1796  0.3232 -0.4739
 2144TIP3    H2 6439   3.629   5.004   2.931  0.6367  0.6928  1.2180
 2145TIP3   OH2 6440   6.103   3.702   4.819  0.5633  0.3801  0.4464
 2145TIP3    H1 6441   6.188   3.658   4.822  0.1878 -0.4090 -0.1788
 2145TIP3    H2 6442   6.042   3.634   4.790 -0.2370  1.0107  0.6284
 2146TIP3   OH2 6443   3.670   4.512   0.378 -0.0185 -0.0931 -0.5249
 2146TIP3    H1 6444   3.702   4.598   0.405  0.4514 -1.0345  2.1570
 2146TIP3    H2 6445   3.749   4.460   0.365 -0.2773 -1.1638  1.7327
 2147TIP3   OH2 6446   0.190   2.391   1.651  0.0054  0.3082 -0.0613
 2147TIP3    H1 6447   0.265   2.387   1.591  0.4464  0.3842  0.4760
 2147TIP3    H2 6448   0.221   2.443   1.725 -0.1723 -0.6624  0.7237
 2148TIP3   OH2 6449   4.166   2.658   0.613  0.1084 -0.2684  0.0851
 2148TIP3    H1 6450   4.216   2.616   0.542 -1.4717 -2.1288 -0.0308
 2148TIP3    H2 6451   4.231   2.677   0.680  1.2428 -1.0375 -0.7427
 2149TIP3   OH2 6452   6.018   1.225   1.799  0.2116  0.3140 -0.3482
 2149TIP3    H1 6453   6.086   1.291   1.807 -1.3306  2.1567 -1.4584
 2149TIP3    H2 6454   5.962   1.237   1.876  0.5208 -0.4406 -0.0000
 2150TIP3   OH2 6455   0.707   2.140   3.123 -0.0025  0.0212 -0.1749
 2150TIP3    H1 6456   0.784   2.098   3.084  0.8689  2.0227 -0.7845
 2150TIP3    H2 6457   0.633   2.086   3.095  1.1235 -1.7507  0.1195
 2151TIP3   OH2 6458   1.258   1.810   4.966 -0.3315  0.2621 -0.4468
 2151TIP3    H1 6459   1.166   1.785   4.977  0.2570 -2.1123 -0.4418
 2151TIP3    H2 6460   1.256   1.906   4.962 -2.6236  0.3674  1.0865
 2152TIP3   OH2 6461   0.553   4.668   0.314 -0.2789  0.2900  0.1821
 2152TIP3    H1 6462   0.542   4.573   0.323  0.2946  0.2284  0.3073
 2152TIP3    H2 6463   0.465   4.702   0.304 -0.4035 -0.4572 -1.7827
 2153TIP3   OH2 6464   5.893   3.467   0.423 -0.1041  0.2026  0.4027
 2153TIP3    H1 6465   5.870   3.537   0.362  0.3125 -0.1106 -0.1124
 2153TIP3    H2 6466   5.809   3.424   0.442  0.0268 -1.1488 -1.7333
 2154TIP3   OH2 6467   6.225   4.902   0.868  0.1283 -0.0491 -0.3227
 2154TIP3    H1 6468   6.159   4.838   0.895 -0.3077  1.0508  1.3209
 2154TIP3    H2 6469   6.201   4.982   0.913  0.7590  1.2730 -2.2036
 2155TIP3   OH2 6470   4.793   2.156   2.806  0.6119 -0.9241  0.5030
 2155TIP3    H1 6471   4.712   2.110   2.825 -0.4172  0.6140  0.0595
 2155TIP3    H2 6472   4.810   2.137   2.713 -0.5641  0.6132 -0.0700
 2156TIP3   OH2 6473   5.185   0.319   1.875 -0.7025  0.4346 -0.0485
 2156TIP3    H1 6474   5.134   0.384   1.922  1.1409  1.2348  0.9554
 2156TIP3    H2 6475   5.232   0.271   1.943  1.7257  1.3614 -0.9545
 2157TIP3   OH2 6476   2.338   4.590   3.987 -0.3154 -0.1550 -0.4512
 2157TIP3    H1 6477   2.379   4.600   3.901 -1.0060  1.0919 -0.6576
 2157TIP3    H2 6478   2.346   4.677   4.027 -1.7709 -0.1882 -0.0629
 2158TIP3   OH2 6479   1.598   4.920   2.495  0.2153  0.3031  0.3291
 2158TIP3    H1 6480   1.691   4.895   2.496 -0.2870 -1.9055  2.2294
 2158TIP3    H2 6481   1.592   4.993   2.555  0.5006 -0.8300  1.7960
 2159TIP3   OH2 6482   0.328   0.225   4.811  0.2747  0.2087 -0.3432
 2159TIP3    H1 6483   0.278   0.243   4.890 -0.1150 -1.6637 -0.1083
 2159TIP3    H2 6484   0.267   0.240   4.739  0.7284  2.2453 -0.3585
 2160TIP3   OH2 6485   5.820   4.719   3.106  0.0057  0.2775 -0.0788
 2160TIP3    H1 6486   5.781   4.787   3.051 -1.4682  0.6105  1.2729
 2160TIP3    H2 6487   5.749   4.694   3.165  0.8582 -1.6664  0.1800
 2161TIP3   OH2 6488   3.927   2.427   0.522 -0.5494 -0.2749  0.0144
 2161TIP3    H1 6489   3.889   2.514   0.505  0.3411  0.4417  1.5044
 2161TIP3    H2 6490   3.903   2.408   0.612  0.8263 -0.7389  0.3027
 2162TIP3   OH2 6491   0.607   3.582   3.985  0.0399 -0.0704  0.2573
 2162TIP3    H1 6492   0.568   3.669   3.984 -0.7418 -0.4125 -0.9474
 2162TIP3    H2 6493   0.652   3.575   3.901 -1.8453 -1.6445 -0.6912
 2163TIP3   OH2 6494   4.380   0.935   0.672 -0.8219 -0.0434  0.2164
 2163TIP3    H1 6495   4.428   0.875   0.728  0.7815  0.7216 -0.2985
 2163TIP3    H2 6496   4.354   0.881   0.596 -2.2380 -0.8546  1.2217
 2164TIP3   OH2 6497   3.148   3.139   2.669 -0.9445 -0.3123 -0.4726
 2164TIP3    H1 6498   3.207   3.133   2.594  1.2212  1.5591  0.9448
 2164TIP3    H2 6499   3.160   3.057   2.717 -0.1067 -0.2886 -0.6372
 2165TIP3   OH2 6500   4.452   0.654   1.590 -0.2607  0.0101  0.0046
 2165TIP3    H1 6501   4.528   0.688   1.638  0.9543 -1.2480 -0.9306
 2165TIP3    H2 6502   4.462   0.559   1.595 -0.0434 -0.1794 -2.7196
 2166TIP3   OH2 6503   2.801   0.282   1.748 -0.5468  0.6659  0.6673
 2166TIP3    H1 6504   2.767   0.321   1.828  2.8558  0.4937  2.3720
 2166TIP3    H2 6505   2.885   0.326   1.733  0.2934 -1.3383 -1.1419
 2167TIP3   OH2 6506   4.547   4.164   1.432  0.0868 -0.1320 -0.2505
 2167TIP3    H1 6507   4.462   4.122   1.416  0.5608 -0.3889 -2.3042
 2167TIP3    H2 6508   4.605   4.092   1.457  0.1727 -0.2542 -0.7978
 2168TIP3   OH2 6509   1.838   2.013   1.181 -0.3552  0.3077  0.1742
 2168TIP3    H1 6510   1.891   1.934   1.181 -0.3270  0.2674 -2.2374
 2168TIP3    H2 6511   1.785   2.007   1.261 -0.5486 -2.2707 -0.0844
 2169TIP3   OH2 6512   6.026   0.564   2.917  0.6131  0.6557 -0.0218
 2169TIP3    H1 6513   6.103   0.617   2.896  1.3778 -0.1772  0.6011
 2169TIP3    H2 6514   6.052   0.474   2.894 -0.4908  0.4735 -0.6214
 2170TIP3   OH2 6515   3.209   0.758   0.632  0.3398  0.5046 -0.3123
 2170TIP3    H1 6516   3.246   0.836   0.590  1.5863 -1.1871 -2.5875
 2170TIP3    H2 6517   3.285   0.710   0.664 -0.1957 -0.8236 -0.9488
 2171TIP3   OH2 6518   3.486   3.587   4.651 -0.0387  0.6843  0.5909
 2171TIP3    H1 6519   3.561   3.599   4.709  0.8094 -3.2676  0.6313
 2171TIP3    H2 6520   3.418   3.550   4.708  0.1127 -1.3139 -0.4201
 2172TIP3   OH2 6521   2.592   3.787   1.998 -0.7673 -0.3936  0.1807
 2172TIP3    H1 6522   2.603   3.765   1.905 -0.8088 -0.5564  0.2137
 2172TIP3    H2 6523   2.610   3.881   2.003 -2.1308 -0.0907 -0.2248
 2173TIP3   OH2 6524   2.735   5.192   2.324 -0.3446  0.2916 -0.2090
 2173TIP3    H1 6525   2.655   5.242   2.342 -0.5847 -0.2366  0.2511
 2173TIP3    H2 6526   2.794   5.214   2.396 -0.2821  0.2644 -0.2521
 2174TIP3   OH2 6527   5.408   4.700   3.849  0.1277  0.5455 -0.2630
 2174TIP3    H1 6528   5.490   4.748   3.863  1.0583 -1.3798  1.2081
 2174TIP3    H2 6529   5.390   4.657   3.932 -1.0503 -1.1017 -1.3124
 2175TIP3   OH2 6530   3.655   1.759   1.932 -1.2721  0.1158  0.4006
 2175TIP3    H1 6531   3.639   1.711   1.851 -1.6995 -0.5956  0.8919
 2175TIP3    H2 6532   3.573   1.805   1.950 -1.3295 -0.0802  0.6530
 2176TIP3   OH2 6533   0.759   0.626   2.319  0.1277 -0.2440  0.2517
 2176TIP3    H1 6534   0.723   0.576   2.393 -1.9758 -0.6374 -0.9536
 2176TIP3    H2 6535   0.708   0.707   2.318  1.5792  0.6970  0.4651
 2177TIP3   OH2 6536   3.929   5.929   0.836  1.0738  0.8582 -0.6171
 2177TIP3    H1 6537   3.942   5.855   0.777  1.1578  1.4070 -1.3105
 2177TIP3    H2 6538   3.854   5.976   0.799 -1.2781 -0.7394  1.7522
 2178TIP3   OH2 6539   4.723   2.866   4.448  0.4443 -0.0779 -0.5486
 2178TIP3    H1 6540   4.744   2.917   4.371 -1.6251  0.8496 -0.5687
 2178TIP3    H2 6541   4.693   2.930   4.513  1.7818 -0.8686  0.9187
 2179TIP3   OH2 6542   3.656   3.521   1.982  0.3034 -0.2681 -0.4234
 2179TIP3    H1 6543   3.607   3.459   2.036  2.8915 -0.1558  2.2949
 2179TIP3    H2 6544   3.598   3.596   1.974 -0.6256 -0.7473  1.3142
 2180TIP3   OH2 6545   3.384   4.424   2.758  0.0537  0.5811 -0.0574
 2180TIP3    H1 6546   3.392   4.331   2.735 -0.8598  0.2461  0.9327
 2180TIP3    H2 6547   3.445   4.468   2.698 -0.9990 -0.4273 -1.9702
 2181TIP3   OH2 6548   3.923   0.580   2.442 -0.4670 -0.7971  0.5923
 2181TIP3    H1 6549   3.905   0.630   2.363  2.6093 -0.0207  0.2667
 2181TIP3    H2 6550   3.939   0.491   2.411 -0.4843 -0.7705  0.5074
 2182TIP3   OH2 6551   0.256   3.954   1.356 -0.3994  0.1269 -0.2302
 2182TIP3    H1 6552   0.162   3.939   1.351 -0.2589 -0.4946 -1.3686
 2182TIP3    H2 6553   0.278   3.996   1.272 -0.1513  3.3249  1.2788
 2183TIP3   OH2 6554   2.448   0.660   2.352 -0.2050  0.7930 -0.1542
 2183TIP3    H1 6555   2.523   0.651   2.293 -1.0860 -1.3187 -1.0700
 2183TIP3    H2 6556   2.371   0.646   2.296 -1.3376  3.0972  0.7103
 2184TIP3   OH2 6557   4.566   2.419   2.477  0.0016 -0.1305 -0.0789
 2184TIP3    H1 6558   4.579   2.507   2.443  0.8702 -0.7509 -1.4729
 2184TIP3    H2 6559   4.480   2.421   2.520 -1.0067  0.8393 -2.0075
 2185TIP3   OH2 6560   1.067   0.147   3.110  0.6507 -0.1625 -0.2468
 2185TIP3    H1 6561   0.981   0.161   3.070 -0.6658 -0.1940  2.3539
 2185TIP3    H2 6562   1.104   0.234   3.120 -0.3825  0.1538  1.1754
 2186TIP3   OH2 6563   2.494   1.396   1.914 -0.5176 -0.0882 -0.0230
 2186TIP3    H1 6564   2.463   1.344   1.840 -0.6388 -0.2574  0.1462
 2186TIP3    H2 6565   2.575   1.436   1.883 -0.7319  0.0940 -0.3538
 2187TIP3   OH2 6566   3.673   0.439   2.502 -0.4242 -0.6425 -0.0546
 2187TIP3    H1 6567   3.731   0.385   2.556  0.1771 -0.9571 -0.9754
 2187TIP3    H2 6568   3.726   0.515   2.479 -1.3675  0.5337  1.4812
 2188TIP3   OH2 6569   1.553   1.978   1.197 -0.5164  0.3855 -0.4580
 2188TIP3    H1 6570   1.554   2.073   1.201 -0.8451  0.3428  2.0675
 2188TIP3    H2 6571   1.607   1.957   1.121  0.4521  2.5534 -0.4408
 2189TIP3   OH2 6572   3.816   1.345   2.949 -0.0169 -0.0605 -0.1508
 2189TIP3    H1 6573   3.864   1.427   2.950 -0.7354  0.3901  1.6096
 2189TIP3    H2 6574   3.841   1.301   3.031 -0.3538 -1.1602 -0.6146
 2190TIP3   OH2 6575   3.454   0.219   3.246  0.2062  0.1951  0.2823
 2190TIP3    H1 6576   3.425   0.225   3.337  2.0487 -2.2568  1.1323
 2190TIP3    H2 6577   3.397   0.152   3.207 -0.0022  0.6154 -0.1540
 2191TIP3   OH2 6578   0.988   1.454   5.107 -0.3236  0.1983  0.0110
 2191TIP3    H1 6579   0.932   1.467   5.184  0.0292 -0.7113  0.4341
 2191TIP3    H2 6580   1.067   1.413   5.142 -0.0085  0.1083 -0.7948
 2192TIP3   OH2 6581   2.660   5.053   2.930  0.5444 -0.2768 -0.2289
 2192TIP3    H1 6582   2.705   5.120   2.878  0.5946 -0.4727 -0.4393
 2192TIP3    H2 6583   2.596   5.102   2.981 -0.5829 -0.2372 -1.6261
 2193TIP3   OH2 6584   5.191   1.301   1.886 -0.1854 -0.6004 -0.4824
 2193TIP3    H1 6585   5.112   1.336   1.927  0.1639 -1.5195  1.0451
 2193TIP3    H2 6586   5.159   1.229   1.830 -0.5342 -0.2182 -0.7782
 2194TIP3   OH2 6587   3.904   0.792   0.886  0.2832 -0.3917  0.1833
 2194TIP3    H1 6588   3.894   0.862   0.822  0.0583  1.0794  1.7493
 2194TIP3    H2 6589   3.942   0.720   0.837  0.6277  0.8596 -1.4763
 2195TIP3   OH2 6590   5.796   5.261   1.756  0.1512  0.0197 -0.2601
 2195TIP3    H1 6591   5.767   5.178   1.717  2.3011 -0.1622 -1.5978
 2195TIP3    H2 6592   5.719   5.317   1.753 -1.2274 -1.7450  0.2400
 2196TIP3   OH2 6593   0.043   2.051   2.434 -0.1634 -0.1557 -0.0951
 2196TIP3    H1 6594   0.023   1.962   2.462 -1.0689  0.4332  1.2669
 2196TIP3    H2 6595  -0.002   2.107   2.497  0.0892  1.2797 -1.1165
 2197TIP3   OH2 6596   1.768   3.835   0.711  0.6231  0.1153  0.4160
 2197TIP3    H1 6597   1.777   3.803   0.621  0.9322 -0.9140  0.7914
 2197TIP3    H2 6598   1.701   3.903   0.706  0.1624 -0.3784 -0.4986
 2198TIP3   OH2 6599   4.603   5.001   2.994  0.1310  0.1296 -0.7354
 2198TIP3    H1 6600   4.670   5.026   2.932  1.2139 -0.2102  0.2666
 2198TIP3    H2 6601   4.578   4.912   2.968  1.8265 -0.7017  0.3029
 2199TIP3   OH2 6602   6.203   4.907   1.227 -0.0884 -0.0729  0.4805
 2199TIP3    H1 6603   6.189   4.814   1.241  1.6566 -0.3426  0.6619
 2199TIP3    H2 6604   6.214   4.943   1.316  0.5909  0.0413  0.3609
 2200TIP3   OH2 6605   5.316   1.666   4.000 -0.3516 -0.2226 -0.5133
 2200TIP3    H1 6606   5.321   1.595   3.936 -2.2736  1.4103 -2.6724
 2200TIP3    H2 6607   5.234   1.711   3.979  0.3046  2.0664  1.3762
 2201TIP3   OH2 6608   1.468   0.440   1.812  0.7185  0.2071 -0.4228
 2201TIP3    H1 6609   1.550   0.489   1.824  1.4841 -1.2518  0.6759
 2201TIP3    H2 6610   1.421   0.453   1.894 -0.0775  0.8785 -0.9781
 2202TIP3   OH2 6611   2.796   3.110   2.247  0.2634 -0.6001  0.0954
 2202TIP3    H1 6612   2.735   3.090   2.176 -0.1952  2.5358 -0.5518
 2202TIP3    H2 6613   2.742   3.118   2.325  0.5268 -2.3057  0.4783
 2203TIP3   OH2 6614   3.485   5.371   3.556 -0.4818  0.2661 -0.0776
 2203TIP3    H1 6615   3.506   5.404   3.469  2.4698  0.5020  0.6153
 2203TIP3    H2 6616   3.495   5.276   3.549 -1.3672  0.1738 -0.2296
 2204TIP3   OH2 6617   4.393   5.023   1.804  0.1106 -0.7895 -0.1392
 2204TIP3    H1 6618   4.325   5.044   1.740  1.4518  1.0912 -1.0421
 2204TIP3    H2 6619   4.385   5.092   1.870  0.4310 -1.2060  0.3407
 2205TIP3   OH2 6620   3.010   1.694   3.743  0.1730 -0.2631  0.6171
 2205TIP3    H1 6621   3.024   1.612   3.790  2.7919  0.4900  1.3534
 2205TIP3    H2 6622   3.079   1.695   3.676 -0.3058  0.9983  0.1114
 2206TIP3   OH2 6623   5.098   1.939   2.490 -0.5931 -0.3191  0.5438
 2206TIP3    H1 6624   5.112   1.844   2.487 -0.7339 -0.3215 -0.4349
 2206TIP3    H2 6625   5.004   1.949   2.500 -0.5925 -0.2889  0.5198
 2207TIP3   OH2 6626   0.288   2.162   3.255  0.3339  0.0892  0.4705
 2207TIP3    H1 6627   0.292   2.257   3.263 -0.4512  0.2146 -0.4222
 2207TIP3    H2 6628   0.232   2.134   3.327 -0.3386  0.4199  0.0848
 2208TIP3   OH2 6629   1.922   3.420   0.941  0.3238  0.6091 -0.7592
 2208TIP3    H1 6630   1.903   3.514   0.940 -1.0673  0.4074  0.9070
 2208TIP3    H2 6631   1.943   3.398   0.850  2.1417  2.7765 -0.9347
 2209TIP3   OH2 6632   1.635   2.269   2.538  0.0983  0.4402  0.4343
 2209TIP3    H1 6633   1.605   2.225   2.459  2.2311 -0.9911  0.3158
 2209TIP3    H2 6634   1.727   2.245   2.545 -0.4088 -1.1873  4.3771
 2210TIP3   OH2 6635   5.700   5.725   3.322 -0.1700  0.0295  0.3026
 2210TIP3    H1 6636   5.670   5.813   3.347 -2.1505 -0.1695 -1.1180
 2210TIP3    H2 6637   5.733   5.736   3.233 -2.2067 -0.9578 -0.6297
 2211TIP3   OH2 6638   6.261  -0.010   4.458 -0.8330  0.1985  0.1375
 2211TIP3    H1 6639   6.227  -0.054   4.536  1.1738 -0.5594  0.6375
 2211TIP3    H2 6640   6.256   0.083   4.478 -0.6199  0.0171  1.0468
 2212TIP3   OH2 6641   1.836   0.716   3.077 -0.4492 -0.5380 -0.7225
 2212TIP3    H1 6642   1.912   0.725   3.019  0.3192  0.1354  0.3368
 2212TIP3    H2 6643   1.868   0.745   3.162 -1.4042 -1.9497  0.1608
 2213TIP3   OH2 6644   4.723   2.766   1.429 -0.2573  0.0024 -0.0479
 2213TIP3    H1 6645   4.760   2.679   1.417 -0.7819 -0.3053  0.5341
 2213TIP3    H2 6646   4.798   2.825   1.420 -0.0514 -0.4274 -1.3712
 2214TIP3   OH2 6647   2.522   4.195   3.626  0.8569 -0.5839  0.7469
 2214TIP3    H1 6648   2.511   4.279   3.671 -0.6135 -0.1566 -0.3083
 2214TIP3    H2 6649   2.614   4.173   3.637  0.8254  0.1145  2.8382
 2215TIP3   OH2 6650   2.233   5.745   0.217  0.8430 -0.2754  0.0670
 2215TIP3    H1 6651   2.290   5.672   0.242  0.0784 -0.7191  0.5480
 2215TIP3    H2 6652   2.145   5.713   0.234  0.3240 -0.1762 -2.1155
 2216TIP3   OH2 6653   5.509   0.839   1.924 -0.1351  0.1443 -0.0443
 2216TIP3    H1 6654   5.522   0.915   1.981  0.6566 -0.9922  1.3652
 2216TIP3    H2 6655   5.598   0.815   1.897 -0.2161 -1.1385  0.7468
 2217TIP3   OH2 6656   6.130   4.050   1.566 -0.6941  0.5906 -0.0040
 2217TIP3    H1 6657   6.096   3.980   1.622 -0.3161  0.5062  0.1240
 2217TIP3    H2 6658   6.209   4.080   1.611 -0.2341  0.3315 -0.6348
 2218TIP3   OH2 6659   5.128   4.808   0.124 -0.0728 -0.0109 -1.0139
 2218TIP3    H1 6660   5.121   4.842   0.035  3.1943  1.4365 -0.8448
 2218TIP3    H2 6661   5.157   4.717   0.113 -0.4688 -0.0917 -1.4091
 2219TIP3   OH2 6662   2.171   1.732   4.080 -0.6265  0.0081 -0.9879
 2219TIP3    H1 6663   2.229   1.656   4.077 -0.0919  0.3563  0.0355
 2219TIP3    H2 6664   2.165   1.761   3.989  1.1142  0.1852 -1.0720
 2220TIP3   OH2 6665   2.175   5.068   0.388  0.1150  0.5130 -0.5188
 2220TIP3    H1 6666   2.251   5.127   0.387 -0.1061  0.8412  0.6776
 2220TIP3    H2 6667   2.213   4.981   0.371  1.5418 -0.0950  4.1963
 2221TIP3   OH2 6668   1.512   3.938   2.758 -0.0462 -0.3542 -0.1726
 2221TIP3    H1 6669   1.461   3.873   2.710 -0.2402 -0.1407 -0.2620
 2221TIP3    H2 6670   1.499   4.020   2.709  1.8762 -0.6448 -1.2706
 2222TIP3   OH2 6671   5.854   5.045   3.686 -0.1785 -0.4099 -0.8427
 2222TIP3    H1 6672   5.903   4.997   3.752 -0.5414  1.0015  0.5187
 2222TIP3    H2 6673   5.918   5.065   3.618  1.2304  1.4918  0.9351
 2223TIP3   OH2 6674   0.281   2.379   2.417 -0.1201 -0.6957  0.0962
 2223TIP3    H1 6675   0.374   2.387   2.436 -0.4366  0.6975  1.2125
 2223TIP3    H2 6676   0.276   2.316   2.345  1.7108 -0.4360 -0.2970
 2224TIP3   OH2 6677   6.213   5.579   0.264  0.7057  0.1321 -0.1330
 2224TIP3    H1 6678   6.160   5.510   0.303  0.5838  0.1818 -0.2122
 2224TIP3    H2 6679   6.231   5.639   0.337  2.8825 -1.2388  0.5396
 2225TIP3   OH2 6680   6.338   1.711   4.820  0.4732 -0.3228 -0.3266
 2225TIP3    H1 6681   6.297   1.796   4.838 -0.1428 -0.6733 -0.0329
 2225TIP3    H2 6682   6.409   1.731   4.759  1.2438  0.6043  0.8193
 2226TIP3   OH2 6683   5.095   3.238   3.528  0.3602 -0.1690 -0.1682
 2226TIP3    H1 6684   5.023   3.286   3.487  1.3340  2.0323  0.5174
 2226TIP3    H2 6685   5.173   3.289   3.506  1.0418  0.8205  3.7139
 2227TIP3   OH2 6686   4.375   5.355   5.145 -0.2064 -0.0818  0.7112
 2227TIP3    H1 6687   4.461   5.386   5.117  0.3342 -0.1426  2.2061
 2227TIP3    H2 6688   4.367   5.268   5.107 -0.5148  0.6872 -1.1333
 2228TIP3   OH2 6689   4.472   5.607   1.565  0.5681  0.5755 -0.1044
 2228TIP3    H1 6690   4.443   5.540   1.627  1.7098  0.3793  0.2519
 2228TIP3    H2 6691   4.449   5.572   1.479  0.4632  0.0774  0.1227
 2229TIP3   OH2 6692   3.341   0.057   0.587  0.0042  0.2714 -0.0716
 2229TIP3    H1 6693   3.259   0.051   0.634 -0.1071  0.3453 -0.2547
 2229TIP3    H2 6694   3.317   0.048   0.495 -0.1679  2.9680 -0.3842
 2230TIP3   OH2 6695   5.541   5.488   0.804  0.0372  0.3058 -0.3352
 2230TIP3    H1 6696   5.451   5.520   0.812 -0.4272 -1.0732  0.0496
 2230TIP3    H2 6697   5.551   5.424   0.874  1.6212  1.0806  0.2014
 2231TIP3   OH2 6698   5.162   0.237   0.479 -0.3710  0.2276 -0.4327
 2231TIP3    H1 6699   5.110   0.222   0.558  1.5788 -2.8208  0.4420
 2231TIP3    H2 6700   5.108   0.202   0.408 -0.8325  0.0583 -0.0098
 2232TIP3   OH2 6701   1.365   5.812   0.855 -0.1322  0.2400 -0.3803
 2232TIP3    H1 6702   1.311   5.860   0.918 -0.0350 -0.6004  0.3689
 2232TIP3    H2 6703   1.303   5.762   0.802 -0.1486 -3.1736  2.4490
 2233TIP3   OH2 6704   3.452   4.427   0.505  0.6867  0.1130  0.2937
 2233TIP3    H1 6705   3.398   4.373   0.448  0.1285  1.8765 -0.9613
 2233TIP3    H2 6706   3.530   4.447   0.452  0.2612  1.6007  0.1673
 2234TIP3   OH2 6707   1.145   5.837   1.532  0.5366  0.2931  0.3750
 2234TIP3    H1 6708   1.196   5.913   1.503 -0.4631  0.1218 -2.1414
 2234TIP3    H2 6709   1.069   5.837   1.473 -2.4151  0.5088  3.8450
 2235TIP3   OH2 6710   1.781   1.013   2.035  0.4198  0.3054 -0.2208
 2235TIP3    H1 6711   1.836   0.935   2.037 -0.2897 -0.2871 -1.6233
 2235TIP3    H2 6712   1.697   0.984   2.070  0.4504  0.7076  0.1892
 2236TIP3   OH2 6713   5.669   2.434   4.868  0.1567  0.9584 -0.0396
 2236TIP3    H1 6714   5.750   2.465   4.827  0.9624  0.0399  0.7689
 2236TIP3    H2 6715   5.692   2.422   4.960 -1.3190  2.0089  0.5076
 2237TIP3   OH2 6716   2.851   4.357   1.658  1.2846 -0.2034  0.6424
 2237TIP3    H1 6717   2.925   4.318   1.613  2.0380 -0.3714  1.9893
 2237TIP3    H2 6718   2.823   4.290   1.721 -0.2161 -0.2658 -0.0333
 2238TIP3   OH2 6719   2.196   2.851   3.800 -0.3192 -0.1959 -0.5157
 2238TIP3    H1 6720   2.246   2.770   3.797 -0.4063 -0.2747 -0.0499
 2238TIP3    H2 6721   2.105   2.824   3.792 -0.3040 -0.0787 -1.0807
 2239TIP3   OH2 6722   3.077   5.734   0.060  0.1032 -0.1926  0.3333
 2239TIP3    H1 6723   3.019   5.809   0.074  0.6881  0.2394  0.4739
 2239TIP3    H2 6724   3.030   5.679  -0.002 -0.8166 -0.2433  1.0531
 2240TIP3   OH2 6725   0.242   2.530   1.894  0.1388 -0.3238 -0.1842
 2240TIP3    H1 6726   0.273   2.613   1.930  1.7063 -1.5465  1.4560
 2240TIP3    H2 6727   0.176   2.500   1.957 -0.7763 -0.1122 -1.0273
 2241TIP3   OH2 6728   2.794   1.553   0.288  0.5861  1.1799 -0.2922
 2241TIP3    H1 6729   2.812   1.629   0.343 -3.1550  1.4075  0.9518
 2241TIP3    H2 6730   2.796   1.587   0.199  3.0197  1.6974 -0.0954
 2242TIP3   OH2 6731   2.511   1.055   4.605 -0.3618 -0.0784 -0.1646
 2242TIP3    H1 6732   2.427   1.077   4.564 -0.3324  1.8888  0.7410
 2242TIP3    H2 6733   2.517   0.960   4.596 -1.9845 -0.1002 -1.5717
 2243TIP3   OH2 6734   1.297   1.182   4.632  0.0090 -0.1844 -0.1916
 2243TIP3    H1 6735   1.393   1.176   4.624  0.0331  0.9749 -1.0534
 2243TIP3    H2 6736   1.267   1.093   4.611  0.8872 -0.5473  0.0083
 2244TIP3   OH2 6737   3.786   0.068   2.455 -0.1571  0.1022 -0.0332
 2244TIP3    H1 6738   3.827   0.147   2.492  0.1197 -0.5407  1.0862
 2244TIP3    H2 6739   3.733   0.100   2.382 -0.4715  1.3880  0.7328
 2245TIP3   OH2 6740   3.436   2.996   0.278 -0.3590  0.1246  0.2557
 2245TIP3    H1 6741   3.438   3.091   0.268 -1.5384  0.4665  2.4690
 2245TIP3    H2 6742   3.490   2.979   0.355  0.9053 -1.1874 -0.8674
 2246TIP3   OH2 6743   6.016   1.444   2.376  0.1857  0.4363  0.0686
 2246TIP3    H1 6744   6.007   1.533   2.411  0.1120  1.4627 -2.3707
 2246TIP3    H2 6745   5.933   1.428   2.331 -0.4378 -1.5543  1.7579
 2247TIP3   OH2 6746   2.440   0.340   2.568 -0.3632 -0.0007  0.0246
 2247TIP3    H1 6747   2.435   0.436   2.570 -0.6232 -0.0182  1.3852
 2247TIP3    H2 6748   2.460   0.319   2.477  0.1665  1.3689 -0.2057
 2248TIP3   OH2 6749   5.903   1.314   2.020 -0.1085 -1.0785  0.9282
 2248TIP3    H1 6750   5.817   1.324   2.061 -0.2944  0.8580  0.1496
 2248TIP3    H2 6751   5.937   1.403   2.013  0.6858 -1.5084 -1.4550
 2249TIP3   OH2 6752   1.025   4.666   2.222 -0.0449 -0.0833  0.4424
 2249TIP3    H1 6753   0.953   4.606   2.240  0.2655 -0.4354  0.5213
 2249TIP3    H2 6754   1.042   4.709   2.306  0.9693 -1.2515  0.8679
 2250TIP3   OH2 6755   3.962   4.485   2.327  0.0200 -0.1762 -0.4266
 2250TIP3    H1 6756   3.899   4.413   2.317  0.1334 -0.1442 -1.5001
 2250TIP3    H2 6757   3.921   4.544   2.390  0.2266 -1.4974  1.0075
 2251TIP3   OH2 6758   1.460   0.610   3.128  0.5310  0.0194  0.0626
 2251TIP3    H1 6759   1.510   0.638   3.205  0.5005  0.7739 -0.1854
 2251TIP3    H2 6760   1.473   0.515   3.125  2.2319  0.2301 -0.1936
 2252TIP3   OH2 6761   2.466   4.065   2.753  0.1057  0.1879 -0.6475
 2252TIP3    H1 6762   2.423   3.979   2.759 -1.6131  1.1084  2.7511
 2252TIP3    H2 6763   2.402   4.120   2.707 -1.6068  1.0041  2.4600
 2253TIP3   OH2 6764   3.660   5.856   4.701  0.4656  0.1406 -0.0958
 2253TIP3    H1 6765   3.740   5.807   4.684  1.0142  1.4442 -1.5115
 2253TIP3    H2 6766   3.688   5.930   4.755 -0.2183 -0.6142  1.3563
 2254TIP3   OH2 6767   5.849   2.639   5.157  0.5396  0.1774  0.0130
 2254TIP3    H1 6768   5.907   2.645   5.081  1.6364 -0.3835  0.7759
 2254TIP3    H2 6769   5.831   2.545   5.166 -0.6848  0.3703 -0.3543
 2255TIP3   OH2 6770   1.316   3.110   2.073 -0.4394  0.8034 -0.6110
 2255TIP3    H1 6771   1.391   3.080   2.125 -0.8754  1.6335  0.5350
 2255TIP3    H2 6772   1.326   3.066   1.989 -0.3982 -1.5694  0.5753
 2256TIP3   OH2 6773   3.972   3.582   4.102  0.0478  0.7253  0.2025
 2256TIP3    H1 6774   3.977   3.633   4.183  1.4656  0.7027  0.1598
 2256TIP3    H2 6775   4.002   3.642   4.034  0.4332  0.2554 -0.0498
 2257TIP3   OH2 6776   5.547   2.315   0.920 -0.2174 -0.4184  0.1137
 2257TIP3    H1 6777   5.504   2.253   0.861  0.0225 -1.2968  0.8316
 2257TIP3    H2 6778   5.603   2.367   0.863 -1.2947 -0.0599 -0.6682
 2258TIP3   OH2 6779   0.678   2.412   4.072  0.1296 -0.2637  0.4404
 2258TIP3    H1 6780   0.618   2.342   4.098 -0.8990  0.2834 -0.3504
 2258TIP3    H2 6781   0.708   2.450   4.154  0.6521 -1.5751  0.8802
 2259TIP3   OH2 6782   3.617   4.976   0.261 -0.5968 -0.1078 -0.3977
 2259TIP3    H1 6783   3.661   5.060   0.246 -2.1339  1.2613  2.0202
 2259TIP3    H2 6784   3.686   4.911   0.254  1.3001  1.6871  0.6366
 2260TIP3   OH2 6785   3.431   2.639   2.248 -0.3637 -0.0550 -0.7679
 2260TIP3    H1 6786   3.450   2.720   2.201  0.2822  0.7252  0.7329
 2260TIP3    H2 6787   3.438   2.570   2.183  0.1473  0.9982 -1.8574
 2261TIP3   OH2 6788   3.943   5.848   4.096  0.8952  0.3042  0.1414
 2261TIP3    H1 6789   4.022   5.899   4.113  1.2099 -0.7160  1.9365
 2261TIP3    H2 6790   3.871   5.908   4.116  1.1781  1.0758 -1.0239
 2262TIP3   OH2 6791   4.674   5.672   0.211 -0.1446  0.1589  0.9371
 2262TIP3    H1 6792   4.599   5.620   0.241  0.3823 -1.0589  0.2304
 2262TIP3    H2 6793   4.711   5.710   0.291 -1.7241  1.1079  1.2586
 2263TIP3   OH2 6794   0.732   2.724   3.193  0.1666 -0.5564  0.4009
 2263TIP3    H1 6795   0.747   2.819   3.196  2.0196 -0.8210  0.3068
 2263TIP3    H2 6796   0.819   2.685   3.191 -0.5570 -2.2506 -0.5693
 2264TIP3   OH2 6797   3.057   2.409   4.615 -0.8373 -0.4731  0.5832
 2264TIP3    H1 6798   3.052   2.318   4.585 -1.9955  0.2476 -1.5620
 2264TIP3    H2 6799   2.996   2.456   4.559 -1.4244  1.3924  2.6712
 2265TIP3   OH2 6800   4.431   1.127   1.519 -0.4614  0.0235 -0.6439
 2265TIP3    H1 6801   4.470   1.052   1.565  0.0531 -0.0901 -1.2375
 2265TIP3    H2 6802   4.366   1.089   1.461 -1.5196  0.2213  0.3935
 2266TIP3   OH2 6803   0.405   0.882   3.690  0.2954  0.7064 -0.0669
 2266TIP3    H1 6804   0.435   0.949   3.629 -0.5492  0.2094 -1.0589
 2266TIP3    H2 6805   0.360   0.817   3.635 -0.3795  0.1765  1.0636
 2267TIP3   OH2 6806   6.340   4.826   3.694  0.3659  0.1382  0.2184
 2267TIP3    H1 6807   6.333   4.759   3.763 -0.2112 -0.3010 -0.2537
 2267TIP3    H2 6808   6.385   4.899   3.736  2.0546 -0.9576  0.4346
 2268TIP3   OH2 6809   1.695   4.583   2.754  0.1044  0.2400  0.5322
 2268TIP3    H1 6810   1.709   4.611   2.844  0.0846  0.4287  0.4773
 2268TIP3    H2 6811   1.782   4.577   2.716  0.0588  1.6452  0.1207
 2269TIP3   OH2 6812   4.631   3.353   4.272 -0.2157 -0.0393  0.1110
 2269TIP3    H1 6813   4.614   3.336   4.179  1.2186  1.3226 -0.4486
 2269TIP3    H2 6814   4.624   3.448   4.280  1.2845  0.0213  1.0216
 2270TIP3   OH2 6815   5.512   5.307   3.440 -0.1650 -0.5690  0.0847
 2270TIP3    H1 6816   5.596   5.269   3.414 -0.0167  1.5520 -3.1401
 2270TIP3    H2 6817   5.532   5.400   3.454 -1.8707 -0.1281 -0.1993
 2271TIP3   OH2 6818   6.023   3.103   2.425  0.2999 -0.7451  0.3089
 2271TIP3    H1 6819   5.958   3.150   2.373 -1.6892 -2.6662  0.8836
 2271TIP3    H2 6820   6.058   3.168   2.485 -0.7423  0.4688 -0.3524
 2272TIP3   OH2 6821   1.409   0.079   3.914 -0.3726 -0.1694  0.3518
 2272TIP3    H1 6822   1.410  -0.009   3.954 -0.4126  0.0286  0.7946
 2272TIP3    H2 6823   1.501   0.101   3.901 -0.2725  0.4929  1.9734
 2273TIP3   OH2 6824   4.856   1.410   0.500  0.2102  0.3033 -0.0215
 2273TIP3    H1 6825   4.786   1.345   0.494 -0.9425  1.3916  0.9822
 2273TIP3    H2 6826   4.910   1.380   0.573  0.0653  0.1152  0.0096
 2274TIP3   OH2 6827   0.996   2.633   1.781  0.0792  0.0518  0.1992
 2274TIP3    H1 6828   0.987   2.728   1.768 -0.3818 -0.1262 -0.9051
 2274TIP3    H2 6829   1.075   2.624   1.834  0.2673  1.0346  0.1169
 2275TIP3   OH2 6830   3.815   5.417   0.068 -0.0163 -0.5969 -0.6252
 2275TIP3    H1 6831   3.782   5.407   0.157  1.1621 -0.8090 -0.1959
 2275TIP3    H2 6832   3.737   5.419   0.013 -0.8390  0.9406  0.5326
 2276TIP3   OH2 6833   1.489   4.587   0.766  0.5202 -0.5130  0.3043
 2276TIP3    H1 6834   1.402   4.552   0.746  0.2607  0.4248 -0.2538
 2276TIP3    H2 6835   1.473   4.676   0.796  1.4245  0.4285 -1.8572
 2277TIP3   OH2 6836   0.310   1.626   4.125  0.1265 -0.2810  0.6778
 2277TIP3    H1 6837   0.309   1.547   4.179 -1.3157  0.1546  1.3700
 2277TIP3    H2 6838   0.364   1.604   4.050 -0.0626 -1.8479  0.9629
 2278TIP3   OH2 6839   2.030   5.574   3.488  0.0000  0.6834  0.6630
 2278TIP3    H1 6840   2.032   5.484   3.456 -0.3168  0.9142 -0.0371
 2278TIP3    H2 6841   2.052   5.568   3.581  1.5482  0.0500  0.2681
 2279TIP3   OH2 6842   3.894   3.884   1.845 -0.3321 -0.0867 -0.3991
 2279TIP3    H1 6843   3.869   3.797   1.814 -0.3562  0.1114 -0.9357
 2279TIP3    H2 6844   3.829   3.904   1.913 -2.1710  0.7374 -2.2970
 2280TIP3   OH2 6845   5.374   5.581   1.913  0.5526 -0.1754  0.1163
 2280TIP3    H1 6846   5.384   5.514   1.981  0.0310 -1.3892 -0.9737
 2280TIP3    H2 6847   5.371   5.663   1.962 -0.3832 -1.0485  1.6126
 2281TIP3   OH2 6848   4.425   1.764   3.994 -0.0937 -0.1609 -0.2126
 2281TIP3    H1 6849   4.497   1.826   4.006  0.5196 -0.9962  0.6160
 2281TIP3    H2 6850   4.349   1.807   4.032  0.5071 -0.2231  1.1449
 2282TIP3   OH2 6851   2.971   1.191   2.991 -0.4847  0.2319  0.3541
 2282TIP3    H1 6852   2.930   1.156   2.912 -0.9202  0.3184  0.5355
 2282TIP3    H2 6853   3.053   1.231   2.961  0.2612 -1.3422  0.2091
 2283TIP3   OH2 6854   1.068   4.483   4.632  0.3149 -0.0892  0.5996
 2283TIP3    H1 6855   1.032   4.555   4.684 -0.0015 -1.0741  1.7748
 2283TIP3    H2 6856   1.012   4.480   4.554  1.1480  1.7703 -0.1310
 2284TIP3   OH2 6857   6.090   4.504   2.767  0.1294  0.4907  0.3864
 2284TIP3    H1 6858   6.088   4.596   2.739 -0.0718 -0.6008 -3.8383
 2284TIP3    H2 6859   5.998   4.481   2.781 -0.2979  0.0604 -2.4642
 2285TIP3   OH2 6860   0.188   1.202   1.312 -0.0831 -0.0095 -0.1301
 2285TIP3    H1 6861   0.277   1.166   1.319 -0.0150  0.3336  0.9542
 2285TIP3    H2 6862   0.185   1.241   1.225  0.5868 -0.6675 -0.4597
 2286TIP3   OH2 6863   3.731   0.794   1.116  0.1191  0.6924  0.2397
 2286TIP3    H1 6864   3.794   0.803   1.187 -1.6596  0.9337  1.8848
 2286TIP3    H2 6865   3.784   0.773   1.039  2.1832  1.0768  1.4781
 2287TIP3   OH2 6866   2.722   4.869   1.305  0.0622  0.1486  1.0561
 2287TIP3    H1 6867   2.697   4.908   1.389 -0.1866  0.2948  0.9168
 2287TIP3    H2 6868   2.771   4.939   1.261  0.9003 -0.2101  1.4162
 2288TIP3   OH2 6869   4.319   0.490   4.708  0.1816  0.2563  0.6998
 2288TIP3    H1 6870   4.262   0.459   4.779  0.7149  0.0592  1.0507
 2288TIP3    H2 6871   4.407   0.490   4.747  0.5350 -0.2121 -0.0788
 2289TIP3   OH2 6872   4.167   1.500   2.863  0.3255  0.0868 -0.0865
 2289TIP3    H1 6873   4.106   1.513   2.935 -0.5606 -1.0962 -0.6012
 2289TIP3    H2 6874   4.254   1.505   2.904 -0.1419  0.3347  0.8925
 2290TIP3   OH2 6875   5.856   3.151   1.350  0.0333 -0.1824 -0.3068
 2290TIP3    H1 6876   5.879   3.132   1.441 -0.3994  1.3812  0.1495
 2290TIP3    H2 6877   5.762   3.136   1.345 -0.1652  0.9651 -0.1576
 2291TIP3   OH2 6878   3.417   2.675   4.326  0.2925 -0.3152 -0.4039
 2291TIP3    H1 6879   3.452   2.670   4.414  0.6092  0.0029 -0.5087
 2291TIP3    H2 6880   3.388   2.586   4.306  0.1111 -0.3627  0.0611
 2292TIP3   OH2 6881   3.315   5.713   0.869 -0.0394  0.7946 -0.2245
 2292TIP3    H1 6882   3.237   5.740   0.822  0.4734  0.6639 -1.1856
 2292TIP3    H2 6883   3.387   5.736   0.810  0.5400 -0.6054 -0.1077
 2293TIP3   OH2 6884   3.522   1.630   4.967  0.4548 -0.1766  0.0182
 2293TIP3    H1 6885   3.507   1.576   5.045  0.3123 -0.2093 -0.0335
 2293TIP3    H2 6886   3.572   1.705   5.000 -0.6421  0.4148  0.3598
 2294TIP3   OH2 6887   3.535   3.573   3.627  0.0733  0.2626  0.4797
 2294TIP3    H1 6888   3.493   3.577   3.541  0.8516  0.8207  0.1130
 2294TIP3    H2 6889   3.622   3.536   3.609  0.7449  1.6226  0.8139
 2295TIP3   OH2 6890   1.700   0.134   1.788  0.4365 -0.2471 -0.2249
 2295TIP3    H1 6891   1.666   0.050   1.757  1.3999 -0.7009 -0.0987
 2295TIP3    H2 6892   1.673   0.197   1.721 -1.4290 -0.3994  0.3280
 2296TIP3   OH2 6893   6.260   0.286   0.029 -0.1276  0.2277  0.5962
 2296TIP3    H1 6894   6.223   0.374   0.040 -1.6780 -0.1768 -0.8679
 2296TIP3    H2 6895   6.184   0.232   0.005  0.8923 -1.4007  0.9371
 2297TIP3   OH2 6896   1.241   0.631   1.134  0.6914 -0.1620 -0.5839
 2297TIP3    H1 6897   1.195   0.604   1.055 -0.6911 -0.6553  0.3442
 2297TIP3    H2 6898   1.287   0.552   1.164 -0.5457 -0.5961  0.2507
 2298TIP3   OH2 6899   0.724   5.104   1.586 -0.0945 -0.0394 -0.1633
 2298TIP3    H1 6900   0.706   5.140   1.499  0.2828  1.4817  0.3494
 2298TIP3    H2 6901   0.775   5.025   1.570 -0.4877 -0.0734 -1.3391
 2299TIP3   OH2 6902   2.809   2.027   1.028  0.0197 -0.0911 -0.3587
 2299TIP3    H1 6903   2.811   1.934   1.004  0.5946  0.1808 -1.4351
 2299TIP3    H2 6904   2.736   2.034   1.090  1.9925 -1.8569  2.4237
 2300TIP3   OH2 6905   2.144   1.379   1.667  0.5582  0.1782  0.5885
 2300TIP3    H1 6906   2.228   1.336   1.654  0.1097 -0.4799 -0.2073
 2300TIP3    H2 6907   2.080   1.319   1.630 -0.2170  0.9129  0.7003
 2301TIP3   OH2 6908   3.476   5.094   3.545  0.6227  0.2935 -0.0051
 2301TIP3    H1 6909   3.494   5.031   3.615 -0.0861 -1.0116 -0.9545
 2301TIP3    H2 6910   3.380   5.097   3.540  0.6547  1.3569 -0.0648
 2302TIP3   OH2 6911   5.741   4.371   1.248  0.1117  0.2041 -0.3644
 2302TIP3    H1 6912   5.669   4.384   1.309 -0.2925 -0.7526 -0.6232
 2302TIP3    H2 6913   5.704   4.319   1.177  1.1454 -0.6279 -0.3131
 2303TIP3   OH2 6914   3.039   5.379   0.481  0.2574  0.5682 -0.1078
 2303TIP3    H1 6915   2.972   5.446   0.466  0.7413  1.4749  1.5704
 2303TIP3    H2 6916   2.990   5.297   0.489 -0.9181  1.4251  2.7235
 2304TIP3   OH2 6917   1.809   3.272   4.669  0.4710  0.1134 -0.3662
 2304TIP3    H1 6918   1.815   3.227   4.754  0.1419 -0.0871 -0.4500
 2304TIP3    H2 6919   1.886   3.242   4.621  0.5605  0.0844 -0.2071
 2305TIP3   OH2 6920   1.362   2.945   3.517  0.0477  0.1137  0.2769
 2305TIP3    H1 6921   1.323   2.947   3.605 -0.0740 -1.1645  0.2801
 2305TIP3    H2 6922   1.295   2.905   3.462  0.6657 -0.4348 -0.0903
 2306TIP3   OH2 6923   3.397   3.490   3.124 -0.0228 -0.6270 -0.3995
 2306TIP3    H1 6924   3.458   3.518   3.057 -0.8379  0.5885 -0.6680
 2306TIP3    H2 6925   3.452   3.457   3.195  1.0333  1.5972 -0.1018
 2307TIP3   OH2 6926   0.040   3.037   0.131  0.0339  0.1962  0.0133
 2307TIP3    H1 6927   0.121   3.022   0.082 -0.0661  0.7957 -0.3531
 2307TIP3    H2 6928   0.065   3.097   0.201  0.0168 -0.0431  0.2242
 2308TIP3   OH2 6929   0.416   3.137   4.910 -0.0176 -0.1025 -0.1400
 2308TIP3    H1 6930   0.337   3.170   4.866 -0.9684 -2.1072 -0.0446
 2308TIP3    H2 6931   0.488   3.175   4.860 -1.0486  0.1079 -1.5505
 2309TIP3   OH2 6932   4.653   1.039   3.780  0.7308  0.1211  0.0397
 2309TIP3    H1 6933   4.742   1.076   3.782  0.7192  0.4243 -2.1414
 2309TIP3    H2 6934   4.662   0.960   3.727  0.0109 -0.9142  1.4104
 2310TIP3   OH2 6935   1.705   4.288   2.239  0.3551 -0.1168 -0.0330
 2310TIP3    H1 6936   1.647   4.292   2.315 -1.5216  0.2288 -1.3979
 2310TIP3    H2 6937   1.789   4.320   2.272 -0.8142  1.6443  1.5298
 2311TIP3   OH2 6938   1.762   2.340   0.892 -0.2424  0.2063 -0.6974
 2311TIP3    H1 6939   1.840   2.285   0.887 -0.2026  0.2413 -0.4394
 2311TIP3    H2 6940   1.780   2.413   0.832 -0.4805 -0.2930 -1.3872
 2312TIP3   OH2 6941   5.555   5.487   2.675  0.1096  0.2118 -0.0360
 2312TIP3    H1 6942   5.643   5.495   2.711  0.3144 -1.4740 -0.1114
 2312TIP3    H2 6943   5.548   5.560   2.613  1.6356  0.0961 -0.3921
 2313TIP3   OH2 6944   4.733   3.903   0.606 -0.1947 -0.1273 -0.0029
 2313TIP3    H1 6945   4.714   3.927   0.515 -1.0257  0.7728  0.3899
 2313TIP3    H2 6946   4.736   3.807   0.606  1.4237 -0.1097 -1.2852
 2314TIP3   OH2 6947   5.986   5.154   2.170  0.3612  0.7170 -0.0880
 2314TIP3    H1 6948   5.919   5.091   2.143  1.2048 -0.2183 -0.0536
 2314TIP3    H2 6949   6.016   5.193   2.088  0.6123  0.2558 -0.2228
 2315TIP3   OH2 6950   5.514   2.482   0.219  0.3145 -0.6169 -0.4201
 2315TIP3    H1 6951   5.543   2.394   0.241 -0.3738 -0.4248  1.4087
 2315TIP3    H2 6952   5.452   2.505   0.288  2.7228  2.4532  0.9603
 2316TIP3   OH2 6953   1.255   5.196   0.732 -0.3440  0.0467 -0.0530
 2316TIP3    H1 6954   1.214   5.174   0.648 -0.4922 -3.4762  0.7994
 2316TIP3    H2 6955   1.183   5.197   0.794  0.2641 -2.3339  0.7947
 2317TIP3   OH2 6956   3.694   0.930   2.705  0.2807  0.6157  0.4853
 2317TIP3    H1 6957   3.703   0.990   2.779  2.0157 -0.1287  0.9206
 2317TIP3    H2 6958   3.760   0.863   2.720  0.7494  0.4925 -1.8057
 2318TIP3   OH2 6959   6.137   0.529   0.041  0.6662  0.2693  0.0014
 2318TIP3    H1 6960   6.199   0.599   0.020 -0.7555  1.3445 -0.8190
 2318TIP3    H2 6961   6.084   0.520  -0.038 -0.1699 -0.6900  0.6485
 2319TIP3   OH2 6962   3.127   1.830   3.076  0.2333  0.4138  0.3150
 2319TIP3    H1 6963   3.110   1.905   3.133 -0.5704 -0.5074  1.3419
 2319TIP3    H2 6964   3.213   1.798   3.104 -0.1213  0.0169  0.9774
 2320TIP3   OH2 6965   5.961   2.780   4.542  0.2906 -0.0018  0.3412
 2320TIP3    H1 6966   6.019   2.706   4.524 -0.2111 -0.3854  0.2691
 2320TIP3    H2 6967   6.009   2.856   4.511  0.4296 -0.3974 -0.4284
 2321TIP3   OH2 6968   2.705   0.844   4.527 -0.2368 -0.3218  0.5436
 2321TIP3    H1 6969   2.725   0.911   4.593 -0.2104 -0.6248  0.8479
 2321TIP3    H2 6970   2.790   0.814   4.496 -0.2266  1.3137 -1.1930
 2322TIP3   OH2 6971   1.758   5.380   0.553  0.4931 -0.2678 -0.3183
 2322TIP3    H1 6972   1.725   5.391   0.464  0.6816 -1.5875 -0.5591
 2322TIP3    H2 6973   1.832   5.320   0.545  0.0473 -1.0030  0.8165
 2323TIP3   OH2 6974   2.848   5.100   3.663 -0.1610  0.1869  0.3970
 2323TIP3    H1 6975   2.778   5.079   3.725 -0.9370 -0.8106 -0.7733
 2323TIP3    H2 6976   2.914   5.145   3.716 -2.0663  2.0202  1.3573
 2324TIP3   OH2 6977   5.751   4.159   3.757  0.2064  0.6370  0.0917
 2324TIP3    H1 6978   5.666   4.200   3.742 -1.0492 -1.4823  1.0460
 2324TIP3    H2 6979   5.763   4.159   3.852  0.4866 -0.5465  0.0759
 2325TIP3   OH2 6980   0.999   1.140   2.745 -0.1146 -0.1515 -0.2328
 2325TIP3    H1 6981   0.906   1.117   2.742  0.1232 -1.3022  0.4996
 2325TIP3    H2 6982   1.042   1.061   2.778  0.8594  1.1354  1.7910
 2326TIP3   OH2 6983   0.515   1.855   1.632 -0.0259 -0.5897  0.0803
 2326TIP3    H1 6984   0.443   1.798   1.605  0.5212 -1.6174  0.7066
 2326TIP3    H2 6985   0.534   1.907   1.555  0.0501 -1.8974 -0.8237
 2327TIP3   OH2 6986   5.011   0.243   2.648 -0.1364  0.0641  0.1056
 2327TIP3    H1 6987   4.954   0.245   2.725 -1.1162 -1.3984 -0.5390
 2327TIP3    H2 6988   5.096   0.218   2.683 -0.2088  0.8496  0.8950
 2328TIP3   OH2 6989   3.450   4.792   0.881  0.3510  1.1730 -0.3047
 2328TIP3    H1 6990   3.512   4.742   0.829  0.1692  0.2673  0.3175
 2328TIP3    H2 6991   3.484   4.788   0.970 -1.3033 -0.5730  0.3143
 2329TIP3   OH2 6992   3.829   2.090   0.786  0.1467 -0.1247  0.0703
 2329TIP3    H1 6993   3.756   2.118   0.730 -1.1466 -1.6221  0.9210
 2329TIP3    H2 6994   3.886   2.166   0.790  0.0533  0.2175 -2.8449
 2330TIP3   OH2 6995   0.060   5.876   4.478 -0.2854  0.2511  0.6877
 2330TIP3    H1 6996  -0.006   5.937   4.447  0.2191  0.1786 -0.5889
 2330TIP3    H2 6997   0.039   5.863   4.570 -1.2102  1.2944  0.6473
 2331TIP3   OH2 6998   4.975   3.480   3.608  0.5579  0.0576  0.2174
 2331TIP3    H1 6999   5.045   3.507   3.548 -0.2258 -0.5437 -1.0257
 2331TIP3    H2 7000   5.012   3.491   3.695  2.6165 -1.2884 -0.4037
 2332TIP3   OH2 7001   5.512   2.706   1.054 -0.0367  0.1908  0.1266
 2332TIP3    H1 7002   5.545   2.707   0.965  1.2404  3.0073  0.5341
 2332TIP3    H2 7003   5.453   2.630   1.057  2.1475 -1.7744 -2.2041
 2333TIP3   OH2 7004   5.737   1.944   0.314  0.3649 -0.5306 -0.0835
 2333TIP3    H1 7005   5.817   1.905   0.278 -0.0302  0.0590 -1.6892
 2333TIP3    H2 7006   5.766   2.026   0.353  0.5292 -0.2164 -0.8504
 2334TIP3   OH2 7007   3.993   2.885   2.494 -0.3259 -0.4793  0.0311
 2334TIP3    H1 7008   4.086   2.869   2.478  0.0562  0.3475  1.2695
 2334TIP3    H2 7009   3.978   2.974   2.462 -0.9709 -1.0070 -1.1836
 2335TIP3   OH2 7010   0.256   1.730   2.916  0.3163 -0.1268 -0.3041
 2335TIP3    H1 7011   0.176   1.734   2.969  0.8085  0.0581  0.4398
 2335TIP3    H2 7012   0.259   1.639   2.886 -0.6828  0.1032 -1.1559
 2336TIP3   OH2 7013   3.430   2.234   3.209 -0.2331  0.0504  0.1461
 2336TIP3    H1 7014   3.467   2.190   3.285  0.4955 -0.6573 -0.6009
 2336TIP3    H2 7015   3.464   2.323   3.214  1.0777 -0.4076 -0.1683
 2337TIP3   OH2 7016   3.639   5.435   2.942  0.2010  0.1826  0.5498
 2337TIP3    H1 7017   3.562   5.455   2.888  0.6398  0.1476 -0.0973
 2337TIP3    H2 7018   3.606   5.373   3.007 -0.3177  0.1445  0.2605
 2338TIP3   OH2 7019   4.078   2.771   4.688  0.0641  0.6537  0.4738
 2338TIP3    H1 7020   4.012   2.713   4.651  0.1995  0.1796  0.9520
 2338TIP3    H2 7021   4.059   2.857   4.651  0.2620  0.1793 -0.7668
 2339TIP3   OH2 7022   2.651   3.416   2.121  0.4706  0.0094 -0.0841
 2339TIP3    H1 7023   2.592   3.366   2.064 -1.1648  1.3602  0.3366
 2339TIP3    H2 7024   2.709   3.463   2.061  1.0850 -1.2373 -0.5096
 2340TIP3   OH2 7025   3.768   2.052   3.129  0.3401 -0.4269 -0.0169
 2340TIP3    H1 7026   3.843   2.016   3.177  2.2387 -0.5251 -2.7941
 2340TIP3    H2 7027   3.801   2.063   3.040 -1.6328  3.6308 -0.4643
 2341TIP3   OH2 7028   4.123   1.009   2.039 -0.3734 -0.2829 -0.0133
 2341TIP3    H1 7029   4.120   1.082   1.976 -1.6572  0.3520  0.7382
 2341TIP3    H2 7030   4.168   1.046   2.115  2.7986 -1.5541 -1.0671
 2342TIP3   OH2 7031   2.727   2.476   0.798  0.1220  0.1505 -0.4139
 2342TIP3    H1 7032   2.797   2.421   0.833 -0.5583 -0.3096  0.2555
 2342TIP3    H2 7033   2.653   2.462   0.858 -0.6606  0.3419 -1.3068
 2343TIP3   OH2 7034   2.520   4.802   4.846  0.1112  0.3597  0.5242
 2343TIP3    H1 7035   2.578   4.877   4.831 -1.6607  2.0448  1.5501
 2343TIP3    H2 7036   2.567   4.747   4.909  0.6405  1.6528  1.3023
 2344TIP3   OH2 7037   0.763   4.650   1.113 -0.7473  0.3733  0.7165
 2344TIP3    H1 7038   0.779   4.744   1.107  0.3344  0.2445  1.4373
 2344TIP3    H2 7039   0.756   4.632   1.207  1.4733 -0.6199  0.7534
 2345TIP3   OH2 7040   3.050   0.433   4.475  0.4289 -0.1529  0.6418
 2345TIP3    H1 7041   3.089   0.355   4.435 -0.2210  0.4510 -1.2684
 2345TIP3    H2 7042   3.071   0.504   4.414 -0.8567  0.7719  1.2335
 2346TIP3   OH2 7043   4.399   3.003   3.188 -0.7196  0.1429  0.0320
 2346TIP3    H1 7044   4.397   3.091   3.226  1.4571  0.9072 -1.4639
 2346TIP3    H2 7045   4.461   2.955   3.242 -0.8926 -0.0857  0.0300
 2347TIP3   OH2 7046   4.680   5.323   0.886 -0.0942 -0.3078  0.0863
 2347TIP3    H1 7047   4.706   5.231   0.885 -0.8512 -0.5469 -1.6416
 2347TIP3    H2 7048   4.593   5.323   0.925 -0.7738 -0.5724 -1.3609
 2348TIP3   OH2 7049   1.535   4.383   2.424  0.4573  0.1738 -0.5313
 2348TIP3    H1 7050   1.526   4.476   2.404 -0.5432  0.2168  0.0625
 2348TIP3    H2 7051   1.452   4.358   2.464  1.2852 -0.5791  0.8447
 2349TIP3   OH2 7052   3.859   5.634   4.946 -0.2166  0.2844 -0.2508
 2349TIP3    H1 7053   3.830   5.665   4.860 -0.3300 -1.1429 -0.7434
 2349TIP3    H2 7054   3.942   5.589   4.929  1.0899  2.1492  0.7862
 2350TIP3   OH2 7055   1.845   5.833   3.678  0.2696 -0.5229  0.0220
 2350TIP3    H1 7056   1.828   5.877   3.762  0.3471  2.0213 -1.2061
 2350TIP3    H2 7057   1.768   5.779   3.663 -1.3992  1.7016  0.1213
 2351TIP3   OH2 7058   1.491   3.701   4.758  0.2504 -0.1276  0.0026
 2351TIP3    H1 7059   1.557   3.679   4.823  0.3042 -0.0955 -0.0408
 2351TIP3    H2 7060   1.471   3.794   4.775 -1.9098 -0.8446  1.9255
 2352TIP3   OH2 7061   5.667   1.269   0.792 -0.1340 -0.0181 -0.0140
 2352TIP3    H1 7062   5.669   1.325   0.870 -0.0265 -0.7920  0.5405
 2352TIP3    H2 7063   5.679   1.180   0.825  0.5580 -0.3013 -0.9688
 2353TIP3   OH2 7064   3.285   3.392   1.756 -0.3361  0.1378 -0.2226
 2353TIP3    H1 7065   3.216   3.331   1.783 -1.1384  1.0282 -0.2028
 2353TIP3    H2 7066   3.364   3.338   1.751 -1.3063 -1.2402 -1.7562
 2354TIP3   OH2 7067   0.730   1.746   4.276 -0.5578  0.8806  0.5423
 2354TIP3    H1 7068   0.765   1.810   4.214  2.1311 -0.5433  0.4152
 2354TIP3    H2 7069   0.697   1.675   4.221  1.4335 -0.1895  0.6526
 2355TIP3   OH2 7070   6.136   4.347   0.409  0.1690 -0.0647  0.4052
 2355TIP3    H1 7071   6.186   4.421   0.444  0.4228  0.5530 -1.1744
 2355TIP3    H2 7072   6.055   4.346   0.460  0.5053  0.8072  0.9736
 2356TIP3   OH2 7073   1.259   3.436   3.987 -0.1378  0.1422 -0.4901
 2356TIP3    H1 7074   1.305   3.405   4.065  1.2918  1.8032 -0.6262
 2356TIP3    H2 7075   1.215   3.358   3.953  3.4911 -1.8915 -0.9950
 2357TIP3   OH2 7076   4.097   5.819   2.108 -0.1588 -0.4051 -0.1624
 2357TIP3    H1 7077   4.066   5.735   2.142 -0.8040  0.2319  0.8628
 2357TIP3    H2 7078   4.186   5.801   2.076 -0.1735 -1.3987  0.3330
 2358TIP3   OH2 7079   2.666   5.047   0.314  0.3763 -0.3065  0.5734
 2358TIP3    H1 7080   2.730   5.012   0.252 -0.5491  0.6671 -1.0017
 2358TIP3    H2 7081   2.641   4.971   0.367  2.7459 -0.7184  1.2192
 2359TIP3   OH2 7082   4.222   2.869   0.321 -0.3533 -0.2273  0.3891
 2359TIP3    H1 7083   4.243   2.796   0.380  1.5304 -0.0291  0.0540
 2359TIP3    H2 7084   4.214   2.945   0.379 -0.4522 -0.3780  0.5733
 2360TIP3   OH2 7085   4.144   3.664   2.905 -0.3040 -0.4487  0.7223
 2360TIP3    H1 7086   4.108   3.746   2.939  0.4928  0.3404 -0.2736
 2360TIP3    H2 7087   4.113   3.659   2.815 -1.2684 -1.8287  1.0986
 2361TIP3   OH2 7088   5.765   5.805   1.436 -0.2590  0.4931 -0.4178
 2361TIP3    H1 7089   5.739   5.784   1.525  0.2292 -0.9426 -0.5968
 2361TIP3    H2 7090   5.807   5.891   1.443 -0.5175  0.5398  0.6719
 2362TIP3   OH2 7091   5.317   5.293   0.503  0.0425  0.4866  0.3148
 2362TIP3    H1 7092   5.387   5.286   0.439 -0.2934 -0.0397 -0.0021
 2362TIP3    H2 7093   5.280   5.205   0.509 -2.0672  1.1691 -1.2205
 2363TIP3   OH2 7094   4.920   4.697   4.594 -0.0711  0.1455  0.3646
 2363TIP3    H1 7095   4.828   4.683   4.572 -0.3207  0.5627  1.0948
 2363TIP3    H2 7096   4.939   4.786   4.565  0.4723 -0.3712 -0.9311
 2364TIP3   OH2 7097   6.170   3.498   0.471  0.3788 -0.2640 -0.1726
 2364TIP3    H1 7098   6.205   3.426   0.524  1.9052 -0.0953 -0.9062
 2364TIP3    H2 7099   6.087   3.464   0.436  1.0242 -1.6402 -0.4353
 2365TIP3   OH2 7100   3.537   3.406   0.945  0.2543  0.1844 -0.3135
 2365TIP3    H1 7101   3.543   3.379   1.036 -0.2839 -1.3437 -0.6824
 2365TIP3    H2 7102   3.565   3.329   0.895  0.7638  1.0633 -1.4333
 2366TIP3   OH2 7103   1.373   2.314   0.412 -0.5032 -0.1081  0.6565
 2366TIP3    H1 7104   1.455   2.322   0.461  0.1479  3.4598 -0.6449
 2366TIP3    H2 7105   1.320   2.388   0.443 -1.2482  0.4738 -1.7770
 2367TIP3   OH2 7106   0.287   0.084   0.249  0.3962  0.4101  0.0376
 2367TIP3    H1 7107   0.371   0.119   0.220  0.5535  0.1532  0.1820
 2367TIP3    H2 7108   0.223   0.120   0.187  0.7063  0.0145 -0.5230
 2368TIP3   OH2 7109   5.850   4.545   1.699 -0.2580  0.0769  0.0287
 2368TIP3    H1 7110   5.764   4.562   1.739 -0.8163  3.8535 -2.2747
 2368TIP3    H2 7111   5.910   4.599   1.750 -0.3359  1.8921 -1.6808
 2369TIP3   OH2 7112   4.252   4.516   2.311  0.1815  0.4694 -0.6157
 2369TIP3    H1 7113   4.250   4.602   2.352 -0.2530 -0.4627  1.4202
 2369TIP3    H2 7114   4.164   4.480   2.325  0.8565 -0.9797  0.1386
 2370TIP3   OH2 7115   1.949   2.502   5.050  0.2489  0.5125  0.2203
 2370TIP3    H1 7116   1.863   2.534   5.076  0.1656  0.2694  0.2434
 2370TIP3    H2 7117   1.956   2.415   5.090  0.2092  0.2251 -0.3938
 2371TIP3   OH2 7118   3.784   1.681   0.324 -0.0897 -0.1287 -0.1481
 2371TIP3    H1 7119   3.853   1.684   0.390  1.1837 -0.8709 -1.3950
 2371TIP3    H2 7120   3.827   1.705   0.243 -1.2162 -1.0079 -1.0440
 2372TIP3   OH2 7121   5.992   5.307   1.944  0.3113  0.3202 -0.8943
 2372TIP3    H1 7122   6.010   5.401   1.949 -0.7637  0.5533 -1.2784
 2372TIP3    H2 7123   5.948   5.295   1.860 -2.0732 -0.0827  0.3196
 2373TIP3   OH2 7124   3.162   2.401   0.611 -0.0252 -0.1226  0.3744
 2373TIP3    H1 7125   3.191   2.481   0.567 -0.5227 -0.4163 -0.5160
 2373TIP3    H2 7126   3.243   2.354   0.631  0.2189  0.0237 -0.2299
 2374TIP3   OH2 7127   3.561   1.820   3.020 -0.2744  0.5126 -0.0873
 2374TIP3    H1 7128   3.641   1.872   3.016  0.0475  0.2993  2.0524
 2374TIP3    H2 7129   3.491   1.883   3.005  0.2046  1.1614  0.3352
 2375TIP3   OH2 7130   3.238   1.714   3.949 -0.5133  0.4693  0.0362
 2375TIP3    H1 7131   3.314   1.735   4.002  0.2554 -0.4437 -0.6543
 2375TIP3    H2 7132   3.259   1.749   3.862 -0.6489 -0.1887 -0.2749
 2376TIP3   OH2 7133   5.089   3.455   3.287  0.3203 -0.6406  0.6593
 2376TIP3    H1 7134   5.123   3.523   3.345  0.1410 -0.4331  0.5269
 2376TIP3    H2 7135   5.157   3.388   3.285  0.6022 -0.3553  0.6056
 2377TIP3   OH2 7136   2.221   1.930   3.127 -0.0478  0.4121  0.3072
 2377TIP3    H1 7137   2.159   2.000   3.105 -3.1011 -2.1475  0.1923
 2377TIP3    H2 7138   2.244   1.892   3.042 -0.0709 -0.0577  0.5127
 2378TIP3   OH2 7139   2.850   2.870   0.931  0.1720  0.0311  0.7104
 2378TIP3    H1 7140   2.923   2.808   0.927 -0.2888 -0.4858  0.2921
 2378TIP3    H2 7141   2.797   2.841   1.005 -1.1623 -1.3482 -0.7069
 2379TIP3   OH2 7142   4.669   2.621   4.353  0.0312 -0.0715  0.3294
 2379TIP3    H1 7143   4.700   2.703   4.391 -0.8288  0.0265  0.8419
 2379TIP3    H2 7144   4.614   2.648   4.280 -1.2405 -0.1326  1.2361
 2380TIP3   OH2 7145   1.902   5.119   3.141  0.0780  0.0418 -0.1887
 2380TIP3    H1 7146   1.912   5.033   3.102  0.4819  0.5824 -1.3404
 2380TIP3    H2 7147   1.962   5.120   3.215  1.9662  0.1471 -1.6337
 2381TIP3   OH2 7148   2.732   0.098   1.114  0.0913  0.7992  0.3090
 2381TIP3    H1 7149   2.777   0.122   1.196  0.8618  1.7776 -0.3799
 2381TIP3    H2 7150   2.676   0.174   1.095 -0.8625  0.1480  0.4420
 2382TIP3   OH2 7151   5.617   4.501   4.681  0.5155  0.6121  0.5398
 2382TIP3    H1 7152   5.709   4.520   4.666  0.1037  2.8859  0.4938
 2382TIP3    H2 7153   5.577   4.587   4.700 -1.2480 -0.5315  2.4527
 2383TIP3   OH2 7154   2.032   1.345   4.788 -0.0724 -0.2355  0.3332
 2383TIP3    H1 7155   2.021   1.405   4.861 -2.5483 -0.2053  0.0140
 2383TIP3    H2 7156   2.068   1.265   4.827 -0.5234  0.0910  1.4356
 2384TIP3   OH2 7157   1.207   5.840   3.987 -0.2718 -0.3873 -0.3188
 2384TIP3    H1 7158   1.184   5.747   3.979  0.4759 -0.8746  2.1848
 2384TIP3    H2 7159   1.279   5.852   3.925  1.3099 -2.1731  1.0475
 2385TIP3   OH2 7160   5.385   2.709   2.995 -0.2598 -0.6061  0.1456
 2385TIP3    H1 7161   5.356   2.800   2.991 -0.1027 -0.4815  1.6003
 2385TIP3    H2 7162   5.326   2.667   3.057 -1.9991 -2.1749 -2.3983
 2386TIP3   OH2 7163   3.742   3.331   4.775  0.5233 -0.3747  0.3939
 2386TIP3    H1 7164   3.764   3.337   4.682 -1.2488  2.2488  0.0359
 2386TIP3    H2 7165   3.648   3.313   4.777  0.8232 -2.1454  1.7628
 2387TIP3   OH2 7166   4.929   5.121   2.760  0.2847  0.1805 -0.1949
 2387TIP3    H1 7167   4.907   5.083   2.845  0.3880  1.7412  0.5566
 2387TIP3    H2 7168   4.845   5.151   2.725  0.2665 -0.3056 -0.5882
 2388TIP3   OH2 7169   1.502   1.559   2.322  0.7082 -0.1029  0.4808
 2388TIP3    H1 7170   1.423   1.517   2.288  0.5857  1.2662 -1.0562
 2388TIP3    H2 7171   1.514   1.522   2.409  0.0009 -2.4498 -0.3573
 2389TIP3   OH2 7172   3.813   0.898   1.693  0.2251  0.3057 -0.5786
 2389TIP3    H1 7173   3.802   0.955   1.770  3.1539 -1.0166  0.9826
 2389TIP3    H2 7174   3.846   0.957   1.625  2.9509  0.6842  0.9212
 2390TIP3   OH2 7175   0.480   2.102   0.240  0.5087 -0.1311  0.0379
 2390TIP3    H1 7176   0.468   2.011   0.212  1.5743 -0.8221  1.7171
 2390TIP3    H2 7177   0.553   2.099   0.302 -0.0179  1.7410  0.8068
 2391TIP3   OH2 7178   4.378   1.144   5.173  0.0965 -0.6055 -0.0125
 2391TIP3    H1 7179   4.467   1.116   5.149  0.2021  0.2715 -0.7043
 2391TIP3    H2 7180   4.389   1.230   5.212 -0.4496 -0.4998 -0.0793
 2392TIP3   OH2 7181   1.356   1.254   1.119  0.2459 -0.2705 -0.1449
 2392TIP3    H1 7182   1.369   1.323   1.053  0.4226  0.6645  0.8333
 2392TIP3    H2 7183   1.437   1.255   1.170  0.7034 -1.9818 -0.7798
 2393TIP3   OH2 7184   2.320   2.605   3.895  0.0589 -0.6199  0.3291
 2393TIP3    H1 7185   2.357   2.601   3.983  0.8119  1.0805  0.1245
 2393TIP3    H2 7186   2.290   2.516   3.877 -2.0948 -0.5924  3.1148
 2394TIP3   OH2 7187   2.908   1.429   2.331 -0.0558 -0.5594  0.1330
 2394TIP3    H1 7188   2.942   1.425   2.242 -1.7901 -2.7895 -0.5170
 2394TIP3    H2 7189   2.902   1.523   2.351  0.9974 -0.0332 -1.7975
 2395TIP3   OH2 7190   5.696   1.236   5.203 -0.3121  0.2745 -0.1026
 2395TIP3    H1 7191   5.738   1.169   5.149 -0.8007 -0.2416  0.1537
 2395TIP3    H2 7192   5.688   1.312   5.145 -1.3939 -0.4675 -0.9539
 2396TIP3   OH2 7193   0.150   3.873   0.315  0.2311  0.5261  0.4020
 2396TIP3    H1 7194   0.188   3.871   0.228  3.4350 -1.6447  1.6748
 2396TIP3    H2 7195   0.095   3.795   0.320  0.3899  0.4191  0.4704
 2397TIP3   OH2 7196   0.745   1.072   0.433  0.0246  0.0256 -0.2667
 2397TIP3    H1 7197   0.774   0.985   0.462  0.0791 -0.2803 -1.1902
 2397TIP3    H2 7198   0.695   1.054   0.352  0.5916  0.9104 -0.8222
 2398TIP3   OH2 7199   0.995   1.450   1.329  0.1720 -0.6058 -0.1355
 2398TIP3    H1 7200   0.934   1.412   1.393  0.2653 -1.8714 -0.7533
 2398TIP3    H2 7201   1.026   1.374   1.278  3.0864 -0.1754  0.8280
 2399TIP3   OH2 7202   5.859   4.871   1.344 -0.3412  0.0882  0.0572
 2399TIP3    H1 7203   5.897   4.939   1.288 -1.8515  2.3050  1.5764
 2399TIP3    H2 7204   5.935   4.821   1.375  0.6976  0.1287 -2.1982
 2400TIP3   OH2 7205   4.214   5.775   2.703 -0.0305 -0.0330  0.1518
 2400TIP3    H1 7206   4.259   5.793   2.786  1.2371 -0.7384 -0.3657
 2400TIP3    H2 7207   4.216   5.680   2.695 -1.1716 -0.0431 -0.1507
 2401TIP3   OH2 7208   2.707   0.967   0.685  0.1308 -0.4153 -0.2303
 2401TIP3    H1 7209   2.705   1.055   0.721 -0.6882 -0.4783 -0.0862
 2401TIP3    H2 7210   2.742   0.912   0.755 -1.4036 -0.5294  0.5046
 2402TIP3   OH2 7211   5.893   0.098   1.782  0.2823 -0.5496 -0.3198
 2402TIP3    H1 7212   5.923   0.185   1.754 -0.0968 -0.1987  0.3330
 2402TIP3    H2 7213   5.809   0.087   1.738 -0.2584 -0.0475  0.5533
 2403TIP3   OH2 7214   2.012   1.702   2.451  0.0135  0.1402  0.0466
 2403TIP3    H1 7215   2.029   1.796   2.459 -3.1731  0.7095  1.7070
 2403TIP3    H2 7216   1.950   1.695   2.378 -0.1001 -0.6036  0.2058
 2404TIP3   OH2 7217   0.982   4.360   1.231 -0.0144  0.0833 -0.3787
 2404TIP3    H1 7218   0.971   4.269   1.205  0.6135  0.1071 -0.7513
 2404TIP3    H2 7219   0.898   4.384   1.271  0.7846 -1.6310  2.7097
 2405TIP3   OH2 7220   3.459   2.318   1.103 -0.4265  0.3970 -0.7133
 2405TIP3    H1 7221   3.443   2.360   1.188  0.6795  1.8803 -1.1792
 2405TIP3    H2 7222   3.502   2.236   1.125  1.5858  1.6074  0.1689
 2406TIP3   OH2 7223   3.934   1.192   2.703  0.3753  0.0352  0.3079
 2406TIP3    H1 7224   3.993   1.137   2.755  0.9759  0.3168 -0.0602
 2406TIP3    H2 7225   3.876   1.233   2.767 -1.1054 -2.1586  0.4997
 2407TIP3   OH2 7226   5.710   2.151   0.539 -0.6218 -0.4332 -0.2934
 2407TIP3    H1 7227   5.697   2.069   0.586 -2.7028 -0.8842 -1.5226
 2407TIP3    H2 7228   5.803   2.153   0.518 -0.5630 -2.6000 -0.4276
 2408TIP3   OH2 7229   5.210   4.043   4.038  1.2068  0.6878  0.2638
 2408TIP3    H1 7230   5.239   4.134   4.036 -1.2371  1.5328 -0.5330
 2408TIP3    H2 7231   5.136   4.043   4.099 -0.9893  0.0432 -2.2137
 2409TIP3   OH2 7232   3.457   1.836   0.337 -0.5885 -0.3876  0.4362
 2409TIP3    H1 7233   3.432   1.764   0.280 -2.4832  0.0366  0.6569
 2409TIP3    H2 7234   3.481   1.907   0.277 -1.1718 -0.3992  0.1854
 2410TIP3   OH2 7235   2.308   5.454   1.505  0.1062  0.0339  0.7361
 2410TIP3    H1 7236   2.367   5.522   1.474 -1.6501  1.8463  1.1825
 2410TIP3    H2 7237   2.254   5.496   1.572 -4.1193 -0.3292 -2.0503
 2411TIP3   OH2 7238   0.754   2.200   2.230 -0.3341 -0.1043  0.3955
 2411TIP3    H1 7239   0.730   2.240   2.147  0.0593 -1.0094 -0.1764
 2411TIP3    H2 7240   0.775   2.273   2.288 -1.6236  0.5747  0.0311
 2412TIP3   OH2 7241   4.197   5.215   1.626  0.0282  0.4461  1.0121
 2412TIP3    H1 7242   4.142   5.292   1.638  0.3660  0.6605  1.1953
 2412TIP3    H2 7243   4.137   5.148   1.593 -0.3501  0.6599  1.2609
 2413TIP3   OH2 7244   1.486   0.138   4.442  0.0553  0.0149 -0.2931
 2413TIP3    H1 7245   1.482   0.187   4.360 -0.4646 -0.3808 -0.5094
 2413TIP3    H2 7246   1.572   0.095   4.439  0.9479  1.6715  0.3580
 2414TIP3   OH2 7247   6.123   3.018   0.057  0.1855 -0.6341 -0.0278
 2414TIP3    H1 7248   6.063   2.972   0.116  0.3641  1.9963  2.4469
 2414TIP3    H2 7249   6.210   2.984   0.080  0.4019  1.1728  2.3227
 2415TIP3   OH2 7250   1.103   4.132   1.710  0.1369  0.3478  0.5050
 2415TIP3    H1 7251   1.051   4.140   1.630  1.0592 -0.2787 -0.1771
 2415TIP3    H2 7252   1.185   4.177   1.690 -0.0789  1.2490  1.5379
 2416TIP3   OH2 7253   0.052   2.215   0.552  0.2026 -0.3588  0.2058
 2416TIP3    H1 7254   0.130   2.259   0.517  0.0239  0.2759  0.5866
 2416TIP3    H2 7255   0.085   2.160   0.623  0.5171 -1.3662 -0.6891
 2417TIP3   OH2 7256   0.577   3.244   4.495  0.3537  0.3664  0.0559
 2417TIP3    H1 7257   0.642   3.205   4.436  2.4664  0.1657  2.3480
 2417TIP3    H2 7258   0.492   3.222   4.456  1.6248 -0.4383 -2.4192
 2418TIP3   OH2 7259   0.636   1.409   2.202 -0.3258 -0.1280  0.4583
 2418TIP3    H1 7260   0.632   1.449   2.115  1.0016 -2.0462 -0.5670
 2418TIP3    H2 7261   0.544   1.392   2.224 -0.8776  2.6325  0.6109
 2419TIP3   OH2 7262   4.846   1.169   1.329 -0.5112 -0.1345  0.2034
 2419TIP3    H1 7263   4.935   1.170   1.293 -0.7946 -0.7884 -0.5514
 2419TIP3    H2 7264   4.853   1.117   1.409 -0.3797 -0.9652 -0.3388
 2420TIP3   OH2 7265   5.292   5.412   2.435  0.0780  0.0710 -0.0527
 2420TIP3    H1 7266   5.242   5.373   2.507  1.2308  0.1577  0.8128
 2420TIP3    H2 7267   5.369   5.357   2.425  0.7842  1.0354 -0.0796
 2421TIP3   OH2 7268   1.639   3.473   3.332  0.1709 -0.7076  1.0635
 2421TIP3    H1 7269   1.597   3.531   3.268 -0.6953 -1.1677  1.2098
 2421TIP3    H2 7270   1.725   3.514   3.348  0.9434 -1.2374 -1.3266
 2422TIP3   OH2 7271   1.326   3.483   1.988 -0.1639 -0.2055 -0.1786
 2422TIP3    H1 7272   1.367   3.537   2.055 -0.8573 -0.4486  0.4564
 2422TIP3    H2 7273   1.307   3.400   2.032 -3.4026  0.6441  0.2871
 2423TIP3   OH2 7274   0.957   5.791   0.033 -0.4191  0.1058  0.5711
 2423TIP3    H1 7275   0.943   5.886   0.035  1.2149  0.3983 -0.0206
 2423TIP3    H2 7276   0.950   5.764   0.124  1.2337  1.1755  1.0690
 2424TIP3   OH2 7277   2.136   3.970   1.698 -0.1940 -0.0084 -0.5592
 2424TIP3    H1 7278   2.043   3.954   1.682 -0.2792  0.9426 -1.0304
 2424TIP3    H2 7279   2.179   3.941   1.618  0.0805 -1.7647  0.1752
 2425TIP3   OH2 7280   0.569   3.017   0.997  0.1899 -0.0580 -0.0337
 2425TIP3    H1 7281   0.513   2.989   1.070  0.7995  0.1836  0.5371
 2425TIP3    H2 7282   0.560   2.948   0.932  1.4629 -1.4907  1.2345
 2426TIP3   OH2 7283   3.756   4.281   1.790  0.0162  0.1241 -0.2646
 2426TIP3    H1 7284   3.694   4.225   1.743  0.8700 -0.8449 -0.2741
 2426TIP3    H2 7285   3.721   4.369   1.779 -2.9970 -0.6084  2.2165
 2427TIP3   OH2 7286   1.252   3.452   0.626 -0.1968 -0.3524 -0.0830
 2427TIP3    H1 7287   1.346   3.451   0.609  0.0249 -1.0499  1.0671
 2427TIP3    H2 7288   1.229   3.545   0.627  0.6421 -0.1418  0.4307
 2428TIP3   OH2 7289   6.054   1.352   0.962  0.5857  0.0579  0.2904
 2428TIP3    H1 7290   6.015   1.295   1.028 -1.2951  0.0733 -0.7432
 2428TIP3    H2 7291   6.148   1.345   0.977  0.2640 -0.7177  2.2995
 2429TIP3   OH2 7292   2.729   5.012   1.783 -0.0144  0.0388  0.1862
 2429TIP3    H1 7293   2.789   4.948   1.821  0.6779  1.3259  1.3390
 2429TIP3    H2 7294   2.644   4.989   1.821  0.1856 -0.3628  0.3983
 2430TIP3   OH2 7295   4.961   5.931   4.422 -0.4879  0.8095  0.3091
 2430TIP3    H1 7296   4.938   5.855   4.475 -0.5031 -0.3194 -1.2273
 2430TIP3    H2 7297   5.028   5.977   4.473 -0.3511 -0.3366  1.2077
 2431TIP3   OH2 7298   0.775   3.392   4.136 -0.2370 -0.2544  0.1198
 2431TIP3    H1 7299   0.817   3.426   4.215  0.1627  0.6794 -0.4873
 2431TIP3    H2 7300   0.724   3.465   4.102  1.9363  0.3356 -2.1276
 2432TIP3   OH2 7301   3.571   4.003   4.350 -0.2788  0.5775 -0.2162
 2432TIP3    H1 7302   3.580   4.068   4.420 -0.4778  0.5222 -0.1396
 2432TIP3    H2 7303   3.521   4.047   4.282 -1.6717  0.0365  0.4338
 2433TIP3   OH2 7304   1.515   0.685   1.560 -0.5127 -0.1095  0.2444
 2433TIP3    H1 7305   1.438   0.713   1.511  0.2177  1.6638  0.0476
 2433TIP3    H2 7306   1.506   0.727   1.645  1.7568  2.8487 -0.8311
 2434TIP3   OH2 7307   0.445   1.423   1.887  0.0277  0.2184 -0.3294
 2434TIP3    H1 7308   0.495   1.355   1.841  0.8839 -2.6950  4.1979
 2434TIP3    H2 7309   0.512   1.480   1.925 -0.1041 -1.0624  2.0592
 2435TIP3   OH2 7310   3.605   3.926   5.019  0.1771  0.8457 -0.0257
 2435TIP3    H1 7311   3.623   3.986   4.946  0.3228 -0.4692 -1.1079
 2435TIP3    H2 7312   3.542   3.973   5.073 -0.4968  1.5718 -1.3860
 2436TIP3   OH2 7313   5.321   5.123   1.016  0.6500  0.3734 -0.0593
 2436TIP3    H1 7314   5.365   5.071   0.949 -0.9030  0.8496 -1.5474
 2436TIP3    H2 7315   5.229   5.095   1.010  0.6534 -0.5763  2.8822
 2437TIP3   OH2 7316   3.212   3.563   2.065 -0.1172 -0.5460  0.1431
 2437TIP3    H1 7317   3.239   3.516   1.986 -3.6610 -1.7121 -0.5797
 2437TIP3    H2 7318   3.197   3.652   2.035  0.9913 -0.3441  0.1424
 2438TIP3   OH2 7319   0.158   1.807   4.629  0.7954  0.4438  0.1224
 2438TIP3    H1 7320   0.239   1.838   4.669  0.9853  2.6485 -1.7450
 2438TIP3    H2 7321   0.187   1.750   4.558  0.7383  0.9994 -0.3591
 2439TIP3   OH2 7322   3.935   3.465   3.187  0.5653  0.0255  0.2486
 2439TIP3    H1 7323   3.853   3.416   3.180  0.1790  0.5443  0.9698
 2439TIP3    H2 7324   3.909   3.557   3.178  1.0029  0.2222  0.9216
 2440TIP3   OH2 7325   1.598   3.439   0.907 -0.4712 -0.1775 -0.3216
 2440TIP3    H1 7326   1.585   3.534   0.905  0.7583 -0.0067 -2.9642
 2440TIP3    H2 7327   1.684   3.427   0.947 -1.6642 -0.4106  2.3871
 2441TIP3   OH2 7328   2.366   3.033   1.433  0.5457 -0.3421 -0.1701
 2441TIP3    H1 7329   2.339   2.945   1.409  0.4112 -0.8963  1.7797
 2441TIP3    H2 7330   2.460   3.025   1.451  0.7438  0.1547 -0.9243
 2442TIP3   OH2 7331   4.373   2.107   4.562  0.2631  0.0242  0.4205
 2442TIP3    H1 7332   4.448   2.049   4.573 -0.0415 -0.6862 -1.0698
 2442TIP3    H2 7333   4.384   2.145   4.475  0.4862  2.2847  1.3561
 2443TIP3   OH2 7334   3.143   4.319   2.654  0.0542 -0.2580  0.2086
 2443TIP3    H1 7335   3.128   4.381   2.582 -0.6556 -1.1756 -0.4594
 2443TIP3    H2 7336   3.227   4.345   2.690 -0.0573  0.8745 -0.2822
 2444TIP3   OH2 7337   3.015   1.469   4.283  0.2564  0.3564  0.0330
 2444TIP3    H1 7338   3.052   1.394   4.237 -1.1363 -0.1834 -0.2472
 2444TIP3    H2 7339   3.034   1.544   4.226 -0.1492 -0.0825 -0.6880
 2445TIP3   OH2 7340   2.791   4.951   2.187  0.0843  0.4086 -0.1543
 2445TIP3    H1 7341   2.876   4.979   2.222  0.4137  1.0148 -1.3888
 2445TIP3    H2 7342   2.732   5.022   2.209 -0.1859 -0.1268  0.9295
 2446TIP3   OH2 7343   0.592   5.589   3.958  0.4722 -0.2681 -0.0273
 2446TIP3    H1 7344   0.687   5.590   3.971  0.5899 -0.4579 -0.8471
 2446TIP3    H2 7345   0.560   5.661   4.012  0.8886 -1.2393  1.6050
 2447TIP3   OH2 7346   2.996   2.202   3.812  0.3304  0.8591 -0.0196
 2447TIP3    H1 7347   3.005   2.122   3.864 -4.3717  1.1935  1.8392
 2447TIP3    H2 7348   3.033   2.271   3.867 -0.3226  0.5609  0.8245
 2448TIP3   OH2 7349   5.660   0.640   4.692  0.1781 -0.1174  0.1837
 2448TIP3    H1 7350   5.733   0.652   4.631  0.0707  4.0854  0.5902
 2448TIP3    H2 7351   5.585   0.679   4.647 -1.0060 -1.1100  1.2232
 2449TIP3   OH2 7352   1.353   3.330   4.404 -0.6622  0.0912 -0.0186
 2449TIP3    H1 7353   1.386   3.257   4.352 -0.4751 -0.3296  0.6757
 2449TIP3    H2 7354   1.369   3.407   4.350 -0.5666 -0.3404 -0.6252
 2450TIP3   OH2 7355   4.111   2.176   1.184 -0.2361  0.2887 -0.4937
 2450TIP3    H1 7356   4.128   2.124   1.106  0.2390 -0.1641 -0.1005
 2450TIP3    H2 7357   4.093   2.264   1.151 -0.5111 -0.0007 -1.1336
 2451TIP3   OH2 7358   2.337   3.250   1.095  0.0481 -0.1616  0.0476
 2451TIP3    H1 7359   2.306   3.211   1.013 -0.0579 -0.1189  0.0666
 2451TIP3    H2 7360   2.421   3.290   1.073  0.5133 -1.0264  0.1950
 2452TIP3   OH2 7361   4.940   4.013   4.966  0.1507 -0.1936 -0.5087
 2452TIP3    H1 7362   4.998   4.056   4.904  1.2535 -0.1660  0.5024
 2452TIP3    H2 7363   4.853   4.047   4.945  0.6675  0.7182 -1.2476
 2453TIP3   OH2 7364   5.284   2.508   1.116 -0.0902  0.2516  0.1477
 2453TIP3    H1 7365   5.264   2.576   1.051  3.1787 -0.6902 -2.0747
 2453TIP3    H2 7366   5.225   2.436   1.093 -1.4713  1.1781  0.6144
 2454TIP3   OH2 7367   4.263   0.594   4.144  0.0047  0.0403  0.6917
 2454TIP3    H1 7368   4.266   0.499   4.134 -0.0193  0.0010  1.0487
 2454TIP3    H2 7369   4.175   0.611   4.179 -0.9747  0.4147 -1.7089
 2455TIP3   OH2 7370   2.101   4.021   2.170 -0.2375 -0.2504  0.1949
 2455TIP3    H1 7371   2.156   3.993   2.098 -0.3514 -0.1941  0.0857
 2455TIP3    H2 7372   2.012   4.006   2.140 -0.2852 -0.2368  0.3270
 2456TIP3   OH2 7373   3.070   3.642   1.780 -0.5903  0.0045  0.2212
 2456TIP3    H1 7374   3.137   3.588   1.739 -0.4935  0.1777  0.1461
 2456TIP3    H2 7375   3.030   3.691   1.708  0.2450  1.0328  0.4258
 2457TIP3   OH2 7376   1.845   4.983   3.510 -0.0119 -0.1703 -1.0289
 2457TIP3    H1 7377   1.885   4.897   3.524 -1.7404 -0.8767 -0.0789
 2457TIP3    H2 7378   1.892   5.020   3.436  0.5107 -2.1272 -1.7307
 2458TIP3   OH2 7379   0.843   3.925   3.396 -0.4080 -0.5383 -0.1495
 2458TIP3    H1 7380   0.801   3.979   3.463 -0.3617  0.4591 -0.9119
 2458TIP3    H2 7381   0.779   3.918   3.326 -0.6701 -2.0360  0.1947
 2459TIP3   OH2 7382   1.640   4.613   4.563  0.3347 -0.2735  0.2198
 2459TIP3    H1 7383   1.558   4.590   4.606 -0.6004  2.7467  0.2646
 2459TIP3    H2 7384   1.615   4.633   4.472  1.1373 -0.0258  0.0444
 2460TIP3   OH2 7385   0.735   5.148   1.321 -0.5960  0.3837 -0.0209
 2460TIP3    H1 7386   0.679   5.086   1.274 -0.6363 -0.4265  1.0608
 2460TIP3    H2 7387   0.815   5.152   1.268  0.3503 -2.3857  1.0088
 2461TIP3   OH2 7388   5.407   5.711   2.981  0.7203 -0.3113 -0.7817
 2461TIP3    H1 7389   5.459   5.735   2.905  1.3643  0.6253 -0.0599
 2461TIP3    H2 7390   5.337   5.776   2.985  1.2693  0.2502 -0.0108
 2462TIP3   OH2 7391   1.859   5.977   2.187 -0.0113  0.2929  0.3762
 2462TIP3    H1 7392   1.774   5.944   2.158  0.0653  1.4717 -1.3567
 2462TIP3    H2 7393   1.879   6.049   2.126  2.5936 -0.4707  0.2175
 2463TIP3   OH2 7394   3.785   3.984   4.778  0.0432  0.3149  0.2001
 2463TIP3    H1 7395   3.717   3.924   4.749 -0.1342  0.9782 -0.7963
 2463TIP3    H2 7396   3.867   3.945   4.745  0.0523  0.0385  0.5393
 2464TIP3   OH2 7397   0.558   3.259   5.147 -0.5540 -0.4796 -0.2356
 2464TIP3    H1 7398   0.520   3.220   5.068 -1.1595  1.8199 -1.1862
 2464TIP3    H2 7399   0.605   3.336   5.115 -0.4549  0.2881  1.6159
 2465TIP3   OH2 7400   3.726   5.875   0.004 -0.2858 -0.2306  0.3676
 2465TIP3    H1 7401   3.776   5.869   0.086 -1.5564 -1.1316  1.1097
 2465TIP3    H2 7402   3.678   5.957   0.012  0.1159  0.0250  0.2031
 2466TIP3   OH2 7403   0.316   0.603   4.286 -0.4259 -0.4440  0.0242
 2466TIP3    H1 7404   0.253   0.637   4.222 -1.7501 -1.1907  0.8724
 2466TIP3    H2 7405   0.334   0.513   4.257  1.4628  0.2274 -1.0535
 2467TIP3   OH2 7406   1.571   3.222   5.138 -0.0720  0.0364 -0.1411
 2467TIP3    H1 7407   1.512   3.148   5.127  0.9075 -0.9351  0.8531
 2467TIP3    H2 7408   1.654   3.183   5.165  0.5433  1.4788  0.1694
 2468TIP3   OH2 7409   5.221   4.459   1.386  0.0824  0.3632 -0.6661
 2468TIP3    H1 7410   5.177   4.541   1.408  0.7085  0.3512  0.7428
 2468TIP3    H2 7411   5.180   4.394   1.443  3.2950  0.7427  2.4541
 2469TIP3   OH2 7412   0.676   4.207   1.596  0.1872 -0.2250  1.0539
 2469TIP3    H1 7413   0.610   4.200   1.527 -0.0025  2.5954  0.8394
 2469TIP3    H2 7414   0.659   4.292   1.637  3.9532  0.8682  0.6860
 2470TIP3   OH2 7415   4.624   3.791   3.406 -0.2857  0.0354  0.3041
 2470TIP3    H1 7416   4.661   3.703   3.414 -0.7627 -0.1149  0.8345
 2470TIP3    H2 7417   4.661   3.839   3.480  1.9055  0.9890 -1.2930
 2471TIP3   OH2 7418   5.902   2.787   2.129 -0.2439  0.3380  0.2910
 2471TIP3    H1 7419   5.808   2.798   2.144 -0.6214 -1.9284 -0.0415
 2471TIP3    H2 7420   5.917   2.828   2.044 -0.8722  0.8790  0.4229
 2472TIP3   OH2 7421   3.558   4.388   4.618 -0.6757 -0.0287 -0.4617
 2472TIP3    H1 7422   3.562   4.480   4.594 -0.3701  0.7064  2.1152
 2472TIP3    H2 7423   3.474   4.357   4.585 -1.5695  1.6742  0.1267
 2473TIP3   OH2 7424   1.665   4.880   1.392  0.0115  0.0062 -0.0142
 2473TIP3    H1 7425   1.599   4.833   1.340 -0.5781  1.7450 -0.9308
 2473TIP3    H2 7426   1.670   4.831   1.474 -1.4927 -0.9183 -0.4295
 2474TIP3   OH2 7427   5.108   0.906   3.236  0.4818 -0.3040  0.3587
 2474TIP3    H1 7428   5.138   0.840   3.174  2.4099  2.1567 -1.5340
 2474TIP3    H2 7429   5.170   0.901   3.309  1.2124  0.0291 -0.2312
 2475TIP3   OH2 7430   1.604   1.563   3.509 -0.2647 -0.0366 -0.1105
 2475TIP3    H1 7431   1.695   1.541   3.486 -0.1948  0.7324 -0.6552
 2475TIP3    H2 7432   1.557   1.557   3.426 -0.7435 -0.5583  0.1961
 2476TIP3   OH2 7433   3.095   0.331   2.631  0.2885 -0.1727  0.2720
 2476TIP3    H1 7434   3.058   0.419   2.627 -0.2952 -0.4673 -1.7647
 2476TIP3    H2 7435   3.189   0.344   2.623  0.1084  0.2270 -1.6437
 2477TIP3   OH2 7436   4.908   4.121   2.234  0.1787 -0.3902 -0.0437
 2477TIP3    H1 7437   4.934   4.159   2.150  1.6155 -1.0628  0.0748
 2477TIP3    H2 7438   4.892   4.029   2.215  0.0325 -0.4443  0.3281
 2478TIP3   OH2 7439   1.697   3.283   2.742  0.0348 -0.2623  0.1825
 2478TIP3    H1 7440   1.731   3.368   2.768 -1.2232  0.1300  0.6211
 2478TIP3    H2 7441   1.747   3.220   2.795  0.5142  0.2419  0.3355
 2479TIP3   OH2 7442   4.395   1.496   2.423 -0.4171 -1.1973 -0.4884
 2479TIP3    H1 7443   4.335   1.426   2.397 -1.0164 -0.9004  0.0744
 2479TIP3    H2 7444   4.454   1.455   2.486  0.2818 -1.6053 -1.3678
 2480TIP3   OH2 7445   3.505   4.080   0.283 -0.0560  0.2842 -0.7159
 2480TIP3    H1 7446   3.469   3.999   0.318 -1.1496  1.5525  1.2447
 2480TIP3    H2 7447   3.527   4.059   0.192 -0.4423 -2.1398 -0.3101
 2481TIP3   OH2 7448   3.589   4.522   1.480 -0.2923 -0.1301 -0.0783
 2481TIP3    H1 7449   3.589   4.445   1.423  1.0950  0.0215 -0.3297
 2481TIP3    H2 7450   3.504   4.563   1.464 -0.9364 -1.4306 -0.1594
 2482TIP3   OH2 7451   1.123   2.791   4.632 -0.5456  0.1445  0.3407
 2482TIP3    H1 7452   1.217   2.781   4.651 -0.4217 -0.6742 -0.6075
 2482TIP3    H2 7453   1.088   2.703   4.644 -1.3169  0.5633  1.2537
 2483TIP3   OH2 7454   4.496   0.047   3.934 -0.4349  0.2032 -0.1552
 2483TIP3    H1 7455   4.457  -0.013   3.997  0.9534  0.8264  1.3707
 2483TIP3    H2 7456   4.525  -0.009   3.862  0.9509 -1.0420  1.2897
 2484TIP3   OH2 7457   0.231   4.744   3.880 -0.0055 -0.6859  0.1112
 2484TIP3    H1 7458   0.234   4.817   3.942  1.4485 -0.4472 -0.1918
 2484TIP3    H2 7459   0.223   4.666   3.936  0.4736 -0.4212  0.5611
 2485TIP3   OH2 7460   2.530   5.975   3.294  0.3907  0.1700  0.1670
 2485TIP3    H1 7461   2.603   6.015   3.246  0.6653  1.9479  1.9448
 2485TIP3    H2 7462   2.570   5.940   3.374 -0.3624 -0.9941  0.0681
 2486TIP3   OH2 7463   1.841   0.425   4.116 -0.4535 -0.4475 -0.1932
 2486TIP3    H1 7464   1.847   0.459   4.027 -0.4050 -0.8600 -0.3496
 2486TIP3    H2 7465   1.754   0.385   4.121 -0.8598  0.4609  0.2639
 2487TIP3   OH2 7466   0.558   3.238   1.437  0.4351  0.1239 -0.1749
 2487TIP3    H1 7467   0.631   3.250   1.497  1.7687  1.1337 -1.8915
 2487TIP3    H2 7468   0.592   3.180   1.369 -1.7191 -2.7803  1.0301
 2488TIP3   OH2 7469   0.690   2.964   1.663  0.4344  0.8624  0.0498
 2488TIP3    H1 7470   0.651   2.935   1.746  1.7618  2.9976  1.5080
 2488TIP3    H2 7471   0.649   3.048   1.645  2.6276  2.0593  0.4146
 2489TIP3   OH2 7472   5.473   5.594   5.151  0.2523 -0.2695 -0.2741
 2489TIP3    H1 7473   5.448   5.570   5.241  0.3274  2.7831  0.6732
 2489TIP3    H2 7474   5.567   5.612   5.156 -0.0854  1.8136 -0.4076
 2490TIP3   OH2 7475   4.336   0.509   0.837 -0.0187  0.0829 -0.7320
 2490TIP3    H1 7476   4.292   0.578   0.787 -0.6836  1.2728  1.3788
 2490TIP3    H2 7477   4.429   0.527   0.826 -0.1768  1.8008  0.3406
 2491TIP3   OH2 7478   3.909   4.425   0.298 -0.2812 -0.2807  0.0114
 2491TIP3    H1 7479   3.922   4.349   0.241 -0.0343 -1.2285  1.2936
 2491TIP3    H2 7480   3.967   4.492   0.262  1.7477 -1.6586  0.5712
 2492TIP3   OH2 7481   5.741   2.603   2.366 -0.4556  0.1565  0.6765
 2492TIP3    H1 7482   5.708   2.514   2.353 -1.5231  0.7500 -0.9439
 2492TIP3    H2 7483   5.727   2.647   2.282  1.9255  1.2880  0.7867
 2493TIP3   OH2 7484   2.328   2.818   4.429  0.3964  0.2284 -0.0646
 2493TIP3    H1 7485   2.419   2.825   4.402  0.7087  0.5122  0.9962
 2493TIP3    H2 7486   2.323   2.734   4.474  0.2061  0.3477  0.1377
 2494TIP3   OH2 7487   4.324   0.660   2.826 -0.3261 -0.0544 -0.6316
 2494TIP3    H1 7488   4.397   0.601   2.847 -1.4363 -1.4855 -0.6505
 2494TIP3    H2 7489   4.355   0.710   2.750  0.8704 -0.1866 -0.2509
 2495TIP3   OH2 7490   0.561   3.790   4.310  0.0551 -0.8836  0.7955
 2495TIP3    H1 7491   0.630   3.734   4.275  0.9524  0.2418  0.6885
 2495TIP3    H2 7492   0.508   3.813   4.233  0.3336 -0.7266  0.6453
 2496TIP3   OH2 7493   6.282   5.463   3.413  0.1542  0.4107  0.3127
 2496TIP3    H1 7494   6.313   5.516   3.487  1.2499 -0.4359  0.4829
 2496TIP3    H2 7495   6.324   5.503   3.337  1.0448 -0.2258  0.4500
 2497TIP3   OH2 7496   0.635   0.999   4.361  0.1643 -0.0135  0.1162
 2497TIP3    H1 7497   0.550   0.966   4.330  0.4795 -2.8257  1.8492
 2497TIP3    H2 7498   0.622   1.017   4.454  1.1577  0.7838  0.1230
 2498TIP3   OH2 7499   6.260   1.953   4.849  0.1695 -0.3115  0.0838
 2498TIP3    H1 7500   6.172   1.962   4.883 -0.3615 -1.7218 -0.8212
 2498TIP3    H2 7501   6.306   2.032   4.879 -1.5199  0.7040  0.1249
 2499TIP3   OH2 7502   2.742   1.177   1.033  0.2888 -0.2542 -0.9376
 2499TIP3    H1 7503   2.683   1.107   1.061 -1.6972  1.8808  0.6032
 2499TIP3    H2 7504   2.697   1.218   0.958  1.5789 -0.7516 -2.0327
 2500TIP3   OH2 7505   3.867   5.985   4.853 -0.1696 -0.3779  0.0049
 2500TIP3    H1 7506   3.955   5.981   4.890 -0.6167 -0.3458  1.0873
 2500TIP3    H2 7507   3.809   5.975   4.927 -1.0983  0.2441 -0.6160
 2501TIP3   OH2 7508   2.688   5.441   0.657  0.2812 -0.6682 -0.2862
 2501TIP3    H1 7509   2.730   5.391   0.727  1.5256  1.3303  0.4590
 2501TIP3    H2 7510   2.653   5.518   0.701  1.2007  0.7036 -1.8588
 2502TIP3   OH2 7511   2.303   4.959   2.035  0.3728  0.5276  0.3853
 2502TIP3    H1 7512   2.308   5.036   2.092 -0.0454 -0.0538  1.2174
 2502TIP3    H2 7513   2.247   4.986   1.963  0.6570  1.1723  0.3982
 2503TIP3   OH2 7514   5.319   4.201   1.477 -0.0881  0.0063  0.0441
 2503TIP3    H1 7515   5.335   4.277   1.422  0.8012  0.5801  1.0531
 2503TIP3    H2 7516   5.252   4.151   1.431  1.3829 -0.1209 -2.1121
 2504TIP3   OH2 7517   1.603   3.008   4.255 -0.6127 -0.0492  0.7053
 2504TIP3    H1 7518   1.541   3.034   4.323 -1.0605  1.8518 -0.3315
 2504TIP3    H2 7519   1.658   3.086   4.242  1.1565 -1.2369  0.6594
 2505TIP3   OH2 7520   5.693   5.669   3.640 -0.5429 -0.1462  0.1736
 2505TIP3    H1 7521   5.607   5.645   3.607 -1.4021 -0.2356  2.3168
 2505TIP3    H2 7522   5.696   5.764   3.635 -0.2589 -0.2014 -1.0093
 2506TIP3   OH2 7523   3.255   4.435   4.748 -0.4985  0.3390 -0.1888
 2506TIP3    H1 7524   3.250   4.394   4.835 -2.0781 -0.7774 -0.7497
 2506TIP3    H2 7525   3.315   4.509   4.760  0.4135 -0.5931  1.5076
 2507TIP3   OH2 7526   1.682   5.819   1.591  0.0175 -0.1988  0.4920
 2507TIP3    H1 7527   1.700   5.841   1.500 -1.3259  1.7691  0.6525
 2507TIP3    H2 7528   1.752   5.757   1.615  0.0588 -1.2294 -2.0026
 2508TIP3   OH2 7529   0.353   4.250   3.707 -0.1227  0.0667  0.3932
 2508TIP3    H1 7530   0.301   4.329   3.722  0.3323  0.7154 -1.2473
 2508TIP3    H2 7531   0.348   4.202   3.790 -0.4961  1.7583  1.4043
 2509TIP3   OH2 7532   4.555   1.846   2.486  0.1489 -0.0997 -0.5265
 2509TIP3    H1 7533   4.517   1.841   2.574  0.1530  1.6280 -0.3873
 2509TIP3    H2 7534   4.502   1.912   2.441  0.5412 -0.5155 -1.6259
 2510TIP3   OH2 7535   0.307   4.001   1.078 -0.1298 -0.0846 -0.4679
 2510TIP3    H1 7536   0.284   4.093   1.078  2.5833  0.7505 -2.9894
 2510TIP3    H2 7537   0.256   3.963   1.006 -0.6871 -0.4061  0.0875
 2511TIP3   OH2 7538   6.194   5.218   2.318 -0.2822 -0.1579 -0.3677
 2511TIP3    H1 7539   6.250   5.255   2.249 -1.0382  1.0322 -0.3634
 2511TIP3    H2 7540   6.124   5.173   2.270 -0.0176 -0.5731 -0.3696
 2512TIP3   OH2 7541   0.206   1.148   0.585 -0.5321 -0.4077  0.1156
 2512TIP3    H1 7542   0.152   1.076   0.615  0.9821 -0.9136  1.8532
 2512TIP3    H2 7543   0.147   1.223   0.583 -1.6078 -1.2169  0.5763
 2513TIP3   OH2 7544   2.813   2.506   2.618  0.5376 -0.3749 -0.6072
 2513TIP3    H1 7545   2.839   2.598   2.611  0.1616 -0.3159 -1.3214
 2513TIP3    H2 7546   2.890   2.457   2.589  0.0999 -0.2194 -2.0898
 2514TIP3   OH2 7547   5.133   5.466   0.587  0.1355 -0.3559  0.6041
 2514TIP3    H1 7548   5.170   5.548   0.554 -0.3715 -0.4144 -0.1391
 2514TIP3    H2 7549   5.197   5.399   0.561 -1.6330 -0.8393 -3.0899
 2515TIP3   OH2 7550   5.564   1.450   2.498  0.0751  0.1476  0.2706
 2515TIP3    H1 7551   5.489   1.510   2.492  0.4658  0.5878 -0.3308
 2515TIP3    H2 7552   5.525   1.364   2.512 -0.5776  0.2962 -0.5368
 2516TIP3   OH2 7553   0.873   0.534   1.815  0.5844 -0.2102  0.0505
 2516TIP3    H1 7554   0.855   0.446   1.781  0.7907  0.1400 -0.9816
 2516TIP3    H2 7555   0.806   0.547   1.882 -0.3522 -0.5982 -0.7891
 2517TIP3   OH2 7556   1.328   2.594   3.398  0.0894  0.2735 -0.2346
 2517TIP3    H1 7557   1.334   2.575   3.492 -3.0864 -2.3658 -0.3817
 2517TIP3    H2 7558   1.268   2.668   3.393 -0.4502 -0.1576 -0.1969
 2518TIP3   OH2 7559   2.203   4.856   0.805 -0.7728 -0.0197 -0.3950
 2518TIP3    H1 7560   2.213   4.826   0.895 -1.7064 -0.1833 -0.3358
 2518TIP3    H2 7561   2.169   4.780   0.758 -1.3620  0.3821 -0.6386
 2519TIP3   OH2 7562   1.482   1.883   4.561 -0.2648  1.1686  0.1198
 2519TIP3    H1 7563   1.477   1.788   4.567  0.7768  1.1965  1.9959
 2519TIP3    H2 7564   1.412   1.907   4.499 -1.9665 -0.6243  1.2382
 2520TIP3   OH2 7565   3.641   3.512   1.695 -0.5532  0.2830  0.0671
 2520TIP3    H1 7566   3.631   3.535   1.787 -0.6287 -0.5670  0.2758
 2520TIP3    H2 7567   3.731   3.479   1.687 -1.3042 -2.0247  0.3854
 2521TIP3   OH2 7568   6.180   5.467   0.593  0.5217 -0.2657 -0.1754
 2521TIP3    H1 7569   6.174   5.434   0.503 -0.4962  0.6949 -0.4708
 2521TIP3    H2 7570   6.090   5.488   0.617  0.7242 -0.9077  1.2368
 2522TIP3   OH2 7571   1.679   4.116   3.561  0.1762 -0.4893 -0.2478
 2522TIP3    H1 7572   1.722   4.201   3.552  0.5462 -0.5270  0.9983
 2522TIP3    H2 7573   1.598   4.124   3.511  0.4708  0.4032 -0.5982
 2523TIP3   OH2 7574   0.615   3.146   0.744 -0.4351 -0.6244 -0.0642
 2523TIP3    H1 7575   0.675   3.214   0.713  0.3721 -0.8865  0.8804
 2523TIP3    H2 7576   0.631   3.141   0.838 -1.5725 -1.0769  0.1225
 2524TIP3   OH2 7577   2.228   0.752   4.537 -0.1114  0.3095 -0.3715
 2524TIP3    H1 7578   2.158   0.716   4.591 -0.4847  1.1467 -0.2747
 2524TIP3    H2 7579   2.259   0.829   4.585  1.4808 -0.5307  0.0169
 2525TIP3   OH2 7580   0.998   0.413   2.513 -0.2871 -0.4788 -0.3465
 2525TIP3    H1 7581   0.906   0.440   2.516 -0.3048 -0.3292 -1.7717
 2525TIP3    H2 7582   1.000   0.342   2.448  0.6065 -0.5083 -0.3000
 2526TIP3   OH2 7583   4.350   0.738   0.408  0.3432 -0.5442  0.3844
 2526TIP3    H1 7584   4.306   0.653   0.417 -0.0331 -0.4817 -0.7817
 2526TIP3    H2 7585   4.336   0.763   0.317 -1.5766  1.9066  1.2441
 2527TIP3   OH2 7586   4.525   3.728   5.173  0.3725 -0.4066 -0.2923
 2527TIP3    H1 7587   4.465   3.675   5.120 -1.1832 -0.8198  1.7802
 2527TIP3    H2 7588   4.512   3.817   5.141 -0.8506 -0.5893 -0.3494
 2528TIP3   OH2 7589   3.740   5.838   1.399  0.2303  0.1781 -0.3199
 2528TIP3    H1 7590   3.728   5.844   1.494  0.6996  0.9788 -0.2988
 2528TIP3    H2 7591   3.651   5.828   1.364  0.0348  0.0974  0.1888
 2529TIP3   OH2 7592   5.488   4.043   4.033 -0.8082 -0.1693 -0.2419
 2529TIP3    H1 7593   5.395   4.064   4.035 -0.7727 -0.0504  0.3911
 2529TIP3    H2 7594   5.529   4.110   4.088 -0.4480 -0.7060  0.1572
 2530TIP3   OH2 7595   3.936   1.462   0.096  0.0844 -0.0694  0.1573
 2530TIP3    H1 7596   3.963   1.510   0.017 -0.0087 -0.9150 -0.4031
 2530TIP3    H2 7597   3.866   1.404   0.066 -0.2919 -0.0479  0.9747
 2531TIP3   OH2 7598   4.117   2.390   4.607  0.2516  0.7548 -0.0990
 2531TIP3    H1 7599   4.132   2.316   4.549 -0.7824  0.7465 -0.3807
 2531TIP3    H2 7600   4.193   2.446   4.596  0.8201 -0.0382 -0.2383
 2532TIP3   OH2 7601   4.674   5.794   2.807 -0.0309 -0.1403  0.2384
 2532TIP3    H1 7602   4.621   5.715   2.793 -0.9146  0.2325  1.3384
 2532TIP3    H2 7603   4.609   5.863   2.821  0.6218  1.3257 -2.9907
 2533TIP3   OH2 7604   3.001   1.420   2.071 -0.3165 -0.9104 -0.6700
 2533TIP3    H1 7605   3.080   1.434   2.019 -1.6025 -2.2026 -3.1654
 2533TIP3    H2 7606   2.956   1.504   2.069  1.1297 -0.0309  1.1534
 2534TIP3   OH2 7607   4.647   3.798   4.604 -0.0197 -0.2977  0.3059
 2534TIP3    H1 7608   4.732   3.838   4.621 -0.1722  0.2828 -0.2561
 2534TIP3    H2 7609   4.659   3.751   4.521 -0.6567  1.0833 -0.6105
 2535TIP3   OH2 7610   2.990   5.626   3.706  0.0464 -0.3860 -0.5586
 2535TIP3    H1 7611   2.962   5.685   3.636 -1.2787  0.4229  0.5910
 2535TIP3    H2 7612   3.052   5.677   3.758 -0.6450 -0.1846  0.0928
 2536TIP3   OH2 7613   4.215   3.464   1.144  0.0798 -0.4097  0.0344
 2536TIP3    H1 7614   4.186   3.488   1.232  0.1086 -0.6729  0.1182
 2536TIP3    H2 7615   4.173   3.528   1.087  1.1138  0.5922  0.3513
 2537TIP3   OH2 7616   4.754   5.724   4.083  0.1511  0.0785  0.6068
 2537TIP3    H1 7617   4.829   5.705   4.140 -0.0154 -3.2061 -0.0624
 2537TIP3    H2 7618   4.757   5.655   4.017 -1.6431  1.7806 -1.3741
 2538TIP3   OH2 7619   1.593   1.290   1.221 -0.3119 -0.1616  0.5392
 2538TIP3    H1 7620   1.653   1.358   1.190  0.5538 -1.4838 -0.8612
 2538TIP3    H2 7621   1.586   1.305   1.315 -0.3398  1.9797  0.2473
 2539TIP3   OH2 7622   1.974   4.022   3.311  0.0737  0.0244  0.6649
 2539TIP3    H1 7623   1.974   3.948   3.250 -0.6399  0.1727  0.4732
 2539TIP3    H2 7624   1.908   4.082   3.276  0.8581  0.8962  0.6537
 2540TIP3   OH2 7625   1.237   1.359   2.007  0.5374  0.5369 -0.3108
 2540TIP3    H1 7626   1.236   1.358   1.912  1.1910  0.4043 -0.3245
 2540TIP3    H2 7627   1.161   1.412   2.032 -1.0631 -1.4008 -0.8353
 2541TIP3   OH2 7628   5.618   2.263   1.842 -0.3597 -0.2344  0.4527
 2541TIP3    H1 7629   5.572   2.218   1.772 -0.0053 -0.3602  0.3011
 2541TIP3    H2 7630   5.711   2.257   1.818 -0.3545  1.3572 -0.0462
 2542TIP3   OH2 7631   5.715   2.732  -0.035 -0.5301 -0.4325  0.5320
 2542TIP3    H1 7632   5.630   2.715   0.004  0.1523 -2.0704  1.3754
 2542TIP3    H2 7633   5.762   2.784   0.031 -0.8502  0.4934  0.0566
 2543TIP3   OH2 7634   5.146   2.289   0.971  0.2506 -0.4991 -0.3459
 2543TIP3    H1 7635   5.129   2.287   0.877  1.3610  1.3954 -0.6352
 2543TIP3    H2 7636   5.061   2.312   1.010  0.2029  0.6317 -1.0693
 2544TIP3   OH2 7637   2.099   2.456   4.661  0.0867  0.5109 -0.3316
 2544TIP3    H1 7638   2.097   2.511   4.739 -0.7415 -0.0627  0.0593
 2544TIP3    H2 7639   2.042   2.383   4.681  1.9989 -1.0939 -0.4128
 2545TIP3   OH2 7640   5.823   1.691   3.995 -0.0316 -0.1713 -0.3423
 2545TIP3    H1 7641   5.808   1.785   3.999  0.5825 -0.1012  0.7579
 2545TIP3    H2 7642   5.864   1.676   3.910 -0.6540  0.4701 -0.7603
 2546TIP3   OH2 7643   2.372   1.745   3.222  0.1500  0.0890 -0.1026
 2546TIP3    H1 7644   2.324   1.821   3.187 -0.9820 -0.2012  0.7505
 2546TIP3    H2 7645   2.305   1.696   3.271  1.0930 -0.9271  0.1830
 2547TIP3   OH2 7646   3.780   4.790   3.554  0.5668  0.0717 -0.2182
 2547TIP3    H1 7647   3.839   4.821   3.623  0.4126  0.5018 -0.2756
 2547TIP3    H2 7648   3.705   4.755   3.601  0.2994  0.6968 -0.1680
 2548TIP3   OH2 7649   4.336   4.394   4.090 -0.3431  0.4171 -0.3249
 2548TIP3    H1 7650   4.331   4.489   4.099  0.1181  0.3281  1.0718
 2548TIP3    H2 7651   4.303   4.360   4.173  0.4472 -0.6330 -0.4160
 2549TIP3   OH2 7652   0.029   4.481   4.424 -0.2909  0.1791 -0.3741
 2549TIP3    H1 7653   0.118   4.480   4.389 -0.1354 -1.2134 -0.0091
 2549TIP3    H2 7654  -0.019   4.418   4.370 -0.7743  0.1148  0.1210
 2550TIP3   OH2 7655   4.583   1.915   0.739  0.4025  0.2279  0.4283
 2550TIP3    H1 7656   4.611   1.827   0.765  1.6152  1.0822  2.2122
 2550TIP3    H2 7657   4.488   1.907   0.729  0.2791 -0.9689  2.0336
 2551TIP3   OH2 7658   0.845   2.073   1.255 -0.2054  0.5404  0.1599
 2551TIP3    H1 7659   0.770   2.017   1.233 -1.3313  0.2920  3.8860
 2551TIP3    H2 7660   0.906   2.060   1.183 -2.4682 -1.6369 -1.5693
 2552TIP3   OH2 7661   4.687   5.177   2.439 -0.0488 -0.4490  0.2167
 2552TIP3    H1 7662   4.631   5.188   2.363  0.0463 -1.2161  0.0290
 2552TIP3    H2 7663   4.764   5.230   2.421 -0.1964 -0.3256 -0.0459
 2553TIP3   OH2 7664   4.805   2.626   1.888 -0.3763  0.5490 -0.0994
 2553TIP3    H1 7665   4.779   2.538   1.915 -2.9045  1.4205  0.5176
 2553TIP3    H2 7666   4.816   2.619   1.793  1.2534 -0.7898  0.1214
 2554TIP3   OH2 7667   5.764   5.474   3.407 -0.2643 -0.3229 -0.1553
 2554TIP3    H1 7668   5.741   5.567   3.401 -0.6486 -0.5137 -3.0717
 2554TIP3    H2 7669   5.739   5.437   3.322 -0.8429 -3.2946  1.1853
 2555TIP3   OH2 7670   2.139   1.308   1.082 -0.4685 -0.4676 -0.0267
 2555TIP3    H1 7671   2.079   1.249   1.127 -1.6048  2.1433  2.1506
 2555TIP3    H2 7672   2.220   1.304   1.134 -0.6546  0.0935  0.3132
 2556TIP3   OH2 7673   1.700   0.027   3.049 -0.7482  0.0295  0.5242
 2556TIP3    H1 7674   1.780   0.061   3.009 -0.7931 -0.4048  0.0659
 2556TIP3    H2 7675   1.694   0.074   3.133 -0.0267  0.0755  0.5556
 2557TIP3   OH2 7676   3.292   1.383   1.984  0.6848  0.1074  0.5562
 2557TIP3    H1 7677   3.345   1.383   2.064  0.4484  0.5530  0.7176
 2557TIP3    H2 7678   3.246   1.299   1.985  0.8344  0.0290  0.7866
 2558TIP3   OH2 7679   3.728   3.751   0.057 -1.0003  0.3193  0.1618
 2558TIP3    H1 7680   3.763   3.832   0.021 -0.0472  0.5638  1.5281
 2558TIP3    H2 7681   3.633   3.758   0.048 -0.8950  1.3425 -0.2013
 2559TIP3   OH2 7682   5.088   5.271   4.736 -0.8215 -0.3042 -0.0386
 2559TIP3    H1 7683   5.104   5.176   4.735  1.2361 -0.0202  0.7987
 2559TIP3    H2 7684   5.124   5.302   4.653 -1.6582 -0.2614 -0.3931
 2560TIP3   OH2 7685   1.555   2.936   1.125 -0.2903 -0.3538  0.4182
 2560TIP3    H1 7686   1.599   2.864   1.170 -0.5112  0.3952  1.8644
 2560TIP3    H2 7687   1.601   3.015   1.154 -1.8963  0.3552  1.1782
 2561TIP3   OH2 7688   5.183   2.981   3.390 -0.1513 -0.0319 -0.1194
 2561TIP3    H1 7689   5.189   3.071   3.421  0.3462 -0.3091  0.6147
 2561TIP3    H2 7690   5.272   2.947   3.400 -0.4854 -0.8115  0.2512
 2562TIP3   OH2 7691   2.345   4.455   4.325  0.0085 -0.6117 -0.2488
 2562TIP3    H1 7692   2.276   4.461   4.392  1.5927  1.0371  1.3534
 2562TIP3    H2 7693   2.334   4.534   4.272  0.7728 -0.2272  0.1526
 2563TIP3   OH2 7694   3.016   1.118   4.334  0.1288  0.2042  0.3715
 2563TIP3    H1 7695   3.057   1.067   4.404  1.6777 -2.5211 -2.2748
 2563TIP3    H2 7696   2.943   1.063   4.304 -0.0104  0.9068 -0.6365
 2564TIP3   OH2 7697   4.005   5.605   0.153 -0.4244  0.3330  0.0052
 2564TIP3    H1 7698   4.099   5.595   0.135 -0.8904  0.1878 -2.9672
 2564TIP3    H2 7699   3.969   5.518   0.137 -1.0829  0.3685  1.2298
 2565TIP3   OH2 7700   3.619   4.019   3.823 -0.2996 -1.1235  0.2773
 2565TIP3    H1 7701   3.657   4.028   3.911 -0.4993 -1.2536  0.3789
 2565TIP3    H2 7702   3.687   4.050   3.764 -0.7253  0.4252  0.5713
 2566TIP3   OH2 7703   6.012   5.569   1.902 -0.5253 -0.2678 -0.4984
 2566TIP3    H1 7704   6.040   5.661   1.906  0.4234 -0.5893  0.8415
 2566TIP3    H2 7705   5.920   5.573   1.876 -0.6612  1.0931  0.1386
 2567TIP3   OH2 7706   5.184   5.349   3.485  0.6154  0.5184  0.2993
 2567TIP3    H1 7707   5.234   5.393   3.417 -0.1273 -0.0170 -0.6249
 2567TIP3    H2 7708   5.177   5.258   3.455  0.7826  0.1269  1.3908
 2568TIP3   OH2 7709   4.191   0.517   3.834 -0.2462  0.4762 -0.1727
 2568TIP3    H1 7710   4.210   0.425   3.812  0.1430 -0.2233  2.6523
 2568TIP3    H2 7711   4.277   0.560   3.830  0.4672 -0.4203  2.9210
 2569TIP3   OH2 7712   3.138   5.416   3.504  0.6446  0.3773 -0.3034
 2569TIP3    H1 7713   3.233   5.424   3.511  0.5950  0.6130  0.1326
 2569TIP3    H2 7714   3.104   5.471   3.574  0.1840  0.3092 -0.4700
 2570TIP3   OH2 7715   1.740   1.984   0.454  0.4238 -0.1894 -0.3355
 2570TIP3    H1 7716   1.752   2.079   0.458 -0.9403  0.0993 -1.8749
 2570TIP3    H2 7717   1.787   1.950   0.530  1.9469  1.6034 -0.4136
 2571TIP3   OH2 7718   0.937   4.237   4.642 -0.1834 -0.2107 -0.1337
 2571TIP3    H1 7719   0.861   4.247   4.699  0.0104 -0.7029  0.2144
 2571TIP3    H2 7720   0.975   4.324   4.636  0.8064 -0.4555  1.8998
 2572TIP3   OH2 7721   3.168   4.818   4.181  0.1991  0.2302  0.1074
 2572TIP3    H1 7722   3.232   4.888   4.173 -0.8364  1.1996  0.0310
 2572TIP3    H2 7723   3.085   4.863   4.193 -0.4480 -0.9987  0.4022
 2573TIP3   OH2 7724   5.230   1.711   2.235 -0.3224  0.0477 -0.4424
 2573TIP3    H1 7725   5.255   1.644   2.172  2.5798  0.3898  0.1757
 2573TIP3    H2 7726   5.235   1.668   2.320 -0.4933  0.5223 -0.1844
 2574TIP3   OH2 7727   4.558   5.603   2.565 -0.1008  0.1267 -0.1932
 2574TIP3    H1 7728   4.514   5.517   2.558  0.3419 -0.3218  1.8688
 2574TIP3    H2 7729   4.650   5.581   2.580 -0.0401  0.9585  0.6787
 2575TIP3   OH2 7730   1.271   3.038   2.409 -0.4910  0.0336  0.1104
 2575TIP3    H1 7731   1.340   3.076   2.356  0.1063 -0.8245  0.2520
 2575TIP3    H2 7732   1.190   3.056   2.361 -0.0515  0.0645 -0.6297
 2576TIP3   OH2 7733   4.751   5.806   3.410  0.5492 -0.4157 -0.4229
 2576TIP3    H1 7734   4.764   5.798   3.505  0.3059  0.3642 -0.3087
 2576TIP3    H2 7735   4.764   5.718   3.376  0.3817 -0.7607  0.3719
 2577TIP3   OH2 7736   0.067   4.580   1.349  0.2799 -0.1238 -0.0350
 2577TIP3    H1 7737  -0.027   4.596   1.352  0.3247  0.2024  2.9419
 2577TIP3    H2 7738   0.084   4.551   1.260 -2.6697 -0.3956 -0.6039
 2578TIP3   OH2 7739   5.542   0.343   1.524 -0.1118 -0.7964 -0.1896
 2578TIP3    H1 7740   5.459   0.382   1.493  0.8782  0.5160 -1.3230
 2578TIP3    H2 7741   5.563   0.277   1.458  0.0757 -0.6573 -0.2697
 2579TIP3   OH2 7742   1.761   2.548   0.699 -0.4685 -0.2081 -0.7452
 2579TIP3    H1 7743   1.714   2.521   0.620 -1.4539  1.1780 -0.6818
 2579TIP3    H2 7744   1.737   2.640   0.710 -0.1809 -0.3162  1.0540
 2580TIP3   OH2 7745   2.956   0.821   0.742 -0.3242  0.7206  0.1443
 2580TIP3    H1 7746   3.037   0.794   0.698 -0.7916 -1.7499  0.6339
 2580TIP3    H2 7747   2.915   0.882   0.680 -0.2080 -1.4291 -2.2274
 2581TIP3   OH2 7748   1.710   4.458   0.248  0.2951 -0.0993  0.5204
 2581TIP3    H1 7749   1.658   4.381   0.274  2.0017 -2.2760 -2.0205
 2581TIP3    H2 7750   1.784   4.458   0.309  0.6835 -1.0010  0.0790
 2582TIP3   OH2 7751   0.303   3.226   2.121  0.0698  0.1086  0.3371
 2582TIP3    H1 7752   0.267   3.203   2.035 -0.7483 -1.5229  1.0612
 2582TIP3    H2 7753   0.258   3.308   2.144 -2.5309 -1.3167  0.7455
 2583TIP3   OH2 7754   3.979   3.404   2.575 -0.2938  0.0269  0.5090
 2583TIP3    H1 7755   3.971   3.363   2.489 -0.5381  0.4788  0.3113
 2583TIP3    H2 7756   3.950   3.337   2.636 -2.0241  0.3459  0.0917
 2584TIP3   OH2 7757   0.251   2.914   0.691  0.0737 -0.1935  0.2456
 2584TIP3    H1 7758   0.170   2.961   0.672 -1.7113 -3.0329  0.2381
 2584TIP3    H2 7759   0.244   2.892   0.784  2.4292  2.2022  1.1090
 2585TIP3   OH2 7760   0.578   0.896   1.547 -0.1388  0.0295  0.0013
 2585TIP3    H1 7761   0.649   0.835   1.566  1.3066  1.5267 -0.3719
 2585TIP3    H2 7762   0.510   0.873   1.610  0.3759 -1.8848 -0.0776
 2586TIP3   OH2 7763   2.382   4.330   4.930  0.0254  0.0229 -0.3806
 2586TIP3    H1 7764   2.468   4.287   4.929  0.7357  1.3782 -1.2251
 2586TIP3    H2 7765   2.321   4.261   4.905  0.9871 -0.7663 -0.6251
 2587TIP3   OH2 7766   2.020   2.944   5.126 -0.5855  0.8043 -0.1249
 2587TIP3    H1 7767   2.101   2.985   5.155  0.2158 -0.7940 -0.0045
 2587TIP3    H2 7768   1.989   2.894   5.202  0.1927 -1.3782 -1.1660
 2588TIP3   OH2 7769   5.403   1.307   2.241  0.5872 -0.0922  0.2972
 2588TIP3    H1 7770   5.320   1.345   2.212  1.6570  1.1363 -1.3430
 2588TIP3    H2 7771   5.400   1.311   2.336 -0.3410  2.0186  0.2268
 2589TIP3   OH2 7772   0.212   4.004   1.945  0.1902  0.4554  0.5102
 2589TIP3    H1 7773   0.239   3.917   1.974 -2.2414  0.6259  3.9551
 2589TIP3    H2 7774   0.141   3.989   1.883 -0.6206 -0.0675  1.5453
 2590TIP3   OH2 7775   2.968   4.437   2.016 -0.7613  0.2899  0.1520
 2590TIP3    H1 7776   2.904   4.453   2.086 -1.2185  0.0063 -0.2027
 2590TIP3    H2 7777   2.944   4.352   1.980  0.3186 -0.2125  0.5602
 2591TIP3   OH2 7778   6.055   4.692   0.938 -0.4933 -0.1750  0.3015
 2591TIP3    H1 7779   6.008   4.618   0.976 -0.1817  0.2749  1.5863
 2591TIP3    H2 7780   6.118   4.651   0.879  0.4704 -1.0378  1.8639
 2592TIP3   OH2 7781   4.397   5.225   1.991 -0.2065 -0.0066  0.3106
 2592TIP3    H1 7782   4.327   5.258   2.048 -0.1906  1.6323 -0.5747
 2592TIP3    H2 7783   4.478   5.248   2.037 -0.2220 -0.9888  0.8445
 2593TIP3   OH2 7784   3.709   4.691   3.174  0.0227  0.1081  0.3848
 2593TIP3    H1 7785   3.652   4.643   3.234  0.1828 -1.2447 -0.5214
 2593TIP3    H2 7786   3.696   4.649   3.089  1.7969  0.2651  0.0046
 2594TIP3   OH2 7787   5.072   5.386   2.032 -0.2460 -0.3274  0.5105
 2594TIP3    H1 7788   5.092   5.447   2.104  1.2710  0.0287 -0.1712
 2594TIP3    H2 7789   5.143   5.322   2.035 -1.7196 -1.9954  1.0931
 2595TIP3   OH2 7790   0.597   2.885   2.401 -0.7943 -0.2935  0.3432
 2595TIP3    H1 7791   0.598   2.946   2.475 -0.4916 -2.2687  2.1028
 2595TIP3    H2 7792   0.512   2.900   2.359 -0.1958  2.1625 -0.1061
 2596TIP3   OH2 7793   1.057   3.876   3.911 -0.1685 -0.5150 -0.2133
 2596TIP3    H1 7794   1.110   3.869   3.990  0.5489 -1.4620 -0.7543
 2596TIP3    H2 7795   1.111   3.928   3.851 -0.3805 -0.4466 -0.3465
 2597TIP3   OH2 7796   2.448   2.771   3.386  0.1721  0.2086  0.7873
 2597TIP3    H1 7797   2.472   2.700   3.445  1.4034  0.3081  0.4401
 2597TIP3    H2 7798   2.379   2.735   3.331  0.0794 -0.3829  1.2901
 2598TIP3   OH2 7799   0.386   5.633   3.782 -0.2210 -0.5751  0.5232
 2598TIP3    H1 7800   0.455   5.626   3.849  0.3928 -0.4533 -0.0791
 2598TIP3    H2 7801   0.310   5.666   3.830  0.1254 -0.7457  1.2132
 2599TIP3   OH2 7802   1.719   1.687   4.570 -0.0857 -0.3459  0.0007
 2599TIP3    H1 7803   1.780   1.622   4.606 -0.1115 -0.4775 -0.1895
 2599TIP3    H2 7804   1.706   1.750   4.641  1.3076  0.4282 -0.4036
 2600TIP3   OH2 7805   3.968   1.038   0.702 -0.0806  0.0579  0.4067
 2600TIP3    H1 7806   4.061   1.031   0.723 -0.1094  0.0451  0.5348
 2600TIP3    H2 7807   3.928   1.073   0.782 -0.0771  0.7670  0.1083
 2601TIP3   OH2 7808   1.108   1.432   0.248 -0.3105 -0.2008 -0.4061
 2601TIP3    H1 7809   1.071   1.465   0.167  0.1356 -1.1212 -0.9990
 2601TIP3    H2 7810   1.053   1.356   0.270  1.7345 -2.2240 -1.8430
 2602TIP3   OH2 7811   1.329   3.868   5.151 -0.3004  0.0422 -0.3647
 2602TIP3    H1 7812   1.395   3.925   5.111 -1.2439  0.9034 -0.7179
 2602TIP3    H2 7813   1.290   3.922   5.220 -1.2836 -0.1200 -0.7760
 2603TIP3   OH2 7814   2.469   1.360   4.870  0.3539 -0.9363 -0.3887
 2603TIP3    H1 7815   2.440   1.383   4.782 -1.1329 -0.8254  0.0900
 2603TIP3    H2 7816   2.472   1.443   4.917 -0.4026 -1.1456  0.0658
 2604TIP3   OH2 7817   4.367   0.064   0.415  0.0473 -0.0829  0.2594
 2604TIP3    H1 7818   4.311   0.089   0.487 -2.7159  0.6122 -1.9559
 2604TIP3    H2 7819   4.396   0.147   0.377 -1.4099 -0.2868 -1.4386
 2605TIP3   OH2 7820   1.943   2.843   0.588 -0.1905 -0.4482 -0.4433
 2605TIP3    H1 7821   1.917   2.804   0.504 -1.8613  1.6048 -0.9691
 2605TIP3    H2 7822   1.998   2.917   0.564  1.0294 -1.0225  0.4306
 2606TIP3   OH2 7823   4.371   2.078   1.230  0.1992  0.1277 -0.1352
 2606TIP3    H1 7824   4.398   2.106   1.142 -0.8344 -2.0733 -1.2430
 2606TIP3    H2 7825   4.276   2.092   1.231 -0.0628 -1.4971 -0.0640
 2607TIP3   OH2 7826   0.790   4.785   0.791 -0.0154 -0.0818 -0.6253
 2607TIP3    H1 7827   0.873   4.810   0.752 -0.6279  1.7868 -0.8392
 2607TIP3    H2 7828   0.780   4.844   0.866 -1.5677  0.4128 -1.1804
 2608TIP3   OH2 7829   4.440   3.457   3.683 -0.7640  0.5351  0.3922
 2608TIP3    H1 7830   4.368   3.508   3.647  0.5012  0.3123 -2.8091
 2608TIP3    H2 7831   4.514   3.518   3.687 -0.5002  0.1718  1.2990
 2609TIP3   OH2 7832   2.207   2.191   2.341 -0.1941  0.0264  0.4510
 2609TIP3    H1 7833   2.176   2.154   2.424 -1.9942  0.5282  0.0627
 2609TIP3    H2 7834   2.258   2.268   2.367 -1.3891  0.6405  1.1225
 2610TIP3   OH2 7835   5.821   2.749   4.788  0.2016 -0.6002  0.4406
 2610TIP3    H1 7836   5.882   2.710   4.851  0.5564 -1.2010 -0.2590
 2610TIP3    H2 7837   5.865   2.739   4.704 -0.6260 -0.5484 -0.0048
 2611TIP3   OH2 7838   4.238   1.347   4.649  0.1642  0.0540 -0.0282
 2611TIP3    H1 7839   4.236   1.267   4.703 -1.3805  0.9266  1.2867
 2611TIP3    H2 7840   4.307   1.400   4.688 -0.3247  0.2917  0.5254
 2612TIP3   OH2 7841   3.593   4.624   0.704 -0.7450  0.8491  0.0143
 2612TIP3    H1 7842   3.536   4.575   0.645  1.9124 -0.0640 -1.9828
 2612TIP3    H2 7843   3.616   4.561   0.772  0.3091  0.1975 -0.9140
 2613TIP3   OH2 7844   4.889   2.868   5.043 -0.2909 -0.3076 -0.5405
 2613TIP3    H1 7845   4.838   2.844   5.120 -0.1994 -0.4055 -0.5088
 2613TIP3    H2 7846   4.969   2.816   5.050  0.1467  0.3975 -0.1969
 2614TIP3   OH2 7847   3.393   5.038   3.032  0.4446  0.1273 -0.6990
 2614TIP3    H1 7848   3.460   5.022   3.098  0.0907 -2.1699 -0.7923
 2614TIP3    H2 7849   3.311   5.043   3.082  0.5117  1.5681 -0.7062
 2615TIP3   OH2 7850   5.132   3.027   1.329  0.2226 -0.2738 -0.3459
 2615TIP3    H1 7851   5.054   3.042   1.275 -0.4833 -2.0743  0.1214
 2615TIP3    H2 7852   5.176   2.953   1.287  0.9748 -0.1185  0.1543
 2616TIP3   OH2 7853   0.961   2.281   4.034  0.5004  0.4580 -0.1624
 2616TIP3    H1 7854   0.916   2.303   4.116  1.8748 -0.4826  0.8915
 2616TIP3    H2 7855   0.895   2.234   3.983 -0.5026  1.4237  0.2193
 2617TIP3   OH2 7856   3.495   5.073   4.492 -0.3011 -0.3399 -0.0336
 2617TIP3    H1 7857   3.445   5.068   4.574 -0.4572  0.1844 -0.0945
 2617TIP3    H2 7858   3.580   5.035   4.513 -0.0099  0.6434  0.6277
 2618TIP3   OH2 7859   4.027   3.345   2.242  0.4268 -0.0598 -0.2160
 2618TIP3    H1 7860   3.986   3.403   2.179  0.5714 -1.6763 -1.8662
 2618TIP3    H2 7861   4.120   3.370   2.240  0.3091  0.4126 -0.0305
 2619TIP3   OH2 7862   2.923   5.695   0.837  0.0453 -0.2568 -0.2350
 2619TIP3    H1 7863   2.860   5.692   0.908 -1.0092 -1.6115 -1.1603
 2619TIP3    H2 7864   2.881   5.748   0.769 -0.8079 -2.2693 -1.4008
 2620TIP3   OH2 7865   2.647   3.341   3.496 -0.3704 -0.4813 -0.3364
 2620TIP3    H1 7866   2.655   3.393   3.416 -1.2219 -0.0115 -0.1343
 2620TIP3    H2 7867   2.589   3.269   3.471 -0.6442 -0.3287 -0.1466
 2621TIP3   OH2 7868   2.219   2.803   0.093  0.3447  0.3152  0.3757
 2621TIP3    H1 7869   2.245   2.895   0.102  1.6581  0.0746 -0.5822
 2621TIP3    H2 7870   2.276   2.769   0.023 -1.3762 -0.7468 -0.5901
 2622TIP3   OH2 7871   1.923   3.780   1.669  0.0362  0.1298 -0.1033
 2622TIP3    H1 7872   1.882   3.814   1.749  0.7642  1.0170 -0.0927
 2622TIP3    H2 7873   1.849   3.760   1.612 -0.4786 -0.1318  0.6369
 2623TIP3   OH2 7874   2.784   5.670   1.090  0.6664  0.4229 -0.0783
 2623TIP3    H1 7875   2.715   5.658   1.155 -0.9572  0.9337 -1.6218
 2623TIP3    H2 7876   2.809   5.762   1.099  1.0568  0.2787  0.3717
 2624TIP3   OH2 7877   6.048   5.379   3.610 -0.6034 -0.2747  0.0472
 2624TIP3    H1 7878   6.083   5.297   3.576 -1.6235 -0.4300 -0.6528
 2624TIP3    H2 7879   6.095   5.393   3.693  1.1676 -0.4075 -0.8998
 2625TIP3   OH2 7880   0.570   1.945   1.366 -0.5032 -0.3510  0.3021
 2625TIP3    H1 7881   0.621   1.898   1.300 -0.5144 -0.7821  0.6025
 2625TIP3    H2 7882   0.505   1.994   1.315 -1.5798 -1.9515  0.0795
 2626TIP3   OH2 7883   4.766   3.545   5.091 -0.2505  0.5614 -0.4088
 2626TIP3    H1 7884   4.818   3.523   5.168  2.4532  2.1086 -1.6510
 2626TIP3    H2 7885   4.690   3.592   5.125 -0.7518 -1.4396  1.4526
 2627TIP3   OH2 7886   4.011   2.593   2.221  0.2460 -0.1592 -0.1838
 2627TIP3    H1 7887   4.079   2.546   2.270 -0.1633 -0.8051 -0.2277
 2627TIP3    H2 7888   3.951   2.525   2.192 -0.1213  0.3483 -0.6288
 2628TIP3   OH2 7889   0.487   0.385   2.775  0.3302 -0.1493 -0.1245
 2628TIP3    H1 7890   0.502   0.293   2.800  0.4023 -0.1854 -0.2973
 2628TIP3    H2 7891   0.568   0.411   2.731  0.2110 -0.0831 -0.3073
 2629TIP3   OH2 7892   1.523   0.391   5.066 -0.2215  0.0992 -0.2935
 2629TIP3    H1 7893   1.560   0.404   4.978 -1.6471 -0.1626 -0.9567
 2629TIP3    H2 7894   1.590   0.341   5.113 -0.2671 -1.5791 -1.8901
 2630TIP3   OH2 7895   5.439   1.193   2.510 -0.2064 -0.2945 -0.2566
 2630TIP3    H1 7896   5.346   1.170   2.502 -0.5709  0.9260  0.2987
 2630TIP3    H2 7897   5.467   1.147   2.589 -0.0950 -1.3465 -0.8782
 2631TIP3   OH2 7898   5.029   2.891   3.820  0.3295  0.4845  0.9159
 2631TIP3    H1 7899   4.949   2.907   3.771  1.6375  0.7675 -1.3046
 2631TIP3    H2 7900   5.033   2.796   3.829  1.2829  0.1225 -2.0093
 2632TIP3   OH2 7901   1.890   0.699   4.450 -0.1341  0.1885  0.2006
 2632TIP3    H1 7902   1.821   0.642   4.416 -1.0500  1.1728  0.3330
 2632TIP3    H2 7903   1.932   0.647   4.518 -1.0921 -0.2624  0.4787
 2633TIP3   OH2 7904   3.897   1.798   0.112  0.0797 -0.2166  0.0469
 2633TIP3    H1 7905   3.923   1.746   0.036  0.4557  0.6765 -0.4554
 2633TIP3    H2 7906   3.881   1.886   0.077 -1.1731 -0.1357  0.7696
 2634TIP3   OH2 7907   1.799   3.435   4.957  0.7877  0.0718 -0.1971
 2634TIP3    H1 7908   1.885   3.441   4.915  0.2022 -0.4714 -1.5247
 2634TIP3    H2 7909   1.774   3.343   4.948 -1.0825  0.6909 -2.2794
 2635TIP3   OH2 7910   5.101   2.011   3.010 -0.0348  0.3095 -0.0920
 2635TIP3    H1 7911   5.150   1.931   3.029  0.9093  1.4517  2.6159
 2635TIP3    H2 7912   5.052   1.990   2.930  1.5238 -2.3429 -0.4609
 2636TIP3   OH2 7913   2.762   0.150   0.108  0.1635  0.1704 -0.2779
 2636TIP3    H1 7914   2.707   0.122   0.180  0.3139  1.4420  0.3605
 2636TIP3    H2 7915   2.837   0.091   0.110 -0.1612 -0.2307  0.1686
 2637TIP3   OH2 7916   3.204   3.456   3.611 -0.0437 -0.1974 -0.8571
 2637TIP3    H1 7917   3.243   3.528   3.561  0.4440  0.3190  0.2533
 2637TIP3    H2 7918   3.247   3.459   3.696 -0.0070 -1.8177 -0.7904
 2638TIP3   OH2 7919   2.390   0.052   0.982 -0.1370  0.2969  0.5262
 2638TIP3    H1 7920   2.420   0.061   0.892  0.7051  0.5855  0.8268
 2638TIP3    H2 7921   2.386  -0.043   0.996 -1.1675  0.2337 -0.0920
 2639TIP3   OH2 7922   3.525   2.706   1.264 -0.1102 -0.2282 -0.3057
 2639TIP3    H1 7923   3.592   2.651   1.225  1.3504  1.1598  0.1599
 2639TIP3    H2 7924   3.497   2.764   1.193 -1.5447 -1.3944 -0.7561
 2640TIP3   OH2 7925   5.101   4.822   1.160  0.7978 -0.2145 -0.1899
 2640TIP3    H1 7926   5.195   4.819   1.173  0.6872  0.2442  0.8215
 2640TIP3    H2 7927   5.088   4.886   1.090  1.1175  1.5400  1.2909
 2641TIP3   OH2 7928   5.010   4.641   4.849 -0.1119  0.2600  0.4540
 2641TIP3    H1 7929   5.030   4.548   4.860 -0.0664  0.3043  0.7406
 2641TIP3    H2 7930   4.968   4.646   4.763  0.4171  0.0566  0.1780
 2642TIP3   OH2 7931   0.433   5.595   3.248 -0.3277  0.2541  0.0571
 2642TIP3    H1 7932   0.438   5.635   3.335  0.9893  1.9821 -0.7605
 2642TIP3    H2 7933   0.392   5.662   3.193  0.2457 -0.2236 -0.9792
 2643TIP3   OH2 7934   0.177   0.345   5.011 -0.5660  0.0139  0.1077
 2643TIP3    H1 7935   0.133   0.425   4.986  0.1378  0.4543  0.2405
 2643TIP3    H2 7936   0.192   0.354   5.105 -0.3461 -0.2043  0.0953
 2644TIP3   OH2 7937   3.200   1.799   4.585 -0.4543  0.4529 -0.0637
 2644TIP3    H1 7938   3.172   1.883   4.622  0.9328  1.7113 -1.6884
 2644TIP3    H2 7939   3.267   1.767   4.646 -0.5460  0.8399  0.2419
 2645TIP3   OH2 7940   5.321   0.727   0.410 -0.6141  0.1940  0.7860
 2645TIP3    H1 7941   5.396   0.758   0.460  0.5771 -0.4205 -0.5560
 2645TIP3    H2 7942   5.339   0.634   0.395  0.5588  0.8871 -3.1767
 2646TIP3   OH2 7943   5.933   5.422   2.253 -0.2522  0.0020  0.3176
 2646TIP3    H1 7944   5.934   5.337   2.207 -3.2036 -0.7142  1.3980
 2646TIP3    H2 7945   5.913   5.400   2.344 -0.6916  1.8514  0.7073
 2647TIP3   OH2 7946   4.891   1.963   0.848  0.3034  0.1579 -0.0246
 2647TIP3    H1 7947   4.844   1.980   0.767  0.0241 -1.5573 -0.2643
 2647TIP3    H2 7948   4.982   1.951   0.820  0.4620  0.9723  0.1157
 2648TIP3   OH2 7949   4.518   1.445   1.664 -0.1521 -0.0333 -0.1747
 2648TIP3    H1 7950   4.591   1.397   1.626  2.4614  2.6668  1.0052
 2648TIP3    H2 7951   4.491   1.507   1.596 -1.2413 -0.8621 -0.5224
 2649TIP3   OH2 7952   3.966   3.962   3.193  0.4831 -0.7005  0.0088
 2649TIP3    H1 7953   4.045   3.999   3.231  1.2930 -0.6565 -1.6347
 2649TIP3    H2 7954   3.894   4.012   3.232  1.3618  0.4273  0.2169
 2650TIP3   OH2 7955   2.983   5.679   4.237 -0.4143  0.6486 -0.0857
 2650TIP3    H1 7956   2.967   5.699   4.145  2.3756  0.2608 -0.7546
 2650TIP3    H2 7957   2.998   5.764   4.278 -0.3428  0.7388 -0.2981
 2651TIP3   OH2 7958   2.821   5.299   3.455  0.0389 -0.0668 -0.4102
 2651TIP3    H1 7959   2.868   5.240   3.514  0.2688  2.1415  1.7911
 2651TIP3    H2 7960   2.887   5.360   3.424 -0.2889 -0.5997 -2.2444
 2652TIP3   OH2 7961   3.637   5.776   4.326 -0.4054  0.2041  0.2128
 2652TIP3    H1 7962   3.588   5.711   4.276 -0.2018  0.4584 -0.3192
 2652TIP3    H2 7963   3.685   5.724   4.391  0.2349 -0.2500 -0.5953
 2653TIP3   OH2 7964   2.984   2.284   2.249  0.4022 -0.2766  0.5453
 2653TIP3    H1 7965   3.062   2.239   2.282  1.3733 -1.2321 -2.6496
 2653TIP3    H2 7966   2.911   2.228   2.276  1.4271 -2.8926 -1.5914
 2654TIP3   OH2 7967   4.803   0.955   4.574  0.0851  0.6891 -0.7283
 2654TIP3    H1 7968   4.719   0.960   4.529 -0.0904 -0.9914 -0.6480
 2654TIP3    H2 7969   4.787   0.994   4.660 -0.4816  0.8207 -0.8904
 2655TIP3   OH2 7970   3.576   1.095   0.937 -0.0735  0.1960 -0.5905
 2655TIP3    H1 7971   3.527   1.175   0.958  0.5682  0.1398  1.3108
 2655TIP3    H2 7972   3.526   1.054   0.867 -3.8407 -0.8095  2.3785
 2656TIP3   OH2 7973   2.889   4.489   1.010  0.0503 -0.0810  0.0306
 2656TIP3    H1 7974   2.978   4.459   0.990 -0.0399 -1.0731  0.9884
 2656TIP3    H2 7975   2.885   4.578   0.976  1.0964 -0.3613 -0.8814
 2657TIP3   OH2 7976   2.089   2.626   2.245 -0.1000 -0.3268  0.0345
 2657TIP3    H1 7977   2.049   2.668   2.170  0.9245  0.7946  0.0710
 2657TIP3    H2 7978   2.164   2.579   2.209  0.5434  0.4226  0.3607
 2658TIP3   OH2 7979   3.389   3.237   3.518 -0.2466  0.3640 -0.2511
 2658TIP3    H1 7980   3.328   3.256   3.446 -2.0154 -3.0897  0.1459
 2658TIP3    H2 7981   3.333   3.214   3.591  1.5730  1.3522  1.5557
 2659TIP3   OH2 7982   2.240   2.001   3.380 -0.3077 -0.5954 -0.3481
 2659TIP3    H1 7983   2.253   1.963   3.293  1.2453  1.5524 -1.1507
 2659TIP3    H2 7984   2.176   2.071   3.366  0.5044  0.2450  0.0576
 2660TIP3   OH2 7985   1.460   4.482   2.877 -0.0311 -0.2175  0.7781
 2660TIP3    H1 7986   1.498   4.527   2.801 -3.9239  2.7939  0.2907
 2660TIP3    H2 7987   1.482   4.539   2.951 -2.1756  0.8369  0.6789
 2661TIP3   OH2 7988   5.065   0.696   0.559 -0.7849  0.2867  0.4834
 2661TIP3    H1 7989   5.157   0.706   0.535 -1.3606  3.4214 -0.9768
 2661TIP3    H2 7990   5.057   0.744   0.641 -1.0920 -0.0375  0.6417
 2662TIP3   OH2 7991   3.457   0.724   0.736 -0.3210  0.0114 -0.2230
 2662TIP3    H1 7992   3.534   0.730   0.680 -1.4296 -0.8350 -1.9240
 2662TIP3    H2 7993   3.487   0.673   0.812  0.5634 -1.1444 -1.3003
 2663TIP3   OH2 7994   5.676   0.382   3.988 -0.3289 -0.0806  0.0081
 2663TIP3    H1 7995   5.658   0.394   4.081 -0.9150  0.1435 -0.1307
 2663TIP3    H2 7996   5.731   0.303   3.984 -0.8970 -0.5020  0.4838
 2664TIP3   OH2 7997   3.872   4.991   3.960  0.5917  0.5737  0.5003
 2664TIP3    H1 7998   3.841   4.948   4.040  1.2847 -0.0957  0.4170
 2664TIP3    H2 7999   3.958   5.027   3.984  0.5536  0.8622  0.2132
 2665TIP3   OH2 8000   1.517   2.253   1.165  0.5032  0.3348  0.0615
 2665TIP3    H1 8001   1.491   2.345   1.164  0.5883  0.3666  0.5254
 2665TIP3    H2 8002   1.452   2.209   1.111 -1.1140  0.2674  1.9404
 2666TIP3   OH2 8003   6.097   3.800   1.706  0.4266  0.0284 -0.4626
 2666TIP3    H1 8004   6.067   3.723   1.658 -2.6525 -0.7311  2.3244
 2666TIP3    H2 8005   6.186   3.777   1.735  0.1804 -1.7879 -1.0366
 2667TIP3   OH2 8006   3.651   0.272   2.000  0.1043  0.1869  0.1183
 2667TIP3    H1 8007   3.719   0.332   2.030  0.0192  1.6662 -2.3931
 2667TIP3    H2 8008   3.569   0.321   2.010 -0.2983 -0.5701  0.6086
 2668TIP3   OH2 8009   6.063   5.372   0.361  0.8149  0.9511  0.2513
 2668TIP3    H1 8010   5.998   5.414   0.304 -0.4299  2.3900  2.5818
 2668TIP3    H2 8011   6.031   5.282   0.371  1.1327  0.6226 -1.3588
 2669TIP3   OH2 8012   0.747   5.003   5.065 -0.2196 -0.0915  0.1657
 2669TIP3    H1 8013   0.652   5.006   5.074 -0.0982  0.5100  1.6578
 2669TIP3    H2 8014   0.772   5.094   5.046 -0.0777 -0.6119 -2.4246
 2670TIP3   OH2 8015   5.968   0.741   2.322 -0.0824  0.0592  0.2421
 2670TIP3    H1 8016   5.934   0.746   2.412 -1.0867 -0.8865 -0.0649
 2670TIP3    H2 8017   5.892   0.715   2.270  1.2624 -3.1230 -0.3545
 2671TIP3   OH2 8018   2.299   4.209   1.850 -0.1636 -0.7742  0.9806
 2671TIP3    H1 8019   2.351   4.180   1.775  0.4638 -0.9092  1.4636
 2671TIP3    H2 8020   2.260   4.128   1.884 -0.6560 -0.6808  0.6542
 2672TIP3   OH2 8021   3.901   0.636   4.916 -0.1355 -0.5693  0.0559
 2672TIP3    H1 8022   3.860   0.550   4.919 -0.4768 -0.3894  1.3870
 2672TIP3    H2 8023   3.835   0.695   4.953  0.0207  0.3056 -1.0098
 2673TIP3   OH2 8024   4.820   3.293   3.857 -0.0224 -0.4667 -0.7982
 2673TIP3    H1 8025   4.847   3.353   3.788  1.5044 -1.3385 -1.0150
 2673TIP3    H2 8026   4.878   3.314   3.930 -0.1587 -1.0038 -0.5320
 2674TIP3   OH2 8027   3.515   1.451   2.815 -0.0837 -0.7982  0.1836
 2674TIP3    H1 8028   3.546   1.524   2.762 -0.0733 -0.9270  0.0125
 2674TIP3    H2 8029   3.568   1.454   2.894  2.9512 -3.1513 -1.5412
 2675TIP3   OH2 8030   4.601   4.101   4.635  0.1766 -0.1723  0.2706
 2675TIP3    H1 8031   4.577   4.009   4.647  0.4114 -0.3350 -0.4568
 2675TIP3    H2 8032   4.581   4.120   4.543 -1.1346  0.8997  0.7471
 2676TIP3   OH2 8033   6.253   3.941   0.982  0.0893  0.0013  0.0820
 2676TIP3    H1 8034   6.183   3.938   0.917 -0.4571 -0.6709  0.6773
 2676TIP3    H2 8035   6.209   3.963   1.064  0.8343  1.2645  0.1669
 2677TIP3   OH2 8036   4.833   0.972   0.019 -0.0143 -0.1283  0.0420
 2677TIP3    H1 8037   4.825   0.993   0.112 -1.2788 -0.7393  0.0969
 2677TIP3    H2 8038   4.743   0.973  -0.013  0.4909  1.0324 -1.4072
 2678TIP3   OH2 8039   0.323   5.054   3.094  0.0975 -0.2130  0.3236
 2678TIP3    H1 8040   0.349   4.997   3.166  0.1705 -1.2418 -0.4964
 2678TIP3    H2 8041   0.379   5.131   3.103  0.5995 -0.6372  0.9422
 2679TIP3   OH2 8042   3.065   0.553   0.515 -0.0231 -0.5132  0.2482
 2679TIP3    H1 8043   3.111   0.617   0.570  0.0816 -2.8297  3.1073
 2679TIP3    H2 8044   3.129   0.483   0.503 -1.4863 -2.0654  1.0658
 2680TIP3   OH2 8045   5.070   5.621   0.306  0.0108  0.0959  0.3397
 2680TIP3    H1 8046   5.127   5.677   0.359 -1.3225 -0.1891  2.1725
 2680TIP3    H2 8047   5.087   5.648   0.215  2.1758  0.7917  0.9079
 2681TIP3   OH2 8048   5.112   1.828   1.367 -0.0318  0.1293  0.0241
 2681TIP3    H1 8049   5.127   1.869   1.452  0.7446  1.4532 -0.7117
 2681TIP3    H2 8050   5.036   1.875   1.331 -1.7606 -1.8914  0.8479
 2682TIP3   OH2 8051   1.961   2.167   0.885  0.0268  0.0509  0.2146
 2682TIP3    H1 8052   2.039   2.171   0.829 -0.0415 -1.5405 -0.0397
 2682TIP3    H2 8053   1.985   2.105   0.954 -0.4831  0.7186  0.9941
 2683TIP3   OH2 8054   1.870   3.573   1.294  0.6655 -0.3407  0.4657
 2683TIP3    H1 8055   1.894   3.494   1.344 -0.4798 -1.8832 -1.2744
 2683TIP3    H2 8056   1.935   3.577   1.224 -0.1461 -0.6306 -0.3217
 2684TIP3   OH2 8057   0.887   4.326   3.941 -0.1168  0.1729  0.5450
 2684TIP3    H1 8058   0.869   4.232   3.945  1.6145 -0.1962  0.6438
 2684TIP3    H2 8059   0.932   4.339   3.858 -0.0965  0.8635  0.6509
 2685TIP3   OH2 8060   1.881   4.832   5.057  0.0552 -0.5635 -0.1553
 2685TIP3    H1 8061   1.970   4.867   5.067 -0.0317  0.6469 -2.9333
 2685TIP3    H2 8062   1.893   4.746   5.017 -0.0424 -0.3591 -0.6192
 2686TIP3   OH2 8063   0.276   4.434   1.429 -0.3092 -0.2485  0.3822
 2686TIP3    H1 8064   0.247   4.404   1.515 -0.0534  0.4502  0.7210
 2686TIP3    H2 8065   0.205   4.490   1.398  0.5545  1.3386  1.1451
 2687TIP3   OH2 8066   2.930   4.446   3.318 -0.1521 -0.3213 -0.3441
 2687TIP3    H1 8067   2.955   4.404   3.235 -0.3697  1.1157 -1.1610
 2687TIP3    H2 8068   2.834   4.448   3.316 -0.1731 -0.5683  0.1093
 2688TIP3   OH2 8069   2.619   1.842   0.416 -0.1016  0.2080 -0.1420
 2688TIP3    H1 8070   2.546   1.897   0.445 -1.7079 -1.7384 -0.3326
 2688TIP3    H2 8071   2.627   1.860   0.323 -0.6793  0.0597 -0.2220
 2689TIP3   OH2 8072   5.348   1.067   0.772 -0.2443 -0.6124 -0.1196
 2689TIP3    H1 8073   5.329   1.134   0.838  0.3642 -1.0897  0.5603
 2689TIP3    H2 8074   5.327   1.109   0.689 -1.4576 -0.1510  0.3970
 2690TIP3   OH2 8075   4.967   0.566   4.030  0.1582 -0.6318  0.2233
 2690TIP3    H1 8076   4.878   0.547   4.061 -0.2704  0.2614 -0.3813
 2690TIP3    H2 8077   5.023   0.503   4.075 -0.9753 -2.2744 -0.5838
 2691TIP3   OH2 8078   3.753   2.302   1.908  0.5512  0.4964 -0.6135
 2691TIP3    H1 8079   3.675   2.285   1.855  0.1537 -0.5805  0.2731
 2691TIP3    H2 8080   3.826   2.278   1.851  0.1417 -0.4779 -0.7427
 2692TIP3   OH2 8081   6.038   0.502   4.478  0.6737 -0.6395 -0.2667
 2692TIP3    H1 8082   6.046   0.436   4.409  0.3309 -0.9646 -0.0001
 2692TIP3    H2 8083   5.950   0.489   4.513  0.9269 -0.6367  0.3896
 2693TIP3   OH2 8084   2.551   5.945   0.985 -0.5165  0.0820 -0.2805
 2693TIP3    H1 8085   2.530   5.938   1.078  1.2926 -2.2892  0.0341
 2693TIP3    H2 8086   2.468   5.929   0.941 -1.5921  2.1213  0.8726
 2694TIP3   OH2 8087   6.338   1.022   4.438  0.1621 -0.1328 -0.0802
 2694TIP3    H1 8088   6.250   0.985   4.434  0.2146 -0.2654 -0.0251
 2694TIP3    H2 8089   6.325   1.113   4.464  0.1486 -0.5895  1.6612
 2695TIP3   OH2 8090   3.734   1.656   3.774 -0.1408 -0.2180 -0.2631
 2695TIP3    H1 8091   3.779   1.736   3.801 -0.6017  0.0766 -0.3693
 2695TIP3    H2 8092   3.802   1.605   3.730  0.8975 -1.1386  2.2265
 2696TIP3   OH2 8093   1.224   3.584   4.773 -0.0094  0.0289 -0.1567
 2696TIP3    H1 8094   1.318   3.597   4.759 -0.5130  2.2536 -2.0446
 2696TIP3    H2 8095   1.203   3.639   4.849  0.2786 -1.0634  0.7551
 2697TIP3   OH2 8096   1.617   4.084   4.663  0.0568  0.3600  0.0804
 2697TIP3    H1 8097   1.560   4.148   4.620  0.7252  0.1437 -1.1804
 2697TIP3    H2 8098   1.692   4.075   4.603 -0.3943 -2.2024 -0.1913
 2698TIP3   OH2 8099   0.775   3.012   4.082 -0.1908  0.4480  0.7976
 2698TIP3    H1 8100   0.757   2.918   4.083 -0.3857  0.4791  0.3845
 2698TIP3    H2 8101   0.714   3.047   4.018  1.1558  0.6110 -0.4316
 2699TIP3   OH2 8102   0.319   4.475   2.329  0.2292 -0.3264 -0.6711
 2699TIP3    H1 8103   0.303   4.564   2.298  0.6805 -0.3806 -1.0634
 2699TIP3    H2 8104   0.355   4.429   2.253  0.5945 -0.6769 -0.2904
 2700TIP3   OH2 8105   1.037   5.351   0.494 -0.4863 -0.7926  0.3613
 2700TIP3    H1 8106   0.955   5.338   0.447  0.2295 -0.5241 -1.0429
 2700TIP3    H2 8107   1.103   5.308   0.439  0.5033  0.2604  0.6677
 2701TIP3   OH2 8108   1.667   1.890   3.131  0.2715  0.4980  0.3762
 2701TIP3    H1 8109   1.657   1.801   3.097  1.8167  0.7196 -0.7666
 2701TIP3    H2 8110   1.721   1.879   3.209 -0.5760  0.3337  0.9607
 2702TIP3   OH2 8111   3.772   2.370   2.431  0.2323  0.2494 -0.0025
 2702TIP3    H1 8112   3.745   2.347   2.342  0.5348  0.1439 -0.0676
 2702TIP3    H2 8113   3.788   2.464   2.428 -1.6054  0.6179  0.4137
 2703TIP3   OH2 8114   0.339   3.219   0.847 -0.1157  0.0579 -0.0460
 2703TIP3    H1 8115   0.413   3.250   0.900 -0.5243  1.1835 -0.1236
 2703TIP3    H2 8116   0.374   3.142   0.802  1.1273  0.7605 -0.3371
 2704TIP3   OH2 8117   5.871   4.140   1.903  0.3055 -0.1764  0.4635
 2704TIP3    H1 8118   5.798   4.091   1.941  0.5322  0.0984  1.2617
 2704TIP3    H2 8119   5.851   4.232   1.922 -0.3483  0.1257 -1.4208
 2705TIP3   OH2 8120   5.467   0.036   3.042  0.8089  0.6337 -0.1369
 2705TIP3    H1 8121   5.426   0.077   3.118  0.0407  0.8820 -0.6750
 2705TIP3    H2 8122   5.523   0.105   3.005  0.7037  0.7148 -0.1479
 2706TIP3   OH2 8123   0.275   4.314   5.041 -0.3113 -0.3217  0.5841
 2706TIP3    H1 8124   0.286   4.390   5.098 -0.1798  0.2458 -0.1872
 2706TIP3    H2 8125   0.334   4.248   5.078  1.3323  0.7156 -0.0590
 2707TIP3   OH2 8126   5.660   1.103   4.139  0.0723 -0.2996 -0.5534
 2707TIP3    H1 8127   5.589   1.142   4.188  0.1823 -0.9571  0.1494
 2707TIP3    H2 8128   5.738   1.116   4.193  0.1502 -1.2438 -0.4066
 2708TIP3   OH2 8129   4.885   2.547   0.643  0.5125  0.0578 -0.2843
 2708TIP3    H1 8130   4.894   2.636   0.607  0.8195 -0.6776 -2.1305
 2708TIP3    H2 8131   4.814   2.508   0.592  0.1853 -0.6716  0.7067
 2709TIP3   OH2 8132   3.183   4.431   0.990 -0.6304 -0.1694  0.2768
 2709TIP3    H1 8133   3.238   4.397   1.061  0.5128  0.6811 -0.1667
 2709TIP3    H2 8134   3.188   4.365   0.921 -1.3192 -0.7490  0.7588
 2710TIP3   OH2 8135   0.438   0.123   2.236  0.0598  0.2275  0.4013
 2710TIP3    H1 8136   0.391   0.184   2.292  0.8715 -0.0725  1.4340
 2710TIP3    H2 8137   0.528   0.128   2.266  0.4725 -0.1068 -0.7437
 2711TIP3   OH2 8138   2.025   4.701   1.743  0.3093  0.5416 -0.4604
 2711TIP3    H1 8139   1.962   4.652   1.796 -0.1944 -0.0051 -1.5509
 2711TIP3    H2 8140   2.093   4.728   1.806  1.6533 -3.1832 -0.1118
 2712TIP3   OH2 8141   3.425   0.430   4.505 -0.1452 -0.1159 -0.8021
 2712TIP3    H1 8142   3.425   0.357   4.567 -0.0980  0.6199  0.0832
 2712TIP3    H2 8143   3.408   0.389   4.420  2.0701 -1.4703 -0.6825
 2713TIP3   OH2 8144   3.140   4.654   1.966  0.1756  0.6636  0.0058
 2713TIP3    H1 8145   3.075   4.713   1.927 -0.6643 -0.5369 -0.4598
 2713TIP3    H2 8146   3.092   4.573   1.981  1.1346  0.3092  1.2891
 2714TIP3   OH2 8147   2.119   5.108   3.817 -0.6101  0.1045  0.5095
 2714TIP3    H1 8148   2.204   5.095   3.776 -0.5718 -0.2829  0.7020
 2714TIP3    H2 8149   2.088   5.192   3.783 -0.9035 -0.5307 -0.8988
 2715TIP3   OH2 8150   5.126   2.458   2.923  0.0327 -0.0517  0.4485
 2715TIP3    H1 8151   5.121   2.538   2.872  0.8148  1.2252  2.2873
 2715TIP3    H2 8152   5.123   2.388   2.857 -1.1740  1.4308 -1.1635
 2716TIP3   OH2 8153   2.202   5.560   4.535  0.0595 -0.1509  0.4069
 2716TIP3    H1 8154   2.181   5.653   4.542 -1.8568 -0.6388  2.3099
 2716TIP3    H2 8155   2.122   5.520   4.500  0.6274 -1.1475  0.2186
 2717TIP3   OH2 8156   0.491   5.043   0.721  0.2050 -0.6444 -0.4405
 2717TIP3    H1 8157   0.396   5.051   0.723  0.3049  0.6131  1.5461
 2717TIP3    H2 8158   0.510   4.966   0.774  0.3546  0.2019  0.7662
 2718TIP3   OH2 8159   5.409   0.498   1.996  0.4306  0.1845 -0.0552
 2718TIP3    H1 8160   5.357   0.504   1.916  0.7189  0.8820 -0.1942
 2718TIP3    H2 8161   5.442   0.408   1.996  0.5241  0.2139 -0.7773
 2719TIP3   OH2 8162   4.587   1.573   4.113 -0.2388 -0.7726  0.0953
 2719TIP3    H1 8163   4.519   1.618   4.064 -0.6522 -1.8134 -0.3263
 2719TIP3    H2 8164   4.669   1.600   4.072 -0.4390 -0.0368  0.1744
 2720TIP3   OH2 8165   1.400   0.389   1.152 -0.0439 -0.4101  0.2767
 2720TIP3    H1 8166   1.474   0.368   1.209 -0.0068 -0.6391  0.1470
 2720TIP3    H2 8167   1.437   0.390   1.064  0.4723  2.5112  0.4199
 2721TIP3   OH2 8168   3.599   3.020   1.275  0.3239  0.1933 -0.3893
 2721TIP3    H1 8169   3.626   2.959   1.205 -0.0295  0.1491 -0.4913
 2721TIP3    H2 8170   3.517   3.058   1.243  0.1788  0.2020 -0.0129
 2722TIP3   OH2 8171   5.017   0.320   1.382 -0.4129 -0.7203  0.5927
 2722TIP3    H1 8172   5.107   0.350   1.372 -0.8487 -0.0537 -2.3614
 2722TIP3    H2 8173   4.977   0.384   1.440  0.5875 -0.0058  0.5197
 2723TIP3   OH2 8174   3.560   1.706   4.503 -0.1387 -0.3976 -0.2697
 2723TIP3    H1 8175   3.647   1.705   4.544 -0.3712  0.6659  0.3051
 2723TIP3    H2 8176   3.499   1.695   4.576 -0.4986 -1.1808 -0.6757
 2724TIP3   OH2 8177   1.231   3.079   5.140  0.1684 -0.5537  0.5001
 2724TIP3    H1 8178   1.157   3.126   5.101  0.2441  0.6676  1.7574
 2724TIP3    H2 8179   1.293   3.067   5.068  0.3210  1.6702  0.2061
 2725TIP3   OH2 8180   0.209   3.988   3.395  0.0046 -0.2090 -0.4495
 2725TIP3    H1 8181   0.210   4.081   3.418  2.3219 -0.4940  0.9754
 2725TIP3    H2 8182   0.227   3.986   3.301  0.1736  0.7753 -0.4464
 2726TIP3   OH2 8183   5.374   3.890   5.105  0.1439 -0.4021  0.2527
 2726TIP3    H1 8184   5.285   3.902   5.071  0.3243  0.5491  0.1027
 2726TIP3    H2 8185   5.364   3.902   5.200  0.1851  0.1324  0.1897
 2727TIP3   OH2 8186   3.628   3.104   4.525 -0.6358  0.0824  0.5423
 2727TIP3    H1 8187   3.600   3.093   4.434 -0.0126  0.0489  0.3489
 2727TIP3    H2 8188   3.641   3.015   4.557 -0.3240  0.1056  0.4884
 2728TIP3   OH2 8189   2.066   2.716   1.166 -0.0791  0.0351  0.1392
 2728TIP3    H1 8190   2.054   2.623   1.188 -0.5659  0.0971  0.1323
 2728TIP3    H2 8191   2.042   2.722   1.074 -0.5398  0.2654  0.2755
 2729TIP3   OH2 8192   4.059   0.908   4.727 -0.2064 -0.4110  0.3490
 2729TIP3    H1 8193   4.029   0.821   4.703 -0.0684 -0.3639 -0.0079
 2729TIP3    H2 8194   4.009   0.967   4.670 -0.7979 -0.2099  1.0654
 2730TIP3   OH2 8195   3.320   2.988   3.010 -0.2158  0.3457  0.6691
 2730TIP3    H1 8196   3.266   2.959   2.937  0.7090  0.7056 -0.1873
 2730TIP3    H2 8197   3.383   2.918   3.023 -0.0704  0.5005  0.8029
 2731TIP3   OH2 8198   4.007   1.745   4.005 -0.3095 -0.1765 -0.1510
 2731TIP3    H1 8199   3.923   1.782   4.033 -0.9526 -1.3319 -0.4877
 2731TIP3    H2 8200   4.071   1.784   4.064 -0.9631  1.3326 -0.3866
 2732TIP3   OH2 8201   3.679   3.760   4.087 -0.3490  0.2149  0.4091
 2732TIP3    H1 8202   3.698   3.703   4.162  1.7418 -0.3043 -0.4438
 2732TIP3    H2 8203   3.759   3.811   4.074 -0.8101  0.5924 -1.2266
 2733TIP3   OH2 8204   5.137   2.092   3.586  0.0218 -0.0153 -0.6212
 2733TIP3    H1 8205   5.228   2.089   3.559 -0.7022 -1.6286 -3.2600
 2733TIP3    H2 8206   5.089   2.117   3.507 -2.0401 -2.2185 -0.1978
 2734TIP3   OH2 8207   4.687   1.012   1.915 -0.1959  0.0108 -0.4118
 2734TIP3    H1 8208   4.593   1.026   1.909 -0.4148 -1.2520 -0.1684
 2734TIP3    H2 8209   4.704   0.933   1.864  0.5567 -0.4031  0.4343
 2735TIP3   OH2 8210   4.921   5.463   3.596  0.3196  0.3475  0.4622
 2735TIP3    H1 8211   4.995   5.404   3.581  1.6765  2.1805 -0.3256
 2735TIP3    H2 8212   4.955   5.531   3.654 -1.3435  0.1936  1.7193
 2736TIP3   OH2 8213   0.584   2.782   4.017 -0.1684 -0.6630  0.3796
 2736TIP3    H1 8214   0.622   2.748   3.936  1.0942  0.9188  0.2605
 2736TIP3    H2 8215   0.559   2.703   4.066 -1.1593 -1.6561 -1.6019
 2737TIP3   OH2 8216   1.424   0.139   0.006  0.5822  0.3256  0.0670
 2737TIP3    H1 8217   1.402   0.173   0.093 -0.9335 -0.7287  0.1393
 2737TIP3    H2 8218   1.519   0.152  -0.001  0.7820  0.2499  1.9629
 2738TIP3   OH2 8219   4.928   0.111   3.952  0.1263  0.0472 -0.1789
 2738TIP3    H1 8220   4.893   0.193   3.919  1.0342  0.3714 -0.3780
 2738TIP3    H2 8221   4.886   0.099   4.037 -0.5509  0.3455 -0.4698
 2739TIP3   OH2 8222   2.529   1.213   3.058  0.2263  0.3883  0.1696
 2739TIP3    H1 8223   2.503   1.244   2.971 -0.6661  1.3340  0.7607
 2739TIP3    H2 8224   2.605   1.157   3.041 -0.3830 -0.0627 -1.2995
 2740TIP3   OH2 8225   0.617   0.649   1.382 -0.7789 -0.1804 -0.5971
 2740TIP3    H1 8226   0.527   0.658   1.414 -0.4137  1.9433 -0.0411
 2740TIP3    H2 8227   0.670   0.643   1.462 -0.3593 -0.9401 -0.9194
 2741TIP3   OH2 8228   6.294   1.909   2.788 -0.1837  0.6602  0.6794
 2741TIP3    H1 8229   6.238   1.986   2.788 -1.8056 -0.4261  1.7316
 2741TIP3    H2 8230   6.352   1.922   2.863 -0.3835  0.9107  0.7937
 2742TIP3   OH2 8231   4.482   2.649   3.685 -0.1004  0.3075 -0.2105
 2742TIP3    H1 8232   4.517   2.664   3.597  1.7062  0.0822  0.4300
 2742TIP3    H2 8233   4.393   2.684   3.681 -0.9529 -1.7741 -2.7945
 2743TIP3   OH2 8234   0.313   3.686   2.941  0.1924 -0.0058 -0.0867
 2743TIP3    H1 8235   0.374   3.716   3.009  1.1198  1.8983 -1.6774
 2743TIP3    H2 8236   0.255   3.760   2.926 -0.3211 -0.5846 -1.0368
 2744TIP3   OH2 8237   0.132   5.406   1.231 -0.2287 -0.5333  0.1818
 2744TIP3    H1 8238   0.042   5.436   1.218 -0.0410  0.5944  1.3595
 2744TIP3    H2 8239   0.151   5.424   1.323  1.2283 -0.6850 -0.0621
 2745TIP3   OH2 8240   3.071   3.501   4.655 -0.1812 -0.2157  0.4770
 2745TIP3    H1 8241   3.033   3.474   4.571  0.9856 -1.6514  0.3675
 2745TIP3    H2 8242   3.002   3.552   4.697 -1.8669 -1.8550 -0.1467
 2746TIP3   OH2 8243   4.429   0.935   1.989 -0.5442  0.1768  0.1448
 2746TIP3    H1 8244   4.378   1.013   2.009 -1.6448 -0.1089 -1.4470
 2746TIP3    H2 8245   4.432   0.887   2.072 -0.3330  1.5903  0.9987
 2747TIP3   OH2 8246   6.103   5.851   2.654  0.2797 -0.4265 -0.5052
 2747TIP3    H1 8247   6.125   5.940   2.681 -0.7241 -0.1928 -0.4486
 2747TIP3    H2 8248   6.097   5.855   2.559 -0.4833 -0.2575 -0.4574
 2748TIP3   OH2 8249   2.633   5.336   1.427  0.1590 -0.2389 -0.3661
 2748TIP3    H1 8250   2.675   5.420   1.413  2.1079 -1.1854 -0.4939
 2748TIP3    H2 8251   2.551   5.357   1.473  1.5390  1.5861  1.4310
 2749TIP3   OH2 8252   5.723   0.222   3.589 -0.0892 -0.4609 -0.2517
 2749TIP3    H1 8253   5.641   0.252   3.630 -0.0634 -1.0017  0.2083
 2749TIP3    H2 8254   5.719   0.126   3.595 -0.3589 -0.6105 -2.0545
 2750TIP3   OH2 8255   0.513   1.713   3.097  0.0850  0.4402  0.6969
 2750TIP3    H1 8256   0.454   1.662   3.041  0.0843 -0.8479  1.8043
 2750TIP3    H2 8257   0.486   1.804   3.085  1.0669  0.4411 -2.5370
 2751TIP3   OH2 8258   1.049   2.957   4.023  0.4479 -0.3186 -0.7419
 2751TIP3    H1 8259   0.962   2.995   4.014  0.2217 -1.1897 -2.5139
 2751TIP3    H2 8260   1.080   2.990   4.108 -0.6405  1.9078 -1.1238
 2752TIP3   OH2 8261   3.966   4.520   0.745  0.4072 -0.8586 -0.1695
 2752TIP3    H1 8262   4.019   4.540   0.669  0.3505  0.4983  0.1198
 2752TIP3    H2 8263   3.881   4.493   0.709  0.7797 -1.4823 -0.5945
 2753TIP3   OH2 8264   2.886   2.886   2.019 -0.1423 -0.0789  0.1461
 2753TIP3    H1 8265   2.918   2.945   1.951 -1.8198 -0.7021 -1.2633
 2753TIP3    H2 8266   2.953   2.819   2.026  1.3600  1.4342  1.1251
 2754TIP3   OH2 8267   4.193   2.113   1.726  0.3461  0.2418 -0.1712
 2754TIP3    H1 8268   4.249   2.084   1.654  1.5158  1.4450  0.2268
 2754TIP3    H2 8269   4.247   2.104   1.804 -0.7088 -0.4724  0.5019
 2755TIP3   OH2 8270   1.924   5.803   4.687 -0.2576  0.0529 -0.0156
 2755TIP3    H1 8271   1.963   5.784   4.773  2.6531  0.7415 -1.0917
 2755TIP3    H2 8272   1.990   5.774   4.624 -2.8614 -1.6948 -2.1498
 2756TIP3   OH2 8273   2.882   0.684   2.902 -0.0095 -0.1860  0.2851
 2756TIP3    H1 8274   2.864   0.777   2.912  1.6760  0.0469  1.4646
 2756TIP3    H2 8275   2.952   0.680   2.836  0.0074 -0.6153  0.3250
 2757TIP3   OH2 8276   5.570   0.757   5.166  0.0340 -0.2930 -0.1776
 2757TIP3    H1 8277   5.536   0.746   5.254  0.8836  0.0746  0.2049
 2757TIP3    H2 8278   5.521   0.832   5.130 -0.4910 -0.6032 -0.1199
 2758TIP3   OH2 8279   6.091   1.517   0.415 -0.6096  0.2171 -0.4699
 2758TIP3    H1 8280   6.159   1.449   0.418 -1.1898 -0.3934 -0.7199
 2758TIP3    H2 8281   6.059   1.523   0.505 -0.1140  0.6252 -0.3192
 2759TIP3   OH2 8282   0.077   0.991   3.686 -0.0454  0.5976 -0.1767
 2759TIP3    H1 8283   0.163   1.030   3.702 -0.6283  2.2281 -0.7896
 2759TIP3    H2 8284   0.025   1.063   3.649 -0.9987 -0.9503 -1.9893
 2760TIP3   OH2 8285   2.757   0.349   3.698  0.2392 -0.2453 -0.1099
 2760TIP3    H1 8286   2.806   0.269   3.717  1.2048  0.0407 -1.2473
 2760TIP3    H2 8287   2.717   0.332   3.612  1.5226  0.9251 -0.9975
 2761TIP3   OH2 8288   5.617   1.759   1.303 -0.4890 -0.2496  0.2138
 2761TIP3    H1 8289   5.654   1.677   1.270  0.8453  0.4707 -0.1372
 2761TIP3    H2 8290   5.609   1.815   1.225 -2.1727 -0.2912  0.3000
 2762TIP3   OH2 8291   5.618   3.117   2.556 -0.9720  0.1209  0.3723
 2762TIP3    H1 8292   5.646   3.025   2.560 -0.8778  0.1442  0.2371
 2762TIP3    H2 8293   5.540   3.120   2.611 -0.5281  0.1211  1.0087
 2763TIP3   OH2 8294   1.616   4.760   4.947  0.5939  0.4970 -0.4196
 2763TIP3    H1 8295   1.689   4.804   4.989 -1.3585  1.8016  1.9146
 2763TIP3    H2 8296   1.591   4.691   5.009 -0.7845  0.7885 -0.6027
 2764TIP3   OH2 8297   5.691   2.256   3.446  0.0466 -0.3113  1.1342
 2764TIP3    H1 8298   5.724   2.178   3.490  0.0701 -0.1944  1.3270
 2764TIP3    H2 8299   5.608   2.275   3.490 -1.3490 -1.7995 -0.6952
 2765TIP3   OH2 8300   1.672   4.628   2.125 -0.0989 -0.5726  0.0880
 2765TIP3    H1 8301   1.577   4.630   2.121 -0.4206  0.3091  4.0362
 2765TIP3    H2 8302   1.694   4.535   2.121 -1.2299 -0.8599  0.2460
 2766TIP3   OH2 8303   1.206   1.676   1.857  0.3965 -0.8475 -0.1809
 2766TIP3    H1 8304   1.295   1.687   1.889  0.3158 -0.3052 -0.1183
 2766TIP3    H2 8305   1.214   1.679   1.762  0.6277 -2.3888 -0.2301
 2767TIP3   OH2 8306   3.692   0.441   0.352  0.3546 -0.4321  0.2114
 2767TIP3    H1 8307   3.716   0.366   0.406  1.2228 -0.1052  0.2960
 2767TIP3    H2 8308   3.775   0.477   0.322 -0.0766  0.0735 -0.4169
 2768TIP3   OH2 8309   3.747   3.493   0.771  0.0018  0.4533  0.6194
 2768TIP3    H1 8310   3.842   3.489   0.774 -0.0354 -1.2490  0.5194
 2768TIP3    H2 8311   3.719   3.460   0.856 -0.4963 -1.6107 -0.2809
 2769TIP3   OH2 8312   0.097   3.650   2.674 -0.2860 -0.7000 -0.4728
 2769TIP3    H1 8313   0.004   3.633   2.665 -0.7609  1.6442 -0.7869
 2769TIP3    H2 8314   0.102   3.739   2.710  1.7816 -0.2281 -1.7135
 2770TIP3   OH2 8315   4.733   2.697   3.029 -0.7575 -0.6661  0.7565
 2770TIP3    H1 8316   4.643   2.668   3.046 -0.5326 -2.0048 -0.1670
 2770TIP3    H2 8317   4.772   2.626   2.979  0.1808  0.8199 -0.7297
 2771TIP3   OH2 8318   2.782   2.485   1.213 -0.1574  0.3165 -0.7071
 2771TIP3    H1 8319   2.697   2.465   1.253  0.0357 -0.3391 -0.6095
 2771TIP3    H2 8320   2.815   2.400   1.183  0.6196  0.5147 -0.4413
 2772TIP3   OH2 8321   2.601   1.779   3.490  0.6040 -0.1979  0.4758
 2772TIP3    H1 8322   2.599   1.857   3.434 -1.7282 -0.0467  0.6986
 2772TIP3    H2 8323   2.641   1.809   3.572  0.4446  0.5580  0.2806
 2773TIP3   OH2 8324   3.383   3.978   1.401  0.4513 -0.2955 -0.5063
 2773TIP3    H1 8325   3.358   4.069   1.419 -0.7201 -0.7376  0.2137
 2773TIP3    H2 8326   3.338   3.927   1.469  0.7395 -1.4580 -1.1675
 2774TIP3   OH2 8327   1.133   3.886   2.403 -0.1133  0.3721  0.2607
 2774TIP3    H1 8328   1.164   3.892   2.312 -1.2688  1.1210 -0.1032
 2774TIP3    H2 8329   1.148   3.973   2.439  1.4010 -0.2270  1.1765
 2775TIP3   OH2 8330   5.349   0.722   4.565  0.1329 -0.0506  0.4553
 2775TIP3    H1 8331   5.316   0.749   4.478  0.2791  0.2687  0.4967
 2775TIP3    H2 8332   5.304   0.640   4.583  0.4248 -0.3425 -0.1150
 2776TIP3   OH2 8333   2.043   5.043   2.467 -0.6526  0.4853 -0.2390
 2776TIP3    H1 8334   2.128   5.000   2.473 -0.6819  0.5278  0.6659
 2776TIP3    H2 8335   1.981   4.976   2.498 -0.9601  0.4255 -0.9746
 2777TIP3   OH2 8336   6.271   1.341   4.216  0.4581 -0.1453 -0.1263
 2777TIP3    H1 8337   6.280   1.430   4.182 -0.0133 -0.3358 -0.7747
 2777TIP3    H2 8338   6.233   1.291   4.143  0.7632 -0.8897  0.2124
 2778TIP3   OH2 8339   2.570   5.772   4.473  0.0231  0.0928  0.1994
 2778TIP3    H1 8340   2.513   5.849   4.470  0.4030  0.3519 -1.9364
 2778TIP3    H2 8341   2.658   5.808   4.482  0.1633 -0.0935 -0.3781
 2779TIP3   OH2 8342   2.350   5.973   2.698 -0.4162  0.5280  0.4203
 2779TIP3    H1 8343   2.257   5.970   2.677 -0.4319  3.5852 -0.5186
 2779TIP3    H2 8344   2.394   5.959   2.615 -0.1217  1.0667  0.4808
 2780TIP3   OH2 8345   1.513   3.529   0.582 -0.0090  0.3760 -1.2336
 2780TIP3    H1 8346   1.600   3.559   0.557  0.9584  0.1159  1.4555
 2780TIP3    H2 8347   1.490   3.583   0.657 -2.2584  0.5185 -1.9536
 2781TIP3   OH2 8348   1.701   1.670   2.641  0.6001 -0.1110  0.2955
 2781TIP3    H1 8349   1.789   1.653   2.673  0.2009 -0.6522  1.1505
 2781TIP3    H2 8350   1.661   1.584   2.633 -0.1704  0.1718  0.8799
 2782TIP3   OH2 8351   1.185   4.013   0.828 -0.0192  0.0256  0.4260
 2782TIP3    H1 8352   1.243   4.079   0.867  0.1123 -0.0367  0.3359
 2782TIP3    H2 8353   1.243   3.956   0.779 -0.0247 -0.6429  1.1697
 2783TIP3   OH2 8354   3.347   0.247   3.577  0.1878  0.2647  0.0241
 2783TIP3    H1 8355   3.331   0.329   3.530 -2.8196 -0.2043 -0.0020
 2783TIP3    H2 8356   3.269   0.195   3.561  0.0805 -0.9184  3.4680
 2784TIP3   OH2 8357   1.295   3.709   3.211 -0.1927 -0.5132 -0.4234
 2784TIP3    H1 8358   1.257   3.759   3.284  1.5421  0.3003 -0.0260
 2784TIP3    H2 8359   1.238   3.633   3.203 -0.3857 -0.6917  1.8667
 2785TIP3   OH2 8360   4.522   4.235   2.068 -0.1659 -0.2176 -0.1349
 2785TIP3    H1 8361   4.574   4.283   2.134  0.5117  1.7287 -1.9724
 2785TIP3    H2 8362   4.585   4.176   2.027 -0.0985  0.0472 -0.4125
 2786TIP3   OH2 8363   5.748   3.925   1.267 -0.3924 -0.0685 -0.0682
 2786TIP3    H1 8364   5.782   3.889   1.185 -1.0633 -1.2341  0.1459
 2786TIP3    H2 8365   5.819   3.981   1.300  1.1761 -2.0901  0.1544
 2787TIP3   OH2 8366   6.262   0.868   1.417  0.2310  0.4143  0.0120
 2787TIP3    H1 8367   6.333   0.852   1.354 -0.5365 -0.1297 -0.7235
 2787TIP3    H2 8368   6.187   0.821   1.382  0.2933 -1.6205  2.3495
 2788TIP3   OH2 8369   1.082   1.059   0.586  0.7718 -0.6744 -0.3488
 2788TIP3    H1 8370   1.074   1.125   0.654  4.7569 -0.8597  0.5566
 2788TIP3    H2 8371   1.080   0.976   0.633 -0.1896 -1.0242 -0.9746
 2789TIP3   OH2 8372   1.534   4.660   4.276  0.4525 -0.8761 -0.5248
 2789TIP3    H1 8373   1.573   4.596   4.216  3.0619 -2.4464  2.5825
 2789TIP3    H2 8374   1.550   4.744   4.233  1.7514 -1.9236 -2.2760
 2790TIP3   OH2 8375   2.163   0.864   1.370  0.2616 -0.1208  0.5754
 2790TIP3    H1 8376   2.258   0.864   1.362  0.3268  1.5102  0.9036
 2790TIP3    H2 8377   2.131   0.862   1.280  0.6938  2.2234  0.3091
 2791TIP3   OH2 8378   1.971   5.005   0.752 -0.6657  0.3262 -0.1778
 2791TIP3    H1 8379   2.052   4.962   0.778 -0.3720  0.5182 -0.7589
 2791TIP3    H2 8380   1.957   5.073   0.818  0.2703  1.0519 -0.6993
 2792TIP3   OH2 8381   2.443   3.411   3.871 -0.1272  0.2088  0.3009
 2792TIP3    H1 8382   2.374   3.476   3.859  1.6647  2.3375  0.8129
 2792TIP3    H2 8383   2.498   3.446   3.942  2.3425 -0.5529 -1.0928
 2793TIP3   OH2 8384   3.947   0.831   4.414  0.8662  0.5998  0.0344
 2793TIP3    H1 8385   3.914   0.893   4.479 -0.0012  0.1995 -0.0100
 2793TIP3    H2 8386   3.915   0.746   4.444  3.1357 -0.0429  0.8304
 2794TIP3   OH2 8387   2.285   3.017   5.166 -0.3304  0.2620 -0.4637
 2794TIP3    H1 8388   2.334   2.937   5.183 -3.5449 -1.6652  0.5443
 2794TIP3    H2 8389   2.340   3.067   5.105  2.3678 -2.0807 -0.1119
 2795TIP3   OH2 8390   6.365   1.084   3.104 -0.8649 -0.1793 -0.4235
 2795TIP3    H1 8391   6.411   1.001   3.103  0.0261  0.3003 -0.9461
 2795TIP3    H2 8392   6.285   1.068   3.053 -0.5484 -0.6313 -0.7857
 2796TIP3   OH2 8393   4.274   1.048   2.285  0.0633 -0.0768  0.3309
 2796TIP3    H1 8394   4.205   1.024   2.347  0.2708 -2.2245 -0.1716
 2796TIP3    H2 8395   4.355   1.043   2.336 -0.0282  1.2993  0.6362
 2797TIP3   OH2 8396   5.882   0.290   2.549 -0.0715 -0.0489 -0.0934
 2797TIP3    H1 8397   5.953   0.347   2.519 -1.7103  0.7014 -2.9402
 2797TIP3    H2 8398   5.914   0.201   2.533  0.8466  0.2095  0.2466
 2798TIP3   OH2 8399   4.918   0.526   1.514  0.5697  0.0428 -0.1739
 2798TIP3    H1 8400   4.828   0.514   1.543 -0.0936 -0.3948 -2.2450
 2798TIP3    H2 8401   4.950   0.601   1.564 -0.8312  0.0070  0.8268
 2799TIP3   OH2 8402   0.838   4.059   3.949  0.3819  0.4828  0.2753
 2799TIP3    H1 8403   0.807   4.034   4.037  0.4792  0.7698  0.3904
 2799TIP3    H2 8404   0.906   3.995   3.929 -1.0268 -0.8562 -0.4397
 2800TIP3   OH2 8405   4.991   1.352   5.087  0.0208  0.3017  0.4292
 2800TIP3    H1 8406   4.991   1.445   5.108  1.5307  0.0447  1.8434
 2800TIP3    H2 8407   5.034   1.346   5.002 -0.2405  0.8907  0.2498
 2801TIP3   OH2 8408   3.798   1.153   1.842  0.1695  0.3693  0.7060
 2801TIP3    H1 8409   3.888   1.175   1.868 -0.3466  2.2874  1.0676
 2801TIP3    H2 8410   3.744   1.190   1.912 -0.9350 -0.2206  0.1791
 2802TIP3   OH2 8411   4.234   4.589   1.853  0.1951 -0.2493  0.6348
 2802TIP3    H1 8412   4.210   4.641   1.930  1.8369 -0.4769  1.3454
 2802TIP3    H2 8413   4.302   4.530   1.884  0.5457 -0.6976 -0.8850
 2803TIP3   OH2 8414   3.417   0.354   2.472 -0.7712  0.2137  0.2797
 2803TIP3    H1 8415   3.369   0.434   2.493  1.5387  1.2602  2.1208
 2803TIP3    H2 8416   3.509   0.376   2.491  0.2101 -2.2468 -1.1707
 2804TIP3   OH2 8417   5.261   3.511   1.913 -0.3023 -0.7391  0.3123
 2804TIP3    H1 8418   5.228   3.578   1.854  1.0301  0.8893  1.3339
 2804TIP3    H2 8419   5.214   3.432   1.888 -0.4115  0.0699 -2.3421
 2805TIP3   OH2 8420   3.434   4.601   0.235 -0.6270 -0.0481  0.3367
 2805TIP3    H1 8421   3.370   4.578   0.302 -0.6636 -0.0650  0.2965
 2805TIP3    H2 8422   3.513   4.552   0.258 -1.2427 -1.6345 -0.7377
 2806TIP3   OH2 8423   3.114   3.753   3.648 -0.2218  0.4341  0.2368
 2806TIP3    H1 8424   3.177   3.786   3.712 -1.0459  1.1475  0.7007
 2806TIP3    H2 8425   3.155   3.771   3.563  0.5373  0.1765  0.5417
 2807TIP3   OH2 8426   5.828   3.510   4.358  0.3469 -0.1719 -0.4483
 2807TIP3    H1 8427   5.894   3.443   4.344 -0.6404 -1.1820 -0.4264
 2807TIP3    H2 8428   5.782   3.482   4.437  0.0150  0.6171 -0.3523
 2808TIP3   OH2 8429   3.399   1.239   0.002 -0.8172 -0.0813  0.4441
 2808TIP3    H1 8430   3.408   1.171   0.068  0.1625  1.6139  2.1326
 2808TIP3    H2 8431   3.480   1.235  -0.049 -1.3874 -1.0942 -0.4399
 2809TIP3   OH2 8432   0.701   0.921   4.000 -0.2311  0.0939 -0.3985
 2809TIP3    H1 8433   0.777   0.876   3.964 -0.4578  1.4538 -2.8552
 2809TIP3    H2 8434   0.712   0.916   4.095  1.1986 -2.5320 -0.5974
 2810TIP3   OH2 8435   1.076   0.731   3.726  0.4143 -0.1074 -0.3305
 2810TIP3    H1 8436   1.022   0.669   3.677  0.7570 -0.9813  0.3802
 2810TIP3    H2 8437   1.146   0.678   3.763 -0.4025  0.3230  1.9883
 2811TIP3   OH2 8438   3.157   5.793   1.116  0.3832 -0.3759  0.2252
 2811TIP3    H1 8439   3.192   5.789   1.027 -0.3765 -0.9316 -0.0637
 2811TIP3    H2 8440   3.067   5.825   1.104  0.6210  0.5735  0.8984
 2812TIP3   OH2 8441   4.458   5.232   1.571 -1.0738  0.0130  0.0966
 2812TIP3    H1 8442   4.381   5.263   1.619 -0.5271 -0.2935  1.2087
 2812TIP3    H2 8443   4.424   5.166   1.511 -1.4636 -1.4908  1.8836
 2813TIP3   OH2 8444   1.014   4.965   5.222  0.4291 -0.2107  0.0696
 2813TIP3    H1 8445   1.088   5.016   5.190  2.1642 -2.4865  0.1468
 2813TIP3    H2 8446   0.973   4.930   5.142  1.7060 -1.8278  0.0516
 2814TIP3   OH2 8447   2.014   5.927   0.286  0.4179  0.5528  1.0945
 2814TIP3    H1 8448   2.086   5.955   0.342  1.1351 -1.7184  1.4021
 2814TIP3    H2 8449   1.983   5.846   0.325 -1.1268  0.5322 -0.0754
 2815TIP3   OH2 8450   3.078   5.751   0.479  0.2062  0.0862 -0.1957
 2815TIP3    H1 8451   3.068   5.669   0.432 -0.1573 -0.1562  0.2975
 2815TIP3    H2 8452   3.020   5.812   0.434 -0.5170 -0.2760  0.2355
 2816TIP3   OH2 8453   4.202   1.132   4.279 -0.3106  0.3167 -0.5234
 2816TIP3    H1 8454   4.208   1.039   4.257  0.2805  0.3974 -0.7195
 2816TIP3    H2 8455   4.186   1.175   4.195 -0.1976  0.4270 -0.4886
 2817TIP3   OH2 8456   2.267   1.145   1.392 -0.3395 -0.2040  0.4938
 2817TIP3    H1 8457   2.315   1.167   1.471 -1.4212  3.4116  0.3277
 2817TIP3    H2 8458   2.196   1.088   1.422  1.4270 -2.0937  1.3761
 2818TIP3   OH2 8459   0.793   4.832   4.125 -0.0549 -0.0860  0.0204
 2818TIP3    H1 8460   0.777   4.748   4.082 -0.3970  0.2137 -0.4513
 2818TIP3    H2 8461   0.767   4.818   4.216  1.4782 -0.9743  0.3375
 2819TIP3   OH2 8462   3.166   5.499   1.882 -0.9788  0.4580 -0.5949
 2819TIP3    H1 8463   3.227   5.444   1.933  0.3421  0.5864 -1.9690
 2819TIP3    H2 8464   3.143   5.570   1.942 -1.8025 -0.9266  0.8187
 2820TIP3   OH2 8465   5.149   5.434   2.726  0.1222  0.3084 -0.5478
 2820TIP3    H1 8466   5.222   5.422   2.788  1.0305  0.5896 -1.5435
 2820TIP3    H2 8467   5.093   5.499   2.768 -0.6419 -1.3730  1.1704
 2821TIP3   OH2 8468   2.604   5.863   4.817 -0.4603  0.0324  0.1756
 2821TIP3    H1 8469   2.662   5.914   4.761 -0.2956 -0.2871  0.0532
 2821TIP3    H2 8470   2.611   5.773   4.784 -3.0683  0.3800 -1.5845
 2822TIP3   OH2 8471   1.563   2.076   3.862  0.1564 -0.2823  0.2259
 2822TIP3    H1 8472   1.641   2.081   3.917 -1.0812  1.3239  1.9588
 2822TIP3    H2 8473   1.520   1.995   3.890  0.7983 -0.7770 -0.1959
 2823TIP3   OH2 8474   3.669   4.937   1.480  0.1455  0.0726  0.1502
 2823TIP3    H1 8475   3.750   4.892   1.505 -0.9443 -2.6471 -0.8368
 2823TIP3    H2 8476   3.683   4.961   1.388  0.4178  1.1943  0.4564
 2824TIP3   OH2 8477   3.547   3.169   4.218 -0.1923  0.0252 -0.0016
 2824TIP3    H1 8478   3.540   3.232   4.290  1.6548 -2.0021  2.1463
 2824TIP3    H2 8479   3.458   3.137   4.204 -0.7679  1.3497  0.5310
 2825TIP3   OH2 8480   0.711   0.498   1.154  0.0726 -0.3451  0.4877
 2825TIP3    H1 8481   0.769   0.574   1.150  1.4153 -1.3465  0.4578
 2825TIP3    H2 8482   0.707   0.476   1.247  0.2592 -0.6675  0.4196
 2826TIP3   OH2 8483   1.146   2.807   3.453 -0.2046 -0.1592  0.2003
 2826TIP3    H1 8484   1.113   2.734   3.505 -3.2302  0.5975 -0.4654
 2826TIP3    H2 8485   1.089   2.880   3.476  1.0188  1.3021 -1.1630
 2827TIP3   OH2 8486   3.200   1.986   0.522 -0.1417 -0.5915 -0.1878
 2827TIP3    H1 8487   3.145   1.997   0.599 -0.3186 -1.2775 -0.2077
 2827TIP3    H2 8488   3.213   1.892   0.515  0.5256 -0.4815 -0.5456
 2828TIP3   OH2 8489   4.663   3.336   1.512 -0.3704  0.2743  0.0471
 2828TIP3    H1 8490   4.662   3.372   1.600  0.6048 -3.7203  1.9246
 2828TIP3    H2 8491   4.744   3.368   1.473 -0.1598  1.0503  1.0859
 2829TIP3   OH2 8492   1.481   2.397   5.077  0.0997 -0.4168  0.0283
 2829TIP3    H1 8493   1.404   2.451   5.094  1.3608  1.5298 -0.0970
 2829TIP3    H2 8494   1.478   2.381   4.982 -0.3606 -0.7401  0.0910
 2830TIP3   OH2 8495   3.037   2.946   5.055 -0.1843 -0.1994  0.1486
 2830TIP3    H1 8496   3.067   3.036   5.049  1.1263 -0.5730  0.7737
 2830TIP3    H2 8497   3.094   2.897   4.996  0.3714 -0.9097  1.2388
 2831TIP3   OH2 8498   0.896   5.752   4.243  0.2812  0.1175 -0.6711
 2831TIP3    H1 8499   0.912   5.817   4.312 -2.8427  0.8101 -0.4608
 2831TIP3    H2 8500   0.965   5.686   4.256  0.2745  0.5750  2.6792
 2832TIP3   OH2 8501   4.511   2.691   4.150 -0.1161  0.1533 -0.6205
 2832TIP3    H1 8502   4.466   2.673   4.068 -1.6034 -0.2613  0.2525
 2832TIP3    H2 8503   4.480   2.777   4.177 -1.2062 -0.5655  0.4912
 2833TIP3   OH2 8504   1.210   5.120   2.400  0.0354 -0.3911  0.0858
 2833TIP3    H1 8505   1.230   5.192   2.341 -1.0534  0.5840  0.8524
 2833TIP3    H2 8506   1.233   5.153   2.487 -0.7594 -0.8483  0.4816
 2834TIP3   OH2 8507   4.000   2.763   0.135  0.3652  0.1191  0.1612
 2834TIP3    H1 8508   3.924   2.722   0.175  0.4653  0.1369  0.3687
 2834TIP3    H2 8509   4.050   2.799   0.208  0.9247 -0.4820  0.0884
 2835TIP3   OH2 8510   4.754   2.571   2.299  0.3073  0.2467 -0.0741
 2835TIP3    H1 8511   4.734   2.623   2.221  0.5852 -0.0435 -0.3435
 2835TIP3    H2 8512   4.809   2.499   2.266  1.7857  1.0221  0.6375
 2836TIP3   OH2 8513   3.303   3.111   4.989 -0.4954  0.1869  0.1230
 2836TIP3    H1 8514   3.279   3.097   4.897 -1.4712  1.1949  0.2027
 2836TIP3    H2 8515   3.228   3.159   5.026 -1.2437 -2.2790  2.0689
 2837TIP3   OH2 8516   2.248   5.667   2.027  0.1795 -0.1588  0.5814
 2837TIP3    H1 8517   2.304   5.699   1.956  1.1391  0.3034  1.5224
 2837TIP3    H2 8518   2.176   5.623   1.982  1.3709 -0.9200 -0.6757
 2838TIP3   OH2 8519   5.295   0.409   1.386 -0.2712  0.1387  0.3322
 2838TIP3    H1 8520   5.281   0.504   1.390 -0.8282  0.1214 -0.8994
 2838TIP3    H2 8521   5.333   0.394   1.299  1.1875 -0.6228  1.0597
 2839TIP3   OH2 8522   4.091   1.184   1.806  0.3177  0.3307  0.2804
 2839TIP3    H1 8523   4.184   1.206   1.817  0.4681 -0.7297  1.3624
 2839TIP3    H2 8524   4.050   1.265   1.775  1.6252  0.7678 -0.3771
 2840TIP3   OH2 8525   4.556   4.346   3.935 -0.0405 -0.0383  0.1910
 2840TIP3    H1 8526   4.554   4.250   3.929 -1.0527 -0.0862  1.0388
 2840TIP3    H2 8527   4.479   4.368   3.987 -0.3721  1.3177 -0.8379
 2841TIP3   OH2 8528   4.410   5.837   2.516 -0.1774 -0.8016  0.4193
 2841TIP3    H1 8529   4.473   5.767   2.532  1.6303  0.4757 -0.7002
 2841TIP3    H2 8530   4.334   5.813   2.569  0.9680 -2.7655  1.3062
 2842TIP3   OH2 8531   5.662   3.919   2.489 -0.8978  0.1299 -0.2713
 2842TIP3    H1 8532   5.612   3.882   2.416  0.1092 -1.6303 -0.1324
 2842TIP3    H2 8533   5.622   3.879   2.566  1.1311 -1.9323 -0.2015
 2843TIP3   OH2 8534   2.542   1.394   1.346  0.7192 -0.8425  0.6895
 2843TIP3    H1 8535   2.512   1.485   1.350 -1.2810 -1.3655 -0.6524
 2843TIP3    H2 8536   2.535   1.363   1.436  1.1772  0.2534  1.1202
 2844TIP3   OH2 8537   2.769   2.409   3.830 -0.4715 -0.1496 -0.6611
 2844TIP3    H1 8538   2.831   2.335   3.830 -0.4457 -0.1304 -1.0216
 2844TIP3    H2 8539   2.809   2.473   3.889 -0.5023 -0.4295 -0.3306
 2845TIP3   OH2 8540   1.995   0.432   3.274  0.2532 -0.4435 -0.4032
 2845TIP3    H1 8541   1.915   0.440   3.222  0.6511  1.3806 -0.8123
 2845TIP3    H2 8542   1.964   0.426   3.365 -0.3871 -1.7621 -0.6889
 2846TIP3   OH2 8543   3.785   1.080   2.490 -0.7019  0.1835  0.0661
 2846TIP3    H1 8544   3.737   1.028   2.555 -0.4419 -0.4134 -0.2126
 2846TIP3    H2 8545   3.851   1.127   2.542 -0.7767  0.0414  0.2919
 2847TIP3   OH2 8546   2.574   2.417   1.374 -0.0016 -1.0150 -0.0627
 2847TIP3    H1 8547   2.547   2.502   1.411  1.3739 -0.6693  0.1931
 2847TIP3    H2 8548   2.609   2.369   1.449  0.3498 -1.3384 -0.4325
 2848TIP3   OH2 8549   2.809   5.959   4.514 -0.1268 -0.5147  0.3091
 2848TIP3    H1 8550   2.848   5.958   4.601  1.3848  0.1127 -0.3166
 2848TIP3    H2 8551   2.870   5.908   4.460  0.5540  1.5120 -0.9663
 2849TIP3   OH2 8552   5.145   4.122   3.149 -0.2395 -0.0600 -0.3401
 2849TIP3    H1 8553   5.207   4.083   3.088 -1.5043 -2.9419  0.0467
 2849TIP3    H2 8554   5.175   4.094   3.235 -0.1322  1.5096  0.1667
 2850TIP3   OH2 8555   4.151   3.639   2.613  0.4357 -0.1171  0.1340
 2850TIP3    H1 8556   4.187   3.659   2.527 -0.0876  1.2954  0.2133
 2850TIP3    H2 8557   4.126   3.547   2.608  3.1676 -0.9053 -0.2077
 2851TIP3   OH2 8558   0.396   1.467   1.303 -0.1445 -0.1008 -0.6090
 2851TIP3    H1 8559   0.473   1.505   1.262  0.2106 -1.0038 -0.8044
 2851TIP3    H2 8560   0.322   1.510   1.260  0.2166  1.7647  0.5114
 2852TIP3   OH2 8561   3.040   5.085   3.934 -0.2112 -0.1255 -0.5352
 2852TIP3    H1 8562   2.967   5.049   3.985  0.2976  0.9160  1.0026
 2852TIP3    H2 8563   3.117   5.036   3.965  0.0994  0.4952 -0.3192
 2853TIP3   OH2 8564   5.648   2.229   2.443 -0.3116  0.5021 -0.7652
 2853TIP3    H1 8565   5.741   2.243   2.423  0.4494 -0.9019  1.3655
 2853TIP3    H2 8566   5.644   2.231   2.539 -1.9771 -2.0017 -0.6699
 2854TIP3   OH2 8567   4.185   5.804   1.149  0.2005  0.2524 -0.0413
 2854TIP3    H1 8568   4.219   5.729   1.101  1.9171  0.3029  0.9795
 2854TIP3    H2 8569   4.103   5.773   1.188 -0.3549 -0.2964 -1.6026
 2855TIP3   OH2 8570   3.353   5.010   4.234 -0.3787 -0.0253  0.3339
 2855TIP3    H1 8571   3.306   5.093   4.233 -1.3406 -0.5631 -0.4813
 2855TIP3    H2 8572   3.415   5.019   4.307 -2.2667  0.4130  1.9848
 2856TIP3   OH2 8573   5.485   5.054   3.809  0.5020 -0.1803  0.0595
 2856TIP3    H1 8574   5.498   5.075   3.902 -1.1212  0.9295  0.0845
 2856TIP3    H2 8575   5.451   5.135   3.771 -0.0890 -1.0055 -1.2201
 2857TIP3   OH2 8576   0.620   5.844   2.006  0.6021  0.2374 -0.1246
 2857TIP3    H1 8577   0.562   5.800   2.068  2.8537 -0.2203  1.8147
 2857TIP3    H2 8578   0.569   5.918   1.974 -0.4465  1.0074  2.9719
 2858TIP3   OH2 8579   4.298   3.996   4.825  0.5987  0.0251 -0.4154
 2858TIP3    H1 8580   4.275   3.933   4.757 -2.8378  1.5437 -0.8554
 2858TIP3    H2 8581   4.216   4.039   4.847  1.6904  0.3417  4.0452
 2859TIP3   OH2 8582   4.211   5.197   3.493  0.4089  0.0803  0.2940
 2859TIP3    H1 8583   4.253   5.272   3.450 -2.0390  1.5928  0.4061
 2859TIP3    H2 8584   4.193   5.135   3.421  1.7548 -0.1109  0.0935
 2860TIP3   OH2 8585   5.869   4.584   4.631 -0.4081  0.0289  0.3628
 2860TIP3    H1 8586   5.940   4.544   4.581 -1.3150  0.8170 -1.6932
 2860TIP3    H2 8587   5.912   4.628   4.704  1.1537 -0.0230 -0.4958
 2861TIP3   OH2 8588   4.351   3.371   0.828 -0.3816 -0.4650 -0.3173
 2861TIP3    H1 8589   4.390   3.360   0.914 -0.6446 -2.5084 -0.3879
 2861TIP3    H2 8590   4.359   3.464   0.809 -0.8652  0.1544  2.1586
 2862TIP3   OH2 8591   0.158   0.376   4.450  0.7225 -0.1016 -0.0469
 2862TIP3    H1 8592   0.146   0.447   4.513  2.2034 -0.6011  0.8386
 2862TIP3    H2 8593   0.216   0.411   4.383 -1.6502  0.7700 -1.7817
 2863TIP3   OH2 8594   4.204   5.928   0.896 -0.7819  0.7309  0.3614
 2863TIP3    H1 8595   4.198   5.905   0.989 -1.2354 -3.0114 -0.4382
 2863TIP3    H2 8596   4.112   5.934   0.868 -0.7295  4.1366  0.4814
 2864TIP3   OH2 8597   6.279   0.787   0.109 -0.1086 -0.1348 -0.1395
 2864TIP3    H1 8598   6.303   0.876   0.136  0.3355 -0.3601  0.2310
 2864TIP3    H2 8599   6.233   0.799   0.026  0.9982  0.3483 -0.7116
 2865TIP3   OH2 8600   0.544   0.725   4.631 -0.0689 -0.1394 -0.1433
 2865TIP3    H1 8601   0.638   0.716   4.620 -0.0218  0.2247 -0.0586
 2865TIP3    H2 8602   0.521   0.664   4.701  0.1728  0.0944  0.1431
 2866TIP3   OH2 8603   4.785   1.412   2.283 -0.0941  0.4334  0.0996
 2866TIP3    H1 8604   4.772   1.504   2.305  2.1090  0.6027  0.9719
 2866TIP3    H2 8605   4.732   1.364   2.346 -3.2031  1.0516 -1.8623
 2867TIP3   OH2 8606   0.072   2.975   1.645  0.2555  0.2226  0.4995
 2867TIP3    H1 8607   0.105   2.887   1.630 -0.6052 -0.1099  0.5316
 2867TIP3    H2 8608   0.018   2.968   1.723  0.9575  0.9844  1.0634
 2868TIP3   OH2 8609   5.847   4.556   3.426  0.3253  0.3507  0.2790
 2868TIP3    H1 8610   5.882   4.644   3.434  1.5042  0.1065 -1.6432
 2868TIP3    H2 8611   5.758   4.568   3.391  0.0642  0.8016  1.0867
 2869TIP3   OH2 8612   5.016   1.033   3.019 -0.0179 -0.0955 -0.0332
 2869TIP3    H1 8613   4.960   0.960   2.996 -1.4213  1.3308 -1.3621
 2869TIP3    H2 8614   5.057   1.007   3.102 -0.6799 -2.2246 -0.3318
 2870TIP3   OH2 8615   4.603   2.764   1.177 -0.5357  0.2089 -0.1860
 2870TIP3    H1 8616   4.657   2.823   1.124 -0.1160 -0.3746 -0.4078
 2870TIP3    H2 8617   4.623   2.790   1.268  0.1832 -0.0517 -0.2622
 2871TIP3   OH2 8618   0.142   5.615   4.374 -0.1828 -0.4052 -0.1532
 2871TIP3    H1 8619   0.206   5.544   4.370  0.2077 -0.3519  2.9267
 2871TIP3    H2 8620   0.191   5.690   4.405 -0.9117  0.9017 -1.9436
 2872TIP3   OH2 8621   0.343   4.885   3.299 -0.3541 -0.0870  0.0967
 2872TIP3    H1 8622   0.395   4.909   3.375  0.2991 -0.5709 -0.1890
 2872TIP3    H2 8623   0.375   4.798   3.274 -0.2404  0.2511 -0.9933
 2873TIP3   OH2 8624   3.332   5.403   4.485 -0.1350 -0.4382  0.2400
 2873TIP3    H1 8625   3.354   5.419   4.577 -0.4681 -0.0387  0.2585
 2873TIP3    H2 8626   3.415   5.379   4.444 -0.0393 -0.9099  0.7071
 2874TIP3   OH2 8627   0.290   1.927   4.337 -0.2894 -0.1307 -0.2983
 2874TIP3    H1 8628   0.311   1.988   4.408  2.9838 -2.0793  0.6297
 2874TIP3    H2 8629   0.355   1.947   4.269 -1.2697 -0.5006 -1.3892
 2875TIP3   OH2 8630   3.725   5.954   2.372 -0.0188 -0.1694 -0.2865
 2875TIP3    H1 8631   3.750   5.954   2.279  0.8844  0.7380 -0.0588
 2875TIP3    H2 8632   3.800   5.994   2.417 -0.8904  0.3847  0.7087
 2876TIP3   OH2 8633   3.042   0.245   1.072  0.0422 -0.1746  0.0222
 2876TIP3    H1 8634   2.950   0.220   1.083 -0.0985  0.1183 -0.4270
 2876TIP3    H2 8635   3.069   0.278   1.158  0.0887 -1.3914  0.4821
 2877TIP3   OH2 8636   2.324   3.057   0.185  0.0465  0.1439  0.2640
 2877TIP3    H1 8637   2.406   3.008   0.186 -0.2962 -0.4430  0.9723
 2877TIP3    H2 8638   2.337   3.125   0.120  0.7394 -0.5466 -0.3392
 2878TIP3   OH2 8639   3.174   0.598   2.249  0.0543 -1.0485  0.2355
 2878TIP3    H1 8640   3.261   0.628   2.220  0.3562  0.8515  2.7547
 2878TIP3    H2 8641   3.135   0.559   2.171  1.7484  1.3848 -1.9965
 2879TIP3   OH2 8642   2.909   0.379   4.055 -0.3505 -0.0246  0.0833
 2879TIP3    H1 8643   2.910   0.440   4.129  0.2703  0.0623  0.0108
 2879TIP3    H2 8644   2.998   0.382   4.021 -0.7485  0.3012 -0.9672
 2880TIP3   OH2 8645   1.693   1.071   1.432 -0.6049  0.0525 -0.0280
 2880TIP3    H1 8646   1.658   1.109   1.512  0.5218  1.7800 -0.2936
 2880TIP3    H2 8647   1.736   0.990   1.460  0.1004  0.8255  1.1966
 2881TIP3   OH2 8648   2.096   3.638   4.798  0.0928  0.2527  0.4229
 2881TIP3    H1 8649   2.158   3.640   4.724  0.4799 -2.1281  0.5844
 2881TIP3    H2 8650   2.150   3.617   4.874 -0.7239 -0.6326  0.7840
 2882TIP3   OH2 8651   2.433   2.507   4.144 -0.2896  0.4328 -0.3904
 2882TIP3    H1 8652   2.377   2.441   4.185  0.7245 -1.5253 -2.0205
 2882TIP3    H2 8653   2.439   2.577   4.210 -1.6975 -0.8995  1.2528
 2883TIP3   OH2 8654   4.326   0.952   4.619 -0.5577 -0.8450  0.1973
 2883TIP3    H1 8655   4.317   0.885   4.551 -1.6420  0.1387 -0.6862
 2883TIP3    H2 8656   4.244   0.949   4.668 -1.5575  1.1835 -1.1943
 2884TIP3   OH2 8657   3.349   5.931   2.688  0.6331  0.3580 -0.3490
 2884TIP3    H1 8658   3.373   5.947   2.597 -0.2412  1.5516 -0.3977
 2884TIP3    H2 8659   3.423   5.963   2.739 -0.8133  4.4595 -0.4636
 2885TIP3   OH2 8660   4.561   3.504   3.237  0.4808 -0.3886  0.3018
 2885TIP3    H1 8661   4.605   3.530   3.157  0.0707 -0.9567 -0.1199
 2885TIP3    H2 8662   4.629   3.507   3.304  0.4642  1.6601  0.2780
 2886TIP3   OH2 8663   3.652   3.956   1.547 -0.3686  0.1286  0.0414
 2886TIP3    H1 8664   3.596   3.881   1.568  0.6132 -0.4439  0.6973
 2886TIP3    H2 8665   3.709   3.925   1.477  1.6112 -0.5507  1.8714
 2887TIP3   OH2 8666   4.686   0.523   4.078 -0.3563 -0.3506  0.3657
 2887TIP3    H1 8667   4.696   0.611   4.040 -0.5698 -1.3546 -2.2474
 2887TIP3    H2 8668   4.629   0.536   4.154 -1.2224  1.6409 -0.5511
 2888TIP3   OH2 8669   2.462   4.469   2.512 -0.3037  0.6574  0.2733
 2888TIP3    H1 8670   2.461   4.443   2.420 -0.7631 -0.6473  0.6212
 2888TIP3    H2 8671   2.555   4.468   2.536 -0.1384  1.4844 -0.2849
 2889TIP3   OH2 8672   4.285   4.007   0.623  0.0975 -0.2130  0.1704
 2889TIP3    H1 8673   4.369   4.030   0.662 -0.0839  0.4876  0.1506
 2889TIP3    H2 8674   4.286   4.051   0.538  0.3748 -1.4970 -0.5149
 2890TIP3   OH2 8675   2.865   2.152   2.491 -0.2107  0.3978  0.3330
 2890TIP3    H1 8676   2.880   2.115   2.578 -0.3128 -0.1721  0.1158
 2890TIP3    H2 8677   2.933   2.218   2.481  0.5348 -0.3429  0.3818
 2891TIP3   OH2 8678   0.663   3.864   3.629 -0.4613  0.5023  0.4253
 2891TIP3    H1 8679   0.607   3.941   3.618 -0.7607  0.1936 -0.3129
 2891TIP3    H2 8680   0.612   3.805   3.684 -0.8827  0.2187 -0.2511
 2892TIP3   OH2 8681   1.508   5.249   4.733  0.0198 -0.3267 -0.1962
 2892TIP3    H1 8682   1.526   5.155   4.744  1.0362 -0.3396 -1.7020
 2892TIP3    H2 8683   1.413   5.255   4.732 -0.0613 -1.3812 -0.2691
 2893TIP3   OH2 8684   1.195   5.174   3.184 -0.2062 -0.7334  0.4189
 2893TIP3    H1 8685   1.144   5.245   3.222 -0.3247 -1.0323  0.8268
 2893TIP3    H2 8686   1.210   5.201   3.093  0.4743  0.2020  0.7918
 2894TIP3   OH2 8687   0.914   1.709   0.373  0.1307 -0.3530 -0.3822
 2894TIP3    H1 8688   1.000   1.747   0.356  0.6050 -0.9603  0.5843
 2894TIP3    H2 8689   0.932   1.623   0.411 -0.9095 -0.7515 -0.7455
 2895TIP3   OH2 8690   5.577   1.871   2.683 -0.2791  0.0512  0.6457
 2895TIP3    H1 8691   5.503   1.905   2.634  1.0335  0.8805 -0.8473
 2895TIP3    H2 8692   5.653   1.918   2.649  1.0552 -1.2809  1.6007
 2896TIP3   OH2 8693   2.734   4.471   2.562 -0.5898  0.2609 -0.1124
 2896TIP3    H1 8694   2.756   4.489   2.653  0.2443  0.2546 -0.2989
 2896TIP3    H2 8695   2.813   4.431   2.526 -0.1502  2.0764 -1.3359
 2897TIP3   OH2 8696   5.460   3.221   0.233 -0.6782  0.5798  0.5647
 2897TIP3    H1 8697   5.370   3.240   0.209 -1.1132  0.7667  2.1957
 2897TIP3    H2 8698   5.485   3.148   0.177 -2.5139 -0.7582  1.3858
 2898TIP3   OH2 8699   3.067   2.864   3.632  0.3865  0.4585  0.7095
 2898TIP3    H1 8700   3.048   2.773   3.654 -1.7382  0.7433  0.3246
 2898TIP3    H2 8701   3.007   2.884   3.560  0.4815  2.2942  1.0817
 2899TIP3   OH2 8702   0.674   4.089   0.996 -0.1772 -0.3704  0.4978
 2899TIP3    H1 8703   0.758   4.044   1.005 -0.1267 -0.2552  0.6074
 2899TIP3    H2 8704   0.615   4.023   0.959  0.4799  0.1089 -1.5860
 2900TIP3   OH2 8705   4.232   4.805   2.683  0.2395 -0.4412 -0.1581
 2900TIP3    H1 8706   4.181   4.759   2.750  1.4528  0.5506  1.5305
 2900TIP3    H2 8707   4.310   4.751   2.672 -0.9274 -1.7894 -2.5047
 2901TIP3   OH2 8708   5.476   0.456   1.192  0.1085  0.6476  0.1577
 2901TIP3    H1 8709   5.489   0.533   1.247  2.4955  0.7330 -0.4220
 2901TIP3    H2 8710   5.439   0.491   1.110  1.3444  1.2215 -0.1682
 2902TIP3   OH2 8711   4.094   0.103   3.054  0.6295 -0.1038 -1.1385
 2902TIP3    H1 8712   4.055   0.125   2.969  1.5566  0.4323 -1.4385
 2902TIP3    H2 8713   4.171   0.160   3.060  0.9552 -0.6317 -0.2425
 2903TIP3   OH2 8714   1.782   0.501   1.233 -0.0326  0.6642  0.5695
 2903TIP3    H1 8715   1.868   0.538   1.253  1.2133 -1.2122 -0.8583
 2903TIP3    H2 8716   1.779   0.420   1.283 -0.5345  0.2303 -0.1442
 2904TIP3   OH2 8717   3.373   2.277   5.062 -0.0174  0.2503  0.1127
 2904TIP3    H1 8718   3.449   2.219   5.069 -0.0288  0.3659  1.4427
 2904TIP3    H2 8719   3.299   2.219   5.045  0.2691  0.0791 -0.5704
 2905TIP3   OH2 8720   5.102   5.727   5.014 -0.8400  0.5412 -0.1253
 2905TIP3    H1 8721   5.056   5.667   4.956  1.4469  0.9147 -2.5262
 2905TIP3    H2 8722   5.128   5.673   5.089 -0.6007 -0.9796 -1.2515
 2906TIP3   OH2 8723   6.093   5.472   4.670  0.0864  0.1813  0.2712
 2906TIP3    H1 8724   6.166   5.462   4.732 -0.1623  0.2460  0.5778
 2906TIP3    H2 8725   6.132   5.456   4.584  0.4146 -0.0056  0.4534
 2907TIP3   OH2 8726   6.261   3.693   3.911  0.1601 -0.6476 -0.8633
 2907TIP3    H1 8727   6.207   3.772   3.915  1.5728  0.3241  0.0826
 2907TIP3    H2 8728   6.347   3.724   3.881 -0.1607 -2.4011 -4.0011
 2908TIP3   OH2 8729   3.997   5.107   4.251  0.4234  0.7072 -0.2773
 2908TIP3    H1 8730   4.035   5.154   4.325  0.5732  0.4806 -0.2110
 2908TIP3    H2 8731   3.949   5.175   4.202 -0.1156  0.7560  0.3135
 2909TIP3   OH2 8732   0.491   5.188   0.040  0.7159 -0.2060  0.0712
 2909TIP3    H1 8733   0.567   5.223   0.088  0.9919 -0.5099 -0.1369
 2909TIP3    H2 8734   0.416   5.210   0.095  1.0546 -0.7940  0.7982
 2910TIP3   OH2 8735   5.790   0.752   1.276  0.0175 -0.1381  0.0462
 2910TIP3    H1 8736   5.868   0.701   1.298 -0.9890 -2.4860 -1.4566
 2910TIP3    H2 8737   5.726   0.729   1.342  0.4021  1.4702  1.0344
 2911TIP3   OH2 8738   2.836   1.623   3.515 -0.6601 -0.3229 -0.3287
 2911TIP3    H1 8739   2.890   1.678   3.571  2.9474  0.2071 -3.8289
 2911TIP3    H2 8740   2.762   1.678   3.490  1.0358  1.7707 -1.0054
 2912TIP3   OH2 8741   1.829   3.381   2.404 -0.7892  0.4061 -0.0575
 2912TIP3    H1 8742   1.908   3.341   2.441 -1.0751 -0.0606  0.0570
 2912TIP3    H2 8743   1.857   3.418   2.321 -0.7519 -1.0260 -0.7146
 2913TIP3   OH2 8744   4.086   4.623   0.212  0.5370  0.0216  0.0820
 2913TIP3    H1 8745   4.106   4.704   0.165  1.7106 -0.9236 -1.1186
 2913TIP3    H2 8746   4.159   4.564   0.192 -1.1910 -2.0068 -0.7006
 2914TIP3   OH2 8747   3.058   4.123   5.153  0.3505 -0.2134 -0.4435
 2914TIP3    H1 8748   3.143   4.135   5.112  1.0415 -2.9815  0.0107
 2914TIP3    H2 8749   3.027   4.039   5.120 -0.9985 -0.5038  1.4297
 2915TIP3   OH2 8750   4.847   2.966   1.913  0.0610 -0.1780 -0.1415
 2915TIP3    H1 8751   4.780   2.913   1.956  0.5570  0.3840  1.3924
 2915TIP3    H2 8752   4.856   3.043   1.969  1.2669  0.2328 -0.8690
 2916TIP3   OH2 8753   2.073   4.319   1.210  0.1895 -0.5192 -0.0117
 2916TIP3    H1 8754   2.118   4.364   1.281 -0.6953 -0.3755  0.4702
 2916TIP3    H2 8755   2.075   4.227   1.234 -0.8991 -0.3826  0.6743
 2917TIP3   OH2 8756   5.200   3.134   3.744  0.0923  0.5535  0.6437
 2917TIP3    H1 8757   5.156   3.158   3.663  1.0609  0.9268  0.2078
 2917TIP3    H2 8758   5.170   3.045   3.763  0.9114 -0.0787 -0.8870
 2918TIP3   OH2 8759   0.595   4.961   3.987 -0.4251  0.1823  0.1757
 2918TIP3    H1 8760   0.675   4.961   4.039 -0.3892  0.1179  0.1206
 2918TIP3    H2 8761   0.593   4.875   3.946 -0.3706  0.2914 -0.0555
 2919TIP3   OH2 8762   5.358   4.048   4.354  0.6260  0.7063  0.7094
 2919TIP3    H1 8763   5.324   3.959   4.360  1.4661  0.4548  3.3513
 2919TIP3    H2 8764   5.282   4.104   4.372  0.1971  0.5400 -0.4912
 2920TIP3   OH2 8765   0.765   3.086   3.440 -0.1073  0.4658 -0.1746
 2920TIP3    H1 8766   0.685   3.034   3.443 -0.2515  0.5045 -1.9876
 2920TIP3    H2 8767   0.755   3.151   3.510 -0.7349 -0.7744  0.9189
 2921TIP3   OH2 8768   1.942   1.475   3.605  0.4538 -0.5835 -0.2292
 2921TIP3    H1 8769   1.960   1.569   3.605 -2.1703  0.0124  0.7154
 2921TIP3    H2 8770   1.924   1.454   3.513  0.4860 -0.0447 -0.3605
 2922TIP3   OH2 8771   3.304   3.661   3.427  0.9854  0.1690  0.5017
 2922TIP3    H1 8772   3.304   3.605   3.349 -0.8634  0.9733 -0.1371
 2922TIP3    H2 8773   3.298   3.750   3.393 -2.7687  0.4576  1.4672
 2923TIP3   OH2 8774   5.091   2.885   2.862 -0.4021 -0.5182  0.1555
 2923TIP3    H1 8775   5.039   2.952   2.817  1.5679  0.2228 -1.1504
 2923TIP3    H2 8776   5.088   2.910   2.954 -0.3640  0.9323 -0.2150
 2924TIP3   OH2 8777   3.943   1.824   1.736  0.1984  0.0980 -0.0686
 2924TIP3    H1 8778   3.905   1.902   1.696  0.6337  1.0159  1.2267
 2924TIP3    H2 8779   4.032   1.820   1.699 -0.0731 -0.2122 -0.6925
 2925TIP3   OH2 8780   6.035   2.901   1.920 -0.5595  0.4262 -0.0149
 2925TIP3    H1 8781   5.980   2.907   1.842  0.6670 -1.0553 -1.0481
 2925TIP3    H2 8782   6.070   2.989   1.932  0.1855  0.4166 -1.8845
 2926TIP3   OH2 8783   1.993   3.365   1.423 -0.0120  0.2858 -0.2949
 2926TIP3    H1 8784   2.079   3.349   1.384  0.4826  0.8671  0.5065
 2926TIP3    H2 8785   1.937   3.295   1.389  0.6916  0.0889 -1.0837
 2927TIP3   OH2 8786   5.220   1.046   4.718  0.0564  0.3007  0.1241
 2927TIP3    H1 8787   5.177   1.052   4.632  1.3564 -1.9794 -0.7806
 2927TIP3    H2 8788   5.190   0.963   4.754  1.0081  0.3302  1.0268
 2928TIP3   OH2 8789   2.654   1.626   1.541  0.2350  0.5375 -0.1151
 2928TIP3    H1 8790   2.652   1.722   1.538 -0.0429  0.5206 -0.6383
 2928TIP3    H2 8791   2.566   1.602   1.568  0.2636  0.4224 -0.1260
 2929TIP3   OH2 8792   5.039   0.835   0.258 -1.0132 -0.0347  0.1787
 2929TIP3    H1 8793   5.090   0.774   0.312  1.1372  0.2365 -1.4053
 2929TIP3    H2 8794   5.044   0.918   0.306 -1.6278 -0.4498  0.9869
 2930TIP3   OH2 8795   4.671   4.854   4.246 -0.1415  0.0151 -0.1644
 2930TIP3    H1 8796   4.674   4.924   4.311 -1.4641 -0.9077  0.9596
 2930TIP3    H2 8797   4.684   4.774   4.296  0.2770 -0.6290 -1.2597
 2931TIP3   OH2 8798   0.789   2.256   0.673 -0.1105 -0.0948  0.0902
 2931TIP3    H1 8799   0.840   2.176   0.660 -0.4681  0.0589 -2.8880
 2931TIP3    H2 8800   0.851   2.319   0.710  1.3308 -0.5368 -1.4917
 2932TIP3   OH2 8801   2.467   4.490   3.104 -0.2283 -0.0548 -0.1041
 2932TIP3    H1 8802   2.541   4.530   3.059 -1.6524  0.5100 -2.0768
 2932TIP3    H2 8803   2.436   4.422   3.045 -1.8861  0.3974  0.1827
 2933TIP3   OH2 8804   2.450   1.793   0.843 -0.6633 -0.1438 -0.2950
 2933TIP3    H1 8805   2.466   1.716   0.789  1.5179 -0.4160  0.6514
 2933TIP3    H2 8806   2.522   1.853   0.822 -1.5484  1.0676  0.0086
 2934TIP3   OH2 8807   1.731   4.484   4.118 -0.1664 -0.5182  0.4786
 2934TIP3    H1 8808   1.758   4.485   4.026 -3.0769  0.3681 -0.4958
 2934TIP3    H2 8809   1.804   4.524   4.165  0.4911  1.1611 -1.7942
 2935TIP3   OH2 8810   1.321   1.602   2.914  0.2212  0.0628  0.7709
 2935TIP3    H1 8811   1.308   1.627   3.006  0.1900 -0.0072  0.7860
 2935TIP3    H2 8812   1.344   1.509   2.918  2.5759  0.5720  0.8902
 2936TIP3   OH2 8813   4.829   1.963   2.555  0.5268 -0.2665 -0.5536
 2936TIP3    H1 8814   4.749   1.910   2.564  0.9942 -0.9873 -0.5134
 2936TIP3    H2 8815   4.798   2.048   2.524 -0.5177  0.2297  1.6063
 2937TIP3   OH2 8816   2.750   0.853   0.978 -0.0920 -0.0957  0.5799
 2937TIP3    H1 8817   2.691   0.799   0.925 -0.7085  2.2986 -1.3374
 2937TIP3    H2 8818   2.692   0.896   1.041 -0.1441  0.7255 -0.0043
 2938TIP3   OH2 8819   0.367   2.868   5.015 -0.2590  0.4303  0.8220
 2938TIP3    H1 8820   0.377   2.947   4.963  1.7795 -1.1015 -1.3507
 2938TIP3    H2 8821   0.411   2.888   5.098  0.3377  1.5322  0.2629
 2939TIP3   OH2 8822   3.331   5.547   4.999  0.5883 -0.2883  0.2398
 2939TIP3    H1 8823   3.334   5.528   5.092  0.1299  0.3447  0.3895
 2939TIP3    H2 8824   3.291   5.634   4.993 -0.3948 -0.7749 -0.6064
 2940TIP3   OH2 8825   4.873   0.128   0.915  0.2724 -0.3403 -0.3869
 2940TIP3    H1 8826   4.819   0.062   0.957 -0.0851 -0.7679 -1.4886
 2940TIP3    H2 8827   4.923   0.167   0.987 -2.5357  1.1170  0.9359
 2941TIP3   OH2 8828   1.938   2.661   1.973 -0.0644 -0.2943  0.0763
 2941TIP3    H1 8829   1.858   2.628   2.013  0.1873 -0.7212  0.2340
 2941TIP3    H2 8830   1.993   2.584   1.960 -0.6588 -0.3868 -2.3120
 2942TIP3   OH2 8831   0.318   4.328   0.543  0.5626 -0.3724 -0.0001
 2942TIP3    H1 8832   0.273   4.269   0.483  0.6086 -0.0411 -0.3604
 2942TIP3    H2 8833   0.340   4.273   0.619 -0.1445 -0.6115  0.0329
 2943TIP3   OH2 8834   5.727   0.554   2.559 -0.3949 -0.2460  0.2105
 2943TIP3    H1 8835   5.784   0.628   2.575 -0.3288  0.1686 -1.7271
 2943TIP3    H2 8836   5.784   0.477   2.567 -0.4929 -0.1504  2.3500
 2944TIP3   OH2 8837   4.186   5.287   3.129 -0.0243 -0.3702 -0.4720
 2944TIP3    H1 8838   4.195   5.344   3.052  1.9411 -0.7099 -0.5413
 2944TIP3    H2 8839   4.267   5.300   3.178 -0.2535 -1.8589  0.3556
 2945TIP3   OH2 8840   0.554   2.411   2.508  0.1056  0.0692  0.1127
 2945TIP3    H1 8841   0.600   2.327   2.500 -2.3696 -1.2118 -2.7289
 2945TIP3    H2 8842   0.612   2.474   2.465  0.7375 -0.7841 -0.3233
 2946TIP3   OH2 8843   1.143   5.882   0.376 -0.4073  0.0485  0.1455
 2946TIP3    H1 8844   1.089   5.816   0.330 -3.0338  1.0890  1.4992
 2946TIP3    H2 8845   1.233   5.852   0.363 -1.3031 -2.2697 -1.6177
 2947TIP3   OH2 8846   5.169   3.966   1.584 -0.1836 -0.0461  0.7384
 2947TIP3    H1 8847   5.109   3.968   1.509  0.2229  2.9878  0.3722
 2947TIP3    H2 8848   5.243   3.912   1.555 -0.6750 -0.0834 -0.4933
 2948TIP3   OH2 8849   2.774   1.203   1.954 -0.1340  0.0523  0.2497
 2948TIP3    H1 8850   2.686   1.202   1.992 -0.8871  1.0512 -1.3464
 2948TIP3    H2 8851   2.783   1.291   1.918  1.6245  0.0404  0.5663
 2949TIP3   OH2 8852   2.232   0.877   3.327 -0.5060 -0.5518 -0.0305
 2949TIP3    H1 8853   2.257   0.922   3.246  1.0003 -1.0295  0.1457
 2949TIP3    H2 8854   2.198   0.947   3.384 -0.9874 -0.1225 -0.8294
 2950TIP3   OH2 8855   3.428   2.006   4.841 -0.1326 -0.1770 -0.3100
 2950TIP3    H1 8856   3.460   2.087   4.881 -0.9414 -0.3704  0.7770
 2950TIP3    H2 8857   3.333   2.018   4.834 -0.0982 -0.4818 -1.4343
 2951TIP3   OH2 8858   4.925   2.022   1.971  0.7022 -0.3887 -0.4559
 2951TIP3    H1 8859   4.908   2.023   1.877 -1.3030  1.5132 -0.1617
 2951TIP3    H2 8860   4.840   2.000   2.011  1.1206  0.3447  0.9316
 2952TIP3   OH2 8861   0.511   4.782   0.830  0.4147 -0.1999  0.0696
 2952TIP3    H1 8862   0.474   4.744   0.751  0.9728  1.2743 -0.9266
 2952TIP3    H2 8863   0.605   4.770   0.822  0.5950  1.2475 -0.2126
 2953TIP3   OH2 8864   4.181   4.780   0.755  0.3554  0.7796 -0.0128
 2953TIP3    H1 8865   4.159   4.842   0.686 -1.3501 -2.5987 -2.8220
 2953TIP3    H2 8866   4.271   4.755   0.737 -0.8433 -2.1086 -3.0864
 2954TIP3   OH2 8867   5.160   0.143   4.556  0.5568 -0.1647  0.5037
 2954TIP3    H1 8868   5.200   0.063   4.521 -0.5471 -1.1507  1.4232
 2954TIP3    H2 8869   5.154   0.202   4.480  0.4904 -1.3272 -0.4188
 2955TIP3   OH2 8870   2.109   1.415   4.132 -0.1072 -0.1462 -0.3581
 2955TIP3    H1 8871   2.160   1.430   4.052  1.1287 -2.2901 -0.0506
 2955TIP3    H2 8872   2.058   1.336   4.114 -0.3490 -0.2550  0.7257
 2956TIP3   OH2 8873   1.766   3.335   3.135 -0.3861 -0.1088 -0.4122
 2956TIP3    H1 8874   1.852   3.370   3.112 -0.5538  0.2549 -0.4888
 2956TIP3    H2 8875   1.733   3.395   3.202 -0.0138 -1.0083  0.5999
 2957TIP3   OH2 8876   4.355   0.378   2.262 -0.1532 -0.0141  0.5848
 2957TIP3    H1 8877   4.440   0.384   2.305 -0.2387 -0.8129  0.8858
 2957TIP3    H2 8878   4.333   0.468   2.239  1.2095  0.1048 -0.3832
 2958TIP3   OH2 8879   1.843   0.555   2.813 -0.4508 -0.3828 -0.3641
 2958TIP3    H1 8880   1.909   0.492   2.842 -1.1815 -0.8275  0.3621
 2958TIP3    H2 8881   1.808   0.519   2.732 -0.5345 -0.6698 -0.1994
 2959TIP3   OH2 8882   5.664   1.133   4.609  0.1848 -0.4395  0.6664
 2959TIP3    H1 8883   5.585   1.081   4.619 -0.8232  0.7397 -0.7847
 2959TIP3    H2 8884   5.644   1.194   4.538  1.0189  2.4677  2.7469
 2960TIP3   OH2 8885   3.990   5.470   0.439  0.6127 -0.5663 -0.6523
 2960TIP3    H1 8886   3.997   5.565   0.425  1.8556 -0.1141  2.2928
 2960TIP3    H2 8887   3.896   5.455   0.452  0.5807  0.6635  0.8487
 2961TIP3   OH2 8888   1.728   5.789   2.480 -0.0843  0.1333  0.4679
 2961TIP3    H1 8889   1.726   5.883   2.462 -1.5416 -0.0638 -0.6236
 2961TIP3    H2 8890   1.656   5.754   2.428 -0.0458 -1.4918  1.4551
 2962TIP3   OH2 8891   3.010   5.510   1.156 -0.4890  0.0546  0.1437
 2962TIP3    H1 8892   2.941   5.567   1.121  1.8079  2.6081 -0.5560
 2962TIP3    H2 8893   3.064   5.569   1.209  1.8323 -1.5689 -0.3179
 2963TIP3   OH2 8894   1.077   1.312   4.713 -0.4711 -0.3346 -0.5052
 2963TIP3    H1 8895   1.110   1.400   4.731 -1.9541  0.4145 -1.3335
 2963TIP3    H2 8896   1.155   1.262   4.690  0.1946  1.2485 -1.9184
 2964TIP3   OH2 8897   4.255   0.310   4.195  0.3184 -0.3465 -0.4187
 2964TIP3    H1 8898   4.333   0.275   4.240  0.6517 -0.9418 -1.4180
 2964TIP3    H2 8899   4.216   0.234   4.153  0.7928  0.3930 -2.2727
 2965TIP3   OH2 8900   4.808   0.862   2.142 -0.3490 -0.2124  0.0363
 2965TIP3    H1 8901   4.743   0.874   2.072 -0.7809 -1.1345  0.2637
 2965TIP3    H2 8902   4.886   0.907   2.109  0.3727 -2.8942 -2.3412
 2966TIP3   OH2 8903   3.007   3.200   0.333  0.2460 -0.0674  0.2965
 2966TIP3    H1 8904   2.925   3.152   0.324  0.8124 -0.9943 -0.0247
 2966TIP3    H2 8905   3.067   3.157   0.273  1.3355 -0.2159  1.4451
 2967TIP3   OH2 8906   0.916   5.341   3.986  0.4148  0.0282 -0.1499
 2967TIP3    H1 8907   0.990   5.319   4.042 -1.3918 -1.2565  1.8878
 2967TIP3    H2 8908   0.897   5.433   4.007 -1.0605 -0.7821  2.5219
 2968TIP3   OH2 8909   5.093   1.821   1.015 -0.9243 -0.4124 -0.0502
 2968TIP3    H1 8910   5.044   1.869   1.082  0.1152 -0.8550  1.0709
 2968TIP3    H2 8911   5.045   1.739   1.005 -1.0091 -0.4029  0.2561
 2969TIP3   OH2 8912   3.240   0.491   3.441 -0.4790 -0.3658  0.1215
 2969TIP3    H1 8913   3.146   0.472   3.438 -0.3342 -1.1167 -2.4999
 2969TIP3    H2 8914   3.261   0.520   3.352  1.4556  1.5873  1.1293
 2970TIP3   OH2 8915   0.446   5.090   4.421  0.2721 -0.2561  0.2983
 2970TIP3    H1 8916   0.541   5.087   4.433  0.3516  0.3747 -0.1265
 2970TIP3    H2 8917   0.424   5.183   4.423  0.0800 -0.1355 -2.5579
 2971TIP3   OH2 8918   3.589   5.254   2.018  0.6210  0.5466 -0.2780
 2971TIP3    H1 8919   3.585   5.334   1.966 -0.0405  0.4930 -0.3140
 2971TIP3    H2 8920   3.530   5.270   2.092  0.8263  0.2624 -0.0491
 2972TIP3   OH2 8921   0.343   4.050   5.143  0.0853  1.0346 -0.3001
 2972TIP3    H1 8922   0.328   4.019   5.054  0.3793 -0.8749  0.2742
 2972TIP3    H2 8923   0.257   4.080   5.173 -0.8161 -1.5467 -0.0818
 2973TIP3   OH2 8924   4.339   3.410   2.963  0.9567 -0.7617 -0.5442
 2973TIP3    H1 8925   4.415   3.465   2.941  0.4765 -0.8337 -2.6563
 2973TIP3    H2 8926   4.264   3.469   2.955  0.7028 -0.8564  0.8878
 2974TIP3   OH2 8927   2.473   2.936   0.761 -0.9499  0.4292 -0.3306
 2974TIP3    H1 8928   2.468   2.890   0.677 -3.8995 -0.2630  0.1116
 2974TIP3    H2 8929   2.549   2.898   0.805  0.5210  0.6433 -2.5270
 2975TIP3   OH2 8930   2.790   1.232   4.040 -1.1584 -0.3772 -0.2344
 2975TIP3    H1 8931   2.816   1.143   4.065 -3.4910 -0.9142  0.4889
 2975TIP3    H2 8932   2.793   1.232   3.945  1.4225 -0.3410 -0.2420
 2976TIP3   OH2 8933   3.768   2.699   1.550 -0.3630  0.2526 -0.4772
 2976TIP3    H1 8934   3.853   2.661   1.572 -1.3661 -1.0789  1.3880
 2976TIP3    H2 8935   3.739   2.651   1.472 -0.9302 -1.8584  0.9551
 2977TIP3   OH2 8936   4.017   4.623   4.912 -0.0589  0.5044 -0.4806
 2977TIP3    H1 8937   3.951   4.562   4.945  0.0362  0.5643 -0.1676
 2977TIP3    H2 8938   4.042   4.675   4.989  0.7755  0.0852 -0.4536
 2978TIP3   OH2 8939   1.173   0.969   3.600  0.0959 -0.4174 -0.4116
 2978TIP3    H1 8940   1.117   0.915   3.656  1.6792 -0.9027  0.7843
 2978TIP3    H2 8941   1.187   1.049   3.650  0.8222 -0.4853 -0.5020
 2979TIP3   OH2 8942   0.252   5.072   4.148  0.1826 -0.5100  0.3969
 2979TIP3    H1 8943   0.280   5.074   4.239 -1.0729 -0.2382  0.7997
 2979TIP3    H2 8944   0.166   5.031   4.150  0.8227 -2.0384 -0.8814
 2980TIP3   OH2 8945   0.617   3.528   2.348  0.4423 -0.3304  0.4301
 2980TIP3    H1 8946   0.537   3.522   2.400  0.1694  0.5984  0.1385
 2980TIP3    H2 8947   0.642   3.620   2.352  0.5895 -0.2886 -0.8183
 2981TIP3   OH2 8948   0.934   0.036   4.024  0.0625 -0.6343  0.0131
 2981TIP3    H1 8949   0.954   0.055   3.932  0.1583 -0.9771 -0.0416
 2981TIP3    H2 8950   0.958  -0.057   4.034  1.2698 -0.2618  0.7110
 2982TIP3   OH2 8951   1.519   0.583   2.842 -0.2893 -0.5645 -0.1851
 2982TIP3    H1 8952   1.557   0.497   2.862 -3.4012 -2.2658 -1.0146
 2982TIP3    H2 8953   1.512   0.625   2.928  3.0618 -0.1851  0.0525
 2983TIP3   OH2 8954   2.174   5.701   3.125  0.5207  0.3073 -0.6111
 2983TIP3    H1 8955   2.092   5.724   3.082 -0.6241 -0.5955  0.9837
 2983TIP3    H2 8956   2.201   5.619   3.082 -0.9003 -0.8882  0.6480
 2984TIP3   OH2 8957   1.044   0.437   3.346  0.1003 -0.0890 -0.7492
 2984TIP3    H1 8958   1.122   0.410   3.298  0.6355  2.5494 -1.5280
 2984TIP3    H2 8959   0.975   0.439   3.281 -0.0210  0.0071 -0.6180
 2985TIP3   OH2 8960   0.009   3.806   4.733  0.4678  0.5594 -0.3153
 2985TIP3    H1 8961   0.096   3.775   4.759  0.7071  1.0055 -0.5699
 2985TIP3    H2 8962  -0.026   3.735   4.679  0.9682  0.6772 -0.8105
 2986TIP3   OH2 8963   6.140   5.573   2.181 -0.2660 -0.4534 -0.0684
 2986TIP3    H1 8964   6.120   5.554   2.090  0.7869 -4.1383  0.2833
 2986TIP3    H2 8965   6.062   5.545   2.229  0.2645 -1.3188  0.3140
 2987TIP3   OH2 8966   2.754   2.826   4.065  0.4669 -0.2213  0.3193
 2987TIP3    H1 8967   2.831   2.865   4.024 -0.3397  1.9652  0.7601
 2987TIP3    H2 8968   2.688   2.827   3.996  0.5083 -1.1194  0.2548
 2988TIP3   OH2 8969   2.246   0.590   1.907  0.3816  0.1905 -0.1740
 2988TIP3    H1 8970   2.258   0.495   1.906 -0.8334  0.0222 -0.0755
 2988TIP3    H2 8971   2.273   0.618   1.820 -0.2720 -0.3907 -0.5770
 2989TIP3   OH2 8972   5.612   0.602   1.418 -0.0728 -0.2062 -0.2758
 2989TIP3    H1 8973   5.627   0.514   1.454 -1.1171 -0.7334 -1.0666
 2989TIP3    H2 8974   5.552   0.643   1.480  2.0731  0.7771  1.2475
 2990TIP3   OH2 8975   3.412   1.445   3.300 -0.9899  0.0920 -0.1492
 2990TIP3    H1 8976   3.446   1.483   3.381 -0.3763 -1.1495  0.1993
 2990TIP3    H2 8977   3.414   1.517   3.237  0.2657  0.6047  0.4472
 2991TIP3   OH2 8978   1.137   3.216   3.876 -0.1344  0.3619  0.5566
 2991TIP3    H1 8979   1.124   3.273   3.800 -0.8568  0.4452  0.7302
 2991TIP3    H2 8980   1.049   3.205   3.912  0.3217  1.1263  1.9667
 2992TIP3   OH2 8981   1.131   5.912   3.215  0.1910 -0.2387 -0.3545
 2992TIP3    H1 8982   1.206   5.931   3.271  0.4475  1.2308 -1.1418
 2992TIP3    H2 8983   1.055   5.924   3.272  0.3588  2.8688 -0.6143
 2993TIP3   OH2 8984   4.801   1.246   3.573  0.3453 -0.5663  0.2795
 2993TIP3    H1 8985   4.748   1.266   3.496 -0.1471  0.7567  0.9353
 2993TIP3    H2 8986   4.889   1.230   3.538 -0.0828 -1.0093 -0.6381
 2994TIP3   OH2 8987   3.756   2.779   3.650  0.2617 -0.4664 -0.5642
 2994TIP3    H1 8988   3.702   2.795   3.728  0.6557  1.0617 -0.5617
 2994TIP3    H2 8989   3.778   2.867   3.618  3.2600 -0.9846 -0.2290
 2995TIP3   OH2 8990   1.508   3.845   1.330  0.2553 -0.2887  0.6519
 2995TIP3    H1 8991   1.520   3.938   1.350 -1.4660  0.1084 -0.0028
 2995TIP3    H2 8992   1.413   3.834   1.322  0.5134 -1.6960 -1.1458
 2996TIP3   OH2 8993   6.202   1.562   1.224  0.3187 -0.2966 -0.4572
 2996TIP3    H1 8994   6.158   1.574   1.140  0.8824  1.9611 -0.5069
 2996TIP3    H2 8995   6.194   1.468   1.242 -2.8135 -0.3065 -1.3239
 2997TIP3   OH2 8996   3.520   4.056   4.638  0.4284  0.3701 -0.4261
 2997TIP3    H1 8997   3.433   4.026   4.662  0.7770 -1.1463 -0.9677
 2997TIP3    H2 8998   3.544   4.119   4.706 -0.2635 -0.7171  0.8465
 2998TIP3   OH2 8999   2.198   1.512   3.892 -0.2087  0.1849 -0.3338
 2998TIP3    H1 9000   2.200   1.587   3.832  0.2156 -0.0148 -0.5794
 2998TIP3    H2 9001   2.287   1.477   3.889 -0.7134 -1.0974 -1.2241
 2999TIP3   OH2 9002   2.316   2.537   4.518  0.4835  0.0886 -0.0410
 2999TIP3    H1 9003   2.262   2.508   4.445 -1.1463  0.9944  0.7564
 2999TIP3    H2 9004   2.270   2.506   4.597  1.6655 -0.0025  0.6376
 3000TIP3   OH2 9005   3.841   2.683   2.396  0.0543  0.0976  0.5135
 3000TIP3    H1 9006   3.895   2.661   2.320 -0.2091  0.6357  0.1616
 3000TIP3    H2 9007   3.885   2.758   2.436 -0.2424  0.3183  0.4261
 3001TIP3   OH2 9008   5.274   3.866   0.734 -0.1806  0.6143 -0.2232
 3001TIP3    H1 9009   5.233   3.808   0.670  0.5033 -0.2992  0.1303
 3001TIP3    H2 9010   5.295   3.808   0.808  2.6402  0.7910 -0.7807
 3002TIP3   OH2 9011  -0.011   3.289   5.136 -1.1316  0.1704 -0.2918
 3002TIP3    H1 9012   0.018   3.202   5.165 -0.8882 -0.6471 -2.6966
 3002TIP3    H2 9013   0.063   3.346   5.155 -0.7789 -0.4251  0.1590
 3003TIP3   OH2 9014   6.152   2.794   2.238 -0.5127  0.7575  0.3229
 3003TIP3    H1 9015   6.065   2.797   2.199  0.0166  2.0841 -0.8461
 3003TIP3    H2 9016   6.199   2.728   2.187 -0.0213  2.0287 -0.9536
 3004TIP3   OH2 9017   3.468   4.012   0.803 -0.0252 -0.2488 -0.0929
 3004TIP3    H1 9018   3.542   3.951   0.794  0.3628  0.4799 -2.7868
 3004TIP3    H2 9019   3.471   4.065   0.723 -3.3404 -0.0352 -0.2076
 3005TIP3   OH2 9020   2.238   1.070   4.507 -0.1505  0.2997 -0.1813
 3005TIP3    H1 9021   2.205   1.052   4.595 -0.9891 -0.0854 -0.5630
 3005TIP3    H2 9022   2.210   1.159   4.489  0.7075  0.6692  0.2338
 3006TIP3   OH2 9023   4.468   1.365   4.830  0.2837  0.1948  0.0132
 3006TIP3    H1 9024   4.543   1.422   4.844 -0.0511  0.6850 -0.1361
 3006TIP3    H2 9025   4.504   1.277   4.826  0.8945  0.4617 -0.4247
 3007TIP3   OH2 9026   1.230   0.300   4.418 -0.1791  0.5955 -0.2218
 3007TIP3    H1 9027   1.242   0.285   4.512 -0.6856  3.7968  0.4479
 3007TIP3    H2 9028   1.243   0.213   4.379  0.3082 -0.8047  2.7371
 3008TIP3   OH2 9029   3.059   3.345   2.974  0.4178 -0.3727  0.3875
 3008TIP3    H1 9030   2.977   3.315   2.936  1.8356 -1.6367 -1.9476
 3008TIP3    H2 9031   3.099   3.398   2.904  2.5407 -1.6206  0.5696
 3009TIP3   OH2 9032   6.331   5.775   1.889  0.2101 -0.5158  0.1120
 3009TIP3    H1 9033   6.244   5.794   1.924  0.4229 -0.1219  0.4281
 3009TIP3    H2 9034   6.357   5.855   1.844  0.0494 -0.9305 -0.7293
 3010TIP3   OH2 9035   2.298   3.148   0.849  0.0776 -0.8135 -0.1496
 3010TIP3    H1 9036   2.351   3.071   0.828  2.2042  1.1592 -2.7043
 3010TIP3    H2 9037   2.257   3.173   0.766 -0.2886  0.9821  0.5182
 3011TIP3   OH2 9038   0.319   0.203   1.149  0.7073  0.1558  0.0816
 3011TIP3    H1 9039   0.259   0.129   1.158 -1.3052  1.8000  1.0311
 3011TIP3    H2 9040   0.346   0.201   1.057 -1.7314 -0.0342 -0.6941
 3012TIP3   OH2 9041   2.276   3.927   1.445  0.1784  0.4692 -0.0594
 3012TIP3    H1 9042   2.344   3.951   1.382 -0.7123  0.3741 -1.0782
 3012TIP3    H2 9043   2.274   3.831   1.442 -1.9665  0.4873 -2.2569
 3013TIP3   OH2 9044   5.865   0.146   1.373  0.1000 -0.2927  0.7639
 3013TIP3    H1 9045   5.854   0.051   1.381 -1.5663 -0.3921 -1.5445
 3013TIP3    H2 9046   5.954   0.157   1.341  0.0960 -1.1635  0.4148
 3014TIP3   OH2 9047   4.572   1.995   0.299  0.5673  0.0274  0.1332
 3014TIP3    H1 9048   4.480   1.970   0.307  0.1671  1.9096  2.5969
 3014TIP3    H2 9049   4.573   2.059   0.228 -0.0994  0.2056  0.2717
 3015TIP3   OH2 9050   0.665   2.273   1.736 -0.1748 -0.2991 -0.0125
 3015TIP3    H1 9051   0.706   2.219   1.669  0.9040 -2.3609  2.1862
 3015TIP3    H2 9052   0.571   2.266   1.718  0.0559 -1.4064 -0.8623
 3016TIP3   OH2 9053   0.425   2.191   2.982 -0.0340  0.3268 -0.2783
 3016TIP3    H1 9054   0.371   2.261   3.018 -1.5953 -0.2351 -1.4147
 3016TIP3    H2 9055   0.490   2.235   2.927 -0.6562  0.9155 -0.5470
 3017TIP3   OH2 9056   4.782   0.757   4.813  0.2493  0.0721 -0.0198
 3017TIP3    H1 9057   4.785   0.664   4.791  1.8335 -0.5609  2.4374
 3017TIP3    H2 9058   4.871   0.788   4.797 -0.0901  0.9923 -0.1469
 3018TIP3   OH2 9059   2.345   4.432   2.789 -0.1652 -0.1038 -0.6535
 3018TIP3    H1 9060   2.372   4.435   2.697  1.7279 -0.4194 -0.1640
 3018TIP3    H2 9061   2.326   4.339   2.804 -1.8431  0.1440 -1.0439
 3019TIP3   OH2 9062   4.023   1.705   2.356  0.4497 -0.0737 -0.0173
 3019TIP3    H1 9063   4.040   1.672   2.268  0.8530  0.6674 -0.2255
 3019TIP3    H2 9064   3.951   1.766   2.346  0.4043 -0.0911  0.1900
 3020TIP3   OH2 9065   0.250   5.112   3.855 -0.1668  0.4842  0.2653
 3020TIP3    H1 9066   0.338   5.095   3.822 -0.1454  0.2008  0.4668
 3020TIP3    H2 9067   0.262   5.126   3.949 -0.1427  1.8906  0.0791
 3021TIP3   OH2 9068   2.108   1.265   2.906 -0.2971  0.0971 -0.0884
 3021TIP3    H1 9069   2.090   1.189   2.851  0.2857  0.0252 -0.1849
 3021TIP3    H2 9070   2.189   1.303   2.869  0.5093 -0.3669  1.1547
 3022TIP3   OH2 9071   2.812   2.506   4.462 -0.0029 -0.2752  0.1510
 3022TIP3    H1 9072   2.805   2.460   4.379 -2.4579  0.6104 -0.2263
 3022TIP3    H2 9073   2.738   2.475   4.514  0.3589  0.6082  1.2674
 3023TIP3   OH2 9074   6.332   3.705   1.116  0.2502  0.0147 -0.3918
 3023TIP3    H1 9075   6.244   3.669   1.125  0.6904 -0.9117  0.4599
 3023TIP3    H2 9076   6.319   3.799   1.110 -0.7886 -0.1036 -0.2325
 3024TIP3   OH2 9077   3.401   0.774   5.120  0.2385 -0.0420 -0.4030
 3024TIP3    H1 9078   3.420   0.681   5.123  0.0878 -0.0502  0.5522
 3024TIP3    H2 9079   3.312   0.779   5.084 -0.2558 -0.3482  0.7561
 3025TIP3   OH2 9080   4.829   5.581   3.861 -0.1657  0.0921 -0.2976
 3025TIP3    H1 9081   4.901   5.518   3.874 -1.1292 -1.0039 -0.1540
 3025TIP3    H2 9082   4.871   5.656   3.818  1.5098  0.4318  1.7714
 3026TIP3   OH2 9083   5.155   4.211   2.347 -0.8493 -0.1544 -0.1718
 3026TIP3    H1 9084   5.068   4.177   2.326 -1.1829  0.4584  0.1800
 3026TIP3    H2 9085   5.188   4.242   2.263 -1.0552 -0.2020 -0.2725
 3027TIP3   OH2 9086   2.732   2.970   2.980 -0.0428  0.1108  0.0123
 3027TIP3    H1 9087   2.695   2.940   3.064  0.2753 -1.5696 -0.4089
 3027TIP3    H2 9088   2.720   2.896   2.921  1.8799  0.3803 -0.7792
 3028TIP3   OH2 9089   5.773   0.652   2.855  0.5130  0.0313 -0.2023
 3028TIP3    H1 9090   5.794   0.745   2.846 -0.0542  0.1381 -0.4305
 3028TIP3    H2 9091   5.857   0.611   2.877  0.4068  0.8852  2.0198
 3029TIP3   OH2 9092   6.337   4.193   1.380  0.2957  0.5075 -0.2197
 3029TIP3    H1 9093   6.374   4.249   1.311  1.8841 -0.2606 -0.0084
 3029TIP3    H2 9094   6.254   4.162   1.342  2.2394 -1.9129 -2.9082
 3030TIP3   OH2 9095   5.617   5.159   2.654 -0.1151 -0.0954 -0.2820
 3030TIP3    H1 9096   5.612   5.252   2.673  0.2424  0.0168 -0.7139
 3030TIP3    H2 9097   5.706   5.134   2.677 -0.0216 -0.1965 -0.7321
 3031TIP3   OH2 9098   0.052   3.003   0.959  0.1120 -0.5507  0.6144
 3031TIP3    H1 9099  -0.032   2.959   0.972 -0.4870  0.2345 -0.4253
 3031TIP3    H2 9100   0.115   2.950   1.008 -1.2663 -0.0937  3.0449
 3032TIP3   OH2 9101   0.480   2.655   1.734 -0.4033  0.1517  0.6875
 3032TIP3    H1 9102   0.414   2.660   1.804 -0.4713  1.9234  0.5208
 3032TIP3    H2 9103   0.559   2.624   1.778 -1.2141 -1.7175  0.9450
 3033TIP3   OH2 9104   2.142   0.307   2.626  0.6806  0.0754 -1.1363
 3033TIP3    H1 9105   2.203   0.268   2.563  1.5356  2.1804 -1.7142
 3033TIP3    H2 9106   2.118   0.391   2.587  1.1927  1.4467  1.2629
 3034TIP3   OH2 9107   2.175   3.029   2.073 -0.1510 -0.0903  0.5385
 3034TIP3    H1 9108   2.094   3.026   2.124 -0.3623 -0.7938  0.1787
 3034TIP3    H2 9109   2.151   2.991   1.988  0.5617 -0.3518  0.4481
 3035TIP3   OH2 9110   4.747   4.221   0.383  0.1595  0.9047  0.4333
 3035TIP3    H1 9111   4.795   4.300   0.359  0.2082  0.3262 -1.5065
 3035TIP3    H2 9112   4.815   4.162   0.416  0.3578  1.0954  0.3693
 3036TIP3   OH2 9113   5.625   4.059   2.768 -0.0356 -0.0257 -0.0435
 3036TIP3    H1 9114   5.701   4.002   2.780 -0.0463  0.0666  0.4671
 3036TIP3    H2 9115   5.661   4.147   2.768 -0.1661  0.0258  0.3643
 3037TIP3   OH2 9116   6.077   1.090   0.641  0.3447 -0.3105 -0.4200
 3037TIP3    H1 9117   5.986   1.065   0.627  0.3561 -0.0034 -1.0711
 3037TIP3    H2 9118   6.090   1.083   0.735 -0.0677 -1.3170 -0.4330
 3038TIP3   OH2 9119   2.996   2.909   3.940  0.1196 -0.3289 -0.6159
 3038TIP3    H1 9120   3.040   2.936   4.021  0.3845 -1.8471 -0.2274
 3038TIP3    H2 9121   2.992   2.989   3.888 -0.6876  0.8570  1.1656
 3039TIP3   OH2 9122   5.211   3.504   2.269  0.5933  0.2253  0.0098
 3039TIP3    H1 9123   5.255   3.582   2.235  1.4359  0.7183  2.0566
 3039TIP3    H2 9124   5.282   3.442   2.285  0.1067 -0.3641 -0.1056
 3040TIP3   OH2 9125   0.571   5.521  -0.002 -0.2378 -0.0663  0.4919
 3040TIP3    H1 9126   0.655   5.539  -0.045 -0.8421 -1.2216 -1.2466
 3040TIP3    H2 9127   0.594   5.467   0.073  0.4863 -1.8842 -0.9437
 3041TIP3   OH2 9128   2.689   0.504   1.009  0.3186  0.6456 -0.1165
 3041TIP3    H1 9129   2.620   0.532   0.950 -0.3169  1.5480  1.0117
 3041TIP3    H2 9130   2.651   0.432   1.059  0.6452  0.2796 -0.3935
 3042TIP3   OH2 9131   2.195   0.470   0.205 -0.4313  0.1012  0.2455
 3042TIP3    H1 9132   2.099   0.464   0.204 -0.5029  1.0311 -0.8877
 3042TIP3    H2 9133   2.224   0.385   0.236 -1.6411  0.0414  1.2973
 3043TIP3   OH2 9134   4.888   0.444   0.912  0.1979 -0.3872 -0.1074
 3043TIP3    H1 9135   4.823   0.374   0.903 -2.7269  2.2376 -1.0868
 3043TIP3    H2 9136   4.865   0.486   0.995  0.3101  0.8966 -0.7160
 3044TIP3   OH2 9137   2.472   5.473   4.086  0.2424 -0.8125  0.1329
 3044TIP3    H1 9138   2.416   5.438   4.017  0.4054 -1.3907  0.2871
 3044TIP3    H2 9139   2.411   5.509   4.151  0.0765 -0.6911 -0.0875
 3045TIP3   OH2 9140   6.228   4.873   3.312 -0.0961 -0.1429  0.4415
 3045TIP3    H1 9141   6.293   4.808   3.287 -0.6095 -1.0323  1.3425
 3045TIP3    H2 9142   6.278   4.939   3.361  0.3361 -0.1251 -0.0165
 3046TIP3   OH2 9143   0.330   4.508   4.326 -0.3643  0.3872  0.0245
 3046TIP3    H1 9144   0.311   4.491   4.233 -0.8847  1.8789 -0.1671
 3046TIP3    H2 9145   0.421   4.480   4.337 -0.5946 -0.7136 -0.6815
 3047TIP3   OH2 9146   2.847   4.043   0.997 -0.4183  0.2857  0.2844
 3047TIP3    H1 9147   2.910   4.016   1.064  0.1891  1.9681  0.4207
 3047TIP3    H2 9148   2.766   4.059   1.045 -0.1710  0.8314  0.5209
 3048TIP3   OH2 9149   2.625   3.519   2.697 -0.9498 -0.2453  0.0931
 3048TIP3    H1 9150   2.668   3.524   2.783  1.0438 -0.6773 -0.8033
 3048TIP3    H2 9151   2.691   3.478   2.641 -0.8914  2.9082 -2.4211
 3049TIP3   OH2 9152   1.136   3.023   4.279  0.1932 -0.2557  0.0532
 3049TIP3    H1 9153   1.224   3.002   4.311  0.3698 -0.3585 -0.4841
 3049TIP3    H2 9154   1.111   3.101   4.328  0.0855 -0.9162  1.0766
 3050TIP3   OH2 9155   0.523   1.243   1.469  0.4008 -0.2041 -0.0447
 3050TIP3    H1 9156   0.486   1.155   1.462  3.1960 -1.3074 -3.0305
 3050TIP3    H2 9157   0.475   1.294   1.403  0.2053 -0.0488  0.2171
 3051TIP3   OH2 9158   1.504   0.151   2.104 -0.5467  0.5093  0.7834
 3051TIP3    H1 9159   1.526   0.194   2.021 -1.1958  0.2632  0.4781
 3051TIP3    H2 9160   1.428   0.198   2.137 -0.5745  0.3115  1.0052
 3052TIP3   OH2 9161   5.414   5.061   0.204 -0.1201  0.1299  0.1862
 3052TIP3    H1 9162   5.418   5.048   0.109 -1.7149 -0.8173  0.2231
 3052TIP3    H2 9163   5.492   5.113   0.223 -0.8504  2.2696 -1.9532
 3053TIP3   OH2 9164   5.107   5.989   5.055 -0.0678  0.1717 -0.1611
 3053TIP3    H1 9165   5.069   5.919   5.002  2.0377 -0.8714 -0.3650
 3053TIP3    H2 9166   5.040   6.057   5.055 -2.3573 -1.9129  0.3184
 3054TIP3   OH2 9167   3.830   3.839   1.393 -0.3234  0.4578  0.1017
 3054TIP3    H1 9168   3.847   3.745   1.403 -1.5858  0.3009  0.9454
 3054TIP3    H2 9169   3.791   3.847   1.306  3.1164  0.7409 -1.5913
 3055TIP3   OH2 9170   0.494   3.850   1.489  0.3975 -0.0627 -0.5954
 3055TIP3    H1 9171   0.416   3.886   1.446  0.0049 -1.1323 -0.8059
 3055TIP3    H2 9172   0.471   3.759   1.508  1.2046 -0.0918  0.3185
 3056TIP3   OH2 9173   2.164   5.831   4.523  0.4309  0.9561  0.5057
 3056TIP3    H1 9174   2.233   5.879   4.568 -0.9000  0.7801  2.8881
 3056TIP3    H2 9175   2.097   5.897   4.503  0.2541  0.7361  0.3494
 3057TIP3   OH2 9176   1.410   4.254   0.707 -0.6430 -0.1923 -0.1838
 3057TIP3    H1 9177   1.392   4.279   0.798 -1.3078  0.6989 -0.5513
 3057TIP3    H2 9178   1.327   4.218   0.675 -0.7461  0.5468 -0.7752
 3058TIP3   OH2 9179   1.686   2.600   3.488 -0.6319 -0.1527  0.0149
 3058TIP3    H1 9180   1.710   2.686   3.521  0.0460 -0.9272  1.6924
 3058TIP3    H2 9181   1.601   2.582   3.527 -0.2298 -0.7047  0.6806
 3059TIP3   OH2 9182   4.900   0.598   2.229  0.3237  0.1200  0.3360
 3059TIP3    H1 9183   4.961   0.671   2.224  1.5884 -0.9831 -0.7299
 3059TIP3    H2 9184   4.834   0.617   2.162 -1.4911  2.0749  2.4676
 3060TIP3   OH2 9185   5.956   0.822   5.210 -0.5338 -0.1520 -0.1080
 3060TIP3    H1 9186   5.899   0.880   5.160 -0.4189  0.4939  0.4879
 3060TIP3    H2 9187   6.037   0.819   5.160 -1.2920 -1.6182 -1.3169
 3061TIP3   OH2 9188   3.702   4.959   1.209  0.1128  0.0685  0.2374
 3061TIP3    H1 9189   3.642   5.005   1.150  0.2459  1.0333  0.8304
 3061TIP3    H2 9190   3.787   4.999   1.191  0.4641 -0.8039 -0.1021
 3062TIP3   OH2 9191   3.027   1.452   0.766  0.4515 -0.0176  0.4413
 3062TIP3    H1 9192   3.112   1.423   0.735 -0.4247 -3.0997  0.5909
 3062TIP3    H2 9193   3.040   1.469   0.860  0.6824 -1.8194  0.7777
 3063TIP3   OH2 9194   4.275   2.023   4.067  0.0984  0.7105 -0.7271
 3063TIP3    H1 9195   4.249   1.965   4.138 -1.0601 -0.2368 -1.8914
 3063TIP3    H2 9196   4.322   2.095   4.111  0.5311 -0.4856  0.8469
 3064TIP3   OH2 9197   6.099   4.971   1.759  0.0856  0.4172  0.5185
 3064TIP3    H1 9198   6.146   4.959   1.676  2.8742 -0.8125  2.1245
 3064TIP3    H2 9199   6.168   4.986   1.823 -1.7203 -1.6002  3.1351
 3065TIP3   OH2 9200   3.197   0.072   4.717  0.7968 -0.2841  0.1654
 3065TIP3    H1 9201   3.190   0.040   4.807  1.2899  2.2732  1.1786
 3065TIP3    H2 9202   3.148   0.154   4.717  1.3424  0.0809 -1.7423
 3066TIP3   OH2 9203   4.729   0.971   0.717 -0.0723  0.2624 -0.0527
 3066TIP3    H1 9204   4.745   0.925   0.800 -0.8895 -0.1521 -0.1132
 3066TIP3    H2 9205   4.679   0.908   0.664  2.0758 -0.2471 -1.6315
 3067TIP3   OH2 9206   3.379   1.021   0.735  0.2630  0.2596  0.3860
 3067TIP3    H1 9207   3.382   0.926   0.749  0.4728  0.2126  0.0293
 3067TIP3    H2 9208   3.312   1.034   0.668  0.6729  0.3025 -0.0262
 3068TIP3   OH2 9209   2.574   1.134   2.135 -0.0813  0.6020 -0.4301
 3068TIP3    H1 9210   2.572   1.168   2.224  0.9031 -0.4422  0.0159
 3068TIP3    H2 9211   2.636   1.061   2.139 -1.1514 -0.4173 -1.6283
 3069TIP3   OH2 9212   3.475   3.999   2.171 -0.1942  0.2758 -0.3483
 3069TIP3    H1 9213   3.391   3.965   2.200  0.2612 -2.0836 -1.5631
 3069TIP3    H2 9214   3.521   4.021   2.253 -1.0842 -0.6923  0.4385
 3070TIP3   OH2 9215   4.368   5.808   4.052  0.0938  0.3787  0.2568
 3070TIP3    H1 9216   4.383   5.714   4.054 -0.8624  0.2095 -0.1003
 3070TIP3    H2 9217   4.405   5.837   3.969  3.5457  0.9341  1.7712
 3071TIP3   OH2 9218   4.354   1.681   4.818 -0.1581 -0.0242  0.1565
 3071TIP3    H1 9219   4.329   1.647   4.904 -0.4202 -1.8505 -0.6170
 3071TIP3    H2 9220   4.449   1.676   4.817 -0.1741 -0.3067  0.2051
 3072TIP3   OH2 9221   0.412   2.156   1.671  0.1287  0.0290  0.3480
 3072TIP3    H1 9222   0.365   2.083   1.630 -0.8762  1.3350 -0.9183
 3072TIP3    H2 9223   0.357   2.180   1.746 -0.0779  0.1261  0.1677
 3073TIP3   OH2 9224   5.348   3.236   0.498 -0.4175  0.2610 -0.2101
 3073TIP3    H1 9225   5.335   3.330   0.487 -0.0409  0.2862 -0.4595
 3073TIP3    H2 9226   5.373   3.205   0.412  1.0992  0.2154  0.2196
 3074TIP3   OH2 9227   2.229   0.928   4.760 -0.6202  0.1474  0.7972
 3074TIP3    H1 9228   2.253   0.845   4.803  0.7056  0.9905  1.7608
 3074TIP3    H2 9229   2.227   0.992   4.831 -0.0305  1.2597 -0.1658
 3075TIP3   OH2 9230   1.664   5.417   0.287 -0.1203  0.1649  0.2402
 3075TIP3    H1 9231   1.703   5.366   0.216  0.0093  0.1661  0.3118
 3075TIP3    H2 9232   1.684   5.508   0.265 -0.6132  0.2097 -0.0493
 3076TIP3   OH2 9233   4.798   2.987   4.198  0.6875 -0.5053 -0.2861
 3076TIP3    H1 9234   4.774   3.012   4.109  2.4410 -0.2071 -0.7055
 3076TIP3    H2 9235   4.893   2.994   4.201  1.0112 -3.6914  0.6388
 3077TIP3   OH2 9236   4.939   1.364   0.810  0.0872 -0.2668 -0.4759
 3077TIP3    H1 9237   5.006   1.409   0.759  0.7687  0.5999  1.1325
 3077TIP3    H2 9238   4.952   1.272   0.790 -0.8112  0.0880 -3.2077
 3078TIP3   OH2 9239   3.951   3.655   4.795 -0.0827 -0.0257 -0.0752
 3078TIP3    H1 9240   3.994   3.731   4.756  2.4872 -0.1891  2.1374
 3078TIP3    H2 9241   4.001   3.580   4.762 -0.5116 -0.4778  0.2844
 3079TIP3   OH2 9242   1.784   2.168   2.322  0.4033  0.4607 -0.5455
 3079TIP3    H1 9243   1.838   2.229   2.271 -0.5110  1.7849  0.0241
 3079TIP3    H2 9244   1.722   2.134   2.258  0.2772  0.8992 -0.6652
 3080TIP3   OH2 9245   0.137   4.276   3.394  0.7454 -0.6067  0.2138
 3080TIP3    H1 9246   0.217   4.329   3.405  2.0715 -2.3193 -0.6932
 3080TIP3    H2 9247   0.130   4.263   3.300 -0.5566 -0.6199  0.2946
 3081TIP3   OH2 9248   5.193   2.778   3.572 -0.2313  0.1696 -0.5094
 3081TIP3    H1 9249   5.278   2.804   3.539  1.1837 -0.4213  2.3506
 3081TIP3    H2 9250   5.157   2.857   3.612 -0.0410 -0.0694  0.1487
 3082TIP3   OH2 9251   1.900   4.585   4.936 -0.0358 -0.2923  0.1177
 3082TIP3    H1 9252   1.970   4.545   4.885 -0.1202 -1.7944  1.1197
 3082TIP3    H2 9253   1.840   4.513   4.957 -0.8845  0.5949  0.8988
 3083TIP3   OH2 9254   1.599   3.882   3.026  0.3483  0.0873  0.0068
 3083TIP3    H1 9255   1.547   3.889   2.946 -1.3792  1.5047  1.1618
 3083TIP3    H2 9256   1.683   3.921   3.004  0.2281 -0.3633 -1.3428
 3084TIP3   OH2 9257   0.571   1.263   0.585 -0.3688  0.3135 -0.0991
 3084TIP3    H1 9258   0.639   1.209   0.543 -0.3256 -0.3270  0.7514
 3084TIP3    H2 9259   0.505   1.275   0.517  1.0944  1.9173 -1.3129
 3085TIP3   OH2 9260   4.655   0.268   3.633 -0.1612 -0.1121 -0.1562
 3085TIP3    H1 9261   4.592   0.196   3.643  1.5653 -1.8084 -1.0274
 3085TIP3    H2 9262   4.684   0.285   3.722 -2.7202  1.6166  0.4660
 3086TIP3   OH2 9263   4.585   3.918   1.850 -0.8476  0.6449 -0.0574
 3086TIP3    H1 9264   4.642   3.842   1.858  0.8217  1.9961  1.7566
 3086TIP3    H2 9265   4.516   3.903   1.915 -0.6558  0.5773  0.1303
 3087TIP3   OH2 9266   0.310   5.371   3.677  0.0790 -0.0604 -0.2612
 3087TIP3    H1 9267   0.331   5.454   3.719 -2.2991  0.7860 -0.5703
 3087TIP3    H2 9268   0.260   5.323   3.743 -0.2010 -0.4279 -0.7341
 3088TIP3   OH2 9269   2.481   0.008   2.568 -0.2996 -0.2156  0.4397
 3088TIP3    H1 9270   2.554  -0.001   2.506  0.4614 -0.1024  1.2939
 3088TIP3    H2 9271   2.507   0.081   2.624 -0.9602 -0.3441  0.9164
 3089TIP3   OH2 9272   4.340   1.056   3.232  0.3652  0.4707 -0.2636
 3089TIP3    H1 9273   4.362   1.142   3.196  0.3700  0.2992 -0.6855
 3089TIP3    H2 9274   4.408   0.998   3.196 -0.8048 -0.0923 -1.6585
 3090TIP3   OH2 9275   3.008   4.415   4.134  0.1633  0.0118  0.2661
 3090TIP3    H1 9276   3.095   4.384   4.108 -0.0184 -1.1270  0.9375
 3090TIP3    H2 9277   2.990   4.489   4.076  1.5864  0.2765  0.1381
 3091TIP3   OH2 9278   1.001   0.385   3.878 -0.1665  0.1082 -0.3890
 3091TIP3    H1 9279   1.008   0.427   3.793  1.5754  0.3217 -0.1797
 3091TIP3    H2 9280   1.083   0.407   3.923 -1.4000  0.7408  1.6896
 3092TIP3   OH2 9281   2.310   0.615   3.671 -0.6131 -0.2981 -0.6158
 3092TIP3    H1 9282   2.305   0.583   3.761 -0.9898 -0.1586 -0.5842
 3092TIP3    H2 9283   2.398   0.652   3.663 -0.6253 -0.1906 -0.2635
 3093TIP3   OH2 9284   2.058   0.990   3.976 -0.0838 -0.0684  0.3542
 3093TIP3    H1 9285   2.027   0.970   4.065  1.2930 -0.6492  0.7201
 3093TIP3    H2 9286   1.979   1.019   3.930 -0.5560  1.8360  2.1999
 3094TIP3   OH2 9287   3.163   1.356   2.943 -0.5633 -0.0583 -0.1153
 3094TIP3    H1 9288   3.143   1.434   2.996 -0.0142 -0.9249  1.4319
 3094TIP3    H2 9289   3.187   1.391   2.857 -0.4073  1.4705  0.5149
 3095TIP3   OH2 9290   5.082   0.273   2.386 -0.5771 -0.2671 -0.0117
 3095TIP3    H1 9291   5.172   0.242   2.379 -0.9249 -1.3076 -0.0844
 3095TIP3    H2 9292   5.057   0.255   2.477 -0.7725 -0.1641 -0.0433
 3096TIP3   OH2 9293   4.746   2.370   2.007  0.0227 -0.4072 -0.8929
 3096TIP3    H1 9294   4.686   2.355   2.080 -1.2437  1.8645 -1.3602
 3096TIP3    H2 9295   4.828   2.396   2.048 -0.5036  0.2724 -0.2504
 3097TIP3   OH2 9296   3.973   3.788   2.371  0.0316 -0.2937 -0.1950
 3097TIP3    H1 9297   4.046   3.849   2.377 -1.3222  1.3699  0.0698
 3097TIP3    H2 9298   3.975   3.756   2.281  0.3386  0.6931 -0.5481
 3098TIP3   OH2 9299   5.611   4.738   1.227  0.0286  0.6075  0.0734
 3098TIP3    H1 9300   5.598   4.823   1.185  0.8639  0.6984 -0.0300
 3098TIP3    H2 9301   5.688   4.750   1.283  1.4248 -0.5886 -1.4601
 3099TIP3   OH2 9302   1.060   1.316   2.966 -0.4161  0.0156  0.3919
 3099TIP3    H1 9303   1.040   1.256   2.895  0.9266  0.9910 -0.8524
 3099TIP3    H2 9304   1.010   1.395   2.946 -0.2839  0.1818  0.7027
 3100TIP3   OH2 9305   6.291   4.144   0.460  0.3068  0.5326  0.2409
 3100TIP3    H1 9306   6.213   4.199   0.447  0.2231  0.2915 -0.3074
 3100TIP3    H2 9307   6.362   4.195   0.420  0.3262  0.4917  0.2239
 3101TIP3   OH2 9308   4.080   1.568   4.685  0.1922 -0.2718 -0.3011
 3101TIP3    H1 9309   4.114   1.483   4.656  1.6517 -0.3845  1.5562
 3101TIP3    H2 9310   4.155   1.611   4.726 -1.0352  1.0554  0.6479
 3102TIP3   OH2 9311   5.385   2.120   2.095  0.5567 -0.0622  0.4449
 3102TIP3    H1 9312   5.360   2.046   2.039 -0.1984  1.5880 -1.5470
 3102TIP3    H2 9313   5.365   2.090   2.184 -1.5063 -1.5842 -0.4358
 3103TIP3   OH2 9314   4.564   5.785   0.797 -0.4913 -0.4634 -0.4585
 3103TIP3    H1 9315   4.618   5.854   0.836 -2.0898  0.5888 -0.0307
 3103TIP3    H2 9316   4.501   5.831   0.742 -0.6549 -1.7008 -1.3596
 3104TIP3   OH2 9317   4.011   5.201   2.691  0.1080  0.7796  0.1167
 3104TIP3    H1 9318   3.945   5.235   2.750 -2.5022 -1.6991 -1.1570
 3104TIP3    H2 9319   4.020   5.269   2.623 -0.6092  1.4412  0.6683
 3105TIP3   OH2 9320   5.008   5.468   1.154 -0.3643  0.3495 -0.1330
 3105TIP3    H1 9321   5.080   5.437   1.100  1.7335 -1.7015  3.4191
 3105TIP3    H2 9322   5.050   5.520   1.223 -2.2127 -0.6472  1.8963
 3106TIP3   OH2 9323   0.851   5.098   2.953 -0.1838  0.5139 -0.0754
 3106TIP3    H1 9324   0.840   5.090   3.048 -0.6091  1.0272 -0.0812
 3106TIP3    H2 9325   0.783   5.041   2.916  0.5943 -0.4565 -0.0803
 3107TIP3   OH2 9326   0.851   4.121   1.206 -0.5014  0.0180  0.1293
 3107TIP3    H1 9327   0.776   4.115   1.146 -0.0032 -1.3613 -0.3934
 3107TIP3    H2 9328   0.857   4.035   1.246  1.0317 -0.0380 -0.1428
 3108TIP3   OH2 9329   2.446   5.684   2.724 -0.6248 -0.3930  0.4068
 3108TIP3    H1 9330   2.496   5.668   2.644 -0.9191 -1.3449  0.4007
 3108TIP3    H2 9331   2.454   5.778   2.739  0.2587 -0.3624 -0.1905
 3109TIP3   OH2 9332   5.944   3.540   3.431  0.1107  0.2364 -0.1127
 3109TIP3    H1 9333   6.021   3.577   3.475 -2.5487  2.6423  2.9191
 3109TIP3    H2 9334   5.936   3.452   3.468 -0.8181  1.4389  2.8370
 3110TIP3   OH2 9335   0.701   0.568   3.666 -0.8679 -0.1601  0.6779
 3110TIP3    H1 9336   0.692   0.490   3.720 -0.4486  0.9797  2.4624
 3110TIP3    H2 9337   0.657   0.637   3.715  0.2240  1.0869 -0.0205
 3111TIP3   OH2 9338   0.431   0.550   2.043 -0.2407  0.1582 -0.5219
 3111TIP3    H1 9339   0.380   0.512   1.971 -1.8010  1.4306 -0.1474
 3111TIP3    H2 9340   0.386   0.632   2.063 -0.2896 -0.4672  2.3406
 3112TIP3   OH2 9341   2.101   2.411   1.936  1.1501  0.0070  0.5357
 3112TIP3    H1 9342   2.180   2.455   1.906 -0.8874  2.5554 -1.6101
 3112TIP3    H2 9343   2.074   2.357   1.862 -0.6488  1.5285  0.0125
 3113TIP3   OH2 9344   6.239   3.265   3.459  0.2842  0.4223 -0.2724
 3113TIP3    H1 9345   6.309   3.329   3.447  1.2336 -0.5083  0.1083
 3113TIP3    H2 9346   6.216   3.238   3.370  1.7544 -0.6383 -0.3663
 3114TIP3   OH2 9347   5.202   3.910   2.372 -0.1523 -0.0286 -0.2791
 3114TIP3    H1 9348   5.218   3.916   2.278  0.7282 -0.0814 -0.1411
 3114TIP3    H2 9349   5.171   3.997   2.398 -2.8218 -0.6672 -1.0290
 3115TIP3   OH2 9350   1.146   4.524   0.058  0.2664  0.2480 -0.0166
 3115TIP3    H1 9351   1.064   4.555   0.095  1.0279  1.2727  0.9132
 3115TIP3    H2 9352   1.159   4.437   0.096 -0.9673 -0.4539 -1.1438
 3116TIP3   OH2 9353   2.463   2.136   5.150  0.7736  0.0860 -0.1569
 3116TIP3    H1 9354   2.439   2.216   5.197 -0.8542  0.3035 -1.2783
 3116TIP3    H2 9355   2.530   2.163   5.088  1.5971  0.1685  0.7437
 3117TIP3   OH2 9356   3.098   4.052   2.102  0.7331 -0.0553  0.0754
 3117TIP3    H1 9357   3.136   4.105   2.173  0.8849  0.9784 -0.7579
 3117TIP3    H2 9358   3.015   4.022   2.138  0.3630  1.2496  0.3758
 3118TIP3   OH2 9359   4.545   5.546   2.280  0.1895 -0.3881 -0.2125
 3118TIP3    H1 9360   4.617   5.598   2.316 -0.6009 -0.6861  1.9012
 3118TIP3    H2 9361   4.547   5.566   2.186  1.0914  2.0270  0.2278
 3119TIP3   OH2 9362   3.006   4.597   1.601 -0.1795  0.3195  0.5540
 3119TIP3    H1 9363   2.950   4.522   1.619 -1.1871  1.2864  1.6551
 3119TIP3    H2 9364   2.971   4.635   1.521 -0.3861  0.2605  0.6161
 3120TIP3   OH2 9365   2.179   4.704   3.242 -0.1276 -0.5708 -0.5167
 3120TIP3    H1 9366   2.261   4.743   3.273 -0.4588  0.0315 -0.3772
 3120TIP3    H2 9367   2.196   4.610   3.241 -0.2932 -0.6952  2.0512
 3121TIP3   OH2 9368   4.748   5.585   1.874 -0.2592 -0.1443 -0.0523
 3121TIP3    H1 9369   4.724   5.644   1.803 -0.4498  0.5853  0.6061
 3121TIP3    H2 9370   4.800   5.517   1.832 -0.0224  0.4996 -0.8234
 3122TIP3   OH2 9371   6.096   4.565   3.244  0.5131  0.3086 -0.5142
 3122TIP3    H1 9372   6.022   4.543   3.302 -1.4930  1.8572 -2.3305
 3122TIP3    H2 9373   6.153   4.488   3.249 -1.2540 -1.0149  0.8958
 3123TIP3   OH2 9374   6.168   2.928   1.080  0.8944 -0.0121 -0.3631
 3123TIP3    H1 9375   6.193   2.955   1.169  0.4011 -0.9465  0.0645
 3123TIP3    H2 9376   6.075   2.909   1.086  0.9054 -0.2810 -1.0309
 3124TIP3   OH2 9377   1.933   0.928   1.542 -0.1522 -0.2726  0.4472
 3124TIP3    H1 9378   1.916   0.845   1.586  0.7394 -1.0189 -0.5655
 3124TIP3    H2 9379   2.014   0.913   1.494 -0.2849  1.0086 -0.2047
 3125TIP3   OH2 9380   0.133   5.694   5.163  0.3659 -0.2769  0.2807
 3125TIP3    H1 9381   0.203   5.676   5.102 -0.9162 -0.1120 -1.2980
 3125TIP3    H2 9382   0.175   5.743   5.234  1.9910 -0.9895 -0.1446
 3126TIP3   OH2 9383   2.084   1.487   0.865 -0.0017 -0.1104 -0.3462
 3126TIP3    H1 9384   2.091   1.427   0.939  0.2396  0.1596 -0.1496
 3126TIP3    H2 9385   2.123   1.440   0.792 -1.0275 -0.7353 -0.5221
 3127TIP3   OH2 9386   0.567   2.605   0.721 -0.2400 -0.1735  0.7166
 3127TIP3    H1 9387   0.565   2.683   0.666 -1.1251 -1.4670 -1.2155
 3127TIP3    H2 9388   0.557   2.638   0.810 -0.9108  1.8859 -0.0564
 3128TIP3   OH2 9389   2.719   1.355   4.281 -0.1311 -0.5255 -0.3316
 3128TIP3    H1 9390   2.783   1.421   4.305  0.9379 -1.4979 -0.3976
 3128TIP3    H2 9391   2.748   1.324   4.195 -1.8963  0.4579 -1.3478
 3129TIP3   OH2 9392   2.277   2.789   1.338 -0.1178 -0.4724  0.1358
 3129TIP3    H1 9393   2.201   2.750   1.293 -0.5793 -1.1341  1.4270
 3129TIP3    H2 9394   2.318   2.715   1.383 -0.5270  0.3544  1.9712
 3130TIP3   OH2 9395   0.936   3.400   1.380 -0.3049  0.0073 -0.1871
 3130TIP3    H1 9396   0.987   3.475   1.350 -0.0027 -0.4509 -0.8453
 3130TIP3    H2 9397   0.846   3.420   1.354 -0.2958  0.3309  0.0225
 3131TIP3   OH2 9398   1.259   4.972   4.887 -0.3559 -0.0300 -0.2101
 3131TIP3    H1 9399   1.291   5.045   4.834  2.1131 -0.0121  1.1784
 3131TIP3    H2 9400   1.166   4.990   4.898 -0.2168  1.8394 -1.5595
 3132TIP3   OH2 9401   5.244   0.147   1.095  0.1568  0.2692 -0.3837
 3132TIP3    H1 9402   5.313   0.101   1.046  0.4592 -0.9034  1.0493
 3132TIP3    H2 9403   5.219   0.220   1.039  0.2426 -1.1666 -2.4288
 3133TIP3   OH2 9404   4.861   3.301   2.905  0.2076  0.0987  0.3206
 3133TIP3    H1 9405   4.789   3.341   2.856  0.2609 -0.2774 -0.0657
 3133TIP3    H2 9406   4.818   3.238   2.963  0.2085  0.0369  0.2535
 3134TIP3   OH2 9407   5.349   5.360   2.105 -0.1217 -0.0645 -0.2383
 3134TIP3    H1 9408   5.316   5.371   2.194  2.2620 -1.1031  0.8512
 3134TIP3    H2 9409   5.435   5.320   2.115  0.1463 -0.4435 -3.0386
 3135TIP3   OH2 9410   1.914   4.618   4.292  0.3208 -0.0852 -0.2944
 3135TIP3    H1 9411   1.929   4.713   4.284 -0.9408  0.1607  0.0349
 3135TIP3    H2 9412   1.974   4.590   4.361 -0.2888  0.7432  0.5932
 3136TIP3   OH2 9413   3.611   3.739   2.307 -0.2897  0.1026  0.5947
 3136TIP3    H1 9414   3.527   3.738   2.352 -0.6381 -1.4986 -0.0094
 3136TIP3    H2 9415   3.663   3.674   2.354  1.1069  1.9593  1.7659
 3137TIP3   OH2 9416   3.846   0.517   3.350 -0.2603 -0.3971 -0.3107
 3137TIP3    H1 9417   3.769   0.482   3.396  0.6122 -1.0164  0.7311
 3137TIP3    H2 9418   3.814   0.597   3.307 -2.2834 -2.3061 -2.6464
 3138TIP3   OH2 9419   2.653   4.183   0.001  0.3237  0.0518  0.0568
 3138TIP3    H1 9420   2.682   4.244   0.069 -2.7485  0.5001  1.0979
 3138TIP3    H2 9421   2.588   4.128   0.044  0.6886 -1.8831 -1.7104
 3139TIP3   OH2 9422   1.322   0.535   4.936  0.3891 -0.4092 -0.3764
 3139TIP3    H1 9423   1.403   0.500   4.971  0.4221 -1.3148 -1.2996
 3139TIP3    H2 9424   1.346   0.622   4.903  0.8749 -0.4922 -0.2488
 3140TIP3   OH2 9425   0.618   4.224   2.302  0.3696  0.2239  0.0132
 3140TIP3    H1 9426   0.579   4.282   2.237  0.0986  0.1324  0.0891
 3140TIP3    H2 9427   0.560   4.147   2.303 -0.4838  0.8343  1.4014
 3141TIP3   OH2 9428   0.303   2.831   3.885  0.3896  0.3097 -0.1501
 3141TIP3    H1 9429   0.384   2.789   3.915  1.3084  0.5887 -2.1011
 3141TIP3    H2 9430   0.324   2.924   3.879 -0.7172  0.6835  1.2140
 3142TIP3   OH2 9431   3.868   4.668   1.934 -0.1300 -0.5210 -0.1282
 3142TIP3    H1 9432   3.924   4.692   1.860 -1.5162  0.7157 -0.8316
 3142TIP3    H2 9433   3.784   4.644   1.893 -0.4189 -1.4100  0.9507
 3143TIP3   OH2 9434   5.264   4.729   0.782 -0.1944 -0.1132 -0.5958
 3143TIP3    H1 9435   5.198   4.796   0.801  0.2051 -0.4836  2.5739
 3143TIP3    H2 9436   5.243   4.658   0.842  2.8015 -0.4230  0.2176
 3144TIP3   OH2 9437   5.412   1.724   4.411 -0.2906  0.5321 -0.2096
 3144TIP3    H1 9438   5.489   1.752   4.360 -0.3462 -0.4756 -0.8817
 3144TIP3    H2 9439   5.337   1.750   4.357 -0.3449 -0.7654 -0.8060
 3145TIP3   OH2 9440   2.557   2.273   3.211 -0.0529 -0.1795  0.3110
 3145TIP3    H1 9441   2.587   2.199   3.264 -1.0380 -0.2833  0.7410
 3145TIP3    H2 9442   2.475   2.243   3.173  0.1143  0.2838 -0.4426
 3146TIP3   OH2 9443   3.071   2.688   0.920  0.2632 -0.7527  0.5797
 3146TIP3    H1 9444   3.027   2.678   0.836  0.2100 -1.8726  0.7319
 3146TIP3    H2 9445   3.144   2.627   0.917  0.2389 -0.8278  1.3601
 3147TIP3   OH2 9446   4.900   0.809   3.776  0.0174 -0.5149  0.5042
 3147TIP3    H1 9447   4.830   0.813   3.840  0.7044  2.2110  1.2203
 3147TIP3    H2 9448   4.926   0.901   3.762  1.0735 -1.1250 -2.3770
 3148TIP3   OH2 9449   1.693   1.328   2.412 -0.2545 -0.1679  0.4918
 3148TIP3    H1 9450   1.602   1.302   2.421  0.1997 -2.4934 -0.8979
 3148TIP3    H2 9451   1.736   1.292   2.490 -0.5543  1.3941  1.4264
 3149TIP3   OH2 9452   5.579   1.855   2.312  0.0843 -0.5536  0.1411
 3149TIP3    H1 9453   5.655   1.912   2.319 -1.6519  2.0573 -0.7581
 3149TIP3    H2 9454   5.588   1.812   2.227 -0.5870  1.6763 -1.1315
 3150TIP3   OH2 9455   2.472   1.202   4.152  0.5841 -0.1916 -0.5129
 3150TIP3    H1 9456   2.566   1.206   4.171  0.4696  0.2429 -0.0202
 3150TIP3    H2 9457   2.443   1.120   4.192  0.2334  0.9770  1.7951
 3151TIP3   OH2 9458   0.116   3.029   2.862  0.3619  0.3349 -0.0199
 3151TIP3    H1 9459   0.122   3.079   2.943 -1.1127 -0.6655  0.7515
 3151TIP3    H2 9460   0.207   3.021   2.832  1.1779 -0.7185  2.4420
 3152TIP3   OH2 9461   5.356   4.878   1.187 -0.3516 -0.1794 -0.1990
 3152TIP3    H1 9462   5.359   4.948   1.122  0.5502 -0.7899 -0.8427
 3152TIP3    H2 9463   5.389   4.918   1.267  1.1412 -0.0905 -0.8116
 3153TIP3   OH2 9464   3.123   2.643   2.788 -0.6256  0.5340 -0.0347
 3153TIP3    H1 9465   3.156   2.614   2.702 -2.5187 -0.0812 -0.6023
 3153TIP3    H2 9466   3.117   2.562   2.839  0.5695  0.9115  0.7392
 3154TIP3   OH2 9467   0.571   1.011   4.620 -0.7852 -0.2808 -0.1490
 3154TIP3    H1 9468   0.534   0.922   4.618 -0.7643 -0.3001  0.3010
 3154TIP3    H2 9469   0.662   0.999   4.647 -0.8161 -0.1106  0.0291
 3155TIP3   OH2 9470   2.981   0.929   4.697  0.0472 -0.3700 -0.2286
 3155TIP3    H1 9471   2.978   1.018   4.731  1.2653 -0.2662 -0.3201
 3155TIP3    H2 9472   3.038   0.935   4.620 -1.8763 -0.7717 -1.7566
 3156TIP3   OH2 9473   6.165   2.972   0.363  0.1499  0.1218 -0.2365
 3156TIP3    H1 9474   6.258   2.994   0.362  0.2321 -0.1962  0.1479
 3156TIP3    H2 9475   6.152   2.928   0.447 -0.1689 -0.5908 -0.6520
 3157TIP3   OH2 9476   0.843   1.841   3.344  0.1620  0.0553 -0.2027
 3157TIP3    H1 9477   0.783   1.905   3.382  0.2204  0.0361 -0.0788
 3157TIP3    H2 9478   0.915   1.835   3.407  0.2397 -0.0041 -0.2975
 3158TIP3   OH2 9479   5.046   5.788   1.824  0.6206 -0.0841  0.1843
 3158TIP3    H1 9480   5.061   5.851   1.754  0.7904  1.4509  1.5457
 3158TIP3    H2 9481   4.962   5.814   1.862  1.1360 -0.0939  1.3583
 3159TIP3   OH2 9482   1.807   0.741   3.683  0.2589 -0.3008 -0.4082
 3159TIP3    H1 9483   1.766   0.818   3.643 -1.7845  0.2234  2.3789
 3159TIP3    H2 9484   1.900   0.752   3.666  0.1893  3.4215  0.7276
 3160TIP3   OH2 9485   0.840   3.646   1.897 -0.2062 -0.2035  0.1840
 3160TIP3    H1 9486   0.798   3.728   1.925  1.6917  1.2588 -0.9847
 3160TIP3    H2 9487   0.874   3.608   1.978  0.1079  0.9227  0.6103
 3161TIP3   OH2 9488   1.461   2.874   0.851 -0.5235  0.5656  0.3940
 3161TIP3    H1 9489   1.485   2.906   0.938 -2.2722  0.1066  1.0894
 3161TIP3    H2 9490   1.544   2.866   0.805  0.6317 -0.7116  2.5447
 3162TIP3   OH2 9491   1.584   2.769   1.503 -0.1924  0.3570 -0.3723
 3162TIP3    H1 9492   1.603   2.694   1.558  0.4898  1.6619  1.2395
 3162TIP3    H2 9493   1.528   2.734   1.433  1.4927 -1.9631 -0.6629
 3163TIP3   OH2 9494   1.829   0.206   4.639  0.5465  0.2474 -0.0909
 3163TIP3    H1 9495   1.803   0.231   4.550  0.5437  1.3441  0.2068
 3163TIP3    H2 9496   1.923   0.222   4.642  0.9120 -1.6147 -0.4733
 3164TIP3   OH2 9497   0.735   2.671   1.538 -0.2869  0.2450 -0.2756
 3164TIP3    H1 9498   0.809   2.726   1.514  1.1954 -1.6179 -0.1972
 3164TIP3    H2 9499   0.712   2.700   1.626  0.7016  0.5288 -0.0931
 3165TIP3   OH2 9500   5.432   2.755   4.216 -0.9969  0.1783 -0.3342
 3165TIP3    H1 9501   5.513   2.710   4.239  1.2357  3.8337 -0.1818
 3165TIP3    H2 9502   5.433   2.759   4.120 -0.1039  1.4530 -0.3117
 3166TIP3   OH2 9503   4.886   3.460   4.367 -0.9204  0.2813  0.3001
 3166TIP3    H1 9504   4.903   3.463   4.461 -0.8606 -0.2647  0.3081
 3166TIP3    H2 9505   4.832   3.382   4.354 -1.7107  0.8656 -0.0042
 3167TIP3   OH2 9506   5.630   4.936   1.029  0.1354  0.0380  0.3213
 3167TIP3    H1 9507   5.580   4.955   0.949 -0.0971 -1.2375  0.1385
 3167TIP3    H2 9508   5.717   4.913   0.997  0.1214 -0.1944  0.4476
 3168TIP3   OH2 9509   0.184   1.434   4.680 -0.1986 -0.1138 -0.6222
 3168TIP3    H1 9510   0.207   1.516   4.722  0.5164  0.6319 -2.3830
 3168TIP3    H2 9511   0.263   1.380   4.686  0.1673  0.2875 -1.6451
 3169TIP3   OH2 9512   4.410   5.806   0.452  0.4297 -0.3113 -0.5593
 3169TIP3    H1 9513   4.490   5.858   0.462 -1.0604  1.9634  0.2329
 3169TIP3    H2 9514   4.368   5.810   0.538 -2.4281  1.9091 -1.9112
 3170TIP3   OH2 9515   3.797   3.541   2.393  0.7174  0.4910  0.9246
 3170TIP3    H1 9516   3.864   3.570   2.456  1.1814  1.0565  0.1926
 3170TIP3    H2 9517   3.823   3.582   2.310 -0.6654  0.9145  0.6684
 3171TIP3   OH2 9518   2.230   4.692   1.948  0.5034  0.3963  0.9456
 3171TIP3    H1 9519   2.277   4.768   1.982  0.4987  0.8536 -0.0394
 3171TIP3    H2 9520   2.298   4.628   1.928  0.6679  0.8035  0.1584
 3172TIP3   OH2 9521   2.851   5.159   0.546  0.2993  0.7770 -0.1441
 3172TIP3    H1 9522   2.797   5.202   0.613  0.0878  2.1646 -1.1524
 3172TIP3    H2 9523   2.787   5.122   0.485  0.4981  0.1285  0.0316
 3173TIP3   OH2 9524   4.038   4.932   0.595 -0.0042 -0.3166 -0.0778
 3173TIP3    H1 9525   3.946   4.908   0.606 -0.1708 -0.6490 -1.8020
 3173TIP3    H2 9526   4.039   4.984   0.514  1.5233 -1.8409 -1.1249
 3174TIP3   OH2 9527   6.169   4.083   1.978  0.0678  0.0947  0.4332
 3174TIP3    H1 9528   6.164   4.104   2.072  0.6759  0.8877  0.2978
 3174TIP3    H2 9529   6.079   4.092   1.947  0.2696  2.5907  0.3921
 3175TIP3   OH2 9530   6.173   0.949   1.677  0.4883 -0.1235 -0.2208
 3175TIP3    H1 9531   6.229   1.025   1.695 -0.6213  0.8562 -0.6980
 3175TIP3    H2 9532   6.206   0.914   1.594 -0.4894  1.3775 -1.3070
 3176TIP3   OH2 9533   0.576   5.293   1.104 -0.6966  0.3161  0.1030
 3176TIP3    H1 9534   0.508   5.297   1.172  0.5967  1.0037  1.4000
 3176TIP3    H2 9535   0.587   5.383   1.075  0.9610  0.5140  1.2558
 3177TIP3   OH2 9536   4.469   1.823   4.391 -0.0284  0.1767  0.2029
 3177TIP3    H1 9537   4.482   1.728   4.386  1.4152  0.2531  1.6238
 3177TIP3    H2 9538   4.550   1.860   4.356 -0.0251  0.8601  0.9087
 3178TIP3   OH2 9539   4.720   1.693   4.513 -0.2027  1.0192  0.7916
 3178TIP3    H1 9540   4.724   1.769   4.454 -1.2887  0.5452  0.0813
 3178TIP3    H2 9541   4.644   1.643   4.483  1.4777 -1.2656  0.1355
 3179TIP3   OH2 9542   4.756   3.529   3.434  0.1611 -0.0748 -0.6368
 3179TIP3    H1 9543   4.795   3.510   3.349 -0.1382  0.8440 -0.9950
 3179TIP3    H2 9544   4.828   3.519   3.496 -0.3670 -4.3872 -0.4306
 3180TIP3   OH2 9545   2.217   2.187   4.435 -0.7878 -0.2324  0.2207
 3180TIP3    H1 9546   2.217   2.217   4.526 -1.9418  1.9605 -0.4419
 3180TIP3    H2 9547   2.229   2.092   4.442 -0.4229 -0.0823  2.6261
 3181TIP3   OH2 9548   6.243   0.893   4.952  0.0208 -0.0620 -0.6279
 3181TIP3    H1 9549   6.196   0.975   4.935  0.1034 -0.1048 -1.0738
 3181TIP3    H2 9550   6.181   0.824   4.929 -0.4737 -0.1566  0.8584
 3182TIP3   OH2 9551   3.394   2.011   1.313 -0.3795 -0.1024  0.0128
 3182TIP3    H1 9552   3.454   1.981   1.381  0.3368 -0.7120 -0.8691
 3182TIP3    H2 9553   3.317   2.042   1.361  0.1744 -0.3620  1.1007
 3183TIP3   OH2 9554   5.321   3.203   5.034 -0.0374  0.5915 -0.5335
 3183TIP3    H1 9555   5.391   3.265   5.014 -0.3537  1.0334 -0.2903
 3183TIP3    H2 9556   5.364   3.132   5.081  0.2104  0.9839 -0.1566
 3184TIP3   OH2 9557   4.945   1.514   4.095  0.3600  0.2441 -0.1701
 3184TIP3    H1 9558   4.991   1.516   4.179 -0.3915 -2.4385  0.4099
 3184TIP3    H2 9559   4.932   1.606   4.072  1.0686  1.0567  2.3696
 3185TIP3   OH2 9560   0.734   3.442   2.618 -0.4656  0.4665  0.0842
 3185TIP3    H1 9561   0.666   3.383   2.585  1.1685 -0.8721 -1.0768
 3185TIP3    H2 9562   0.687   3.523   2.638 -2.3026 -0.1798 -1.2432
 3186TIP3   OH2 9563   0.121   0.710   0.638  0.6281  0.1768  0.6876
 3186TIP3    H1 9564   0.091   0.798   0.661  0.6968  0.5565 -0.5797
 3186TIP3    H2 9565   0.214   0.721   0.620  0.2825  0.2774 -1.3154
 3187TIP3   OH2 9566   0.495   0.665   3.166 -0.0947 -0.4226 -0.6251
 3187TIP3    H1 9567   0.544   0.603   3.220 -1.3697 -1.3068 -0.4435
 3187TIP3    H2 9568   0.520   0.751   3.200  1.1420 -0.8509 -0.3966
 3188TIP3   OH2 9569   1.918   2.036   1.955  0.0816 -0.2563  0.4500
 3188TIP3    H1 9570   1.871   1.958   1.987  1.7231 -1.7595 -0.5899
 3188TIP3    H2 9571   1.876   2.109   1.999 -1.4601 -1.7415  1.5835
 3189TIP3   OH2 9572   5.965   4.896   4.342  0.2429  0.0264 -0.2030
 3189TIP3    H1 9573   6.033   4.958   4.316 -0.2111  0.7070  0.2070
 3189TIP3    H2 9574   5.985   4.874   4.433  1.4984 -1.9157 -0.8758
 3190TIP3   OH2 9575   4.452   1.937   3.375 -0.1992 -0.3696 -0.3172
 3190TIP3    H1 9576   4.416   1.868   3.319  1.2846  0.5069 -2.5102
 3190TIP3    H2 9577   4.478   1.891   3.455  0.0261 -2.2351 -1.3891
 3191TIP3   OH2 9578   0.397   1.559   0.832  0.5503  0.0440  0.0948
 3191TIP3    H1 9579   0.404   1.493   0.902  0.9355 -0.5218 -0.4622
 3191TIP3    H2 9580   0.303   1.569   0.819  0.3720  1.8181  2.2130
 3192TIP3   OH2 9581   6.211   2.612   1.188 -0.2928 -0.2875 -0.8948
 3192TIP3    H1 9582   6.216   2.519   1.209  1.7460 -0.1170 -0.4127
 3192TIP3    H2 9583   6.197   2.656   1.272  1.3312 -0.0280 -0.7287
 3193TIP3   OH2 9584   5.738   0.834   4.032  0.8100 -0.0326  0.3186
 3193TIP3    H1 9585   5.704   0.922   4.049  1.6029  0.4238 -0.3587
 3193TIP3    H2 9586   5.833   0.844   4.038  1.2217  0.0983 -3.5017
 3194TIP3   OH2 9587   4.124   1.223   4.052 -0.2697 -0.0141  0.2845
 3194TIP3    H1 9588   4.059   1.293   4.049 -0.3961 -0.1181  0.5846
 3194TIP3    H2 9589   4.201   1.260   4.009  0.5870  1.2571  2.7143
 3195TIP3   OH2 9590   3.461   2.787   4.725  0.6356  0.0104  0.0282
 3195TIP3    H1 9591   3.406   2.851   4.680  2.3203  0.3643 -1.6883
 3195TIP3    H2 9592   3.548   2.800   4.687  1.2951 -2.4703  0.5198
 3196TIP3   OH2 9593   0.949   4.521   1.524 -0.1956 -0.0469 -0.5597
 3196TIP3    H1 9594   0.907   4.548   1.442  0.3898  0.3564 -0.7348
 3196TIP3    H2 9595   0.976   4.604   1.565 -1.6680 -0.1425  0.6949
 3197TIP3   OH2 9596   2.407   3.219   1.654  0.2003 -0.2801  0.1130
 3197TIP3    H1 9597   2.355   3.221   1.734  0.6790  0.6433  0.4084
 3197TIP3    H2 9598   2.344   3.197   1.585 -0.6938  1.2561  0.3886
 3198TIP3   OH2 9599   1.912   4.486   2.988  0.0509  0.4798 -0.0471
 3198TIP3    H1 9600   1.995   4.522   2.957 -0.2739  0.3086 -1.1639
 3198TIP3    H2 9601   1.871   4.558   3.036  0.3133  0.9396 -0.5080
 3199TIP3   OH2 9602   2.422   4.778   0.251  0.3550  0.8842 -0.2632
 3199TIP3    H1 9603   2.434   4.687   0.225 -1.2493  0.5816 -0.0389
 3199TIP3    H2 9604   2.487   4.792   0.320  0.1672 -0.2973  0.1737
 3200TIP3   OH2 9605  -0.031   2.717   3.427  0.5095  0.9800  0.0527
 3200TIP3    H1 9606   0.039   2.709   3.362  0.6707 -2.0039  0.4466
 3200TIP3    H2 9607   0.011   2.756   3.504  1.6169 -0.2230  0.0783
 3201TIP3   OH2 9608   1.923   4.874   2.982  0.0513  0.3145 -0.2056
 3201TIP3    H1 9609   1.861   4.867   2.909 -0.3992  0.8294  0.1156
 3201TIP3    H2 9610   2.008   4.882   2.940  0.2495 -2.8849 -0.6431
 3202TIP3   OH2 9611   4.124   2.134   3.434  0.9925 -0.2093 -0.5930
 3202TIP3    H1 9612   4.119   2.208   3.494  1.1797 -0.8819  0.2872
 3202TIP3    H2 9613   4.201   2.152   3.380  1.1002  0.1904 -0.3111
 3203TIP3   OH2 9614   3.138   1.788   4.326  0.3319 -0.5182  0.2960
 3203TIP3    H1 9615   3.233   1.778   4.323  0.6580  1.8087  0.8522
 3203TIP3    H2 9616   3.117   1.792   4.419 -0.3504 -1.1292  0.1787
 3204TIP3   OH2 9617   4.609   0.553   3.146 -0.7402  0.3421 -0.3638
 3204TIP3    H1 9618   4.590   0.471   3.193 -0.3335  0.6279  0.3141
 3204TIP3    H2 9619   4.561   0.545   3.063 -0.7655 -0.5492 -0.2706
 3205TIP3   OH2 9620   3.154   0.153   4.990 -0.4755 -0.0307 -0.3433
 3205TIP3    H1 9621   3.241   0.115   5.004 -1.0169 -1.3523 -0.4261
 3205TIP3    H2 9622   3.111   0.147   5.076 -0.3836  0.9093 -0.2234
 3206TIP3   OH2 9623   1.583   5.054   2.727 -0.2110 -0.6107  0.1858
 3206TIP3    H1 9624   1.675   5.043   2.752  0.3130 -1.4489 -1.8907
 3206TIP3    H2 9625   1.545   5.103   2.799  1.6392 -1.0439  1.5443
 3207TIP3   OH2 9626   1.699   3.354   1.543  0.6108  0.5610 -0.5873
 3207TIP3    H1 9627   1.637   3.309   1.486 -0.2027 -1.5312  1.7658
 3207TIP3    H2 9628   1.783   3.348   1.497 -0.0583 -0.7716 -1.6990
 3208TIP3   OH2 9629   0.349   5.480   1.099  0.2046 -0.2644  0.4133
 3208TIP3    H1 9630   0.288   5.493   1.026  1.3075 -0.6453 -0.6068
 3208TIP3    H2 9631   0.295   5.442   1.168 -1.5021  2.6832  0.8572
 3209TIP3   OH2 9632   1.249   2.324   0.807  0.1138 -0.5604 -0.1571
 3209TIP3    H1 9633   1.305   2.401   0.811 -1.4882  0.6880 -1.1212
 3209TIP3    H2 9634   1.263   2.281   0.892  0.9194  0.8590  0.4692
 3210TIP3   OH2 9635   1.728   5.960   3.877  0.0383  0.0289  0.0880
 3210TIP3    H1 9636   1.669   6.010   3.821  0.9217 -0.7867 -1.6226
 3210TIP3    H2 9637   1.673   5.935   3.952 -1.0951  1.3603 -0.2608
 3211TIP3   OH2 9638   2.479   3.116   3.472 -0.0026  0.1717 -0.2906
 3211TIP3    H1 9639   2.522   3.054   3.414 -1.3717 -1.0678 -0.0479
 3211TIP3    H2 9640   2.386   3.111   3.448 -0.5011  0.2201  1.4202
 3212TIP3   OH2 9641   0.211   5.061   0.753 -0.5432  0.2755 -0.0636
 3212TIP3    H1 9642   0.248   5.065   0.841 -0.7728  1.6357  0.0078
 3212TIP3    H2 9643   0.129   5.111   0.760 -0.2980  0.8655 -1.1553
 3213TIP3   OH2 9644   1.564   4.710   3.788 -0.0525  0.1948 -0.2528
 3213TIP3    H1 9645   1.537   4.757   3.709 -0.4400 -0.7068 -0.6713
 3213TIP3    H2 9646   1.510   4.748   3.858  2.3155  3.0760  0.2150
 3214TIP3   OH2 9647   6.018   5.319   4.276 -0.1946  0.0460 -0.3930
 3214TIP3    H1 9648   6.104   5.289   4.246 -0.2398 -0.5415  0.0539
 3214TIP3    H2 9649   6.038   5.389   4.338  0.0240 -0.8724  0.6068
 3215TIP3   OH2 9650   3.802   4.772   0.223  0.1291  0.6381 -0.2857
 3215TIP3    H1 9651   3.789   4.694   0.169 -1.0225 -0.5676  1.6159
 3215TIP3    H2 9652   3.892   4.764   0.253 -0.3294 -0.6796  0.8705
 3216TIP3   OH2 9653   1.173   5.026   3.682  0.6045 -0.5493 -0.2448
 3216TIP3    H1 9654   1.182   5.049   3.589  2.3201 -1.6665 -0.3917
 3216TIP3    H2 9655   1.083   5.052   3.704  0.3332  0.2380 -2.0599
 3217TIP3   OH2 9656   0.861   4.257   0.174 -0.0141 -0.4034  0.4828
 3217TIP3    H1 9657   0.797   4.200   0.216 -2.0778  0.9405 -0.6535
 3217TIP3    H2 9658   0.831   4.265   0.083  1.1312  1.1551  0.1817
 3218TIP3   OH2 9659   3.654   0.457   4.685  0.0629 -0.1770 -0.4738
 3218TIP3    H1 9660   3.620   0.504   4.761  0.8232  0.7158 -0.6737
 3218TIP3    H2 9661   3.576   0.438   4.632 -0.0973  2.8543 -1.5019
 3219TIP3   OH2 9662   0.520   0.834   0.412 -0.2090 -0.6817  0.7266
 3219TIP3    H1 9663   0.563   0.761   0.456 -1.0853 -2.4520 -1.1642
 3219TIP3    H2 9664   0.441   0.795   0.373 -1.1003  1.4557  0.2543
 3220TIP3   OH2 9665   5.411   0.366   0.528 -0.0829 -0.2019  0.2887
 3220TIP3    H1 9666   5.334   0.311   0.512 -0.4519  0.4164 -0.1303
 3220TIP3    H2 9667   5.428   0.407   0.443  2.0563 -1.9642 -0.2247
 3221TIP3   OH2 9668   3.537   1.220   4.313  0.1173  0.3632 -0.4476
 3221TIP3    H1 9669   3.479   1.227   4.237  1.7011 -0.2155 -1.7749
 3221TIP3    H2 9670   3.601   1.290   4.301  0.1504  0.5131  0.5745
 3222TIP3   OH2 9671   3.400   2.072   0.849 -0.0680 -0.1079 -0.6072
 3222TIP3    H1 9672   3.327   2.014   0.826  0.1630 -0.3160 -0.8393
 3222TIP3    H2 9673   3.447   2.084   0.766 -0.8536  1.4869 -0.8411
 3223TIP3   OH2 9674   2.066   3.340   4.920  0.3511  0.2208 -0.0817
 3223TIP3    H1 9675   2.105   3.300   4.842  1.7464  2.5353 -0.6642
 3223TIP3    H2 9676   2.140   3.360   4.977 -0.4447  0.5604  0.8694
 3224TIP3   OH2 9677   2.306   4.766   1.508  0.5945 -0.0551 -0.4884
 3224TIP3    H1 9678   2.231   4.743   1.452  0.0689 -0.7522  0.4776
 3224TIP3    H2 9679   2.332   4.853   1.478 -2.2420  1.3852  0.7843
 3225TIP3   OH2 9680   0.906   0.757   2.579  0.4757  0.0552  0.2015
 3225TIP3    H1 9681   0.843   0.704   2.530  2.6048 -2.5871  0.0909
 3225TIP3    H2 9682   0.882   0.746   2.671 -1.0173  1.6388  0.0552
 3226TIP3   OH2 9683   4.738   4.968   2.111 -0.5871 -0.3296  0.0007
 3226TIP3    H1 9684   4.750   5.062   2.122 -0.8774 -0.4428  1.3716
 3226TIP3    H2 9685   4.645   4.953   2.130 -0.1285 -1.1380  1.8300
 3227TIP3   OH2 9686   0.536   1.965   4.223  0.5022  0.6165 -0.1160
 3227TIP3    H1 9687   0.595   1.898   4.258  0.2407  0.6663  0.4299
 3227TIP3    H2 9688   0.574   1.989   4.139  2.0889  1.6955  0.8523
 3228TIP3   OH2 9689   4.273   5.562   0.108  0.2331 -0.4376  0.1315
 3228TIP3    H1 9690   4.312   5.635   0.155  0.0426 -0.0220 -0.3505
 3228TIP3    H2 9691   4.315   5.484   0.145 -0.9188 -0.2355  1.9850
 3229TIP3   OH2 9692   5.344   2.476   3.377 -0.5694  0.4341  0.4194
 3229TIP3    H1 9693   5.287   2.504   3.306 -0.8215  0.7488  0.7436
 3229TIP3    H2 9694   5.393   2.402   3.341  1.6491  2.5370 -1.1969
 3230TIP3   OH2 9695   5.779   5.330   4.150  0.1581  0.2237  0.8398
 3230TIP3    H1 9696   5.845   5.381   4.105 -0.5995 -0.4844 -1.1699
 3230TIP3    H2 9697   5.828   5.280   4.216  1.5078  0.2856 -0.0885
 3231TIP3   OH2 9698   2.095   3.487   4.023  0.4695  0.0402 -0.2696
 3231TIP3    H1 9699   2.000   3.473   4.020  0.4146  0.3405  0.0515
 3231TIP3    H2 9700   2.132   3.401   4.003  0.1654  0.5509 -3.6792
 3232TIP3   OH2 9701   4.780   3.631   1.210  0.4713 -0.1116  0.3613
 3232TIP3    H1 9702   4.729   3.556   1.182  0.7184 -0.0909 -0.1651
 3232TIP3    H2 9703   4.749   3.703   1.155 -1.1667  0.6723  2.1786
 3233TIP3   OH2 9704   6.293   4.953   2.004 -0.3150  0.3350 -1.0480
 3233TIP3    H1 9705   6.360   4.922   1.942 -0.0065  2.3621 -1.7859
 3233TIP3    H2 9706   6.327   4.929   2.090  0.1334 -0.8747 -1.5353
 3234TIP3   OH2 9707   6.281   2.345   3.702  0.5175 -0.4003 -0.0985
 3234TIP3    H1 9708   6.293   2.405   3.776  0.1764  0.0543 -0.4080
 3234TIP3    H2 9709   6.222   2.391   3.643 -1.1407 -1.7383  0.4303
 3235TIP3   OH2 9710   2.818   5.623   2.860 -0.1457  0.2214 -0.6945
 3235TIP3    H1 9711   2.774   5.612   2.944  3.4803  0.1729  1.4406
 3235TIP3    H2 9712   2.858   5.710   2.865  1.7329 -0.5456 -1.4616
 3236TIP3   OH2 9713   3.528   2.991   0.584 -0.2226  0.7852 -0.9545
 3236TIP3    H1 9714   3.434   2.999   0.599 -0.6822 -1.1876 -2.3777
 3236TIP3    H2 9715   3.552   2.908   0.624  0.9741  1.3362 -0.4752
 3237TIP3   OH2 9716   1.230   0.425   2.021  0.8293 -0.5804  0.2428
 3237TIP3    H1 9717   1.165   0.363   1.987 -0.2267  0.4127  0.4025
 3237TIP3    H2 9718   1.200   0.510   1.990  0.6527  0.1921  2.3934
 3238TIP3   OH2 9719   2.692   4.686   3.000 -0.2618  0.3379 -0.6732
 3238TIP3    H1 9720   2.782   4.718   3.010 -0.1699  0.2891 -1.3160
 3238TIP3    H2 9721   2.638   4.762   3.021 -0.1372 -0.2152  1.9208
 3239TIP3   OH2 9722   0.149   5.771   0.281 -0.1167 -0.7319 -0.2274
 3239TIP3    H1 9723   0.073   5.755   0.337 -0.5564 -0.0632 -0.6122
 3239TIP3    H2 9724   0.170   5.685   0.244 -1.8250 -0.6626 -1.5077
 3240TIP3   OH2 9725   4.714   1.420   0.959 -0.3454  0.0843 -0.2738
 3240TIP3    H1 9726   4.784   1.390   0.901  0.1398 -0.2731  0.4875
 3240TIP3    H2 9727   4.659   1.474   0.903  0.6364  0.5192 -0.8475
 3241TIP3   OH2 9728   0.659   3.473   1.639  0.6503 -0.0274  0.2580
 3241TIP3    H1 9729   0.670   3.544   1.576  0.3548 -0.2071  0.0026
 3241TIP3    H2 9730   0.711   3.401   1.604  0.5863 -0.0853  0.2802
 3242TIP3   OH2 9731   0.364   0.755   1.112  0.5835  0.9534  0.3073
 3242TIP3    H1 9732   0.368   0.659   1.111 -0.1078  0.8905 -1.3915
 3242TIP3    H2 9733   0.455   0.783   1.113  0.8332  0.2322 -0.5443
 3243TIP3   OH2 9734   4.198   0.558   1.097 -0.1893 -0.3975 -0.3890
 3243TIP3    H1 9735   4.251   0.523   1.025 -1.3250 -1.3091 -0.8283
 3243TIP3    H2 9736   4.180   0.649   1.072 -1.6395 -1.0428 -1.9762
 3244TIP3   OH2 9737   0.368   3.918   0.115 -0.1232  0.1151  0.1849
 3244TIP3    H1 9738   0.426   3.875   0.053  0.5922 -1.1436  1.6407
 3244TIP3    H2 9739   0.427   3.953   0.182 -0.8439  1.7075  0.0450
 3245TIP3   OH2 9740   4.329   3.023   3.585 -0.2451 -0.3832  1.0866
 3245TIP3    H1 9741   4.248   3.073   3.583  0.6293  1.0803  0.4981
 3245TIP3    H2 9742   4.306   2.941   3.629 -2.1678 -0.2689  0.3891
 3246TIP3   OH2 9743   6.148   4.965   5.056 -0.2913 -0.2162 -0.2409
 3246TIP3    H1 9744   6.173   5.007   4.973  2.2558 -3.0076 -1.0343
 3246TIP3    H2 9745   6.119   4.878   5.030  0.8938 -1.2765  1.8046
 3247TIP3   OH2 9746   4.475   2.743   3.435 -0.3232 -0.0929  0.0253
 3247TIP3    H1 9747   4.402   2.773   3.381  0.0299 -1.6766 -1.4151
 3247TIP3    H2 9748   4.541   2.812   3.427 -0.6395  0.1210 -0.8530
 3248TIP3   OH2 9749   3.860   0.423   1.532 -0.8265  0.6067  0.2494
 3248TIP3    H1 9750   3.820   0.504   1.564 -1.8108  1.3138 -2.4268
 3248TIP3    H2 9751   3.910   0.451   1.455 -0.7241 -1.2444 -0.4040
 3249TIP3   OH2 9752   4.250   0.927   3.906  0.1455  0.3020 -0.2315
 3249TIP3    H1 9753   4.225   1.001   3.851 -1.0342 -0.0417 -0.1976
 3249TIP3    H2 9754   4.202   0.941   3.988  0.0293 -0.4083 -0.1697
 3250TIP3   OH2 9755   1.449   3.217   0.771 -0.3800 -0.2278 -0.3760
 3250TIP3    H1 9756   1.487   3.304   0.783  1.5258 -0.7276 -2.1869
 3250TIP3    H2 9757   1.426   3.213   0.678 -1.5856 -1.2394 -0.0586
 3251TIP3   OH2 9758   1.702   3.809   2.187  0.0334  0.4502  0.0415
 3251TIP3    H1 9759   1.668   3.732   2.141  2.8575  0.3884 -2.2683
 3251TIP3    H2 9760   1.726   3.776   2.274 -0.4925 -0.8338 -0.2766
 3252TIP3   OH2 9761   1.876   2.873   0.963  0.5143  0.5979  0.0008
 3252TIP3    H1 9762   1.919   2.954   0.937 -0.4945  1.0665 -0.2398
 3252TIP3    H2 9763   1.855   2.885   1.055 -0.3679  0.9643 -0.2319
 3253TIP3   OH2 9764   3.902   3.893   3.904  0.4365 -0.5372 -0.3760
 3253TIP3    H1 9765   3.844   3.867   3.832  1.0401 -0.7599 -0.8014
 3253TIP3    H2 9766   3.984   3.847   3.885  1.0188  0.4212 -0.2571
 3254TIP3   OH2 9767   2.085   0.309   4.635  0.6749  0.0302 -0.0363
 3254TIP3    H1 9768   2.123   0.387   4.675  0.2328  0.8827 -1.2401
 3254TIP3    H2 9769   2.137   0.237   4.670 -0.2361  0.5947  2.8076
 3255TIP3   OH2 9770   5.639   4.031   5.015  0.1416 -0.4710  0.6849
 3255TIP3    H1 9771   5.670   3.961   4.958  0.7561  0.6392 -0.3837
 3255TIP3    H2 9772   5.561   3.994   5.057  1.2424 -2.2889  1.2458
 3256TIP3   OH2 9773   6.090   1.256   4.416  0.0911  0.1305 -0.7194
 3256TIP3    H1 9774   6.164   1.284   4.363  1.7292 -0.4625  1.1250
 3256TIP3    H2 9775   6.058   1.336   4.458  0.7305  0.1644 -0.2895
 3257TIP3   OH2 9776   5.873   3.904   2.785 -0.3423 -0.2544  0.3531
 3257TIP3    H1 9777   5.917   3.851   2.852 -0.7084 -0.5959  0.3258
 3257TIP3    H2 9778   5.844   3.841   2.719 -1.3192 -0.1036  0.6202
 3258TIP3   OH2 9779   1.119   4.468   0.512 -0.0231  0.3922 -0.3513
 3258TIP3    H1 9780   1.031   4.461   0.548 -0.7123  0.6101 -1.9070
 3258TIP3    H2 9781   1.129   4.390   0.457  0.2503  0.9944 -1.1882
 3259TIP3   OH2 9782   3.659   2.474   3.681 -0.0555  0.5575  0.4187
 3259TIP3    H1 9783   3.600   2.531   3.730 -0.6812  0.8976 -0.6762
 3259TIP3    H2 9784   3.741   2.476   3.730 -0.4862  1.3086  1.1386
 3260TIP3   OH2 9785   2.831   0.092   3.478  0.1115  0.5368  0.2872
 3260TIP3    H1 9786   2.896   0.022   3.473  0.8923  1.3002 -0.6875
 3260TIP3    H2 9787   2.760   0.055   3.530  0.7700 -0.7652  0.3003
 3261TIP3   OH2 9788   3.273   4.103   4.999 -0.2733 -0.6071 -0.5380
 3261TIP3    H1 9789   3.290   4.078   4.908 -0.4180  0.0045 -0.7319
 3261TIP3    H2 9790   3.311   4.031   5.051 -0.6294 -1.2034 -1.0885
 3262TIP3   OH2 9791   0.219   5.201   3.311  0.3058  0.1584 -0.0822
 3262TIP3    H1 9792   0.163   5.159   3.376  0.6458 -0.0769  0.0632
 3262TIP3    H2 9793   0.213   5.145   3.233 -2.4458  1.9756 -1.3382
 3263TIP3   OH2 9794   4.932   5.065   3.317  0.4118 -0.1787  0.1251
 3263TIP3    H1 9795   5.002   4.999   3.319  0.3275 -0.2615  0.3434
 3263TIP3    H2 9796   4.914   5.084   3.409  0.6646  0.3914  0.0594
 3264TIP3   OH2 9797   2.735   2.838   0.400  0.2740  0.6290  0.2233
 3264TIP3    H1 9798   2.779   2.854   0.317 -1.5141 -1.0655 -1.1484
 3264TIP3    H2 9799   2.644   2.866   0.385 -0.0143  0.5915  1.7219
 3265TIP3   OH2 9800   1.887   0.279   1.464  0.0320 -0.0427  0.2244
 3265TIP3    H1 9801   1.834   0.201   1.480  0.1307  0.2708  2.4948
 3265TIP3    H2 9802   1.830   0.352   1.487  0.2936  0.5197 -0.8343
 3266TIP3   OH2 9803   5.635   1.321   1.061 -0.0758  0.1835 -0.0728
 3266TIP3    H1 9804   5.562   1.273   1.100 -0.3311 -1.8718 -2.7082
 3266TIP3    H2 9805   5.713   1.271   1.087 -0.0693 -0.1005 -0.6100
 3267TIP3   OH2 9806   4.057   1.234   1.131  0.0253  0.2560 -0.2504
 3267TIP3    H1 9807   4.153   1.241   1.136  0.3758 -2.8583 -0.5315
 3267TIP3    H2 9808   4.028   1.320   1.102  2.5884  1.7384  1.2137
 3268TIP3   OH2 9809   0.218   3.082   4.563  0.5950  0.0245  0.3501
 3268TIP3    H1 9810   0.124   3.077   4.581  0.7597  1.0564  1.6110
 3268TIP3    H2 9811   0.256   3.116   4.643  2.4439 -3.0193  0.8883
 3269TIP3   OH2 9812   2.322   2.116   4.059  0.3464  0.3358 -0.0566
 3269TIP3    H1 9813   2.353   2.027   4.079 -1.5869 -0.1600  1.0131
 3269TIP3    H2 9814   2.266   2.106   3.983 -1.4779  0.2278  1.2292
 3270TIP3   OH2 9815   0.784   2.587   1.168 -0.0875 -0.2891 -0.2111
 3270TIP3    H1 9816   0.851   2.651   1.142  0.7792 -2.1180 -3.1186
 3270TIP3    H2 9817   0.823   2.541   1.243  0.9732  0.1336 -0.4748
 3271TIP3   OH2 9818   5.864   1.852   2.511  0.6547  0.2963 -1.0589
 3271TIP3    H1 9819   5.862   1.826   2.419  0.3213  0.3948 -1.0829
 3271TIP3    H2 9820   5.904   1.778   2.557  2.1517  0.8311 -1.4598
 3272TIP3   OH2 9821   3.896   0.251   1.763 -0.3341 -0.1680 -0.1914
 3272TIP3    H1 9822   3.848   0.293   1.691 -0.7192 -1.3383 -0.6395
 3272TIP3    H2 9823   3.837   0.181   1.793  1.8525 -3.1116 -2.1766
 3273TIP3   OH2 9824   5.874   3.765   1.040 -0.2977 -0.8820 -0.0640
 3273TIP3    H1 9825   5.942   3.787   0.976  0.0255 -0.9936  0.2333
 3273TIP3    H2 9826   5.923   3.737   1.118 -0.6874 -1.1782  0.0793
 3274TIP3   OH2 9827   3.347   5.605   3.912 -0.7020 -0.1321 -0.3862
 3274TIP3    H1 9828   3.437   5.583   3.935 -1.0396 -0.1721  1.0125
 3274TIP3    H2 9829   3.295   5.571   3.985 -1.8562 -0.1417 -1.1907
 3275TIP3   OH2 9830   6.205   3.565   2.169  0.0693 -0.0165  0.5841
 3275TIP3    H1 9831   6.277   3.579   2.108  0.2742  2.5362  1.3215
 3275TIP3    H2 9832   6.137   3.523   2.116  0.7821  0.8097 -1.0582
 3276TIP3   OH2 9833   2.422   2.160   3.644  0.3360 -0.6249 -0.3621
 3276TIP3    H1 9834   2.483   2.228   3.616  1.5870 -1.0399  1.1760
 3276TIP3    H2 9835   2.352   2.207   3.689  0.3820 -0.2516 -0.6758
 3277TIP3   OH2 9836   2.960   3.879   0.170 -0.0383 -0.0198  0.2401
 3277TIP3    H1 9837   3.015   3.914   0.240 -2.2100  0.4314  1.8094
 3277TIP3    H2 9838   2.941   3.954   0.114 -1.5907  0.5520  1.4789
 3278TIP3   OH2 9839   0.214   4.144   0.354  0.5892 -0.5175 -0.2014
 3278TIP3    H1 9840   0.174   4.058   0.345  0.8041 -0.8806  1.8156
 3278TIP3    H2 9841   0.305   4.132   0.325  0.4488 -0.8164 -0.5174
 3279TIP3   OH2 9842   3.871   0.249   4.370  0.0447  0.1651 -0.4704
 3279TIP3    H1 9843   3.906   0.270   4.456  1.8844 -0.3149 -1.0514
 3279TIP3    H2 9844   3.837   0.160   4.379  3.5823 -1.4351 -1.0305
 3280TIP3   OH2 9845   2.068   1.707   3.586 -0.3448 -0.0331 -0.2746
 3280TIP3    H1 9846   2.036   1.788   3.626 -0.4821 -0.7210  1.0571
 3280TIP3    H2 9847   2.159   1.726   3.564 -0.5361  0.6669 -0.4926
 3281TIP3   OH2 9848   3.708   2.867   4.622 -0.2915 -0.0387 -0.2629
 3281TIP3    H1 9849   3.769   2.820   4.565 -0.5195 -0.4301 -0.1842
 3281TIP3    H2 9850   3.741   2.851   4.710 -0.0336  0.4317 -0.2703
 3282TIP3   OH2 9851   4.061   5.708   3.495 -0.1738 -0.7872  0.1711
 3282TIP3    H1 9852   4.086   5.625   3.455 -0.4024 -0.9003  0.2616
 3282TIP3    H2 9853   4.111   5.774   3.447  0.8209 -1.0590  0.7941
 3283TIP3   OH2 9854   3.625   2.839   5.139 -0.0287 -0.1360  0.5618
 3283TIP3    H1 9855   3.669   2.847   5.223 -1.0283 -1.1012  1.2101
 3283TIP3    H2 9856   3.581   2.754   5.143  1.7276 -1.2646 -1.8290
 3284TIP3   OH2 9857   5.030   0.307   4.333 -0.0839 -0.4917 -0.0953
 3284TIP3    H1 9858   4.958   0.288   4.392 -1.2282  1.2544 -0.8558
 3284TIP3    H2 9859   4.989   0.331   4.250  1.4403 -1.3709 -1.1684
 3285TIP3   OH2 9860   6.146   0.597   0.304 -0.3508 -0.2986  0.0026
 3285TIP3    H1 9861   6.113   0.527   0.247  0.1594 -0.2441 -0.3688
 3285TIP3    H2 9862   6.172   0.667   0.243 -1.3426  0.4361  0.3915
 3286TIP3   OH2 9863   0.869   0.257   2.153  0.8731 -0.3454 -0.0498
 3286TIP3    H1 9864   0.914   0.332   2.192  1.3373 -1.3197  1.3962
 3286TIP3    H2 9865   0.794   0.241   2.211  0.3065 -0.5035 -0.8088
 3287TIP3   OH2 9866   3.033   2.636   4.787  0.1224 -0.6559 -0.0734
 3287TIP3    H1 9867   3.047   2.559   4.731 -0.2480 -1.4581  0.9006
 3287TIP3    H2 9868   3.042   2.710   4.728 -0.6627 -1.4856 -1.2887
 3288TIP3   OH2 9869   3.249   2.565   0.227  0.4733  0.3321 -0.0651
 3288TIP3    H1 9870   3.277   2.656   0.233 -0.0351  0.4484  0.7367
 3288TIP3    H2 9871   3.164   2.569   0.183 -0.1074  0.3694  1.0382
 3289TIP3   OH2 9872   2.380   4.332   1.081 -0.1851  0.2184 -0.4303
 3289TIP3    H1 9873   2.451   4.324   1.145 -0.3100 -0.0433 -0.3231
 3289TIP3    H2 9874   2.385   4.423   1.051 -0.2151  0.3827  0.0568
 3290TIP3   OH2 9875   0.740   2.384   4.661  0.4212  0.3726  0.4986
 3290TIP3    H1 9876   0.700   2.393   4.748  1.5312 -1.0318  1.1990
 3290TIP3    H2 9877   0.811   2.448   4.660  0.6507  0.1247  0.7821
 3291TIP3   OH2 9878   4.092   4.418   4.311 -0.2126  0.0209  0.0410
 3291TIP3    H1 9879   4.030   4.347   4.293  0.1036 -0.1114 -0.5417
 3291TIP3    H2 9880   4.098   4.466   4.229  1.3807 -0.6855 -0.2766
 3292TIP3   OH2 9881   4.107   1.059   2.970 -0.1466  0.2684  0.1510
 3292TIP3    H1 9882   4.033   1.088   3.024 -0.5014 -0.7029  0.2104
 3292TIP3    H2 9883   4.176   1.040   3.034  0.2629  1.4484  0.0756
 3293TIP3   OH2 9884   2.760   0.451   4.560 -0.6043  0.2317 -0.1195
 3293TIP3    H1 9885   2.763   0.538   4.597  0.1707  0.5820 -0.9664
 3293TIP3    H2 9886   2.843   0.441   4.513 -0.3766 -1.2156  0.5168
 3294TIP3   OH2 9887   0.859   0.315   4.392  0.3669  0.2407  0.4900
 3294TIP3    H1 9888   0.914   0.242   4.364  1.5110  1.0581  0.5682
 3294TIP3    H2 9889   0.917   0.391   4.391 -0.9362  1.2589 -0.1131
 3295TIP3   OH2 9890   1.725   4.092   3.866  0.0934 -0.1463  0.3841
 3295TIP3    H1 9891   1.644   4.076   3.915 -0.2755  0.6053  0.0386
 3295TIP3    H2 9892   1.700   4.155   3.799  0.9705  0.0915  0.2719
 3296TIP3   OH2 9893   3.683   3.841   2.044 -0.0744 -0.5110 -0.3567
 3296TIP3    H1 9894   3.666   3.786   2.121 -1.6762 -1.2313 -1.1889
 3296TIP3    H2 9895   3.645   3.926   2.066  0.3189 -0.4185 -0.0042
 3297TIP3   OH2 9896   0.981   3.066   0.679 -0.0962 -0.3764 -0.6159
 3297TIP3    H1 9897   0.917   3.002   0.649 -0.2197  0.2543 -1.7456
 3297TIP3    H2 9898   1.061   3.016   0.694 -0.7688 -1.1363  0.6121
 3298TIP3   OH2 9899   1.079   4.655   3.672 -0.4476 -0.1886 -0.2534
 3298TIP3    H1 9900   1.166   4.673   3.638  0.4685  1.2977  2.5243
 3298TIP3    H2 9901   1.088   4.572   3.718 -0.3865  0.0761  0.2277
 3299TIP3   OH2 9902   1.439   3.534   2.889  0.3650  0.3105 -0.3451
 3299TIP3    H1 9903   1.439   3.602   2.956 -1.1925  0.2478 -0.2356
 3299TIP3    H2 9904   1.393   3.460   2.929  2.9517 -1.2812 -0.0615
 3300TIP3   OH2 9905   6.336   0.093   0.225 -0.1152 -0.1386 -0.0091
 3300TIP3    H1 9906   6.346   0.160   0.157 -1.5088 -0.5020 -0.6082
 3300TIP3    H2 9907   6.261   0.122   0.276  1.8201  0.9609  2.4381
 3301TIP3   OH2 9908   0.225   2.053   0.697 -0.7341  0.0319  0.0717
 3301TIP3    H1 9909   0.238   1.963   0.666 -0.4285 -0.4255  1.4616
 3301TIP3    H2 9910   0.306   2.098   0.672 -0.7894 -0.1383 -0.4237
 3302TIP3   OH2 9911   2.905   4.005   3.864  0.9261 -0.3109 -0.1828
 3302TIP3    H1 9912   2.911   3.994   3.959 -0.3912  1.5050  0.1562
 3302TIP3    H2 9913   2.902   3.915   3.830  0.3200 -1.0036  1.5697
 3303TIP3   OH2 9914   1.671   2.269   0.311  0.0204  0.0606  0.4902
 3303TIP3    H1 9915   1.590   2.280   0.261 -0.6635 -0.2800  1.5001
 3303TIP3    H2 9916   1.698   2.358   0.333 -0.2262  0.1601  0.3951
 3304TIP3   OH2 9917   3.853   0.184   3.625  0.2038 -0.0981 -0.3426
 3304TIP3    H1 9918   3.938   0.141   3.618 -0.2286 -1.2682  1.1038
 3304TIP3    H2 9919   3.855   0.228   3.710 -0.6380 -0.1548 -0.2863
 3305TIP3   OH2 9920   3.482   5.941   4.157 -0.1338  0.2626  0.6521
 3305TIP3    H1 9921   3.546   6.002   4.119 -0.1794  1.1852  1.9809
 3305TIP3    H2 9922   3.535   5.877   4.203  0.0243 -1.9193 -2.2525
 3306TIP3   OH2 9923   2.085   0.235   2.256 -0.0068 -0.2715 -0.4306
 3306TIP3    H1 9924   2.037   0.309   2.294 -1.0598 -1.2388  0.2299
 3306TIP3    H2 9925   2.123   0.190   2.332  0.1798 -0.6986 -0.7705
 3307TIP3   OH2 9926   1.535   1.725   1.626  0.0926  0.2431  0.1429
 3307TIP3    H1 9927   1.451   1.686   1.600 -0.4158  1.0576  0.5208
 3307TIP3    H2 9928   1.570   1.664   1.692  1.4327 -1.8891 -2.3407
 3308TIP3   OH2 9929   5.624   3.588   4.179 -0.3335 -0.0063  0.0193
 3308TIP3    H1 9930   5.707   3.570   4.223  0.3329 -0.2074 -1.2935
 3308TIP3    H2 9931   5.627   3.682   4.162  0.0109 -0.1481 -0.7588
 3309TIP3   OH2 9932   3.815   2.051   4.524  0.0310 -0.0182  0.0616
 3309TIP3    H1 9933   3.907   2.037   4.548 -0.5018 -0.5725  1.9846
 3309TIP3    H2 9934   3.794   2.138   4.559 -0.5451 -0.4960  0.9475
 3310TIP3   OH2 9935   0.703   3.267   1.054  0.0967 -0.3293  0.4431
 3310TIP3    H1 9936   0.679   3.174   1.065 -0.7294 -0.1541  0.2430
 3310TIP3    H2 9937   0.798   3.267   1.046  0.0404 -1.2735 -0.5160
 3311TIP3   OH2 9938   3.914   5.894   0.524  0.1028 -0.1834  0.4019
 3311TIP3    H1 9939   4.004   5.860   0.524 -0.3858 -1.5533  0.3002
 3311TIP3    H2 9940   3.871   5.846   0.454 -0.8610  0.0650  0.8143
 3312TIP3   OH2 9941   5.256   2.098   0.469  0.2910 -0.3843 -0.8454
 3312TIP3    H1 9942   5.228   2.190   0.470 -0.6600 -0.6617 -0.7836
 3312TIP3    H2 9943   5.351   2.102   0.463  0.1833  0.6262 -3.5768
 3313TIP3   OH2 9944   4.639   0.707   4.354  0.3429 -0.1628 -0.3467
 3313TIP3    H1 9945   4.581   0.636   4.382  0.0953 -0.1803 -0.8886
 3313TIP3    H2 9946   4.722   0.690   4.398  0.1022 -0.4479  0.0019
 3314TIP3   OH2 9947   4.383   1.469   1.987 -0.1944  0.2493 -0.1153
 3314TIP3    H1 9948   4.399   1.538   2.051 -2.0826 -0.2150  0.9537
 3314TIP3    H2 9949   4.332   1.512   1.918  0.8483  0.4849 -0.7561
 3315TIP3   OH2 9950   1.021   3.625   1.247  0.8059 -0.0563 -0.1614
 3315TIP3    H1 9951   1.033   3.634   1.153  2.2034 -1.7142 -0.1967
 3315TIP3    H2 9952   0.994   3.711   1.277 -0.4967  0.3013 -2.1877
 3316TIP3   OH2 9953   1.501   1.455   3.275 -0.2630 -0.4543  0.4382
 3316TIP3    H1 9954   1.464   1.371   3.247  1.4679 -0.4522 -2.1315
 3316TIP3    H2 9955   1.452   1.521   3.225  1.1883 -0.2758 -0.8312
 3317TIP3   OH2 9956   4.962   1.714   1.893  0.0553 -0.1204 -0.4058
 3317TIP3    H1 9957   4.916   1.681   1.816 -1.4144 -0.2177  0.4784
 3317TIP3    H2 9958   5.043   1.751   1.859  0.4578 -2.0866 -1.7704
 3318TIP3   OH2 9959   4.828   4.305   4.717  0.1563 -0.8393 -0.0244
 3318TIP3    H1 9960   4.758   4.269   4.662 -0.4114 -0.0551  0.1552
 3318TIP3    H2 9961   4.887   4.348   4.655 -1.0371  0.9659  0.0058
 3319TIP3   OH2 9962   4.189   0.293   0.866  0.1576 -0.3177  0.3176
 3319TIP3    H1 9963   4.096   0.314   0.867  0.1885 -0.0260 -1.1901
 3319TIP3    H2 9964   4.233   0.377   0.854  0.5484 -0.6002 -0.2640
 3320TIP3   OH2 9965   6.138   0.327   5.157 -0.0349 -0.1369 -0.0428
 3320TIP3    H1 9966   6.055   0.322   5.110  1.3029  0.2349 -2.6460
 3320TIP3    H2 9967   6.168   0.236   5.161  0.2833 -0.0770 -0.8246
 3321TIP3   OH2 9968   5.753   3.307   3.523  0.3011  0.6712  0.3171
 3321TIP3    H1 9969   5.785   3.233   3.576  1.1445  0.6674 -0.1645
 3321TIP3    H2 9970   5.745   3.379   3.585  2.3275  0.9713  0.3155
 3322TIP3   OH2 9971   6.320   1.901   3.737  0.3484 -0.1530  0.1050
 3322TIP3    H1 9972   6.264   1.828   3.765 -0.6610  0.4400 -0.3293
 3322TIP3    H2 9973   6.268   1.949   3.674  1.9634 -0.4909 -1.5675
 3323TIP3   OH2 9974   3.465   5.596   0.279 -0.0044  0.0322 -0.0591
 3323TIP3    H1 9975   3.402   5.526   0.263  1.6229 -0.7489 -3.8568
 3323TIP3    H2 9976   3.415   5.677   0.264 -0.3761 -0.5562 -2.3217
 3324TIP3   OH2 9977   0.949   4.219   2.810 -0.4562 -0.4240 -0.1936
 3324TIP3    H1 9978   1.015   4.257   2.870 -1.1017 -0.3677  0.4979
 3324TIP3    H2 9979   0.871   4.272   2.825 -0.4874 -0.0660 -1.4973
 3325TIP3   OH2 9980   3.819   1.973   0.520 -0.0900 -0.5859 -0.5664
 3325TIP3    H1 9981   3.851   1.974   0.610  1.8130  1.6816 -1.1876
 3325TIP3    H2 9982   3.727   1.949   0.528 -0.2805  0.6982  2.1117
 3326TIP3   OH2 9983  -0.004   1.441   4.950 -0.1484  0.2833 -0.5003
 3326TIP3    H1 9984   0.050   1.371   4.915  0.2078 -0.1043  0.7661
 3326TIP3    H2 9985   0.015   1.516   4.894 -0.3320 -0.5392 -1.7012
 3327TIP3   OH2 9986   5.909   5.528   0.611  0.1324 -0.2533  0.1075
 3327TIP3    H1 9987   5.834   5.528   0.551  0.2113  0.6804 -0.0053
 3327TIP3    H2 9988   5.895   5.605   0.665  1.9312  0.9741 -1.0887
 3328TIP3   OH2 9989   1.400   0.759   1.787  0.1451  0.0489 -0.4023
 3328TIP3    H1 9990   1.472   0.759   1.849  0.4148  1.3503 -0.6885
 3328TIP3    H2 9991   1.322   0.772   1.841  0.5270  3.0852 -0.4067
 3329TIP3   OH2 9992   2.949   5.718   4.531 -0.4126 -0.5383 -0.2813
 3329TIP3    H1 9993   2.923   5.646   4.474  0.4720 -1.2280  0.1639
 3329TIP3    H2 9994   2.959   5.678   4.617  1.7368 -0.2700 -0.3427
 3330TIP3   OH2 9995   2.999   0.020   0.181 -0.1015 -0.1430  0.2151
 3330TIP3    H1 9996   3.059   0.094   0.169 -1.1506  0.6669 -0.1859
 3330TIP3    H2 9997   3.000   0.004   0.276  1.7351 -1.0189  0.0948
 3331TIP3   OH2 9998   4.961   5.036   5.203  0.5307 -0.5351  0.0196
 3331TIP3    H1 9999   4.939   4.974   5.134 -0.2199 -1.1244  0.7722
 3331TIP3    H210000   5.001   5.110   5.157  2.2585 -1.9281 -0.8039
 3332TIP3   OH210001   6.084   3.013   4.467 -0.0723  0.6158  1.0913
 3332TIP3    H110002   6.012   3.061   4.509  0.2014  2.0095  0.0399
 3332TIP3    H210003   6.160   3.070   4.479  0.4549  0.0253  0.5668
 3333TIP3   OH210004   0.520   5.264   2.164  0.2907 -0.3586 -0.3516
 3333TIP3    H110005   0.541   5.174   2.189  0.9831  0.0564  0.6266
 3333TIP3    H210006   0.600   5.297   2.122 -0.4526 -0.6506 -2.1160
 3334TIP3   OH210007   6.147   2.132   0.755 -0.1565  0.0995  0.5197
 3334TIP3    H110008   6.170   2.218   0.791  0.5700  0.7919 -1.4425
 3334TIP3    H210009   6.056   2.141   0.727  0.0511  0.3928 -0.0800
 3335TIP3   OH210010   0.161   5.169   4.727  0.1528 -0.1423 -0.1523
 3335TIP3    H110011   0.256   5.173   4.720  0.1351 -1.2432 -1.3663
 3335TIP3    H210012   0.133   5.122   4.649 -1.3808 -0.0306  0.2949
 3336TIP3   OH210013   4.415   5.947   4.407  0.1994  0.1876  0.4727
 3336TIP3    H110014   4.452   6.002   4.476 -0.3638 -1.3808  2.1091
 3336TIP3    H210015   4.321   5.954   4.418  0.1145 -0.8898  0.5730
 3337TIP3   OH210016   4.028   2.632   4.013 -0.2194 -0.2423  0.7204
 3337TIP3    H110017   4.098   2.697   4.018 -2.2819  2.1266  0.8367
 3337TIP3    H210018   4.035   2.583   4.096 -0.7390  2.2715  2.3746
 3338TIP3   OH210019   4.630   1.070   3.179 -0.4413 -0.3647 -0.0031
 3338TIP3    H110020   4.699   1.007   3.200 -1.0897 -0.5009  1.9052
 3338TIP3    H210021   4.676   1.145   3.142  0.5684 -1.0563 -0.1905
 3339TIP3   OH210022   0.515   0.467   4.826 -0.0749  0.1708  0.1109
 3339TIP3    H110023   0.599   0.443   4.787 -0.3053 -0.2397 -0.1433
 3339TIP3    H210024   0.465   0.385   4.827 -0.3793  0.3580  0.4960
 3340TIP3   OH210025   2.986   4.982   2.532 -0.1042 -0.2916 -0.2851
 3340TIP3    H110026   3.075   4.986   2.498 -0.2345 -0.1636 -0.6172
 3340TIP3    H210027   2.997   4.974   2.627  0.2592  0.1742 -0.2829
 3341TIP3   OH210028   0.919   2.960   4.693  0.0696  0.2236  0.3214
 3341TIP3    H110029   1.004   2.938   4.656 -0.0648 -1.6639  1.0644
 3341TIP3    H210030   0.905   3.051   4.666  2.7833  0.9680  1.0438
 3342TIP3   OH210031   1.200   2.618   2.001  0.4796 -0.1358  0.6260
 3342TIP3    H110032   1.290   2.619   1.970  1.1938 -1.6804  2.4222
 3342TIP3    H210033   1.190   2.701   2.048 -0.1662  1.5527 -2.2530
 3343TIP3   OH210034   5.205   4.519   1.000  0.0017  0.2728  0.1587
 3343TIP3    H110035   5.202   4.436   0.954 -1.9106  0.7197 -0.6234
 3343TIP3    H210036   5.294   4.525   1.035  0.9815 -0.8923 -1.9910
 3344TIP3   OH210037   0.830   5.646   2.852  0.5390 -0.2344  0.0872
 3344TIP3    H110038   0.916   5.685   2.835 -0.5305  0.6986 -4.5688
 3344TIP3    H210039   0.769   5.720   2.851 -0.7423 -1.2393 -1.4928
 3345TIP3   OH210040   3.076   1.454   0.400 -0.9248  0.1162  0.1419
 3345TIP3    H110041   3.037   1.496   0.477 -0.6793 -0.0280  0.3457
 3345TIP3    H210042   3.001   1.433   0.343 -1.1946 -0.6214  0.7573
 3346TIP3   OH210043   3.517   2.358   1.758  0.1223 -0.1669  0.5358
 3346TIP3    H110044   3.554   2.378   1.672 -1.9008  3.3068  0.2603
 3346TIP3    H210045   3.424   2.342   1.741  0.0205 -1.1982  1.9018
 3347TIP3   OH210046   0.371   4.921   2.492 -0.1319 -0.5681 -0.4210
 3347TIP3    H110047   0.300   4.934   2.554 -1.9261  0.0049 -2.4656
 3347TIP3    H210048   0.451   4.924   2.545 -1.2119  3.9495  1.4303
 3348TIP3   OH210049   1.496   4.015   2.173 -0.5386  0.0072 -0.3339
 3348TIP3    H110050   1.538   3.931   2.189  0.5892  0.5953 -0.0559
 3348TIP3    H210051   1.493   4.057   2.258 -0.0326  0.7091 -0.6494
 3349TIP3   OH210052   1.264   0.207   3.666 -0.4550 -0.4996 -0.0336
 3349TIP3    H110053   1.292   0.149   3.736 -0.0566 -1.1549 -0.7240
 3349TIP3    H210054   1.319   0.284   3.675  0.5653 -1.1624 -0.4725
 3350TIP3   OH210055   6.179   5.932   0.274  0.7796 -0.1312  0.5405
 3350TIP3    H110056   6.250   5.916   0.212  1.0981  0.6989  0.6769
 3350TIP3    H210057   6.213   5.900   0.358  1.6400  1.6505  0.9287
 3351TIP3   OH210058   2.247   1.771   4.669 -0.0122 -0.4795  0.7000
 3351TIP3    H110059   2.308   1.820   4.615  0.0811 -0.2766  0.9883
 3351TIP3    H210060   2.244   1.684   4.629  0.4035 -0.4674  0.6415
 3352TIP3   OH210061   4.994   5.377   3.951  0.5741 -0.2716  0.0351
 3352TIP3    H110062   5.071   5.351   3.900  1.3953 -0.5835  1.3797
 3352TIP3    H210063   5.023   5.370   4.042 -0.6620  0.8449  0.5317
 3353TIP3   OH210064   4.235   1.984   2.096  0.1019  0.2715 -0.0321
 3353TIP3    H110065   4.254   1.934   2.017 -1.4882  1.2553 -1.0867
 3353TIP3    H210066   4.275   1.933   2.167  2.2832 -0.1928 -1.5141
 3354TIP3   OH210067   1.489   4.984   0.187  0.0353  0.1572 -0.0100
 3354TIP3    H110068   1.563   5.044   0.194 -0.2081  0.3319  1.5289
 3354TIP3    H210069   1.487   4.940   0.272  0.0922 -1.9081 -1.0249
 3355TIP3   OH210070   1.728   1.600   0.847 -0.5033 -0.4498 -0.5565
 3355TIP3    H110071   1.752   1.571   0.759  0.1612  0.8595 -0.8299
 3355TIP3    H210072   1.745   1.694   0.847 -1.4022 -0.2567  0.6793
 3356TIP3   OH210073   1.035   1.464   2.152  0.6139  0.2724  0.2454
 3356TIP3    H110074   0.964   1.430   2.206  1.1392 -1.6817 -0.2181
 3356TIP3    H210075   0.991   1.509   2.080 -0.1355 -0.0124  0.5173
 3357TIP3   OH210076   5.722   5.643   1.817 -0.4130 -0.5372  0.2815
 3357TIP3    H110077   5.683   5.560   1.790 -2.4620  0.3304  0.4052
 3357TIP3    H210078   5.697   5.653   1.909  3.6554 -1.8602  1.7744
 3358TIP3   OH210079   0.993   2.802   4.336 -0.3672 -0.1328  0.2512
 3358TIP3    H110080   0.909   2.845   4.350 -0.7178 -0.3708 -1.0153
 3358TIP3    H210081   1.058   2.868   4.361 -0.8935 -0.2825  2.2010
 3359TIP3   OH210082   2.778   5.293   3.054  0.0190 -0.1076 -0.5797
 3359TIP3    H110083   2.733   5.316   3.134  0.3993  0.3668 -0.4956
 3359TIP3    H210084   2.751   5.359   2.991  0.9309  0.4482 -0.4050
 3360TIP3   OH210085   4.566   2.335   2.220 -0.1899 -0.3909  0.0986
 3360TIP3    H110086   4.550   2.338   2.314  0.7937 -1.8476  0.3420
 3360TIP3    H210087   4.514   2.261   2.189 -1.9449  1.1519 -0.8583
 3361TIP3   OH210088   0.052   5.742   2.537 -0.0075  0.6813 -0.2504
 3361TIP3    H110089   0.075   5.693   2.458 -1.3987 -0.5206  0.0543
 3361TIP3    H210090  -0.039   5.769   2.522  0.1547  1.6206  0.3790
 3362TIP3   OH210091   4.179   4.523   1.347 -0.4240 -0.1305 -0.1761
 3362TIP3    H110092   4.197   4.475   1.428  1.2845 -2.8057 -1.9544
 3362TIP3    H210093   4.085   4.510   1.333 -0.5737 -0.3755  0.9283
 3363TIP3   OH210094   2.919   4.775   4.684  0.6171  0.0821 -0.0526
 3363TIP3    H110095   2.830   4.779   4.649  1.2959  2.2377 -1.7780
 3363TIP3    H210096   2.940   4.681   4.684 -1.7456 -0.5315  0.8089
 3364TIP3   OH210097   1.183   1.149   3.839 -0.0851  0.3210 -0.4942
 3364TIP3    H110098   1.177   1.108   3.926 -0.7901  1.2839 -0.0670
 3364TIP3    H210099   1.270   1.188   3.837 -0.8622  2.3242  0.7664
 3365TIP3   OH210100   3.563   0.634   2.199  0.0178 -0.1801 -0.0559
 3365TIP3    H110101   3.575   0.666   2.289  1.3168  0.3919 -0.4092
 3365TIP3    H210102   3.546   0.713   2.147  1.6609 -0.2105 -0.6818
 3366TIP3   OH210103   3.952   5.894   2.709  0.8292 -0.0115  0.1375
 3366TIP3    H110104   4.046   5.882   2.713  0.7230 -0.9352  0.1294
 3366TIP3    H210105   3.927   5.918   2.798  0.9346 -0.9359  0.4289
 3367TIP3   OH210106   5.644   1.345   3.383 -0.3416 -0.2334 -0.0480
 3367TIP3    H110107   5.590   1.318   3.457  0.6234  1.5712  1.3941
 3367TIP3    H210108   5.633   1.440   3.378  0.4400 -0.1863 -1.5527
 3368TIP3   OH210109   1.371   5.458   4.324 -0.5550  0.3313 -0.9551
 3368TIP3    H110110   1.430   5.409   4.380 -1.9906 -1.4212 -0.8475
 3368TIP3    H210111   1.428   5.507   4.265  0.9631  0.2798  0.4097
 3369TIP3   OH210112   4.674   4.911   0.317 -0.0755 -0.2661 -0.3562
 3369TIP3    H110113   4.755   4.874   0.351  0.1938 -1.0728 -1.7853
 3369TIP3    H210114   4.605   4.872   0.371  0.3728 -1.0215 -0.3253
 3370TIP3   OH210115   0.808   1.108   5.209 -0.0700 -0.6669  0.4102
 3370TIP3    H110116   0.838   1.150   5.128 -0.4302 -0.6340  0.2915
 3370TIP3    H210117   0.714   1.092   5.194 -0.3460  0.1830  1.1743
 3371TIP3   OH210118   4.039   0.524   4.274  0.0441 -0.1549  0.6537
 3371TIP3    H110119   3.966   0.514   4.336 -0.4020 -1.7795 -0.0707
 3371TIP3    H210120   4.073   0.435   4.264  0.9384  0.2968 -0.4402
 3372TIP3   OH210121   4.384   0.287   3.385  0.3770 -0.3092  0.7992
 3372TIP3    H110122   4.427   0.372   3.398  1.0672 -0.3440 -0.9569
 3372TIP3    H210123   4.291   0.305   3.400  0.0401  1.5945 -2.4812
 3373TIP3   OH210124   0.249   5.791   4.734 -0.1478 -0.3107 -0.4296
 3373TIP3    H110125   0.162   5.775   4.770  0.2925  0.0508  0.8637
 3373TIP3    H210126   0.278   5.705   4.703 -0.9276 -0.4480 -0.7963
 3374TIP3   OH210127   1.622   5.410   4.195  0.0056  0.1068 -0.4115
 3374TIP3    H110128   1.672   5.349   4.140 -0.0824 -0.7691  0.4492
 3374TIP3    H210129   1.618   5.367   4.280 -0.7486  0.9665 -0.0004
 3375TIP3   OH210130   2.690   2.830   3.245 -0.4734  0.1657 -0.2568
 3375TIP3    H110131   2.694   2.750   3.192  1.4712 -0.6704  1.0129
 3375TIP3    H210132   2.611   2.820   3.298 -0.8587 -0.3647 -0.9180
 3376TIP3   OH210133   5.231   1.586   1.357  0.0022 -0.2283  0.2486
 3376TIP3    H110134   5.183   1.667   1.342 -0.2648 -0.3446  0.4852
 3376TIP3    H210135   5.323   1.612   1.353 -0.0697 -0.0711 -0.5608
 3377TIP3   OH210136   2.694   1.750   1.827 -0.1099  0.5030  0.1192
 3377TIP3    H110137   2.648   1.792   1.754  0.2338  1.6090  0.5143
 3377TIP3    H210138   2.715   1.822   1.887  0.4193 -0.2558  0.8747
 3378TIP3   OH210139   5.313   5.976   1.791  0.4273  0.7523  0.7802
 3378TIP3    H110140   5.307   5.911   1.862  0.8122  0.4942  0.5752
 3378TIP3    H210141   5.406   5.979   1.769  0.2744  0.6157  0.0872
 3379TIP3   OH210142   5.436   5.897   3.210  0.2154 -0.6488  0.3816
 3379TIP3    H110143   5.370   5.956   3.174  0.4596 -0.3808  0.3637
 3379TIP3    H210144   5.479   5.859   3.133  0.6943 -0.1250  0.3855
 3380TIP3   OH210145   4.967   3.853   3.811  0.3314 -0.1306  0.4441
 3380TIP3    H110146   4.982   3.795   3.885  2.0371  1.0366  1.0751
 3380TIP3    H210147   5.043   3.839   3.754  0.1968  0.6728  0.0522
 3381TIP3   OH210148   1.725   2.894   0.086  0.2045 -0.2820 -0.0098
 3381TIP3    H110149   1.809   2.895   0.133  0.8255 -1.5934 -1.0363
 3381TIP3    H210150   1.663   2.858   0.150  0.1390  1.6694  1.1171
 3382TIP3   OH210151   4.278   4.822   4.407 -0.2093  0.3977  0.1734
 3382TIP3    H110152   4.292   4.902   4.355 -1.6267  0.6974  0.2097
 3382TIP3    H210153   4.292   4.849   4.497  1.7797 -0.0101  0.0284
 3383TIP3   OH210154   0.844   0.074   0.518  0.1153  0.4905  0.6135
 3383TIP3    H110155   0.876   0.051   0.431  1.7236  1.9169  0.7716
 3383TIP3    H210156   0.750   0.056   0.514  0.3376 -0.5956 -1.0113
 3384TIP3   OH210157   1.560   3.905   0.893  0.1948 -0.3596 -0.1938
 3384TIP3    H110158   1.496   3.970   0.921  0.4142  0.4582 -1.4998
 3384TIP3    H210159   1.620   3.897   0.968  0.5214  1.4178 -0.2130
 3385TIP3   OH210160   5.042   5.172   0.739 -0.3014 -0.1274 -0.0871
 3385TIP3    H110161   5.108   5.133   0.683  0.1477  0.2729  0.1531
 3385TIP3    H210162   4.997   5.236   0.683 -0.4742 -0.3872 -0.2454
 3386TIP3   OH210163   6.199   3.317   4.614 -0.1580 -0.1332 -0.0329
 3386TIP3    H110164   6.235   3.286   4.531 -1.1073  0.0888 -0.5364
 3386TIP3    H210165   6.207   3.242   4.673 -0.8627 -0.7837 -0.7535
 3387TIP3   OH210166   0.784   5.933   4.780  0.3480 -0.0097  0.9030
 3387TIP3    H110167   0.879   5.927   4.781  0.6807  3.3365 -0.1552
 3387TIP3    H210168   0.764   6.023   4.807 -2.3950 -0.0057 -0.7221
 3388TIP3   OH210169   5.450   0.266   1.785 -0.2528  0.0049 -0.1374
 3388TIP3    H110170   5.364   0.307   1.797 -1.0013 -1.1322 -1.3104
 3388TIP3    H210171   5.455   0.248   1.691  1.1046 -0.3247 -0.0243
 3389TIP3   OH210172   1.037   1.776   3.540  0.3449  0.6838  0.3838
 3389TIP3    H110173   1.110   1.825   3.577  0.7809  0.3799 -0.0650
 3389TIP3    H210174   1.067   1.685   3.538 -0.7126  0.2463  1.8756
 3390TIP3   OH210175   2.005   4.100   3.821  0.0951 -0.1953  0.2778
 3390TIP3    H110176   2.016   4.193   3.801 -0.2693 -0.1605  0.2383
 3390TIP3    H210177   1.914   4.091   3.849  0.9445  0.0397  3.5447
 3391TIP3   OH210178   6.077   0.170   3.206  0.6458  0.4739  0.1962
 3391TIP3    H110179   5.983   0.176   3.191  0.7206  0.4625 -0.2959
 3391TIP3    H210180   6.116   0.210   3.128  1.0805 -1.7369 -0.8054
 3392TIP3   OH210181   1.191   0.364   0.763 -0.1827  0.2542  0.0234
 3392TIP3    H110182   1.270   0.413   0.784 -0.4025  0.4877  0.3277
 3392TIP3    H210183   1.180   0.374   0.668  0.5516 -0.3923 -0.1365
 3393TIP3   OH210184   5.383   5.271   1.235 -0.2962  0.2063  0.0249
 3393TIP3    H110185   5.300   5.253   1.280 -0.3014 -1.3515 -0.5525
 3393TIP3    H210186   5.372   5.232   1.148  1.1779 -0.3685  0.0697
 3394TIP3   OH210187   3.405   5.477   2.817  0.5473  0.2783  0.7487
 3394TIP3    H110188   3.362   5.393   2.833  1.8617 -0.8513 -1.1972
 3394TIP3    H210189   3.336   5.532   2.779  0.0773 -0.4986  0.4536
 3395TIP3   OH210190   5.296   2.692   2.436 -0.3064 -0.0458  0.4226
 3395TIP3    H110191   5.327   2.604   2.455  1.0804  0.5270  0.9269
 3395TIP3    H210192   5.237   2.714   2.508  1.0097  0.2281  1.4335
 3396TIP3   OH210193   4.097   0.903   4.133  0.2245  0.4537 -0.3406
 3396TIP3    H110194   4.063   0.824   4.090 -1.1024  0.8743 -0.1113
 3396TIP3    H210195   4.019   0.957   4.148  1.0845  1.7123 -0.2886
 3397TIP3   OH210196   1.569   4.232   0.261  0.3198  0.7880  0.5868
 3397TIP3    H110197   1.489   4.233   0.315 -0.2344 -2.0598 -0.0130
 3397TIP3    H210198   1.537   4.248   0.172  0.7363  1.7745  0.6065
 3398TIP3   OH210199   3.224   1.450   0.044  0.0189 -0.0030 -0.3783
 3398TIP3    H110200   3.136   1.413   0.040  0.1791 -0.5891  1.0125
 3398TIP3    H210201   3.282   1.375   0.044  0.4955  0.3593 -0.5888
 3399TIP3   OH210202   2.287   2.701   0.631 -0.2886  0.2355  0.3144
 3399TIP3    H110203   2.203   2.665   0.601 -0.4907 -0.3777  1.5312
 3399TIP3    H210204   2.286   2.791   0.601 -0.6652 -0.2048 -1.0770
 3400TIP3   OH210205   4.225   2.785   3.289  0.2390 -0.5852 -0.6383
 3400TIP3    H110206   4.223   2.868   3.243 -2.5402  0.5361  1.2177
 3400TIP3    H210207   4.251   2.721   3.223  2.3842  1.6846 -2.1394
 3401TIP3   OH210208   3.280   0.402   0.503 -0.2957  0.6161  0.0370
 3401TIP3    H110209   3.303   0.404   0.596  0.1010  0.5576 -0.0575
 3401TIP3    H210210   3.270   0.309   0.483 -0.9194  0.6592  0.1511
 3402TIP3   OH210211   6.212   2.809   3.730  0.1225  1.0591  0.1309
 3402TIP3    H110212   6.200   2.864   3.806 -0.8403  0.6116  0.3247
 3402TIP3    H210213   6.126   2.806   3.688  0.0073 -0.6391  0.3845
 3403TIP3   OH210214   5.688   1.452   4.413  0.5328 -0.7782 -0.2683
 3403TIP3    H110215   5.668   1.536   4.373 -1.3349 -0.8143  0.4958
 3403TIP3    H210216   5.782   1.457   4.434  0.8958  0.3245 -1.9863
 3404TIP3   OH210217   4.832   5.874   5.119  0.2595  0.2815  0.0649
 3404TIP3    H110218   4.811   5.794   5.071  1.9451  0.1258 -0.4741
 3404TIP3    H210219   4.776   5.941   5.078 -0.5067 -0.4271 -0.0811
 3405TIP3   OH210220   2.192   0.508   3.077  0.3265  0.1489  0.2234
 3405TIP3    H110221   2.156   0.476   3.160  0.2048 -2.6068 -0.7719
 3405TIP3    H210222   2.285   0.487   3.082  1.4348  4.3820  1.4994
 3406TIP3   OH210223   3.288   5.221   2.877 -0.0010 -0.0167 -0.3071
 3406TIP3    H110224   3.324   5.194   2.793 -1.8071  0.6010 -1.3209
 3406TIP3    H210225   3.313   5.150   2.937 -1.1925 -1.9861 -2.0024
 3407TIP3   OH210226   3.765   2.316   3.021  0.1146 -0.4813 -0.2461
 3407TIP3    H110227   3.748   2.272   3.104  0.5904  0.5239  0.4117
 3407TIP3    H210228   3.840   2.270   2.984 -0.6314 -1.4829 -0.5485
 3408TIP3   OH210229   1.490   3.377   3.752 -0.1619 -0.8187 -0.1749
 3408TIP3    H110230   1.466   3.444   3.816 -0.9247 -0.1517 -1.1484
 3408TIP3    H210231   1.472   3.294   3.798 -2.0490 -0.3561  0.0058
 3409TIP3   OH210232   1.004   4.469   0.923 -0.0899  0.2387  0.4403
 3409TIP3    H110233   0.939   4.489   0.991 -1.6351 -1.0124 -0.5771
 3409TIP3    H210234   0.952   4.463   0.843  1.4560  0.0940 -0.5775
 3410TIP3   OH210235   5.094   4.190   1.973 -0.1163 -0.2580  0.3616
 3410TIP3    H110236   5.138   4.204   1.889  0.4073 -0.2306  0.6377
 3410TIP3    H210237   5.113   4.268   2.024  0.1433 -0.5696  0.7516
 3411TIP3   OH210238   5.348   0.123   0.327  0.1131 -0.1696  0.5371
 3411TIP3    H110239   5.289   0.145   0.254 -0.2055 -2.1754  0.1277
 3411TIP3    H210240   5.292   0.124   0.404  0.0610  0.1959  0.4977
 3412TIP3   OH210241   5.354   3.566   4.088 -0.1513 -0.8020  0.4888
 3412TIP3    H110242   5.336   3.488   4.034  3.1408 -2.0599  0.9977
 3412TIP3    H210243   5.449   3.574   4.088 -0.3204  2.6149  1.4289
 3413TIP3   OH210244   0.297   2.683   4.380 -0.0169  0.1590 -0.3884
 3413TIP3    H110245   0.256   2.757   4.336 -2.2665 -0.4212  0.5751
 3413TIP3    H210246   0.359   2.723   4.442 -0.9734  1.2379 -0.0953
 3414TIP3   OH210247   5.660   4.928   1.849  0.2110  0.2615  0.0930
 3414TIP3    H110248   5.577   4.963   1.881 -0.3480  0.0114 -1.0457
 3414TIP3    H210249   5.668   4.961   1.759  0.1442 -1.6737 -0.6805
 3415TIP3   OH210250   1.138   3.534   2.395 -0.0167 -0.1047 -0.4256
 3415TIP3    H110251   1.230   3.527   2.372  0.4281 -0.3947  1.2969
 3415TIP3    H210252   1.126   3.626   2.419 -0.0999 -0.1283 -0.3752
 3416TIP3   OH210253   5.599   1.168   2.760  0.0331  0.0146 -0.7625
 3416TIP3    H110254   5.589   1.079   2.793  0.9275  0.4070  0.6687
 3416TIP3    H210255   5.669   1.163   2.695 -0.3739 -0.4313 -1.1717
 3417TIP3   OH210256   6.113   5.907   4.735 -0.3759  0.2500 -0.3303
 3417TIP3    H110257   6.059   5.895   4.813  1.9706 -0.9397  1.2244
 3417TIP3    H210258   6.074   5.982   4.690 -2.8231 -0.0767  1.0564
 3418TIP3   OH210259   0.872   0.987   3.020 -0.4154  0.0540 -0.0464
 3418TIP3    H110260   0.895   1.068   3.067  0.1622  0.2822 -0.7192
 3418TIP3    H210261   0.810   0.943   3.079 -1.0956  1.1985  0.1311
 3419TIP3   OH210262   4.621   0.554   0.814 -0.5599  0.2943 -0.4444
 3419TIP3    H110263   4.626   0.650   0.822 -0.3326  0.1190  2.2161
 3419TIP3    H210264   4.688   0.533   0.749 -1.1572  1.9716 -1.6889
 3420TIP3   OH210265   4.442   4.578   1.304  0.2058 -0.1097 -0.0643
 3420TIP3    H110266   4.357   4.549   1.272 -0.0462 -0.3626  0.8081
 3420TIP3    H210267   4.428   4.596   1.397  1.5145 -1.8860  0.5383
 3421TIP3   OH210268   2.672   4.703   4.593 -0.1358  0.3924 -0.3285
 3421TIP3    H110269   2.601   4.693   4.658 -0.9631  1.0091 -1.1106
 3421TIP3    H210270   2.663   4.627   4.536 -0.0460  0.3737 -0.3177
 3422TIP3   OH210271   0.967   2.108   0.949 -0.7044 -0.2101 -0.3511
 3422TIP3    H110272   0.993   2.073   0.863  0.2864 -0.2701 -0.0364
 3422TIP3    H210273   0.873   2.121   0.941 -0.6799 -0.5081 -1.3503
 3423TIP3   OH210274   3.780   2.593   1.872  0.1907 -0.4174 -0.6760
 3423TIP3    H110275   3.870   2.617   1.852  0.0958  0.5738 -0.0171
 3423TIP3    H210276   3.781   2.498   1.881  0.9558 -0.5227 -1.6603
 3424TIP3   OH210277   1.439   3.701   1.603  0.0630 -0.2773 -0.2686
 3424TIP3    H110278   1.358   3.726   1.648 -0.1971 -0.0822 -0.8202
 3424TIP3    H210279   1.409   3.671   1.517  0.6997  1.8186 -1.2980
 3425TIP3   OH210280   5.224   1.948   1.575 -1.0170 -0.0197  0.2548
 3425TIP3    H110281   5.304   1.929   1.527 -1.5464  0.5683 -0.9083
 3425TIP3    H210282   5.221   2.043   1.581 -0.7446 -0.0918  1.8707
 3426TIP3   OH210283   5.340   3.306   4.596 -0.2612 -0.0332  0.0374
 3426TIP3    H110284   5.367   3.260   4.675 -0.3798 -0.7681 -0.3492
 3426TIP3    H210285   5.421   3.340   4.558 -0.1742  0.0598  0.3032
 3427TIP3   OH210286   0.135   5.492   3.196 -0.0407 -0.6787 -0.4612
 3427TIP3    H110287   0.197   5.564   3.210  0.0714 -1.1809  2.0500
 3427TIP3    H210288   0.175   5.417   3.240 -1.2631 -1.6899 -1.0029
 3428TIP3   OH210289   1.855   0.977   4.530 -0.3460 -0.3089 -0.3450
 3428TIP3    H110290   1.866   1.039   4.458 -1.3556  1.4518  0.9486
 3428TIP3    H210291   1.877   0.892   4.492 -0.5062  0.6089 -2.6230
 3429TIP3   OH210292   4.839   1.086   4.072  0.6813 -0.6310  0.1121
 3429TIP3    H110293   4.783   1.033   4.128 -0.0053 -0.4132 -0.3619
 3429TIP3    H210294   4.797   1.172   4.070  0.9793 -0.4924 -0.3259
 3430TIP3   OH210295   0.911   3.977   2.914  0.2701 -0.2308 -0.9767
 3430TIP3    H110296   0.840   3.942   2.860 -0.4463 -0.4341  0.0674
 3430TIP3    H210297   0.915   4.070   2.891 -1.5116  0.1769  0.1553
 3431TIP3   OH210298   4.733   4.019   1.601  0.3418 -0.2610 -0.2607
 3431TIP3    H110299   4.696   3.967   1.671  0.3312  0.8376  0.5801
 3431TIP3    H210300   4.822   4.039   1.629  0.3090  0.2633 -0.5096
 3432TIP3   OH210301   4.289   2.707   3.971 -0.5807 -0.4610  0.9237
 3432TIP3    H110302   4.289   2.639   3.904 -0.1016 -0.4749  0.9337
 3432TIP3    H210303   4.323   2.784   3.926  1.5101 -0.9276  1.5869
 3433TIP3   OH210304   4.283   3.405   0.177  0.5282  0.1871  0.1474
 3433TIP3    H110305   4.206   3.359   0.208  0.4862  0.1184 -0.0587
 3433TIP3    H210306   4.256   3.445   0.094  0.5716  0.5605  0.3123
 3434TIP3   OH210307   4.968   1.449   1.992  0.3590  0.3298  0.4932
 3434TIP3    H110308   4.882   1.441   1.951  0.9640  0.5255 -0.8423
 3434TIP3    H210309   4.984   1.543   1.994 -0.7028  0.5666  3.4761
 3435TIP3   OH210310   1.412   2.428   2.559 -0.1220 -0.5739 -0.3083
 3435TIP3    H110311   1.435   2.508   2.606  0.8372  0.5996 -2.6459
 3435TIP3    H210312   1.482   2.366   2.580  0.5311  0.0794 -0.5308
 3436TIP3   OH210313   3.130   2.536   3.387  0.0192 -0.1420 -0.1784
 3436TIP3    H110314   3.119   2.555   3.293 -0.6187  1.2250  0.1425
 3436TIP3    H210315   3.194   2.601   3.416 -0.2849 -0.1276  0.4617
 3437TIP3   OH210316   1.728   3.721   1.490 -0.3406  1.2248  0.4170
 3437TIP3    H110317   1.770   3.677   1.416  0.8679 -1.6957  2.6516
 3437TIP3    H210318   1.634   3.713   1.473 -0.0928  0.6755 -0.7826
 3438TIP3   OH210319   1.318   1.309   0.019  0.1398  0.5382 -0.0932
 3438TIP3    H110320   1.360   1.223   0.024  1.2484  1.1215  0.9879
 3438TIP3    H210321   1.355   1.359   0.091  0.3244  2.2989 -1.3353
 3439TIP3   OH210322   5.329   3.475   3.735  0.3190 -0.4443 -0.1577
 3439TIP3    H110323   5.354   3.567   3.747 -0.3535 -0.2136 -0.4751
 3439TIP3    H210324   5.270   3.456   3.808 -0.3833 -0.3033 -0.6770
 3440TIP3   OH210325   1.245   4.407   4.836 -0.1496 -0.4448  0.0352
 3440TIP3    H110326   1.181   4.417   4.765 -1.6182 -2.7436  0.9090
 3440TIP3    H210327   1.220   4.473   4.900  0.7483  1.1735 -1.2208
 3441TIP3   OH210328   2.769   4.130   1.395  0.6001  0.0198 -0.1835
 3441TIP3    H110329   2.782   4.216   1.435  1.6820  0.4906 -1.4792
 3441TIP3    H210330   2.853   4.110   1.353 -0.2186 -0.8195 -1.5077
 3442TIP3   OH210331   6.286   5.958   2.166 -0.3238  0.2673  0.5261
 3442TIP3    H110332   6.295   6.051   2.187  0.5486  0.2164  0.4214
 3442TIP3    H210333   6.338   5.946   2.086 -1.2341 -0.1208 -0.0176
 3443TIP3   OH210334   1.681   1.224   3.387  0.0681  0.1183  0.4131
 3443TIP3    H110335   1.650   1.312   3.364 -1.7814 -0.4644  0.4950
 3443TIP3    H210336   1.600   1.174   3.402  1.1028 -1.3864  1.1488
 3444TIP3   OH210337   3.375   1.392   0.992  0.0024  0.3858 -0.3558
 3444TIP3    H110338   3.424   1.345   1.060 -0.0239  0.1985 -0.4662
 3444TIP3    H210339   3.300   1.337   0.973  0.1696  0.2904 -0.7527
 3445TIP3   OH210340   4.699   3.318   2.414  0.8583 -0.2405 -0.0534
 3445TIP3    H110341   4.622   3.358   2.454  0.8665 -2.1476  2.0811
 3445TIP3    H210342   4.665   3.238   2.373  1.5058 -0.4902 -0.1126
 3446TIP3   OH210343   4.259   5.840   3.768 -1.0583 -0.7047  0.5468
 3446TIP3    H110344   4.300   5.771   3.716 -1.3385  0.1821 -0.8966
 3446TIP3    H210345   4.171   5.807   3.786 -1.4173 -0.4735 -0.6992
 3447TIP3   OH210346   5.152   0.726   3.021 -0.3612 -0.7657 -0.0674
 3447TIP3    H110347   5.133   0.636   3.045  0.1712 -1.7339 -2.8331
 3447TIP3    H210348   5.077   0.752   2.967  0.3909 -0.2948 -0.9229
 3448TIP3   OH210349   2.335   1.361   2.163 -0.0542  0.2609  0.3293
 3448TIP3    H110350   2.265   1.306   2.128 -0.0821  0.1710  0.5213
 3448TIP3    H210351   2.396   1.372   2.090 -1.0807  1.7094 -0.3400
 3449TIP3   OH210352   3.722   5.158   1.660  0.6271  0.2480 -0.2203
 3449TIP3    H110353   3.734   5.081   1.715  2.1774 -0.4569 -1.4752
 3449TIP3    H210354   3.683   5.124   1.579 -0.3820  1.0654 -0.0958
 3450TIP3   OH210355   0.833   4.565   1.918  0.1908  0.1839  0.1421
 3450TIP3    H110356   0.797   4.530   2.000 -0.9772 -0.8749 -0.7797
 3450TIP3    H210357   0.902   4.503   1.894  1.4066  1.1862  0.9419
 3451TIP3   OH210358   3.405   4.632   4.388 -0.1535  0.3383  0.0660
 3451TIP3    H110359   3.346   4.657   4.317 -0.3263 -1.3260 -0.4131
 3451TIP3    H210360   3.363   4.556   4.428  0.0854  1.0748  1.7909
 3452TIP3   OH210361   4.024   4.121   0.678  0.3220  0.7073 -0.1242
 3452TIP3    H110362   4.089   4.051   0.689 -0.6597 -0.3342 -0.7012
 3452TIP3    H210363   3.986   4.106   0.592  0.7460  2.5612 -0.6748
 3453TIP3   OH210364   3.070   3.699   1.073  0.4245  0.3276  0.0590
 3453TIP3    H110365   3.115   3.671   0.993  0.1834  0.6871 -0.2022
 3453TIP3    H210366   3.129   3.672   1.144  1.8401  2.2086 -0.3310
 3454TIP3   OH210367   3.188   5.817   2.905  0.1795  0.1979  0.4362
 3454TIP3    H110368   3.222   5.855   2.986  2.1073  0.2498 -0.3396
 3454TIP3    H210369   3.251   5.845   2.838 -1.2415 -0.0354 -1.0390
 3455TIP3   OH210370   1.335   0.037   1.680 -0.0077  0.8506 -0.0875
 3455TIP3    H110371   1.371   0.125   1.667 -1.9845  1.3380 -3.6145
 3455TIP3    H210372   1.394  -0.020   1.630 -0.4952  0.6769 -0.4687
 3456TIP3   OH210373   5.414   4.367   1.204 -0.0193  0.1915 -0.1739
 3456TIP3    H110374   5.364   4.412   1.273 -0.6823 -1.7487  0.6744
 3456TIP3    H210375   5.432   4.436   1.140 -1.2622  1.5989  0.8982
 3457TIP3   OH210376   2.484   5.148   4.116  0.7338  0.4821  0.8454
 3457TIP3    H110377   2.440   5.233   4.108 -0.4102 -0.0288  1.4545
 3457TIP3    H210378   2.531   5.154   4.199  0.7792  0.5728  0.8142
 3458TIP3   OH210379   2.348   2.395   1.231 -0.2469  0.4758  0.4942
 3458TIP3    H110380   2.425   2.413   1.285  1.3797 -2.8651 -0.4573
 3458TIP3    H210381   2.383   2.364   1.148 -2.6595  0.4644 -0.6054
 3459TIP3   OH210382   3.299   5.021   4.773  0.1331  0.1004 -0.0650
 3459TIP3    H110383   3.204   5.009   4.767  0.0797  0.8646 -1.2585
 3459TIP3    H210384   3.336   4.950   4.720  0.1116  0.8871 -1.1969
 3460TIP3   OH210385   3.837   3.214   0.747  0.4164 -0.2164  0.1122
 3460TIP3    H110386   3.803   3.250   0.665  2.3532 -1.7474 -1.4662
 3460TIP3    H210387   3.909   3.272   0.770 -0.3409  0.4122  0.9753
 3461TIP3   OH210388   1.667   0.323   0.440  0.1633  0.2996 -0.2055
 3461TIP3    H110389   1.686   0.245   0.389 -0.7811 -0.1332  0.0883
 3461TIP3    H210390   1.637   0.387   0.375  0.9119  0.4314 -0.4404
 3462TIP3   OH210391   5.011   2.281   1.420  0.5547  0.1463  0.4295
 3462TIP3    H110392   5.035   2.286   1.327 -0.6890 -1.4686 -0.0243
 3462TIP3    H210393   5.087   2.241   1.462  0.2477 -1.3288 -0.3345
 3463TIP3   OH210394   1.588   2.300   0.611  0.3539  0.2054 -0.2867
 3463TIP3    H110395   1.571   2.226   0.669  0.5774 -0.5634 -1.1872
 3463TIP3    H210396   1.683   2.308   0.610  0.4715 -0.9192 -1.9005
 3464TIP3   OH210397   0.939   2.704   4.871 -0.0338  0.3036 -0.6463
 3464TIP3    H110398   1.027   2.685   4.839  0.1544 -0.1863  0.1270
 3464TIP3    H210399   0.916   2.788   4.831  0.5493  0.1569 -1.3120
 3465TIP3   OH210400   6.293   3.183   4.363  0.9968  0.0218  0.4670
 3465TIP3    H110401   6.298   3.112   4.299  0.0329  1.3990 -1.2309
 3465TIP3    H210402   6.347   3.252   4.325 -1.5579  1.7965 -0.2119
 3466TIP3   OH210403   3.903   2.647   3.350 -0.3143 -0.2134  0.1307
 3466TIP3    H110404   3.834   2.713   3.348 -0.0268  0.0863 -0.0147
 3466TIP3    H210405   3.919   2.627   3.257  0.9555  0.9505  0.0627
 3467TIP3   OH210406   1.309   5.852   1.184 -0.1489 -0.1802 -0.1706
 3467TIP3    H110407   1.231   5.892   1.145  1.2270  2.6368 -0.2513
 3467TIP3    H210408   1.302   5.873   1.278 -0.8306 -2.4232  0.3561
 3468TIP3   OH210409   1.029   3.748   0.392 -0.1274  0.1361 -0.1530
 3468TIP3    H110410   1.059   3.682   0.455  1.0724 -0.0229 -0.8755
 3468TIP3    H210411   0.938   3.764   0.417  0.3960  0.3173  1.8258
 3469TIP3   OH210412   5.767   2.010   3.580  0.2919 -0.5612 -0.0958
 3469TIP3    H110413   5.815   1.938   3.540 -1.1280 -1.2844 -0.5629
 3469TIP3    H210414   5.682   1.973   3.603 -0.7655  1.1291 -1.0217
 3470TIP3   OH210415   3.577   3.396   2.441  0.0827  0.2358 -0.2536
 3470TIP3    H110416   3.654   3.451   2.426 -0.6700  0.7343 -2.6475
 3470TIP3    H210417   3.508   3.436   2.390 -0.9101 -2.0731 -0.8699
 3471TIP3   OH210418   6.122   1.752   1.853 -0.5288 -0.5648 -0.5315
 3471TIP3    H110419   6.157   1.718   1.771 -0.5129  0.7965 -1.1086
 3471TIP3    H210420   6.069   1.828   1.828 -1.1406 -0.5725  0.6471
 3472TIP3   OH210421   2.818   4.504   2.846 -0.0339 -0.5587  0.4012
 3472TIP3    H110422   2.903   4.544   2.862  0.1486 -1.5933  2.2624
 3472TIP3    H210423   2.756   4.561   2.893 -0.4167  0.2027 -0.9611
 3473TIP3   OH210424   0.991   3.503   2.110  0.0203 -0.0904  0.1573
 3473TIP3    H110425   1.085   3.500   2.124  0.1312  0.2835 -0.4528
 3473TIP3    H210426   0.954   3.452   2.182  0.6264  0.5673  0.9510
 3474TIP3   OH210427   2.760   3.344   0.105 -0.5759 -0.0681 -0.0129
 3474TIP3    H110428   2.755   3.300   0.189 -1.4708  0.3927  0.1829
 3474TIP3    H210429   2.696   3.415   0.110 -1.6976 -0.8823 -1.5823
 3475TIP3   OH210430   2.370   3.559   1.033 -0.4698  0.3476 -0.1687
 3475TIP3    H110431   2.417   3.628   1.080  3.3736 -0.6268 -2.1698
 3475TIP3    H210432   2.344   3.600   0.951 -0.4918  0.0738 -0.2971
 3476TIP3   OH210433   2.615   3.230   4.200  0.1347 -0.1516 -0.1808
 3476TIP3    H110434   2.636   3.194   4.115  1.1815 -0.6126  0.2568
 3476TIP3    H210435   2.523   3.207   4.214  0.5445 -1.9678 -0.2590
 3477TIP3   OH210436   5.448   5.021   4.147 -0.3216 -0.6573 -0.6080
 3477TIP3    H110437   5.528   4.969   4.158 -1.0279 -1.4629  0.9847
 3477TIP3    H210438   5.383   4.978   4.203 -1.0157  1.7588  0.5808
 3478TIP3   OH210439   2.999   5.799   1.376  0.5687 -0.2449 -0.5262
 3478TIP3    H110440   2.910   5.821   1.402  0.1449 -0.7717 -1.5116
 3478TIP3    H210441   3.032   5.878   1.334  1.6815  1.0671  2.4759
 3479TIP3   OH210442   2.982   0.402   3.395 -1.5131 -0.4847 -0.3744
 3479TIP3    H110443   2.920   0.466   3.429  0.4949  1.1334  0.4304
 3479TIP3    H210444   2.978   0.413   3.300 -2.5725 -0.5699 -0.3563
 3480TIP3   OH210445   0.139   3.225   1.166  0.5279  0.1519 -0.1519
 3480TIP3    H110446   0.106   3.140   1.197  0.5152  0.4440  0.6760
 3480TIP3    H210447   0.194   3.256   1.239 -0.5275  1.4669  0.1205
 3481TIP3   OH210448   4.525   3.509   1.193 -0.4655  0.1013 -0.5939
 3481TIP3    H110449   4.506   3.602   1.206  1.9596  0.5154  0.6042
 3481TIP3    H210450   4.477   3.464   1.263  0.3131  0.7628  0.4047
 3482TIP3   OH210451   5.835   1.827   4.542  0.1074  0.1778 -0.0406
 3482TIP3    H110452   5.863   1.740   4.571 -1.0618 -0.1856  0.0470
 3482TIP3    H210453   5.915   1.869   4.512  0.3839 -1.7679 -2.2830
 3483TIP3   OH210454   4.036   3.052   3.427  0.4702  0.4611  0.6322
 3483TIP3    H110455   4.077   2.973   3.393 -0.9552  0.1235 -0.3836
 3483TIP3    H210456   4.044   3.116   3.356 -0.8607  0.3400  0.3502
 3484TIP3   OH210457   5.502   4.646   2.108 -0.0158  0.5057  0.2067
 3484TIP3    H110458   5.516   4.723   2.164  1.6784 -0.6736  1.4704
 3484TIP3    H210459   5.530   4.572   2.161 -2.3652 -1.1233 -0.6825
 3485TIP3   OH210460   4.157   3.155   3.790  0.6001 -0.2771  0.0033
 3485TIP3    H110461   4.242   3.131   3.828  1.2626  0.2354 -1.1164
 3485TIP3    H210462   4.124   3.224   3.848  0.8505 -0.6242  0.5627
 3486TIP3   OH210463   4.593   5.886   2.117  0.1523  0.0372 -0.4153
 3486TIP3    H110464   4.659   5.877   2.048 -0.9932 -0.8567 -1.4386
 3486TIP3    H210465   4.608   5.973   2.154  1.6674 -0.0137 -0.8502
 3487TIP3   OH210466   1.927   1.130   1.267 -0.2850  0.5725  0.4475
 3487TIP3    H110467   1.959   1.065   1.205 -2.4237  1.4291 -1.7581
 3487TIP3    H210468   1.836   1.104   1.283 -0.3178  1.4364  1.7699
 3488TIP3   OH210469   3.014   2.896   3.116 -0.7277  0.5042 -0.1781
 3488TIP3    H110470   3.018   2.992   3.123  1.1460  0.4951 -0.5643
 3488TIP3    H210471   2.986   2.880   3.026 -1.0041  0.6941 -0.1268
 3489TIP3   OH210472   1.953   4.696   2.261 -0.1002  0.4191  0.2426
 3489TIP3    H110473   1.869   4.672   2.223  0.6744 -1.7169 -0.2274
 3489TIP3    H210474   2.016   4.639   2.217  1.5665  1.7516  0.8084
 3490TIP3   OH210475   4.772   4.178   4.128  0.4676  0.0291  0.8661
 3490TIP3    H110476   4.783   4.171   4.033 -1.8166  0.7126  0.4835
 3490TIP3    H210477   4.741   4.267   4.142  0.8733 -0.0350  2.2857
 3491TIP3   OH210478   2.638   0.803   3.273  0.3139  0.4883  0.3737
 3491TIP3    H110479   2.708   0.799   3.338  1.2094  0.4210 -0.5734
 3491TIP3    H210480   2.566   0.753   3.312  1.3174 -0.7220  0.7314
 3492TIP3   OH210481   0.259   2.108   1.912  0.1371 -0.5060  0.0413
 3492TIP3    H110482   0.311   2.032   1.940  3.2012  0.4426 -2.4754
 3492TIP3    H210483   0.307   2.183   1.946 -2.1054  0.4483  1.3164
 3493TIP3   OH210484   4.875   1.495   1.268  0.5754  0.4105 -0.2581
 3493TIP3    H110485   4.844   1.405   1.256  1.3230  0.0457  0.4638
 3493TIP3    H210486   4.932   1.491   1.345  0.0991  1.6331  0.1896
 3494TIP3   OH210487   4.649   0.454   1.538 -0.1022 -0.4739  0.1550
 3494TIP3    H110488   4.633   0.491   1.451 -1.2039  0.6927  0.8116
 3494TIP3    H210489   4.617   0.364   1.533  0.7674 -0.7394 -0.9182
 3495TIP3   OH210490   2.459   0.433   3.076  0.1155 -0.0750  0.5813
 3495TIP3    H110491   2.456   0.361   3.013 -0.4036 -0.0356  0.5512
 3495TIP3    H210492   2.535   0.485   3.050 -0.3517  0.1931 -0.3012
 3496TIP3   OH210493   2.620   3.037   1.693  0.6194  0.2438  0.0558
 3496TIP3    H110494   2.550   3.102   1.681  1.4913  1.1271 -0.3503
 3496TIP3    H210495   2.684   3.058   1.625  2.4770  1.0813  1.9543
 3497TIP3   OH210496   5.667   3.854   3.727  0.3668 -0.1544  0.5814
 3497TIP3    H110497   5.737   3.825   3.786  0.9105 -1.0767 -0.4887
 3497TIP3    H210498   5.692   3.942   3.701  1.4366 -0.6782 -0.2211
 3498TIP3   OH210499   5.375   0.802   4.826  0.1555  0.1226 -0.6802
 3498TIP3    H110500   5.344   0.766   4.742  1.3124 -0.2228 -0.9830
 3498TIP3    H210501   5.421   0.882   4.802 -0.3264  0.5300 -0.2609
 3499TIP3   OH210502   0.144   2.986   1.341 -0.1015  0.4533 -0.0749
 3499TIP3    H110503   0.191   3.012   1.420  1.3700 -1.2198 -0.3639
 3499TIP3    H210504   0.078   2.924   1.371 -1.5270  2.0045  0.1803
 3500TIP3   OH210505   2.067   3.114   1.626  0.7890  0.3872 -0.0805
 3500TIP3    H110506   1.982   3.079   1.654  0.4925  0.8532 -0.3716
 3500TIP3    H210507   2.053   3.137   1.534  1.1958  0.5866 -0.0926
 3501TIP3   OH210508   3.625   1.297   0.209 -0.1281  0.1111 -0.4510
 3501TIP3    H110509   3.597   1.234   0.275  0.5497 -2.4208 -2.4567
 3501TIP3    H210510   3.592   1.381   0.241  0.3054 -0.9337  3.1488
 3502TIP3   OH210511   4.017   2.137   2.103 -0.3607 -0.3382 -0.1355
 3502TIP3    H110512   4.091   2.077   2.114 -2.0710 -2.3709  0.8749
 3502TIP3    H210513   3.959   2.093   2.041 -1.9644 -0.1073  1.1235
 3503TIP3   OH210514   1.932   0.504   0.177 -0.0009  0.7446  0.6690
 3503TIP3    H110515   1.925   0.584   0.125  0.1727  0.6965  0.5729
 3503TIP3    H210516   1.905   0.530   0.265 -2.2738  0.3917  0.1507
 3504TIP3   OH210517   0.871   2.709   2.080 -0.0963  0.3210 -0.1436
 3504TIP3    H110518   0.895   2.617   2.065 -1.6279  0.0233 -0.9033
 3504TIP3    H210519   0.955   2.753   2.094  0.6151 -1.4410  1.8016
 3505TIP3   OH210520   4.858   5.565   2.128  0.3736  0.0437 -0.1948
 3505TIP3    H110521   4.928   5.502   2.112 -0.8299 -2.1556  2.4817
 3505TIP3    H210522   4.822   5.582   2.041  1.1533 -2.5220 -1.1213
 3506TIP3   OH210523   5.060   1.057   1.814 -0.7675 -0.2700  0.3183
 3506TIP3    H110524   5.012   0.974   1.804 -1.0243  0.0701 -1.5597
 3506TIP3    H210525   5.017   1.100   1.888 -2.1916 -0.7906 -0.1585
 3507TIP3   OH210526   2.311   0.347   4.183 -0.7710 -0.3094 -0.5060
 3507TIP3    H110527   2.303   0.439   4.208  5.4716  0.4284  0.3017
 3507TIP3    H210528   2.298   0.299   4.265  0.8521  0.3824  0.1868
 3508TIP3   OH210529   2.007   5.520   1.134 -0.0857  0.7464  0.0607
 3508TIP3    H110530   1.934   5.568   1.096 -0.7503 -0.0791  0.2669
 3508TIP3    H210531   2.053   5.585   1.188 -0.0552  1.5239 -0.8809
 3509TIP3   OH210532   3.214   3.860   4.161 -0.6834 -0.2138 -0.3188
 3509TIP3    H110533   3.242   3.826   4.246  1.5478  0.0677 -0.8739
 3509TIP3    H210534   3.295   3.869   4.111 -1.5252  2.7566 -1.3544
 3510TIP3   OH210535   5.047   3.738   1.204  1.1181 -0.7154  0.1691
 3510TIP3    H110536   4.952   3.727   1.196  1.0458 -0.6768  0.9119
 3510TIP3    H210537   5.057   3.813   1.262  1.6176  0.4750 -1.3941
 3511TIP3   OH210538   5.099   3.426   0.992  0.0100  0.4704  0.3254
 3511TIP3    H110539   5.113   3.402   0.901  1.1788  0.4237  0.5144
 3511TIP3    H210540   5.119   3.520   0.995  3.9163 -0.2595  1.2863
 3512TIP3   OH210541   6.078   5.031   2.493 -0.3754  0.2475 -0.1815
 3512TIP3    H110542   6.039   5.065   2.574 -0.0961  0.0381  0.0424
 3512TIP3    H210543   6.083   5.107   2.435 -0.6438  0.3844 -0.0288
 3513TIP3   OH210544   0.219   2.194   0.033  0.0381 -0.0991 -0.6567
 3513TIP3    H110545   0.138   2.237   0.063 -0.1903  0.2941 -1.8010
 3513TIP3    H210546   0.240   2.131   0.103 -0.7268  0.4621  0.1018
 3514TIP3   OH210547   2.809   5.571   2.061 -0.4369 -0.2477 -0.6170
 3514TIP3    H110548   2.729   5.519   2.065 -0.1705 -0.6680 -0.7482
 3514TIP3    H210549   2.835   5.568   1.969 -1.5888  1.9004 -1.0770
 3515TIP3   OH210550   1.733   1.773   3.939  0.5230 -0.4491  0.2438
 3515TIP3    H110551   1.786   1.695   3.923  0.4552 -0.5339  0.4239
 3515TIP3    H210552   1.783   1.823   4.004 -0.4037 -1.3441  1.6895
 3516TIP3   OH210553   5.728   1.854   0.770  0.2593  0.0275  0.3495
 3516TIP3    H110554   5.721   1.832   0.863 -0.0172 -0.3876  0.2339
 3516TIP3    H210555   5.690   1.779   0.725 -2.2993  1.4032 -0.0015
 3517TIP3   OH210556   1.438   5.003   0.497  0.6128  0.1439  0.0524
 3517TIP3    H110557   1.515   4.968   0.541  0.7163 -0.2186 -0.4021
 3517TIP3    H210558   1.369   5.003   0.563  1.1697  1.1071  0.6530
 3518TIP3   OH210559   6.199   0.715   4.474 -0.5656 -0.1509  0.1205
 3518TIP3    H110560   6.133   0.646   4.465  1.1593 -1.7234 -1.2584
 3518TIP3    H210561   6.263   0.697   4.405  1.7832  0.7411  1.9242
 3519TIP3   OH210562   0.973   1.751   5.067  0.1135  0.1768 -0.1204
 3519TIP3    H110563   0.968   1.759   5.163 -1.8722 -0.6559 -0.0973
 3519TIP3    H210564   0.975   1.656   5.052  1.3499  0.3115 -0.9080
 3520TIP3   OH210565   3.346   3.413   2.628  0.0684  0.5504  0.3325
 3520TIP3    H110566   3.390   3.488   2.589 -0.3627  1.0957  0.8694
 3520TIP3    H210567   3.369   3.339   2.571 -0.6936  1.3433 -1.0853
 3521TIP3   OH210568   5.518   0.718   2.657 -0.3979  0.1998 -0.3100
 3521TIP3    H110569   5.570   0.638   2.647 -2.4652 -1.0885 -1.3233
 3521TIP3    H210570   5.437   0.689   2.700 -1.6254  1.5557 -1.6019
 3522TIP3   OH210571   0.117   1.224   0.062 -0.4503  0.0091 -0.8502
 3522TIP3    H110572   0.073   1.182   0.136  2.0655  0.0055  0.7692
 3522TIP3    H210573   0.144   1.151   0.006  0.5042 -0.2793 -0.0410
 3523TIP3   OH210574   1.198   2.018   3.773  0.1952  0.2400  0.1659
 3523TIP3    H110575   1.223   2.106   3.799  0.3854  0.1611  0.2548
 3523TIP3    H210576   1.144   2.030   3.694  0.2036  0.4340  0.1900
 3524TIP3   OH210577   5.785   5.171   2.987  0.8641  0.1357 -0.1213
 3524TIP3    H110578   5.808   5.170   2.894  0.4782 -0.2947 -0.2199
 3524TIP3    H210579   5.723   5.098   2.997  1.3942 -0.2275  0.5974
 3525TIP3   OH210580   0.671   2.701   3.770 -0.2056 -0.0145  0.8919
 3525TIP3    H110581   0.673   2.605   3.762 -2.9446 -0.0777  0.0509
 3525TIP3    H210582   0.722   2.732   3.695 -0.6094 -0.8086  0.2680
 3526TIP3   OH210583   2.997   5.387   0.881  0.1756 -0.3125  0.2503
 3526TIP3    H110584   2.973   5.356   0.969 -0.2305 -2.1110 -0.4605
 3526TIP3    H210585   3.014   5.480   0.893 -0.2819 -0.4294  2.1624
 3527TIP3   OH210586   3.139   2.124   1.862  0.1836 -0.4508 -0.3827
 3527TIP3    H110587   3.206   2.132   1.930  0.4221 -3.1660 -0.1855
 3527TIP3    H210588   3.063   2.170   1.897  0.2189 -1.9709  1.8970
 3528TIP3   OH210589   2.626  -0.018   4.226  0.6610  0.2747 -0.4751
 3528TIP3    H110590   2.541  -0.023   4.270  0.1753  0.0873 -1.4287
 3528TIP3    H210591   2.649   0.075   4.230  0.8962  0.1804  0.6711
 3529TIP3   OH210592   4.252   3.963   4.497 -0.2280 -0.0205 -0.2343
 3529TIP3    H110593   4.234   4.050   4.531 -0.1157 -0.4504  0.9471
 3529TIP3    H210594   4.254   3.975   4.402  1.9006  1.6689 -0.0361
 3530TIP3   OH210595   0.672   1.055   0.159  0.4337 -0.2734 -0.0489
 3530TIP3    H110596   0.721   0.975   0.139  0.3009 -0.2376 -0.5323
 3530TIP3    H210597   0.646   1.089   0.073 -0.6027 -0.3920  0.2048
 3531TIP3   OH210598   4.696   3.034   0.899 -0.4727 -0.0382  0.1240
 3531TIP3    H110599   4.774   2.984   0.923 -0.3965 -0.3845 -0.8088
 3531TIP3    H210600   4.724   3.126   0.902  0.0084 -0.1662 -0.3288
 3532TIP3   OH210601   2.762   5.875   1.487  0.1398  0.2849 -0.4590
 3532TIP3    H110602   2.765   5.846   1.577 -0.3951  0.3075 -0.4310
 3532TIP3    H210603   2.724   5.963   1.491 -0.1361  0.1808 -0.7285
 3533TIP3   OH210604   5.890   0.888   3.341  0.7878 -0.2159  0.4134
 3533TIP3    H110605   5.852   0.809   3.301  0.2366  0.0269  0.4574
 3533TIP3    H210606   5.818   0.950   3.346  1.7540  1.2699 -2.0331
 3534TIP3   OH210607   3.487   5.544   4.229 -0.2231  0.2037  0.3144
 3534TIP3    H110608   3.464   5.465   4.277 -2.5019 -0.3342 -1.5023
 3534TIP3    H210609   3.408   5.598   4.233  0.0617  0.7968 -1.5078
 3535TIP3   OH210610   0.002   5.512   4.810  0.3568 -0.0825 -0.0634
 3535TIP3    H110611  -0.027   5.603   4.814 -0.7142 -0.4077 -0.2331
 3535TIP3    H210612   0.087   5.516   4.766 -0.1022  0.7440 -0.9125
 3536TIP3   OH210613   1.558   3.852   4.087 -0.4534 -0.4137  0.4043
 3536TIP3    H110614   1.504   3.854   4.166 -2.4802  0.3394 -0.9217
 3536TIP3    H210615   1.629   3.791   4.108 -0.3127  0.5837  3.1445
 3537TIP3   OH210616   3.331   5.218   4.940 -0.1161  0.2660 -0.4190
 3537TIP3    H110617   3.319   5.159   4.866 -3.6919  0.4254 -0.1450
 3537TIP3    H210618   3.360   5.300   4.900 -0.4738 -0.1024 -1.4825
 3538TIP3   OH210619   0.408   5.291   4.106 -0.5848 -0.3467 -0.1128
 3538TIP3    H110620   0.412   5.328   4.194  1.9804 -0.3292 -0.1739
 3538TIP3    H210621   0.379   5.201   4.118  1.4419 -0.8989  0.9848
 3539TIP3   OH210622   2.679   5.355   4.537  0.2391 -0.6904  0.2240
 3539TIP3    H110623   2.670   5.418   4.465  0.7751  0.3924  1.0599
 3539TIP3    H210624   2.772   5.359   4.560  0.1718 -1.4137  0.6456
 3540TIP3   OH210625   6.224   0.021   3.363 -0.2692 -0.1766  0.3340
 3540TIP3    H110626   6.179   0.084   3.306 -1.1374  0.7032  1.9111
 3540TIP3    H210627   6.252  -0.049   3.304 -1.2755  0.5959 -1.1392
 3541TIP3   OH210628   4.305   1.894   0.286 -0.4496  0.0500  0.0327
 3541TIP3    H110629   4.234   1.853   0.336  0.3515 -2.2779 -0.5859
 3541TIP3    H210630   4.284   1.877   0.195  0.6351 -0.2465 -0.1830
 3542TIP3   OH210631   4.741   5.670   4.918  0.1056 -0.2306  0.1492
 3542TIP3    H110632   4.829   5.642   4.894  0.1375  0.5863 -0.7263
 3542TIP3    H210633   4.684   5.624   4.857  0.0766  0.6906 -0.5405
 3543TIP3   OH210634   6.204   5.471   2.539  0.0880 -0.1374  0.2095
 3543TIP3    H110635   6.140   5.408   2.508 -0.3191  0.7074 -0.7323
 3543TIP3    H210636   6.280   5.460   2.481  0.9019 -1.2606  1.4337
 3544TIP3   OH210637   6.159   2.347   1.463 -0.2532  0.2477 -0.5456
 3544TIP3    H110638   6.191   2.281   1.524 -0.3894  0.9893  0.3384
 3544TIP3    H210639   6.161   2.429   1.512 -0.9276  0.7611 -1.3493
 3545TIP3   OH210640   2.398   3.580   2.023 -0.4347  0.4321 -0.1887
 3545TIP3    H110641   2.402   3.591   1.928 -1.7338  1.8950 -0.0996
 3545TIP3    H210642   2.477   3.623   2.055 -0.3850  0.6201 -0.5533
 3546TIP3   OH210643   1.606   0.380   3.431  0.4952 -0.2100 -0.0138
 3546TIP3    H110644   1.573   0.438   3.362  0.6352 -0.0689  0.0383
 3546TIP3    H210645   1.630   0.299   3.385 -0.5118 -0.5508  0.0336
 3547TIP3   OH210646   0.741   3.154   2.375  0.5883 -0.0157  0.3994
 3547TIP3    H110647   0.700   3.199   2.301  1.2605  1.5752  0.9531
 3547TIP3    H210648   0.676   3.157   2.445  1.1472  1.4698  0.9028
 3548TIP3   OH210649   0.205   0.526   2.761 -0.0844 -0.0914 -0.7624
 3548TIP3    H110650   0.189   0.556   2.850 -0.8195  0.6584 -1.1452
 3548TIP3    H210651   0.288   0.478   2.767 -1.6548 -2.8824  0.9787
 3549TIP3   OH210652   6.171   0.458   1.551  0.0619 -0.0400  0.2632
 3549TIP3    H110653   6.215   0.487   1.631 -0.3108 -1.0037  0.8310
 3549TIP3    H210654   6.241   0.454   1.485  0.1537  1.9791  0.1791
 3550TIP3   OH210655   4.340   1.196   2.039 -0.2048 -0.3893  0.1973
 3550TIP3    H110656   4.415   1.235   2.083  0.2204 -0.8599 -0.0880
 3550TIP3    H210657   4.351   1.220   1.947  1.0047 -2.5242 -0.2930
 3551TIP3   OH210658   2.024   3.261   3.556 -0.3484  0.0642  0.0891
 3551TIP3    H110659   2.090   3.280   3.490  1.0903 -0.9999  1.1671
 3551TIP3    H210660   2.072   3.218   3.627 -2.0156  0.2320  1.3846
 3552TIP3   OH210661   4.772   2.332   3.206  0.0692 -0.4572 -0.0471
 3552TIP3    H110662   4.792   2.365   3.118  2.4355  0.4770  0.7808
 3552TIP3    H210663   4.722   2.252   3.190 -0.5658  0.2863 -2.2088
 3553TIP3   OH210664   2.395   4.549   1.645 -0.1316 -0.1724  0.1632
 3553TIP3    H110665   2.479   4.538   1.600  0.0441  1.8632 -0.1094
 3553TIP3    H210666   2.359   4.630   1.609 -1.2149  0.1364  1.8206
 3554TIP3   OH210667   2.693   2.331   1.625 -0.2577 -0.3820 -0.1309
 3554TIP3    H110668   2.777   2.293   1.598  0.2728  0.2382  0.5812
 3554TIP3    H210669   2.632   2.258   1.622 -0.1160 -0.4806 -2.3764
 3555TIP3   OH210670   2.670   2.365   2.978  0.3877 -0.0651 -0.1876
 3555TIP3    H110671   2.634   2.342   3.063 -2.4307  1.0779 -0.9575
 3555TIP3    H210672   2.629   2.304   2.917  0.1811  0.8932 -1.0361
 3556TIP3   OH210673   6.063   5.125   0.881 -0.2216 -0.0076 -0.1332
 3556TIP3    H110674   6.153   5.130   0.849  0.4218 -0.0662  1.5480
 3556TIP3    H210675   6.009   5.134   0.803  1.2494 -1.7028 -1.4174
 3557TIP3   OH210676   5.891   2.606   3.594  0.0052 -0.6940  0.2429
 3557TIP3    H110677   5.898   2.701   3.595  0.7877 -0.7325 -0.4011
 3557TIP3    H210678   5.809   2.588   3.549  0.2935 -0.3312 -0.4478
 3558TIP3   OH210679   1.226   2.775   0.129  0.8662  0.0114  0.3541
 3558TIP3    H110680   1.146   2.817   0.160  1.2712 -0.4769  2.1852
 3558TIP3    H210681   1.266   2.839   0.070 -1.4648 -0.2439 -1.6779
 3559TIP3   OH210682   3.069   4.674   1.249 -0.5177  0.0520  0.1978
 3559TIP3    H110683   3.026   4.713   1.173 -1.2046 -0.5279  0.2834
 3559TIP3    H210684   3.113   4.748   1.291  0.7633  0.2186 -1.3263
 3560TIP3   OH210685   3.862   1.531   0.608 -0.0457 -0.3540  0.1808
 3560TIP3    H110686   3.884   1.608   0.661  0.5470 -0.8876  0.7297
 3560TIP3    H210687   3.943   1.512   0.560 -0.1153 -0.7804  0.2345
 3561TIP3   OH210688   4.488   1.360   0.718  0.2275  0.1095 -0.6769
 3561TIP3    H110689   4.419   1.309   0.675 -1.3263 -0.2658  2.0219
 3561TIP3    H210690   4.507   1.312   0.799  2.9960  0.7608 -0.8225
 3562TIP3   OH210691   5.794   2.026   2.988  0.2383  0.0868  0.6516
 3562TIP3    H110692   5.740   1.949   3.003  0.7089 -0.9757 -2.3748
 3562TIP3    H210693   5.868   2.016   3.048 -0.5055 -0.9409  1.4260
 3563TIP3   OH210694   4.262   4.238   3.733 -0.2363 -0.3796  0.7938
 3563TIP3    H110695   4.288   4.205   3.819  0.4820 -2.6759 -0.2269
 3563TIP3    H210696   4.167   4.229   3.732 -0.2398 -0.4233  1.3061
 3564TIP3   OH210697   3.752   4.880   4.197 -0.1300  0.3132  0.0057
 3564TIP3    H110698   3.699   4.811   4.239 -1.0137  0.7499 -0.3637
 3564TIP3    H210699   3.840   4.867   4.233 -0.1649 -1.3060 -0.4059
 3565TIP3   OH210700   2.803   5.882   2.558  0.7369  0.5718  0.2246
 3565TIP3    H110701   2.893   5.889   2.526  1.0055 -0.1027  0.8155
 3565TIP3    H210702   2.811   5.865   2.651 -0.0169  0.9820  0.3750
 3566TIP3   OH210703   2.916   1.904   0.260  0.2987 -0.2636 -0.1131
 3566TIP3    H110704   2.924   1.984   0.311  1.6040 -0.8936  0.7286
 3566TIP3    H210705   2.895   1.934   0.172  0.1354  0.9631  0.3214
 3567TIP3   OH210706   2.040   5.233   1.115 -0.2384  0.4620 -0.0777
 3567TIP3    H110707   2.036   5.329   1.107 -1.1055  0.4269 -0.1716
 3567TIP3    H210708   1.950   5.204   1.097  0.0018 -0.3656  0.0294
 3568TIP3   OH210709   5.190   0.903   3.681 -0.4996 -0.2406  0.0894
 3568TIP3    H110710   5.125   0.973   3.685 -0.7942 -0.4994 -0.1403
 3568TIP3    H210711   5.167   0.853   3.602 -1.7075 -1.9581  1.4501
 3569TIP3   OH210712   2.198   5.350   3.478 -0.6953  0.4209 -1.0091
 3569TIP3    H110713   2.293   5.342   3.479 -0.5852  1.5707 -0.5249
 3569TIP3    H210714   2.175   5.376   3.567 -1.7038 -1.9255 -0.5199
 3570TIP3   OH210715   3.117   4.688   0.161  0.2499  0.0926 -0.1207
 3570TIP3    H110716   3.158   4.640   0.232 -0.2342  1.0265  0.8142
 3570TIP3    H210717   3.035   4.642   0.144  0.1226  0.1651  0.2877
 3571TIP3   OH210718   5.861   1.196   4.277 -0.4911  0.1157  0.3562
 3571TIP3    H110719   5.866   1.271   4.218 -0.4053 -0.5306 -0.4651
 3571TIP3    H210720   5.946   1.195   4.321  0.9263 -1.5122 -2.1599
 3572TIP3   OH210721   4.948   4.806   2.813  0.3184 -0.2900  0.6320
 3572TIP3    H110722   4.943   4.874   2.881  0.1179  2.3599 -1.8326
 3572TIP3    H210723   5.041   4.791   2.801  0.3826 -0.1593  0.9499
 3573TIP3   OH210724   0.319   5.204   0.285  0.0165  0.2623 -0.5007
 3573TIP3    H110725   0.378   5.137   0.320  0.8767  1.1848 -0.1445
 3573TIP3    H210726   0.307   5.265   0.357 -2.2398 -0.4388 -0.2201
 3574TIP3   OH210727   0.032   2.949   1.952  0.0982 -0.3042  0.0669
 3574TIP3    H110728  -0.041   3.008   1.972 -0.3413 -0.5997 -0.6496
 3574TIP3    H210729   0.044   2.900   2.033 -0.0848  0.1833  0.3971
 3575TIP3   OH210730   2.364   1.485   3.028  0.4236 -0.1652  0.2235
 3575TIP3    H110731   2.458   1.475   3.044  0.7760  0.4680 -1.2491
 3575TIP3    H210732   2.359   1.542   2.951 -1.0976 -2.4017 -1.4479
 3576TIP3   OH210733   5.628   1.461   5.009 -0.1804 -0.5274 -0.5288
 3576TIP3    H110734   5.542   1.450   4.969  0.6566 -2.1126 -2.0553
 3576TIP3    H210735   5.645   1.555   5.006 -1.6524 -0.2452 -0.6018
 3577TIP3   OH210736   3.450  -0.009   3.749 -0.0515 -0.2513 -0.3856
 3577TIP3    H110737   3.509   0.025   3.681 -0.6230  1.2871 -0.1542
 3577TIP3    H210738   3.479   0.035   3.829  0.5157 -1.9305  0.3698
 3578TIP3   OH210739   4.175   4.947   3.848 -0.0588  0.2253  0.1314
 3578TIP3    H110740   4.164   5.007   3.922  1.0317 -0.6487  1.0458
 3578TIP3    H210741   4.222   4.998   3.782 -0.7886  0.9279  0.1435
 3579TIP3   OH210742   3.537   1.581   0.229  0.1055 -0.3938 -0.4884
 3579TIP3    H110743   3.608   1.631   0.270 -0.2656 -0.2511  0.0033
 3579TIP3    H210744   3.523   1.624   0.145 -0.6763  0.8015  0.2133
 3580TIP3   OH210745   3.439   2.035   1.759  0.6377 -0.6325 -0.3961
 3580TIP3    H110746   3.464   2.126   1.741  2.2166 -1.0590 -0.5270
 3580TIP3    H210747   3.344   2.034   1.749  0.7840  0.5538 -2.4265
 3581TIP3   OH210748   4.574   3.284   2.773 -0.4285 -0.0398 -0.0357
 3581TIP3    H110749   4.502   3.262   2.833 -0.3400  1.8208  0.8361
 3581TIP3    H210750   4.532   3.337   2.705 -0.3818 -1.4849 -1.2341
 3582TIP3   OH210751   2.725   5.352   3.995 -0.1421  0.4805  0.6269
 3582TIP3    H110752   2.726   5.389   3.907 -1.5879  0.9443  0.7765
 3582TIP3    H210753   2.644   5.385   4.034 -0.6711 -1.5226  1.3423
 3583TIP3   OH210754   3.860   4.557   1.281 -0.0837 -0.0480  0.1565
 3583TIP3    H110755   3.856   4.480   1.338 -0.5658 -0.9779 -1.0881
 3583TIP3    H210756   3.785   4.547   1.222  0.2251  1.0464 -0.4438
 3584TIP3   OH210757   1.510   2.145   0.837  0.0758  0.0926 -0.0895
 3584TIP3    H110758   1.424   2.122   0.871  0.9338 -0.6334  1.7100
 3584TIP3    H210759   1.529   2.231   0.873  0.1200  0.2426 -0.4635
 3585TIP3   OH210760   2.066   2.902   4.847  0.0009  0.3800  0.0692
 3585TIP3    H110761   2.106   2.980   4.807 -0.9602  0.2022 -1.3169
 3585TIP3    H210762   2.038   2.931   4.934  0.6316  1.2729 -0.0075
 3586TIP3   OH210763   2.490   1.653   0.592 -0.1468 -0.4435  0.0065
 3586TIP3    H110764   2.397   1.668   0.575 -0.7930 -1.8796  1.8966
 3586TIP3    H210765   2.535   1.703   0.525 -2.2797  0.4424 -0.8538
 3587TIP3   OH210766   2.555   0.791   0.538  0.2759 -0.3696 -0.4885
 3587TIP3    H110767   2.619   0.735   0.495 -1.1606 -1.4561 -1.3143
 3587TIP3    H210768   2.607   0.853   0.589  2.0168  0.0346 -2.6446
 3588TIP3   OH210769   1.031   1.237   0.798 -0.1299  0.0071 -0.4398
 3588TIP3    H110770   0.943   1.259   0.829  0.0748  0.2582 -0.0336
 3588TIP3    H210771   1.082   1.317   0.810  0.3837 -0.3953  0.1746
 3589TIP3   OH210772   0.062   1.122   2.231  0.5383 -0.1743  0.3350
 3589TIP3    H110773  -0.013   1.172   2.198  1.7906  1.8213  0.3206
 3589TIP3    H210774   0.124   1.121   2.159  2.1406  1.7659  1.5838
 3590TIP3   OH210775   0.630   3.768   4.564  0.1739  0.4682  0.2072
 3590TIP3    H110776   0.607   3.738   4.476  0.0702 -0.7231  0.6243
 3590TIP3    H210777   0.594   3.857   4.569 -0.0759  0.4405 -0.8443
 3591TIP3   OH210778   5.212   4.274   1.734 -0.0362  0.0023  0.3285
 3591TIP3    H110779   5.132   4.281   1.681 -0.1418 -0.5721  0.4065
 3591TIP3    H210780   5.282   4.262   1.670 -0.0747  0.0223  0.2828
 3592TIP3   OH210781   5.159   4.553   1.889 -0.0388 -0.1900  0.4427
 3592TIP3    H110782   5.206   4.478   1.852  3.2977  1.2894  1.2763
 3592TIP3    H210783   5.121   4.519   1.970  0.7302 -1.1733  0.4194
 3593TIP3   OH210784   4.608   3.959   0.361 -0.3124  0.2387  0.4715
 3593TIP3    H110785   4.663   4.035   0.341  2.7770 -2.1392 -1.0987
 3593TIP3    H210786   4.560   3.942   0.280  0.5296 -0.5794  0.1283
 3594TIP3   OH210787   0.583   0.729   3.849 -0.0803  0.1096 -0.2965
 3594TIP3    H110788   0.531   0.776   3.784  0.2318  0.7673 -0.0727
 3594TIP3    H210789   0.633   0.797   3.895  0.3875 -0.4344  0.0201
 3595TIP3   OH210790   1.571   1.217   4.614  0.3271 -0.1963 -0.0932
 3595TIP3    H110791   1.635   1.251   4.552  3.7690 -0.3197  2.9959
 3595TIP3    H210792   1.584   1.122   4.612  0.7858 -0.1714  1.0430
 3596TIP3   OH210793   2.133   2.974   2.751 -0.2803  0.0138  0.1270
 3596TIP3    H110794   2.074   2.970   2.676 -2.0775  3.2537  1.1997
 3596TIP3    H210795   2.198   3.040   2.728  0.7487 -0.8568  0.4333
 3597TIP3   OH210796   2.539   4.699   1.124  0.4009  0.4669  0.1206
 3597TIP3    H110797   2.605   4.755   1.165  0.4304  0.4371  0.1143
 3597TIP3    H210798   2.456   4.732   1.157  0.4854 -0.2631  1.0697
 3598TIP3   OH210799   5.557   5.944   1.992  0.0374  0.5345  0.6508
 3598TIP3    H110800   5.610   6.017   2.025 -0.4769  1.3669 -0.3050
 3598TIP3    H210801   5.562   5.953   1.897 -0.6442 -0.2465  0.5373
 3599TIP3   OH210802   6.191   0.382   3.652  0.7865 -0.1014  0.0278
 3599TIP3    H110803   6.163   0.320   3.720  1.5484  1.2192  1.6424
 3599TIP3    H210804   6.116   0.390   3.594 -1.0027  0.7874  2.3007
 3600TIP3   OH210805   1.539   5.287   2.882 -0.4618  0.2670 -0.7718
 3600TIP3    H110806   1.596   5.351   2.839 -0.0497  0.8288  0.5729
 3600TIP3    H210807   1.461   5.337   2.907 -0.4178  0.1014 -0.2925
 3601TIP3   OH210808   6.128   1.231   2.508  0.0321  0.5404  0.0553
 3601TIP3    H110809   6.091   1.309   2.466  0.0677  0.6820  0.2854
 3601TIP3    H210810   6.087   1.157   2.463 -0.0579  0.6944 -0.1121
 3602TIP3   OH210811   6.337   1.714   0.416 -0.2655 -0.3994  0.0848
 3602TIP3    H110812   6.293   1.677   0.492 -0.6950 -0.8561 -0.3815
 3602TIP3    H210813   6.285   1.685   0.341  0.8609 -1.0135 -0.4846
 3603TIP3   OH210814   1.609   1.424   4.809 -0.9882  0.0182  0.7485
 3603TIP3    H110815   1.568   1.353   4.759 -0.2761  0.9419 -1.2723
 3603TIP3    H210816   1.548   1.497   4.800 -0.1685  0.6272 -0.0741
 3604TIP3   OH210817   2.456   3.175   3.755 -0.2665 -0.0497 -0.2202
 3604TIP3    H110818   2.505   3.187   3.674  0.0941 -0.1506 -0.0215
 3604TIP3    H210819   2.447   3.263   3.791 -1.2944  0.1234 -0.8578
 3605TIP3   OH210820   5.567   3.738   2.280 -0.1831  0.2656  0.1405
 3605TIP3    H110821   5.561   3.654   2.325 -0.3478  0.4713  0.5142
 3605TIP3    H210822   5.483   3.746   2.233 -0.3787  0.4431  0.5123
 3606TIP3   OH210823   4.968   3.505   2.618  0.2758  0.0528 -0.3621
 3606TIP3    H110824   4.963   3.551   2.534 -1.7049  1.0708  0.2515
 3606TIP3    H210825   5.031   3.556   2.669 -1.1403  1.5872 -0.0440
 3607TIP3   OH210826   4.453   1.061   2.967  0.1547 -0.6162 -0.5596
 3607TIP3    H110827   4.400   0.984   2.986  2.0123 -1.6952  0.4936
 3607TIP3    H210828   4.524   1.058   3.030  0.1925  2.1005 -0.3622
 3608TIP3   OH210829   4.917   3.001   4.801  0.1992 -0.0647 -0.1914
 3608TIP3    H110830   4.873   2.945   4.738 -0.6402 -0.6963  0.9162
 3608TIP3    H210831   4.906   2.956   4.885  1.0439  0.8819  0.4516
 3609TIP3   OH210832   4.208   5.790   3.204 -0.3972  0.6417  0.6877
 3609TIP3    H110833   4.162   5.706   3.202 -1.2233  1.0733 -1.4878
 3609TIP3    H210834   4.190   5.829   3.118  2.7838  1.5367  0.3171
 3610TIP3   OH210835   1.124   0.361   0.498 -0.5194 -0.5776 -0.3520
 3610TIP3    H110836   1.074   0.365   0.416  0.2105 -0.3126 -0.7906
 3610TIP3    H210837   1.147   0.269   0.507  0.2157 -0.4611 -0.9508
 3611TIP3   OH210838   2.010   3.787   1.200 -0.3846  0.2038 -0.1188
 3611TIP3    H110839   2.071   3.720   1.170  0.2311  0.0828  1.2899
 3611TIP3    H210840   1.950   3.741   1.259 -1.0159  0.5802 -0.4498
 3612TIP3   OH210841   5.922   1.232   1.186  0.3656 -0.0007  0.2880
 3612TIP3    H110842   5.946   1.140   1.174 -0.1689 -0.0424 -0.6349
 3612TIP3    H210843   5.960   1.257   1.270  0.9045 -0.9347  0.3325
 3613TIP3   OH210844   4.340   3.784   0.037 -0.4470  0.4183 -0.1516
 3613TIP3    H110845   4.337   3.752  -0.054 -1.9831 -1.0069  0.3455
 3613TIP3    H210846   4.337   3.704   0.090  2.3946  1.0950  1.2069
 3614TIP3   OH210847   4.478   2.133   0.982 -0.0917  0.3326  0.6121
 3614TIP3    H110848   4.509   2.221   0.962 -2.8731  1.2425 -0.2218
 3614TIP3    H210849   4.538   2.075   0.936 -0.0978  1.9631 -1.6363
 3615TIP3   OH210850   1.524   4.478   4.767  0.3953 -0.3066  0.7259
 3615TIP3    H110851   1.544   4.553   4.824  1.1943  0.6141 -0.7068
 3615TIP3    H210852   1.454   4.431   4.813 -0.0992  1.2914  1.6932
 3616TIP3   OH210853   1.845   0.523   3.522 -0.2887  0.2131 -0.0412
 3616TIP3    H110854   1.813   0.598   3.573  0.6002  1.0795 -0.7113
 3616TIP3    H210855   1.766   0.485   3.484 -0.6988  1.2156 -0.2259
 3617TIP3   OH210856   0.325   0.733   0.061  0.1929  0.0226  0.1749
 3617TIP3    H110857   0.410   0.692   0.080  0.1393  0.1951  0.8164
 3617TIP3    H210858   0.342   0.827   0.067  0.4639  0.1399 -1.9473
 3618TIP3   OH210859   1.916   5.024   3.974 -0.3861  0.5976 -1.0278
 3618TIP3    H110860   1.851   4.977   3.922 -0.7160  1.7124 -1.6635
 3618TIP3    H210861   1.990   5.035   3.915  0.5782 -1.0121 -0.1822
 3619TIP3   OH210862   5.904   2.964   1.135 -0.0684 -0.2794 -0.1718
 3619TIP3    H110863   5.901   3.034   1.200  0.6479 -0.2186 -0.1957
 3619TIP3    H210864   5.856   2.999   1.059  1.4386  0.7247 -0.6923
 3620TIP3   OH210865   5.785   3.454   3.747 -0.1652  0.4027  0.8998
 3620TIP3    H110866   5.863   3.402   3.766 -0.7531 -0.1565  1.8846
 3620TIP3    H210867   5.797   3.535   3.796 -0.5977 -0.0477  1.7546
 3621TIP3   OH210868   4.039   3.094   2.779  0.0464 -0.4892  0.2626
 3621TIP3    H110869   3.978   3.022   2.763 -1.6804  1.1877 -1.1346
 3621TIP3    H210870   3.990   3.154   2.835  2.1754 -1.2088  3.1328
 3622TIP3   OH210871   5.411   3.025   4.295 -0.1855  0.4562  0.0579
 3622TIP3    H110872   5.503   3.043   4.314  0.0488 -1.7962  1.4202
 3622TIP3    H210873   5.411   2.938   4.256 -1.8119 -0.2633  1.5094
 3623TIP3   OH210874   0.008   5.287   4.074  0.2101 -0.2585 -0.1714
 3623TIP3    H110875  -0.032   5.224   4.013  1.1446  0.9448 -2.1392
 3623TIP3    H210876   0.078   5.328   4.023  1.6048  0.2534  2.0168
 3624TIP3   OH210877   2.184   4.121   3.461  0.1419  0.3421  0.0913
 3624TIP3    H110878   2.122   4.078   3.401  0.0807  0.1110  0.3169
 3624TIP3    H210879   2.142   4.114   3.547  0.1050  0.9099  0.1213
 3625TIP3   OH210880   6.043   3.363   2.664 -0.2358 -0.3667 -0.0852
 3625TIP3    H110881   5.979   3.301   2.700  1.4005 -1.7957  0.5307
 3625TIP3    H210882   6.048   3.342   2.571 -0.2253 -0.6801 -0.0145
 3626TIP3   OH210883   2.754   0.467   0.143  0.1221  0.1429  0.1074
 3626TIP3    H110884   2.813   0.516   0.200 -0.1632  1.2400 -0.4878
 3626TIP3    H210885   2.752   0.379   0.179  2.3776 -0.0310 -0.0345
 3627TIP3   OH210886   5.794   1.770   1.035 -0.2375  0.3884  0.3873
 3627TIP3    H110887   5.815   1.855   1.075 -1.7118  0.8952  0.1639
 3627TIP3    H210888   5.699   1.771   1.028 -0.2743 -1.3148  0.3905
 3628TIP3   OH210889   4.545   1.879   3.659 -0.2622  0.4603 -0.0304
 3628TIP3    H110890   4.596   1.802   3.686  1.2280  1.4665  0.1803
 3628TIP3    H210891   4.472   1.883   3.720  0.1688 -0.2681  0.5440
 3629TIP3   OH210892   1.285   0.570   3.523 -0.1053  0.2996 -0.1776
 3629TIP3    H110893   1.319   0.546   3.609  0.5697 -1.0292 -0.7870
 3629TIP3    H210894   1.213   0.509   3.508 -0.6464  0.9526 -0.2955
 3630TIP3   OH210895   4.133   2.954   1.638 -0.2036  0.5217 -0.4022
 3630TIP3    H110896   4.141   3.042   1.600 -0.9336  0.6087 -0.3749
 3630TIP3    H210897   4.114   2.969   1.731 -0.0944  0.3310 -0.3478
 3631TIP3   OH210898   4.051   4.574   4.081  0.0953 -0.0475 -0.0126
 3631TIP3    H110899   4.037   4.658   4.125  1.7815 -1.0034  2.5868
 3631TIP3    H210900   4.132   4.585   4.031  0.0313  0.0258 -0.0995
 3632TIP3   OH210901   2.356   0.053   2.047  0.1221 -0.2894  0.1935
 3632TIP3    H110902   2.342  -0.023   2.103  0.5219 -1.8695 -1.7189
 3632TIP3    H210903   2.294   0.041   1.975  1.7917 -0.1011 -1.3513
 3633TIP3   OH210904   1.438   3.671   0.794  0.3374  0.1864  0.2762
 3633TIP3    H110905   1.412   3.634   0.879 -1.8606 -0.0428 -0.4177
 3633TIP3    H210906   1.483   3.752   0.815  0.1361 -0.0396  1.6687
 3634TIP3   OH210907   2.694   2.282   4.347 -0.7157 -0.3218  0.0173
 3634TIP3    H110908   2.600   2.298   4.338 -0.9123 -0.1824  1.9021
 3634TIP3    H210909   2.723   2.259   4.258 -2.2795  0.8316 -0.8423
 3635TIP3   OH210910   1.626   4.292   4.978 -0.7766  0.0125 -0.1463
 3635TIP3    H110911   1.611   4.197   4.972 -1.6138 -0.0199  1.7867
 3635TIP3    H210912   1.719   4.300   5.000 -1.0353 -0.4915  1.2864
 3636TIP3   OH210913   2.734   2.755   1.158 -0.1377 -0.4895  0.3805
 3636TIP3    H110914   2.780   2.673   1.176  1.1860  0.1252 -0.1009
 3636TIP3    H210915   2.713   2.789   1.245  0.1541 -0.8674  0.6066
 3637TIP3   OH210916   5.799   2.497   2.814 -0.2576  0.3984 -0.2701
 3637TIP3    H110917   5.719   2.546   2.833  0.0295  0.6272  0.3645
 3637TIP3    H210918   5.825   2.526   2.727 -2.0924 -1.3241 -1.4963
 3638TIP3   OH210919   3.686   0.413   3.534  0.2072  0.4423 -0.4966
 3638TIP3    H110920   3.722   0.325   3.530  0.7809  0.6734 -0.4925
 3638TIP3    H210921   3.627   0.412   3.609 -1.2697 -0.4719 -1.6156
 3639TIP3   OH210922   1.265   2.106   0.999 -0.2676 -0.1938  0.4102
 3639TIP3    H110923   1.236   2.095   1.089 -1.4820 -1.0168 -0.0623
 3639TIP3    H210924   1.216   2.041   0.949  1.1743 -0.5049 -0.6927
 3640TIP3   OH210925   3.127   5.887   4.395 -0.3322  0.2220 -0.6692
 3640TIP3    H110926   3.214   5.846   4.392 -0.1099  0.5509  0.6123
 3640TIP3    H210927   3.075   5.828   4.449 -1.1943 -0.4391 -2.1673
 3641TIP3   OH210928   4.719   3.536   4.791  0.0771 -0.0925  0.0925
 3641TIP3    H110929   4.739   3.628   4.772 -0.2228 -0.2681 -1.2035
 3641TIP3    H210930   4.727   3.528   4.886  1.2825  0.9939  0.1080
 3642TIP3   OH210931   4.278   2.555   1.481 -0.3770 -0.3427 -0.1151
 3642TIP3    H110932   4.351   2.590   1.532  0.2673 -1.6323 -0.1359
 3642TIP3    H210933   4.294   2.586   1.392 -0.7265  0.6877  0.1578
 3643TIP3   OH210934   3.093   3.243   3.496 -0.0562  0.1872 -0.3917
 3643TIP3    H110935   3.125   3.326   3.531  3.8355 -0.9658 -0.7226
 3643TIP3    H210936   3.101   3.252   3.401  1.7304 -0.8868 -0.4065
 3644TIP3   OH210937   4.697   1.643   3.704 -0.1173  0.0169 -0.3282
 3644TIP3    H110938   4.665   1.602   3.623 -0.7895  0.8749 -0.5067
 3644TIP3    H210939   4.705   1.570   3.766 -1.4019 -0.3822 -0.5996
 3645TIP3   OH210940   0.544   2.891   0.218  1.1207 -0.0050  0.0206
 3645TIP3    H110941   0.578   2.894   0.129 -0.1497 -0.8410 -0.5198
 3645TIP3    H210942   0.474   2.826   0.215 -0.2128  1.3208  1.1945
 3646TIP3   OH210943   0.402   0.051   1.538 -0.1934 -0.8180 -0.1045
 3646TIP3    H110944   0.426   0.016   1.452 -1.0607 -0.2416 -0.5969
 3646TIP3    H210945   0.415  -0.022   1.599  0.3330 -1.2595 -0.7367
 3647TIP3   OH210946   1.489   5.341   2.462  0.8919 -0.2431  0.1120
 3647TIP3    H110947   1.577   5.378   2.460  0.2059  1.5551  0.7552
 3647TIP3    H210948   1.469   5.320   2.371  1.3595  0.9657 -0.2893
 3648TIP3   OH210949   2.619   4.928   3.171  0.4180  0.0307  0.3887
 3648TIP3    H110950   2.692   4.928   3.233  0.3545  3.3805  0.6367
 3648TIP3    H210951   2.645   4.990   3.103 -1.1233 -0.6948 -0.9398
 3649TIP3   OH210952   4.281   4.801   2.385  0.2707 -0.0554  0.0933
 3649TIP3    H110953   4.277   4.882   2.333  2.5662 -0.1132 -0.2803
 3649TIP3    H210954   4.259   4.829   2.474 -1.6343  0.4326 -0.4862
 3650TIP3   OH210955   5.180   1.445   1.118  0.7405 -1.3145  0.3307
 3650TIP3    H110956   5.103   1.478   1.071  1.2948 -0.9439 -0.3416
 3650TIP3    H210957   5.182   1.497   1.199  1.1762 -0.1786 -0.3780
 3651TIP3   OH210958   1.972   2.362   2.257  0.7229  0.0943  0.0664
 3651TIP3    H110959   2.039   2.348   2.190  0.0040  1.0331 -0.8961
 3651TIP3    H210960   1.997   2.445   2.299 -0.7893  1.4522 -1.5713
 3652TIP3   OH210961   3.453   5.639   3.647  0.5288  0.0110 -0.7424
 3652TIP3    H110962   3.452   5.559   3.593  0.4012 -0.5895  0.1297
 3652TIP3    H210963   3.414   5.612   3.730  0.1930  1.0722 -0.5454
 3653TIP3   OH210964   2.655   2.777   1.691 -0.3369 -0.0601  0.0217
 3653TIP3    H110965   2.712   2.748   1.620  1.1630 -0.2854  1.2544
 3653TIP3    H210966   2.660   2.872   1.689 -2.8829  0.1365 -2.1420
 3654TIP3   OH210967   1.299   5.003   5.147 -0.0241 -0.3281  0.3863
 3654TIP3    H110968   1.303   4.961   5.061  0.3005 -0.9865  0.7111
 3654TIP3    H210969   1.377   5.059   5.150  1.7350 -2.6318  1.3929
 3655TIP3   OH210970   3.253   3.151   2.429  0.8325 -0.3293 -0.1674
 3655TIP3    H110971   3.184   3.110   2.376  1.3366 -0.3340 -0.8171
 3655TIP3    H210972   3.239   3.245   2.418  0.3670 -0.3185  0.4390
 3656TIP3   OH210973   3.205   3.262   0.532  0.5418  0.2776  0.2662
 3656TIP3    H110974   3.155   3.259   0.450  0.5137  0.2349  0.2850
 3656TIP3    H210975   3.286   3.307   0.509  0.7003 -0.0792  0.1280
 3657TIP3   OH210976   2.904   5.940   0.317 -0.4041  0.5262 -0.7408
 3657TIP3    H110977   2.886   5.932   0.224  0.1248  1.0172 -0.8897
 3657TIP3    H210978   2.876   6.029   0.339  0.6067  0.8453 -0.7004
 3658TIP3   OH210979   3.371   2.901   1.816 -0.0707 -0.3035 -0.3226
 3658TIP3    H110980   3.320   2.896   1.735  0.8662  0.1043 -0.9550
 3658TIP3    H210981   3.453   2.854   1.796  0.3116  0.0993  0.2691
 3659TIP3   OH210982   0.058   4.657   5.089 -0.1513  0.4570 -0.3014
 3659TIP3    H110983   0.135   4.621   5.134  0.3717  1.3913 -0.4153
 3659TIP3    H210984   0.073   4.636   4.996 -1.5920 -2.1310 -0.0398
 3660TIP3   OH210985   3.534   1.053   3.311 -0.2981 -0.5154 -0.2748
 3660TIP3    H110986   3.448   1.050   3.354 -0.1599  3.2816  0.6014
 3660TIP3    H210987   3.553   1.146   3.301  4.1676 -1.1154  0.3976
 3661TIP3   OH210988   2.262   5.191   1.470  0.7905 -0.0125 -0.8470
 3661TIP3    H110989   2.278   5.284   1.459 -0.5511  0.3301 -0.0491
 3661TIP3    H210990   2.167   5.182   1.470  0.8838 -1.2813 -0.1946
 3662TIP3   OH210991   2.301   0.146   1.244  0.0937  0.8111 -0.0445
 3662TIP3    H110992   2.214   0.186   1.243 -1.3497 -2.0754 -0.4313
 3662TIP3    H210993   2.309   0.102   1.159  1.9842  1.0283 -0.0338
 3663TIP3   OH210994   3.184   1.082   2.372 -0.5926  0.0020 -0.8449
 3663TIP3    H110995   3.279   1.093   2.373 -0.8569  4.5285  1.5274
 3663TIP3    H210996   3.158   1.112   2.285  0.0480 -0.6259 -1.2702
 3664TIP3   OH210997   5.102   4.948   1.471  0.4077 -0.2840  0.2804
 3664TIP3    H110998   5.051   4.914   1.398  0.6464 -1.2193  0.5252
 3664TIP3    H210999   5.038   4.992   1.527  0.4518  1.7326 -1.1912
 3665TIP3   OH211000   6.227   2.680   1.847  0.3460 -0.1885  0.2692
 3665TIP3    H111001   6.298   2.699   1.908  0.1008  0.7696  0.2706
 3665TIP3    H211002   6.163   2.750   1.862 -0.7556 -1.2162  0.5058
 3666TIP3   OH211003   1.775   3.704   2.692  0.0572  0.4589  0.1287
 3666TIP3    H111004   1.736   3.788   2.715 -0.7159 -0.0758  0.8135
 3666TIP3    H211005   1.763   3.650   2.770  1.5750  0.0592  0.1181
 3667TIP3   OH211006   3.553   1.972   1.084  0.3818 -0.3388  0.1996
 3667TIP3    H111007   3.469   1.955   1.127 -0.0553 -0.2031 -0.5972
 3667TIP3    H211008   3.532   2.029   1.010  0.5427 -3.3430 -2.3590
 3668TIP3   OH211009   4.868   0.364   2.959 -0.5613  0.2360 -0.4907
 3668TIP3    H111010   4.820   0.381   2.878 -1.3791  0.2650 -0.0176
 3668TIP3    H211011   4.808   0.393   3.028  0.0414  0.0232  0.1309
 3669TIP3   OH211012   4.265   2.808   4.411  0.0475  0.4951  0.0371
 3669TIP3    H111013   4.221   2.876   4.462 -0.5719 -0.6002  1.0208
 3669TIP3    H211014   4.331   2.854   4.360  0.0823  1.7425  1.1821
 3670TIP3   OH211015   6.323   2.163   1.619 -0.7948  0.8283  0.2457
 3670TIP3    H111016   6.273   2.153   1.700 -0.4471  1.5336  0.5544
 3670TIP3    H211017   6.403   2.210   1.645 -0.3394  0.4258 -0.3768
 3671TIP3   OH211018   3.913   2.614   5.025  0.2994 -0.1666 -0.1856
 3671TIP3    H111019   3.920   2.660   5.109 -1.2322  2.9959 -1.6461
 3671TIP3    H211020   3.975   2.659   4.968 -0.0906 -1.0129 -1.3159
 3672TIP3   OH211021   5.279   3.903   2.623  0.5833  0.4078  0.1425
 3672TIP3    H111022   5.246   3.904   2.534 -0.5880  0.1336  0.5632
 3672TIP3    H211023   5.374   3.895   2.613  0.4663  0.3535 -1.0676
 3673TIP3   OH211024   1.987   5.553   0.257  0.1037 -0.0662  0.0809
 3673TIP3    H111025   1.972   5.483   0.194 -0.1812  0.0586  0.0060
 3673TIP3    H211026   1.899   5.587   0.276  0.2078  0.0402  0.3780
 3674TIP3   OH211027   0.341   1.028   3.948  0.0005  0.2190 -0.1481
 3674TIP3    H111028   0.420   1.074   3.919 -0.4530  0.0448 -1.7494
 3674TIP3    H211029   0.342   0.945   3.899 -0.3080 -0.5495  1.0880
 3675TIP3   OH211030   1.964   2.340   4.361  0.5430  0.0958  0.3135
 3675TIP3    H111031   1.893   2.349   4.424  0.3052 -0.9531  0.2176
 3675TIP3    H211032   2.037   2.304   4.411  0.9206  0.9018  0.3516
 3676TIP3   OH211033   5.452   1.480   4.171 -0.3853  0.1765  0.1285
 3676TIP3    H111034   5.536   1.518   4.197 -1.0958  1.7766  0.1931
 3676TIP3    H211035   5.411   1.547   4.116 -1.7795 -0.4244  0.3858
 3677TIP3   OH211036   1.780   5.108   1.054 -0.3628 -0.3081 -0.1503
 3677TIP3    H111037   1.783   5.018   1.021  0.8129  0.4497 -2.3576
 3677TIP3    H211038   1.718   5.152   0.996 -1.0369  0.2805  1.0015
 3678TIP3   OH211039   1.904   4.821   0.416  0.9273 -0.1257  0.0958
 3678TIP3    H111040   1.981   4.867   0.448  1.2655 -0.3975 -0.3148
 3678TIP3    H211041   1.939   4.755   0.357  0.2550  0.9905 -1.6041
 3679TIP3   OH211042   3.803   2.312   4.676 -0.3762  0.0585  0.4546
 3679TIP3    H111043   3.817   2.303   4.771 -1.4595 -0.3637  0.5884
 3679TIP3    H211044   3.862   2.383   4.650  0.8862 -0.6753  1.2053
 3680TIP3   OH211045   4.651   1.683   4.862 -0.5713 -0.0802  0.6605
 3680TIP3    H111046   4.715   1.659   4.795  0.1328  1.3727  0.7610
 3680TIP3    H211047   4.644   1.779   4.854 -1.7873 -0.0839  1.4981
 3681TIP3   OH211048   2.304   5.972   2.018 -0.1057  0.0260  0.0104
 3681TIP3    H111049   2.315   5.927   2.102 -0.7198  1.3978  0.8689
 3681TIP3    H211050   2.392   5.979   1.983  0.4380  1.0098  1.4420
 3682TIP3   OH211051   5.170   3.692   0.949  0.0786  0.6055  0.5011
 3682TIP3    H111052   5.141   3.740   1.027 -0.3421  0.0521  0.6930
 3682TIP3    H211053   5.102   3.709   0.884 -0.3303 -0.1310  0.7299
 3683TIP3   OH211054   0.738   0.484   4.111  0.0033  0.0370 -0.4406
 3683TIP3    H111055   0.673   0.418   4.087 -0.4386  0.1913  0.3084
 3683TIP3    H211056   0.790   0.497   4.032  0.1843 -1.3080 -0.5639
 3684TIP3   OH211057   3.049   5.322   3.751  0.4434 -0.0753  0.0211
 3684TIP3    H111058   3.067   5.251   3.814  2.1239 -0.4768 -0.8594
 3684TIP3    H211059   2.962   5.353   3.776  0.2477 -1.4955  1.3376
 3685TIP3   OH211060   3.516   4.195   4.887 -0.1408  0.0190  0.2981
 3685TIP3    H111061   3.534   4.289   4.891  0.4594 -0.0032 -1.4201
 3685TIP3    H211062   3.422   4.188   4.906 -0.1282  0.9197  0.7566
 3686TIP3   OH211063   0.585   0.218   3.583  0.0243  0.0719  0.2512
 3686TIP3    H111064   0.637   0.219   3.664 -0.2982 -0.6391  0.4775
 3686TIP3    H211065   0.523   0.146   3.596  1.1982 -1.2970 -1.4115
 3687TIP3   OH211066   1.090   1.974   2.436 -0.4706  0.4562 -0.0956
 3687TIP3    H111067   1.111   1.887   2.470  3.0024  0.9709 -0.5261
 3687TIP3    H211068   1.033   2.013   2.502 -0.2179 -1.3270  1.2553
 3688TIP3   OH211069   6.076   3.951   3.195 -0.3916 -0.4456  0.4291
 3688TIP3    H111070   6.115   4.026   3.241 -3.3970  0.8829  1.0555
 3688TIP3    H211071   5.988   3.944   3.232 -1.5680 -1.8401 -2.3692
 3689TIP3   OH211072   3.595   0.985   3.865 -0.0662  0.1562  0.1320
 3689TIP3    H111073   3.663   1.039   3.905  0.5098 -0.6101  0.2150
 3689TIP3    H211074   3.620   0.978   3.773 -0.0084 -0.1590  0.1699
 3690TIP3   OH211075   0.789   0.702   4.537  0.3830 -0.2336 -0.2642
 3690TIP3    H111076   0.760   0.706   4.446 -0.4403 -2.6982 -0.1829
 3690TIP3    H211077   0.780   0.609   4.561  0.7316  0.3205  2.2838
 3691TIP3   OH211078   3.111   2.774   2.240 -0.4696  0.0546  0.0096
 3691TIP3    H111079   3.135   2.804   2.152  0.8811 -1.3107 -0.1246
 3691TIP3    H211080   3.116   2.679   2.235 -2.1013 -0.1239  1.1162
 3692TIP3   OH211081   5.169   0.732   2.126  0.5246  0.2241  0.5945
 3692TIP3    H111082   5.228   0.680   2.181  2.2201  0.3948 -0.9838
 3692TIP3    H211083   5.188   0.823   2.148  0.2358  0.2632  0.6884
 3693TIP3   OH211084   0.179   3.147   4.106 -0.1370 -0.1482 -1.0793
 3693TIP3    H111085   0.236   3.117   4.035  0.5599  1.2709 -1.1654
 3693TIP3    H211086   0.091   3.149   4.067  0.0741 -0.3800 -1.5754
 3694TIP3   OH211087   4.763   2.526   1.619 -0.0329 -0.0518 -0.0133
 3694TIP3    H111088   4.749   2.431   1.616 -2.2791  0.2371 -0.8627
 3694TIP3    H211089   4.812   2.546   1.540  0.3880 -0.4899  0.1327
 3695TIP3   OH211090   3.147   5.351   2.626  0.3118 -0.3003  0.0593
 3695TIP3    H111091   3.147   5.416   2.696  0.2342 -0.7922  0.5284
 3695TIP3    H211092   3.188   5.394   2.552 -1.1484  0.8221 -0.1467
 3696TIP3   OH211093   3.959   2.243   1.709  0.9421  0.6214 -0.3541
 3696TIP3    H111094   4.027   2.178   1.730  0.6930  0.1351 -1.0499
 3696TIP3    H211095   3.994   2.291   1.634  0.6193  0.5302 -0.5627
 3697TIP3   OH211096   4.406   3.232   0.388 -0.1164 -0.1017 -0.1540
 3697TIP3    H111097   4.438   3.319   0.411  1.3934 -1.0051  1.3918
 3697TIP3    H211098   4.386   3.237   0.294 -1.3561  2.2457  0.1610
 3698TIP3   OH211099   3.599   1.733   0.882  0.2208  0.2727  0.2264
 3698TIP3    H111100   3.678   1.725   0.829  1.5635  0.1448  2.1253
 3698TIP3    H211101   3.604   1.822   0.918  0.2262 -0.1843  1.4047
 3699TIP3   OH211102   1.009   0.770   4.301 -0.0129 -0.2421 -0.2034
 3699TIP3    H111103   0.960   0.842   4.340  1.5642  0.2684  0.9447
 3699TIP3    H211104   1.010   0.701   4.367  1.4983  0.0966  0.1806
 3700TIP3   OH211105   6.176   1.687   4.605  0.2933  0.4609  0.0487
 3700TIP3    H111106   6.227   1.763   4.578 -1.1145  1.7399  0.8435
 3700TIP3    H211107   6.220   1.655   4.683  1.1497  0.1472 -0.5392
 3701TIP3   OH211108   0.894   5.865   2.123  0.4448 -0.0954 -0.5054
 3701TIP3    H111109   0.954   5.863   2.049  0.1473  0.2182 -0.7615
 3701TIP3    H211110   0.809   5.841   2.086  0.7697 -2.6518  0.2360
 3702TIP3   OH211111   0.973   2.634   3.614  0.0480 -0.4901 -0.2956
 3702TIP3    H111112   0.974   2.717   3.662  2.1152  1.0187 -2.6933
 3702TIP3    H211113   0.910   2.648   3.543 -0.1897 -1.2801 -0.2488
 3703TIP3   OH211114   4.841   3.201   3.307  0.1921 -0.0249 -0.6055
 3703TIP3    H111115   4.893   3.130   3.270  0.4940  0.1957 -0.6083
 3703TIP3    H211116   4.833   3.264   3.236  1.8344  0.9851  0.0418
 3704TIP3   OH211117   2.370   0.293   1.674  0.0572  0.1018 -0.0320
 3704TIP3    H111118   2.278   0.264   1.677 -0.0689  0.4033 -0.6632
 3704TIP3    H211119   2.400   0.265   1.587  0.0643  1.4393 -0.4797
 3705TIP3   OH211120   4.970   5.917   0.815 -0.0575 -0.7363  0.0120
 3705TIP3    H111121   5.010   5.875   0.739  0.4252 -0.2204 -0.0276
 3705TIP3    H211122   4.899   5.971   0.778  0.1607 -0.5049 -0.0707
 3706TIP3   OH211123   6.215   5.080   0.145  0.2128 -0.1452  0.0407
 3706TIP3    H111124   6.127   5.118   0.145  0.3601  0.2020  0.2533
 3706TIP3    H211125   6.205   4.996   0.100 -0.2418 -0.1419  0.1335
 3707TIP3   OH211126   0.224   0.799   1.466 -0.1318 -0.0713  0.4126
 3707TIP3    H111127   0.267   0.714   1.475  1.0954  0.3876 -0.7645
 3707TIP3    H211128   0.170   0.807   1.544 -0.0557 -1.8021  0.6891
 3708TIP3   OH211129   2.602   3.107   2.036  0.5905 -0.8004  0.3053
 3708TIP3    H111130   2.598   3.017   2.004 -0.0468 -0.5558 -0.3268
 3708TIP3    H211131   2.518   3.120   2.082  1.2697 -0.9789  1.6485
 3709TIP3   OH211132   0.543   0.373   1.806 -0.4074  0.0193 -0.3717
 3709TIP3    H111133   0.460   0.325   1.814 -0.0201 -0.5407  0.4929
 3709TIP3    H211134   0.605   0.322   1.859  0.9958 -0.6601 -2.5547
 3710TIP3   OH211135   5.178   5.363   4.470  0.0421  0.2242 -0.5590
 3710TIP3    H111136   5.094   5.369   4.425 -0.9433 -1.7044  0.8950
 3710TIP3    H211137   5.211   5.276   4.447  0.8556  0.3279  0.1799
 3711TIP3   OH211138   4.041   5.538   1.678  0.3836  0.0438 -0.0673
 3711TIP3    H111139   4.001   5.591   1.747  1.1822 -0.6280  0.9597
 3711TIP3    H211140   4.006   5.450   1.692 -0.1019  0.0764 -1.0662
 3712TIP3   OH211141   2.902   2.646   0.643  0.1932  0.0921  0.2723
 3712TIP3    H111142   2.839   2.717   0.634  0.0677  0.3975  2.6748
 3712TIP3    H211143   2.849   2.569   0.663  0.4989  0.3672  2.3885
 3713TIP3   OH211144   4.688   3.802   2.260 -0.3629 -0.3975 -0.6527
 3713TIP3    H111145   4.719   3.711   2.270 -0.4561 -0.4347 -0.7042
 3713TIP3    H211146   4.749   3.853   2.313  0.4687 -0.3413 -1.6368
 3714TIP3   OH211147   1.488   3.354   4.161 -0.2454  0.0795  0.5220
 3714TIP3    H111148   1.486   3.288   4.091 -1.1519  2.0841 -1.4764
 3714TIP3    H211149   1.569   3.402   4.147 -0.1038  0.0816  1.2915
 3715TIP3   OH211150   4.475   5.208   3.157 -0.0933  0.1674 -0.0541
 3715TIP3    H111151   4.518   5.145   3.099 -1.2634 -0.1636 -0.5980
 3715TIP3    H211152   4.507   5.187   3.245  0.5206 -0.3295 -0.3961
 3716TIP3   OH211153   0.467   2.187   1.224 -0.2932 -0.5992 -0.4114
 3716TIP3    H111154   0.374   2.183   1.246 -0.0362  0.6727  1.0784
 3716TIP3    H211155   0.479   2.276   1.189  0.5443 -0.3916  0.3653
 3717TIP3   OH211156   0.425   2.067   4.554 -0.0295 -0.1357  0.2204
 3717TIP3    H111157   0.502   2.093   4.504 -0.0560  2.0566  1.2234
 3717TIP3    H211158   0.460   2.036   4.638 -0.2238  2.9195  1.5443
 3718TIP3   OH211159   1.154   2.521   3.981  0.4335 -0.8375  0.1653
 3718TIP3    H111160   1.176   2.432   3.951  0.3867 -0.9005  0.3136
 3718TIP3    H211161   1.060   2.528   3.967  0.6196 -0.3735 -0.9712
 3719TIP3   OH211162   3.504   2.496   3.238 -0.1972 -0.2102  0.9618
 3719TIP3    H111163   3.451   2.548   3.178  0.5082 -0.3881  0.1641
 3719TIP3    H211164   3.541   2.560   3.298  1.6885  0.4513 -0.7772
 3720TIP3   OH211165   1.510   1.370   5.082  0.2135  0.6025  0.4971
 3720TIP3    H111166   1.424   1.410   5.090 -1.1166 -1.3531 -2.3976
 3720TIP3    H211167   1.536   1.387   4.992 -0.3791 -4.5235 -0.9370
 3721TIP3   OH211168   4.682   5.171   4.043 -0.5223 -0.7672  0.4058
 3721TIP3    H111169   4.674   5.262   4.072  5.3584  0.6674 -1.1832
 3721TIP3    H211170   4.705   5.122   4.122 -3.1839 -0.9319  1.1675
 3722TIP3   OH211171   2.451   4.363   1.363 -0.0848  0.0042 -0.4526
 3722TIP3    H111172   2.505   4.406   1.429 -1.7647  0.1293  0.9257
 3722TIP3    H211173   2.367   4.408   1.369 -0.1420  0.4031 -3.1137
 3723TIP3   OH211174   2.187   3.110   3.740 -0.0678 -0.1321 -0.7024
 3723TIP3    H111175   2.186   3.018   3.767  0.9331 -0.4139 -1.5736
 3723TIP3    H211176   2.278   3.138   3.751 -0.2068  0.5358 -1.1691
 3724TIP3   OH211177   0.630   3.246   4.768  0.1706 -0.1758  0.3141
 3724TIP3    H111178   0.723   3.265   4.762 -0.0585  1.4884  1.4483
 3724TIP3    H211179   0.602   3.234   4.678  0.9904  1.9404 -0.2697
 3725TIP3   OH211180   4.948   1.970   4.752 -0.3099  0.1964 -0.3767
 3725TIP3    H111181   4.985   2.034   4.691  0.7964  0.8760  0.9617
 3725TIP3    H211182   4.986   1.886   4.726  0.9912  0.6501  0.0097
 3726TIP3   OH211183   2.917   3.801   1.630  0.0194  0.0494  0.1077
 3726TIP3    H111184   2.912   3.794   1.534  1.2536  1.6361 -0.1145
 3726TIP3    H211185   2.874   3.884   1.649  1.3505  0.6068  0.7445
 3727TIP3   OH211186   4.032   2.240   3.158  0.2567 -0.3582 -0.5301
 3727TIP3    H111187   3.953   2.238   3.213  0.2751  0.0511 -0.4865
 3727TIP3    H211188   4.099   2.198   3.210 -0.2509 -1.9546 -1.0838
 3728TIP3   OH211189   0.944   1.262   0.360 -0.2192  0.2842 -0.2665
 3728TIP3    H111190   0.906   1.191   0.412 -1.3558  1.4480  0.5786
 3728TIP3    H211191   0.885   1.270   0.285 -1.7734  2.0578  1.0200
 3729TIP3   OH211192   3.073   5.830   1.922 -0.1512 -0.0725  0.1186
 3729TIP3    H111193   3.166   5.852   1.926  0.2587 -1.2634 -1.8294
 3729TIP3    H211194   3.050   5.805   2.011  1.0971  1.2598  0.8617
 3730TIP3   OH211195   5.533   0.385   3.731 -0.3440 -0.7266  0.4359
 3730TIP3    H111196   5.575   0.381   3.817 -0.0581  0.2054  0.3471
 3730TIP3    H211197   5.440   0.391   3.750 -0.2805 -0.5013  0.6860
 3731TIP3   OH211198   3.283   4.014   2.734 -0.2651  0.5792  0.4320
 3731TIP3    H111199   3.205   4.059   2.701 -1.0115 -0.8834  0.0959
 3731TIP3    H211200   3.250   3.930   2.766  1.4069 -0.9587 -1.6038
 3732TIP3   OH211201   0.473   0.317   1.540  0.0534  0.4759  0.1549
 3732TIP3    H111202   0.502   0.327   1.630  0.9051  0.6331 -0.1223
 3732TIP3    H211203   0.430   0.232   1.537  0.5222  0.2248  0.5785
 3733TIP3   OH211204   3.954   5.694   1.274 -0.2038 -0.3914 -0.7430
 3733TIP3    H111205   3.868   5.728   1.300  0.3395  3.6805 -3.2959
 3733TIP3    H211206   4.012   5.717   1.346 -0.5644  0.7336 -0.7915
 3734TIP3   OH211207   3.826   1.169   0.893  0.1899 -0.6119 -0.3468
 3734TIP3    H111208   3.811   1.263   0.907  0.6361 -0.7138  0.8937
 3734TIP3    H211209   3.738   1.131   0.897 -0.1516 -0.1209 -2.1350
 3735TIP3   OH211210   3.201   1.864   2.562  0.4922 -0.1480 -0.1721
 3735TIP3    H111211   3.260   1.806   2.609  0.2738 -0.4386 -0.2499
 3735TIP3    H211212   3.142   1.898   2.630  2.3240  2.1875  0.3788
 3736TIP3   OH211213   5.694   0.835   4.432 -0.0220 -0.4164  0.0283
 3736TIP3    H111214   5.786   0.860   4.430 -0.1064  0.3137  2.4280
 3736TIP3    H211215   5.648   0.916   4.451 -0.8952 -1.2332  1.5373
 3737TIP3   OH211216   0.357   0.316   2.408  0.0912 -0.4369  0.1518
 3737TIP3    H111217   0.315   0.309   2.494 -1.5988  0.6599 -0.5283
 3737TIP3    H211218   0.403   0.400   2.411 -0.1106 -0.3169 -0.0619
 3738TIP3   OH211219   3.972   4.973   1.792 -0.5216  0.2599 -0.5947
 3738TIP3    H111220   3.877   4.962   1.789 -0.4521 -1.2614  0.8181
 3738TIP3    H211221   4.006   4.900   1.739 -0.1571 -1.8610  2.2765
 3739TIP3   OH211222   1.514   2.701   0.337  0.3243  0.3197 -0.6971
 3739TIP3    H111223   1.436   2.730   0.290 -0.5183 -0.8383 -0.0436
 3739TIP3    H211224   1.545   2.780   0.382 -0.3289  0.8468 -1.1556
 3740TIP3   OH211225   6.246   0.024   4.971  0.0220 -0.1470 -0.3232
 3740TIP3    H111226   6.271   0.063   5.055 -0.3261  0.4918 -0.5043
 3740TIP3    H211227   6.226  -0.067   4.991 -0.7153  0.1601  0.4248
 3741TIP3   OH211228   5.357   3.019   4.629 -0.6356 -0.7197 -0.4874
 3741TIP3    H111229   5.448   2.992   4.640 -1.0748 -2.5581 -1.0245
 3741TIP3    H211230   5.315   2.998   4.713 -0.7603 -0.7108 -0.5471
 3742TIP3   OH211231   1.667   2.817   1.834  0.0144  0.7837 -0.4614
 3742TIP3    H111232   1.678   2.830   1.928  0.8645 -0.6551 -0.3284
 3742TIP3    H211233   1.576   2.788   1.825  0.1448  0.1879  0.0330
 3743TIP3   OH211234   3.491   5.215   3.955  0.3993 -0.2847 -0.5184
 3743TIP3    H111235   3.490   5.309   3.934 -2.0104  0.0272  0.6513
 3743TIP3    H211236   3.532   5.210   4.041 -1.6441  0.0756  0.5519
 3744TIP3   OH211237   1.584   5.344   1.000 -0.4067  0.4400 -0.1594
 3744TIP3    H111238   1.531   5.370   0.924  1.0655  1.1919 -0.9787
 3744TIP3    H211239   1.673   5.373   0.978  0.0679  0.6273  1.8406
 3745TIP3   OH211240   6.054   0.209   0.938  0.1376  0.1235  0.0032
 3745TIP3    H111241   5.980   0.238   0.885  1.5426  1.0622 -1.5655
 3745TIP3    H211242   6.059   0.115   0.923 -0.0376  0.2370 -0.8330
 3746TIP3   OH211243   2.914   4.182   1.929 -0.2590  0.2150  0.1831
 3746TIP3    H111244   2.989   4.143   1.975 -0.2655  0.6796  0.6011
 3746TIP3    H211245   2.838   4.136   1.965 -0.3465  1.2134  1.3553
 3747TIP3   OH211246   0.812   2.026   3.636  0.0095  0.6422  0.2982
 3747TIP3    H111247   0.797   2.084   3.561  0.5520  0.3597 -0.0318
 3747TIP3    H211248   0.761   1.947   3.615  1.4569 -0.1006 -0.5677
 3748TIP3   OH211249   1.371   0.833   3.471  0.4388  0.1452 -0.5520
 3748TIP3    H111250   1.285   0.866   3.498  0.5821  0.4171 -0.4231
 3748TIP3    H211251   1.354   0.744   3.440  0.1797  0.0340 -0.1041
 3749TIP3   OH211252   0.063   4.077   4.630  0.2453  0.2696 -0.0032
 3749TIP3    H111253   0.041   3.994   4.672  1.2406 -0.0583 -0.1083
 3749TIP3    H211254   0.104   4.129   4.699 -0.3014  0.6581  0.0419
 3750TIP3   OH211255   4.164   3.012   0.099  0.1374  0.3616 -0.0482
 3750TIP3    H111256   4.177   2.933   0.152  1.6952  0.0055 -0.8998
 3750TIP3    H211257   4.123   2.980   0.018  1.6406  0.2536 -0.7924
 3751TIP3   OH211258   1.613   5.446   1.756  0.1239 -0.2362 -0.0983
 3751TIP3    H111259   1.580   5.358   1.774  0.9866 -0.2975  1.3344
 3751TIP3    H211260   1.623   5.486   1.843  0.8051  0.8777 -0.6709
 3752TIP3   OH211261   1.869   3.513   0.670  0.2954  0.3944  0.4115
 3752TIP3    H111262   1.789   3.553   0.705  0.2163 -0.4348  1.2470
 3752TIP3    H211263   1.839   3.432   0.630  0.7931 -0.3650  1.5134
 3753TIP3   OH211264   6.292   2.745   4.206 -0.1566 -0.1749  0.3262
 3753TIP3    H111265   6.345   2.796   4.266 -0.0531 -1.6344  1.5394
 3753TIP3    H211266   6.355   2.694   4.155 -0.3324 -0.7642  0.6942
 3754TIP3   OH211267   0.273   0.199   0.504  0.2799 -0.2900 -0.3887
 3754TIP3    H111268   0.240   0.186   0.415 -0.3966  1.1796 -0.3820
 3754TIP3    H211269   0.195   0.195   0.559 -0.0071  3.1028 -0.3638
 3755TIP3   OH211270   0.646   3.350   2.901 -0.3321 -0.1380  0.4509
 3755TIP3    H111271   0.653   3.419   2.836 -2.3368 -0.5160 -0.2273
 3755TIP3    H211272   0.554   3.350   2.927  0.3741 -0.0774  3.2332
 3756TIP3   OH211273   3.900   1.514   2.685  0.9289 -0.3204  0.0369
 3756TIP3    H111274   3.976   1.474   2.727  0.3238 -3.0134 -1.2086
 3756TIP3    H211275   3.888   1.464   2.605 -0.5883  1.7826 -1.1480
 3757TIP3   OH211276   2.007   5.217   4.618 -0.3720 -0.2889 -0.0054
 3757TIP3    H111277   1.949   5.152   4.658 -0.2770 -1.6589 -1.9434
 3757TIP3    H211278   2.092   5.173   4.613  0.3632  0.9656  0.9765
 3758TIP3   OH211279   4.254   1.077   1.310  0.5492  0.2556  0.4814
 3758TIP3    H111280   4.183   1.140   1.325 -0.8878 -1.0554 -0.5197
 3758TIP3    H211281   4.258   1.067   1.215 -1.0442 -3.0098  0.6164
 3759TIP3   OH211282   4.491   5.537   0.336  0.4051  0.1933 -0.7470
 3759TIP3    H111283   4.482   5.577   0.422  0.3605 -1.0901 -0.1262
 3759TIP3    H211284   4.566   5.477   0.345  1.6238  1.4179 -2.1610
 3760TIP3   OH211285   3.838   3.164   4.181 -0.0391  0.1313  0.5831
 3760TIP3    H111286   3.745   3.156   4.201 -0.4578  1.2557 -0.7465
 3760TIP3    H211287   3.865   3.075   4.159 -1.3514  0.1099 -1.1458
 3761TIP3   OH211288   4.344   1.880   1.873 -0.0888  0.2411 -0.0532
 3761TIP3    H111289   4.440   1.873   1.874  0.0342  1.5429  1.5543
 3761TIP3    H211290   4.320   1.867   1.781  1.5589 -0.8401 -0.3691
 3762TIP3   OH211291   5.968   4.810   3.470 -0.2327 -0.0630 -0.0838
 3762TIP3    H111292   6.002   4.741   3.528  0.2542 -0.1174 -0.4284
 3762TIP3    H211293   6.006   4.891   3.503 -2.9246  0.4791  2.0228
 3763TIP3   OH211294   3.653   2.746   3.064 -0.2965 -0.2625 -0.2001
 3763TIP3    H111295   3.647   2.832   3.024  3.3215 -0.1811 -0.9755
 3763TIP3    H211296   3.636   2.760   3.157  0.2261  1.3123 -0.3241
 3764TIP3   OH211297   3.646   4.265   1.323 -0.2844  0.3759 -0.0335
 3764TIP3    H111298   3.742   4.263   1.327 -0.2592 -1.0625 -0.7544
 3764TIP3    H211299   3.625   4.226   1.238 -1.5078  0.9720 -0.0253
 3765TIP3   OH211300   5.235   0.978   2.199 -0.3088  0.5241  0.5476
 3765TIP3    H111301   5.249   0.929   2.280  2.6286  0.3362  0.0151
 3765TIP3    H211302   5.175   1.048   2.225  0.0328  0.0878  2.7429
 3766TIP3   OH211303   0.875   4.470   3.490  0.2283 -0.2220  0.0649
 3766TIP3    H111304   0.878   4.508   3.402  1.1536 -1.6518 -0.5447
 3766TIP3    H211305   0.935   4.396   3.487  0.1353 -0.4191  1.8597
 3767TIP3   OH211306   4.422   2.877   2.744  0.0925 -0.0494 -0.0780
 3767TIP3    H111307   4.500   2.898   2.795  0.8474 -1.7715 -0.4675
 3767TIP3    H211308   4.350   2.882   2.807  0.7778 -0.3686  0.7544
 3768TIP3   OH211309   2.464   1.245   2.396  0.9553 -0.1904  0.2848
 3768TIP3    H111310   2.474   1.316   2.460 -1.7904  0.3022  0.2844
 3768TIP3    H211311   2.398   1.278   2.335 -0.1094 -2.6033  0.0505
 3769TIP3   OH211312   4.167   5.476   1.448  0.2726 -0.0875 -0.1505
 3769TIP3    H111313   4.115   5.499   1.525  0.8255  2.1894 -0.3781
 3769TIP3    H211314   4.105   5.433   1.390 -0.5273 -0.4536  0.9348
 3770TIP3   OH211315   4.615   5.283   2.189  0.5271  0.0415  0.0593
 3770TIP3    H111316   4.703   5.278   2.151 -0.1896 -0.6169 -1.5747
 3770TIP3    H211317   4.616   5.364   2.240  2.3958 -0.4830  0.9562
 3771TIP3   OH211318   2.931   0.830   1.450  0.0714  0.7120  0.1612
 3771TIP3    H111319   2.881   0.905   1.483  1.0864  1.1680  0.6905
 3771TIP3    H211320   3.015   0.835   1.495 -0.9343 -2.6758  2.8820
 3772TIP3   OH211321   1.755   2.735   1.200  0.3049 -0.1310 -0.0796
 3772TIP3    H111322   1.835   2.754   1.249  0.0735 -0.2197  0.3324
 3772TIP3    H211323   1.782   2.671   1.134  0.7569  0.4612 -0.4838
 3773TIP3   OH211324   5.149   2.314   3.746  0.1961  0.6201 -0.0630
 3773TIP3    H111325   5.152   2.390   3.688  1.7778  0.7637  0.1559
 3773TIP3    H211326   5.113   2.243   3.691 -1.6078  1.5606 -0.1732
 3774TIP3   OH211327   5.533   0.194   1.273  0.6514 -0.5213  0.5369
 3774TIP3    H111328   5.511   0.277   1.230  1.6987 -0.5197 -0.0235
 3774TIP3    H211329   5.465   0.133   1.245 -0.8909  0.4339  1.9671
 3775TIP3   OH211330   2.264   5.119   4.655  0.0802  0.7764  0.2129
 3775TIP3    H111331   2.287   5.121   4.748 -0.7965 -0.7498  0.5036
 3775TIP3    H211332   2.348   5.104   4.610  0.3426  0.1631  0.8788
 3776TIP3   OH211333   2.451   2.606   2.564 -0.1242  0.5674  0.1091
 3776TIP3    H111334   2.447   2.622   2.659 -0.7649  1.6839 -0.0793
 3776TIP3    H211335   2.409   2.522   2.552 -0.7334  0.7675  0.7511
 3777TIP3   OH211336   0.616   2.334   4.896  0.4686  0.1750  0.1114
 3777TIP3    H111337   0.674   2.317   4.971  0.9131  1.5314  0.0968
 3777TIP3    H211338   0.620   2.253   4.845  0.2338 -0.7474  1.4913
 3778TIP3   OH211339   3.389   0.773   0.183 -0.8097 -0.2324  0.1509
 3778TIP3    H111340   3.444   0.768   0.105 -0.6087  0.8442  0.2047
 3778TIP3    H211341   3.374   0.682   0.207  0.2319 -0.5644 -0.3660
 3779TIP3   OH211342   4.661   1.881   2.780  0.3876  0.1387  0.4278
 3779TIP3    H111343   4.671   1.875   2.875  0.0184  1.2690  0.5460
 3779TIP3    H211344   4.577   1.840   2.761  0.9191 -0.9934  0.4680
 3780TIP3   OH211345   3.767   4.582   0.040 -0.1470  0.3620 -0.5471
 3780TIP3    H111346   3.711   4.505   0.036  2.6721 -1.9076  0.3873
 3780TIP3    H211347   3.742   4.634  -0.036 -1.4137 -2.0181 -1.8554
 3781TIP3   OH211348   4.815   5.543   3.367 -0.3244 -0.1644  0.3253
 3781TIP3    H111349   4.840   5.517   3.455 -0.1666  1.1709  0.7007
 3781TIP3    H211350   4.750   5.478   3.340  0.8414 -1.5469  0.7614
 3782TIP3   OH211351   1.775   3.262   1.848  0.0472 -0.2450 -0.5136
 3782TIP3    H111352   1.689   3.284   1.812 -0.6791 -0.8560  0.7745
 3782TIP3    H211353   1.810   3.195   1.789 -1.2218 -1.4143  0.0089
 3783TIP3   OH211354   2.611   5.216   2.705 -0.0060  0.0836 -0.0562
 3783TIP3    H111355   2.638   5.302   2.737  1.0247 -0.2122 -0.0811
 3783TIP3    H211356   2.685   5.185   2.653 -0.6952 -0.4739 -0.7258
 3784TIP3   OH211357   4.342   5.080   5.033  0.3118 -0.3718 -0.4342
 3784TIP3    H111358   4.398   5.029   5.092  2.0914  0.2092 -1.5564
 3784TIP3    H211359   4.253   5.051   5.054  1.1576 -3.2677 -0.4028
 3785TIP3   OH211360   5.763   4.407   2.008 -0.2113  0.0330  0.2958
 3785TIP3    H111361   5.855   4.432   2.002 -0.1010 -0.4252  0.0757
 3785TIP3    H211362   5.715   4.487   1.984  0.1175  0.4128  0.8926
 3786TIP3   OH211363   1.346   0.833   4.932  0.1114  0.1892  0.5721
 3786TIP3    H111364   1.350   0.913   4.985  1.3432  0.4296  0.1534
 3786TIP3    H211365   1.395   0.855   4.853 -1.7342 -0.1362 -0.7381
 3787TIP3   OH211366   1.236   5.496   4.782 -0.0824 -0.0535  0.0602
 3787TIP3    H111367   1.189   5.472   4.702 -1.2836  1.7196  0.1919
 3787TIP3    H211368   1.258   5.588   4.771 -1.0827  0.4947  2.1459
 3788TIP3   OH211369   4.931   0.536   0.182 -0.6554  0.2968  0.4581
 3788TIP3    H111370   4.938   0.589   0.103 -0.9112  0.4219  0.5174
 3788TIP3    H211371   5.019   0.503   0.197  0.0991  2.7062  1.8287
 3789TIP3   OH211372   3.111   2.289   4.070 -0.6730 -0.0332  0.3615
 3789TIP3    H111373   3.181   2.349   4.044 -0.4198  0.2918  1.7029
 3789TIP3    H211374   3.136   2.260   4.158 -1.1722 -1.5363  0.0512
 3790TIP3   OH211375   2.472   0.603   2.603 -0.4630  0.5015 -0.2627
 3790TIP3    H111376   2.516   0.675   2.650 -1.0051  1.9598 -1.8815
 3790TIP3    H211377   2.472   0.631   2.512  0.4854 -2.2182 -1.1761
 3791TIP3   OH211378   5.211   1.148   4.110 -0.3353  0.5957  0.0767
 3791TIP3    H111379   5.272   1.129   4.038 -2.1657  1.2807 -1.7285
 3791TIP3    H211380   5.143   1.081   4.101 -1.6496  1.9089 -0.1566
 3792TIP3   OH211381   3.984   2.625   3.590 -0.1331 -0.6964 -0.1280
 3792TIP3    H111382   3.924   2.686   3.634  1.6509  0.7977  0.3568
 3792TIP3    H211383   3.968   2.638   3.497 -0.3989 -0.1450 -0.0075
 3793TIP3   OH211384   0.994   0.088   1.375 -0.2771  0.3609 -0.0139
 3793TIP3    H111385   1.070   0.089   1.317  0.6989  3.1512  1.1030
 3793TIP3    H211386   0.941   0.163   1.347 -1.0950  0.2076  1.0377
 3794TIP3   OH211387   4.403   1.159   1.051 -0.0099  0.2779 -0.3275
 3794TIP3    H111388   4.488   1.117   1.070 -0.0531  0.4005  0.1306
 3794TIP3    H211389   4.416   1.251   1.073  0.1274  0.5406 -1.4728
 3795TIP3   OH211390   5.994   3.125   1.613 -0.2562 -0.5498 -0.0336
 3795TIP3    H111391   6.080   3.124   1.571  0.0810  0.2205  0.6059
 3795TIP3    H211392   5.976   3.033   1.633  0.3968 -0.7249 -0.2205
 3796TIP3   OH211393   3.892   3.032   2.100 -0.6320 -1.3320  0.2141
 3796TIP3    H111394   3.854   2.963   2.154 -1.1282 -1.3324 -0.1294
 3796TIP3    H211395   3.821   3.096   2.090  0.0739 -0.3460  1.2406
 3797TIP3   OH211396   4.565   0.562   4.857  0.4100  0.6970  0.1615
 3797TIP3    H111397   4.520   0.645   4.872 -1.6358 -0.6753  2.5271
 3797TIP3    H211398   4.556   0.515   4.940  1.1891 -2.0312 -1.1748
 3798TIP3   OH211399   5.198   2.346   4.151  0.2544 -0.3874 -0.1594
 3798TIP3    H111400   5.195   2.426   4.098  0.4582 -1.1354 -1.3459
 3798TIP3    H211401   5.264   2.364   4.218  0.9317  0.1386 -0.9395
 3799TIP3   OH211402   0.977   1.664   3.173 -0.1339 -0.2131 -0.1395
 3799TIP3    H111403   1.000   1.590   3.229 -0.0841  0.9377  1.4337
 3799TIP3    H211404   0.931   1.725   3.231 -1.1193  0.5338 -1.6357
 3800TIP3   OH211405   1.127   1.946   0.105 -0.9161 -0.5542  0.3092
 3800TIP3    H111406   1.073   2.008   0.056 -0.3639 -1.3333 -1.3435
 3800TIP3    H211407   1.217   1.967   0.080 -0.7190 -1.9797 -0.2718
 3801TIP3   OH211408   1.043   5.970   3.655  0.0149 -0.0385 -0.2954
 3801TIP3    H111409   1.036   6.013   3.570  1.0263  1.1387  0.1794
 3801TIP3    H211410   1.132   5.934   3.656  0.0745  0.1205  0.3269
 3802TIP3   OH211411   2.946   4.036   4.815  0.3321  0.2521 -0.6725
 3802TIP3    H111412   2.945   4.126   4.847 -0.9039 -0.0553  0.2329
 3802TIP3    H211413   2.980   3.984   4.888  1.6579  0.0407 -1.4140
 3803TIP3   OH211414   0.970   2.048   0.660  0.2880 -0.7551 -0.0093
 3803TIP3    H111415   0.975   1.953   0.663  2.7143 -0.7840 -2.2044
 3803TIP3    H211416   1.056   2.076   0.630 -0.6924  2.0916 -0.4446
 3804TIP3   OH211417   3.899   5.340   2.073 -0.3307 -0.0219 -0.0921
 3804TIP3    H111418   3.807   5.314   2.069 -0.0536 -1.0159 -0.2075
 3804TIP3    H211419   3.925   5.350   1.982 -0.4670  0.8144 -0.0471
 3805TIP3   OH211420   2.414   1.315   4.413 -0.1121 -0.2275  0.5756
 3805TIP3    H111421   2.501   1.316   4.375  0.0035 -0.2049  0.8412
 3805TIP3    H211422   2.361   1.266   4.350 -0.5012  1.8833 -0.8528
 3806TIP3   OH211423   3.057   3.886   4.999  0.2137 -0.2904  0.6489
 3806TIP3    H111424   3.136   3.881   5.052 -0.6282  0.4199  2.0165
 3806TIP3    H211425   3.003   3.813   5.029 -0.0887 -0.1488  0.4550
 3807TIP3   OH211426   4.897   1.166   2.040 -0.0827 -0.5071 -0.5691
 3807TIP3    H111427   4.811   1.142   2.006 -0.9890 -0.6829  1.6948
 3807TIP3    H211428   4.890   1.260   2.057 -0.5582 -0.8780  1.4859
 3808TIP3   OH211429   0.866   2.197   2.872  0.1374  0.1719  0.1627
 3808TIP3    H111430   0.796   2.261   2.888 -0.3128  0.2431 -1.8156
 3808TIP3    H211431   0.947   2.246   2.887 -0.2184  0.9214 -0.3073
 3809TIP3   OH211432   5.511   5.960   4.533  0.4818  0.3258 -0.0909
 3809TIP3    H111433   5.544   5.888   4.587  0.5490 -0.9703 -1.7609
 3809TIP3    H211434   5.589   5.995   4.490  0.4276  1.3401  0.5838
 3810TIP3   OH211435   2.229   1.918   2.186 -0.1660  0.1346  0.4006
 3810TIP3    H111436   2.187   1.858   2.125 -0.1319  0.0590  0.4517
 3810TIP3    H211437   2.173   1.995   2.187 -2.2135 -1.2322  3.0675
 3811TIP3   OH211438   4.289   4.207   2.237 -0.0825 -0.2008 -0.1749
 3811TIP3    H111439   4.359   4.211   2.172  0.6523 -1.0222  0.5396
 3811TIP3    H211440   4.315   4.271   2.303  0.2947 -0.8979  0.3647
 3812TIP3   OH211441   4.632   4.377   2.716  0.5559  0.7809 -0.0663
 3812TIP3    H111442   4.685   4.451   2.745  1.3604 -0.4675  1.8100
 3812TIP3    H211443   4.693   4.318   2.673  0.3939  0.1396  0.5534
 3813TIP3   OH211444   3.995   2.456   3.787  0.3176  0.2369 -0.2770
 3813TIP3    H111445   4.026   2.508   3.861  0.4366 -0.4856  0.1887
 3813TIP3    H211446   4.009   2.513   3.711  0.3389  0.9274  0.2276
 3814TIP3   OH211447   1.144   0.863  -0.017  0.3965 -0.1170 -0.1609
 3814TIP3    H111448   1.212   0.797  -0.004  1.0000  0.5607  0.1802
 3814TIP3    H211449   1.141   0.911   0.066 -1.4678 -1.0007  0.3478
 3815TIP3   OH211450   1.710   5.081   4.444 -0.1732  1.0483  0.0306
 3815TIP3    H111451   1.802   5.099   4.463  0.3461 -1.7741  0.7714
 3815TIP3    H211452   1.705   4.985   4.440 -2.5068  1.1410 -3.1330
 3816TIP3   OH211453   1.211   2.905   0.707  0.1140 -0.4479 -0.4350
 3816TIP3    H111454   1.292   2.909   0.758 -0.3297  0.7469  0.2111
 3816TIP3    H211455   1.163   2.831   0.744  0.2712 -0.2620  0.1420
 3817TIP3   OH211456   6.279   0.019   1.800 -0.5371  0.3379  0.0606
 3817TIP3    H111457   6.245   0.093   1.851  2.0096  0.3188  2.0494
 3817TIP3    H211458   6.316   0.059   1.721 -0.3093  1.0728  0.5236
 3818TIP3   OH211459   4.322   4.379   4.427  0.5304  0.2558  0.4478
 3818TIP3    H111460   4.308   4.332   4.509  0.1608 -1.3767 -0.4976
 3818TIP3    H211461   4.235   4.382   4.387  0.9261 -0.1203 -0.4599
 3819TIP3   OH211462   4.370   3.117   0.751 -0.2323  0.5694  0.2267
 3819TIP3    H111463   4.353   3.210   0.767  0.7195  0.8802 -0.5103
 3819TIP3    H211464   4.397   3.083   0.836 -0.8237  0.8998  0.5592
 3820TIP3   OH211465   6.247   4.398   1.195  0.1789 -0.0237 -0.6277
 3820TIP3    H111466   6.283   4.416   1.108  1.9624  0.8921  0.2293
 3820TIP3    H211467   6.187   4.325   1.182  1.9441 -1.2809 -2.3097
 3821TIP3   OH211468   0.912   1.802   0.953 -0.4401  0.0707 -0.5166
 3821TIP3    H111469   0.911   1.719   0.905  0.0400  0.4913 -1.2693
 3821TIP3    H211470   0.984   1.851   0.914 -0.5231  0.7213  0.1343
 3822TIP3   OH211471   3.128   2.480   1.307  0.5174  0.0076  0.1682
 3822TIP3    H111472   3.066   2.446   1.242  1.6906 -0.8767 -0.5155
 3822TIP3    H211473   3.109   2.429   1.386  0.7565 -0.6810 -0.2073
 3823TIP3   OH211474   1.489   1.829   4.005 -0.4388  0.4675  0.1470
 3823TIP3    H111475   1.577   1.800   3.982 -0.7431 -1.0542  0.7300
 3823TIP3    H211476   1.462   1.770   4.075 -2.0141  0.7269 -0.1895
 3824TIP3   OH211477   0.974   6.015   3.980 -0.2705 -0.2899 -0.0580
 3824TIP3    H111478   1.040   6.021   4.049 -1.5536 -1.8498  1.3969
 3824TIP3    H211479   0.997   5.935   3.932 -0.0471  0.1753 -0.7414
 3825TIP3   OH211480   0.794   2.313   5.088  0.3734  0.5430 -0.1509
 3825TIP3    H111481   0.839   2.230   5.078  3.2262  1.9177  0.3401
 3825TIP3    H211482   0.789   2.328   5.183 -1.5576  0.2708 -0.1589
 3826TIP3   OH211483   3.774   2.477   2.751  0.0123  0.5774 -0.3160
 3826TIP3    H111484   3.706   2.473   2.684 -0.7487  1.0948  0.3904
 3826TIP3    H211485   3.732   2.441   2.830  0.3367  1.4893  0.2933
 3827TIP3   OH211486   5.507   3.392   4.321 -0.0078  0.0943  0.1589
 3827TIP3    H111487   5.524   3.474   4.274  2.2028 -0.6630 -0.4831
 3827TIP3    H211488   5.571   3.392   4.392 -0.3547 -0.8341  0.4814
 3828TIP3   OH211489   0.651   4.969   2.822  0.0122 -0.4006 -0.3763
 3828TIP3    H111490   0.603   4.899   2.866 -0.7872  0.4504  0.1343
 3828TIP3    H211491   0.583   5.026   2.786  0.6532 -0.2415 -1.3671
 3829TIP3   OH211492   0.042   0.834   1.969 -0.1348 -0.1276 -0.0311
 3829TIP3    H111493  -0.032   0.895   1.961  0.9245  1.0849 -0.9393
 3829TIP3    H211494   0.086   0.838   1.884  1.5785 -0.0244  0.8176
 3830TIP3   OH211495   5.575   0.612   0.090  0.4180 -0.0821 -0.0453
 3830TIP3    H111496   5.639   0.641   0.156 -1.2957  1.6502  0.9380
 3830TIP3    H211497   5.544   0.693   0.049 -0.3557 -0.9765 -1.2920
 3831TIP3   OH211498   5.843   4.599   2.860 -0.3078 -0.5834 -0.3060
 3831TIP3    H111499   5.855   4.680   2.811 -1.5620 -0.0439  0.2373
 3831TIP3    H211500   5.845   4.625   2.952  1.5096 -1.5126 -0.0395
 3832TIP3   OH211501   4.955   2.531   3.326 -0.3072 -0.2443  0.3133
 3832TIP3    H111502   4.916   2.454   3.283 -2.4284  1.1171 -0.3904
 3832TIP3    H211503   4.955   2.509   3.419  0.3774 -1.5977  0.0154
 3833TIP3   OH211504   5.066   1.117   3.485  0.1615  0.2306  0.2207
 3833TIP3    H111505   5.107   1.043   3.441  2.0613  0.4721  1.4734
 3833TIP3    H211506   5.118   1.193   3.459 -0.0717  0.7007  1.0811
 3834TIP3   OH211507   1.504   5.733   2.334  0.4912 -0.0174 -0.8014
 3834TIP3    H111508   1.436   5.722   2.401  0.7143  0.5623 -0.4735
 3834TIP3    H211509   1.495   5.656   2.278  0.7783 -0.8764  0.3091
 3835TIP3   OH211510   5.401   1.922   1.906  0.1386 -0.2521  0.0222
 3835TIP3    H111511   5.340   1.870   1.854 -0.3244  0.6579 -0.3747
 3835TIP3    H211512   5.432   1.990   1.846  0.9276 -0.2200  0.4524
 3836TIP3   OH211513   5.707   5.042   1.605 -0.7928  0.0959 -1.0495
 3836TIP3    H111514   5.661   5.098   1.543 -1.7823  0.4459 -0.0483
 3836TIP3    H211515   5.745   4.972   1.552 -0.8540  0.8660 -2.1347
 3837TIP3   OH211516   5.638   5.272   2.084  0.0280  0.1805  0.0061
 3837TIP3    H111517   5.574   5.233   2.024 -1.7552  2.0949  0.5324
 3837TIP3    H211518   5.683   5.197   2.123 -3.1585 -1.4649  0.9472
 3838TIP3   OH211519   2.642   4.888   3.727 -0.4130  0.2609 -0.2318
 3838TIP3    H111520   2.634   4.965   3.783 -0.8661  0.5229 -0.6504
 3838TIP3    H211521   2.711   4.836   3.767 -0.0081  0.9504 -0.0263
 3839TIP3   OH211522   4.215   2.009   2.974 -0.3625  0.9005  0.1948
 3839TIP3    H111523   4.300   2.041   3.004  0.5933 -1.2275 -0.0705
 3839TIP3    H211524   4.221   2.010   2.879  0.7170 -2.2931  0.1048
 3840TIP3   OH211525   2.670   4.193   4.439 -1.1411  0.5480  0.5746
 3840TIP3    H111526   2.731   4.188   4.365 -1.5800 -0.1088  0.2340
 3840TIP3    H211527   2.586   4.164   4.402 -1.6709  1.4751  1.0182
 3841TIP3   OH211528   2.049   0.348   3.598 -0.1452 -0.0207 -0.1907
 3841TIP3    H111529   1.979   0.409   3.576  1.0907  1.3267 -0.5408
 3841TIP3    H211530   2.124   0.379   3.548  1.3301 -0.0775  1.8995
 3842TIP3   OH211531   1.770   1.115   0.149  0.1990  0.0175 -0.0737
 3842TIP3    H111532   1.815   1.164   0.217  0.9356  0.4243 -0.8449
 3842TIP3    H211533   1.705   1.062   0.196  2.4458 -1.7429  1.2438
 3843TIP3   OH211534   5.314   4.797   2.341  0.7067 -0.0759  0.1596
 3843TIP3    H111535   5.246   4.864   2.339  1.1594  0.3692 -1.2840
 3843TIP3    H211536   5.331   4.782   2.434 -0.1522  1.0259  0.5069
 3844TIP3   OH211537   0.406   2.352   1.482 -0.0073  0.0923  0.1964
 3844TIP3    H111538   0.446   2.314   1.404 -4.2365 -0.1002 -2.1809
 3844TIP3    H211539   0.407   2.282   1.547  2.2398 -0.2446 -0.1211
 3845TIP3   OH211540   0.402   2.597   4.100 -0.2081  0.3975  0.0768
 3845TIP3    H111541   0.393   2.512   4.057 -0.1072 -0.5225  1.7737
 3845TIP3    H211542   0.392   2.578   4.194  1.9781  1.8986  0.7006
 3846TIP3   OH211543   4.550   4.727   0.531 -0.7043  0.4091  0.3428
 3846TIP3    H111544   4.471   4.683   0.499 -0.5288  0.3494 -0.0122
 3846TIP3    H211545   4.518   4.791   0.594 -1.2136  1.5327 -0.9906
 3847TIP3   OH211546   2.045   3.091   0.043  0.6275 -0.8646  0.0912
 3847TIP3    H111547   2.007   3.027   0.103 -0.1920  0.1479  0.7038
 3847TIP3    H211548   2.130   3.112   0.081 -0.6270  1.1388  2.0218
 3848TIP3   OH211549   4.953   0.634   5.137 -0.0667 -0.0411  0.4603
 3848TIP3    H111550   4.877   0.683   5.166  0.2272 -0.1115  1.4180
 3848TIP3    H211551   4.990   0.598   5.218  0.9463 -0.0536  0.0098
 3849TIP3   OH211552   5.595   0.539   3.010  0.2698 -0.4546 -0.3668
 3849TIP3    H111553   5.666   0.567   2.952  0.2330  0.0871 -0.1589
 3849TIP3    H211554   5.625   0.564   3.097 -0.3590  0.1830 -0.3215
 3850TIP3   OH211555   5.575   4.856   2.296 -0.5036 -0.4777 -0.2068
 3850TIP3    H111556   5.480   4.866   2.306 -0.2676  0.6004  1.3960
 3850TIP3    H211557   5.605   4.823   2.381  0.7860  1.4475  0.1610
 3851TIP3   OH211558   0.624   3.746   0.191 -1.0233 -0.2800 -0.6071
 3851TIP3    H111559   0.691   3.692   0.233  0.7740  1.8272 -0.5631
 3851TIP3    H211560   0.542   3.703   0.213  0.1330 -1.6613  1.4077
 3852TIP3   OH211561   1.511   4.960   4.776 -0.2388 -1.1582  0.3271
 3852TIP3    H111562   1.546   4.900   4.842 -1.1498 -0.4900  1.4472
 3852TIP3    H211563   1.416   4.942   4.775 -0.2771 -0.9729 -0.6188
 3853TIP3   OH211564   5.316   4.248   0.579 -0.2919 -0.4614 -0.3193
 3853TIP3    H111565   5.234   4.210   0.612 -0.2999  0.1455  0.3848
 3853TIP3    H211566   5.381   4.178   0.591 -0.4028 -0.4331  0.5285
 3854TIP3   OH211567   3.147   0.220   0.119 -0.3346 -0.4166  0.1384
 3854TIP3    H111568   3.134   0.314   0.112 -0.7337 -0.3183  1.7496
 3854TIP3    H211569   3.164   0.191   0.029  0.5770  1.2912 -0.2856
 3855TIP3   OH211570   6.214   1.668   1.620  0.3492  0.3241  1.0323
 3855TIP3    H111571   6.258   1.592   1.581  1.0016  0.2279  1.9440
 3855TIP3    H211572   6.160   1.702   1.549 -0.1159 -1.1129  0.6662
 3856TIP3   OH211573   2.486   1.515   2.533  0.3440  0.4630  0.3732
 3856TIP3    H111574   2.535   1.566   2.469  0.0346  2.3530  1.5714
 3856TIP3    H211575   2.400   1.503   2.495  0.7003  0.0025 -0.3100
 3857TIP3   OH211576   4.278   4.951   3.061  0.5512  0.3094  0.4757
 3857TIP3    H111577   4.365   4.989   3.054  0.4004  0.5269 -0.2880
 3857TIP3    H211578   4.234   4.974   2.979 -0.4322  0.7281  1.0933
 3858TIP3   OH211579   6.249   1.609   2.798  0.0842  0.2655  0.1885
 3858TIP3    H111580   6.291   1.692   2.776  1.5637 -0.7384 -1.0196
 3858TIP3    H211581   6.211   1.623   2.884  0.3398  2.1631  0.0427
 3859TIP3   OH211582   5.855   3.705   2.436  0.2907 -0.1913  0.1019
 3859TIP3    H111583   5.947   3.712   2.413 -0.0082 -1.2863 -1.6211
 3859TIP3    H211584   5.810   3.766   2.378 -0.2807 -1.4809 -0.8680
 3860TIP3   OH211585   5.513   5.788   2.738 -0.0544  0.1134  0.1017
 3860TIP3    H111586   5.548   5.739   2.663  0.7123  2.2063 -0.9904
 3860TIP3    H211587   5.527   5.880   2.715 -3.6465  1.0043  0.9434
 3861TIP3   OH211588   1.190   5.480   3.305  0.2644  0.2582  0.4500
 3861TIP3    H111589   1.192   5.490   3.210 -0.3371  0.1502  0.4204
 3861TIP3    H211590   1.253   5.545   3.338 -0.9407  1.6756  0.0775
 3862TIP3   OH211591   2.330   5.183   2.214  0.1647 -0.3395  0.0099
 3862TIP3    H111592   2.418   5.193   2.248  0.9846  0.1328 -2.0829
 3862TIP3    H211593   2.286   5.266   2.235  0.6114 -0.1010 -0.0007
 3863TIP3   OH211594   0.056   4.866   4.104 -0.4640 -0.3676  0.7527
 3863TIP3    H111595   0.014   4.793   4.059  0.7005 -0.6053 -0.0043
 3863TIP3    H211596   0.067   4.836   4.194 -2.8488  0.1226  1.2675
 3864TIP3   OH211597   1.239   3.411   0.144  0.3928 -0.4578  0.1289
 3864TIP3    H111598   1.324   3.371   0.123  1.0883  0.9735  0.0968
 3864TIP3    H211599   1.261   3.490   0.192 -0.8816  0.5532 -0.8939
 3865TIP3   OH211600   0.409   1.656   3.682 -0.5978 -0.0227 -0.3581
 3865TIP3    H111601   0.385   1.648   3.590  0.9611  0.2226 -0.8149
 3865TIP3    H211602   0.404   1.566   3.716 -1.4773 -0.0672 -0.5906
 3866TIP3   OH211603   4.687   1.898   3.054 -0.1864 -0.3110  0.1090
 3866TIP3    H111604   4.613   1.957   3.040 -1.1912 -1.3379  0.9153
 3866TIP3    H211605   4.734   1.936   3.129 -1.0156 -0.6903  0.8344
 3867TIP3   OH211606   1.426   0.021   3.543 -0.3706  0.0501 -0.1693
 3867TIP3    H111607   1.520   0.026   3.561 -0.4881  0.0098  0.5010
 3867TIP3    H211608   1.393   0.109   3.565 -0.3999  0.2452 -0.9733
 3868TIP3   OH211609   5.453   2.971   2.787  0.8979  0.3600  0.1209
 3868TIP3    H111610   5.535   2.965   2.835  0.5035 -1.3020  0.6521
 3868TIP3    H211611   5.394   2.911   2.832 -0.2250  0.5750 -1.0044
 3869TIP3   OH211612   4.097   4.069   2.701 -0.0921  0.1107  0.2886
 3869TIP3    H111613   4.039   4.144   2.685 -0.7359 -0.7726 -1.7881
 3869TIP3    H211614   4.161   4.072   2.631  0.2617 -0.9215  0.5506
 3870TIP3   OH211615   3.879   5.284   3.596 -0.8550 -0.0179  0.6516
 3870TIP3    H111616   3.849   5.210   3.543 -1.6401 -0.2476  1.3800
 3870TIP3    H211617   3.891   5.355   3.533 -0.0723 -0.7641 -0.0609
 3871TIP3   OH211618   2.026   5.713   4.969  0.4691 -0.4735 -0.3037
 3871TIP3    H111619   1.953   5.711   5.031 -0.7147 -1.0596 -1.6572
 3871TIP3    H211620   2.023   5.628   4.925  1.9613 -0.4976 -0.4356
 3872TIP3   OH211621   1.993   3.713   2.017  0.1726 -0.0208  0.1513
 3872TIP3    H111622   1.937   3.780   1.978  0.2633  0.0535  0.1491
 3872TIP3    H211623   1.954   3.630   1.989  0.9319  0.0318 -1.1047
 3873TIP3   OH211624   6.034   2.662   4.967  0.2807 -0.5066  0.1638
 3873TIP3    H111625   6.084   2.583   4.949  1.7448 -0.0319  1.8816
 3873TIP3    H211626   6.094   2.734   4.946 -0.9165  0.1950 -1.0802
 3874TIP3   OH211627   2.974   3.723   1.385 -0.4788  0.1142  0.2346
 3874TIP3    H111628   3.013   3.698   1.301 -2.3816 -0.8187 -0.4081
 3874TIP3    H211629   2.909   3.656   1.403  0.9739 -0.6496  3.3171
 3875TIP3   OH211630   5.623   0.993   1.359  0.2099 -0.3660  0.4594
 3875TIP3    H111631   5.704   0.956   1.323  0.3025  1.0619 -0.8655
 3875TIP3    H211632   5.647   1.022   1.447  1.7452  1.9127 -0.6377
 3876TIP3   OH211633   1.410   3.563   2.602 -0.1286 -0.3090  0.1442
 3876TIP3    H111634   1.444   3.552   2.691 -0.8786 -0.4165  0.4242
 3876TIP3    H211635   1.384   3.655   2.598  3.7909  0.9433 -1.3669
 3877TIP3   OH211636   2.505   3.519   4.594 -0.2537 -0.5318 -0.4235
 3877TIP3    H111637   2.595   3.490   4.609 -0.6516 -1.8659 -0.5439
 3877TIP3    H211638   2.509   3.614   4.606  1.0695 -0.6220  0.0535
 3878TIP3   OH211639   5.745   3.605   2.021 -0.6896  0.4819 -0.3885
 3878TIP3    H111640   5.679   3.633   2.084 -1.4215 -0.3301 -0.7841
 3878TIP3    H211641   5.761   3.683   1.967 -0.2996  1.0870  0.5604
 3879TIP3   OH211642   4.456   3.965   5.056  0.0273  0.5593 -0.4246
 3879TIP3    H111643   4.401   3.925   4.989  0.0652 -0.2154 -0.0069
 3879TIP3    H211644   4.397   4.021   5.106 -0.5074 -0.6685  0.3476
 3880TIP3   OH211645   1.566   3.387   2.183  0.1142  0.5182 -0.1364
 3880TIP3    H111646   1.568   3.462   2.123  0.5076  0.3652 -0.3146
 3880TIP3    H211647   1.592   3.424   2.268  3.1444  0.0983 -0.7692
 3881TIP3   OH211648   2.464   4.885   0.759  0.6683  0.0480  0.2171
 3881TIP3    H111649   2.369   4.887   0.755  0.5159  0.1170  2.3669
 3881TIP3    H211650   2.484   4.812   0.818  1.7188  2.0103  2.4992
 3882TIP3   OH211651   0.985   0.946   2.406 -0.0391  0.1280 -0.0260
 3882TIP3    H111652   0.968   0.866   2.454 -0.9433 -0.0541 -0.6348
 3882TIP3    H211653   0.910   1.002   2.423 -0.1052  0.2815 -0.7554
 3883TIP3   OH211654   5.339   5.619   1.185 -0.2253  0.1131 -0.1210
 3883TIP3    H111655   5.433   5.600   1.183  0.2335  2.0625 -3.1389
 3883TIP3    H211656   5.329   5.679   1.259  0.8683 -0.2247  0.3250
 3884TIP3   OH211657   0.149   5.937   3.795 -0.2830  0.0575 -0.0558
 3884TIP3    H111658   0.112   6.019   3.827 -0.3122  0.4502 -1.0571
 3884TIP3    H211659   0.157   5.882   3.873  0.7767  1.3946  0.8126
 3885TIP3   OH211660   5.713   1.896   1.860  0.5516 -0.2561  0.0362
 3885TIP3    H111661   5.714   1.939   1.945 -0.9394 -1.2555  0.5936
 3885TIP3    H211662   5.798   1.916   1.822  0.6119  1.5818  1.0546
 3886TIP3   OH211663   1.168   4.517   2.049 -0.0752 -0.2477 -0.0935
 3886TIP3    H111664   1.121   4.562   2.120  1.4167 -0.1219  0.8555
 3886TIP3    H211665   1.114   4.440   2.030 -1.2812  0.5278  0.1239
 3887TIP3   OH211666   5.147   4.108   0.780 -0.4351 -0.0234  0.1720
 3887TIP3    H111667   5.188   4.022   0.774 -0.0842  0.0573  1.3082
 3887TIP3    H211668   5.055   4.089   0.798 -0.4057 -0.1550  0.1885
 3888TIP3   OH211669   2.854   0.993   4.116  0.2530  0.0004  0.3425
 3888TIP3    H111670   2.832   0.904   4.141 -0.6258  0.4247  1.1528
 3888TIP3    H211671   2.937   0.985   4.069 -0.8501 -1.4910 -1.4947
 3889TIP3   OH211672   4.878   4.225   2.627  0.1180  0.1026  0.1234
 3889TIP3    H111673   4.930   4.146   2.617  0.9596  0.3535  2.0607
 3889TIP3    H211674   4.897   4.255   2.716 -2.8042  0.5780  0.7077
 3890TIP3   OH211675   4.942   5.227   1.242 -0.5689 -0.0053 -0.3694
 3890TIP3    H111676   4.988   5.193   1.166  2.5575  2.6119  0.1115
 3890TIP3    H211677   4.954   5.322   1.238 -0.6013  0.3105  3.1165
 3891TIP3   OH211678   5.548   2.393   1.565 -0.3247  0.0576 -0.0100
 3891TIP3    H111679   5.540   2.440   1.482  1.1223  0.9202  0.3026
 3891TIP3    H211680   5.513   2.454   1.631 -1.8881 -0.8001 -0.0085
 3892TIP3   OH211681   4.906   0.706   4.501 -0.2322  0.5789 -0.3323
 3892TIP3    H111682   4.921   0.650   4.577  0.5647  0.9790 -0.1898
 3892TIP3    H211683   4.890   0.793   4.537  0.7415  0.8965 -0.6240
 3893TIP3   OH211684   3.852   1.926   3.816  0.3453 -0.2714  0.3656
 3893TIP3    H111685   3.921   1.991   3.803 -1.7526  1.8879 -0.6272
 3893TIP3    H211686   3.846   1.916   3.911  1.8006 -0.2797  0.4777
 3894TIP3   OH211687   1.009   3.521   2.797 -0.0490  0.1387 -0.4539
 3894TIP3    H111688   1.017   3.602   2.848 -1.5829 -0.1047  0.2173
 3894TIP3    H211689   1.068   3.460   2.841 -1.0790  0.0378  0.8755
 3895TIP3   OH211690   4.000   2.300   0.882  0.7986  0.1852  0.1739
 3895TIP3    H111691   3.995   2.395   0.866 -0.2250  0.0165 -0.6313
 3895TIP3    H211692   4.069   2.270   0.823  0.6289  0.3362 -0.1082
 3896TIP3   OH211693   5.767   0.015   0.822  0.4795 -0.0721  0.1874
 3896TIP3    H111694   5.706  -0.053   0.793  0.8778 -0.3754  0.0403
 3896TIP3    H211695   5.721   0.097   0.809 -1.3424 -0.4171  3.4302
 3897TIP3   OH211696   3.181   1.898   0.873  0.4024  0.2737  0.2709
 3897TIP3    H111697   3.210   1.810   0.850 -0.7157  0.3820 -1.7270
 3897TIP3    H211698   3.158   1.891   0.966  2.6143 -0.8730  0.8318
 3898TIP3   OH211699   0.251   4.509   4.042 -0.1590 -0.6422 -0.0141
 3898TIP3    H111700   0.197   4.432   4.060  0.0157 -1.2856 -1.9909
 3898TIP3    H211701   0.328   4.474   3.997  1.8500  0.2786  2.4596
 3899TIP3   OH211702   4.372   4.473   2.071 -0.5088 -0.7571 -0.2688
 3899TIP3    H111703   4.317   4.486   2.149 -1.1403 -0.8561 -0.6836
 3899TIP3    H211704   4.412   4.387   2.084 -0.2804 -0.5923  0.1386
 3900TIP3   OH211705   5.493   5.149   2.391 -0.4573  0.8436  0.2140
 3900TIP3    H111706   5.531   5.140   2.479 -0.2162  2.8079  0.3494
 3900TIP3    H211707   5.568   5.149   2.332 -0.5319  0.8974  0.1188
 3901TIP3   OH211708   0.469   0.017   0.891  0.3756  0.3445 -0.1224
 3901TIP3    H111709   0.428   0.102   0.906  1.3292  0.8991 -0.5512
 3901TIP3    H211710   0.548   0.018   0.944 -0.3314 -0.8716  1.0119
 3902TIP3   OH211711   2.934   0.614   0.969  0.5195  0.0378  0.3154
 3902TIP3    H111712   2.841   0.597   0.978 -0.0682  1.5431 -1.8552
 3902TIP3    H211713   2.962   0.559   0.895  1.3942 -0.5223  1.0455
 3903TIP3   OH211714   0.374   2.988   2.275 -0.0084 -0.5120 -0.0776
 3903TIP3    H111715   0.320   3.041   2.334  0.0292 -0.5768  0.0150
 3903TIP3    H211716   0.390   3.045   2.200 -0.7386 -0.7113 -0.3971
 3904TIP3   OH211717   5.919   4.851   2.815 -0.2911  0.0239  0.6906
 3904TIP3    H111718   5.928   4.941   2.784  0.9342 -0.7060 -1.2510
 3904TIP3    H211719   5.991   4.840   2.878 -0.3089  0.3307  0.7646
 3905TIP3   OH211720   4.030   3.300   4.779 -0.1383  0.2041  0.3153
 3905TIP3    H111721   3.945   3.336   4.754  0.1057  0.5095 -0.0832
 3905TIP3    H211722   4.033   3.308   4.875 -1.0348 -0.8717  0.4623
 3906TIP3   OH211723   6.307   1.602   3.500  0.4868 -0.3892 -0.4556
 3906TIP3    H111724   6.284   1.572   3.412 -2.2828  0.0513  0.0374
 3906TIP3    H211725   6.238   1.567   3.556  2.2089 -0.6884  1.6013
 3907TIP3   OH211726   3.581   2.247   2.596 -0.0970 -0.1162 -0.8490
 3907TIP3    H111727   3.563   2.166   2.548  1.4309  0.1947 -2.0129
 3907TIP3    H211728   3.664   2.278   2.560 -0.2832  1.5877  0.1108
 3908TIP3   OH211729   5.556   1.819   0.178  0.1511 -0.4213 -0.2329
 3908TIP3    H111730   5.542   1.882   0.108 -1.2792 -1.6881 -1.1427
 3908TIP3    H211731   5.628   1.856   0.230  0.8507  0.8327 -2.0117
 3909TIP3   OH211732   2.489   3.861   0.663  0.2541 -0.3907  0.2124
 3909TIP3    H111733   2.526   3.929   0.606  1.0121 -2.2490 -1.6042
 3909TIP3    H211734   2.566   3.816   0.699 -0.2403 -1.0816  0.4201
 3910TIP3   OH211735   1.171   3.728   4.987 -0.3343 -0.2940  0.2060
 3910TIP3    H111736   1.238   3.778   5.033  0.2423 -0.1468 -0.7567
 3910TIP3    H211737   1.091   3.743   5.036  0.6175 -1.7866  2.3606
 3911TIP3   OH211738   1.658   2.236   3.401  0.0748  0.6594  0.5968
 3911TIP3    H111739   1.601   2.181   3.454  0.8868 -0.5704  0.2522
 3911TIP3    H211740   1.734   2.253   3.457  0.8605 -0.5119 -0.0513
 3912TIP3   OH211741   0.488   1.884   1.904 -0.3808 -0.1448  0.3885
 3912TIP3    H111742   0.465   1.875   1.811  1.3767  0.9262 -0.1944
 3912TIP3    H211743   0.466   1.799   1.942 -1.6999 -0.4113 -0.8575
 3913TIP3   OH211744   4.139   5.511   0.669 -0.6117  0.3426 -0.1755
 3913TIP3    H111745   4.084   5.491   0.593 -0.7063 -1.4083  0.3111
 3913TIP3    H211746   4.083   5.490   0.744  0.3350 -0.4320  0.3314
 3914TIP3   OH211747   1.254   0.704   1.377  0.2434  0.5588  0.1779
 3914TIP3    H111748   1.278   0.686   1.286 -2.5310 -0.8512 -0.3906
 3914TIP3    H211749   1.188   0.638   1.398 -0.6892  2.1106  2.5582
 3915TIP3   OH211750   4.935   3.813   2.886  0.0346 -0.4578  0.5351
 3915TIP3    H111751   4.976   3.744   2.939  0.9362 -0.8506 -0.6312
 3915TIP3    H211752   4.888   3.867   2.950  3.5364  0.8925  2.2282
 3916TIP3   OH211753   0.895   0.450   3.081  0.2565 -0.4261  0.1505
 3916TIP3    H111754   0.847   0.532   3.069 -0.2838 -0.7457  0.1081
 3916TIP3    H211755   0.900   0.413   2.993 -0.2176 -0.8346  0.2929
 3917TIP3   OH211756   4.969   2.150   1.672  0.2724 -0.5475 -0.4423
 3917TIP3    H111757   4.951   2.199   1.592  0.4179  0.2318 -0.0029
 3917TIP3    H211758   5.055   2.182   1.700 -0.6976  0.7392  1.1747
 3918TIP3   OH211759   2.703   3.764   2.543  0.3494 -0.3929 -0.2470
 3918TIP3    H111760   2.726   3.707   2.617 -0.6636 -0.2873  0.1609
 3918TIP3    H211761   2.634   3.718   2.497 -0.6117  0.5598  0.1902
 3919TIP3   OH211762   5.691   5.661   0.994 -0.2427  0.4275  0.0529
 3919TIP3    H111763   5.652   5.574   0.992 -0.4250  0.3723  2.7137
 3919TIP3    H211764   5.758   5.660   0.925 -0.8910 -1.4566 -0.5986
 3920TIP3   OH211765   2.339   3.354   0.112 -0.2040 -0.0235 -0.0210
 3920TIP3    H111766   2.406   3.422   0.107  0.4172 -0.6668 -0.6064
 3920TIP3    H211767   2.284   3.381   0.186  0.3846  0.7885  0.1440
 3921TIP3   OH211768   1.005   0.724   3.248  1.1861 -0.0543  0.8800
 3921TIP3    H111769   1.038   0.642   3.285 -2.5988 -1.6517  1.2337
 3921TIP3    H211770   0.993   0.704   3.155 -1.4307 -0.6989  1.2648
 3922TIP3   OH211771   3.677   3.859   0.776  0.4542  0.1834 -0.1797
 3922TIP3    H111772   3.739   3.865   0.704  2.1848  0.5564  1.2638
 3922TIP3    H211773   3.727   3.884   0.853 -1.7214  1.2686  0.9742
 3923TIP3   OH211774   2.895   3.762   4.732 -0.0901 -0.5282 -0.2971
 3923TIP3    H111775   2.887   3.847   4.689  1.8533  0.1876  0.6500
 3923TIP3    H211776   2.868   3.779   4.823  2.8195 -0.2078  0.5949
 3924TIP3   OH211777   5.052   3.015   3.142 -0.0434 -0.0190 -0.2682
 3924TIP3    H111778   5.118   2.990   3.207 -0.3000  0.8457  0.3407
 3924TIP3    H211779   4.980   2.953   3.155  0.1704 -0.2421 -0.1502
 3925TIP3   OH211780   4.271   0.087   2.377  0.4869 -0.2156  0.5181
 3925TIP3    H111781   4.298   0.177   2.360  1.5700 -0.5530  0.4275
 3925TIP3    H211782   4.304   0.036   2.303 -0.1968 -0.6823  0.5181
 3926TIP3   OH211783   3.718   1.019   0.541 -0.2054  0.1063 -0.4054
 3926TIP3    H111784   3.704   0.926   0.559  0.5665  0.0564  0.0169
 3926TIP3    H211785   3.811   1.033   0.562 -0.2516  0.9144 -0.7102
 3927TIP3   OH211786   5.558   3.087   0.839  0.0776  0.1219 -0.0984
 3927TIP3    H111787   5.515   3.034   0.906  0.8792  0.7925  0.9913
 3927TIP3    H211788   5.508   3.169   0.837 -0.4358 -0.2008 -0.9192
 3928TIP3   OH211789   2.105   0.025   3.104  0.3476 -0.1809  0.2371
 3928TIP3    H111790   2.194   0.028   3.071 -0.2077  1.9985 -1.2841
 3928TIP3    H211791   2.105   0.084   3.179 -0.1067  0.9536 -0.6383
 3929TIP3   OH211792   2.819   3.526   1.908 -0.2483  0.3336 -0.0094
 3929TIP3    H111793   2.870   3.575   1.844 -0.5147 -0.3533 -0.7582
 3929TIP3    H211794   2.862   3.545   1.992  0.8055  0.3437 -0.5250
 3930TIP3   OH211795   3.312   0.016   4.193  0.0130 -0.5374  0.2390
 3930TIP3    H111796   3.399   0.042   4.222  0.2651  0.1304 -1.0075
 3930TIP3    H211797   3.323  -0.006   4.100 -1.6182  2.4488 -0.8108
 3931TIP3   OH211798   3.681   4.081   4.080 -0.0037  0.3309 -0.0619
 3931TIP3    H111799   3.675   4.174   4.099 -1.4724  0.0409  1.0511
 3931TIP3    H211800   3.685   4.039   4.166  0.5184 -0.6534 -0.5397
 3932TIP3   OH211801   3.127   2.742   1.968  0.1926 -0.0748 -0.6358
 3932TIP3    H111802   3.203   2.779   1.924 -0.8452  2.0925 -0.7095
 3932TIP3    H211803   3.138   2.647   1.959  2.6336  0.1824 -1.0138
 3933TIP3   OH211804   3.874   5.352   4.620 -0.2747 -0.0464 -0.2270
 3933TIP3    H111805   3.808   5.333   4.687  1.2279 -0.0626  1.3331
 3933TIP3    H211806   3.857   5.290   4.550 -0.7477 -1.3520  0.9891
 3934TIP3   OH211807   5.632   5.433   0.541 -0.4680 -0.7617  0.4480
 3934TIP3    H111808   5.590   5.488   0.475 -1.2345  0.1235  1.6538
 3934TIP3    H211809   5.604   5.469   0.625  0.3530 -1.9724  1.2774
 3935TIP3   OH211810   5.691   0.286   4.247  0.3396  0.1438 -0.1466
 3935TIP3    H111811   5.607   0.326   4.270  0.0683  0.0819 -0.9732
 3935TIP3    H211812   5.717   0.238   4.325  0.5640  1.7320  0.8047
 3936TIP3   OH211813   6.157   1.273   3.260 -0.1516  0.1055 -0.0927
 3936TIP3    H111814   6.061   1.271   3.263 -0.3494  1.4834 -2.5833
 3936TIP3    H211815   6.180   1.203   3.199  0.5054 -0.5584  0.8862
 3937TIP3   OH211816   0.404   3.385   3.046  0.4582  0.2445 -0.3840
 3937TIP3    H111817   0.385   3.475   3.073 -0.8851 -0.4932  1.3145
 3937TIP3    H211818   0.341   3.367   2.976  2.7042  1.5391 -2.9044
 3938TIP3   OH211819   6.161   4.401   2.363 -0.6207 -0.5852 -0.5622
 3938TIP3    H111820   6.082   4.441   2.400 -0.9658 -2.3632  0.7579
 3938TIP3    H211821   6.229   4.418   2.428 -1.3295 -4.1044  1.3764
 3939TIP3   OH211822   3.395   2.485   1.338  0.1257  0.1083 -0.3034
 3939TIP3    H111823   3.300   2.482   1.354  0.2148 -0.2945  0.1737
 3939TIP3    H211824   3.413   2.576   1.317 -0.0074  0.6941  1.8996
 3940TIP3   OH211825   3.996   4.220   3.785  0.0534 -0.0167  0.4475
 3940TIP3    H111826   3.931   4.190   3.722  1.2703  1.6036 -1.7175
 3940TIP3    H211827   3.953   4.289   3.835 -0.0556  0.7023 -0.6287
 3941TIP3   OH211828   4.610   1.764   1.575  0.4539 -0.0989  0.2634
 3941TIP3    H111829   4.602   1.850   1.617  0.3343  0.0836 -0.1237
 3941TIP3    H211830   4.704   1.752   1.563  0.6407 -0.9540  2.1935
 3942TIP3   OH211831   2.852   2.558   1.762  0.1149 -0.4880 -0.1350
 3942TIP3    H111832   2.813   2.471   1.761 -0.7877 -0.1343  1.0727
 3942TIP3    H211833   2.777   2.618   1.772  0.8248  0.3006  0.7141
 3943TIP3   OH211834   1.337   5.760   4.758  0.2178 -0.0534  0.1351
 3943TIP3    H111835   1.427   5.746   4.785  0.0071  1.3117  1.7620
 3943TIP3    H211836   1.323   5.854   4.769 -0.4966  0.3530 -3.1909
 3944TIP3   OH211837   0.188   3.805   3.804 -0.1734  0.1153 -0.3926
 3944TIP3    H111838   0.255   3.755   3.759 -0.0203  1.2858 -1.5192
 3944TIP3    H211839   0.237   3.868   3.857 -0.3657  0.5917 -0.7746
 3945TIP3   OH211840   2.960   5.180   2.142  0.0357 -0.4206 -0.0736
 3945TIP3    H111841   2.946   5.221   2.228  1.3218  1.3931 -0.6701
 3945TIP3    H211842   2.883   5.205   2.091 -1.1279 -2.1706  0.7262
 3946TIP3   OH211843   4.755   0.439   2.706  0.0563  0.5869  0.2100
 3946TIP3    H111844   4.712   0.368   2.658 -0.4731  1.2359 -0.2899
 3946TIP3    H211845   4.745   0.516   2.650 -0.0911  1.2378  1.1070
 3947TIP3   OH211846   2.924   2.370   0.498  0.3621  0.4576  0.2144
 3947TIP3    H111847   2.860   2.372   0.569 -0.5585  1.4361 -0.6167
 3947TIP3    H211848   3.009   2.380   0.542  0.0485 -1.4909  1.3872
 3948TIP3   OH211849   6.049   3.565   5.120  0.0733  0.0491 -0.6380
 3948TIP3    H111850   6.040   3.607   5.206  1.2995 -2.4784  0.8411
 3948TIP3    H211851   6.126   3.606   5.081 -1.2522  2.1699 -1.2366
 3949TIP3   OH211852   0.101   4.656   2.116  0.6907 -0.3751  0.1618
 3949TIP3    H111853   0.073   4.738   2.157  0.4760 -0.5318  0.3296
 3949TIP3    H211854   0.022   4.601   2.116  0.9625 -0.7691  0.5045
 3950TIP3   OH211855   4.532   3.300   4.011  0.5066 -0.5931 -0.4116
 3950TIP3    H111856   4.538   3.269   3.920 -2.3191 -0.0159 -0.9094
 3950TIP3    H211857   4.529   3.395   4.004 -0.8420 -0.5643  0.1251
 3951TIP3   OH211858   1.435   3.251   2.774 -0.3713 -0.3967  1.0253
 3951TIP3    H111859   1.403   3.336   2.745  0.0447 -0.6089 -0.1186
 3951TIP3    H211860   1.530   3.262   2.779 -0.3082 -0.8045  0.7993
 3952TIP3   OH211861   6.303   0.942   3.403 -0.4404 -0.1279  0.1982
 3952TIP3    H111862   6.270   0.893   3.478  1.8361 -1.3426  0.4628
 3952TIP3    H211863   6.265   0.898   3.327 -2.9243  1.2318  0.5313
 3953TIP3   OH211864   0.027   0.489   0.487 -0.1348 -0.1140  0.2757
 3953TIP3    H111865  -0.010   0.527   0.407  1.4197 -0.7291 -0.7741
 3953TIP3    H211866   0.056   0.565   0.537  1.4873  0.2044 -1.0770
 3954TIP3   OH211867   1.237   5.667   3.120 -0.1441  0.0761  0.1562
 3954TIP3    H111868   1.229   5.745   3.175 -0.3444 -0.4504  0.8738
 3954TIP3    H211869   1.222   5.700   3.031 -0.3141  0.8409  0.4577
 3955TIP3   OH211870   6.132   3.586   1.533  0.2918  0.7339 -0.3678
 3955TIP3    H111871   6.098   3.502   1.564  1.0219  0.7893  0.6254
 3955TIP3    H211872   6.225   3.571   1.518  0.3879  1.3047 -0.3967
 3956TIP3   OH211873   4.633   3.768   3.087 -0.5019 -0.0712 -0.3183
 3956TIP3    H111874   4.667   3.846   3.043  1.1725 -0.0366  0.9277
 3956TIP3    H211875   4.668   3.773   3.176 -2.3573 -1.0177  0.5386
 3957TIP3   OH211876   2.719   4.171   2.691  0.2117  0.0468 -0.3612
 3957TIP3    H111877   2.630   4.139   2.706  0.6987 -1.1902 -0.0277
 3957TIP3    H211878   2.719   4.260   2.726 -0.1408 -0.8918  2.2041
 3958TIP3   OH211879   6.124   3.246   0.218  0.1379  0.5435 -0.1083
 3958TIP3    H111880   6.170   3.209   0.293 -1.8883 -0.5127  0.7038
 3958TIP3    H211881   6.111   3.171   0.159 -1.3733  0.5462  0.1681
 3959TIP3   OH211882   2.188   5.637   2.718 -0.0128 -0.2256  0.1915
 3959TIP3    H111883   2.189   5.591   2.634 -2.2836 -1.7073  0.8600
 3959TIP3    H211884   2.277   5.669   2.729 -0.1420  2.1061 -3.8170
 3960TIP3   OH211885   1.052   5.930   2.958 -0.4276  0.4555  0.7716
 3960TIP3    H111886   1.070   5.923   3.052 -0.4897  1.2988  0.8495
 3960TIP3    H211887   1.082   6.018   2.934  0.8809 -0.2468 -0.2898
 3961TIP3   OH211888   3.146   0.594   4.279 -0.3460 -0.0352  0.0999
 3961TIP3    H111889   3.235   0.574   4.250 -0.3841  0.7007 -0.5457
 3961TIP3    H211890   3.102   0.629   4.201 -1.4910 -1.2718  0.1494
 3962TIP3   OH211891   4.101   2.996   1.899  0.1524 -0.6304  0.1103
 3962TIP3    H111892   4.143   2.931   1.956  0.5926  0.1866  0.7382
 3962TIP3    H211893   4.020   3.018   1.944  0.3964 -0.1476  0.3307
 3963TIP3   OH211894   3.005   2.866   4.619  0.6691  0.1466  0.4119
 3963TIP3    H111895   2.912   2.841   4.621  0.5737  0.4222  2.6970
 3963TIP3    H211896   3.029   2.860   4.527 -0.9767 -2.3272  0.0129
 3964TIP3   OH211897   2.468   3.145   5.004  0.6880 -0.1017 -0.4735
 3964TIP3    H111898   2.499   3.229   5.039  1.3372 -0.2326 -0.7149
 3964TIP3    H211899   2.520   3.079   5.050  0.7063 -0.3321 -0.8170
 3965TIP3   OH211900   5.071   4.144   1.339  0.0991 -0.2568  0.1779
 3965TIP3    H111901   5.037   4.233   1.350 -0.2885 -0.4268  0.3817
 3965TIP3    H211902   5.081   4.134   1.244  0.8491  0.2576  0.1919
 3966TIP3   OH211903   4.850   0.763   2.981  0.4946 -0.2050 -0.1549
 3966TIP3    H111904   4.781   0.730   2.924 -0.3294 -0.2652  0.8421
 3966TIP3    H211905   4.811   0.763   3.068  1.8961 -0.6227  0.5009
 3967TIP3   OH211906   4.430   0.104   4.286 -0.2155  0.6341 -0.2656
 3967TIP3    H111907   4.341   0.100   4.321 -0.1859 -0.3932 -0.2781
 3967TIP3    H211908   4.453   0.013   4.266  0.8058  0.8878 -0.3434
 3968TIP3   OH211909   5.112   3.407   5.027  0.0037  0.3241  0.8044
 3968TIP3    H111910   5.052   3.333   5.032  0.4144  0.0101  1.1193
 3968TIP3    H211911   5.199   3.370   5.044  0.7412  0.2687 -2.5607
 3969TIP3   OH211912   4.791   0.673   0.381  0.4099 -0.6214 -0.0559
 3969TIP3    H111913   4.847   0.689   0.457 -1.4536 -2.2085  1.7676
 3969TIP3    H211914   4.848   0.631   0.318  1.6349 -0.8274  1.1448
 3970TIP3   OH211915   4.185   2.002   0.970  0.5947 -0.5625 -0.3422
 3970TIP3    H111916   4.269   1.959   0.985  0.0755 -1.7276 -0.6477
 3970TIP3    H211917   4.199   2.057   0.893  1.7364  1.1652  1.0385
 3971TIP3   OH211918   1.530   4.892   1.967  0.3609 -0.4962  0.3495
 3971TIP3    H111919   1.459   4.955   1.981 -2.3085 -2.9864 -0.9875
 3971TIP3    H211920   1.542   4.849   2.052  1.8719  1.3227  1.1423
 3972TIP3   OH211921   5.347   4.098   1.195  0.2807 -0.6964 -0.2277
 3972TIP3    H111922   5.278   4.109   1.130  1.0262 -0.8871 -1.0787
 3972TIP3    H211923   5.372   4.187   1.219  0.2654 -0.6209 -0.4922
 3973TIP3   OH211924   0.815   0.320   1.463  0.4693 -0.1450 -0.3460
 3973TIP3    H111925   0.838   0.274   1.544  1.5873 -1.1223 -1.1932
 3973TIP3    H211926   0.737   0.274   1.432  0.7771 -0.5939 -0.4709
 3974TIP3   OH211927   5.024   1.555   3.254 -0.2255 -0.8607 -0.3803
 3974TIP3    H111928   4.961   1.490   3.221 -2.3140  1.0936 -0.4402
 3974TIP3    H211929   4.972   1.613   3.309  1.7299  0.3712  0.2622
 3975TIP3   OH211930   2.168   4.216   2.351  0.5463  0.3108  0.3309
 3975TIP3    H111931   2.155   4.140   2.293  0.9074  0.9986 -0.6777
 3975TIP3    H211932   2.263   4.224   2.357  0.5103  1.0334 -0.0381
 3976TIP3   OH211933   5.393   3.987   1.731  0.3425  0.3058  0.5172
 3976TIP3    H111934   5.330   4.030   1.673  0.7694 -2.1858 -2.0382
 3976TIP3    H211935   5.471   4.043   1.728 -0.2972  1.2009  0.2417
 3977TIP3   OH211936   2.756   0.307   3.124  1.5410 -0.5818  0.3190
 3977TIP3    H111937   2.716   0.395   3.125  0.4457 -1.0608  0.7768
 3977TIP3    H211938   2.849   0.323   3.109  1.5677  0.7603  1.6412
 3978TIP3   OH211939   0.724   4.888   2.398 -0.1437 -0.0490  0.4096
 3978TIP3    H111940   0.732   4.978   2.368 -0.5973 -0.0931  0.1472
 3978TIP3    H211941   0.691   4.840   2.322  0.9755 -0.6189  0.2630
 3979TIP3   OH211942   3.550   0.165   3.953 -0.3768 -0.3403  0.1569
 3979TIP3    H111943   3.628   0.162   4.009  0.3461  1.9511 -0.6171
 3979TIP3    H211944   3.488   0.220   4.001 -1.8298 -2.5924  1.0255
 3980TIP3   OH211945   2.693   5.552   4.346 -0.1873  0.1986  0.1372
 3980TIP3    H111946   2.622   5.589   4.398 -0.9970 -2.5948  1.1590
 3980TIP3    H211947   2.694   5.605   4.266 -2.1605  1.4822  0.9018
 3981TIP3   OH211948   4.669   5.102   4.417  0.0587 -0.1866  0.2037
 3981TIP3    H111949   4.683   5.195   4.434  1.1604 -0.3398  0.1527
 3981TIP3    H211950   4.574   5.094   4.408 -0.0283  0.9742 -0.0524
 3982TIP3   OH211951   4.820   0.886   3.233  0.1295  0.0644 -0.3510
 3982TIP3    H111952   4.912   0.893   3.207  0.3052 -1.1902 -0.1426
 3982TIP3    H211953   4.823   0.843   3.319 -0.6447  0.2269 -0.2365
 3983TIP3   OH211954   5.795   0.195   3.196  0.1000  0.1221  0.1898
 3983TIP3    H111955   5.759   0.187   3.108  2.4391  1.4168 -0.9682
 3983TIP3    H211956   5.756   0.275   3.231 -1.3903 -0.7800  0.6551
 3984TIP3   OH211957   1.026   3.480   4.608  0.2804 -0.0077  0.1977
 3984TIP3    H111958   1.089   3.517   4.670  1.2323 -0.3268 -0.5574
 3984TIP3    H211959   0.977   3.556   4.576  1.8353  0.5872 -0.9138
 3985TIP3   OH211960   0.001   0.846   3.916 -0.2230  0.4298  0.1843
 3985TIP3    H111961   0.044   0.882   3.839 -0.0863  0.1314  0.1209
 3985TIP3    H211962  -0.015   0.922   3.972 -0.4571  0.6653 -0.1995
 3986TIP3   OH211963   2.913   4.354   3.061  0.5210  0.0014 -0.1831
 3986TIP3    H111964   2.825   4.349   3.098  0.0251 -1.4805 -1.4300
 3986TIP3    H211965   2.900   4.380   2.970  1.5712  1.8302  0.1412
 3987TIP3   OH211966   0.218   3.547   2.431  0.2841  0.1525  0.4468
 3987TIP3    H111967   0.240   3.458   2.460 -0.4776 -0.5879 -1.1661
 3987TIP3    H211968   0.160   3.580   2.500 -0.2354 -0.9848  0.5904
 3988TIP3   OH211969   5.958   3.513   4.643  0.4283  0.2777 -0.0119
 3988TIP3    H111970   6.035   3.468   4.610  1.0401  0.8530  0.5952
 3988TIP3    H211971   5.888   3.448   4.640  0.9736 -0.2889 -0.4375
 3989TIP3   OH211972   1.370   1.574   0.763  0.1858  0.3956  1.1678
 3989TIP3    H111973   1.378   1.663   0.798  1.4013  0.7826  0.0129
 3989TIP3    H211974   1.435   1.571   0.692  0.0990 -1.3922  1.1328
 3990TIP3   OH211975   0.934   5.425   0.225  0.3417  0.1318  0.3462
 3990TIP3    H111976   0.984   5.451   0.147  2.3929 -1.4997  1.0202
 3990TIP3    H211977   0.953   5.332   0.235 -0.8773  0.0369  2.1178
 3991TIP3   OH211978   3.608   2.440   4.174 -0.0002 -0.2559 -0.1121
 3991TIP3    H111979   3.624   2.520   4.124 -1.0529 -0.0772 -0.1925
 3991TIP3    H211980   3.617   2.370   4.110 -0.4230 -0.0953 -0.3501
 3992TIP3   OH211981   5.518   0.347   4.617 -0.2493 -0.5701 -0.0766
 3992TIP3    H111982   5.496   0.266   4.572  2.2187 -1.3714  0.0305
 3992TIP3    H211983   5.433   0.384   4.643 -1.5182 -2.0954 -1.8304
 3993TIP3   OH211984   0.716   5.520   0.642 -0.3383  0.2962  0.0405
 3993TIP3    H111985   0.674   5.434   0.638  0.6901 -0.1913 -1.0966
 3993TIP3    H211986   0.644   5.583   0.636 -1.1277 -0.4615  1.1347
 3994TIP3   OH211987   1.093   4.548   3.984 -0.2625 -0.5245  0.7374
 3994TIP3    H111988   1.093   4.640   3.959 -2.2941 -1.2636 -2.7036
 3994TIP3    H211989   1.008   4.533   4.025 -0.5397 -1.1093 -0.0219
 3995TIP3   OH211990   3.804   1.110   3.486  0.8074  0.1543 -0.5233
 3995TIP3    H111991   3.760   1.040   3.534 -1.5149  1.9684  0.2369
 3995TIP3    H211992   3.764   1.108   3.398  1.9614 -0.5010 -1.0480
 3996TIP3   OH211993   4.673   2.918   2.865 -0.1686  0.3222  0.1253
 3996TIP3    H111994   4.710   2.849   2.921  0.0305 -1.5287 -2.1181
 3996TIP3    H211995   4.749   2.955   2.820 -0.3894  1.4011  0.5944
 3997TIP3   OH211996   2.289   0.505   1.365 -0.2511 -0.0684 -0.1782
 3997TIP3    H111997   2.228   0.574   1.340  1.5212  1.3071 -0.9493
 3997TIP3    H211998   2.266   0.431   1.310  0.8166  1.5063 -2.9418
 3998TIP3   OH211999   5.832   2.291   3.021  0.0370  0.0596  0.1176
 3998TIP3    H112000   5.822   2.197   3.004 -0.0830  0.4479 -2.4259
 3998TIP3    H212001   5.743   2.326   3.013  0.0924  0.4084  0.9930
 3999TIP3   OH212002   4.676   2.407   3.462 -0.1048  0.4260 -0.1504
 3999TIP3    H112003   4.716   2.391   3.377  0.9788 -3.1258  0.8477
 3999TIP3    H212004   4.748   2.440   3.516 -0.9018  3.1529 -0.6287
 4000TIP3   OH212005   5.080   5.661   3.739 -0.5456  0.4518  0.3048
 4000TIP3    H112006   5.157   5.624   3.782 -1.5170 -0.4909  1.2745
 4000TIP3    H212007   5.100   5.755   3.730  0.4983  0.3007  0.9906
 4001TIP3   OH212008   0.905   3.961   0.914  0.2585  0.3402  0.4692
 4001TIP3    H112009   0.997   3.966   0.888  0.3264 -1.8684  0.0488
 4001TIP3    H212010   0.858   3.944   0.833 -0.3723  0.2522  0.8461
 4002TIP3   OH212011   5.969   2.894   2.814 -0.3831 -0.0415  0.2046
 4002TIP3    H112012   5.934   2.851   2.736 -0.3125  1.8076 -0.9190
 4002TIP3    H212013   6.055   2.927   2.787 -1.0564  2.0881  0.4753
 4003TIP3   OH212014   2.881   5.108   4.228 -0.4847  0.6059 -0.0486
 4003TIP3    H112015   2.792   5.132   4.255 -0.2637  0.6295  0.6862
 4003TIP3    H212016   2.918   5.188   4.191 -0.6328  0.7000  0.0071
 4004TIP3   OH212017   2.098   1.363   2.596  0.2664 -0.1914  0.0223
 4004TIP3    H112018   2.166   1.301   2.623  1.4311  0.6449 -0.8909
 4004TIP3    H212019   2.143   1.424   2.538 -0.4810  2.4492  2.0410
 4005TIP3   OH212020   0.995   4.326   1.952 -0.4163 -0.0391 -0.8367
 4005TIP3    H112021   1.020   4.275   1.875 -1.8490 -0.1478 -1.2632
 4005TIP3    H212022   0.911   4.288   1.979  0.3525 -0.4315  1.1861
 4006TIP3   OH212023   0.235   1.173   2.007  0.1227 -0.2432 -0.6664
 4006TIP3    H112024   0.227   1.269   2.011 -0.3728 -0.3405  2.1012
 4006TIP3    H212025   0.328   1.157   2.021  0.3334 -0.1837 -1.8695
 4007TIP3   OH212026   2.934   4.758   1.029 -0.0241 -0.2569  0.1031
 4007TIP3    H112027   3.004   4.768   0.964  0.8008  0.2506  1.0389
 4007TIP3    H212028   2.919   4.846   1.062  0.2590 -0.6403  1.2883
 4008TIP3   OH212029   3.022   1.377   4.541 -0.0402 -0.2736 -0.8244
 4008TIP3    H112030   2.937   1.333   4.549  0.3563 -0.9062  0.1172
 4008TIP3    H212031   3.017   1.426   4.458 -1.5300  0.1831 -0.4837
 4009TIP3   OH212032   2.454   2.245   1.940 -0.3248 -0.5902  0.2197
 4009TIP3    H112033   2.442   2.173   2.002 -1.6059 -1.7853 -1.3635
 4009TIP3    H212034   2.397   2.225   1.867 -0.2040  1.7080 -0.5991
 4010TIP3   OH212035   4.835   3.481   0.090  0.1829  0.4180 -0.0131
 4010TIP3    H112036   4.922   3.512   0.068  0.0307 -0.0241 -1.3283
 4010TIP3    H212037   4.776   3.530   0.033 -0.1505 -1.3765 -1.3123
 4011TIP3   OH212038   2.908   5.340   0.187 -0.1383  0.1043 -0.2656
 4011TIP3    H112039   2.877   5.387   0.265  0.9302  0.2870  0.0684
 4011TIP3    H212040   2.888   5.248   0.205 -0.6570  0.2309 -0.1547
 4012TIP3   OH212041   0.589   0.828   0.952  0.2204 -0.1779  0.6003
 4012TIP3    H112042   0.598   0.882   0.874 -1.1572 -2.1446 -1.0050
 4012TIP3    H212043   0.646   0.752   0.936 -1.8623 -1.7690  0.3481
 4013TIP3   OH212044   3.031   3.180   3.199 -0.1776 -0.3523  0.1621
 4013TIP3    H112045   3.122   3.167   3.229  0.4695  1.0557 -1.0807
 4013TIP3    H212046   3.039   3.234   3.121 -1.8383 -3.3815 -2.3341
 4014TIP3   OH212047   5.572   2.159   4.311  0.5717  0.2267 -0.0296
 4014TIP3    H112048   5.500   2.139   4.251 -1.1797  2.2897  1.2644
 4014TIP3    H212049   5.600   2.248   4.286  2.4097 -0.3532 -0.2010
 4015TIP3   OH212050   0.118   0.163   1.578  0.6211  0.1884 -0.0126
 4015TIP3    H112051   0.193   0.105   1.567  2.0450  1.9719 -0.2178
 4015TIP3    H212052   0.052   0.129   1.518  1.0357 -1.7276  0.5456
 4016TIP3   OH212053   6.137   1.197   4.025 -0.3494 -0.1464  0.3073
 4016TIP3    H112054   6.153   1.129   4.091 -0.4154  0.4028  0.9019
 4016TIP3    H212055   6.131   1.150   3.942  1.3348 -0.6830  0.4623
 4017TIP3   OH212056   3.063   5.133   1.354  0.2480  0.7974 -0.1820
 4017TIP3    H112057   2.996   5.170   1.297  1.0064  2.3438 -0.1225
 4017TIP3    H212058   3.141   5.125   1.298 -0.3845 -2.7884 -0.7971
 4018TIP3   OH212059   5.920   4.540   1.448 -0.5116  0.3244 -0.6121
 4018TIP3    H112060   5.835   4.523   1.406 -2.1055  3.2804  1.1064
 4018TIP3    H212061   5.900   4.550   1.541  2.1689 -1.1974  0.2408
 4019TIP3   OH212062   5.985   2.599   3.060  0.0540  0.2933 -0.1250
 4019TIP3    H112063   6.065   2.550   3.080 -0.0379  0.0436 -0.3746
 4019TIP3    H212064   5.955   2.564   2.977  0.3214  1.1876 -0.6158
 4020TIP3   OH212065   5.282   3.032   4.042 -0.3292 -0.3083  0.1713
 4020TIP3    H112066   5.362   3.056   4.089 -0.5276 -1.1229  0.9308
 4020TIP3    H212067   5.305   2.952   3.995  0.4587  1.4079 -2.6883
 4021TIP3   OH212068   1.817   2.774   3.069 -0.0235  0.7576  0.2881
 4021TIP3    H112069   1.838   2.864   3.095 -0.6894  1.1642 -0.5430
 4021TIP3    H212070   1.771   2.784   2.986  0.5604 -0.4015 -0.1833
 4022TIP3   OH212071   5.822   2.351   3.769 -0.3225  0.0867  0.5907
 4022TIP3    H112072   5.849   2.425   3.715 -0.8408 -1.4786 -2.0139
 4022TIP3    H212073   5.903   2.312   3.800  0.1262 -0.1529 -0.8201
 4023TIP3   OH212074   3.017   0.528   1.958  0.1220  0.2651  0.1475
 4023TIP3    H112075   2.929   0.524   1.996 -1.2869  1.4505 -2.7008
 4023TIP3    H212076   3.012   0.597   1.892  2.8604 -0.4447 -0.9595
 4024TIP3   OH212077   1.209   0.617   2.332  0.3112  0.1198  0.1464
 4024TIP3    H112078   1.130   0.564   2.339  0.1891  0.2491 -0.1976
 4024TIP3    H212079   1.180   0.695   2.284  0.2953  0.8751  1.3538
 4025TIP3   OH212080   3.817   2.256   1.097  0.0075 -0.3082  0.4296
 4025TIP3    H112081   3.879   2.260   1.024 -0.9691 -0.1161 -0.3963
 4025TIP3    H212082   3.771   2.173   1.086  0.3060 -0.5934  1.2200
 4026TIP3   OH212083   0.806   0.593   0.303  0.0674 -0.3207 -0.3425
 4026TIP3    H112084   0.817   0.502   0.331  1.4216  1.0146  4.3432
 4026TIP3    H212085   0.893   0.632   0.312 -0.7487  1.7750 -0.8840
 4027TIP3   OH212086   1.606   5.013   3.302 -0.0799 -0.5817 -0.3639
 4027TIP3    H112087   1.566   5.082   3.250  0.6161 -0.9703 -1.4731
 4027TIP3    H212088   1.685   4.988   3.252  0.1049 -1.6246  0.4007
 4028TIP3   OH212089   6.246   3.866   1.367  0.2247 -0.2464 -0.8319
 4028TIP3    H112090   6.225   3.876   1.460 -1.0659 -0.0677 -1.1159
 4028TIP3    H212091   6.178   3.916   1.322 -0.3831 -1.9856 -1.9392
 4029TIP3   OH212092   1.187   4.898   3.146  0.0057  0.6512 -0.5371
 4029TIP3    H112093   1.163   4.990   3.149 -1.2109  0.3294  0.1654
 4029TIP3    H212094   1.207   4.881   3.054 -2.7976  0.8975 -1.2691
 4030TIP3   OH212095   0.786   5.914   2.842 -0.2637  1.3465 -0.3072
 4030TIP3    H112096   0.871   5.954   2.863  1.6352 -1.6275 -1.6279
 4030TIP3    H212097   0.778   5.922   2.747  0.1201 -1.0767 -0.6037
 4031TIP3   OH212098   2.742   4.915   3.435 -0.0406  0.2824  0.0979
 4031TIP3    H112099   2.752   4.985   3.500 -0.9973  0.5615 -0.0355
 4031TIP3    H212100   2.784   4.839   3.475 -0.1786  0.5798  0.8334
 4032TIP3   OH212101   3.903   0.233   2.901 -0.7452  0.6257 -0.4125
 4032TIP3    H112102   3.911   0.236   2.805 -0.4853 -1.2023 -0.4772
 4032TIP3    H212103   3.812   0.256   2.918 -1.7529 -2.1842 -1.3926
 4033TIP3   OH212104   1.535   1.812   2.806 -0.2403  0.8301 -0.3829
 4033TIP3    H112105   1.539   1.898   2.765 -0.9295  0.8729 -0.3711
 4033TIP3    H212106   1.561   1.751   2.737 -2.3482  0.8046 -1.2294
 4034TIP3   OH212107   3.004   5.071   4.673  0.1846 -1.0825 -0.4915
 4034TIP3    H112108   2.976   4.986   4.638  1.0647 -0.7157 -2.1826
 4034TIP3    H212109   3.035   5.119   4.597  2.2015 -0.2272  0.7863
 4035TIP3   OH212110   1.100   4.597   2.825  0.5882 -0.2317 -0.0998
 4035TIP3    H112111   1.078   4.560   2.740  0.8841  1.0041 -0.7345
 4035TIP3    H212112   1.140   4.524   2.873  1.8562 -0.5624 -1.5746
 4036TIP3   OH212113   2.363   5.722   1.405  0.6789  0.3812  0.6083
 4036TIP3    H112114   2.277   5.721   1.361  0.0259 -1.8337  1.7550
 4036TIP3    H212115   2.350   5.777   1.482  0.4521  0.5324  0.4648
 4037TIP3   OH212116   3.318   2.699   3.494  0.0128 -0.3273 -0.0928
 4037TIP3    H112117   3.407   2.682   3.463  0.9206  0.1382  2.1040
 4037TIP3    H212118   3.292   2.779   3.447  1.7603  1.0004  1.0678
 4038TIP3   OH212119   2.899   2.880   0.166 -0.1273  0.2765  0.6226
 4038TIP3    H112120   2.967   2.946   0.153 -0.8782  1.0322  0.4493
 4038TIP3    H212121   2.833   2.900   0.099 -0.3965 -0.6155  0.6016
 4039TIP3   OH212122   2.381   0.973   4.275  0.3219 -0.2077 -0.1257
 4039TIP3    H112123   2.422   0.896   4.315 -0.1257  0.9067  2.7673
 4039TIP3    H212124   2.311   0.997   4.336 -0.8306  1.3713 -1.9489
 4040TIP3   OH212125   0.199   3.254   4.783  0.1794  0.2111  0.3231
 4040TIP3    H112126   0.109   3.259   4.813  0.3277 -0.0269  0.8085
 4040TIP3    H212127   0.229   3.345   4.783  0.3032  0.1780  1.2835
 4041TIP3   OH212128   1.170   1.770   0.314  0.3037 -0.3115  0.2421
 4041TIP3    H112129   1.177   1.813   0.229 -1.8109 -1.9434 -0.8875
 4041TIP3    H212130   1.184   1.677   0.295  0.4291 -0.6338  1.7861
 4042TIP3   OH212131   3.568   5.333   4.402  0.0698  0.4253  0.4651
 4042TIP3    H112132   3.543   5.243   4.424 -1.0626  0.7797  0.7013
 4042TIP3    H212133   3.659   5.326   4.373  0.3633 -0.6380  1.5211
 4043TIP3   OH212134   5.695   4.985   0.451 -0.0012  0.1023 -0.3988
 4043TIP3    H112135   5.616   5.038   0.445 -0.4649 -0.5704 -0.3626
 4043TIP3    H212136   5.692   4.929   0.373 -0.3122 -0.9306  0.3356
 4044TIP3   OH212137   4.149   3.737   3.379 -0.2393 -0.1506 -0.2856
 4044TIP3    H112138   4.172   3.674   3.311  2.1354 -2.1218  2.1437
 4044TIP3    H212139   4.225   3.795   3.385 -0.8830  0.6905 -0.0427
 4045TIP3   OH212140   6.042   4.756   4.107 -0.0225 -0.0719 -0.2962
 4045TIP3    H112141   6.032   4.799   4.192  0.4671  1.9327 -1.1897
 4045TIP3    H212142   6.026   4.663   4.125  1.8262  0.0096  2.3246
 4046TIP3   OH212143   5.950   0.897   4.335  0.3503  0.1294  0.0909
 4046TIP3    H112144   6.000   0.867   4.259 -1.1880 -0.2013 -0.8327
 4046TIP3    H212145   5.999   0.972   4.369  2.2064 -1.0280  0.1032
 4047TIP3   OH212146   5.743   4.989   0.098  0.2084 -0.5758 -0.2124
 4047TIP3    H112147   5.657   4.984   0.057 -0.3269 -0.3880  0.8457
 4047TIP3    H212148   5.749   4.910   0.151  0.5943 -0.4789 -0.1044
 4048TIP3   OH212149   3.494   2.441   4.889  0.2582 -0.4070  0.1529
 4048TIP3    H112150   3.498   2.379   4.816 -0.7808  0.6863 -0.8769
 4048TIP3    H212151   3.424   2.409   4.945 -0.3734 -0.0921 -0.4518
 4049TIP3   OH212152   4.802   2.056   3.267 -0.2688 -0.1260 -0.4948
 4049TIP3    H112153   4.778   2.000   3.341 -0.9844 -0.9062 -1.2980
 4049TIP3    H212154   4.887   2.092   3.291 -0.2453 -0.7922  0.4703
 4050TIP3   OH212155   5.403   1.711   5.050 -0.2546 -1.0055  0.3119
 4050TIP3    H112156   5.473   1.765   5.087 -0.9468  1.1062 -1.2442
 4050TIP3    H212157   5.387   1.644   5.116  2.9082 -1.3318  0.9306
 4051TIP3   OH212158   3.363   0.610   3.656  0.4251  0.3435 -0.6087
 4051TIP3    H112159   3.418   0.535   3.681 -2.7171 -1.6560  0.8841
 4051TIP3    H212160   3.309   0.578   3.584  1.4500  2.4418 -2.4336
 4052TIP3   OH212161   2.580   1.883   0.132 -0.3038 -0.2850 -0.5071
 4052TIP3    H112162   2.623   1.965   0.111  0.5748 -0.4323  0.6092
 4052TIP3    H212163   2.608   1.822   0.064  1.5939 -0.4730  0.3796
 4053TIP3   OH212164   0.308   1.707   1.470  0.3568 -0.2242 -0.1192
 4053TIP3    H112165   0.226   1.752   1.488 -0.0943 -0.6996 -0.9164
 4053TIP3    H212166   0.314   1.705   1.374  2.0156  1.0577 -0.0908
 4054TIP3   OH212167   4.548   2.043   5.021 -0.2175  0.3327 -0.0981
 4054TIP3    H112168   4.606   2.089   5.081  0.4289 -0.2487 -0.2645
 4054TIP3    H212169   4.556   1.950   5.045 -1.8418  0.3145  0.5335
 4055TIP3   OH212170   2.677   5.751   0.361 -0.5199  0.0339 -0.2811
 4055TIP3    H112171   2.755   5.799   0.388 -0.9935  0.1786  0.8544
 4055TIP3    H212172   2.606   5.789   0.412 -0.9856 -1.5414  0.2887
 4056TIP3   OH212173   5.098   5.873   2.357  0.6583  0.4528 -0.3302
 4056TIP3    H112174   5.051   5.853   2.438  0.9677  0.8935 -0.0378
 4056TIP3    H212175   5.186   5.896   2.386  0.7782  0.5850 -0.8001
 4057TIP3   OH212176   0.594   3.248   2.159 -0.0404 -0.0415 -0.1711
 4057TIP3    H112177   0.500   3.249   2.142  0.2983  0.0794 -2.3009
 4057TIP3    H212178   0.633   3.282   2.079  1.8921 -1.4557  0.1088
 4058TIP3   OH212179   3.902   5.337   4.111 -0.1843  0.3364  0.5374
 4058TIP3    H112180   3.852   5.329   4.030  2.4774 -1.4485 -1.1114
 4058TIP3    H212181   3.896   5.430   4.134 -4.1248  0.2591  0.5487
 4059TIP3   OH212182   1.796   3.680   0.925  0.1088 -0.2732 -0.0850
 4059TIP3    H112183   1.790   3.734   0.846 -0.7848  0.1157  0.2311
 4059TIP3    H212184   1.780   3.742   0.997  0.0706 -0.7767  0.3403
 4060TIP3   OH212185   4.234   1.414   1.031 -0.0008 -0.5554 -0.4149
 4060TIP3    H112186   4.305   1.463   0.990  1.4618 -2.9080 -0.8632
 4060TIP3    H212187   4.166   1.408   0.963 -0.7826  1.8176  0.0634
 4061TIP3   OH212188   0.742   3.633   3.300  0.7733  0.4360  0.1617
 4061TIP3    H112189   0.741   3.631   3.204 -1.4673  0.5006  0.1296
 4061TIP3    H212190   0.835   3.634   3.323  1.3875 -0.5867 -1.9774
 4062TIP3   OH212191   4.273   2.813   2.459 -0.1543  0.2296 -0.4250
 4062TIP3    H112192   4.267   2.879   2.528  2.5333  2.6443 -2.2574
 4062TIP3    H212193   4.359   2.773   2.472 -0.5878 -0.9636 -1.0239
 4063TIP3   OH212194   4.923   3.294   1.406  0.0376  0.5390 -0.0329
 4063TIP3    H112195   4.890   3.384   1.402 -0.7525  0.2450 -0.6214
 4063TIP3    H212196   4.972   3.283   1.324 -0.6912  0.1492 -0.4344
 4064TIP3   OH212197   2.154   1.031   3.551 -0.4753  0.0929  0.5599
 4064TIP3    H112198   2.080   1.074   3.508 -0.5242 -0.6229 -0.0913
 4064TIP3    H212199   2.169   1.083   3.630 -1.2793  0.6097  0.3872
 4065TIP3   OH212200   4.532   4.348   0.485  0.4307 -0.0582 -0.2317
 4065TIP3    H112201   4.495   4.303   0.561  0.4467  0.7960  0.2964
 4065TIP3    H212202   4.616   4.305   0.469  0.3517 -0.3456  0.1310
 4066TIP3   OH212203   1.644   1.495   0.214  0.9454 -0.1766  0.0211
 4066TIP3    H112204   1.646   1.588   0.234  0.1529 -0.2640  0.5793
 4066TIP3    H212205   1.668   1.452   0.296 -2.0790 -0.5282  0.8502
 4067TIP3   OH212206   4.960   3.483   0.338 -0.6473 -0.2070  0.1285
 4067TIP3    H112207   4.900   3.498   0.411 -0.8257  0.3307 -0.1182
 4067TIP3    H212208   4.902   3.465   0.263 -0.4502 -2.0922  0.3764
 4068TIP3   OH212209   5.976   3.643   2.907  0.6123 -0.3579  0.3546
 4068TIP3    H112210   5.901   3.605   2.862  0.0445  2.4789 -1.3777
 4068TIP3    H212211   5.965   3.616   2.999 -1.7907 -1.1081 -0.0844
 4069TIP3   OH212212   2.518   0.772   4.353  0.4681  0.3371  0.3530
 4069TIP3    H112213   2.574   0.779   4.431  1.1013 -0.7171  0.0199
 4069TIP3    H212214   2.479   0.685   4.359  1.2066 -0.1208 -0.9179
 4070TIP3   OH212215   0.099   3.390   3.256  0.0473  0.0087  0.8307
 4070TIP3    H112216   0.074   3.482   3.255  0.4130  0.1315  2.0480
 4070TIP3    H212217   0.165   3.383   3.325  0.4290 -1.0669  0.3909
 4071TIP3   OH212218   2.828   0.817   4.951  0.4030  0.5837 -0.4794
 4071TIP3    H112219   2.889   0.882   4.987  1.4530  0.7593 -2.4563
 4071TIP3    H212220   2.779   0.865   4.884 -1.4059  0.2332  0.5232
 4072TIP3   OH212221   1.507   4.919   2.234 -0.1005 -0.2000 -0.3458
 4072TIP3    H112222   1.422   4.880   2.211 -0.0432 -1.2020  1.0059
 4072TIP3    H212223   1.520   4.895   2.326  2.4946 -1.6835 -0.9911
 4073TIP3   OH212224   2.978   0.233   2.381 -0.3779  0.2755 -0.0039
 4073TIP3    H112225   3.061   0.234   2.332  0.2639 -2.0776  0.9156
 4073TIP3    H212226   3.002   0.262   2.469 -0.1847 -1.7141  0.6498
 4074TIP3   OH212227   3.819   2.033   1.602  0.2132  0.0362 -0.1645
 4074TIP3    H112228   3.848   2.112   1.647  0.9491 -0.7245  0.7316
 4074TIP3    H212229   3.860   2.037   1.516  0.0412  0.7431 -0.2179
 4075TIP3   OH212230   3.725   1.670   3.389  0.6272  0.5841  0.7204
 4075TIP3    H112231   3.784   1.735   3.427  0.6626  1.1969 -0.3641
 4075TIP3    H212232   3.733   1.681   3.294 -1.4079  0.8729  0.5234
 4076TIP3   OH212233   2.199   3.344   3.353 -0.3290 -0.7630  0.1605
 4076TIP3    H112234   2.255   3.358   3.277 -0.5760 -0.4366  0.0334
 4076TIP3    H212235   2.200   3.429   3.399  0.2420 -1.1097  0.8108
 4077TIP3   OH212236   2.447   4.323   0.202  0.4644  0.7051  0.0455
 4077TIP3    H112237   2.417   4.242   0.161  2.3178  0.1126 -0.2726
 4077TIP3    H212238   2.410   4.320   0.290 -0.3530  0.0456 -0.3069
 4078TIP3   OH212239   6.164   4.745   3.029 -0.2603 -0.4495 -0.0084
 4078TIP3    H112240   6.181   4.658   3.065 -2.2913 -0.5720  0.7662
 4078TIP3    H212241   6.250   4.777   3.003  0.7445 -2.0436  1.1690
 4079TIP3   OH212242   5.638   2.257  -0.009 -0.1384  0.3654  0.2073
 4079TIP3    H112243   5.607   2.336  -0.053 -0.9308  0.7004  1.3250
 4079TIP3    H212244   5.602   2.263   0.080  1.0629 -0.4983  0.7840
 4080TIP3   OH212245   1.103   2.039   1.790  0.2638 -0.5138  0.4852
 4080TIP3    H112246   1.086   1.954   1.751 -0.3267  0.7461 -2.2830
 4080TIP3    H212247   1.181   2.071   1.746 -0.0182  0.7367  0.8476
 4081TIP3   OH212248   0.612   2.397   3.197  0.2034  0.4520  0.4244
 4081TIP3    H112249   0.644   2.310   3.172  0.7625  0.8215 -0.1814
 4081TIP3    H212250   0.522   2.382   3.227 -0.4382 -0.0694 -1.5794
 4082TIP3   OH212251   4.204   3.585   3.627  0.4197 -0.2916  0.2775
 4082TIP3    H112252   4.158   3.654   3.578  1.1815 -1.2659 -1.9205
 4082TIP3    H212253   4.180   3.504   3.583  4.3185 -0.8711 -1.1802
 4083TIP3   OH212254   2.715   1.631   4.674 -0.1306 -0.4141  0.4003
 4083TIP3    H112255   2.741   1.612   4.584  0.8374 -0.8377  0.7628
 4083TIP3    H212256   2.630   1.587   4.684 -0.2234 -0.4027 -0.2787
 4084TIP3   OH212257   1.827   4.004   2.937  0.4186 -0.2746  0.2764
 4084TIP3    H112258   1.860   3.993   2.848  0.6457 -1.3617  0.4790
 4084TIP3    H212259   1.800   4.096   2.941  0.0470 -0.3018 -1.0278
 4085TIP3   OH212260   5.851   2.903   0.167 -0.0972 -0.0825 -0.3163
 4085TIP3    H112261   5.799   2.908   0.246 -1.0779 -1.2873 -0.8516
 4085TIP3    H212262   5.831   2.984   0.119 -0.5547  0.0144  0.0365
 4086TIP3   OH212263   5.618   4.369   0.816  0.0130 -0.1640  0.1549
 4086TIP3    H112264   5.606   4.463   0.804  0.4887 -0.2080 -0.7517
 4086TIP3    H212265   5.649   4.360   0.906 -0.7646  0.4718  0.4930
 4087TIP3   OH212266   1.176   2.380   4.402 -0.2504  0.1433  0.5763
 4087TIP3    H112267   1.109   2.318   4.372 -0.0815 -0.2126  0.9193
 4087TIP3    H212268   1.204   2.345   4.486  0.5921  0.1041  0.2906
 4088TIP3   OH212269   0.645   1.460   4.258 -0.3231  0.2251 -0.4177
 4088TIP3    H112270   0.701   1.399   4.306 -0.0356  1.5667  1.0592
 4088TIP3    H212271   0.570   1.408   4.230  0.2748 -0.9615  0.1443
 4089TIP3   OH212272   3.846   5.621   3.991  0.2320  0.0797  0.2392
 4089TIP3    H112273   3.932   5.627   3.951  0.2870  0.5831  0.4203
 4089TIP3    H212274   3.839   5.701   4.044 -0.7554  0.5592 -0.5868
 4090TIP3   OH212275   3.928   2.043   1.332 -0.4258  0.2984  0.3255
 4090TIP3    H112276   4.014   2.077   1.311 -0.1962  1.2096  2.4833
 4090TIP3    H212277   3.894   2.010   1.249  1.1217  1.8369 -0.9849
 4091TIP3   OH212278   4.226   1.557   1.521  0.4528 -0.0452  0.6049
 4091TIP3    H112279   4.293   1.501   1.482 -0.6165 -1.0632  0.1824
 4091TIP3    H212280   4.145   1.533   1.477 -0.2008  1.2063  1.0634
 4092TIP3   OH212281   4.185   2.835   2.183  0.4651 -0.6346 -0.0715
 4092TIP3    H112282   4.239   2.837   2.262  1.0880 -3.5951 -0.2912
 4092TIP3    H212283   4.103   2.794   2.210 -0.2857  0.5036 -0.5153
 4093TIP3   OH212284   1.844   5.296   3.465 -0.2834 -0.2345  0.7256
 4093TIP3    H112285   1.835   5.248   3.547 -1.5509 -3.1061 -0.9739
 4093TIP3    H212286   1.864   5.230   3.399  1.2944  2.0296 -1.2640
 4094TIP3   OH212287   4.193   1.967   2.687  0.1454  0.3004  0.8588
 4094TIP3    H112288   4.201   1.874   2.664  0.5705  0.2538  1.1829
 4094TIP3    H212289   4.141   2.005   2.616  1.3389  0.1335 -0.1332
 4095TIP3   OH212290   2.985   4.514   4.650  0.5398  0.0238  0.7325
 4095TIP3    H112291   3.005   4.542   4.560 -0.6050 -0.5395  0.2921
 4095TIP3    H212292   3.063   4.464   4.676  1.8435  1.9966  0.8824
 4096TIP3   OH212293   4.930   3.904   1.999 -0.2411 -0.1936 -0.4038
 4096TIP3    H112294   5.023   3.897   2.020 -0.7012 -0.0474  1.8993
 4096TIP3    H212295   4.902   3.814   1.984 -0.1810 -0.4840  1.1181
 4097TIP3   OH212296   4.182   0.088   4.053  0.3494 -0.0888 -0.1138
 4097TIP3    H112297   4.233   0.014   4.021  0.0614  0.1884 -1.2661
 4097TIP3    H212298   4.143   0.126   3.974  0.3068  1.1506  0.4802
 4098TIP3   OH212299   0.391   5.265   1.320 -0.0471 -0.2457 -0.6019
 4098TIP3    H112300   0.410   5.236   1.410  1.0650  0.0776 -0.7237
 4098TIP3    H212301   0.304   5.229   1.302 -0.1507 -0.5906  0.4901
 4099TIP3   OH212302   2.517   4.746   2.446 -0.1822  0.0839  0.3153
 4099TIP3    H112303   2.518   4.657   2.481  0.6483 -0.2942 -0.6256
 4099TIP3    H212304   2.598   4.785   2.478 -1.1264  0.9314  1.7470
 4100TIP3   OH212305   3.254   5.530   0.010 -0.2793  0.3923 -0.1607
 4100TIP3    H112306   3.200   5.609   0.016 -0.9534 -0.0648 -0.1055
 4100TIP3    H212307   3.223   5.475   0.082  0.7616  0.4159  0.3287
 4101TIP3   OH212308   3.058   2.634   3.143  0.8301  0.0126  0.0350
 4101TIP3    H112309   3.042   2.722   3.107 -1.9557 -0.5274 -0.3035
 4101TIP3    H212310   2.983   2.582   3.113  0.9300 -1.7650  2.5064
 4102TIP3   OH212311   1.304   0.057   2.670  0.4076  0.2294 -0.0649
 4102TIP3    H112312   1.267   0.145   2.662  0.5428  0.2332 -0.7273
 4102TIP3    H212313   1.399   0.071   2.671  0.4478  0.0413 -0.9120
 4103TIP3   OH212314   1.312   2.731   5.039  0.1183 -0.2644 -0.0128
 4103TIP3    H112315   1.397   2.730   5.082 -0.3861 -1.6430  1.0010
 4103TIP3    H212316   1.248   2.723   5.110 -0.8052 -0.7163 -0.8609
 4104TIP3   OH212317   1.007   0.808   0.407  0.0661  0.1546 -0.0019
 4104TIP3    H112318   0.945   0.829   0.476 -1.0189 -0.2991 -0.8010
 4104TIP3    H212319   1.090   0.792   0.452 -0.9051 -1.4241  1.3445
 4105TIP3   OH212320   4.242   4.595   3.554 -0.0137 -0.0149 -0.0388
 4105TIP3    H112321   4.324   4.589   3.506  0.1006  0.3410  0.1143
 4105TIP3    H212322   4.268   4.608   3.645 -0.2300 -0.5731  0.1129
 4106TIP3   OH212323   5.000   2.530   4.745 -0.6412 -0.1220  0.7261
 4106TIP3    H112324   4.923   2.586   4.736 -0.4909 -0.0485 -0.2572
 4106TIP3    H212325   5.066   2.584   4.787 -0.1180  0.8653 -1.2209
 4107TIP3   OH212326   1.352   3.817   2.593  0.3453 -0.1039 -0.6155
 4107TIP3    H112327   1.282   3.866   2.635  0.4382 -0.0951 -0.4721
 4107TIP3    H212328   1.349   3.845   2.501  0.9011  0.7527 -0.3818
 4108TIP3   OH212329   3.645   2.766   0.760  0.3073  0.5066  0.3683
 4108TIP3    H112330   3.726   2.817   0.751  0.0570  0.9839  0.7750
 4108TIP3    H212331   3.669   2.693   0.817  0.5531  0.4048  0.1417
 4109TIP3   OH212332   3.871   1.025   0.185 -0.1995 -0.9250 -0.3610
 4109TIP3    H112333   3.794   1.082   0.182  0.1365 -0.4708 -0.4878
 4109TIP3    H212334   3.924   1.060   0.257  0.0096 -1.0795 -0.4376
 4110TIP3   OH212335   4.330   0.313   2.792 -0.2768  0.3620 -0.1227
 4110TIP3    H112336   4.348   0.363   2.713  1.3407  0.6775  0.4154
 4110TIP3    H212337   4.247   0.269   2.774  0.3695 -0.1049 -2.2418
 4111TIP3   OH212338   5.894   2.616   2.572 -0.1839 -0.0633  0.5323
 4111TIP3    H112339   5.963   2.676   2.544 -0.6769  1.4340  2.3270
 4111TIP3    H212340   5.836   2.610   2.497 -0.0277  1.6062  0.2398
 4112TIP3   OH212341   0.754   2.545   0.084 -1.1719  0.3467 -0.5242
 4112TIP3    H112342   0.718   2.460   0.109  2.5885 -1.6438 -1.1095
 4112TIP3    H212343   0.795   2.529  -0.001  1.4637  2.1421  0.3075
 4113TIP3   OH212344   0.074   4.892   2.226  0.1690  0.1351 -0.3672
 4113TIP3    H112345   0.043   4.844   2.303  2.1278  0.3584  0.6253
 4113TIP3    H212346   0.130   4.961   2.261 -0.6672  1.6725 -1.9108
 4114TIP3   OH212347   3.227   0.900   1.766  0.2690  0.5171  0.6864
 4114TIP3    H112348   3.181   0.977   1.732 -0.6908 -0.2587  0.1786
 4114TIP3    H212349   3.314   0.932   1.788  0.1765  1.5503 -0.3678
 4115TIP3   OH212350   0.675   4.992   4.765  0.0346  0.3713 -0.4473
 4115TIP3    H112351   0.721   4.948   4.694  0.4891  2.1165 -1.2850
 4115TIP3    H212352   0.725   5.073   4.779 -0.3625  0.3340  1.4959
 4116TIP3   OH212353   5.496   5.518   3.219  0.5296  0.3852  0.2288
 4116TIP3    H112354   5.472   5.587   3.156  0.7235 -0.7791 -1.1904
 4116TIP3    H212355   5.413   5.494   3.261 -0.3480 -1.2748 -2.2150
 4117TIP3   OH212356   4.844   1.574   0.003  0.4659 -0.0333  0.4338
 4117TIP3    H112357   4.894   1.639   0.053 -0.1661  1.5043 -0.8665
 4117TIP3    H212358   4.778   1.625  -0.044  0.7734 -1.4449 -1.6735
 4118TIP3   OH212359   4.770   1.358   0.195 -0.3087 -0.0946 -0.2933
 4118TIP3    H112360   4.796   1.417   0.124 -0.1550  1.5546  1.0668
 4118TIP3    H212361   4.829   1.283   0.186  0.8856  0.8773 -0.8658
 4119TIP3   OH212362   1.846   1.857   0.699 -0.6281 -0.3274 -0.0039
 4119TIP3    H112363   1.852   1.776   0.648  1.1297 -0.0407 -0.3073
 4119TIP3    H212364   1.922   1.854   0.758 -0.1676  1.3962 -0.4704
 4120TIP3   OH212365   5.028   5.125   1.007  0.0403 -0.1299  0.5287
 4120TIP3    H112366   5.035   5.163   0.920  1.7481 -2.6784 -0.5781
 4120TIP3    H212367   4.938   5.092   1.011 -0.2491  0.5751 -0.0054
 4121TIP3   OH212368   0.496   2.583   3.510  0.0542 -0.3912  0.6721
 4121TIP3    H112369   0.508   2.672   3.479 -1.4880 -0.6174 -0.6948
 4121TIP3    H212370   0.420   2.587   3.567 -1.5306 -1.1635 -1.2598
 4122TIP3   OH212371   1.320   0.981   1.001 -0.2312  0.0464 -0.4546
 4122TIP3    H112372   1.271   1.047   1.050 -1.0356 -0.9424  0.1128
 4122TIP3    H212373   1.369   0.932   1.068 -0.2841 -0.4565 -0.7724
 4123TIP3   OH212374   4.885   4.985   2.362 -0.1377 -0.0505 -0.3230
 4123TIP3    H112375   4.831   5.051   2.406 -0.0921 -0.9017  1.0222
 4123TIP3    H212376   4.850   4.983   2.272 -0.0183  1.9298 -0.4603
 4124TIP3   OH212377   0.110   4.278   4.140 -0.3992  0.1910 -0.0379
 4124TIP3    H112378   0.152   4.224   4.072 -1.1365  0.8318 -1.0350
 4124TIP3    H212379   0.158   4.257   4.220  0.1997 -0.9379 -0.6614
 4125TIP3   OH212380   1.427   1.801   0.920  0.3349 -0.3766 -0.2174
 4125TIP3    H112381   1.420   1.768   1.010 -1.2801 -0.6639 -0.4156
 4125TIP3    H212382   1.514   1.840   0.915 -0.3407  1.6196  2.1471
 4126TIP3   OH212383   2.400   3.442   1.346  0.0956  0.2645 -0.3287
 4126TIP3    H112384   2.333   3.375   1.347 -0.7268  1.0303 -1.3266
 4126TIP3    H212385   2.391   3.484   1.260  1.3406  0.8941 -0.1842
 4127TIP3   OH212386   3.668   3.690   3.356 -0.6112 -0.3336 -0.5186
 4127TIP3    H112387   3.726   3.748   3.405  1.0717 -1.8340 -0.6487
 4127TIP3    H212388   3.701   3.695   3.266 -0.9331 -0.9167 -0.6697
 4128TIP3   OH212389   5.754   0.085   3.957  0.1162 -0.0508  0.6609
 4128TIP3    H112390   5.826   0.101   4.019  1.4363  1.3333 -1.1164
 4128TIP3    H212391   5.793   0.033   3.887 -0.7423  0.2970 -0.0986
 4129TIP3   OH212392   2.925   4.314   2.412 -0.6789 -0.4022  0.0638
 4129TIP3    H112393   2.895   4.241   2.357  0.3127 -0.6379 -0.1736
 4129TIP3    H212394   3.007   4.342   2.373 -0.4115  0.0175  0.9066
 4130TIP3   OH212395   4.314   0.755   0.135  0.3653  0.6240 -0.2382
 4130TIP3    H112396   4.311   0.701   0.056  1.7121 -0.0056  0.1095
 4130TIP3    H212397   4.406   0.780   0.143  0.8967 -1.7130  2.6614
 4131TIP3   OH212398   4.568   0.490   0.503  0.0734  0.2237 -0.4488
 4131TIP3    H112399   4.586   0.575   0.545 -0.2595  0.0545  0.0437
 4131TIP3    H212400   4.653   0.462   0.469  0.3550  0.3661  0.1147
 4132TIP3   OH212401   2.989   2.423   5.169 -0.0531  0.1881  0.3140
 4132TIP3    H112402   2.932   2.499   5.182  0.7590  1.0783 -1.1209
 4132TIP3    H212403   2.963   2.388   5.084  0.0974 -0.7021  0.6224
 4133TIP3   OH212404   4.884   3.952   1.365  0.1880 -0.2209  0.2061
 4133TIP3    H112405   4.916   4.042   1.360  0.4241 -0.2639  0.9074
 4133TIP3    H212406   4.860   3.940   1.456 -0.7146 -0.5776 -0.0651
 4134TIP3   OH212407   0.712   5.707   1.634 -0.0678  0.0587  0.2984
 4134TIP3    H112408   0.767   5.665   1.701  0.3466 -1.6920 -1.0653
 4134TIP3    H212409   0.657   5.637   1.601 -0.4516  0.9465 -1.0114
 4135TIP3   OH212410   2.794   5.913   2.829 -1.1504  0.7726  0.1943
 4135TIP3    H112411   2.850   5.988   2.849 -1.1359  0.7190  0.3534
 4135TIP3    H212412   2.710   5.933   2.870 -0.9713  0.4388  0.7315
 4136TIP3   OH212413   2.163   1.884   4.308  0.4309  0.3833 -0.0505
 4136TIP3    H112414   2.122   1.809   4.351  0.3913  0.2633 -0.2949
 4136TIP3    H212415   2.211   1.847   4.234  0.1096  0.6337 -0.3925
 4137TIP3   OH212416   2.691   5.592   3.099 -0.4028  0.2796 -0.1061
 4137TIP3    H112417   2.732   5.597   3.185 -1.1357 -0.3592  0.2906
 4137TIP3    H212418   2.623   5.660   3.101  0.7910  1.5384 -0.8674
 4138TIP3   OH212419   1.873   3.070   2.612 -0.1689 -0.3028 -0.2368
 4138TIP3    H112420   1.902   3.113   2.532  1.7324 -0.9375  0.0681
 4138TIP3    H212421   1.886   3.136   2.681 -2.0308  0.3300 -0.4203
 4139TIP3   OH212422   1.718   2.531   3.135 -1.0199  0.1657 -0.3976
 4139TIP3    H112423   1.759   2.453   3.097  1.0454  0.1464  1.6589
 4139TIP3    H212424   1.769   2.604   3.099 -0.0473  0.2386  1.0614
 4140TIP3   OH212425   3.789   5.269   3.869 -0.5594 -0.4407  0.1822
 4140TIP3    H112426   3.826   5.277   3.781 -0.8731 -0.7398  0.0225
 4140TIP3    H212427   3.702   5.231   3.856  0.2150 -2.5727  0.7512
 4141TIP3   OH212428   3.526   3.467   0.100 -0.6765  0.4416 -0.2108
 4141TIP3    H112429   3.505   3.559   0.087  0.0947  0.5325 -0.9608
 4141TIP3    H212430   3.541   3.433   0.011  1.8541  0.3222  0.1834
 4142TIP3   OH212431   3.216   1.708   0.547 -0.4898 -0.0301  0.2656
 4142TIP3    H112432   3.280   1.672   0.486 -0.3069  1.4980 -0.4881
 4142TIP3    H212433   3.230   1.660   0.628  2.4065  1.0207  0.4897
 4143TIP3   OH212434   2.117   0.067   0.818  0.3689  0.5428  0.2701
 4143TIP3    H112435   2.116  -0.010   0.761  0.7391  1.0395 -0.4199
 4143TIP3    H212436   2.084   0.035   0.902 -3.0265  0.3941 -0.9646
 4144TIP3   OH212437   1.242   5.222   4.751  0.6639  0.2542 -0.2806
 4144TIP3    H112438   1.165   5.217   4.693  0.1312  1.2944  0.3087
 4144TIP3    H212439   1.236   5.309   4.791 -0.1171 -1.1090  2.8988
 4145TIP3   OH212440   0.452   3.417   0.659 -0.3827  0.2847 -0.1244
 4145TIP3    H112441   0.438   3.391   0.750  0.8551 -0.6641 -0.1673
 4145TIP3    H212442   0.528   3.365   0.631 -0.2665  1.1237 -1.4643
 4146TIP3   OH212443   6.080   2.684   0.263 -0.1715 -0.3307  0.1928
 4146TIP3    H112444   6.093   2.668   0.357  0.1378  0.5922  0.3195
 4146TIP3    H212445   5.990   2.715   0.256 -1.0860 -2.8322 -0.1680
 4147TIP3   OH212446   0.477   5.714   2.219  0.3673 -0.3933 -0.0972
 4147TIP3    H112447   0.382   5.721   2.225  0.3541 -1.1913  0.9206
 4147TIP3    H212448   0.503   5.668   2.300  1.4889 -1.2969 -0.9330
 4148TIP3   OH212449   2.913   0.604   5.133  0.6539  0.2865  0.2862
 4148TIP3    H112450   2.882   0.674   5.076  1.8732  0.5425 -0.0935
 4148TIP3    H212451   2.962   0.546   5.075  1.0238 -0.0100  0.8916
 4149TIP3   OH212452   1.313   5.176   0.348 -0.2717 -0.2907 -0.3323
 4149TIP3    H112453   1.351   5.259   0.378 -0.4277 -0.6751  0.9768
 4149TIP3    H212454   1.371   5.109   0.385 -0.6947 -0.7939 -0.5755
 4150TIP3   OH212455   0.380   1.259   0.373 -0.1943 -0.0551 -0.1230
 4150TIP3    H112456   0.351   1.303   0.294  0.3222 -1.1133 -0.9268
 4150TIP3    H212457   0.300   1.242   0.422 -0.7801 -1.2414 -1.4200
 4151TIP3   OH212458   3.231   4.609   0.433  0.0185 -0.0404 -1.1433
 4151TIP3    H112459   3.155   4.565   0.472  1.3298 -1.5182 -0.0782
 4151TIP3    H212460   3.255   4.676   0.497 -0.7671  0.8817 -1.7990
 4152TIP3   OH212461   6.215   4.535   2.134  0.9538  0.0768  0.6826
 4152TIP3    H112462   6.197   4.489   2.215 -0.5791 -2.1604 -0.8409
 4152TIP3    H212463   6.154   4.609   2.134  2.0141  1.0229  2.1883
 4153TIP3   OH212464   5.749   4.913   4.701  0.2598  0.2920 -0.5819
 4153TIP3    H112465   5.834   4.870   4.698 -0.0989 -0.4198 -1.3593
 4153TIP3    H212466   5.731   4.926   4.794  0.4161 -1.2251 -0.3108
 4154TIP3   OH212467   4.467   2.657   3.038 -0.4573 -0.4238 -0.1005
 4154TIP3    H112468   4.439   2.587   3.097 -2.7796 -1.2604 -2.0487
 4154TIP3    H212469   4.389   2.711   3.025  0.8315  1.5493 -0.0256
 4155TIP3   OH212470   1.914   1.648   1.658 -0.2716 -0.2204  0.0858
 4155TIP3    H112471   1.991   1.637   1.602 -0.1940 -1.0581  0.3453
 4155TIP3    H212472   1.903   1.563   1.701 -1.6035 -0.2582 -0.2750
 4156TIP3   OH212473   4.800   2.438   2.904  0.6677  0.3234 -0.0295
 4156TIP3    H112474   4.717   2.453   2.860  1.0811  2.1948 -0.2809
 4156TIP3    H212475   4.828   2.351   2.876 -1.3419 -0.4871  0.3471
 4157TIP3   OH212476   2.740   3.750   5.010 -0.4934 -0.2386  0.4760
 4157TIP3    H112477   2.796   3.722   5.083 -0.4973 -0.4513  0.3974
 4157TIP3    H212478   2.669   3.798   5.051  0.1907  0.7787  0.5235
 4158TIP3   OH212479   2.609   2.918   1.358  0.1165 -0.1985 -0.3587
 4158TIP3    H112480   2.559   2.908   1.277 -2.3387 -0.1786  1.0531
 4158TIP3    H212481   2.674   2.985   1.339 -1.3605  0.8568 -1.9108
 4159TIP3   OH212482   0.732   2.117   1.492  0.2023 -0.3201 -0.1472
 4159TIP3    H112483   0.792   2.111   1.418 -1.6275 -1.0029 -1.6562
 4159TIP3    H212484   0.664   2.053   1.472 -0.8737  0.2049  1.6433
 4160TIP3   OH212485   1.010   3.329   0.545 -0.1336 -0.2911 -0.4471
 4160TIP3    H112486   1.097   3.367   0.541 -0.4535  0.6708  1.0316
 4160TIP3    H212487   1.025   3.235   0.560  0.6423  0.0061  0.6700
 4161TIP3   OH212488   2.359   5.313   0.821 -0.5732  0.1828 -0.0624
 4161TIP3    H112489   2.378   5.237   0.876 -0.3729  0.4156  0.1869
 4161TIP3    H212490   2.359   5.387   0.881  2.1498  0.8290 -0.7287
 4162TIP3   OH212491   1.806   3.147   0.870  0.3104 -0.3727 -0.0242
 4162TIP3    H112492   1.868   3.169   0.939  0.6733 -0.5009 -0.3066
 4162TIP3    H212493   1.720   3.169   0.907  0.7186  3.2804 -0.9053
 4163TIP3   OH212494   1.938   2.773   3.831 -0.3942 -0.5837 -0.1591
 4163TIP3    H112495   1.933   2.816   3.916 -0.3262  1.2167 -1.0336
 4163TIP3    H212496   1.891   2.690   3.843  0.1611 -0.6428  1.7817
 4164TIP3   OH212497   4.402   1.379   1.399  0.1756 -0.6505  0.1002
 4164TIP3    H112498   4.396   1.293   1.441  1.9300 -1.2054 -0.6616
 4164TIP3    H212499   4.447   1.362   1.316  1.0271  1.0589  0.1597
 4165TIP3   OH212500   5.162   2.454   1.752 -0.1537  0.4088 -0.1858
 4165TIP3    H112501   5.134   2.545   1.765 -1.0500  0.4505 -2.1030
 4165TIP3    H212502   5.131   2.408   1.830 -0.2304  1.6104  0.5210
 4166TIP3   OH212503   3.804   2.986   3.902 -0.3043 -0.1756  0.0548
 4166TIP3    H112504   3.802   3.078   3.876 -1.2368 -0.1718  0.0991
 4166TIP3    H212505   3.757   2.983   3.985 -0.8396 -0.7780 -0.2595
 4167TIP3   OH212506   2.751   3.566   1.417  0.1642 -0.6978 -0.2637
 4167TIP3    H112507   2.708   3.487   1.450 -1.4895 -0.2829 -1.3282
 4167TIP3    H212508   2.701   3.638   1.454  0.2058 -0.1899 -1.1644
 4168TIP3   OH212509   1.949   5.126   0.501 -0.2441 -0.4981  0.0250
 4168TIP3    H112510   2.035   5.105   0.465  0.9299 -0.0906  2.3676
 4168TIP3    H212511   1.946   5.079   0.585 -1.6021  0.8070  0.7642
 4169TIP3   OH212512   0.110   5.759   3.421  0.0711 -0.1059 -0.0510
 4169TIP3    H112513   0.131   5.847   3.453  3.6759 -0.6379 -0.5210
 4169TIP3    H212514   0.122   5.764   3.326  0.0699 -1.0447 -0.1141
 4170TIP3   OH212515   5.772   3.083   3.673 -0.1818  0.6523 -0.2542
 4170TIP3    H112516   5.678   3.086   3.690 -0.3419 -1.9546 -0.2675
 4170TIP3    H212517   5.812   3.118   3.753 -1.1474 -1.0555  1.0586
 4171TIP3   OH212518   4.910   4.295   0.640  0.4079 -0.0625 -0.0912
 4171TIP3    H112519   4.932   4.208   0.609 -0.4111 -0.5824  0.7420
 4171TIP3    H212520   4.908   4.349   0.561 -1.4469 -1.3047 -0.9703
 4172TIP3   OH212521   0.709   4.494   2.643  0.0347 -0.0265  0.0321
 4172TIP3    H112522   0.680   4.582   2.668 -1.1718 -0.4885  0.3316
 4172TIP3    H212523   0.719   4.497   2.548 -1.0281  0.1585 -0.0850
 4173TIP3   OH212524   5.462   3.872   4.697  0.1519 -0.0793 -0.6584
 4173TIP3    H112525   5.498   3.896   4.782 -0.6357  1.1425 -0.6514
 4173TIP3    H212526   5.531   3.820   4.656  1.3965  1.0448 -0.0825
 4174TIP3   OH212527   1.713   0.040   2.453 -0.6218  0.4469 -0.4186
 4174TIP3    H112528   1.758   0.123   2.438  1.6176 -0.4027  1.1244
 4174TIP3    H212529   1.715  -0.004   2.367  1.6653  0.4112 -0.4060
 4175TIP3   OH212530   4.891   2.770   0.491 -0.3922  0.1767 -0.2166
 4175TIP3    H112531   4.867   2.854   0.530  0.6543  0.8365 -0.9197
 4175TIP3    H212532   4.946   2.793   0.416  0.4217 -1.1467 -0.0779
 4176TIP3   OH212533   5.720   1.523   1.212 -0.0659  0.4910  0.2289
 4176TIP3    H112534   5.800   1.493   1.169 -0.3168 -1.5845  1.0813
 4176TIP3    H212535   5.649   1.484   1.161 -0.4913  1.0763  0.3625
 4177TIP3   OH212536   5.518   2.743   3.680 -0.4044  0.4594 -0.9020
 4177TIP3    H112537   5.538   2.655   3.648  1.5274  0.9496 -1.1457
 4177TIP3    H212538   5.556   2.802   3.616 -0.8591  1.4818 -0.2615
 4178TIP3   OH212539   2.036   5.388   3.754  0.1058  0.3612  0.3692
 4178TIP3    H112540   1.949   5.404   3.789 -0.1441  0.3694 -0.2536
 4178TIP3    H212541   2.076   5.475   3.748 -0.2242  0.4710 -0.3272
 4179TIP3   OH212542   1.527   1.239   3.778  0.5958  0.5389 -0.1900
 4179TIP3    H112543   1.605   1.221   3.726  2.6333  0.6911  2.6147
 4179TIP3    H212544   1.499   1.154   3.811 -0.0700  0.5588 -0.6914
 4180TIP3   OH212545   0.154   4.184   2.460  0.5343 -0.0058  0.0327
 4180TIP3    H112546   0.133   4.176   2.367 -0.6540  2.1557  0.0494
 4180TIP3    H212547   0.241   4.224   2.462 -0.3568  2.0514 -0.2313
 4181TIP3   OH212548   0.245   1.727   1.197 -0.5779  0.1885 -0.0066
 4181TIP3    H112549   0.291   1.761   1.120  0.1506 -1.0769 -0.1612
 4181TIP3    H212550   0.158   1.767   1.192  0.5404  2.9569  0.5034
 4182TIP3   OH212551   5.568   5.420   1.745 -0.5057 -0.2291 -0.0256
 4182TIP3    H112552   5.493   5.442   1.800 -0.8864 -0.7380 -0.3163
 4182TIP3    H212553   5.533   5.425   1.655  0.0097  0.2529 -0.2033
 4183TIP3   OH212554   1.972   0.026   4.356 -0.7092 -0.0848 -0.7463
 4183TIP3    H112555   1.953   0.120   4.360 -1.1184 -0.2081  0.5605
 4183TIP3    H212556   1.886  -0.016   4.360 -0.4462 -0.5417  0.8750
 4184TIP3   OH212557   3.164   4.889   1.424 -0.1492  0.3767  0.5658
 4184TIP3    H112558   3.108   4.967   1.423  1.1281  1.3207  0.8148
 4184TIP3    H212559   3.253   4.923   1.428  0.4929 -1.0835 -0.4350
 4185TIP3   OH212560   0.112   4.735   2.769  0.1386 -0.3044  0.3203
 4185TIP3    H112561   0.113   4.831   2.767  0.8124 -0.3099 -0.0805
 4185TIP3    H212562   0.026   4.711   2.735  0.0920  0.1548  0.1012
 4186TIP3   OH212563   3.070   5.850   3.553  0.5422  0.0431 -0.2755
 4186TIP3    H112564   3.004   5.912   3.522  0.8954 -0.2751 -1.7075
 4186TIP3    H212565   3.136   5.905   3.595 -0.8259  0.3327  1.6553
 4187TIP3   OH212566   0.509   1.104   2.345 -0.6134  0.4484  0.3037
 4187TIP3    H112567   0.514   1.166   2.418  0.0796 -1.1761  1.6832
 4187TIP3    H212568   0.416   1.082   2.339 -0.8876  1.6948 -0.2954
 4188TIP3   OH212569   1.480   0.791   3.739 -0.7780  0.5544  0.5619
 4188TIP3    H112570   1.480   0.789   3.644 -0.4889  0.5735  0.5594
 4188TIP3    H212571   1.418   0.723   3.765  0.3265 -0.5658  0.3647
 4189TIP3   OH212572   4.022   4.016   1.147 -0.0769  0.1711  0.3424
 4189TIP3    H112573   4.080   4.021   1.071  0.4987  0.5795  0.8070
 4189TIP3    H212574   4.079   4.029   1.222 -0.7502  0.4771  0.8087
 4190TIP3   OH212575   0.669   1.628   3.416  0.5595 -0.1262  0.6178
 4190TIP3    H112576   0.733   1.699   3.410 -0.7623  1.1871  1.3427
 4190TIP3    H212577   0.714   1.559   3.464  1.1153  1.1796  2.0678
 4191TIP3   OH212578   0.063   1.792   3.163 -0.1981 -0.0930 -0.5637
 4191TIP3    H112579   0.081   1.790   3.257 -0.6139 -2.4964 -0.4735
 4191TIP3    H212580  -0.032   1.791   3.157 -0.2097  1.1794 -1.0635
 4192TIP3   OH212581   5.438   0.817   3.016 -0.6191  0.8601 -0.1733
 4192TIP3    H112582   5.349   0.785   3.032 -0.2263 -0.6653 -0.8383
 4192TIP3    H212583   5.494   0.751   3.056  0.2302  1.0902 -0.9517
 4193TIP3   OH212584   5.617   4.208   1.054 -0.1006 -0.3581 -0.2932
 4193TIP3    H112585   5.628   4.141   0.986  0.2082 -0.2284 -0.3725
 4193TIP3    H212586   5.522   4.213   1.068 -0.1026 -1.1454  0.0452
 4194TIP3   OH212587   2.355   2.668   0.293 -0.4434  0.3416 -0.3058
 4194TIP3    H112588   2.290   2.689   0.226  0.9529 -0.7295 -2.1008
 4194TIP3    H212589   2.373   2.575   0.280  0.6695  0.3664  0.8743
 4195TIP3   OH212590   0.305   2.631   3.697 -0.0492 -0.2953 -0.5986
 4195TIP3    H112591   0.323   2.705   3.755  0.8051 -0.8542 -0.1280
 4195TIP3    H212592   0.312   2.554   3.754 -0.6745 -0.7530 -1.1319
 4196TIP3   OH212593   1.281   3.919   4.540 -0.2761  0.1359  0.4567
 4196TIP3    H112594   1.267   4.008   4.570  0.3279  0.9952 -1.6210
 4196TIP3    H212595   1.265   3.864   4.617 -0.8437  2.0025  1.7233
 4197TIP3   OH212596   3.411   0.042   1.402  0.3635  0.3480  0.0679
 4197TIP3    H112597   3.467   0.103   1.450 -0.8348  1.5461  0.0151
 4197TIP3    H212598   3.379   0.093   1.328 -0.8215 -0.2751  0.1284
 4198TIP3   OH212599   2.405   3.854   4.259 -0.2610  0.2170 -0.8640
 4198TIP3    H112600   2.353   3.781   4.228 -1.2837  0.6916 -0.3130
 4198TIP3    H212601   2.465   3.874   4.187  1.7573 -2.6968 -0.1450
 4199TIP3   OH212602   5.886   2.283   2.285 -0.3229 -0.5081  0.2363
 4199TIP3    H112603   5.967   2.310   2.328 -0.2119  0.2175 -0.4111
 4199TIP3    H212604   5.859   2.360   2.235 -2.4899 -0.0365  1.9900
 4200TIP3   OH212605   4.468   4.814   1.669  0.6829 -0.1011  0.2277
 4200TIP3    H112606   4.513   4.874   1.610  0.0472 -0.0083 -0.1719
 4200TIP3    H212607   4.451   4.866   1.748  0.3853  0.1594 -0.0075
 4201TIP3   OH212608   5.313   3.293   3.318 -0.6077 -0.1401  0.1940
 4201TIP3    H112609   5.357   3.374   3.342 -1.8098  0.8804 -0.9023
 4201TIP3    H212610   5.383   3.228   3.310  0.2941  0.5661  1.8743
 4202TIP3   OH212611   5.183   0.123   3.854 -0.5538 -0.1903  0.7018
 4202TIP3    H112612   5.261   0.097   3.902 -1.1093  1.5540  2.7007
 4202TIP3    H212613   5.110   0.099   3.912 -1.4668 -0.7495 -0.6167
 4203TIP3   OH212614   6.052   0.954   0.884  0.3404  0.1378 -0.3172
 4203TIP3    H112615   6.006   0.877   0.851 -0.3703  0.6342 -0.5125
 4203TIP3    H212616   6.143   0.926   0.892  0.5743 -0.0507 -2.7112
 4204TIP3   OH212617   2.598   5.465   2.819  0.5057  0.1808  0.1323
 4204TIP3    H112618   2.529   5.524   2.789  0.8564 -0.5583 -2.3931
 4204TIP3    H212619   2.671   5.523   2.840 -0.1627  0.8193  0.7572
 4205TIP3   OH212620   4.918   4.002   0.905  0.0051  0.1726  0.4702
 4205TIP3    H112621   4.904   3.910   0.883  0.4877  0.1932  0.0428
 4205TIP3    H212622   4.837   4.030   0.946 -0.9699  0.1202 -1.3149
 4206TIP3   OH212623   5.762   2.133   4.852 -0.5734  0.1626 -0.0159
 4206TIP3    H112624   5.772   2.228   4.846  1.2590 -0.0558 -1.5866
 4206TIP3    H212625   5.712   2.110   4.774  0.6865 -0.3141 -0.7094
 4207TIP3   OH212626   4.754   1.682   2.429  1.1450 -0.3940  0.1050
 4207TIP3    H112627   4.818   1.733   2.378  1.7947  0.6259  1.8330
 4207TIP3    H212628   4.689   1.747   2.456 -0.5806 -1.3772 -1.4375
 4208TIP3   OH212629   0.249   0.942   2.364 -0.0708  0.1578 -0.3982
 4208TIP3    H112630   0.175   1.000   2.349  0.7864  1.7629  1.2487
 4208TIP3    H212631   0.231   0.902   2.450  1.1196  0.8845  0.2205
 4209TIP3   OH212632   1.922   5.952   0.037  0.1509 -0.0833  0.2691
 4209TIP3    H112633   1.947   5.948   0.129 -0.3540 -0.2366  0.4032
 4209TIP3    H212634   2.005   5.961  -0.010  0.4726 -0.7933  0.6877
 4210TIP3   OH212635   1.846   5.019   4.727 -0.0661 -0.1533 -0.0358
 4210TIP3    H112636   1.849   4.923   4.726 -0.9019 -0.1915  0.1702
 4210TIP3    H212637   1.753   5.040   4.715  0.2937  0.6638 -1.7959
 4211TIP3   OH212638   3.472   4.644   4.807  0.5991  0.1583 -0.1482
 4211TIP3    H112639   3.527   4.589   4.863 -0.6950  0.1026  1.1372
 4211TIP3    H212640   3.425   4.701   4.868  0.2387  1.1412 -1.3004
 4212TIP3   OH212641   5.384   3.194   2.047 -0.0863 -0.6025 -0.6894
 4212TIP3    H112642   5.462   3.208   2.101  0.1571 -1.3100 -0.8444
 4212TIP3    H212643   5.338   3.122   2.091 -0.6797 -0.1615 -0.5725
 4213TIP3   OH212644   2.092   5.883   2.636 -0.5583 -0.0909  0.1320
 4213TIP3    H112645   2.072   5.871   2.544 -0.3147  0.1506  0.0464
 4213TIP3    H212646   2.133   5.800   2.662  0.7712  0.3765 -0.3656
 4214TIP3   OH212647   4.033   4.814   4.244  0.4648 -0.3674 -0.5334
 4214TIP3    H112648   4.098   4.794   4.312 -0.9418  0.4528  1.1191
 4214TIP3    H212649   4.034   4.909   4.237 -0.5313 -0.3534 -0.5284
 4215TIP3   OH212650   5.899   3.156   4.632 -0.1970 -0.5414 -0.1433
 4215TIP3    H112651   5.930   3.160   4.723  0.9748 -0.3238 -0.5390
 4215TIP3    H212652   5.827   3.220   4.629  1.4409  1.4287  0.0222
 4216TIP3   OH212653   1.166   4.725   0.308 -0.3498 -0.1376  0.4192
 4216TIP3    H112654   1.191   4.642   0.269 -0.8969 -0.0887 -0.0420
 4216TIP3    H212655   1.185   4.715   0.401  1.1528 -0.1897  0.1388
 4217TIP3   OH212656   3.020   4.542   3.837 -0.4174  0.2972 -0.3553
 4217TIP3    H112657   3.113   4.565   3.836  0.0243 -1.3404  0.0525
 4217TIP3    H212658   3.010   4.478   3.766 -1.2667  0.5733 -0.4969
 4218TIP3   OH212659   3.258   4.910   0.638 -0.6230  0.3917  0.1575
 4218TIP3    H112660   3.341   4.932   0.595 -0.9533  1.8209  0.2022
 4218TIP3    H212661   3.284   4.864   0.718  0.2579  2.5055  1.1557
 4219TIP3   OH212662   5.532   0.211   4.861  0.2316  0.5314  0.1249
 4219TIP3    H112663   5.551   0.243   4.773 -2.3832  2.3489  0.1210
 4219TIP3    H212664   5.507   0.289   4.911 -2.7393 -0.9366  1.1847
 4220TIP3   OH212665   4.339   0.808   3.657 -0.1920  0.1183 -0.1958
 4220TIP3    H112666   4.367   0.891   3.620  1.5261  0.1374  1.0498
 4220TIP3    H212667   4.307   0.830   3.744 -2.0795 -0.2244 -0.7555
 4221TIP3   OH212668   3.321   0.227   1.162  0.2104 -0.2235  0.1237
 4221TIP3    H112669   3.409   0.250   1.130  0.8601 -0.7950  1.4071
 4221TIP3    H212670   3.263   0.290   1.119  1.3045  0.4784 -0.3930
 4222TIP3   OH212671   3.696   4.913   1.816 -0.1135  0.0372  0.1278
 4222TIP3    H112672   3.697   4.944   1.906  1.0317 -1.2483  0.5986
 4222TIP3    H212673   3.606   4.883   1.802  0.3358 -2.3859  1.8452
 4223TIP3   OH212674   1.837   0.710   1.736 -0.1025 -0.4724 -0.1543
 4223TIP3    H112675   1.773   0.744   1.799  0.0493 -0.6531  0.0958
 4223TIP3    H212676   1.883   0.641   1.783 -0.2546 -0.8767 -0.5889
 4224TIP3   OH212677   0.107   1.161   3.330 -0.2677 -0.2226 -0.4944
 4224TIP3    H112678   0.072   1.086   3.379 -1.5866  0.5646 -0.1602
 4224TIP3    H212679   0.072   1.150   3.242  2.1229 -1.6486 -1.3410
 4225TIP3   OH212680   0.442   0.940   3.283  0.3295  0.6029 -0.6145
 4225TIP3    H112681   0.370   0.889   3.246  0.2780 -0.2779  0.6473
 4225TIP3    H212682   0.509   0.937   3.214 -0.1826 -0.0340 -1.1101
 4226TIP3   OH212683   5.550   1.177   3.601 -0.8561 -0.8494  0.1490
 4226TIP3    H112684   5.497   1.250   3.631 -0.6613 -0.3174 -0.7615
 4226TIP3    H212685   5.573   1.129   3.681 -1.2284 -0.0832  0.7246
 4227TIP3   OH212686   4.554   3.007   3.441 -0.1260 -0.3868 -0.9323
 4227TIP3    H112687   4.587   3.097   3.444 -0.1173 -0.4105 -0.3423
 4227TIP3    H212688   4.472   3.009   3.489  0.8553 -1.1079  0.8640
 4228TIP3   OH212689   1.947   5.475   4.510 -0.6847 -0.4779 -0.1008
 4228TIP3    H112690   1.968   5.389   4.547  1.0025  0.1255  0.4510
 4228TIP3    H212691   1.852   5.479   4.513 -0.7722 -0.6744  3.9531
 4229TIP3   OH212692   0.713   4.640   3.016  0.0694  0.4118  0.8606
 4229TIP3    H112693   0.634   4.690   2.996  1.1045  1.5742 -0.4118
 4229TIP3    H212694   0.728   4.657   3.109  0.3932  2.5214  0.4728
 4230TIP3   OH212695   1.752   5.607   2.046  0.7376 -0.0371 -0.9101
 4230TIP3    H112696   1.684   5.582   2.107  0.1710 -1.9448 -2.2272
 4230TIP3    H212697   1.712   5.676   1.992  0.1157 -0.5875 -1.1646
 4231TIP3   OH212698   1.371   1.511   0.265 -0.1845 -0.1197 -0.7454
 4231TIP3    H112699   1.445   1.465   0.304 -1.3428 -1.5760 -0.2032
 4231TIP3    H212700   1.298   1.451   0.273 -1.2120  0.8724 -2.2184
 4232TIP3   OH212701   3.452   1.778   2.245  0.4372  0.7533 -0.0234
 4232TIP3    H112702   3.399   1.703   2.271  2.5216 -0.2860  1.6304
 4232TIP3    H212703   3.434   1.789   2.152 -0.4747 -1.3625 -0.1681
 4233TIP3   OH212704   3.052   0.336   0.816 -0.0078 -0.1785 -0.9740
 4233TIP3    H112705   3.141   0.371   0.810 -0.3649  0.5418 -2.4741
 4233TIP3    H212706   3.055   0.278   0.893  1.4623  0.6277 -0.3663
 4234TIP3   OH212707   0.137   0.874   2.628  0.2346  0.4652  0.0413
 4234TIP3    H112708   0.089   0.957   2.622 -0.5352 -0.0022 -0.5621
 4234TIP3    H212709   0.178   0.876   2.714 -1.9733  0.3453  1.1879
 4235TIP3   OH212710   2.288   4.912   2.471  0.6597 -0.4664  0.5138
 4235TIP3    H112711   2.302   4.979   2.404 -2.0511  0.4505  0.7577
 4235TIP3    H212712   2.336   4.944   2.547  0.3070  0.6803  0.2828
 4236TIP3   OH212713   1.089   1.517   3.652  0.2977  0.3260  0.1996
 4236TIP3    H112714   1.067   1.429   3.683  0.8763 -0.1259 -0.6397
 4236TIP3    H212715   1.178   1.531   3.682  0.7676 -0.0067 -0.9871
 4237TIP3   OH212716   0.513   2.889   3.472  0.0444  0.1061  0.0446
 4237TIP3    H112717   0.478   2.934   3.549 -0.0132 -1.8100  1.2198
 4237TIP3    H212718   0.463   2.924   3.399 -1.1790  0.6939  1.1193
 4238TIP3   OH212719   3.469   0.684   1.830 -0.3640  0.1946  0.3140
 4238TIP3    H112720   3.458   0.729   1.746  0.6066 -0.7388 -0.3318
 4238TIP3    H212721   3.524   0.743   1.882  1.2201 -0.3620 -0.6661
 4239TIP3   OH212722   1.555   1.950   1.822  0.5611 -0.3252 -0.1360
 4239TIP3    H112723   1.620   1.881   1.839 -1.8286 -2.6155  0.4340
 4239TIP3    H212724   1.498   1.950   1.899  0.4977  2.4188 -0.0966
 4240TIP3   OH212725   0.471   1.538   2.817  0.5540 -0.0793  0.3883
 4240TIP3    H112726   0.561   1.512   2.802  0.8700  1.2137 -0.1141
 4240TIP3    H212727   0.437   1.557   2.729 -0.0633 -0.1088  0.6171
 4241TIP3   OH212728   2.698   2.298   2.267 -0.1073  0.2410 -0.0033
 4241TIP3    H112729   2.753   2.355   2.321 -1.3026  0.9577  0.5242
 4241TIP3    H212730   2.716   2.325   2.177  0.5671  0.2948  0.1443
 4242TIP3   OH212731   0.190   4.480   3.718 -0.4518  0.1698  1.1213
 4242TIP3    H112732   0.243   4.530   3.656 -1.4493 -1.9394 -1.6442
 4242TIP3    H212733   0.101   4.484   3.683 -0.6612 -3.0488  0.9697
 4243TIP3   OH212734   5.130   4.181   4.435 -0.2472  0.0470 -0.2211
 4243TIP3    H112735   5.087   4.140   4.361  1.5536 -0.7802 -0.8736
 4243TIP3    H212736   5.076   4.257   4.455 -1.2335 -0.1788 -1.8215
 4244TIP3   OH212737   3.977   4.992   1.163 -0.6505  0.1253  0.4961
 4244TIP3    H112738   3.993   4.902   1.191 -1.8462 -0.7964 -1.5677
 4244TIP3    H212739   3.957   4.984   1.070 -0.6271  2.5664  0.2363
 4245TIP3   OH212740   3.805   2.627   1.249 -0.5256 -0.0662  0.4219
 4245TIP3    H112741   3.888   2.672   1.263 -0.5419 -0.3417  1.5159
 4245TIP3    H212742   3.818   2.540   1.287 -0.6709 -0.8359 -1.1880
 4246TIP3   OH212743   4.045   2.290   4.871 -0.5405  0.3135 -0.9374
 4246TIP3    H112744   3.984   2.361   4.888 -0.5822  0.0789 -0.0749
 4246TIP3    H212745   4.088   2.314   4.789  1.1257  2.5240  0.4601
 4247TIP3   OH212746   1.165   4.678   3.331 -0.7079  0.2700  0.4913
 4247TIP3    H112747   1.074   4.652   3.342 -0.7317  0.0875 -0.1436
 4247TIP3    H212748   1.163   4.751   3.270 -0.3365 -0.4854 -0.4527
 4248TIP3   OH212749   6.094   1.100   4.906  0.6075  1.0038  0.6976
 4248TIP3    H112750   6.021   1.111   4.844  1.1610  2.1259  0.2226
 4248TIP3    H212751   6.172   1.122   4.855  1.4344 -1.2023  0.8902
 4249TIP3   OH212752   5.653   4.820   3.929 -0.2828 -0.7831 -0.0404
 4249TIP3    H112753   5.683   4.909   3.945 -1.2088 -0.8170  2.2017
 4249TIP3    H212754   5.719   4.783   3.871  2.1310  0.2624  1.8527
 4250TIP3   OH212755   4.671   3.581   3.755 -0.5228  0.0204  0.1726
 4250TIP3    H112756   4.643   3.585   3.846 -1.9792 -0.2877 -0.2324
 4250TIP3    H212757   4.700   3.670   3.735  1.9612 -0.3985  1.5363
 4251TIP3   OH212758   4.388   5.420   4.353  0.1718 -0.1440  0.1602
 4251TIP3    H112759   4.371   5.369   4.274 -0.0750  1.7649 -1.0785
 4251TIP3    H212760   4.332   5.497   4.345  1.2455  0.8355  1.4752
 4252TIP3   OH212761   2.944   0.735   4.417  0.1034 -0.0354  0.1400
 4252TIP3    H112762   3.027   0.713   4.375  0.8387  0.4358  1.2932
 4252TIP3    H212763   2.954   0.705   4.508 -0.4898  1.1975  0.6331
 4253TIP3   OH212764   0.806   3.952   4.208 -0.3228 -0.0596 -0.0565
 4253TIP3    H112765   0.839   4.013   4.273 -0.8716 -0.8000  0.9451
 4253TIP3    H212766   0.711   3.962   4.211 -0.3164  1.0608 -1.9206
 4254TIP3   OH212767   0.358   2.106   4.890  0.2633  0.4046  0.0701
 4254TIP3    H112768   0.345   2.190   4.933  0.7603  0.4018  0.2293
 4254TIP3    H212769   0.453   2.096   4.884  0.2597 -0.8986  1.5425
 4255TIP3   OH212770   1.006   3.030   3.555 -0.2298 -0.3443  0.9945
 4255TIP3    H112771   1.067   3.097   3.523  0.7033  0.0019  3.2567
 4255TIP3    H212772   0.930   3.038   3.498  0.1694  2.1190  0.6700
 4256TIP3   OH212773   1.650   3.587   2.005 -0.4405  0.0905 -0.1025
 4256TIP3    H112774   1.734   3.541   2.008 -1.2655 -1.4442  2.1914
 4256TIP3    H212775   1.618   3.570   1.916  0.9916 -0.5594 -0.5356
 4257TIP3   OH212776   4.924   3.060   2.749 -0.5348 -0.3162  0.0115
 4257TIP3    H112777   4.912   3.070   2.655  2.0539 -1.4393 -0.5444
 4257TIP3    H212778   4.947   3.147   2.780  0.5825 -0.2899 -0.8094
 4258TIP3   OH212779   2.402   3.489   2.543  0.3423 -0.0301 -0.2128
 4258TIP3    H112780   2.434   3.533   2.464  1.6807  1.7030  1.1987
 4258TIP3    H212781   2.480   3.482   2.599 -0.8440  0.0851  1.5159
 4259TIP3   OH212782   3.792   4.272   2.360 -0.0710  0.5405  0.6897
 4259TIP3    H112783   3.831   4.187   2.337  0.6881  0.7321  1.2244
 4259TIP3    H212784   3.698   4.254   2.367  0.0749 -0.2391  0.7286
 4260TIP3   OH212785   5.734   0.170   2.945  0.2863 -0.3509  0.0699
 4260TIP3    H112786   5.713   0.183   2.853  0.5268 -0.1110  0.0483
 4260TIP3    H212787   5.809   0.111   2.945  1.0138  0.5461  0.0646
 4261TIP3   OH212788   3.783   4.132   0.819  0.0962 -0.0240 -0.0312
 4261TIP3    H112789   3.877   4.137   0.806 -0.1038  1.3722 -1.2496
 4261TIP3    H212790   3.746   4.138   0.731 -1.1506  0.4203  0.4935
 4262TIP3   OH212791   5.474   2.029   2.899  0.0299 -0.4301  0.0787
 4262TIP3    H112792   5.551   2.003   2.848 -0.3497  1.0246 -1.3652
 4262TIP3    H212793   5.399   2.001   2.846 -0.3924  0.1188  0.3651
 4263TIP3   OH212794   5.430   4.529   0.523 -0.1795  0.3864 -0.1909
 4263TIP3    H112795   5.524   4.515   0.511 -0.4649 -1.3386 -0.5953
 4263TIP3    H212796   5.397   4.446   0.556 -1.0199  2.0023  3.6821
 4264TIP3   OH212797   5.171   5.703   2.605 -0.2545 -0.0937  0.1261
 4264TIP3    H112798   5.185   5.608   2.609 -0.3546 -0.1253 -0.2536
 4264TIP3    H212799   5.098   5.720   2.664 -0.7441 -0.3555 -0.3954
 4265TIP3   OH212800   0.099   2.926   4.337 -0.3872 -0.1474  0.2336
 4265TIP3    H112801   0.106   2.960   4.426 -1.5667  0.9274 -0.0521
 4265TIP3    H212802   0.129   2.998   4.281  1.5902 -1.2492 -0.2368
 4266TIP3   OH212803   5.109   1.909   3.983  0.0096 -0.3791 -0.0918
 4266TIP3    H112804   5.173   1.980   3.983 -2.3344  1.8967 -0.4157
 4266TIP3    H212805   5.113   1.873   3.894 -0.7287  1.3585 -0.8871
 4267TIP3   OH212806   3.478   4.886   0.034 -0.1788 -0.4727 -0.0747
 4267TIP3    H112807   3.496   4.958  -0.027  0.2119 -2.1389 -2.0255
 4267TIP3    H212808   3.545   4.895   0.102 -0.4188  1.2324 -0.0233
 4268TIP3   OH212809   2.019   3.416   3.079 -0.6971  0.2060  0.4647
 4268TIP3    H112810   2.075   3.345   3.048 -0.7718  0.2812  0.1553
 4268TIP3    H212811   2.068   3.496   3.057 -1.5100  0.3376 -1.0282
 4269TIP3   OH212812   3.322   5.527   1.651 -0.4493  0.4541 -0.4504
 4269TIP3    H112813   3.270   5.513   1.730  1.0817  0.7869  0.6713
 4269TIP3    H212814   3.272   5.485   1.581 -0.7158 -2.0158  1.0992
 4270TIP3   OH212815   5.907   4.847   1.928  0.9247  0.0056 -0.1262
 4270TIP3    H112816   5.970   4.881   1.865 -1.0232  0.0217 -2.2008
 4270TIP3    H212817   5.822   4.867   1.889 -0.3767 -0.5948  2.2298
 4271TIP3   OH212818   0.234   5.737   3.123  0.1030 -0.0681  0.2852
 4271TIP3    H112819   0.232   5.829   3.096 -1.8658 -0.2536 -0.4470
 4271TIP3    H212820   0.186   5.692   3.053  0.7266 -1.6002  0.8159
 4272TIP3   OH212821   2.650   3.740   4.356  1.0374  0.5241  0.1404
 4272TIP3    H112822   2.593   3.762   4.281  1.7532  1.4681 -0.1407
 4272TIP3    H212823   2.667   3.646   4.345 -1.5947 -0.1416  1.0288
 4273TIP3   OH212824   5.834   1.625   3.126  0.0417 -0.7193 -0.6808
 4273TIP3    H112825   5.787   1.542   3.129  1.0237 -1.2930 -0.6610
 4273TIP3    H212826   5.778   1.683   3.075 -1.4308 -0.8821  0.6851
 4274TIP3   OH212827   3.465   4.782   2.095 -0.2296 -0.7876  0.3754
 4274TIP3    H112828   3.551   4.822   2.094  0.3275 -1.9301  0.3366
 4274TIP3    H212829   3.405   4.851   2.066  1.0112 -0.7431 -2.3636
 4275TIP3   OH212830   6.249   0.084   3.659 -0.1777  0.3677 -0.3706
 4275TIP3    H112831   6.249   0.067   3.564  1.3415  0.5005 -0.4191
 4275TIP3    H212832   6.309   0.018   3.694 -0.9911  0.1080  0.5541
 4276TIP3   OH212833   0.631   5.402   0.248  0.4428 -0.6218  0.1177
 4276TIP3    H112834   0.723   5.428   0.258  0.5524 -0.5784 -0.8822
 4276TIP3    H212835   0.587   5.440   0.323  0.7746  1.5822 -0.7410
 4277TIP3   OH212836   0.647   2.043   4.808  0.2720 -0.2240  0.3849
 4277TIP3    H112837   0.657   1.989   4.886  2.3950 -0.3732  0.0718
 4277TIP3    H212838   0.732   2.037   4.763 -0.5671  0.6128 -1.4487
 4278TIP3   OH212839   5.151   0.206   5.060 -0.0246 -0.2675 -0.3336
 4278TIP3    H112840   5.229   0.254   5.087  1.0233 -1.6584 -0.7029
 4278TIP3    H212841   5.182   0.150   4.989 -1.6044 -0.1565 -1.1476
 4279TIP3   OH212842   4.618   5.806   1.709  0.4200 -0.7293  0.6743
 4279TIP3    H112843   4.550   5.857   1.753  0.2895 -0.8112  0.5680
 4279TIP3    H212844   4.570   5.749   1.648  0.7600  1.8083 -2.1803
 4280TIP3   OH212845   4.391   0.296   1.979 -0.1861 -0.0346 -0.8513
 4280TIP3    H112846   4.386   0.201   1.992  0.2042 -0.3726 -2.7830
 4280TIP3    H212847   4.385   0.333   2.066  0.0310 -1.8642 -0.0167
 4281TIP3   OH212848   0.331   0.168   4.518 -0.0789 -0.3841 -0.3347
 4281TIP3    H112849   0.417   0.196   4.488 -0.1184  0.3399  0.2060
 4281TIP3    H212850   0.270   0.234   4.485  0.0453  1.2841  2.4679
 4282TIP3   OH212851   0.721   0.223   5.059 -0.1398  0.3068 -0.3711
 4282TIP3    H112852   0.718   0.271   5.141  1.2040  0.9245 -0.6679
 4282TIP3    H212853   0.760   0.284   4.996 -0.5426 -0.3769 -1.3115
 4283TIP3   OH212854   0.389   3.103   3.918 -0.1836  0.1930 -0.1807
 4283TIP3    H112855   0.404   3.183   3.970 -0.1340  0.6639 -0.8985
 4283TIP3    H212856   0.401   3.132   3.828  2.8934 -1.2659 -0.3761
 4284TIP3   OH212857   1.486   0.751   0.355  0.4253 -0.1107 -0.1300
 4284TIP3    H112858   1.415   0.693   0.327  0.6182 -0.0978 -0.6627
 4284TIP3    H212859   1.489   0.741   0.450 -0.5145  0.1455 -0.0593
 4285TIP3   OH212860   4.875   4.787   0.436  0.0715  0.4847  0.4733
 4285TIP3    H112861   4.962   4.827   0.437 -0.0800  0.8472  0.0205
 4285TIP3    H212862   4.886   4.704   0.481  0.3223  1.1968  1.7744
 4286TIP3   OH212863   1.989   2.951   1.308 -0.6582 -0.2714  0.3516
 4286TIP3    H112864   1.951   2.878   1.358 -0.9266 -1.2433 -1.2250
 4286TIP3    H212865   2.068   2.915   1.269 -0.1457  0.6484  0.5258
 4287TIP3   OH212866   4.765   3.890   3.629  0.3600 -0.2019 -0.1536
 4287TIP3    H112867   4.841   3.870   3.683  0.2070 -1.6422 -0.4276
 4287TIP3    H212868   4.727   3.968   3.669  2.5067  1.1444 -0.5856
 4288TIP3   OH212869   3.818   4.669   0.984  0.1923 -0.4618  0.4807
 4288TIP3    H112870   3.889   4.612   0.958  0.0964 -0.6392  0.6049
 4288TIP3    H212871   3.847   4.757   0.960  1.2384 -0.3015  2.1470
 4289TIP3   OH212872   0.329   4.740   2.272 -0.1909  0.3045 -0.1891
 4289TIP3    H112873   0.302   4.782   2.353  1.4270 -1.2694  1.2506
 4289TIP3    H212874   0.257   4.756   2.211 -1.9011  0.7054  1.8416
 4290TIP3   OH212875   3.478   1.165   2.400  0.2475  0.3404  0.5457
 4290TIP3    H112876   3.491   1.176   2.494  0.8877 -0.5623  0.5714
 4290TIP3    H212877   3.519   1.081   2.379 -1.7461 -0.5244 -0.1648
 4291TIP3   OH212878   0.238   1.172   4.377  0.4816 -0.7543 -0.1055
 4291TIP3    H112879   0.166   1.154   4.437 -0.7485 -0.8654 -1.5611
 4291TIP3    H212880   0.259   1.087   4.338  0.8241 -0.5845 -0.2960
 4292TIP3   OH212881   2.497   1.473   4.624  0.2456  0.1054  0.3163
 4292TIP3    H112882   2.413   1.515   4.605  1.6088  2.0345 -2.0024
 4292TIP3    H212883   2.505   1.403   4.560  1.0631  0.9741 -0.5619
 4293TIP3   OH212884   5.773   3.700   3.233  0.0153 -0.0126 -0.4685
 4293TIP3    H112885   5.846   3.653   3.275  0.9074  0.6230 -1.2626
 4293TIP3    H212886   5.797   3.792   3.238 -1.1455  0.2788 -0.0110
 4294TIP3   OH212887   2.478   2.958   1.118 -0.1025  0.4844 -0.6085
 4294TIP3    H112888   2.519   2.962   1.031 -0.6319 -1.8759 -1.0283
 4294TIP3    H212889   2.397   3.008   1.107  0.7244  1.8052 -0.9075
 4295TIP3   OH212890   6.084   3.749   0.592 -0.4879 -0.4840 -0.0846
 4295TIP3    H112891   6.086   3.654   0.591 -0.2900 -0.4779 -0.2603
 4295TIP3    H212892   6.075   3.775   0.501  0.0496 -0.3254 -0.1004
 4296TIP3   OH212893   0.924   5.774   3.807  0.0487  0.2604  0.1513
 4296TIP3    H112894   0.978   5.841   3.764  0.4315  0.9724  1.6833
 4296TIP3    H212895   0.843   5.773   3.756 -0.4224  2.7128  0.7130
 4297TIP3   OH212896   2.669   0.298   1.500 -0.0521  0.0008 -0.1596
 4297TIP3    H112897   2.744   0.256   1.458 -0.2279  1.4304 -2.0400
 4297TIP3    H212898   2.696   0.310   1.591  1.7317 -0.1319 -0.6290
 4298TIP3   OH212899   5.049   5.110   4.295 -0.0526  0.1761  0.2453
 4298TIP3    H112900   5.025   5.199   4.270  1.5596  1.7845  3.6641
 4298TIP3    H212901   5.125   5.089   4.240 -0.3652  0.9743 -0.5063
 4299TIP3   OH212902   1.270   0.746   2.983  0.6149 -0.8010  0.0195
 4299TIP3    H112903   1.181   0.734   3.016 -0.0017 -1.3981 -1.7673
 4299TIP3    H212904   1.317   0.669   3.015  0.3985 -0.6720  0.6658
 4300TIP3   OH212905   6.264   3.434   3.801  0.4338 -0.4579  0.4328
 4300TIP3    H112906   6.320   3.453   3.726 -0.3545 -0.7090 -0.2367
 4300TIP3    H212907   6.235   3.520   3.832 -0.9326 -0.3939 -0.8897
 4301TIP3   OH212908   5.472   2.948   0.132 -0.0475  0.1570  0.3377
 4301TIP3    H112909   5.427   2.916   0.210  1.6172 -1.7086  0.6106
 4301TIP3    H212910   5.466   2.877   0.070  1.0463  0.5245 -0.2176
 4302TIP3   OH212911   0.364   5.681   5.038  0.6490  0.3402  0.8058
 4302TIP3    H112912   0.356   5.613   4.971 -0.5980  0.8290  0.4285
 4302TIP3    H212913   0.426   5.743   5.001  1.4044 -0.3217  0.9319
 4303TIP3   OH212914   5.273   2.393   2.497  0.0345 -0.2343  0.1364
 4303TIP3    H112915   5.345   2.342   2.459 -0.1042 -1.1020  1.0164
 4303TIP3    H212916   5.280   2.379   2.591  0.9620  2.6444  0.6062
 4304TIP3   OH212917   3.980   4.286   2.593 -0.0071 -0.0149 -0.1995
 4304TIP3    H112918   4.053   4.336   2.557  0.0683  1.4955  1.9005
 4304TIP3    H212919   3.941   4.243   2.516  2.5355 -0.2311 -1.4968
 4305TIP3   OH212920   3.758   2.397   4.984  0.3955 -0.0270  0.9520
 4305TIP3    H112921   3.796   2.482   5.008 -1.1627  0.7340  0.8237
 4305TIP3    H212922   3.672   2.418   4.948  0.4099 -1.5881 -0.1105
 4306TIP3   OH212923   6.294   4.669   3.953  0.1763  0.0542 -0.0759
 4306TIP3    H112924   6.353   4.594   3.964 -0.8084 -0.8052 -0.5165
 4306TIP3    H212925   6.207   4.633   3.968 -0.4623  0.7419 -1.8493
 4307TIP3   OH212926   5.419   3.283   1.227  0.1079  0.1779  0.4106
 4307TIP3    H112927   5.395   3.302   1.317  0.5373 -0.3454  0.6362
 4307TIP3    H212928   5.503   3.328   1.214  0.4157 -0.3657  0.5037
 4308TIP3   OH212929   2.904   5.483   1.830 -0.3719 -0.5260  0.0204
 4308TIP3    H112930   2.999   5.477   1.842 -0.0429  0.4331 -1.7123
 4308TIP3    H212931   2.894   5.508   1.738 -2.2798  0.3481  0.4287
 4309TIP3   OH212932   0.290   2.740   1.540 -0.4536 -0.2776  0.2625
 4309TIP3    H112933   0.279   2.687   1.461 -0.1904  1.4736 -0.9841
 4309TIP3    H212934   0.358   2.695   1.590  0.9826 -0.2255 -1.5713
 4310TIP3   OH212935   2.881   3.932   4.397 -0.2608 -0.7553  0.0771
 4310TIP3    H112936   2.807   3.878   4.426 -0.6049 -1.1235 -1.3767
 4310TIP3    H212937   2.958   3.883   4.424 -0.5710 -1.3272 -0.0405
 4311TIP3   OH212938   1.778   1.629   0.550  0.1807 -0.0620  0.5121
 4311TIP3    H112939   1.748   1.539   0.537 -0.0932  0.1779 -0.6485
 4311TIP3    H212940   1.698   1.681   0.551  0.2759  0.0992  2.0421
 4312TIP3   OH212941   6.327   2.694   2.612  0.1157  0.2778  0.0821
 4312TIP3    H112942   6.255   2.756   2.625 -0.2844  0.0257 -0.7862
 4312TIP3    H212943   6.404   2.737   2.649 -0.0646  1.4911 -0.8888
 4313TIP3   OH212944   4.177   0.664   3.200  0.8017  0.0127 -0.0711
 4313TIP3    H112945   4.128   0.587   3.170  0.8690  0.2538 -0.8062
 4313TIP3    H212946   4.123   0.701   3.270  0.2910 -0.1436 -0.3798
 4314TIP3   OH212947   0.714   3.982   3.145 -0.0648  0.3230  0.3838
 4314TIP3    H112948   0.775   3.957   3.076  0.5764  0.0325  1.0366
 4314TIP3    H212949   0.633   3.937   3.124 -0.9105  2.6738 -1.9054
 4315TIP3   OH212950   6.029   1.623   2.610  0.0052 -0.2309 -0.0738
 4315TIP3    H112951   5.949   1.626   2.663  0.4408  1.2781  0.5810
 4315TIP3    H212952   6.091   1.572   2.663 -0.4269 -1.1630 -0.4546
 4316TIP3   OH212953   2.992   1.209   3.769  0.2235 -0.2710  0.0465
 4316TIP3    H112954   2.932   1.282   3.751 -0.0929 -0.8269 -1.3353
 4316TIP3    H212955   3.078   1.242   3.743  0.4375  0.2832  1.3615
 4317TIP3   OH212956   3.591   2.924   1.522 -0.0784  0.2243  0.6477
 4317TIP3    H112957   3.666   2.865   1.512  0.3490  0.6984  1.0841
 4317TIP3    H212958   3.573   2.954   1.432  0.4495  0.3503  0.5777
 4318TIP3   OH212959   2.055   5.868   0.700  0.0791  0.1720  0.4716
 4318TIP3    H112960   2.056   5.830   0.787 -0.2943 -1.7351 -0.3113
 4318TIP3    H212961   2.111   5.810   0.648  0.1755  1.1835 -0.5923
 4319TIP3   OH212962   0.601   3.992   0.573 -0.1903 -0.1840  0.4400
 4319TIP3    H112963   0.658   3.917   0.592  0.7581  0.6804  1.1637
 4319TIP3    H212964   0.658   4.068   0.585 -1.3079  0.6802  0.4033
 4320TIP3   OH212965   1.311   2.014   1.980 -0.4003  0.1744 -0.6411
 4320TIP3    H112966   1.279   1.995   2.069  0.8133 -0.0118 -0.2204
 4320TIP3    H212967   1.233   2.010   1.925 -1.2930  0.9764  0.5194
 4321TIP3   OH212968   0.943   2.399   3.353 -0.4674  0.1997  0.1600
 4321TIP3    H112969   0.851   2.373   3.355 -0.7020  0.8075 -1.2857
 4321TIP3    H212970   0.970   2.400   3.444 -1.7823 -0.3800  0.5778
 4322TIP3   OH212971   2.319   3.270   4.545 -0.2066 -0.0814 -0.2357
 4322TIP3    H112972   2.303   3.272   4.451  1.0970 -1.8619 -0.5472
 4322TIP3    H212973   2.358   3.354   4.565  0.8139 -0.2163 -1.5579
 4323TIP3   OH212974   4.367   3.939   3.088 -0.5987  0.0062  0.6262
 4323TIP3    H112975   4.285   3.925   3.041 -1.9499  1.7321  2.3019
 4323TIP3    H212976   4.374   3.863   3.147  0.3766 -1.4216 -1.2051
 4324TIP3   OH212977   3.533   2.586   5.129  0.5315  0.9316 -0.2542
 4324TIP3    H112978   3.505   2.527   5.198 -0.8818 -0.7536 -2.1544
 4324TIP3    H212979   3.525   2.535   5.049  0.8114  3.2060 -1.8279
 4325TIP3   OH212980   0.083   3.377   4.236  0.4201 -0.1387  0.1935
 4325TIP3    H112981   0.119   3.324   4.165 -0.2309  0.2263 -0.4219
 4325TIP3    H212982   0.157   3.428   4.268  0.9662 -1.1010  0.5187
 4326TIP3   OH212983   0.920   4.710   2.517 -0.2345 -0.2733  0.0301
 4326TIP3    H112984   0.932   4.795   2.559 -0.8821 -1.0115  1.8311
 4326TIP3    H212985   0.835   4.715   2.474 -0.0230  0.1674 -0.3352
 4327TIP3   OH212986   1.147   0.657   4.085 -0.2519 -0.1940 -0.1942
 4327TIP3    H112987   1.115   0.718   4.151  0.6722 -0.5184  0.5717
 4327TIP3    H212988   1.209   0.601   4.132  0.6381 -0.2592 -1.4023
 4328TIP3   OH212989   2.829   2.276   4.109 -0.4990 -0.2146 -0.0561
 4328TIP3    H112990   2.826   2.371   4.100 -0.6886 -0.3119 -1.1393
 4328TIP3    H212991   2.923   2.255   4.109 -0.4527 -0.0199  0.3502
 4329TIP3   OH212992   6.018   3.473   2.004 -0.0650  0.0307  0.2021
 4329TIP3    H112993   5.929   3.507   2.017 -1.4770 -3.3838  0.6876
 4329TIP3    H212994   6.021   3.450   1.912 -0.7870 -2.2926  0.6812
 4330TIP3   OH212995   5.867   0.801   2.038  0.2239  0.1527 -0.1649
 4330TIP3    H112996   5.801   0.736   2.014  1.0602 -0.6570 -0.3262
 4330TIP3    H212997   5.838   0.833   2.124 -0.7693  0.3620 -0.5598
 4331TIP3   OH212998   1.440   2.074   2.419  0.6917 -0.6009 -0.0450
 4331TIP3    H112999   1.349   2.093   2.401  0.8701  0.1000 -0.2369
 4331TIP3    H213000   1.462   2.002   2.360  0.2890 -0.7183 -0.0550
 4332TIP3   OH213001   3.215   5.776   5.023  0.2631 -0.0016  0.5595
 4332TIP3    H113002   3.132   5.822   5.026  0.6075  0.6621  0.2689
 4332TIP3    H213003   3.277   5.841   4.987  0.8801 -0.5053  0.6918
 4333TIP3   OH213004   1.447   1.834   2.288  0.0197 -1.2987  0.3314
 4333TIP3    H113005   1.470   1.764   2.350  0.0991 -2.4651 -0.9548
 4333TIP3    H213006   1.357   1.814   2.261 -1.0375  0.7581  2.0632
 4334TIP3   OH213007   4.945   3.617   2.007 -0.3464  0.3701 -0.0810
 4334TIP3    H113008   5.030   3.573   2.013 -0.5272  0.0787  0.4556
 4334TIP3    H213009   4.894   3.580   2.079 -0.6083  1.2313  0.1910
 4335TIP3   OH213010   2.221   2.972   3.401  0.1859  0.3267 -0.1491
 4335TIP3    H113011   2.288   2.906   3.384 -0.4403  0.0931 -1.9080
 4335TIP3    H213012   2.156   2.927   3.455  0.0399 -0.3374 -0.8678
 4336TIP3   OH213013   3.468   1.472   1.814 -0.3472 -0.3349  0.4239
 4336TIP3    H113014   3.398   1.441   1.871 -0.6847 -1.8478 -0.7588
 4336TIP3    H213015   3.543   1.417   1.836 -0.1296 -0.1180  0.2361
 4337TIP3   OH213016   1.879   2.511   2.668 -0.1822 -0.2616 -0.3905
 4337TIP3    H113017   1.904   2.595   2.629 -1.6236  0.1450 -0.5048
 4337TIP3    H213018   1.924   2.445   2.616 -0.4120  0.3720 -1.4148
 4338TIP3   OH213019   4.697   2.009   2.243  0.1701  0.4916 -0.2136
 4338TIP3    H113020   4.613   2.007   2.288  1.1043  0.8514  1.6412
 4338TIP3    H213021   4.744   2.082   2.283  2.1647 -0.9919  0.3664
 4339TIP3   OH213022   3.100   4.078   1.755 -0.2852  0.3227 -0.0724
 4339TIP3    H113023   3.042   4.117   1.820 -0.2328  0.5395 -0.1547
 4339TIP3    H213024   3.175   4.138   1.750  0.8121 -0.8581  1.3379
 4340TIP3   OH213025   1.796   2.045   2.942 -0.0953 -0.2911 -0.2035
 4340TIP3    H113026   1.760   1.971   2.991  0.0902  0.8289  1.7344
 4340TIP3    H213027   1.755   2.122   2.982  1.7105  0.8077 -0.3532
 4341TIP3   OH213028   4.661   5.161   2.716  0.2372  0.6366  0.2871
 4341TIP3    H113029   4.668   5.162   2.620  0.2159 -1.6356  0.2023
 4341TIP3    H213030   4.567   5.167   2.733  0.0389 -1.0527  0.0202
 4342TIP3   OH213031   6.094   1.460   3.603  0.4249  0.2364 -0.4362
 4342TIP3    H113032   6.150   1.383   3.603  1.7092  1.1298  0.4711
 4342TIP3    H213033   6.006   1.426   3.588  1.1600 -1.2231 -1.6692
 4343TIP3   OH213034   0.443   4.625   3.219  0.0969 -0.2681  0.0508
 4343TIP3    H113035   0.534   4.630   3.246  0.0520 -0.5691  0.2664
 4343TIP3    H213036   0.425   4.531   3.211  0.0367 -0.1875 -0.7817
 4344TIP3   OH213037   4.187   0.022   1.432 -0.1446  0.8344  0.4460
 4344TIP3    H113038   4.177   0.024   1.527 -1.7587  1.8170  0.2918
 4344TIP3    H213039   4.213   0.111   1.409 -0.0321  0.6724 -0.0613
 4345TIP3   OH213040   1.477   1.193   2.489 -0.0215  0.3287 -0.0642
 4345TIP3    H113041   1.437   1.145   2.562  2.4238 -0.9639  0.5195
 4345TIP3    H213042   1.415   1.183   2.417  0.1311 -3.3552  0.1676
 4346TIP3   OH213043   1.656   2.287   1.723 -0.0409 -0.0196  0.0055
 4346TIP3    H113044   1.673   2.251   1.810  0.3165  0.0534 -0.0329
 4346TIP3    H213045   1.649   2.382   1.737  0.9634  0.0875 -0.1874
 4347TIP3   OH213046   5.821   5.603   4.317 -0.1393  0.2965  0.2368
 4347TIP3    H113047   5.771   5.522   4.320 -0.5140  0.5560  1.1708
 4347TIP3    H213048   5.838   5.625   4.409  0.8934  0.7048 -0.0293
 4348TIP3   OH213049   0.237   2.678   2.760 -0.0387  0.1379 -0.0617
 4348TIP3    H113050   0.329   2.694   2.739  0.1302 -0.4662  0.1922
 4348TIP3    H213051   0.219   2.590   2.725 -0.6879  0.4856 -0.6366
 4349TIP3   OH213052   1.988   2.653   0.366 -0.7166 -0.5180 -0.3713
 4349TIP3    H113053   2.011   2.594   0.437  2.2122 -0.8738 -1.4838
 4349TIP3    H213054   2.018   2.609   0.287 -0.9102  1.2770 -1.5073
 4350TIP3   OH213055   1.911   0.785   2.096  0.2261 -0.6641 -0.4460
 4350TIP3    H113056   1.909   0.717   2.029 -0.6180 -0.2553 -0.8520
 4350TIP3    H213057   2.003   0.794   2.119  0.4883 -0.9994 -1.3563
 4351TIP3   OH213058   1.127   5.936   0.990  0.2284  0.3693  0.0677
 4351TIP3    H113059   1.034   5.958   0.985 -0.3561 -1.9346 -0.5101
 4351TIP3    H213060   1.171   6.008   0.946 -1.4275  0.8381 -0.9226
 4352TIP3   OH213061   3.884   5.349   1.402  0.0702  0.2865  0.5544
 4352TIP3    H113062   3.848   5.415   1.461  0.0098 -0.8266  1.8047
 4352TIP3    H213063   3.822   5.276   1.406 -1.4341  1.1167 -2.9987
 4353TIP3   OH213064   1.044   0.912   0.843 -0.4885  0.5084  0.3209
 4353TIP3    H113065   1.021   1.003   0.823 -0.5521  0.8673  1.9055
 4353TIP3    H213066   1.015   0.900   0.934  1.1703 -0.5342  0.7456
 4354TIP3   OH213067   0.079   0.667   2.167 -0.2314  0.0950  0.1100
 4354TIP3    H113068   0.085   0.735   2.100  2.7028 -1.0388 -0.9185
 4354TIP3    H213069   0.080   0.715   2.250 -0.2877  1.3713 -0.6005
 4355TIP3   OH213070   2.151   5.429   2.997  0.4087  0.4761 -0.5165
 4355TIP3    H113071   2.058   5.409   3.008  0.0456  2.0131 -0.5033
 4355TIP3    H213072   2.189   5.350   2.961 -0.7332 -0.4982  0.3417
 4356TIP3   OH213073   6.077   5.295   2.994  0.3163 -0.1011 -0.0146
 4356TIP3    H113074   6.019   5.291   3.070 -0.3549  1.4542 -0.3936
 4356TIP3    H213075   6.022   5.270   2.920  1.0006 -1.7358 -0.0120
 4357TIP3   OH213076   2.480   4.878  -0.016 -0.2430  0.4125  0.0573
 4357TIP3    H113077   2.454   4.850   0.071  1.8075  1.4299  1.0768
 4357TIP3    H213078   2.502   4.971  -0.006  1.3770  0.2188 -1.1804
 4358TIP3   OH213079   1.944   3.390   4.387  0.1461 -0.0331 -0.1015
 4358TIP3    H113080   1.930   3.306   4.431  0.1070 -0.4333 -0.8586
 4358TIP3    H213081   1.922   3.455   4.453 -0.0272 -0.6218  0.4345
 4359TIP3   OH213082   4.654   3.528   0.872 -0.5721 -0.4353  0.8071
 4359TIP3    H113083   4.564   3.524   0.841 -0.3850 -1.1191  0.3392
 4359TIP3    H213084   4.706   3.541   0.793 -0.1084 -2.0258  0.8103
 4360TIP3   OH213085   4.412   3.668   2.444 -0.3869  0.0282 -0.1675
 4360TIP3    H113086   4.441   3.758   2.457 -0.3828 -0.0806  0.6077
 4360TIP3    H213087   4.444   3.645   2.356  1.1490  0.1953  0.3193
 4361TIP3   OH213088   2.018   4.350   5.164 -0.2182  0.3367 -0.2571
 4361TIP3    H113089   2.109   4.322   5.174 -0.5144  0.2742  3.4368
 4361TIP3    H213090   1.987   4.303   5.087  2.3895 -0.9074 -0.6595
 4362TIP3   OH213091   6.151   2.472   2.645  0.5121  0.2262 -0.1701
 4362TIP3    H113092   6.072   2.523   2.660 -1.4215 -2.3209 -1.0624
 4362TIP3    H213093   6.220   2.538   2.636 -2.1200  2.9394 -3.4607
 4363TIP3   OH213094   2.887   1.465   4.842  0.2114  0.0474 -0.5063
 4363TIP3    H113095   2.924   1.380   4.819  1.0120  0.2384 -0.0005
 4363TIP3    H213096   2.863   1.505   4.759 -2.2073 -1.5180 -0.6520
 4364TIP3   OH213097   3.659   0.955   4.344 -0.1132 -0.0203 -0.5144
 4364TIP3    H113098   3.728   1.022   4.341 -1.6803  1.9129  2.2026
 4364TIP3    H213099   3.594   0.986   4.280  0.1340 -0.1357 -0.8236
 4365TIP3   OH213100   1.692   1.319   2.897 -0.2124  0.2070 -0.2161
 4365TIP3    H113101   1.605   1.310   2.937  0.4979  0.8583  1.6159
 4365TIP3    H213102   1.715   1.231   2.868 -2.1408  0.2950 -2.3288
 4366TIP3   OH213103   5.277   0.151   2.752 -0.4995 -0.3164 -0.3855
 4366TIP3    H113104   5.283   0.138   2.847 -0.4813 -0.1506 -0.3642
 4366TIP3    H213105   5.359   0.115   2.718 -1.1933 -1.8756 -0.5000
 4367TIP3   OH213106   2.480   4.196   0.482  0.1262  0.0862  0.2957
 4367TIP3    H113107   2.409   4.148   0.440 -0.0468  0.7946 -0.2467
 4367TIP3    H213108   2.547   4.130   0.500  0.6178 -0.1277 -2.0005
 4368TIP3   OH213109   3.866   4.756   2.776  0.3696  0.1561 -0.2334
 4368TIP3    H113110   3.784   4.738   2.822  0.5741  0.5426  0.2865
 4368TIP3    H213111   3.857   4.846   2.746  1.3534  0.8383  1.4362
 4369TIP3   OH213112   4.163   0.564   1.570  0.3026  0.2827 -0.0975
 4369TIP3    H113113   4.192   0.476   1.594 -0.1106  0.1884  0.0467
 4369TIP3    H213114   4.119   0.552   1.486 -3.7007 -0.3991  1.8967
 4370TIP3   OH213115   3.984   5.391   2.501 -0.0331  0.5440  0.5724
 4370TIP3    H113116   4.003   5.341   2.421 -1.7175  0.3623  0.2496
 4370TIP3    H213117   3.917   5.454   2.475  0.4866  1.4992  1.5037
 4371TIP3   OH213118   2.256   1.324   0.676 -0.4368 -0.5868  0.2849
 4371TIP3    H113119   2.346   1.351   0.658 -0.7626  0.5819  0.3054
 4371TIP3    H213120   2.241   1.250   0.618  0.2091 -0.1543 -0.4579
 4372TIP3   OH213121   2.714   4.518   0.720 -0.0662 -0.4190  0.1531
 4372TIP3    H113122   2.769   4.456   0.767  1.5689  0.9324  0.0897
 4372TIP3    H213123   2.755   4.526   0.634 -1.7164 -1.1205 -0.7655
 4373TIP3   OH213124   3.300   1.631   1.307  0.3413 -0.3591  0.6870
 4373TIP3    H113125   3.391   1.659   1.319  0.2653  0.2677 -0.0707
 4373TIP3    H213126   3.259   1.704   1.259 -0.4829 -0.7624  0.7608
 4374TIP3   OH213127   1.985   0.613   1.917 -0.0065  1.0444 -0.0041
 4374TIP3    H113128   2.078   0.610   1.894  0.2329 -0.4856  1.0299
 4374TIP3    H213129   1.959   0.521   1.925 -1.5907  1.4489 -0.1741
 4375TIP3   OH213130   0.569   0.099   0.132  0.0393 -0.1272  0.0514
 4375TIP3    H113131   0.581   0.192   0.111  0.7291 -0.1257  0.4068
 4375TIP3    H213132   0.581   0.054   0.049 -0.3462  0.1081 -0.1324
 4376TIP3   OH213133   4.646   4.102   2.573  0.3038 -0.4791  0.2876
 4376TIP3    H113134   4.641   4.037   2.643  0.6228  1.2856  2.0425
 4376TIP3    H213135   4.732   4.142   2.584 -0.0711  0.5675 -0.4199
 4377TIP3   OH213136   0.386   1.561   0.506  0.3856  0.1617 -0.0869
 4377TIP3    H113137   0.310   1.504   0.497  1.2088 -1.7513  3.4230
 4377TIP3    H213138   0.452   1.522   0.448 -0.3622  0.0836 -0.9016
 4378TIP3   OH213139   3.602   2.985   2.845  0.2029  0.5992  0.0027
 4378TIP3    H113140   3.538   2.935   2.794 -0.5246 -0.4804  1.8326
 4378TIP3    H213141   3.561   3.070   2.859  0.3152  0.8233 -0.9926
 4379TIP3   OH213142   5.944   0.087   4.192 -0.0618  0.7582 -0.1656
 4379TIP3    H113143   6.031   0.087   4.232  0.1234  2.7013 -0.4637
 4379TIP3    H213144   5.910   0.175   4.207 -1.9649  0.0785 -0.1448
 4380TIP3   OH213145   3.394   2.530   2.681 -0.4907  0.1731  0.2516
 4380TIP3    H113146   3.436   2.509   2.764 -2.5892 -0.3194  1.2314
 4380TIP3    H213147   3.461   2.580   2.633  1.8072 -1.9851  1.0021
 4381TIP3   OH213148   3.424   4.861   0.423 -0.0073  0.4584 -0.3870
 4381TIP3    H113149   3.505   4.863   0.373 -0.4970 -0.0067 -1.2271
 4381TIP3    H213150   3.375   4.787   0.387 -1.1166  1.1662 -0.3860
 4382TIP3   OH213151   5.807   2.528   0.286  0.4333  0.2093  0.0043
 4382TIP3    H113152   5.713   2.520   0.268  0.7100 -0.5156 -1.2740
 4382TIP3    H213153   5.849   2.481   0.214  1.8416  1.8589 -0.3199
 4383TIP3   OH213154   0.291   4.630   4.587  0.2843 -0.0548  0.3942
 4383TIP3    H113155   0.298   4.725   4.596  1.5406 -0.1332  0.3580
 4383TIP3    H213156   0.300   4.614   4.493  1.4774 -0.2994  0.5358
 4384TIP3   OH213157   2.588   3.435   0.827 -0.0451  0.3658 -0.8314
 4384TIP3    H113158   2.654   3.365   0.829 -0.6608 -0.2152 -0.1871
 4384TIP3    H213159   2.576   3.459   0.919 -0.3778  0.7995 -0.9853
 4385TIP3   OH213160   6.032   1.703   1.414 -0.1673  0.0165 -0.5196
 4385TIP3    H113161   6.008   1.766   1.346  0.5684  0.0439 -0.7626
 4385TIP3    H213162   6.075   1.632   1.366 -1.4716 -0.9517 -0.3260
 4386TIP3   OH213163   5.838   1.167   4.823  0.6211  0.3589 -0.2366
 4386TIP3    H113164   5.773   1.169   4.753 -1.5915 -2.0432  1.5811
 4386TIP3    H213165   5.845   1.258   4.852 -1.6683  0.7404 -0.7390
 4387TIP3   OH213166   3.045   4.897   3.671  0.1519  0.0729 -0.2034
 4387TIP3    H113167   3.027   4.816   3.625 -0.3844  0.4136 -0.6117
 4387TIP3    H213168   2.964   4.947   3.664  0.2208  0.3241  0.7083
 4388TIP3   OH213169   5.793   3.288   2.300 -0.0234 -0.5648 -0.5305
 4388TIP3    H113170   5.708   3.257   2.330 -0.4827 -0.0268 -1.2719
 4388TIP3    H213171   5.788   3.286   2.205  0.1588  1.1431 -0.6022
 4389TIP3   OH213172   5.157   0.389   0.929  0.0593 -0.2478 -0.5438
 4389TIP3    H113173   5.204   0.470   0.951  0.0557 -0.1784 -0.7883
 4389TIP3    H213174   5.070   0.419   0.901  0.0195 -0.3454 -0.5238
 4390TIP3   OH213175   5.453   1.091   4.891  0.1708  0.0704  0.3852
 4390TIP3    H113176   5.375   1.082   4.836  0.0263 -1.4608  0.8004
 4390TIP3    H213177   5.491   1.175   4.866 -0.1805 -0.3456 -1.6893
 4391TIP3   OH213178   0.519   2.662   1.337  0.1129 -0.2917 -0.1660
 4391TIP3    H113179   0.562   2.663   1.422  0.7721  0.1494 -0.5011
 4391TIP3    H213180   0.555   2.584   1.293  0.0431 -0.3152 -0.1826
 4392TIP3   OH213181   1.512   4.098   1.411  0.4850 -0.3975 -0.9721
 4392TIP3    H113182   1.458   4.169   1.377  0.7310 -0.1478 -0.8458
 4392TIP3    H213183   1.541   4.128   1.497  0.1594 -0.8764 -0.6917
 4393TIP3   OH213184   3.755   2.216   0.381  0.0169 -0.7117 -0.2403
 4393TIP3    H113185   3.829   2.266   0.347 -0.5562  0.5851  0.3275
 4393TIP3    H213186   3.793   2.156   0.445  0.4112  1.6269  1.8904
 4394TIP3   OH213187   5.909   0.151   2.156 -0.2181 -0.3329  0.1554
 4394TIP3    H113188   5.929   0.214   2.087 -1.4811 -0.0555  0.0222
 4394TIP3    H213189   5.842   0.095   2.118 -1.3566  0.1820  1.3548
 4395TIP3   OH213190   0.419   2.328   1.937  0.3083 -0.2919 -0.3079
 4395TIP3    H113191   0.365   2.404   1.919 -2.3784 -1.4062  2.2201
 4395TIP3    H213192   0.490   2.360   1.993 -0.8975  0.3976  0.8797
 4396TIP3   OH213193   3.164   2.855   4.397  0.2320  0.4588 -0.5303
 4396TIP3    H113194   3.196   2.935   4.438  0.2087  0.8330 -1.2197
 4396TIP3    H213195   3.243   2.802   4.384  0.1226 -0.0747  0.8405
 4397TIP3   OH213196   4.049   1.637   2.045  0.4469  0.1651 -0.0024
 4397TIP3    H113197   4.095   1.637   1.961  0.4264  0.0446 -0.0148
 4397TIP3    H213198   3.980   1.703   2.035  0.9802  0.7643  0.2202
 4398TIP3   OH213199   0.813   1.007   1.752  0.3273  0.2219  0.3497
 4398TIP3    H113200   0.825   0.945   1.823 -2.1797 -0.2433  0.4566
 4398TIP3    H213201   0.894   1.000   1.700  2.1239  0.4019  2.9253
 4399TIP3   OH213202   2.747   1.421   1.160  0.2058 -0.3896 -0.3221
 4399TIP3    H113203   2.735   1.347   1.101 -0.8210  0.5215 -1.3181
 4399TIP3    H213204   2.696   1.398   1.238  0.3769 -0.9764 -0.3776
 4400TIP3   OH213205   0.961   1.491   0.524 -0.1108  0.4718  0.0273
 4400TIP3    H113206   0.951   1.435   0.447 -1.5864  2.1096 -1.0556
 4400TIP3    H213207   0.886   1.469   0.579 -0.4157  1.0218 -0.1665
 4401TIP3   OH213208   0.040   5.032   3.475  0.1099  0.1263 -0.1228
 4401TIP3    H113209   0.094   4.987   3.540  0.5890  1.1476  0.2092
 4401TIP3    H213210   0.003   5.107   3.522  0.8309  1.1442 -1.1306
 4402TIP3   OH213211   3.989   1.265   3.601 -0.7609 -0.2361  0.2347
 4402TIP3    H113212   4.066   1.288   3.549 -0.4319 -0.5360  0.5818
 4402TIP3    H213213   3.944   1.199   3.549  0.6815 -2.1226  1.2154
 4403TIP3   OH213214   5.585   3.799   1.816  0.1548  0.3909 -0.0536
 4403TIP3    H113215   5.507   3.849   1.792  0.0623 -0.2450 -1.1537
 4403TIP3    H213216   5.627   3.779   1.732  0.8287 -0.3556  0.4473
 4404TIP3   OH213217   5.524   1.796   1.010  0.1853  0.2029  0.1288
 4404TIP3    H113218   5.452   1.855   0.990  0.1775  0.3487  0.5828
 4404TIP3    H213219   5.483   1.711   1.023 -0.2748  0.7979  3.1470
 4405TIP3   OH213220   3.524   4.642   3.644  0.0824  0.3137  0.0779
 4405TIP3    H113221   3.477   4.725   3.652 -1.9801 -0.9062  1.4418
 4405TIP3    H213222   3.571   4.633   3.727 -1.7051 -0.9864  1.0045
 4406TIP3   OH213223   3.231   0.184   2.308 -0.4133  0.6866 -0.0375
 4406TIP3    H113224   3.299   0.246   2.331  1.3233 -1.4866  1.0474
 4406TIP3    H213225   3.226   0.187   2.212  1.2839  0.8479 -0.1440
 4407TIP3   OH213226   0.552   2.437   1.141  0.0365 -0.2269 -0.1166
 4407TIP3    H113227   0.513   2.422   1.055  0.2827 -1.4045 -0.0502
 4407TIP3    H213228   0.636   2.477   1.123 -1.0015  2.0202 -0.2789
 4408TIP3   OH213229   1.153   3.401   5.154  0.4591 -0.1822  0.0320
 4408TIP3    H113230   1.222   3.464   5.175  0.9905 -0.7649  0.0743
 4408TIP3    H213231   1.171   3.375   5.064 -0.5708  0.7370 -0.4631
 4409TIP3   OH213232   0.659   1.501   1.171 -0.5863 -0.8985 -0.0454
 4409TIP3    H113233   0.617   1.458   1.096  1.9005  0.5179 -2.4715
 4409TIP3    H213234   0.751   1.479   1.162  0.4479  2.7543 -0.0369
 4410TIP3   OH213235   6.127   3.603   0.084  0.2612 -0.1984  0.0554
 4410TIP3    H113236   6.102   3.580  -0.005 -0.8791 -0.9727  0.5521
 4410TIP3    H213237   6.210   3.558   0.098  0.9543  0.7255 -0.9285
 4411TIP3   OH213238   2.373   4.769   4.292 -0.6941  0.1743 -0.0506
 4411TIP3    H113239   2.334   4.795   4.209 -0.4949 -0.4568 -0.3541
 4411TIP3    H213240   2.323   4.816   4.359 -1.9596 -0.5742 -0.4229
 4412TIP3   OH213241   5.099   3.922   5.185 -0.3809 -0.4306  0.2117
 4412TIP3    H113242   5.045   3.956   5.113 -0.2488 -0.8434 -0.0875
 4412TIP3    H213243   5.078   3.829   5.188 -1.0729 -0.2520  1.3158
 4413TIP3   OH213244   5.287   3.311   3.974 -0.2148  0.0457  0.4326
 4413TIP3    H113245   5.247   3.255   3.907 -1.2849  0.9630  0.2815
 4413TIP3    H213246   5.353   3.255   4.016 -1.5992 -1.5078  0.6304
 4414TIP3   OH213247   6.332   2.998   2.422 -0.3607 -0.0177  0.1849
 4414TIP3    H113248   6.408   2.949   2.392  0.2208  0.9332  0.0491
 4414TIP3    H213249   6.258   2.963   2.372  0.4244  0.8317 -1.6343
 4415TIP3   OH213250   2.967   1.928   3.916 -0.3324 -0.4584 -0.2187
 4415TIP3    H113251   2.970   1.913   4.011  0.5481  0.7660 -0.0300
 4415TIP3    H213252   3.003   1.849   3.877 -0.7995 -1.0147  0.4598
 4416TIP3   OH213253   0.141   0.668   4.110 -0.1740 -0.4917  0.3419
 4416TIP3    H113254   0.135   0.751   4.063 -0.3036 -1.0391 -0.6263
 4416TIP3    H213255   0.051   0.638   4.119 -0.1720 -0.2918  1.1515
 4417TIP3   OH213256   2.807   3.243   0.830 -0.1839 -0.1963 -0.2943
 4417TIP3    H113257   2.769   3.219   0.915  1.2588 -0.2189  0.3763
 4417TIP3    H213258   2.863   3.169   0.807  1.6147  0.9784  0.1060
 4418TIP3   OH213259   1.440   1.620   4.811 -0.3945 -0.4859  0.0665
 4418TIP3    H113260   1.466   1.652   4.898  0.1599  0.1547 -0.3286
 4418TIP3    H213261   1.370   1.679   4.784 -0.9873 -1.0533  0.3205
 4419TIP3   OH213262   3.326   5.188   1.745  0.0518 -0.2834  0.6131
 4419TIP3    H113263   3.330   5.187   1.649  0.1082  2.6565  0.5144
 4419TIP3    H213264   3.251   5.132   1.766 -1.6716  1.1556 -1.3213
 4420TIP3   OH213265   1.585   0.930   4.647 -0.0417  0.3473 -0.4627
 4420TIP3    H113266   1.542   0.846   4.634 -0.0457  0.1241  0.8527
 4420TIP3    H213267   1.674   0.917   4.612  1.2133 -1.4512  2.9292
 4421TIP3   OH213268   2.185   4.357   3.947 -0.8222 -0.1453  0.5030
 4421TIP3    H113269   2.257   4.307   3.986  0.4289 -1.5257 -3.1489
 4421TIP3    H213270   2.213   4.448   3.953 -0.3747 -0.3431  2.0284
 4422TIP3   OH213271   0.043   1.919   4.154 -0.0032 -0.7783 -0.3350
 4422TIP3    H113272   0.111   1.928   4.087 -1.6057 -0.5524 -1.9973
 4422TIP3    H213273   0.081   1.859   4.219  2.0220 -0.1350 -0.8511
 4423TIP3   OH213274   5.690   1.707   5.042 -0.2521  0.4112 -0.0209
 4423TIP3    H113275   5.682   1.802   5.046 -0.9186  0.4074 -0.9873
 4423TIP3    H213276   5.708   1.681   5.132 -0.7516  1.3939  0.3819
 4424TIP3   OH213277   1.854   3.714   2.403  0.2670  0.0835  0.7650
 4424TIP3    H113278   1.778   3.677   2.449 -2.7023  2.1388 -1.9901
 4424TIP3    H213279   1.877   3.792   2.453 -1.5438  1.1376  0.0614
 4425TIP3   OH213280   2.872   1.688   3.106  0.4630 -0.1043 -0.5069
 4425TIP3    H113281   2.964   1.680   3.082  0.4494 -1.4067 -0.2111
 4425TIP3    H213282   2.869   1.761   3.168  1.5843 -1.1388  0.8123
 4426TIP3   OH213283   1.051   0.206   1.965  0.2134  0.1287  0.6602
 4426TIP3    H113284   1.059   0.125   1.915 -1.3257  0.3393  0.0140
 4426TIP3    H213285   0.980   0.190   2.027 -3.1550  2.1963 -2.2398
 4427TIP3   OH213286   3.858   5.210   0.799 -0.1297  0.1844  0.0773
 4427TIP3    H113287   3.799   5.187   0.727  1.1025 -1.1063 -0.5889
 4427TIP3    H213288   3.911   5.131   0.811  1.0788  1.1113  1.0117
 4428TIP3   OH213289   5.152   1.100   4.462  0.1121 -0.2251  0.2953
 4428TIP3    H113290   5.202   1.177   4.435  1.5455 -1.1840  0.1642
 4428TIP3    H213291   5.062   1.120   4.434  0.6063  1.0322 -0.4970
 4429TIP3   OH213292   2.919   4.313   4.883 -0.1297  0.2653 -0.3842
 4429TIP3    H113293   2.872   4.352   4.809 -0.0180  0.5780 -0.2956
 4429TIP3    H213294   2.936   4.387   4.942 -2.0448 -0.3027  0.9743
 4430TIP3   OH213295   1.890   4.852   1.087 -0.7530 -0.0914  0.4580
 4430TIP3    H113296   1.942   4.920   1.130 -0.4551  0.1494 -0.2742
 4430TIP3    H213297   1.875   4.787   1.155 -1.4794  0.9393  1.3257
 4431TIP3   OH213298   3.003   0.689   3.171 -0.2829  0.3158  0.2291
 4431TIP3    H113299   3.059   0.744   3.225 -1.5006  0.8661  0.9803
 4431TIP3    H213300   3.003   0.731   3.085  1.2481 -0.2735 -0.0991
 4432TIP3   OH213301   2.688   3.483   4.314  0.2811 -0.2752  0.0087
 4432TIP3    H113302   2.649   3.400   4.285  1.0184  0.2483 -2.8023
 4432TIP3    H213303   2.769   3.457   4.358 -1.3047 -1.1631  2.6069
 4433TIP3   OH213304   2.917   2.960   1.557 -0.1322  0.3444 -0.5612
 4433TIP3    H113305   2.906   2.871   1.523  1.2534  1.0912 -3.2801
 4433TIP3    H213306   3.005   2.985   1.531 -1.0405  3.0863 -1.4341
 4434TIP3   OH213307   4.038   4.109   4.844 -0.4982  0.5550 -0.0464
 4434TIP3    H113308   3.999   4.070   4.922 -1.3873 -0.7161 -1.0678
 4434TIP3    H213309   3.979   4.181   4.820 -0.5360  0.5842  0.1376
 4435TIP3   OH213310   5.840   2.131   0.821  0.0706  0.0399 -0.4581
 4435TIP3    H113311   5.772   2.198   0.832  1.6931  1.6051  0.4316
 4435TIP3    H213312   5.791   2.051   0.799 -2.0458  1.0848  0.1903
 4436TIP3   OH213313   3.818   1.144   1.194 -0.0410  0.5274  0.0178
 4436TIP3    H113314   3.908   1.177   1.191 -0.3368  1.3233 -0.6978
 4436TIP3    H213315   3.808   1.096   1.112 -0.6970  1.6783 -0.6072
 4437TIP3   OH213316   3.265   5.416   0.293  0.5421 -0.7068  0.2060
 4437TIP3    H113317   3.177   5.401   0.327 -0.2141  2.2690 -0.2193
 4437TIP3    H213318   3.305   5.329   0.293 -1.6923 -1.8697  2.2677
 4438TIP3   OH213319   0.028   5.156   2.486  0.1242  0.0881 -0.2906
 4438TIP3    H113320  -0.049   5.166   2.430  0.1208 -0.6372 -0.4222
 4438TIP3    H213321   0.101   5.152   2.426 -0.0095 -2.2375 -0.3817
 4439TIP3   OH213322   1.299   2.122   1.621  0.3423 -0.0444  0.0982
 4439TIP3    H113323   1.340   2.088   1.541  0.6405  0.5155  0.0058
 4439TIP3    H213324   1.329   2.212   1.626 -0.7094  0.3054  0.1618
 4440TIP3   OH213325   2.530   0.284   1.081 -0.1083  0.0409 -0.9812
 4440TIP3    H113326   2.457   0.332   1.122  0.9686  0.5691  0.4092
 4440TIP3    H213327   2.489   0.208   1.041 -1.3437 -0.1358  0.5140
 4441TIP3   OH213328   1.244   0.506   1.657  0.4705 -0.1798 -0.3975
 4441TIP3    H113329   1.320   0.549   1.695  1.9807 -3.7378  1.0662
 4441TIP3    H213330   1.173   0.524   1.718  1.3794 -0.7143  0.8587
 4442TIP3   OH213331   1.908   5.015   1.957 -0.1114 -0.1933 -0.1451
 4442TIP3    H113332   1.885   4.924   1.938 -4.8229  0.6912  0.2344
 4442TIP3    H213333   1.900   5.023   2.052 -0.2622  0.7655 -0.2304
 4443TIP3   OH213334   0.167   1.202   1.012  0.1868  0.3063  0.0309
 4443TIP3    H113335   0.212   1.252   0.944 -0.9547  0.7693 -0.4075
 4443TIP3    H213336   0.211   1.117   1.012 -0.0992  0.1188 -1.6312
 4444TIP3   OH213337   1.625   2.803   2.528  0.4791  0.2086  0.5028
 4444TIP3    H113338   1.672   2.739   2.474  1.6631  0.5285  1.1058
 4444TIP3    H213339   1.556   2.753   2.571  0.0455 -0.2203 -0.6493
 4445TIP3   OH213340   1.299   1.394   4.242 -0.1231 -0.2882  0.0703
 4445TIP3    H113341   1.209   1.375   4.216 -0.3160  0.9806 -0.2730
 4445TIP3    H213342   1.290   1.432   4.329 -0.0592  1.0019 -0.4661
 4446TIP3   OH213343   4.514   5.054   3.374 -0.1855 -0.2407 -0.0011
 4446TIP3    H113344   4.448   4.987   3.392 -0.0247 -0.0560  1.3344
 4446TIP3    H213345   4.587   5.006   3.334 -0.4967 -0.6858 -0.0479
 4447TIP3   OH213346   4.276   3.148   1.454  0.3726  0.1061  0.3411
 4447TIP3    H113347   4.306   3.235   1.428 -1.1581  0.0982 -1.7118
 4447TIP3    H213348   4.350   3.090   1.437  0.2930  0.5293 -1.6278
 4448TIP3   OH213349   0.109   5.546   0.549  0.0939  0.2191 -0.2800
 4448TIP3    H113350   0.035   5.606   0.548  0.5238  0.7742  0.0363
 4448TIP3    H213351   0.116   5.514   0.459  0.2597  1.1592 -0.6182
 4449TIP3   OH213352   0.797   4.610   3.974 -0.2756 -0.0529  0.3927
 4449TIP3    H113353   0.806   4.515   3.980 -0.7423 -0.1137  0.1600
 4449TIP3    H213354   0.771   4.627   3.883  1.2347  0.4159  0.0193
 4450TIP3   OH213355   4.716   0.330   0.216 -0.2049  0.2009  0.0851
 4450TIP3    H113356   4.734   0.284   0.135  1.4262 -0.3769  0.7304
 4450TIP3    H213357   4.775   0.406   0.215 -0.5634  0.4957  0.4923
 4451TIP3   OH213358   4.906   2.238   0.331  0.1459  0.0122 -0.2630
 4451TIP3    H113359   4.891   2.150   0.367 -1.2213  1.0361  1.8824
 4451TIP3    H213360   4.826   2.256   0.280  0.5711 -0.0822 -0.9803
 4452TIP3   OH213361   3.415   0.818   3.478  0.3588  0.3354  0.0209
 4452TIP3    H113362   3.403   0.746   3.540  1.1971  0.6681  0.5826
 4452TIP3    H213363   3.327   0.856   3.468 -0.3998 -1.6750 -1.4527
 4453TIP3   OH213364   1.241   1.647   1.567 -0.8257 -0.8232  0.0823
 4453TIP3    H113365   1.272   1.692   1.488  2.1521 -0.2020  1.4601
 4453TIP3    H213366   1.152   1.620   1.546 -0.9213  1.2102 -2.6859
 4454TIP3   OH213367   0.882   4.481   4.881 -0.3845 -0.8095 -0.0705
 4454TIP3    H113368   0.869   4.576   4.889 -0.4999 -0.8768  0.6113
 4454TIP3    H213369   0.803   4.450   4.838 -0.9197 -0.7529  0.8517
 4455TIP3   OH213370   2.238   0.203   4.407  0.0984  0.8474  0.1192
 4455TIP3    H113371   2.155   0.233   4.370 -0.4455  0.2002  0.7755
 4455TIP3    H213372   2.231   0.221   4.500  1.2592  2.0242 -0.0028
 4456TIP3   OH213373   2.474   0.965   3.529 -0.0920 -0.5053  0.3333
 4456TIP3    H113374   2.412   0.898   3.501 -0.8648  0.5934 -0.6605
 4456TIP3    H213375   2.483   0.951   3.624 -1.2767 -1.1525  0.3654
 4457TIP3   OH213376   0.805   4.658   3.674  0.0253 -0.2964  0.2001
 4457TIP3    H113377   0.887   4.705   3.691 -0.0357  1.5164 -3.5254
 4457TIP3    H213378   0.832   4.578   3.630 -0.1349  0.7109 -1.8270
 4458TIP3   OH213379   2.134   4.370   1.698  0.1507  0.0649 -0.2022
 4458TIP3    H113380   2.166   4.301   1.756  0.4013 -0.7256 -1.2499
 4458TIP3    H213381   2.162   4.451   1.740  1.1463 -0.5188  0.3122
 4459TIP3   OH213382   5.509   4.762   1.615 -0.1916 -0.1434  0.9201
 4459TIP3    H113383   5.464   4.732   1.693 -1.9129  1.9438  0.7998
 4459TIP3    H213384   5.595   4.791   1.646 -0.4246 -0.4170  1.8335
 4460TIP3   OH213385   2.438   1.049   2.798  0.1499 -0.1420  0.2150
 4460TIP3    H113386   2.499   1.012   2.735  0.9696  1.5931 -0.0874
 4460TIP3    H213387   2.448   0.995   2.876 -0.1239 -1.6811 -0.7856
 4461TIP3   OH213388   6.168   3.135   2.019 -0.8090  0.2604 -0.3459
 4461TIP3    H113389   6.212   3.158   2.101 -1.0791 -0.1847 -0.0684
 4461TIP3    H213390   6.091   3.191   2.016 -1.8665 -1.0637  0.6936
 4462TIP3   OH213391   4.775   2.444   4.531  0.2605  0.1357  0.1103
 4462TIP3    H113392   4.858   2.446   4.485 -0.6176 -1.9581 -1.7445
 4462TIP3    H213393   4.715   2.494   4.476 -0.1946 -0.1828  0.3007
 4463TIP3   OH213394   1.892   5.763   3.248 -0.0052 -0.3714  0.2032
 4463TIP3    H113395   1.863   5.851   3.271 -1.2242 -1.2842  2.4158
 4463TIP3    H213396   1.834   5.737   3.176 -0.1203  0.3518  0.0286
 4464TIP3   OH213397   0.807   1.919   2.905 -0.1621  0.1148  0.3223
 4464TIP3    H113398   0.862   1.995   2.889 -1.7822  1.4087  0.5636
 4464TIP3    H213399   0.860   1.861   2.959  1.5605  0.4736 -0.9089
 4465TIP3   OH213400   5.015   2.615   3.946 -0.4722  0.1156 -1.0795
 4465TIP3    H113401   5.105   2.583   3.949 -0.0976  1.1581 -0.6594
 4465TIP3    H213402   4.982   2.605   4.035 -1.2495 -1.5036 -1.5129
 4466TIP3   OH213403   4.573   0.857   1.416 -0.3411  0.3217  0.4239
 4466TIP3    H113404   4.610   0.888   1.498  0.1154 -2.2484  1.2769
 4466TIP3    H213405   4.520   0.781   1.440 -2.2172  0.9401 -1.3895
 4467TIP3   OH213406   3.532   2.483   2.938 -0.1706 -0.0005  0.1026
 4467TIP3    H113407   3.584   2.461   3.015 -1.1766  0.2478  0.8648
 4467TIP3    H213408   3.479   2.558   2.964  0.5816  1.0802 -1.3226
 4468TIP3   OH213409   1.062   3.273   4.412  0.3211  0.0681 -0.4099
 4468TIP3    H113410   1.150   3.305   4.390  0.1413  0.1446 -1.0336
 4468TIP3    H213411   1.022   3.345   4.460  1.1382 -0.5451  1.2490
 4469TIP3   OH213412   6.258   2.983   2.691 -0.1208  0.3407  0.2971
 4469TIP3    H113413   6.290   2.983   2.601 -0.3292 -0.2647  0.2173
 4469TIP3    H213414   6.337   3.000   2.744  0.0997  0.1527  0.0331
 4470TIP3   OH213415   3.961   1.577   3.041 -0.2946  0.6767 -0.1445
 4470TIP3    H113416   4.011   1.658   3.056  2.5175 -0.6267 -1.6431
 4470TIP3    H213417   3.985   1.521   3.116  0.1026  0.2387 -0.5920
 4471TIP3   OH213418   3.484   2.027   3.798  0.1339  0.0346  0.4702
 4471TIP3    H113419   3.486   2.102   3.738  1.7009  0.2302  0.7269
 4471TIP3    H213420   3.513   1.953   3.744 -0.5490 -0.2245  0.4469
 4472TIP3   OH213421   6.027   5.342   3.956 -0.3277 -0.5908  0.2733
 4472TIP3    H113422   6.096   5.276   3.949 -1.7025 -2.1184  0.4168
 4472TIP3    H213423   6.073   5.426   3.961  1.5222 -1.6311  1.3378
 4473TIP3   OH213424   6.278   4.930   0.362  0.1401  0.2324 -0.3504
 4473TIP3    H113425   6.266   5.005   0.304  0.5450  1.2490  0.8449
 4473TIP3    H213426   6.294   4.856   0.303 -1.3841  0.8488 -1.5907
 4474TIP3   OH213427   1.983   1.998   4.496  0.6214 -0.1324  0.3119
 4474TIP3    H113428   1.896   2.017   4.460  0.9248  0.1247 -0.2959
 4474TIP3    H213429   2.033   1.965   4.421  0.5903 -1.8047  0.9848
 4475TIP3   OH213430   5.415   1.352   2.866  0.0698 -0.0239  0.5791
 4475TIP3    H113431   5.479   1.288   2.835  0.4463  0.2081  0.8629
 4475TIP3    H213432   5.373   1.309   2.941 -1.5738 -0.9992 -0.8516
 4476TIP3   OH213433   0.699   2.796   4.662 -0.4043 -0.2198  0.4586
 4476TIP3    H113434   0.789   2.825   4.677 -0.9551  0.7501  2.3018
 4476TIP3    H213435   0.684   2.808   4.568  1.1749  0.1969  0.2417
 4477TIP3   OH213436   3.203   0.983   4.525 -0.0824  0.3893  0.1417
 4477TIP3    H113437   3.261   1.059   4.527  0.4727 -0.0337  0.5940
 4477TIP3    H213438   3.257   0.913   4.487  0.8020 -0.8517  3.3739
 4478TIP3   OH213439   2.220   3.241   1.337  0.3734  0.0757  0.4860
 4478TIP3    H113440   2.250   3.239   1.246  1.3057  1.9835  0.7082
 4478TIP3    H213441   2.231   3.151   1.367  0.8704 -0.4045 -1.0296
 4479TIP3   OH213442   0.596   1.261   4.908 -0.6809  0.3134  0.0548
 4479TIP3    H113443   0.560   1.253   4.996  0.1841  0.7491  0.4604
 4479TIP3    H213444   0.533   1.216   4.852 -0.5174 -1.2704  1.0796
 4480TIP3   OH213445   4.110   4.766   1.678  0.1219 -0.2281  0.2640
 4480TIP3    H113446   4.155   4.693   1.722  3.6094  1.6860  0.2700
 4480TIP3    H213447   4.143   4.763   1.589 -2.9313 -0.9960 -0.9568
 4481TIP3   OH213448   0.027   5.334   2.140 -0.2500 -0.0970  0.8329
 4481TIP3    H113449  -0.003   5.409   2.088 -0.1262  0.2294  1.2214
 4481TIP3    H213450   0.112   5.312   2.103 -0.7933 -0.7924 -0.0373
 4482TIP3   OH213451   4.666   1.045   1.116  0.4407  0.1439 -0.0045
 4482TIP3    H113452   4.663   1.113   1.184  0.2851  0.0603  0.0739
 4482TIP3    H213453   4.759   1.034   1.097  0.5973 -0.7992  1.1726
 4483TIP3   OH213454   0.773   1.712   2.676 -0.3118  0.4344 -0.6071
 4483TIP3    H113455   0.714   1.779   2.640 -0.5815  1.1230  1.0205
 4483TIP3    H213456   0.719   1.663   2.738  0.0586 -0.9063 -1.3021
 4484TIP3   OH213457   3.916   0.537   0.240  0.6276 -0.1563 -0.0744
 4484TIP3    H113458   3.996   0.487   0.257 -0.3039 -1.1629  1.6378
 4484TIP3    H213459   3.946   0.625   0.220  2.1612 -0.4474  0.8393
 4485TIP3   OH213460   0.884   1.322   2.354 -0.0500  0.4871 -0.5635
 4485TIP3    H113461   0.803   1.370   2.342 -0.4123  0.0861  0.2100
 4485TIP3    H213462   0.860   1.247   2.409  0.8145  0.2938 -0.4329
 4486TIP3   OH213463   5.474   3.427   1.754  0.6669  0.3939  0.9603
 4486TIP3    H113464   5.418   3.471   1.818 -0.1547  0.0141  0.5229
 4486TIP3    H213465   5.442   3.457   1.669  0.0591 -1.0327  0.6445
 4487TIP3   OH213466   4.960   3.392   4.104 -0.3133 -0.2009 -0.2840
 4487TIP3    H113467   4.996   3.303   4.106 -0.3299 -0.2377 -1.4002
 4487TIP3    H213468   4.916   3.402   4.189 -0.1835 -1.1975 -0.0938
 4488TIP3   OH213469   2.682   0.581   3.094 -0.6287 -0.0334 -0.5188
 4488TIP3    H113470   2.686   0.648   3.163 -1.2154  1.0104 -1.4626
 4488TIP3    H213471   2.746   0.611   3.029  0.8972 -1.7005  0.1103
 4489TIP3   OH213472   5.465   5.041   3.238 -0.1142 -0.1020  0.1722
 4489TIP3    H113473   5.456   5.058   3.332 -1.2661  1.2575 -0.1423
 4489TIP3    H213474   5.426   5.118   3.196 -0.1110 -0.9264 -1.4228
 4490TIP3   OH213475   3.717   3.579   4.283 -0.2091  0.1254  0.0826
 4490TIP3    H113476   3.679   3.613   4.364 -0.3155  0.6554 -0.1857
 4490TIP3    H213477   3.812   3.585   4.297 -0.2275  0.0494  0.2385
 4491TIP3   OH213478   2.836   5.930   0.667 -0.0759 -0.4774  0.5721
 4491TIP3    H113479   2.903   5.996   0.646 -0.9310  0.4671  0.7413
 4491TIP3    H213480   2.753   5.977   0.662 -0.5245  0.0058  5.9388
 4492TIP3   OH213481   2.960   2.194   4.459  0.2375 -0.4169  0.3130
 4492TIP3    H113482   3.016   2.163   4.388 -0.0445 -0.4613  0.1093
 4492TIP3    H213483   2.876   2.211   4.418  0.5285  1.1592  0.3156
 4493TIP3   OH213484   1.417   0.511   0.891 -0.0001  0.1159 -0.5869
 4493TIP3    H113485   1.345   0.570   0.871  0.0700  0.1112 -0.8510
 4493TIP3    H213486   1.491   0.569   0.908 -0.1255  0.1309 -0.0610
 4494TIP3   OH213487   5.387   2.328   2.756  0.0086 -0.1286 -0.7439
 4494TIP3    H113488   5.465   2.272   2.752 -1.0602 -1.5675 -2.8632
 4494TIP3    H213489   5.316   2.269   2.779 -1.0194  0.4779 -2.2152
 4495TIP3   OH213490   4.604   4.137   1.037  0.2725 -0.4032 -0.3589
 4495TIP3    H113491   4.604   4.225   1.076  2.9527 -0.3828 -0.1702
 4495TIP3    H213492   4.555   4.147   0.956  1.1215  1.5068 -0.7078
 4496TIP3   OH213493   4.002   4.262   5.115  0.0022  0.1219 -0.2846
 4496TIP3    H113494   4.080   4.209   5.103 -1.3482 -1.9314 -0.5117
 4496TIP3    H213495   3.948   4.212   5.177 -0.3433  2.4092  1.3955
 4497TIP3   OH213496   3.649   2.108   3.366 -0.1949  0.3953  0.0794
 4497TIP3    H113497   3.666   2.200   3.381  0.0354  0.3224  0.2621
 4497TIP3    H213498   3.697   2.088   3.285  1.8301 -0.1569  1.3473
 4498TIP3   OH213499   0.100   0.546   4.637  0.4283 -0.0754  0.1154
 4498TIP3    H113500   0.011   0.535   4.670  0.5353  1.0009  0.8132
 4498TIP3    H213501   0.105   0.637   4.610  1.1047 -0.3144 -0.6114
 4499TIP3   OH213502   2.227   4.227   0.698  0.2964  0.2478  0.3003
 4499TIP3    H113503   2.291   4.296   0.684  1.8322 -1.4460 -1.7826
 4499TIP3    H213504   2.221   4.182   0.613  0.1550 -2.7375  1.7525
 4500TIP3   OH213505   1.043   4.322   4.218 -0.2244 -0.2358 -0.1059
 4500TIP3    H113506   1.126   4.366   4.237 -0.4552  0.1101  0.1078
 4500TIP3    H213507   1.022   4.348   4.128  0.4041 -1.1386 -0.5336
 4501TIP3   OH213508   6.172   3.829   2.964 -0.2869 -0.3800 -0.4152
 4501TIP3    H113509   6.155   3.875   3.045 -1.1903  1.2143 -1.4573
 4501TIP3    H213510   6.103   3.763   2.958 -1.3081  0.6791 -0.7039
 4502TIP3   OH213511   4.845   5.213   2.056  0.3356 -0.1728  0.1273
 4502TIP3    H113512   4.921   5.267   2.037  1.2027 -1.9105 -1.7992
 4502TIP3    H213513   4.793   5.214   1.976 -1.2971  0.3451  1.1440
 4503TIP3   OH213514   3.118   0.371   3.710 -0.5002  0.3785  0.6828
 4503TIP3    H113515   3.044   0.312   3.700 -0.4496  0.1347  1.6091
 4503TIP3    H213516   3.195   0.315   3.704 -0.4210  0.4943  0.6032
 4504TIP3   OH213517   4.804   3.534   2.250 -0.5090 -0.0001  0.3026
 4504TIP3    H113518   4.786   3.468   2.316  1.4856 -1.4800 -0.5467
 4504TIP3    H213519   4.890   3.569   2.273 -0.7013  0.9613 -0.3503
 4505TIP3   OH213520   4.418   5.651   3.355 -0.3541 -0.4506 -0.0993
 4505TIP3    H113521   4.365   5.725   3.325 -0.6094 -0.0894  1.1954
 4505TIP3    H213522   4.456   5.615   3.275  0.8721  1.8907 -0.6718
 4506TIP3   OH213523   4.903   2.802   3.404 -0.6842  0.4549  0.3167
 4506TIP3    H113524   4.991   2.824   3.434 -0.8617  0.1215  1.1047
 4506TIP3    H213525   4.908   2.709   3.381 -0.4411  0.8005 -1.1264
 4507TIP3   OH213526   3.603   2.794   1.769  0.4745  0.2193  0.4715
 4507TIP3    H113527   3.666   2.740   1.817  0.1534 -0.8807 -0.2976
 4507TIP3    H213528   3.649   2.816   1.687 -0.3182 -1.0954 -0.3647
 4508TIP3   OH213529   4.034   2.557   0.854  0.3808  1.0359  0.1759
 4508TIP3    H113530   4.067   2.596   0.935  3.2301 -0.4739 -0.1576
 4508TIP3    H213531   4.097   2.582   0.787 -0.5470  0.1639 -1.0708
 4509TIP3   OH213532   6.051   2.726   0.685  0.2795 -0.4437 -0.6549
 4509TIP3    H113533   6.016   2.655   0.631  0.6348 -1.6802  0.6780
 4509TIP3    H213534   6.048   2.691   0.774  1.9345  0.6212 -0.1451
 4510TIP3   OH213535   6.163   3.502   0.894  0.5238  0.1411  0.4789
 4510TIP3    H113536   6.076   3.492   0.854  0.8123  1.6952 -0.6358
 4510TIP3    H213537   6.210   3.560   0.834  2.9335 -1.9717  0.1536
 4511TIP3   OH213538   0.502   5.528   1.764 -0.3106  0.1323  0.1055
 4511TIP3    H113539   0.420   5.489   1.795 -0.3653  0.2881  0.1614
 4511TIP3    H213540   0.484   5.554   1.674 -0.9521  1.9031  0.7008
 4512TIP3   OH213541   4.049   0.558   2.804 -0.5069  0.6882  0.2895
 4512TIP3    H113542   4.124   0.603   2.765  0.7326 -1.3184  0.2534
 4512TIP3    H213543   4.071   0.552   2.897 -0.3262 -0.3994  0.1898
 4513TIP3   OH213544   2.917   4.482   0.134 -0.2135 -0.0823 -0.0421
 4513TIP3    H113545   2.886   4.476   0.224  1.6033 -1.2818  0.5815
 4513TIP3    H213546   2.842   4.514   0.084 -1.4874 -0.0851  1.7721
 4514TIP3   OH213547   2.681   1.211   5.006 -0.6124  0.0091  0.2536
 4514TIP3    H113548   2.610   1.235   4.946  0.0442 -0.3980 -0.6964
 4514TIP3    H213549   2.719   1.295   5.033  0.5971  0.1516 -1.7497
 4515TIP3   OH213550   3.872   4.962   2.286 -0.6209  0.1517  0.1888
 4515TIP3    H113551   3.931   4.891   2.260  0.1507  0.6359  0.5690
 4515TIP3    H213552   3.797   4.918   2.324  0.6678 -0.4764  2.1683
 4516TIP3   OH213553   1.443   5.769   0.417 -0.3647 -0.2772 -0.1753
 4516TIP3    H113554   1.471   5.787   0.507 -0.2449  0.3701 -0.3345
 4516TIP3    H213555   1.462   5.850   0.370 -4.4441  1.1152  0.1327
 4517TIP3   OH213556   0.415   3.466   4.518 -0.0953  0.1110 -0.3040
 4517TIP3    H113557   0.368   3.490   4.438 -0.4941  0.6432  0.0855
 4517TIP3    H213558   0.504   3.445   4.488 -0.5366 -0.7958 -1.0319
 4518TIP3   OH213559   3.110   3.887   2.507 -0.0086  0.2838 -0.1100
 4518TIP3    H113560   3.118   3.815   2.569  2.0159  0.8399  0.3695
 4518TIP3    H213561   3.076   3.960   2.558 -1.9718 -0.2640 -0.5748
 4519TIP3   OH213562   3.836   3.121   0.038 -0.4978 -0.0428  0.3046
 4519TIP3    H113563   3.809   3.183   0.105  0.8098  0.7417  0.1541
 4519TIP3    H213564   3.923   3.152   0.011 -0.2522 -1.3525 -0.5014
 4520TIP3   OH213565   2.569   2.731   0.933 -0.2953 -0.1484  0.3941
 4520TIP3    H113566   2.512   2.728   1.010 -0.5456  1.0603  0.2816
 4520TIP3    H213567   2.658   2.731   0.969 -0.4172  0.8016  0.7197
 4521TIP3   OH213568   3.395   1.176   4.544  0.8613 -0.0606 -0.7034
 4521TIP3    H113569   3.448   1.197   4.467  0.7488  0.6298 -0.6042
 4521TIP3    H213570   3.348   1.257   4.563  1.6288  0.0950  0.6789
 4522TIP3   OH213571   0.170   2.168   4.668 -0.0978  0.4050 -0.0811
 4522TIP3    H113572   0.259   2.163   4.631 -0.2461 -0.2277 -0.3524
 4522TIP3    H213573   0.184   2.172   4.763  0.1875 -1.0745 -0.0390
 4523TIP3   OH213574   6.098   4.071   1.206 -0.0023 -0.2369  0.1911
 4523TIP3    H113575   6.044   4.111   1.275  0.9049 -0.3283  0.9721
 4523TIP3    H213576   6.098   4.135   1.135 -0.7962 -0.0571  0.3434
 4524TIP3   OH213577   0.781   3.927   1.905 -0.0079 -0.1277  0.1046
 4524TIP3    H113578   0.726   3.995   1.945  0.0898 -1.0423  1.8841
 4524TIP3    H213579   0.740   3.911   1.820 -0.8669  1.1461  0.2445
 4525TIP3   OH213580   3.828   2.353   2.163 -0.4100 -0.0418 -0.3668
 4525TIP3    H113581   3.784   2.352   2.077  0.7641  2.2042 -1.0708
 4525TIP3    H213582   3.892   2.282   2.157 -1.8530 -1.4232 -0.4193
 4526TIP3   OH213583   1.405   4.787   0.927 -0.2986 -0.0255  0.5424
 4526TIP3    H113584   1.311   4.786   0.944 -0.2325  0.2499  0.9458
 4526TIP3    H213585   1.425   4.878   0.907  0.0568  0.1265  1.5256
 4527TIP3   OH213586   1.673   4.995   5.175 -0.2885  0.1158 -0.3291
 4527TIP3    H113587   1.719   5.044   5.244 -0.1934  1.3017 -1.2067
 4527TIP3    H213588   1.743   4.956   5.123 -0.2280  1.5305 -1.3821
 4528TIP3   OH213589   3.679   3.350   3.032  0.3583 -0.3863 -0.0141
 4528TIP3    H113590   3.683   3.344   3.128 -0.6951 -0.5727  0.0387
 4528TIP3    H213591   3.588   3.326   3.011  0.4055  0.2692 -1.0145
 4529TIP3   OH213592   5.543   1.838   4.732  0.0128  0.1547 -0.1474
 4529TIP3    H113593   5.581   1.824   4.819 -1.7974  1.0397  0.8548
 4529TIP3    H213594   5.507   1.753   4.707 -0.0977  0.0628  0.3138
 4530TIP3   OH213595   5.323   5.125   4.509 -0.0425 -0.0327  0.4809
 4530TIP3    H113596   5.405   5.085   4.480 -0.7701  0.8787 -3.3238
 4530TIP3    H213597   5.258   5.056   4.499 -0.4692  0.5785 -1.1550
 4531TIP3   OH213598   4.068   1.806   1.160  0.4895 -0.0140  0.4680
 4531TIP3    H113599   3.989   1.859   1.149 -0.8402 -2.2085 -1.7498
 4531TIP3    H213600   4.133   1.847   1.102 -0.0599  0.0376 -0.1210
 4532TIP3   OH213601   6.019   3.891   0.827 -0.2846  0.0555 -0.5979
 4532TIP3    H113602   5.966   3.956   0.781 -0.6593 -1.0238 -1.7376
 4532TIP3    H213603   6.022   3.815   0.768  0.9036 -0.6357  0.2911
 4533TIP3   OH213604   2.101   0.766   3.018  0.3315  0.4518  0.5228
 4533TIP3    H113605   2.167   0.834   3.014  2.2688 -1.1667  2.3614
 4533TIP3    H213606   2.150   0.685   3.036 -2.0013 -1.1130  0.3443
 4534TIP3   OH213607   4.967   1.093   2.309 -0.0619  0.1270 -0.5230
 4534TIP3    H113608   4.921   1.111   2.227  0.1018  0.8156 -0.4742
 4534TIP3    H213609   4.992   1.180   2.342 -2.1859  0.0782  1.4712
 4535TIP3   OH213610   4.073   1.036   2.465  0.5542 -0.0077  0.5282
 4535TIP3    H113611   4.101   1.007   2.551 -0.6731  0.2053  1.0215
 4535TIP3    H213612   3.978   1.036   2.470  0.4701  0.0655 -0.8124
 4536TIP3   OH213613   5.213   4.688   0.442  0.2466  0.1582 -0.3541
 4536TIP3    H113614   5.156   4.629   0.394 -1.6858 -0.7600  2.7590
 4536TIP3    H213615   5.266   4.630   0.497  0.4239  1.1940  0.6004
 4537TIP3   OH213616   2.523   1.490   3.501 -0.4578 -0.2578 -0.0743
 4537TIP3    H113617   2.574   1.571   3.496 -0.9790  0.0305 -1.2087
 4537TIP3    H213618   2.540   1.447   3.417 -1.6389 -0.4059 -0.2611
 4538TIP3   OH213619   1.374   2.252   1.879  0.0687 -0.3622 -0.1285
 4538TIP3    H113620   1.337   2.167   1.902 -0.1741  0.3490  2.4131
 4538TIP3    H213621   1.451   2.260   1.935  0.2059  1.0128 -0.4829
 4539TIP3   OH213622   0.363   5.879   0.777  0.2858  0.2847  0.6748
 4539TIP3    H113623   0.434   5.878   0.841  0.5146 -1.7446  0.4688
 4539TIP3    H213624   0.373   5.962   0.730  2.8957 -0.1598  0.2728
 4540TIP3   OH213625   3.977   3.312   3.961  0.4652 -0.0362 -0.1188
 4540TIP3    H113626   3.949   3.273   4.044  0.0262 -0.7014 -0.5744
 4540TIP3    H213627   3.999   3.402   3.984 -0.1732 -0.0532  0.6210
 4541TIP3   OH213628   2.873   1.028   3.574 -0.0112  0.0168  0.7731
 4541TIP3    H113629   2.802   1.086   3.547  0.7647  0.7400  0.2254
 4541TIP3    H213630   2.916   1.075   3.646  1.4509  0.7814 -0.5607
 4542TIP3   OH213631   4.188   1.698   2.613 -0.3458 -0.4608 -0.2558
 4542TIP3    H113632   4.199   1.632   2.544 -2.2685 -2.3611  1.0954
 4542TIP3    H213633   4.110   1.669   2.661 -0.1674  1.8095  1.5866
 4543TIP3   OH213634   1.790   3.040   1.691  0.2717 -0.4983 -0.0071
 4543TIP3    H113635   1.785   2.952   1.729 -0.4967 -0.1698  0.6657
 4543TIP3    H213636   1.712   3.046   1.636  0.8735 -0.6140 -0.8915
 4544TIP3   OH213637   3.150   5.640   2.154 -0.0289 -0.1630  0.2613
 4544TIP3    H113638   3.063   5.616   2.184 -0.2583  0.0576 -0.2195
 4544TIP3    H213639   3.201   5.559   2.163 -0.4044 -0.4217  0.0969
 4545TIP3   OH213640   3.893   4.973   2.601  0.7423 -0.5981 -0.5417
 4545TIP3    H113641   3.932   5.055   2.633 -1.7948  0.1377  0.9860
 4545TIP3    H213642   3.886   4.986   2.506 -0.8983  1.6930 -0.2178
 4546TIP3   OH213643   0.543   5.605   4.371 -0.0681 -0.4832 -0.4454
 4546TIP3    H113644   0.613   5.544   4.348  0.8860 -0.6344  2.4696
 4546TIP3    H213645   0.466   5.550   4.385  0.6556 -1.0440  1.6568
 4547TIP3   OH213646   1.310   1.105   2.063  0.1308  0.0882 -0.5363
 4547TIP3    H113647   1.282   1.193   2.039 -0.0114  0.4762  0.9270
 4547TIP3    H213648   1.289   1.098   2.156  0.3748 -1.4067 -0.5632
 4548TIP3   OH213649   3.666   3.693   5.122  0.0740 -0.5505  0.3247
 4548TIP3    H113650   3.620   3.672   5.204  1.2503 -0.4266  1.0522
 4548TIP3    H213651   3.643   3.784   5.104 -1.3378 -1.0051 -0.2904
 4549TIP3   OH213652   4.685   6.005   4.252 -0.2941 -0.9998 -0.6067
 4549TIP3    H113653   4.675   5.935   4.317  0.7942 -0.2744  0.3807
 4549TIP3    H213654   4.761   5.979   4.201  0.2648 -0.4367 -0.0777
 4550TIP3   OH213655   6.222   5.103   4.841 -0.1576  0.3793  0.1318
 4550TIP3    H113656   6.141   5.152   4.829 -0.8691 -0.1279  2.3693
 4550TIP3    H213657   6.266   5.108   4.756 -1.6538  2.2081 -0.6076
 4551TIP3   OH213658   1.515   4.357   1.003  0.3509 -0.0141  0.0277
 4551TIP3    H113659   1.424   4.359   0.972  0.2415 -0.7761  0.2664
 4551TIP3    H213660   1.564   4.405   0.937 -0.1483 -0.0614 -0.3849
 4552TIP3   OH213661   6.080   2.246   4.883  0.2028 -0.1842  0.3687
 4552TIP3    H113662   6.054   2.192   4.958 -1.1376  1.3330  1.0670
 4552TIP3    H213663   6.148   2.304   4.918  2.5778 -2.1335 -0.6969
 4553TIP3   OH213664   0.951   2.188   1.960  0.1590  0.3010 -0.2343
 4553TIP3    H113665   0.864   2.158   1.935 -0.0899  1.2773 -0.5771
 4553TIP3    H213666   1.010   2.118   1.931 -0.5297 -0.5379  0.3378
 4554TIP3   OH213667   2.562   1.374   0.581 -0.4615  0.2456  0.3798
 4554TIP3    H113668   2.650   1.405   0.602 -0.5351  0.2779  0.6531
 4554TIP3    H213669   2.507   1.453   0.583 -0.1279  0.6068 -2.0335
 4555TIP3   OH213670   5.993   0.096   4.595  0.3715 -0.2276  0.2369
 4555TIP3    H113671   5.978   0.059   4.682 -0.8660 -0.1649  0.0677
 4555TIP3    H213672   6.069   0.153   4.606 -0.8759  1.2282  1.7365
 4556TIP3   OH213673   4.244   4.516   4.748 -0.0176 -0.4152 -0.2407
 4556TIP3    H113674   4.224   4.517   4.842 -0.7877  1.6446 -0.3586
 4556TIP3    H213675   4.163   4.547   4.707  0.0965 -1.8876 -1.6648
 4557TIP3   OH213676   6.322   3.434   0.099  0.2003  0.5357  0.1103
 4557TIP3    H113677   6.378   3.387   0.038 -1.8895 -0.3025 -1.2700
 4557TIP3    H213678   6.244   3.379   0.108 -0.4390  1.6353  1.9488
 4558TIP3   OH213679   0.090   0.180   3.376  0.1720 -0.2563  0.7095
 4558TIP3    H113680  -0.002   0.151   3.371 -0.1251  0.5214  1.3803
 4558TIP3    H213681   0.141   0.099   3.365 -0.5499 -0.5061 -1.1441
 4559TIP3   OH213682   3.422   0.059   2.079  0.3175  0.2148 -0.0302
 4559TIP3    H113683   3.334   0.026   2.096 -0.8820  2.4100 -1.4739
 4559TIP3    H213684   3.444   0.028   1.991  1.6268 -1.4629  0.8313
 4560TIP3   OH213685   3.906   5.113   2.926  0.0417  0.1747 -0.2291
 4560TIP3    H113686   3.874   5.163   3.000  0.5458  0.3424 -0.1212
 4560TIP3    H213687   4.001   5.124   2.928  0.0266  0.6354 -1.2238
 4561TIP3   OH213688   1.189   0.571   4.716  0.0007 -0.2084  0.0466
 4561TIP3    H113689   1.237   0.528   4.787 -0.5925  1.0846  1.2883
 4561TIP3    H213690   1.116   0.616   4.760 -0.2379  0.8478 -1.3485
 4562TIP3   OH213691   4.323   2.568   2.663  0.5252 -0.0854  0.2299
 4562TIP3    H113692   4.291   2.546   2.575  0.6878 -1.2974  0.4460
 4562TIP3    H213693   4.247   2.607   2.707  0.1149 -0.4687 -0.1192
 4563TIP3   OH213694   0.362   0.397   3.520  0.3804  0.2559  0.5571
 4563TIP3    H113695   0.364   0.441   3.605  0.0756 -2.1465  1.9137
 4563TIP3    H213696   0.370   0.304   3.542  0.8359 -0.4034 -2.1054
 4564TIP3   OH213697   4.946   3.375   1.747  0.4536  0.0152  0.3076
 4564TIP3    H113698   5.012   3.395   1.680 -0.1244 -1.3375 -0.7092
 4564TIP3    H213699   4.964   3.285   1.771 -0.7410 -0.2180  0.3509
 4565TIP3   OH213700   2.629   1.053   1.474 -0.0453 -0.0107  0.2593
 4565TIP3    H113701   2.569   1.122   1.503  0.4951  0.7348 -0.3462
 4565TIP3    H213702   2.656   1.010   1.555 -2.1910 -1.0711  0.4747
 4566TIP3   OH213703   3.658   5.136   4.143 -0.7130 -0.5017  0.0252
 4566TIP3    H113704   3.649   5.041   4.147  0.3020 -0.5617  3.0905
 4566TIP3    H213705   3.751   5.152   4.155 -0.9886  0.9130  0.4602
 4567TIP3   OH213706   1.429   5.926   2.600 -0.3045 -0.0795  0.0801
 4567TIP3    H113707   1.475   5.843   2.610 -2.0269 -1.3419 -1.6506
 4567TIP3    H213708   1.485   5.978   2.542 -0.1665 -0.8723 -0.5174
 4568TIP3   OH213709   2.041   1.750   0.891  0.4126  0.0497  0.5546
 4568TIP3    H113710   2.095   1.794   0.825  0.2012 -1.8228 -0.9616
 4568TIP3    H213711   2.056   1.657   0.875 -1.8528 -0.5005  1.2900
 4569TIP3   OH213712   5.005   2.222   5.144  0.4058  0.1051  0.2522
 4569TIP3    H113713   5.013   2.261   5.057 -0.3110 -0.7058 -0.1931
 4569TIP3    H213714   5.095   2.216   5.175  0.6322  0.8551 -0.2233
 4570TIP3   OH213715   0.363   3.716   2.244  0.0491  0.3563 -0.4440
 4570TIP3    H113716   0.307   3.667   2.305  1.1129 -1.4526 -0.8733
 4570TIP3    H213717   0.433   3.750   2.299 -1.6798  3.2094  0.2274
 4571TIP3   OH213718   5.178   1.745   0.747 -0.9917 -0.3547 -0.1097
 4571TIP3    H113719   5.145   1.821   0.700 -1.5994 -0.9254 -0.6199
 4571TIP3    H213720   5.189   1.776   0.837 -1.6745  0.2060 -0.2089
 4572TIP3   OH213721   2.208   3.219   2.965 -0.1720  0.0431  0.1043
 4572TIP3    H113722   2.295   3.178   2.963 -0.3695 -0.4874  1.5072
 4572TIP3    H213723   2.160   3.171   3.033 -1.5786  0.3183 -0.6680
 4573TIP3   OH213724   4.968   4.318   3.496 -0.0247  0.2806  0.6325
 4573TIP3    H113725   5.038   4.374   3.530  1.9309 -2.6002  1.8002
 4573TIP3    H213726   4.902   4.318   3.565  0.3175  0.5887  0.9645
 4574TIP3   OH213727   5.668   2.877   3.504 -1.1038  0.1847 -0.2920
 4574TIP3    H113728   5.722   2.938   3.555 -1.1775 -0.5648  0.7123
 4574TIP3    H213729   5.722   2.855   3.428 -0.7087  0.7933 -0.1960
 4575TIP3   OH213730   0.977   2.562   4.508 -0.3495 -0.1654  0.4237
 4575TIP3    H113731   0.979   2.654   4.479 -1.3868 -0.1943  0.2231
 4575TIP3    H213732   1.034   2.517   4.446 -1.0888  0.0897 -0.4735
 4576TIP3   OH213733   2.378   2.003   0.507  0.5454  0.1043 -0.2288
 4576TIP3    H113734   2.324   2.011   0.428  1.9296 -0.0882 -1.2413
 4576TIP3    H213735   2.432   2.081   0.507 -0.9601  1.2496  1.8161
 4577TIP3   OH213736   5.150   1.474   0.705 -0.1352 -0.1150 -0.2644
 4577TIP3    H113737   5.243   1.455   0.695 -0.1080 -0.1422  0.0538
 4577TIP3    H213738   5.143   1.569   0.702 -0.3202 -0.1327 -2.3391
 4578TIP3   OH213739   3.505   4.165   0.578  0.1993 -0.9589 -0.0270
 4578TIP3    H113740   3.510   4.125   0.491  1.9228  1.2970 -1.0919
 4578TIP3    H213741   3.473   4.254   0.562 -1.3086 -1.0842  1.9308
 4579TIP3   OH213742   1.228   3.899   4.127 -0.1116 -0.1679 -0.2290
 4579TIP3    H113743   1.274   3.979   4.154 -0.2994 -0.0103 -0.3711
 4579TIP3    H213744   1.233   3.842   4.203 -2.3219  0.9955  0.8737
 4580TIP3   OH213745   2.346   4.560   5.065  0.0349 -0.0696  0.3444
 4580TIP3    H113746   2.338   4.468   5.041  0.0328 -0.2176  0.8943
 4580TIP3    H213747   2.439   4.574   5.080  0.0519  0.0545  0.1387
 4581TIP3   OH213748   4.661   0.600   2.088 -0.2070 -0.4472 -0.5378
 4581TIP3    H113749   4.646   0.567   1.999  0.5746 -0.5964 -0.6156
 4581TIP3    H213750   4.583   0.654   2.106  0.3708  0.9528 -1.9552
 4582TIP3   OH213751   0.919   2.627   3.937  0.2608  0.0229  0.0356
 4582TIP3    H113752   0.828   2.627   3.909  0.0674  1.8697  0.5363
 4582TIP3    H213753   0.962   2.691   3.881  0.2282  2.5555  2.6635
 4583TIP3   OH213754   6.216   1.853   2.109 -0.0414  0.4702  0.6310
 4583TIP3    H113755   6.238   1.830   2.019  0.7135  0.4911  0.8060
 4583TIP3    H213756   6.259   1.937   2.124  0.8936 -0.1353  1.4142
 4584TIP3   OH213757   0.002   0.232   4.800  0.3322  0.3702  0.6231
 4584TIP3    H113758  -0.035   0.147   4.824 -0.9574  0.7485  0.0701
 4584TIP3    H213759   0.043   0.264   4.880  0.8622 -0.7780  0.8293
 4585TIP3   OH213760   0.378   1.554   2.525 -0.4284 -0.0237 -0.3348
 4585TIP3    H113761   0.434   1.580   2.452 -0.1279  0.7396  0.1491
 4585TIP3    H213762   0.289   1.573   2.495 -0.2803  0.6452 -0.3688
 4586TIP3   OH213763   5.066   5.557   1.393  0.3311 -0.8312  0.2851
 4586TIP3    H113764   5.086   5.623   1.460 -1.2293 -1.5344  1.4938
 4586TIP3    H213765   5.120   5.481   1.417 -1.5282 -1.7239  1.8770
 4587TIP3   OH213766   0.408   5.164   2.814  0.3802  0.1797  0.1321
 4587TIP3    H113767   0.456   5.185   2.735  0.9715 -3.5546 -0.6506
 4587TIP3    H213768   0.465   5.192   2.886  1.8328 -0.3503 -0.7900
 4588TIP3   OH213769   1.532   4.440   0.516  0.0705 -0.1144  0.4127
 4588TIP3    H113770   1.563   4.490   0.591 -0.8904  1.1218  0.0276
 4588TIP3    H213771   1.470   4.377   0.553  0.1707 -0.0252  0.7363
 4589TIP3   OH213772   0.742   4.347   2.937  0.2370  0.3271  0.4177
 4589TIP3    H113773   0.733   4.442   2.939  0.0064  0.2964  2.1160
 4589TIP3    H213774   0.732   4.320   3.028  1.6932 -1.1973  0.1802
 4590TIP3   OH213775   6.004   5.702   3.546  0.4166  0.3032  0.2631
 4590TIP3    H113776   6.039   5.706   3.457  0.1978 -0.5610  0.1284
 4590TIP3    H213777   6.080   5.714   3.602  1.1636 -2.4707 -0.0104
 4591TIP3   OH213778   4.006   5.025   1.452 -0.2040  0.0026 -0.0964
 4591TIP3    H113779   3.982   5.050   1.363  1.6113  1.3700 -0.2735
 4591TIP3    H213780   3.975   4.935   1.461 -0.4872 -0.1524 -2.0854
 4592TIP3   OH213781   2.437   4.773   2.183  0.5070 -0.2121 -0.2024
 4592TIP3    H113782   2.440   4.774   2.279 -1.9743 -0.7440 -0.0538
 4592TIP3    H213783   2.384   4.849   2.160  1.5755  0.2474 -1.2094
 4593TIP3   OH213784   2.110   3.618   1.552 -0.4789 -0.3442  0.1299
 4593TIP3    H113785   2.046   3.676   1.593 -0.8109  0.5313 -1.5717
 4593TIP3    H213786   2.059   3.541   1.527 -0.9624  0.4598 -1.4565
 4594TIP3   OH213787   2.430   2.246   0.641 -0.1099  0.3174  0.3687
 4594TIP3    H113788   2.450   2.328   0.596 -1.9512  0.7544  0.2477
 4594TIP3    H213789   2.418   2.271   0.733  0.3883 -0.0079  0.5244
 4595TIP3   OH213790   3.854   0.525   4.488 -0.3506  0.0106 -0.6382
 4595TIP3    H113791   3.911   0.548   4.561  1.0029 -0.1252 -1.6058
 4595TIP3    H213792   3.777   0.486   4.529  0.1070  0.4668  0.7280
 4596TIP3   OH213793   1.167   4.360   2.955  0.2364  0.1594  0.3146
 4596TIP3    H113794   1.172   4.355   3.051 -1.1211  1.4343  0.4914
 4596TIP3    H213795   1.258   4.371   2.927  0.7042 -0.6985  1.4067
 4597TIP3   OH213796   3.688   1.965   2.746 -0.2206  0.6127  0.4995
 4597TIP3    H113797   3.619   2.032   2.742 -1.0318 -0.0709  2.1330
 4597TIP3    H213798   3.769   2.014   2.758 -0.2261  1.4937 -2.3006
 4598TIP3   OH213799   0.448   4.369   0.821 -0.0523  0.0873 -0.6403
 4598TIP3    H113800   0.481   4.375   0.911  0.1893 -0.5358 -0.6781
 4598TIP3    H213801   0.460   4.277   0.798 -2.1056 -0.2553 -0.5490
 4599TIP3   OH213802   2.035   4.803   2.695 -0.4015  0.6822  0.3587
 4599TIP3    H113803   2.074   4.727   2.738 -1.8209 -0.3591 -0.1232
 4599TIP3    H213804   2.100   4.873   2.707  0.4836 -0.3141  1.7056
 4600TIP3   OH213805   5.664   3.373   0.338  0.6042  0.1790  0.3016
 4600TIP3    H113806   5.605   3.311   0.295  0.8706 -1.2604  1.9113
 4600TIP3    H213807   5.727   3.397   0.270  1.4875 -2.6142  0.0407
 4601TIP3   OH213808   4.492   2.619   1.652  0.3065 -0.5721 -0.3721
 4601TIP3    H113809   4.477   2.701   1.698 -0.6484 -1.1674  0.4008
 4601TIP3    H213810   4.588   2.613   1.644  0.6398 -1.0515  2.7298
 4602TIP3   OH213811   3.348   0.932   3.031 -0.1574 -0.3273  0.1714
 4602TIP3    H113812   3.330   0.961   2.942 -0.7602 -1.5743 -0.1298
 4602TIP3    H213813   3.419   0.868   3.021  0.3561  0.1467  0.6925
 4603TIP3   OH213814   6.045   5.713   0.088 -0.2184 -0.5366  0.1517
 4603TIP3    H113815   6.090   5.661   0.154  1.0853  0.3717  0.0218
 4603TIP3    H213816   6.065   5.804   0.110  0.1042 -0.2007 -1.3471
 4604TIP3   OH213817   0.421   2.441   0.089 -0.0352  0.3640 -0.2374
 4604TIP3    H113818   0.501   2.390   0.081 -0.5061 -0.4281 -0.0436
 4604TIP3    H213819   0.351   2.377   0.084 -0.6383  0.1152  5.1588
 4605TIP3   OH213820   2.842   0.785   3.459 -0.1510 -0.1659 -0.4706
 4605TIP3    H113821   2.854   0.870   3.502 -0.3114  0.3488 -1.4174
 4605TIP3    H213822   2.909   0.729   3.498  0.6789  0.6998 -0.6052
 4606TIP3   OH213823   3.418   4.836   4.622  0.0195  0.0051  0.1679
 4606TIP3    H113824   3.356   4.818   4.551 -1.2053 -0.3937  1.3005
 4606TIP3    H213825   3.442   4.750   4.655  1.4606  0.1411 -0.4569
 4607TIP3   OH213826   1.088   5.395   3.737  0.2662 -0.1161  0.0640
 4607TIP3    H113827   1.094   5.329   3.668 -0.5940  1.3807 -1.5310
 4607TIP3    H213828   1.005   5.440   3.720  1.2719  2.0239  0.4326
 4608TIP3   OH213829   1.032   1.062   4.100 -0.0696  0.2237 -0.1997
 4608TIP3    H113830   1.074   1.058   4.186 -0.1663 -0.6821 -0.1880
 4608TIP3    H213831   1.001   0.973   4.084  0.3114  0.2759 -1.3579
 4609TIP3   OH213832   0.920   3.202   2.971  0.6336  0.0284 -0.2735
 4609TIP3    H113833   0.922   3.237   3.060  2.2943  1.3743 -0.7797
 4609TIP3    H213834   0.840   3.238   2.932 -0.8402 -1.6734  1.0343
 4610TIP3   OH213835   2.934   1.703   2.410 -0.2927 -0.3054  0.0736
 4610TIP3    H113836   2.922   1.709   2.505 -0.6769 -0.0723  0.0124
 4610TIP3    H213837   2.872   1.766   2.374  2.1034  2.0639 -0.2335
 4611TIP3   OH213838   4.101   5.235   3.953  0.4399 -0.1478 -0.5686
 4611TIP3    H113839   4.092   5.285   3.872 -0.4070  0.2689 -0.2370
 4611TIP3    H213840   4.040   5.278   4.014  2.0891  0.4572  0.7228
 4612TIP3   OH213841   4.129   0.680   0.649 -0.0706 -0.1426 -0.6199
 4612TIP3    H113842   4.184   0.631   0.588 -1.7763 -0.5030 -1.9539
 4612TIP3    H213843   4.095   0.753   0.597 -0.2338  0.5362  0.3979
 4613TIP3   OH213844   1.698   0.026   4.128  0.2197  0.3503 -0.3195
 4613TIP3    H113845   1.687   0.113   4.166  1.8689  0.1691  0.6567
 4613TIP3    H213846   1.648  -0.032   4.185  1.0038  0.3607  0.3938
 4614TIP3   OH213847   0.062   4.056   5.199 -0.2238 -0.1054  0.4528
 4614TIP3    H113848   0.022   4.010   5.125  1.4957 -0.2213 -0.4705
 4614TIP3    H213849   0.031   4.146   5.190 -2.3123 -0.6990  1.3146
 4615TIP3   OH213850   6.285   5.386   3.778 -0.1011 -0.3648 -0.1906
 4615TIP3    H113851   6.275   5.462   3.835 -1.8574 -0.2053 -0.6515
 4615TIP3    H213852   6.344   5.415   3.709 -1.2402  0.8325 -0.7143
 4616TIP3   OH213853   6.280   3.207   4.025 -0.4161  0.1812 -0.2263
 4616TIP3    H113854   6.188   3.206   4.049 -0.5122 -1.7274 -0.4658
 4616TIP3    H213855   6.282   3.250   3.939 -1.2989 -0.9450 -0.8438
 4617TIP3   OH213856   2.315   5.368   3.888  0.0607 -0.5171  0.2883
 4617TIP3    H113857   2.372   5.365   3.811 -0.5746 -0.1660 -0.1964
 4617TIP3    H213858   2.250   5.434   3.867 -1.2422 -1.7465  0.3444
 4618TIP3   OH213859   4.261   0.123   0.669 -0.3631  0.0237 -0.2706
 4618TIP3    H113860   4.228   0.167   0.747 -0.0449 -0.0913 -0.0682
 4618TIP3    H213861   4.243   0.030   0.685  2.7174 -0.4368  1.2240
 4619TIP3   OH213862   5.283   3.268   2.433  0.0735  0.3806  0.4785
 4619TIP3    H113863   5.260   3.182   2.468 -0.3193 -0.0766 -0.8390
 4619TIP3    H213864   5.330   3.312   2.505 -0.5461 -0.5649  1.4864
 4620TIP3   OH213865   0.232   1.806   0.544 -0.0011  0.2499  0.0953
 4620TIP3    H113866   0.151   1.763   0.516 -1.6173  2.5607  0.8668
 4620TIP3    H213867   0.299   1.739   0.536 -1.9261 -1.6898 -0.8790
 4621TIP3   OH213868   1.177   4.044   2.708  0.1138  0.1449 -0.3254
 4621TIP3    H113869   1.252   4.070   2.761  0.0383 -0.8712  0.3115
 4621TIP3    H213870   1.103   4.091   2.746  0.0972 -0.4116  0.3405
 4622TIP3   OH213871   2.934   0.076   1.847 -0.5064 -0.2634 -0.5109
 4622TIP3    H113872   2.899   0.087   1.935  1.6981 -0.5519  0.4538
 4622TIP3    H213873   2.877   0.131   1.792 -0.9124  1.2721  1.3344
 4623TIP3   OH213874   5.763   4.073   4.743 -0.4839  0.1218 -0.1805
 4623TIP3    H113875   5.800   4.011   4.807 -0.1681 -1.4667 -1.8188
 4623TIP3    H213876   5.670   4.051   4.741 -0.3581 -0.3807 -0.8207
 4624TIP3   OH213877   1.684   0.921   2.607 -0.0333 -0.1342  0.1340
 4624TIP3    H113878   1.683   0.972   2.688  0.2675 -1.9450  1.3353
 4624TIP3    H213879   1.761   0.866   2.613 -0.9667 -1.5943 -0.5314
 4625TIP3   OH213880   3.687   5.106   0.610 -0.3575 -0.0587 -0.2683
 4625TIP3    H113881   3.613   5.167   0.613  0.3807  0.8141  1.6948
 4625TIP3    H213882   3.725   5.120   0.523 -1.7839  0.3105 -0.8770
 4626TIP3   OH213883   3.982   5.039   4.956  0.1498  0.0129  0.9026
 4626TIP3    H113884   3.904   4.986   4.942 -1.1243  1.4382  2.3288
 4626TIP3    H213885   4.025   5.041   4.870 -1.1239 -1.1435  0.2031
 4627TIP3   OH213886   4.556   4.831   3.578 -0.3471  0.7139 -0.0371
 4627TIP3    H113887   4.576   4.875   3.661  0.1945  0.3384  0.0387
 4627TIP3    H213888   4.641   4.803   3.545 -0.7944 -2.0140  0.8923
 4628TIP3   OH213889   0.582   4.116   4.146 -0.0420  0.2185 -0.6203
 4628TIP3    H113890   0.604   4.199   4.189  0.9922 -0.6024  0.5084
 4628TIP3    H213891   0.508   4.137   4.090 -1.1270  1.4653  1.1713
 4629TIP3   OH213892   3.998   5.206   2.300  0.0249 -0.2819  0.2729
 4629TIP3    H113893   3.963   5.118   2.299  2.8243 -1.5207 -1.4177
 4629TIP3    H213894   3.952   5.251   2.229 -1.2101 -0.4167  0.9591
 4630TIP3   OH213895   5.131   2.767   0.990 -0.1894  0.2191 -0.7823
 4630TIP3    H113896   5.186   2.842   1.015 -1.5909  1.2868 -0.7478
 4630TIP3    H213897   5.170   2.734   0.909  0.3249  1.1274 -0.9164
 4631TIP3   OH213898   4.325   1.461   3.601 -0.7724 -0.0466  0.4117
 4631TIP3    H113899   4.369   1.383   3.635 -0.1233  0.0387 -0.2022
 4631TIP3    H213900   4.306   1.513   3.679 -1.5104 -0.9560  0.8637
 4632TIP3   OH213901   1.666   2.052   4.435  0.2786  0.0575  0.3634
 4632TIP3    H113902   1.612   1.988   4.481  0.2852 -0.5978 -0.5134
 4632TIP3    H213903   1.669   2.020   4.345  3.3927 -0.8087  0.6532
 4633TIP3   OH213904   4.081   0.152   2.598 -0.4079  0.1223  0.1748
 4633TIP3    H113905   4.095   0.066   2.637  2.3835  0.7736  0.7996
 4633TIP3    H213906   4.131   0.150   2.516 -1.1896  0.8260 -0.3428
 4634TIP3   OH213907   2.722   1.840   3.738 -0.5592 -0.1014  0.1326
 4634TIP3    H113908   2.659   1.816   3.806  0.9993 -1.3323  1.1940
 4634TIP3    H213909   2.804   1.855   3.785  0.1312  0.8220 -1.2869
 4635TIP3   OH213910   3.245   5.687   2.662 -0.0515 -0.0361  0.6521
 4635TIP3    H113911   3.243   5.665   2.569 -3.1759  0.3602  0.5343
 4635TIP3    H213912   3.284   5.774   2.665  0.7058 -0.3235 -0.1641
 4636TIP3   OH213913   6.328   0.676   2.488 -0.4401 -0.4188  0.1146
 4636TIP3    H113914   6.296   0.742   2.427 -0.2242 -1.1408 -0.8007
 4636TIP3    H213915   6.413   0.709   2.518 -0.7994  0.2017  0.4574
 4637TIP3   OH213916   6.031   1.640   1.005 -0.3213 -0.5638 -0.2882
 4637TIP3    H113917   5.959   1.703   0.994 -0.5762 -0.8750 -0.4256
 4637TIP3    H213918   5.991   1.555   0.989  0.0204 -0.7648 -0.0890
 4638TIP3   OH213919   4.492   4.937   2.205  1.1149  0.1939 -0.1076
 4638TIP3    H113920   4.415   4.988   2.228  2.1391  0.5448  2.9641
 4638TIP3    H213921   4.457   4.857   2.165 -0.6999  1.2415 -0.7117
 4639TIP3   OH213922   3.831   1.963   1.072 -0.3228 -0.3603  0.5120
 4639TIP3    H113923   3.858   1.985   0.983  1.3335 -0.4559  0.9488
 4639TIP3    H213924   3.744   1.926   1.063 -0.3284 -0.0232 -1.0194
 4640TIP3   OH213925   3.175   0.217   4.353 -0.1817  0.1714  0.1146
 4640TIP3    H113926   3.134   0.133   4.374 -3.9074  1.6141 -0.4790
 4640TIP3    H213927   3.212   0.204   4.266 -2.9936 -0.3011 -1.1275
 4641TIP3   OH213928   4.146   3.937   2.937 -0.8476 -0.6207  0.1876
 4641TIP3    H113929   4.091   3.960   3.012 -0.4938  0.4057  0.1537
 4641TIP3    H213930   4.111   3.991   2.865  0.6154  0.5976  0.3424
 4642TIP3   OH213931   3.332   2.978   4.594  0.2026 -0.5231 -0.4391
 4642TIP3    H113932   3.381   3.048   4.552 -1.3212  0.2406 -0.9857
 4642TIP3    H213933   3.272   3.022   4.654  0.6641 -1.4860  0.8062
 4643TIP3   OH213934   5.516   2.831   4.863  0.0412 -0.3069 -0.0859
 4643TIP3    H113935   5.507   2.885   4.942 -0.2228 -0.5058  0.0217
 4643TIP3    H213936   5.607   2.801   4.865 -0.4147 -1.7270  1.0770
 4644TIP3   OH213937   4.677   0.293   3.905  0.0733 -0.1196 -0.5605
 4644TIP3    H113938   4.693   0.368   3.962  1.7507 -1.4210  0.7469
 4644TIP3    H213939   4.623   0.234   3.957  1.6798 -1.3529 -0.2260
 4645TIP3   OH213940   5.926   3.171   3.349 -0.3568  0.1622 -0.0792
 4645TIP3    H113941   5.903   3.078   3.351 -0.2487  0.1517  1.0071
 4645TIP3    H213942   5.875   3.210   3.420  1.2802  0.5198  0.9674
 4646TIP3   OH213943   6.130   0.871   3.171 -0.1247  0.4840  0.2148
 4646TIP3    H113944   6.078   0.947   3.145 -1.2640 -1.0289 -2.4038
 4646TIP3    H213945   6.074   0.824   3.233 -0.4084  0.6300  0.0742
 4647TIP3   OH213946   6.176   0.984   4.216 -0.6977  0.1263 -0.9754
 4647TIP3    H113947   6.266   0.955   4.231 -1.2763 -0.5519  1.7619
 4647TIP3    H213948   6.146   0.933   4.141  0.4684 -1.4137 -0.4400
 4648TIP3   OH213949   0.628   1.205   4.173  0.2127  0.3574 -0.3632
 4648TIP3    H113950   0.615   1.142   4.244  1.0850 -0.1524 -0.6423
 4648TIP3    H213951   0.552   1.194   4.116 -0.1083  0.2305  0.0879
 4649TIP3   OH213952   1.316   4.521   4.505 -0.2203  0.0634 -0.3710
 4649TIP3    H113953   1.280   4.523   4.416 -1.4523 -0.6915  0.0786
 4649TIP3    H213954   1.242   4.494   4.560  0.9988 -1.4312  0.6236
 4650TIP3   OH213955   0.357   0.334   4.231 -0.1976 -0.1516 -0.0582
 4650TIP3    H113956   0.294   0.263   4.219 -0.9174  0.1334  1.7851
 4650TIP3    H213957   0.435   0.291   4.264 -0.0826 -0.2572 -0.4541
 4651TIP3   OH213958   3.543   2.218   3.996  0.5988 -0.5376  0.6632
 4651TIP3    H113959   3.499   2.145   3.953 -0.3365  1.0431 -1.2125
 4651TIP3    H213960   3.637   2.201   3.981  0.3337 -0.5104 -1.3067
 4652TIP3   OH213961   3.656   3.226   0.498  0.0320 -0.2788  0.5031
 4652TIP3    H113962   3.707   3.145   0.499 -1.4055 -1.2215  0.7595
 4652TIP3    H213963   3.569   3.200   0.529 -0.7012  1.2018 -0.2100
 4653TIP3   OH213964   5.734   5.532   2.085 -0.2086 -0.3194  0.4355
 4653TIP3    H113965   5.672   5.458   2.087 -1.1317  0.4208  0.1699
 4653TIP3    H213966   5.808   5.503   2.138  0.2034 -2.0853 -1.0197
 4654TIP3   OH213967   3.143   4.809   4.501 -0.2314 -0.0157 -0.5179
 4654TIP3    H113968   3.088   4.800   4.579  0.2154 -1.0268 -0.2978
 4654TIP3    H213969   3.102   4.751   4.437 -1.3920  1.8446 -1.5253
 4655TIP3   OH213970   1.088   3.440   3.747  0.2790 -0.2899 -0.0109
 4655TIP3    H113971   1.055   3.508   3.806 -1.2082 -0.1567 -0.9550
 4655TIP3    H213972   1.172   3.473   3.717  0.1299  0.5733  0.4827
 4656TIP3   OH213973   3.384   2.127   4.244  0.0269 -0.8882 -0.4021
 4656TIP3    H113974   3.443   2.068   4.291  0.3689  0.0972  0.4404
 4656TIP3    H213975   3.422   2.133   4.157  1.5077  0.1372  0.2704
 4657TIP3   OH213976   4.060   0.261   4.591  0.4949  0.5769  0.1640
 4657TIP3    H113977   4.036   0.200   4.661  2.2972 -0.6245 -0.1945
 4657TIP3    H213978   4.116   0.326   4.635  0.5281  0.5956  0.0938
 4658TIP3   OH213979   0.344   0.796   2.110  0.0616 -0.0065  0.3069
 4658TIP3    H113980   0.371   0.880   2.073 -1.1619 -0.1049 -0.8709
 4658TIP3    H213981   0.280   0.819   2.178 -0.8035  0.0081 -0.4934
 4659TIP3   OH213982   0.723   0.870   3.227  0.2170 -0.2111  0.1724
 4659TIP3    H113983   0.745   0.792   3.278  1.2331  0.2399  0.4563
 4659TIP3    H213984   0.757   0.943   3.279 -1.4467  0.5015  0.3204
 4660TIP3   OH213985   2.880   1.129   1.428 -0.2291  0.7603 -0.4271
 4660TIP3    H113986   2.926   1.136   1.344  0.5699 -0.1841 -0.0949
 4660TIP3    H213987   2.796   1.088   1.406 -0.0692  0.6181 -0.7833
 4661TIP3   OH213988   5.075   2.934   0.316 -0.0638 -0.1045 -0.4881
 4661TIP3    H113989   5.129   2.962   0.390  1.0350 -0.1169 -1.2783
 4661TIP3    H213990   5.030   3.014   0.288 -0.6445 -0.1354  0.2917
 4662TIP3   OH213991   4.902   0.335   5.127  0.1546 -0.0594 -0.5321
 4662TIP3    H113992   4.899   0.401   5.057 -0.5341  0.9863  0.4441
 4662TIP3    H213993   4.996   0.316   5.138  0.4743  1.6020 -0.0942
 4663TIP3   OH213994   1.194   0.657   0.787  0.6549 -0.4179  0.4704
 4663TIP3    H113995   1.157   0.739   0.820  0.7200 -1.3021  2.9288
 4663TIP3    H213996   1.130   0.626   0.723 -0.9470  0.0168  1.8016
 4664TIP3   OH213997   0.849   1.264   3.172 -0.2024  0.2745  0.2982
 4664TIP3    H113998   0.922   1.299   3.121 -0.6780 -0.1996 -0.7358
 4664TIP3    H213999   0.870   1.287   3.263  0.2619  1.8476 -0.1694
 4665TIP3   OH214000   2.276   1.701   5.096 -0.0952  0.7386 -0.3406
 4665TIP3    H114001   2.331   1.648   5.154 -1.4398 -1.8154 -1.1996
 4665TIP3    H214002   2.215   1.745   5.155 -0.4276 -0.5514  0.3290
 4666TIP3   OH214003   0.475   2.162   0.607 -0.8068  0.0507 -0.2887
 4666TIP3    H114004   0.476   2.257   0.596 -1.4469  0.0456 -0.4247
 4666TIP3    H214005   0.554   2.132   0.562 -0.4879  0.5336 -0.0609
 4667TIP3   OH214006   1.265   4.137   4.958 -0.3178  0.4648  0.3546
 4667TIP3    H114007   1.353   4.110   4.931 -0.0104  0.8754  0.9241
 4667TIP3    H214008   1.253   4.222   4.916 -0.5112  0.3363  0.1468
 4668TIP3   OH214009   3.682   1.123   2.888 -0.4329  0.1651  0.2602
 4668TIP3    H114010   3.684   1.071   2.968  1.3962 -0.8642 -0.3988
 4668TIP3    H214011   3.711   1.210   2.914  0.6799 -0.3080  0.6351
 4669TIP3   OH214012   5.027   3.148   4.034 -0.3050 -0.4938 -0.4209
 4669TIP3    H114013   5.118   3.121   4.048 -0.5931 -0.4750  1.7841
 4669TIP3    H214014   5.006   3.117   3.946  2.5437  1.4993 -1.9962
 4670TIP3   OH214015   5.719   1.003   0.867 -0.1068  0.2258 -0.8050
 4670TIP3    H114016   5.636   0.963   0.895  0.0944  0.5060  0.2326
 4670TIP3    H214017   5.784   0.934   0.879 -0.0761  0.2407 -0.8896
 4671TIP3   OH214018   5.484   1.079   2.108 -0.1828 -0.2607  0.0285
 4671TIP3    H114019   5.420   1.017   2.142 -0.2090 -0.0193  0.4176
 4671TIP3    H214020   5.469   1.160   2.157 -0.2688  0.1128 -0.5929
 4672TIP3   OH214021   5.727   3.500   3.044  0.5279 -0.2362 -0.9707
 4672TIP3    H114022   5.654   3.560   3.031 -1.0121 -1.2943  1.7835
 4672TIP3    H214023   5.788   3.548   3.100 -0.4841 -0.9577  0.8429
 4673TIP3   OH214024   0.684   2.534   0.383  0.0534  0.5501 -0.4119
 4673TIP3    H114025   0.715   2.553   0.295  0.4072  1.0911 -0.1727
 4673TIP3    H214026   0.648   2.617   0.415  0.3001  0.4613  0.1079
 4674TIP3   OH214027   5.227   5.182   4.072 -1.0502 -0.0490 -0.3742
 4674TIP3    H114028   5.194   5.156   3.987 -1.1662 -2.2884  0.2845
 4674TIP3    H214029   5.304   5.127   4.086 -0.6671  0.7186  0.7121
 4675TIP3   OH214030   2.190   3.599   3.512  0.5413 -0.3517 -0.0660
 4675TIP3    H114031   2.236   3.677   3.481  1.0545 -0.8202 -0.4955
 4675TIP3    H214032   2.141   3.629   3.589  1.2127  0.2541  0.1329
 4676TIP3   OH214033   3.132   0.745   3.806  0.5019 -0.7574  0.2455
 4676TIP3    H114034   3.226   0.726   3.803  1.3583  2.8031 -0.4014
 4676TIP3    H214035   3.111   0.772   3.716 -0.5877  0.5224  0.8461
 4677TIP3   OH214036   0.390   4.111   1.693 -0.0858 -0.4378 -0.6789
 4677TIP3    H114037   0.375   4.148   1.606  2.3624  1.0124 -0.5681
 4677TIP3    H214038   0.425   4.024   1.676  2.9067  0.7715 -1.3645
 4678TIP3   OH214039   1.819   1.238   0.661 -0.6393  0.3954  0.1871
 4678TIP3    H114040   1.852   1.255   0.750  1.7689  0.3345 -0.6359
 4678TIP3    H214041   1.891   1.195   0.616 -2.7603 -2.1116 -1.0673
 4679TIP3   OH214042   5.928   2.047   3.784  0.1327 -0.3387 -0.1509
 4679TIP3    H114043   5.880   2.002   3.853  0.5599 -1.1975 -0.4070
 4679TIP3    H214044   5.872   2.038   3.706  0.6236 -1.2191 -0.4161
 4680TIP3   OH214045   1.541   2.067   2.685  0.6227 -0.0281 -0.1769
 4680TIP3    H114046   1.489   2.064   2.605  0.1012  1.1130  0.1084
 4680TIP3    H214047   1.585   2.151   2.683  0.3139  0.1776  0.9136
 4681TIP3   OH214048   4.592   0.485   2.344  0.4876  0.1155  0.3923
 4681TIP3    H114049   4.647   0.412   2.372 -1.4735 -1.8439 -0.5301
 4681TIP3    H214050   4.634   0.516   2.263  3.0588  2.1799  2.3331
 4682TIP3   OH214051   0.219  -0.000   5.098  0.0688  0.0709 -0.1695
 4682TIP3    H114052   0.301   0.024   5.056  0.2447  0.0345  0.1484
 4682TIP3    H214053   0.151   0.022   5.034  0.3399 -0.0792 -0.5096
 4683TIP3   OH214054   2.330   5.666   3.412  0.3887 -0.4600  1.0061
 4683TIP3    H114055   2.374   5.660   3.328 -1.6904 -0.0560 -0.1770
 4683TIP3    H214056   2.380   5.607   3.469  1.2884 -1.4786 -0.7388
 4684TIP3   OH214057   5.937   5.673   4.564 -0.2356 -0.0777 -0.4109
 4684TIP3    H114058   6.009   5.641   4.618 -0.3629  1.9572  1.0609
 4684TIP3    H214059   5.858   5.649   4.613 -0.4067  0.5768 -0.3566
 4685TIP3   OH214060   0.655   3.686   5.165 -0.1923  0.2389  0.2371
 4685TIP3    H114061   0.717   3.708   5.096  1.7831 -0.6501  1.6330
 4685TIP3    H214062   0.637   3.770   5.209 -0.2132  0.5525 -0.3614
 4686TIP3   OH214063   0.392   0.808   0.679  0.4831 -0.1142  0.2009
 4686TIP3    H114064   0.457   0.760   0.628 -0.1822 -1.2646  0.3840
 4686TIP3    H214065   0.385   0.893   0.636  0.0188 -1.0101 -1.5605
 4687TIP3   OH214066   0.141   4.935   0.084  0.2689 -0.1642 -0.2861
 4687TIP3    H114067   0.075   4.868   0.101  1.4999 -1.0005  1.6479
 4687TIP3    H214068   0.205   4.892   0.027  0.4562 -0.2757 -0.0003
 4688TIP3   OH214069   5.889   4.181   1.384  0.3398  0.0803 -0.2112
 4688TIP3    H114070   5.861   4.217   1.468  0.1327 -0.4205 -0.0615
 4688TIP3    H214071   5.845   4.235   1.319 -0.8395 -0.5650  0.0158
 4689TIP3   OH214072   1.183   1.877   0.822 -0.8933 -0.2273  0.0833
 4689TIP3    H114073   1.170   1.808   0.757 -0.6903 -0.8403  0.6816
 4689TIP3    H214074   1.261   1.850   0.870 -1.0636  0.1952  0.6077
 4690TIP3   OH214075   4.433   5.657   3.644  0.3506  0.2958 -0.0772
 4690TIP3    H114076   4.443   5.668   3.549 -2.9759  1.1535 -0.4341
 4690TIP3    H214077   4.486   5.580   3.665  0.0540 -0.7860 -2.8739
 4691TIP3   OH214078   2.001   3.439   0.234 -0.1468 -0.0667  0.1121
 4691TIP3    H114079   2.089   3.455   0.269  0.5089  0.3395 -1.6088
 4691TIP3    H214080   2.013   3.371   0.168 -1.3309 -0.8009  0.6290
 4692TIP3   OH214081   4.766   4.611   1.958  0.2915  0.3418 -0.1718
 4692TIP3    H114082   4.847   4.654   1.987  0.6944 -1.1723  1.0452
 4692TIP3    H214083   4.702   4.633   2.026  0.4469 -0.7749  0.3493
 4693TIP3   OH214084   5.718   2.594   3.375 -0.1807 -0.4744  0.8172
 4693TIP3    H114085   5.793   2.538   3.352 -1.1494 -1.7984  0.7948
 4693TIP3    H214086   5.672   2.607   3.292 -1.4427 -1.9039  1.2557
 4694TIP3   OH214087   5.877   3.145   1.999  0.2759  0.4738 -0.3075
 4694TIP3    H114088   5.856   3.220   1.944 -2.6611  0.3706  0.4621
 4694TIP3    H214089   5.820   3.075   1.967 -0.0313 -0.1790  1.5329
 4695TIP3   OH214090   0.383   2.673   0.208  0.0874 -0.1930  0.0394
 4695TIP3    H114091   0.333   2.686   0.289 -0.8346 -1.0399 -0.3763
 4695TIP3    H214092   0.409   2.581   0.211  3.1277  0.5505  1.0491
 4696TIP3   OH214093   4.675   3.728   0.099 -0.5567 -0.1387  0.3730
 4696TIP3    H114094   4.610   3.671   0.142 -2.0256  0.4182 -1.0081
 4696TIP3    H214095   4.639   3.744   0.012  1.9282 -0.5680 -0.8257
 4697TIP3   OH214096   4.967   4.444   4.512 -0.2303  0.2260  0.1225
 4697TIP3    H114097   4.953   4.535   4.538  2.7044  0.9008 -0.2793
 4697TIP3    H214098   4.944   4.441   4.420  0.1656  0.7068  0.0063
 4698TIP3   OH214099   1.705   5.219   0.064  0.3680 -0.4296  0.3142
 4698TIP3    H114100   1.735   5.171   0.142  0.3488 -0.5752  0.2321
 4698TIP3    H214101   1.776   5.209   0.001  0.0676 -0.9347  0.0528
 4699TIP3   OH214102   4.339   4.123   3.965 -0.0733 -0.3845 -0.0532
 4699TIP3    H114103   4.400   4.054   3.940  0.8668  0.0010  1.1208
 4699TIP3    H214104   4.323   4.110   4.058  0.6057  1.3345  0.3396
 4700TIP3   OH214105   2.771   0.584   0.573 -0.2397 -0.6218 -0.2083
 4700TIP3    H114106   2.860   0.574   0.539  0.1475 -2.7327  1.1949
 4700TIP3    H214107   2.758   0.506   0.627 -2.1766  0.6841  1.3393
 4701TIP3   OH214108   3.940   4.931   0.881  0.0539  0.0488  0.2038
 4701TIP3    H114109   4.030   4.923   0.849  0.6958  1.1666  1.6026
 4701TIP3    H214110   3.885   4.914   0.804  1.4542 -0.4424 -0.7232
 4702TIP3   OH214111   1.209   2.745   4.112 -0.3711 -0.4909 -0.4829
 4702TIP3    H114112   1.156   2.819   4.082  1.3197  0.5806 -0.9572
 4702TIP3    H214113   1.161   2.668   4.084 -2.3722  0.3844  0.3393
 4703TIP3   OH214114   3.415   3.812   0.374  0.9972  0.0011  0.1608
 4703TIP3    H114115   3.393   3.795   0.466  2.7174 -1.4462  0.3641
 4703TIP3    H214116   3.367   3.745   0.325 -3.4426  3.3039 -0.6149
 4704TIP3   OH214117   1.777   4.779   1.923 -0.2400 -0.2562  0.2257
 4704TIP3    H114118   1.794   4.702   1.978  3.4255  3.0041  4.4707
 4704TIP3    H214119   1.697   4.817   1.958 -0.5326 -0.6421 -0.0106
 4705TIP3   OH214120   3.131   2.205   0.071  0.2410  0.2552  0.0735
 4705TIP3    H114121   3.109   2.120   0.110 -0.1539  0.6063  0.6242
 4705TIP3    H214122   3.129   2.189  -0.023  0.6896 -0.4748  0.1759
 4706TIP3   OH214123   2.872   0.019   3.112  0.5091 -0.1501  0.2261
 4706TIP3    H114124   2.896   0.111   3.100 -0.8244  0.0886 -0.9006
 4706TIP3    H214125   2.871  -0.017   3.023 -2.8626 -0.1894  0.1610
 4707TIP3   OH214126   3.136   0.867   3.545  0.1549 -0.0471  0.3801
 4707TIP3    H114127   3.068   0.935   3.545 -0.9452 -1.0516  2.5956
 4707TIP3    H214128   3.149   0.846   3.453 -0.5766  2.0658 -0.2705
 4708TIP3   OH214129   6.304   2.549   3.051  0.1356  0.1219 -0.4392
 4708TIP3    H114130   6.337   2.632   3.019 -1.7086  0.8558 -0.5470
 4708TIP3    H214131   6.276   2.567   3.141  0.7138 -0.6769 -0.0789
 4709TIP3   OH214132  -0.013   3.697   1.742  0.2319 -0.1972 -0.0598
 4709TIP3    H114133   0.026   3.663   1.822  1.5505  1.2660 -0.0184
 4709TIP3    H214134   0.034   3.778   1.726 -1.0568  0.3068 -1.5017
 4710TIP3   OH214135   4.463   0.505   3.827  0.4583  0.0852  0.1285
 4710TIP3    H114136   4.498   0.559   3.898  1.1751 -0.2559  0.0470
 4710TIP3    H214137   4.535   0.498   3.765  0.1133 -0.3185 -0.2270
 4711TIP3   OH214138   4.424   2.566   1.133 -0.1262 -0.3180 -0.3654
 4711TIP3    H114139   4.494   2.504   1.117 -0.2887 -0.3904 -0.8130
 4711TIP3    H214140   4.468   2.646   1.161 -0.0031 -1.3087  2.5755
 4712TIP3   OH214141   5.414   1.525   1.010  0.0121 -0.2675  0.3667
 4712TIP3    H114142   5.324   1.512   1.038  0.1069  1.0679  1.4147
 4712TIP3    H214143   5.428   1.459   0.942 -1.9533 -0.0850 -0.2818
 4713TIP3   OH214144   4.426   2.884   1.727  0.2957  0.8766  0.4867
 4713TIP3    H114145   4.357   2.938   1.688  0.4160  0.3972 -0.4158
 4713TIP3    H214146   4.455   2.934   1.804 -1.3598  0.8563  1.1630
 4714TIP3   OH214147   0.164   1.361   2.443  0.5104 -0.0913  0.3360
 4714TIP3    H114148   0.092   1.391   2.387  1.6619  0.7945 -0.7285
 4714TIP3    H214149   0.128   1.364   2.532 -0.5981  0.8252 -0.1196
 4715TIP3   OH214150   2.938   2.872   3.393 -0.1321  0.3818 -0.4464
 4715TIP3    H114151   2.844   2.855   3.397 -0.6219  2.7161 -0.8195
 4715TIP3    H214152   2.965   2.838   3.307 -0.6050 -0.3813 -0.2979
 4716TIP3   OH214153   4.251   1.576   5.062 -0.3535 -0.3291  0.0078
 4716TIP3    H114154   4.181   1.615   5.114 -0.0710 -0.6997  0.6781
 4716TIP3    H214155   4.218   1.490   5.038 -0.5600 -0.0864 -0.5961
 4717TIP3   OH214156   3.158   1.652   1.945 -0.2239 -0.1416  0.2706
 4717TIP3    H114157   3.108   1.701   2.009 -0.9800 -0.9739  0.3368
 4717TIP3    H214158   3.212   1.592   1.997 -0.9320 -0.9070  0.1439
 4718TIP3   OH214159   5.366   4.095   3.667 -0.4008  0.3907 -0.2330
 4718TIP3    H114160   5.390   4.095   3.760 -0.1061 -0.0735 -0.3084
 4718TIP3    H214161   5.410   4.172   3.631 -0.1824  0.3418 -0.0727
 4719TIP3   OH214162   0.259   2.046   2.707  0.1584  0.0578 -0.4859
 4719TIP3    H114163   0.163   2.053   2.708 -0.0351 -1.5482  2.3227
 4719TIP3    H214164   0.280   2.026   2.616 -2.2200 -0.0889 -1.0779
 4720TIP3   OH214165   4.409   2.437   1.891  0.3555 -0.1334 -0.0195
 4720TIP3    H114166   4.316   2.459   1.881 -0.0190 -1.0376  1.2934
 4720TIP3    H214167   4.450   2.474   1.813 -0.5230  3.3419  0.9608
 4721TIP3   OH214168   1.336   3.664   1.093  0.2435  0.3030 -0.0293
 4721TIP3    H114169   1.339   3.617   1.176  0.9488 -0.8273 -0.6699
 4721TIP3    H214170   1.410   3.725   1.097 -1.2657  2.1945  1.2274
 4722TIP3   OH214171   1.936   1.165   2.489 -0.1947  0.0653  0.3740
 4722TIP3    H114172   1.975   1.250   2.510  2.0096 -0.9708  0.6689
 4722TIP3    H214173   1.953   1.110   2.565 -0.1790 -1.1128 -0.4474
 4723TIP3   OH214174   3.970   0.854   1.258  0.0921 -0.1696 -0.2548
 4723TIP3    H114175   3.925   0.914   1.317  0.6703  1.1390 -1.0785
 4723TIP3    H214176   4.055   0.839   1.299 -0.5203 -1.4729  0.5798
 4724TIP3   OH214177   3.302   4.247   0.360 -0.2488  0.2928  0.3546
 4724TIP3    H114178   3.342   4.177   0.309 -2.2871 -1.6578  1.2450
 4724TIP3    H214179   3.219   4.264   0.316 -0.1657  1.5676  0.6479
 4725TIP3   OH214180   2.405   4.411   0.622 -0.0564 -0.1809 -0.1858
 4725TIP3    H114181   2.475   4.454   0.671 -0.3280  0.0656 -0.0102
 4725TIP3    H214182   2.451   4.354   0.560  0.4742  3.0659 -3.0398
 4726TIP3   OH214183   3.536   5.965   1.662 -0.2752 -0.2508 -0.9981
 4726TIP3    H114184   3.447   5.965   1.627 -0.1994 -1.9194 -1.2719
 4726TIP3    H214185   3.540   5.888   1.718  1.0071 -0.2356 -1.0334
 4727TIP3   OH214186   3.110   2.449   1.825  0.3762  0.3212 -0.1088
 4727TIP3    H114187   3.060   2.514   1.774  0.0363 -1.5541 -2.3575
 4727TIP3    H214188   3.044   2.392   1.863  0.6978 -0.3098 -0.4688
 4728TIP3   OH214189   3.341   4.497   1.820  0.2574 -0.1840 -0.1900
 4728TIP3    H114190   3.311   4.524   1.734  1.9237 -0.5249 -0.9242
 4728TIP3    H214191   3.285   4.545   1.881 -0.2639  0.8977 -1.4600
 4729TIP3   OH214192   2.218   1.493   4.574  0.2362  0.0699  0.1059
 4729TIP3    H114193   2.150   1.449   4.626  0.2513 -1.2002 -0.9141
 4729TIP3    H214194   2.237   1.433   4.503  0.4975  1.5940 -1.1784
 4730TIP3   OH214195   0.957   2.453   2.064 -0.4026 -0.2574  0.1254
 4730TIP3    H114196   1.044   2.475   2.032  0.6115 -2.2069  1.3786
 4730TIP3    H214197   0.951   2.358   2.054 -1.4956 -0.4490  2.1382
 4731TIP3   OH214198   5.761   4.218   4.452  0.1252 -0.5905 -0.1016
 4731TIP3    H114199   5.795   4.129   4.447 -1.9130 -1.3639 -2.1600
 4731TIP3    H214200   5.685   4.211   4.510 -0.0702 -0.2076 -0.3063
 4732TIP3   OH214201   4.058   3.811   0.436 -0.2027  0.1811 -0.3418
 4732TIP3    H114202   4.126   3.846   0.493 -0.3818 -0.7022  0.4181
 4732TIP3    H214203   4.083   3.841   0.348  0.7444  0.5027  0.0296
 4733TIP3   OH214204   3.606   3.421   3.308  0.4422  0.2680 -0.0066
 4733TIP3    H114205   3.631   3.513   3.309  2.1203 -0.1423 -1.0168
 4733TIP3    H214206   3.635   3.387   3.392 -0.6342  0.7407  0.5802
 4734TIP3   OH214207   3.747   3.698   3.775 -0.4442  0.3041 -0.1097
 4734TIP3    H114208   3.679   3.683   3.841 -1.3038  2.0051 -0.5385
 4734TIP3    H214209   3.700   3.698   3.692 -0.2421  2.8066 -0.3235
 4735TIP3   OH214210   4.523   1.399   1.147 -0.2874  0.3137  0.1094
 4735TIP3    H114211   4.613   1.406   1.116 -0.3946  0.7377 -0.1258
 4735TIP3    H214212   4.478   1.472   1.104 -0.5708  0.5777  0.8401
 4736TIP3   OH214213   2.666   4.535   4.009 -0.2832 -0.0013  0.2724
 4736TIP3    H114214   2.628   4.536   4.098 -2.6568  1.3415 -0.6477
 4736TIP3    H214215   2.630   4.456   3.969 -1.7909  0.9892 -0.4263
 4737TIP3   OH214216   2.643   4.669   1.854  0.4139 -0.0271  0.0234
 4737TIP3    H114217   2.631   4.674   1.948  2.1859  0.7941  0.2464
 4737TIP3    H214218   2.558   4.695   1.817 -0.8439 -2.0118  1.3375
 4738TIP3   OH214219   2.999   1.700   4.086  0.0783  0.1186 -0.5453
 4738TIP3    H114220   3.069   1.681   4.023 -0.2533  0.6393 -1.0741
 4738TIP3    H214221   3.045   1.735   4.162  0.3480  1.1926 -1.1781
 4739TIP3   OH214222   5.937   3.240   4.913 -0.1986  0.0101 -0.1319
 4739TIP3    H114223   5.908   3.152   4.933  0.9208  0.0868  2.0665
 4739TIP3    H214224   5.902   3.295   4.983 -1.2752  1.4379 -1.6991
 4740TIP3   OH214225   0.695   2.090   4.515  0.0035  0.0035 -0.2057
 4740TIP3    H114226   0.752   2.028   4.561  1.6429 -0.3813 -2.5654
 4740TIP3    H214227   0.721   2.176   4.548  2.2628 -0.1372 -1.3673
 4741TIP3   OH214228   4.739   5.897   0.396 -0.8153  0.1477 -0.1762
 4741TIP3    H114229   4.733   5.977   0.450 -0.4372  1.4579 -1.9742
 4741TIP3    H214230   4.706   5.924   0.310 -0.9427 -1.7457 -0.7595
 4742TIP3   OH214231   5.827   3.365   0.972  0.4508  0.0995 -0.2658
 4742TIP3    H114232   5.863   3.398   1.055  1.4953 -0.2882 -0.5572
 4742TIP3    H214233   5.844   3.435   0.909  0.2576  0.1191 -0.2957
 4743TIP3   OH214234   2.471   2.110   2.180 -0.0689  0.3591 -0.3112
 4743TIP3    H114235   2.542   2.145   2.233  0.4388  0.2399 -0.8982
 4743TIP3    H214236   2.396   2.107   2.239 -0.1317  2.3982 -0.2191
 4744TIP3   OH214237   1.254   0.086   5.125 -0.5080  0.2918  0.4855
 4744TIP3    H114238   1.209   0.006   5.097 -0.6930  1.4432 -3.0660
 4744TIP3    H214239   1.347   0.067   5.113 -0.1736 -0.7302  3.8910
 4745TIP3   OH214240   3.187   0.717   4.971 -0.1902  0.4852  0.5622
 4745TIP3    H114241   3.195   0.681   4.883 -0.1271  0.3576  0.6195
 4745TIP3    H214242   3.159   0.643   5.025  0.6753  0.3358  0.8173
 4746TIP3   OH214243   2.190   3.270   1.802 -0.3271  0.0998  0.1230
 4746TIP3    H114244   2.152   3.227   1.725 -0.5813 -1.1961  0.9374
 4746TIP3    H214245   2.115   3.311   1.845 -0.0284  1.7385 -0.8547
 4747TIP3   OH214246   6.073   4.135   5.018 -0.1318  0.5247  0.6764
 4747TIP3    H114247   6.027   4.157   5.099 -1.4994 -1.2886  0.4447
 4747TIP3    H214248   6.055   4.209   4.959 -3.0694 -0.2418  0.4957
 4748TIP3   OH214249   5.423   1.411   0.411  0.0132 -0.1596  0.1125
 4748TIP3    H114250   5.352   1.365   0.367 -0.4882 -0.6223  1.3478
 4748TIP3    H214251   5.393   1.502   0.416 -1.0793 -0.5468  1.6451
 4749TIP3   OH214252   3.369   2.468   3.957 -0.1818  0.8873  0.9981
 4749TIP3    H114253   3.381   2.535   3.889 -0.3060  0.1072  0.1921
 4749TIP3    H214254   3.440   2.405   3.941 -0.7231  0.2520  1.0477
 4750TIP3   OH214255   3.442   3.712   0.035  0.4737 -0.1360  0.4394
 4750TIP3    H114256   3.348   3.731   0.046  0.3887 -0.3987  0.1794
 4750TIP3    H214257   3.461   3.737  -0.055  0.9337  1.0413  0.8481
 4751TIP3   OH214258   0.928   1.307   4.450  0.3785 -0.3700 -0.3266
 4751TIP3    H114259   0.996   1.331   4.514  1.1049 -1.2658 -0.7451
 4751TIP3    H214260   0.960   1.343   4.367  0.1099 -0.3829 -0.4350
 4752TIP3   OH214261   5.813   1.380   3.618  0.0420 -0.4144 -0.3166
 4752TIP3    H114262   5.761   1.411   3.692 -1.1572 -1.7780 -0.5587
 4752TIP3    H214263   5.752   1.330   3.564  1.3501 -1.1333 -1.1905
 4753TIP3   OH214264   1.866   5.409   3.019 -0.2012  0.2566  0.4463
 4753TIP3    H114265   1.828   5.322   3.028  1.0891 -0.1810  2.1930
 4753TIP3    H214266   1.814   5.464   3.077 -0.0928  0.3043  0.4996
 4754TIP3   OH214267   5.521   3.680   3.106 -1.1022 -0.2081  0.4894
 4754TIP3    H114268   5.600   3.685   3.159 -0.2860  1.7467 -0.7971
 4754TIP3    H214269   5.457   3.733   3.154 -1.4771 -1.2774  1.2125
 4755TIP3   OH214270   0.122   0.814   1.218  0.1810 -0.2488  0.4786
 4755TIP3    H114271   0.148   0.818   1.310 -0.1997 -0.5622  0.6018
 4755TIP3    H214272   0.196   0.772   1.174 -0.1044 -1.1342  0.8254
 4756TIP3   OH214273   4.460   0.079   3.567  0.4131 -0.0549  0.0852
 4756TIP3    H114274   4.485   0.002   3.516 -1.0811  0.2125 -1.1347
 4756TIP3    H214275   4.442   0.146   3.501 -0.9837  0.4917  0.9859
 4757TIP3   OH214276   4.152   3.753   1.067 -0.3462  0.3440 -0.1629
 4757TIP3    H114277   4.135   3.740   1.160  0.8395 -0.8732 -0.0968
 4757TIP3    H214278   4.247   3.762   1.061 -0.4521  0.9284 -1.2101
 4758TIP3   OH214279   2.821   1.164   2.391 -0.9958 -0.4134 -0.2218
 4758TIP3    H114280   2.869   1.247   2.381 -0.1620 -0.7054  1.0475
 4758TIP3    H214281   2.736   1.190   2.425 -2.5348  0.2690 -4.0906
 4759TIP3   OH214282   4.068   4.568   2.795 -0.3217  0.2815 -0.4412
 4759TIP3    H114283   3.975   4.589   2.790 -0.5115 -0.1566  0.9331
 4759TIP3    H214284   4.088   4.527   2.711 -1.6910 -0.8822 -0.2345
 4760TIP3   OH214285   4.303   5.766   0.709  0.2093 -0.1223  0.2059
 4760TIP3    H114286   4.330   5.687   0.755 -0.5100  0.2408  1.2975
 4760TIP3    H214287   4.282   5.828   0.778  1.6285  1.3570 -0.6193
 4761TIP3   OH214288   5.669   1.321   2.974 -0.6009 -0.0781 -0.2700
 4761TIP3    H114289   5.666   1.280   2.887 -0.2705 -1.5210  0.3718
 4761TIP3    H214290   5.578   1.332   2.999 -0.7012  0.5565 -0.8826
 4762TIP3   OH214291   5.990   1.577   2.034  0.4976  0.1825 -0.3088
 4762TIP3    H114292   5.979   1.641   2.105  2.1806 -0.3613  0.4987
 4762TIP3    H214293   6.061   1.613   1.980  0.8366 -0.5439 -0.3617
 4763TIP3   OH214294   2.713   1.702   4.059 -0.4354  0.1008 -0.4991
 4763TIP3    H114295   2.687   1.612   4.038  2.0239 -0.4206 -1.5976
 4763TIP3    H214296   2.808   1.700   4.061 -0.1630  3.1581 -3.0108
 4764TIP3   OH214297   1.695   2.437   1.406 -0.5285 -0.5322  0.2944
 4764TIP3    H114298   1.729   2.399   1.325  0.2253 -0.8423  0.7440
 4764TIP3    H214299   1.601   2.421   1.403 -0.2492 -2.3610  0.4149
 4765TIP3   OH214300   1.388   2.046   0.074 -0.3163 -0.4154 -0.4323
 4765TIP3    H114301   1.443   2.015   0.146 -1.5861 -0.0141  0.7456
 4765TIP3    H214302   1.416   2.137   0.060 -1.2534  0.0907  0.7892
 4766TIP3   OH214303   4.489   3.478   0.480 -0.2580 -0.0225 -0.2051
 4766TIP3    H114304   4.579   3.497   0.509 -0.2169 -0.5881  0.0530
 4766TIP3    H214305   4.438   3.551   0.515  0.0511  0.1416 -0.0824
 4767TIP3   OH214306   1.117   3.988   4.766 -0.6584 -0.1071 -0.2907
 4767TIP3    H114307   1.164   4.016   4.844  0.2500 -0.4559 -0.7086
 4767TIP3    H214308   1.051   4.057   4.752 -0.5248  0.1918  0.5084
 4768TIP3   OH214309   0.476   3.533   5.050  0.1957  0.1178 -0.3700
 4768TIP3    H114310   0.504   3.574   4.968 -0.0957  0.1203 -0.4700
 4768TIP3    H214311   0.523   3.581   5.118  0.1750  0.3415 -0.5116
 4769TIP3   OH214312   2.552   3.572   4.089  0.4720  0.4174  0.4448
 4769TIP3    H114313   2.617   3.540   4.151  1.6052  1.3338 -0.2093
 4769TIP3    H214314   2.599   3.639   4.039 -0.5745  0.1048 -1.0051
 4770TIP3   OH214315   1.328   5.090   3.419 -0.3355  0.0832  0.3500
 4770TIP3    H114316   1.282   5.094   3.335  1.3593  1.7720 -0.5656
 4770TIP3    H214317   1.411   5.047   3.400  0.0289  0.3959  1.1666
 4771TIP3   OH214318   6.190   0.567   4.737 -0.3884  0.2715 -0.1012
 4771TIP3    H114319   6.163   0.550   4.647  1.1089  2.0010 -0.9405
 4771TIP3    H214320   6.155   0.654   4.756 -0.6176 -0.0431  0.9732
 4772TIP3   OH214321   5.496   4.022   0.291  0.1067  0.2292 -0.7668
 4772TIP3    H114322   5.590   4.026   0.307  0.0319  2.5750 -0.6117
 4772TIP3    H214323   5.467   4.113   0.296 -2.2014 -0.4572 -0.6915
 4773TIP3   OH214324   3.253   3.013   0.608 -0.3884 -0.0837  0.2273
 4773TIP3    H114325   3.187   2.955   0.570  0.9698 -1.2262 -0.4997
 4773TIP3    H214326   3.221   3.101   0.591 -1.2722 -0.6086 -0.9412
 4774TIP3   OH214327   1.174   2.275   2.809 -0.0888  0.3753  0.3479
 4774TIP3    H114328   1.193   2.355   2.859 -3.3648  0.7916  1.1544
 4774TIP3    H214329   1.181   2.302   2.717 -0.7948  1.5199  0.6098
 4775TIP3   OH214330   2.358   1.597   1.556 -0.3179  0.8078  0.3076
 4775TIP3    H114331   2.268   1.615   1.530 -1.5967  1.2176  4.2670
 4775TIP3    H214332   2.352   1.520   1.612  1.9387  0.4605  0.1992
 4776TIP3   OH214333   5.761   0.649   0.582 -0.0056 -0.3911 -0.3217
 4776TIP3    H114334   5.829   0.659   0.649  0.2609 -1.2599 -0.4565
 4776TIP3    H214335   5.752   0.555   0.570 -1.2893 -0.2998 -0.2651
 4777TIP3   OH214336   1.546   4.271   4.233 -0.0525 -0.3569  0.5514
 4777TIP3    H114337   1.589   4.239   4.312  0.6784 -0.3114  0.1770
 4777TIP3    H214338   1.609   4.332   4.194  0.2697 -1.5381 -0.8861
 4778TIP3   OH214339   6.104   2.775   3.277 -0.6935  0.0398  0.3146
 4778TIP3    H114340   6.098   2.681   3.292 -1.9059  0.1221  0.4858
 4778TIP3    H214341   6.186   2.801   3.318  0.6767 -1.2407 -1.4530
 4779TIP3   OH214342   1.011   2.605   0.434 -0.1230  0.2897 -0.5566
 4779TIP3    H114343   0.959   2.580   0.511 -0.0078  2.4318  0.3052
 4779TIP3    H214344   1.102   2.595   0.463 -0.0439  2.6236  0.2563
 4780TIP3   OH214345   1.340   2.095   3.473  0.0149  0.0675 -0.0058
 4780TIP3    H114346   1.363   2.177   3.430  2.2552 -1.2071 -1.4588
 4780TIP3    H214347   1.246   2.100   3.487 -0.3976  1.6753 -2.7274
 4781TIP3   OH214348   5.320   1.559   1.958  0.2562  0.2423 -0.3352
 4781TIP3    H114349   5.252   1.610   1.913  0.1547  1.2638  0.9254
 4781TIP3    H214350   5.286   1.469   1.958 -0.8039  0.6274 -0.3058
 4782TIP3   OH214351   3.002   1.892   5.017  0.1682  0.1805 -0.1867
 4782TIP3    H114352   2.954   1.905   4.936 -0.1611  1.4812  0.1875
 4782TIP3    H214353   3.081   1.844   4.991 -0.3299 -0.1345 -1.1354
 4783TIP3   OH214354   6.169   2.035   1.411  0.5670  0.4241  0.1426
 4783TIP3    H114355   6.214   2.113   1.444 -0.5830  1.4229 -0.5575
 4783TIP3    H214356   6.083   2.037   1.453 -1.0692  1.8927 -2.8918
 4784TIP3   OH214357   1.020   2.580   3.161 -0.5030  0.3445  0.1366
 4784TIP3    H114358   1.030   2.516   3.232 -1.6711 -0.0264 -0.0075
 4784TIP3    H214359   1.109   2.609   3.142 -0.0832 -0.2398  1.1236
 4785TIP3   OH214360   2.837   1.187   0.283 -0.8343 -0.3943 -0.0711
 4785TIP3    H114361   2.837   1.092   0.296 -0.1821 -0.6388 -1.6050
 4785TIP3    H214362   2.775   1.202   0.211 -1.7027  0.4676  0.8350
 4786TIP3   OH214363   3.505   5.453   0.708  0.0114 -1.0487 -0.1395
 4786TIP3    H114364   3.410   5.446   0.702  0.1100 -1.6694 -1.2477
 4786TIP3    H214365   3.520   5.534   0.756 -1.0774 -1.3147  0.6982
 4787TIP3   OH214366   2.111   5.842   0.963  0.6994 -0.1146  0.6132
 4787TIP3    H114367   2.167   5.764   0.957  0.7792  0.0339 -1.0589
 4787TIP3    H214368   2.172   5.915   0.965  0.5952 -0.0050 -0.0373
 4788TIP3   OH214369   1.655   5.993   0.050  0.1726 -0.1315 -0.0719
 4788TIP3    H114370   1.749   6.002   0.063  0.0836  0.4940  0.1749
 4788TIP3    H214371   1.639   5.899   0.054  0.7720 -0.2357 -0.0346
 4789TIP3   OH214372   3.918   3.621   1.701 -0.0240 -0.1730 -0.0389
 4789TIP3    H114373   3.973   3.624   1.779  0.0876 -0.8116 -0.0863
 4789TIP3    H214374   3.920   3.529   1.674 -0.9480 -0.1689 -0.1616
 4790TIP3   OH214375   2.988   1.165   0.509  0.1584 -1.0211  0.1563
 4790TIP3    H114376   2.935   1.163   0.430 -1.3081 -0.8711  1.1040
 4790TIP3    H214377   3.044   1.242   0.499 -0.6741 -0.4709 -0.3158
 4791TIP3   OH214378   1.539   3.908   1.776 -0.3848  0.5310  0.1964
 4791TIP3    H114379   1.458   3.954   1.800 -0.4575  0.9531 -0.7959
 4791TIP3    H214380   1.510   3.832   1.726 -0.1930  0.3511  0.3576
 4792TIP3   OH214381   5.663   2.100   2.056 -0.1037 -0.0835  0.1516
 4792TIP3    H114382   5.645   2.175   1.999  0.5684  0.0471  0.1028
 4792TIP3    H214383   5.576   2.064   2.076 -0.3869  0.2097 -0.4922
 4793TIP3   OH214384   0.351   3.767   1.959  0.3713 -0.2583 -0.0525
 4793TIP3    H114385   0.354   3.760   2.055 -0.7894 -0.5469 -0.0169
 4793TIP3    H214386   0.433   3.728   1.929 -0.3504 -2.5296  0.7278
 4794TIP3   OH214387   2.594   1.599   2.117  0.2526  0.1770  0.0820
 4794TIP3    H114388   2.581   1.524   2.059 -0.6262 -0.8303  1.5205
 4794TIP3    H214389   2.546   1.670   2.075  0.1820 -0.3402 -0.7460
 4795TIP3   OH214390   0.181   5.497   1.474 -0.5711 -0.2145  0.4803
 4795TIP3    H114391   0.152   5.433   1.540 -1.7419  0.0208  0.2199
 4795TIP3    H214392   0.266   5.527   1.505 -0.1237 -1.6868  0.7616
 4796TIP3   OH214393   1.742   1.069   2.848 -0.1624 -0.1992 -0.6227
 4796TIP3    H114394   1.723   1.015   2.925 -1.5141 -0.9002 -1.3991
 4796TIP3    H214395   1.837   1.074   2.844 -0.0487  0.5712  1.5673
 4797TIP3   OH214396   2.849   5.545   1.559  0.3687  0.0395  0.3760
 4797TIP3    H114397   2.757   5.554   1.583  1.0908  0.0400  3.6517
 4797TIP3    H214398   2.887   5.630   1.580  0.9677  0.5242 -2.2696
 4798TIP3   OH214399   0.053   5.262   0.230 -0.1684 -0.0841 -0.6476
 4798TIP3    H114400  -0.018   5.204   0.201  0.9717 -0.5756 -2.6352
 4798TIP3    H214401   0.128   5.204   0.242  0.4509  0.7108 -0.6095
 4799TIP3   OH214402   3.774   3.413   3.548  0.3626  0.2346 -0.5930
 4799TIP3    H114403   3.868   3.393   3.546 -0.0467 -1.9356 -1.4899
 4799TIP3    H214404   3.740   3.360   3.620 -0.3264  0.1809 -0.9497
 4800TIP3   OH214405   0.924   4.916   0.464 -0.1800 -0.1548 -0.1982
 4800TIP3    H114406   0.872   4.836   0.469 -1.4548  0.6991  1.1917
 4800TIP3    H214407   0.967   4.922   0.550 -0.0049  0.5848 -0.3268
 4801TIP3   OH214408   2.457   5.799   3.094 -0.5080 -0.1358 -0.4396
 4801TIP3    H114409   2.381   5.742   3.108 -2.2039  1.5970 -2.1402
 4801TIP3    H214410   2.461   5.854   3.172 -0.8350 -0.4165 -0.2233
 4802TIP3   OH214411   2.827   3.721   3.219 -0.2108  0.0040 -0.0141
 4802TIP3    H114412   2.841   3.768   3.301  0.4946  1.5222 -0.9582
 4802TIP3    H214413   2.916   3.704   3.186 -0.4861 -0.1935 -0.6736
 4803TIP3   OH214414   5.221   3.816   3.658  0.0962  0.0868 -0.4293
 4803TIP3    H114415   5.300   3.781   3.699  0.2326  1.2265  0.3237
 4803TIP3    H214416   5.230   3.911   3.664 -1.9610  0.2724  1.0066
 4804TIP3   OH214417   1.787   0.996   3.908  0.8523  0.1454 -0.7111
 4804TIP3    H114418   1.784   1.070   3.848  1.0205  0.2204 -0.6262
 4804TIP3    H214419   1.701   0.994   3.949  1.4679  1.4887  0.7316
 4805TIP3   OH214420   3.659   0.903   3.613  0.4711 -0.7292  0.3959
 4805TIP3    H114421   3.582   0.873   3.566 -0.1984 -0.2819  1.1703
 4805TIP3    H214422   3.692   0.825   3.658 -1.1680 -0.4323  2.2794
 4806TIP3   OH214423   1.244   3.913   1.336 -0.0724 -0.6159 -0.4974
 4806TIP3    H114424   1.234   4.006   1.320  0.9165 -0.6691 -1.5604
 4806TIP3    H214425   1.186   3.894   1.410 -0.2358  0.8441 -0.2351
 4807TIP3   OH214426   1.759   3.698   4.425 -0.0330 -0.3191 -0.2403
 4807TIP3    H114427   1.743   3.789   4.450  0.3500  0.0621 -1.3078
 4807TIP3    H214428   1.809   3.661   4.498  3.0575  1.3996 -1.3255
 4808TIP3   OH214429   4.951   3.250   1.105  0.1975 -0.0935 -0.2322
 4808TIP3    H114430   5.014   3.312   1.071 -0.7641 -0.2296 -2.4274
 4808TIP3    H214431   4.876   3.256   1.045 -0.0822 -3.0527 -0.3310
 4809TIP3   OH214432   4.357   5.762   2.077  0.3392 -0.2420 -0.4985
 4809TIP3    H114433   4.423   5.822   2.111  1.2277  0.3391 -3.0431
 4809TIP3    H214434   4.400   5.676   2.078  0.9353  0.0251 -1.5083
 4810TIP3   OH214435   1.865   3.042   3.509  0.5983  0.4592 -0.1892
 4810TIP3    H114436   1.908   2.961   3.538  0.7594 -0.6417 -3.1250
 4810TIP3    H214437   1.924   3.111   3.538  1.6034 -0.6386  0.4930
 4811TIP3   OH214438   4.342   3.681   4.952  0.0554  0.2485 -0.4713
 4811TIP3    H114439   4.350   3.709   4.861 -0.9135  2.5928  0.1004
 4811TIP3    H214440   4.256   3.711   4.979  0.8374  0.7927  1.5884
 4812TIP3   OH214441   0.237   3.709   1.592  0.1985 -0.3693  0.3465
 4812TIP3    H114442   0.169   3.665   1.542 -2.7871  2.3197  1.6703
 4812TIP3    H214443   0.268   3.642   1.653 -0.1760 -2.0808 -1.2453
 4813TIP3   OH214444   5.337   1.991   2.320 -0.2202 -0.4802 -0.3577
 4813TIP3    H114445   5.267   1.940   2.360  0.3831 -1.3680 -0.4056
 4813TIP3    H214446   5.414   1.935   2.325 -0.0076 -0.4499 -2.3302
 4814TIP3   OH214447   3.275   1.063   2.796 -0.2527 -0.3017 -0.1067
 4814TIP3    H114448   3.205   1.119   2.763  0.7109  1.0764  0.1000
 4814TIP3    H214449   3.352   1.120   2.801  0.4174 -1.2631  1.5216
 4815TIP3   OH214450   0.691   1.432   2.706  0.2079  0.7368  0.0407
 4815TIP3    H114451   0.764   1.460   2.761  0.9630 -0.7358 -0.1671
 4815TIP3    H214452   0.732   1.397   2.627 -0.4500 -2.6305  1.0023
 4816TIP3   OH214453   5.123   3.684   3.058 -0.5060  0.1062 -0.4927
 4816TIP3    H114454   5.206   3.647   3.029 -0.3692  0.0281 -0.0095
 4816TIP3    H214455   5.086   3.618   3.117 -0.5716  0.4496 -0.1456
 4817TIP3   OH214456   5.709   0.406   1.741 -0.0730 -0.1295  0.4747
 4817TIP3    H114457   5.786   0.386   1.688 -0.2158 -2.7153  1.1015
 4817TIP3    H214458   5.635   0.376   1.687 -0.3638 -0.7684  1.2075
 4818TIP3   OH214459   4.154   1.393   0.555 -0.0836 -0.9123 -0.2708
 4818TIP3    H114460   4.126   1.393   0.463  1.3569  2.1586 -0.8499
 4818TIP3    H214461   4.243   1.358   0.553 -0.0194 -0.7638 -0.0820
 4819TIP3   OH214462   0.639   2.295   0.114  0.4006  0.6418 -0.0467
 4819TIP3    H114463   0.689   2.231   0.063 -0.2562 -0.2964  0.4575
 4819TIP3    H214464   0.583   2.242   0.171 -0.7394  1.6664 -0.1781
 4820TIP3   OH214465   2.240   1.180   4.893 -0.1114  0.5441 -0.1430
 4820TIP3    H114466   2.320   1.232   4.881  0.9907 -0.6940  1.4333
 4820TIP3    H214467   2.203   1.211   4.975  0.1861 -0.6491  0.4623
 4821TIP3   OH214468   5.864   0.048   0.263  0.0885 -0.7979  0.1975
 4821TIP3    H114469   5.781   0.082   0.231  0.3544 -0.8403 -0.5431
 4821TIP3    H214470   5.841  -0.032   0.311 -0.3584 -0.4621  0.5516
 4822TIP3   OH214471   0.867   3.396   2.329  0.2603 -0.2200 -0.0317
 4822TIP3    H114472   0.845   3.308   2.359  0.1840 -0.6818 -1.4105
 4822TIP3    H214473   0.789   3.448   2.348  0.1748 -0.5186  0.4641
 4823TIP3   OH214474   0.736   3.385   0.664  0.2484 -0.2816 -0.2887
 4823TIP3    H114475   0.826   3.365   0.638  0.4585 -1.8775  1.5029
 4823TIP3    H214476   0.744   3.452   0.731  0.0959 -0.4334 -0.1178
 4824TIP3   OH214477   5.552   5.152   1.407  0.3384  0.3033 -0.0334
 4824TIP3    H114478   5.482   5.092   1.433 -0.2670  0.9580 -0.1484
 4824TIP3    H214479   5.530   5.178   1.318  1.3915 -0.4452 -0.5322
 4825TIP3   OH214480   2.942   2.299   0.789  0.3239 -0.5810 -0.1393
 4825TIP3    H114481   2.966   2.207   0.774  1.0825 -0.1655 -1.7032
 4825TIP3    H214482   3.019   2.349   0.762 -0.3935  0.5569 -0.1633
 4826TIP3   OH214483   2.613   0.072   3.199 -0.4532 -0.3487 -0.4715
 4826TIP3    H114484   2.650   0.153   3.164 -0.3792  0.4156  1.2490
 4826TIP3    H214485   2.688   0.014   3.209 -0.3186 -0.2020 -0.6317
 4827TIP3   OH214486   3.927   0.289   0.779 -0.2483  0.4535 -0.4233
 4827TIP3    H114487   3.834   0.310   0.780 -0.1641  0.8840  0.8086
 4827TIP3    H214488   3.930   0.194   0.768 -0.8954  0.2784  0.7218
 4828TIP3   OH214489   2.281   0.318   0.920 -0.3060  0.2211 -0.2008
 4828TIP3    H114490   2.268   0.228   0.950 -1.6656  0.2462 -0.6443
 4828TIP3    H214491   2.276   0.312   0.824 -1.3045  0.8796 -0.2024
 4829TIP3   OH214492   0.067   4.709   3.245  0.0389 -0.1761  0.5077
 4829TIP3    H114493   0.131   4.777   3.265  2.3210 -2.6740  2.3607
 4829TIP3    H214494   0.106   4.659   3.174 -1.0141 -0.3839  0.0526
 4830TIP3   OH214495   3.068   5.396   1.546 -0.2044  0.0847  0.3155
 4830TIP3    H114496   2.991   5.452   1.537  0.8426  1.3659 -1.2161
 4830TIP3    H214497   3.102   5.388   1.456  0.3527 -2.0800  0.6468
 4831TIP3   OH214498   2.444   0.847   2.993  0.1239  0.1020 -0.2528
 4831TIP3    H114499   2.447   0.881   3.083  0.0239  0.8517 -0.5272
 4831TIP3    H214500   2.485   0.761   3.000  1.2823  0.6659  0.2977
 4832TIP3   OH214501   4.049   3.863   4.639 -0.3308  0.9249 -0.4611
 4832TIP3    H114502   3.980   3.871   4.572  0.4691  0.2494 -1.3898
 4832TIP3    H214503   4.128   3.892   4.595  0.1545  0.7798  0.3042
 4833TIP3   OH214504   4.612   0.368   4.293 -0.0003  0.4739 -0.0011
 4833TIP3    H114505   4.562   0.426   4.352 -2.2137 -0.4574 -0.8653
 4833TIP3    H214506   4.549   0.302   4.266  0.9509  0.7601 -3.3077
 4834TIP3   OH214507   5.058   2.283   4.838 -0.4816  0.2313  0.2012
 4834TIP3    H114508   5.029   2.367   4.803 -0.4080 -0.0217 -0.4811
 4834TIP3    H214509   5.061   2.225   4.762 -1.4062 -0.6396  0.8067
 4835TIP3   OH214510   3.413   5.462   1.282 -0.4497  0.0427  0.0287
 4835TIP3    H114511   3.367   5.528   1.333 -0.2786 -0.5424  0.9776
 4835TIP3    H214512   3.450   5.509   1.208 -1.3102  0.7864  0.0607
 4836TIP3   OH214513   1.886   4.168   0.324 -0.2305  0.1482  0.2363
 4836TIP3    H114514   1.906   4.128   0.239  0.4201 -0.0006  0.4566
 4836TIP3    H214515   1.791   4.166   0.330 -0.3532  1.0928 -0.9491
 4837TIP3   OH214516   1.313   5.508   1.771 -0.1057 -0.2415  0.0163
 4837TIP3    H114517   1.356   5.593   1.771  1.1867 -0.8712  0.3640
 4837TIP3    H214518   1.291   5.491   1.680  1.7454 -0.5473 -0.4101
 4838TIP3   OH214519   0.012   5.775   4.165  0.2617 -0.3559 -0.4104
 4838TIP3    H114520   0.041   5.719   4.237 -0.1256 -0.6477 -0.4794
 4838TIP3    H214521  -0.024   5.853   4.209  1.1568  0.0248 -0.3255
 4839TIP3   OH214522   4.540   5.690   5.118 -0.1573  0.2383  0.6435
 4839TIP3    H114523   4.584   5.681   5.034  0.9911  3.1806  0.8323
 4839TIP3    H214524   4.597   5.643   5.179  1.0934  1.3394  0.3646
 4840TIP3   OH214525   3.161   2.014   4.763 -0.2662  0.0876  0.1500
 4840TIP3    H114526   3.075   1.998   4.724  0.3372 -1.2624 -0.7098
 4840TIP3    H214527   3.161   2.108   4.782 -1.0810  0.5848 -1.9801
 4841TIP3   OH214528   3.572   4.848   2.669 -0.2752 -0.0926  0.2235
 4841TIP3    H114529   3.629   4.922   2.689 -0.3876  0.6372 -1.9158
 4841TIP3    H214530   3.502   4.853   2.734  0.2051  1.1441  0.6610
 4842TIP3   OH214531   1.139   4.151   0.575 -0.7541 -0.1667 -0.0021
 4842TIP3    H114532   1.130   4.078   0.637  0.3500  0.9154  1.5281
 4842TIP3    H214533   1.064   4.143   0.517 -0.1696 -3.0556 -0.4961
 4843TIP3   OH214534   5.527   4.490   4.403  0.2890 -0.0490  0.3498
 4843TIP3    H114535   5.543   4.461   4.493  0.0813  2.7456  1.3986
 4843TIP3    H214536   5.433   4.507   4.399  0.5996  1.9077  0.3613
 4844TIP3   OH214537   2.984   4.092   2.673 -0.0075  0.6455 -0.2093
 4844TIP3    H114538   2.889   4.102   2.662 -0.3440  0.1995  1.8180
 4844TIP3    H214539   3.020   4.178   2.652 -0.8414  0.8096 -1.0382
 4845TIP3   OH214540   2.019   2.207   1.741  0.3632 -0.1191  0.4125
 4845TIP3    H114541   1.952   2.182   1.806 -1.0337 -0.5373 -1.1088
 4845TIP3    H214542   1.972   2.205   1.657  0.7076  5.2132 -0.2553
 4846TIP3   OH214543   3.934   2.239   3.620 -0.4602 -0.4673 -0.4553
 4846TIP3    H114544   3.894   2.170   3.673 -0.6145  1.4379  2.1077
 4846TIP3    H214545   3.939   2.315   3.679  2.2126  0.9149 -2.2455
 4847TIP3   OH214546   1.478   3.227   0.492 -0.4620  0.2520  0.3477
 4847TIP3    H114547   1.508   3.313   0.461 -0.7996  0.6623  1.1235
 4847TIP3    H214548   1.462   3.177   0.412  1.2536  0.3618 -0.1005
 4848TIP3   OH214549   4.050   4.013   1.409 -0.0328 -0.2732  0.4447
 4848TIP3    H114550   3.969   3.979   1.372  0.8027  0.3870 -2.2228
 4848TIP3    H214551   4.029   4.034   1.500 -2.9139  0.0865 -0.2249
 4849TIP3   OH214552   5.196   2.592   3.157  0.3921 -0.6069  0.9550
 4849TIP3    H114553   5.169   2.549   3.075  1.9363 -0.2232  0.2121
 4849TIP3    H214554   5.114   2.605   3.205 -0.4159 -1.8812 -0.0168
 4850TIP3   OH214555   5.228   0.761   3.899 -0.1502  0.3938 -0.2892
 4850TIP3    H114556   5.216   0.806   3.815 -1.7153 -1.9486 -1.4529
 4850TIP3    H214557   5.140   0.757   3.936  0.2894  0.0967  0.7464
 4851TIP3   OH214558   0.782   4.683   0.453 -0.1245  0.6109  0.6560
 4851TIP3    H114559   0.723   4.690   0.378  1.3119 -0.0726 -0.6074
 4851TIP3    H214560   0.727   4.651   0.525 -0.8223 -3.0592 -1.2468
 4852TIP3   OH214561   5.936   5.180   0.150 -0.0311  0.5574 -0.1548
 4852TIP3    H114562   5.907   5.271   0.142 -1.2796  0.4558  2.2876
 4852TIP3    H214563   5.860   5.128   0.126  0.9745  0.0322 -2.5701
 4853TIP3   OH214564   5.476   4.047   0.642  0.5626 -0.2445  0.3454
 4853TIP3    H114565   5.416   3.987   0.687  0.8950 -1.4241 -0.6960
 4853TIP3    H214566   5.546   3.990   0.610  0.7070  0.6560 -1.0010
 4854TIP3   OH214567   3.276   2.368   1.628  0.2336  0.5528 -0.1385
 4854TIP3    H114568   3.318   2.450   1.600  0.0630  0.9111  0.6243
 4854TIP3    H214569   3.211   2.396   1.692  0.5794 -0.2491  0.5647
 4855TIP3   OH214570   4.900   3.874   4.609 -0.5941 -0.2691  0.0228
 4855TIP3    H114571   4.931   3.887   4.519 -1.0789  0.5619 -0.0358
 4855TIP3    H214572   4.977   3.892   4.663 -1.2373  3.4247 -0.0348
 4856TIP3   OH214573   5.027   2.233   2.531 -0.3896 -0.2931 -0.0664
 4856TIP3    H114574   5.105   2.284   2.511 -1.4985  1.5455 -0.0352
 4856TIP3    H214575   5.047   2.144   2.504  0.8055  0.6254 -2.4183
 4857TIP3   OH214576   1.116   1.715   0.599 -0.2392  0.4478  0.0792
 4857TIP3    H114577   1.065   1.636   0.578 -0.2286  0.3448  0.4465
 4857TIP3    H214578   1.161   1.736   0.517 -1.0005  0.6362 -0.3007
 4858TIP3   OH214579   1.193   2.526   1.346  0.3140 -0.2137 -0.1919
 4858TIP3    H114580   1.273   2.474   1.347  0.8031  0.4450 -1.5612
 4858TIP3    H214581   1.127   2.471   1.388  0.8793 -1.8528 -1.3482
 4859TIP3   OH214582   4.644   5.469   3.709 -0.0042 -0.4818 -0.0258
 4859TIP3    H114583   4.698   5.480   3.631  0.4658 -1.0750  0.2092
 4859TIP3    H214584   4.694   5.512   3.779 -0.1295 -0.4934  0.0722
 4860TIP3   OH214585   0.544   1.594   3.978 -0.4718 -0.4384  0.0990
 4860TIP3    H114586   0.639   1.584   3.980 -0.5488 -1.4089 -0.5134
 4860TIP3    H214587   0.513   1.521   3.925 -1.7097 -1.1838  1.7346
 4861TIP3   OH214588   2.038   3.735   2.727 -0.0696 -0.4667 -0.7045
 4861TIP3    H114589   2.031   3.828   2.750  1.2859 -0.0486 -1.7991
 4861TIP3    H214590   1.949   3.709   2.703 -0.4486  0.5708 -0.4693
 4862TIP3   OH214591   1.675   0.881   1.045  0.0400  0.3339 -0.0012
 4862TIP3    H114592   1.641   0.968   1.027 -0.4357  0.0879 -0.3093
 4862TIP3    H214593   1.634   0.856   1.128 -1.9078 -0.6330 -1.1655
 4863TIP3   OH214594   2.393   3.858   3.024  0.4362  0.1370 -1.0277
 4863TIP3    H114595   2.477   3.818   3.004  0.4427 -0.5272  0.1938
 4863TIP3    H214596   2.334   3.825   2.956  0.8040 -0.7105 -0.9543
 4864TIP3   OH214597   2.983   5.452   3.283 -0.0694 -0.6653  0.1041
 4864TIP3    H114598   3.065   5.420   3.320  0.9420 -0.9829 -2.2308
 4864TIP3    H214599   3.008   5.525   3.226 -1.3197 -1.0413 -0.9978
 4865TIP3   OH214600   3.955   0.787   1.979  0.2451 -0.5185 -0.0049
 4865TIP3    H114601   4.002   0.744   1.907 -1.6837 -0.3578 -1.4356
 4865TIP3    H214602   3.994   0.875   1.982  0.9072 -0.7912 -0.2952
 4866TIP3   OH214603   0.222   2.089   0.979 -0.3475  0.7460 -0.3622
 4866TIP3    H114604   0.183   2.063   0.895  0.9221 -0.5434 -0.5946
 4866TIP3    H214605   0.315   2.072   0.968 -0.0268  1.5306  0.9780
 4867TIP3   OH214606   0.145   2.729   4.794  0.6172 -0.1817 -0.5125
 4867TIP3    H114607   0.150   2.637   4.819  0.2283  0.0889  0.6291
 4867TIP3    H214608   0.235   2.753   4.771  0.7355 -0.8196 -0.7189
 4868TIP3   OH214609   0.706   1.043   2.773 -0.6835 -0.2475 -0.4124
 4868TIP3    H114610   0.748   1.016   2.855  0.7466 -0.1849 -1.0929
 4868TIP3    H214611   0.639   0.977   2.757 -1.2828 -0.0119  1.0279
 4869TIP3   OH214612   1.308   1.720   2.605  0.0012 -0.1410  0.2877
 4869TIP3    H114613   1.339   1.640   2.563  0.2245 -0.2093  0.5818
 4869TIP3    H214614   1.213   1.713   2.604 -0.1389  0.9695 -2.4248
 4870TIP3   OH214615   4.641   0.310   1.227  0.3513  0.1316  0.1983
 4870TIP3    H114616   4.598   0.369   1.164  1.0599  2.0613  1.4157
 4870TIP3    H214617   4.570   0.256   1.261 -0.2928  0.0939 -1.1390
 4871TIP3   OH214618   1.476   0.591   2.377 -0.0843 -0.0584  0.0971
 4871TIP3    H114619   1.493   0.683   2.396 -0.1514 -0.4775  2.5037
 4871TIP3    H214620   1.381   0.587   2.361 -0.2459  0.1522  0.9749
 4872TIP3   OH214621   5.171   2.600   0.085 -0.5811  1.0633  0.6488
 4872TIP3    H114622   5.114   2.562   0.017  1.4796 -1.0565  0.0006
 4872TIP3    H214623   5.158   2.544   0.161  2.6393 -1.4089 -0.3807
 4873TIP3   OH214624   3.941   1.492   4.089 -0.1153  0.1561  0.2654
 4873TIP3    H114625   3.978   1.577   4.067 -1.1677  0.8046  0.9182
 4873TIP3    H214626   3.870   1.479   4.027  0.2824 -0.4358 -0.0783
 4874TIP3   OH214627   1.144   4.123   1.103  0.6343  0.2069  0.3091
 4874TIP3    H114628   1.138   4.158   1.192  0.5833  0.2127  0.3035
 4874TIP3    H214629   1.073   4.059   1.098 -0.6299  1.5738 -0.3423
 4875TIP3   OH214630   3.362   1.991   3.001  0.4133  0.1406 -0.2036
 4875TIP3    H114631   3.320   2.026   3.080  1.6877 -0.0624  0.6065
 4875TIP3    H214632   3.361   2.063   2.939  0.7146  0.8100  0.5439
 4876TIP3   OH214633   0.345   1.386   4.272  0.9183  0.1640 -0.3911
 4876TIP3    H114634   0.421   1.356   4.322  0.4044 -0.0861  0.2480
 4876TIP3    H214635   0.273   1.329   4.300  0.7113 -0.2869 -1.7503
 4877TIP3   OH214636   0.113   3.920   4.212  0.2149  0.2105 -0.9665
 4877TIP3    H114637   0.188   3.953   4.163  0.9795 -1.8413 -1.2583
 4877TIP3    H214638   0.148   3.903   4.300 -0.0263 -0.2443 -0.9558
 4878TIP3   OH214639   2.657   2.101   3.957 -0.5622 -0.2539 -0.0714
 4878TIP3    H114640   2.604   2.180   3.969 -0.7744 -0.5512  1.1223
 4878TIP3    H214641   2.746   2.129   3.979 -0.4750 -0.1230 -0.5816
 4879TIP3   OH214642   0.409   4.695   1.093  0.1757  0.1591  0.2851
 4879TIP3    H114643   0.450   4.745   1.022  1.6388 -0.9054  0.3287
 4879TIP3    H214644   0.417   4.752   1.170  0.9661  0.2705  0.1324
 4880TIP3   OH214645   4.236   2.771   3.681 -0.6194 -0.5401 -0.2672
 4880TIP3    H114646   4.166   2.719   3.641 -0.7564 -1.4594  1.0746
 4880TIP3    H214647   4.194   2.815   3.755  0.0006 -0.3235 -0.0336
 4881TIP3   OH214648   0.505   2.420   0.544  0.3455 -0.0458 -0.0492
 4881TIP3    H114649   0.518   2.483   0.615 -0.6755  0.1165  0.0038
 4881TIP3    H214650   0.554   2.456   0.471 -1.5898  1.7631 -0.5683
 4882TIP3   OH214651   0.368   0.582   1.558 -0.4039  0.2912 -0.6536
 4882TIP3    H114652   0.431   0.510   1.563  0.7522  1.3586  1.5033
 4882TIP3    H214653   0.304   0.563   1.628  0.7929  2.0557  1.0244
 4883TIP3   OH214654   0.940   0.653   1.180 -0.6000  0.2684  0.0457
 4883TIP3    H114655   1.008   0.595   1.213 -0.2471  0.3611 -0.5014
 4883TIP3    H214656   0.984   0.738   1.169 -0.6945  0.2310 -0.6797
 4884TIP3   OH214657   5.090   1.648   2.480 -0.1240  0.3192 -0.0543
 4884TIP3    H114658   5.012   1.618   2.527 -0.0536 -1.8824 -1.1768
 4884TIP3    H214659   5.162   1.598   2.519  0.0491 -0.9428 -1.8758
 4885TIP3   OH214660   5.688   4.001   1.555 -0.3259 -0.1528 -0.1006
 4885TIP3    H114661   5.757   4.066   1.563 -1.5640  1.6306 -2.4130
 4885TIP3    H214662   5.717   3.943   1.484 -1.2097  0.7181 -1.2120
 4886TIP3   OH214663   3.861   5.859   3.589  0.0895 -0.6738 -0.3634
 4886TIP3    H114664   3.831   5.900   3.508 -0.9937 -0.8263 -0.0499
 4886TIP3    H214665   3.926   5.795   3.560  0.1891 -0.2807 -1.0502
 4887TIP3   OH214666   2.057   3.724   4.328  0.3709 -0.2986  0.1572
 4887TIP3    H114667   1.970   3.685   4.337  0.4454 -0.2332  1.2789
 4887TIP3    H214668   2.058   3.760   4.239 -0.3447 -1.2643 -0.2641
 4888TIP3   OH214669   2.437   5.338   0.534  0.1873  0.0454 -0.1146
 4888TIP3    H114670   2.518   5.377   0.565  0.7502 -0.6413 -0.6779
 4888TIP3    H214671   2.387   5.319   0.613  0.0725  1.4937  0.1917
 4889TIP3   OH214672   2.992   1.017   5.088  0.4847 -0.1826 -0.4961
 4889TIP3    H114673   3.060   1.013   5.155  1.0466 -0.6379 -1.0839
 4889TIP3    H214674   2.911   0.995   5.134  0.8404 -0.3523  0.0558
 4890TIP3   OH214675   0.761   1.119   2.482  0.2672  0.2684  0.4851
 4890TIP3    H114676   0.687   1.100   2.424  0.1209  1.0422  0.4148
 4890TIP3    H214677   0.732   1.091   2.569  0.0773  0.1129  0.3722
 4891TIP3   OH214678   2.039   2.169   3.042  0.3610 -0.4897 -0.0433
 4891TIP3    H114679   1.964   2.115   3.017 -0.6099  0.3108  1.0759
 4891TIP3    H214680   2.037   2.242   2.979 -0.9656  0.5292  1.1087
 4892TIP3   OH214681   0.902   3.244   4.725  0.1805 -0.1653  0.5071
 4892TIP3    H114682   0.993   3.217   4.730  0.6241  1.4376  3.2183
 4892TIP3    H214683   0.905   3.337   4.701 -0.8353 -0.3906 -0.6095
 4893TIP3   OH214684   4.523   2.450   3.865 -0.8634  0.2343  0.1922
 4893TIP3    H114685   4.504   2.527   3.812 -2.8630 -0.4238 -0.1374
 4893TIP3    H214686   4.571   2.391   3.806 -1.7441  0.1283 -0.4327
 4894TIP3   OH214687   3.429   4.269   3.864 -0.4346  0.1319 -0.7706
 4894TIP3    H114688   3.418   4.301   3.775  0.9159  0.5746 -0.7926
 4894TIP3    H214689   3.458   4.178   3.854 -2.3936 -0.5485 -0.7268
 4895TIP3   OH214690   4.305   4.360   3.037 -0.1496  0.2647 -0.4621
 4895TIP3    H114691   4.396   4.337   3.020 -0.3067  0.2801 -1.4049
 4895TIP3    H214692   4.301   4.377   3.131  0.4503 -1.3583 -0.1221
 4896TIP3   OH214693   2.316   0.102   2.780  0.1945 -0.0930  0.2733
 4896TIP3    H114694   2.279   0.157   2.712  0.3240 -0.1758  0.1363
 4896TIP3    H214695   2.390   0.152   2.815  0.4752 -0.2918 -0.0310
 4897TIP3   OH214696   5.370   0.044   3.649  0.1801 -0.1929 -0.3406
 4897TIP3    H114697   5.453   0.038   3.697  0.5431  0.1423 -0.9051
 4897TIP3    H214698   5.305   0.068   3.715  0.7667  0.7619 -0.0824
 4898TIP3   OH214699   4.399   2.182   4.290 -0.2708  0.2774 -0.1551
 4898TIP3    H114700   4.400   2.277   4.276 -1.4400  0.1497 -1.3378
 4898TIP3    H214701   4.492   2.157   4.292  0.0420  1.3566 -0.5212
 4899TIP3   OH214702   3.538   5.750   3.067  1.2038  0.3832 -0.1255
 4899TIP3    H114703   3.510   5.839   3.092  1.2362 -0.2158  2.2566
 4899TIP3    H214704   3.461   5.696   3.082  1.8314 -0.3245  0.6992
 4900TIP3   OH214705   6.189   3.536   4.211 -0.1119  0.6063  0.2341
 4900TIP3    H114706   6.205   3.609   4.151 -0.4982  0.1484 -0.4429
 4900TIP3    H214707   6.250   3.468   4.182  0.3734  0.7232  0.9739
 4901TIP3   OH214708   1.016   2.431   0.204 -0.0087  0.2695 -0.0223
 4901TIP3    H114709   1.016   2.479   0.287  0.6218  0.7477 -0.2863
 4901TIP3    H214710   0.940   2.374   0.209 -0.5923  1.0608  0.4465
 4902TIP3   OH214711   6.192   1.253   2.091  0.3747 -0.2457 -0.4448
 4902TIP3    H114712   6.109   1.301   2.092  0.0473 -0.7124 -2.1492
 4902TIP3    H214713   6.205   1.230   1.999  2.3703 -0.2433 -0.2046
 4903TIP3   OH214714   1.778   5.448   3.858 -0.1094 -0.3748  0.0446
 4903TIP3    H114715   1.764   5.505   3.782 -1.1953  0.5328  0.8845
 4903TIP3    H214716   1.723   5.371   3.841 -1.1859  0.2971  0.3629
 4904TIP3   OH214717   1.975   5.634   2.902 -0.4403  0.1533  0.0719
 4904TIP3    H114718   2.027   5.628   2.822 -0.8204  0.2878 -0.1893
 4904TIP3    H214719   1.989   5.550   2.946 -1.3316 -0.5019 -0.8309
 4905TIP3   OH214720   1.467   4.796   3.149  0.4648 -0.0561  0.4202
 4905TIP3    H114721   1.411   4.812   3.073 -0.0197 -0.5347  0.6730
 4905TIP3    H214722   1.479   4.882   3.189 -0.0848  0.0485  0.3629
 4906TIP3   OH214723   2.161   4.897   5.173 -0.4315  0.4543  0.4077
 4906TIP3    H114724   2.233   4.900   5.235  0.3289  3.8059 -0.4047
 4906TIP3    H214725   2.202   4.888   5.087 -0.8324  2.7774 -0.0998
 4907TIP3   OH214726   4.059   5.672   3.782  0.0253  0.2216 -0.0257
 4907TIP3    H114727   4.069   5.577   3.781  0.8087  0.2632  1.2955
 4907TIP3    H214728   4.050   5.696   3.690 -2.4909 -1.3300 -0.2659
 4908TIP3   OH214729   4.454   2.953   4.237 -0.4884  0.0563  0.3429
 4908TIP3    H114730   4.486   3.005   4.164  2.0336 -0.1227  1.2058
 4908TIP3    H214731   4.516   2.970   4.308 -1.7755 -1.1899  1.8651
 4909TIP3   OH214732   4.178   1.941   4.860  0.2054  0.0350 -0.5855
 4909TIP3    H114733   4.247   1.876   4.853 -1.0580 -1.6284  1.1173
 4909TIP3    H214734   4.205   1.998   4.932 -0.4855 -1.0754  0.5886
 4910TIP3   OH214735   0.266   2.794   0.938 -0.5552  0.7847 -0.9287
 4910TIP3    H114736   0.354   2.756   0.938 -0.4272  1.0752 -0.4321
 4910TIP3    H214737   0.207   2.718   0.932 -0.3049  0.4942  0.2297
 4911TIP3   OH214738   4.969   1.576   1.005  0.3397  0.1583 -0.2443
 4911TIP3    H114739   4.908   1.544   1.072  0.1565  0.1106 -0.4320
 4911TIP3    H214740   4.966   1.509   0.937 -1.7242  1.5891 -1.6629
 4912TIP3   OH214741   3.448   1.468   4.002 -0.3612  0.2099 -0.2293
 4912TIP3    H114742   3.429   1.490   4.093 -0.8264 -0.4386 -0.1693
 4912TIP3    H214743   3.427   1.548   3.953  1.6819  1.2302  0.4239
 4913TIP3   OH214744   1.290   5.069   1.956 -0.1758 -0.3364  0.2737
 4913TIP3    H114745   1.233   5.144   1.943  0.6727  0.7096  2.1551
 4913TIP3    H214746   1.231   4.996   1.974 -0.9778  0.0884 -0.5469
 4914TIP3   OH214747   3.536   2.243   4.695  0.7478  0.9517 -0.1488
 4914TIP3    H114748   3.513   2.150   4.691 -1.1314  1.4020 -1.2895
 4914TIP3    H214749   3.627   2.247   4.666  0.7956 -0.5121 -0.2620
 4915TIP3   OH214750   5.736   2.615   1.209 -0.3739 -0.0911 -0.3153
 4915TIP3    H114751   5.782   2.539   1.173 -0.0740  0.3328 -0.8445
 4915TIP3    H214752   5.672   2.638   1.141 -0.8707 -0.2285  0.0994
 4916TIP3   OH214753   5.900   4.667   0.034  0.1228 -0.0761 -0.1182
 4916TIP3    H114754   5.841   4.679   0.109 -0.4611 -0.6039 -0.4779
 4916TIP3    H214755   5.843   4.632  -0.035  0.4546  1.2758 -1.1042
 4917TIP3   OH214756   5.600   0.158   0.680  0.0983  0.2706 -0.1824
 4917TIP3    H114757   5.573   0.122   0.596  0.8956  0.4519 -0.5184
 4917TIP3    H214758   5.573   0.250   0.677  0.8897  0.4904 -0.5789
 4918TIP3   OH214759   3.495   0.758   2.775 -0.1724  0.0507 -0.3509
 4918TIP3    H114760   3.532   0.821   2.713 -0.5395  0.0270 -0.5970
 4918TIP3    H214761   3.552   0.764   2.852  0.6174 -0.3309 -0.8970
 4919TIP3   OH214762   6.240   3.900   4.996  0.7146 -0.0794  0.0017
 4919TIP3    H114763   6.174   3.968   5.007 -0.0023 -0.7667  0.0645
 4919TIP3    H214764   6.228   3.870   4.905 -0.6600 -1.7934  0.6878
 4920TIP3   OH214765   3.431   2.253   2.830  0.3350 -0.5653  0.2518
 4920TIP3    H114766   3.479   2.332   2.857 -0.1989 -0.4128  0.7483
 4920TIP3    H214767   3.461   2.237   2.740 -1.4639  1.7151 -0.8442
 4921TIP3   OH214768   5.792   4.274   1.641 -0.1100 -0.4811 -0.3772
 4921TIP3    H114769   5.798   4.369   1.655 -0.9262 -0.5681  0.7163
 4921TIP3    H214770   5.849   4.236   1.708 -0.6981 -0.7926 -0.0470
 4922TIP3   OH214771   0.496   3.583   2.772 -0.7834  0.5192 -0.1605
 4922TIP3    H114772   0.501   3.672   2.737 -0.3220  0.2876 -0.6926
 4922TIP3    H214773   0.418   3.584   2.829 -0.3140  1.4827  0.5000
 4923TIP3   OH214774   0.262   2.380   0.408  0.5358 -0.4482  0.0923
 4923TIP3    H114775   0.243   2.471   0.428 -0.6205 -0.8070  0.7311
 4923TIP3    H214776   0.350   2.365   0.443  0.6680  0.3700  0.1190
 4924TIP3   OH214777   1.725   2.918   4.736  0.2306 -0.0731 -0.2771
 4924TIP3    H114778   1.797   2.873   4.691  0.6637  0.1411  0.1908
 4924TIP3    H214779   1.667   2.847   4.764  0.2357 -0.2442 -0.6967
 4925TIP3   OH214780   1.411   3.559   0.306 -0.1945 -0.5500 -0.2650
 4925TIP3    H114781   1.465   3.547   0.384 -0.5311 -0.4261 -0.0107
 4925TIP3    H214782   1.472   3.587   0.238  0.3819 -2.1959 -0.4776
 4926TIP3   OH214783   1.288   0.269   2.236  0.0812  0.1585 -0.0618
 4926TIP3    H114784   1.245   0.322   2.169  0.6331  0.2341 -0.3700
 4926TIP3    H214785   1.218   0.220   2.277 -0.3337  0.5092 -0.3411
 4927TIP3   OH214786   4.438   0.313   0.268 -0.0780 -0.3756  0.1486
 4927TIP3    H114787   4.533   0.314   0.253 -0.2673 -2.4340 -1.7857
 4927TIP3    H214788   4.403   0.373   0.203 -0.0715  1.6254  1.9010
 4928TIP3   OH214789   1.885   3.464   1.994  0.3547 -0.4463  0.1966
 4928TIP3    H114790   1.864   3.392   1.935  1.3880  0.2561 -1.1042
 4928TIP3    H214791   1.943   3.426   2.060  0.0058 -1.0298  0.1674
 4929TIP3   OH214792   4.875   0.124   4.852  0.0602  0.3040  0.2955
 4929TIP3    H114793   4.805   0.107   4.915  0.3925 -0.2776  0.5171
 4929TIP3    H214794   4.856   0.212   4.818 -1.9375 -0.6173 -1.1576
 4930TIP3   OH214795   2.156   0.744   0.381  0.0453  0.1897 -0.5289
 4930TIP3    H114796   2.081   0.684   0.388 -1.0992  1.5883 -0.4110
 4930TIP3    H214797   2.198   0.719   0.299 -0.1755 -1.0137 -0.3018
 4931TIP3   OH214798   3.154   4.676   3.224  0.1426  0.2136  0.5646
 4931TIP3    H114799   3.237   4.628   3.224  0.5482  0.8991 -0.2962
 4931TIP3    H214800   3.170   4.753   3.277  0.4692  1.0164 -0.6676
 4932TIP3   OH214801   1.000   5.154   1.766  0.1085 -0.7057 -0.5283
 4932TIP3    H114802   1.006   5.225   1.829  2.7227 -1.0383 -0.2822
 4932TIP3    H214803   0.965   5.080   1.816  0.2772 -0.4274  0.0072
 4933TIP3   OH214804   5.559   4.493   0.059  0.2797 -0.4837 -0.3445
 4933TIP3    H114805   5.581   4.564   0.120 -1.2530 -0.9465  0.7992
 4933TIP3    H214806   5.604   4.417   0.095 -1.7011 -1.0680  1.0806
 4934TIP3   OH214807   5.546   5.761   4.776  0.1122  0.4889  0.4089
 4934TIP3    H114808   5.471   5.710   4.745  1.1049  0.0455 -1.4187
 4934TIP3    H214809   5.523   5.787   4.865 -1.3157 -1.3904  0.6362
 4935TIP3   OH214810   1.268   2.499   0.099  0.0931  0.2423  0.3041
 4935TIP3    H114811   1.259   2.594   0.105 -0.3489  0.1421  1.5572
 4935TIP3    H214812   1.196   2.465   0.152  0.3537 -0.7924  0.0174
 4936TIP3   OH214813   1.865  -0.021   3.916 -0.2403  0.2266 -0.0147
 4936TIP3    H114814   1.802  -0.031   3.988 -0.1815 -2.5968 -0.2403
 4936TIP3    H214815   1.884   0.072   3.914 -2.6186  0.8402  1.5950
 4937TIP3   OH214816   5.779   3.098   3.968  0.0170  0.3480 -0.5933
 4937TIP3    H114817   5.766   3.003   3.964 -0.6510  0.4838 -3.2921
 4937TIP3    H214818   5.693   3.133   3.991  0.5294  0.3208  1.6275
 4938TIP3   OH214819   6.011   0.548   3.951 -0.6177  0.1584  0.6128
 4938TIP3    H114820   5.938   0.533   4.010 -1.3714  0.8087 -0.1348
 4938TIP3    H214821   5.986   0.506   3.869 -0.0746  0.2345  0.3983
 4939TIP3   OH214822   0.267   3.342   1.417 -0.5273 -0.6230 -0.3473
 4939TIP3    H114823   0.221   3.345   1.500  0.1704 -2.1248  0.1306
 4939TIP3    H214824   0.358   3.322   1.440 -0.0374  0.2684 -1.3877
 4940TIP3   OH214825   1.371   3.337   2.427 -0.0073  0.5948 -0.3833
 4940TIP3    H114826   1.441   3.282   2.463 -0.5065 -0.2349 -0.6467
 4940TIP3    H214827   1.385   3.423   2.467 -0.3862 -0.2176  1.6041
 4941TIP3   OH214828   1.555   0.179   2.676  0.2121 -0.4241 -0.2992
 4941TIP3    H114829   1.595   0.098   2.646 -1.4974 -0.6781 -2.1161
 4941TIP3    H214830   1.554   0.236   2.599  0.4228  0.9391  0.6652
 4942TIP3   OH214831   5.708   4.588   0.474  0.2174 -0.2940  0.2658
 4942TIP3    H114832   5.776   4.520   0.472  0.5078  0.0063 -1.1260
 4942TIP3    H214833   5.744   4.656   0.531  0.9458 -0.2843 -0.1982
 4943TIP3   OH214834   6.036   3.938   0.368 -0.0358 -0.6485  0.3103
 4943TIP3    H114835   5.978   3.938   0.291  0.6740 -2.4988 -0.2898
 4943TIP3    H214836   6.123   3.951   0.332  0.1307  0.1722  1.0011
 4944TIP3   OH214837   3.559   4.460   4.987  0.4877 -0.6184 -0.1742
 4944TIP3    H114838   3.522   4.431   5.070  0.9062 -0.2215  0.1538
 4944TIP3    H214839   3.648   4.487   5.008  0.3563  0.1967 -0.5996
 4945TIP3   OH214840   6.246   2.914   0.618  0.0971  0.1979  0.2188
 4945TIP3    H114841   6.204   2.977   0.675  0.0681  0.7590 -0.4116
 4945TIP3    H214842   6.211   2.829   0.646 -0.3057  0.5151  0.6837
 4946TIP3   OH214843   1.615   3.104   3.178  0.0497 -0.8287 -0.5017
 4946TIP3    H114844   1.660   3.186   3.159  0.1535 -0.4757  1.1370
 4946TIP3    H214845   1.682   3.036   3.168  0.7504 -0.3997  0.9690
 4947TIP3   OH214846   3.085   2.737   1.203  0.3519 -0.1930 -0.0943
 4947TIP3    H114847   3.090   2.709   1.111  0.2863  0.4913 -0.3162
 4947TIP3    H214848   3.128   2.667   1.252  0.2806 -0.6250 -0.6352
 4948TIP3   OH214849   2.015   2.342   2.515 -0.2774 -0.2535 -0.0564
 4948TIP3    H114850   2.056   2.266   2.556 -3.2669 -1.8308  0.2977
 4948TIP3    H214851   1.985   2.311   2.429 -0.7876  0.7759 -0.2772
 4949TIP3   OH214852   5.412   5.818   5.014 -0.1739 -0.1182  0.4361
 4949TIP3    H114853   5.321   5.793   4.999  0.1421 -1.1455  0.0767
 4949TIP3    H214854   5.442   5.757   5.082 -0.1912  1.2705  1.7442
 4950TIP3   OH214855   3.755   1.429   1.219  0.0663 -0.4253 -0.5323
 4950TIP3    H114856   3.762   1.352   1.163 -1.8106 -0.4944 -0.7587
 4950TIP3    H214857   3.700   1.489   1.170 -0.4377  0.0978  0.6251
 4951TIP3   OH214858   0.754   3.227   3.694 -0.0223  0.4430  0.0008
 4951TIP3    H114859   0.662   3.220   3.721  0.0663 -0.5989  0.0709
 4951TIP3    H214860   0.802   3.239   3.776 -0.0977  1.1946 -0.0520
 4952TIP3   OH214861   4.273   5.597   2.340  0.1942  0.1926  0.1123
 4952TIP3    H114862   4.365   5.617   2.324 -0.3631  3.1267 -0.0272
 4952TIP3    H214863   4.253   5.643   2.422 -1.2384 -0.1352 -0.0328
 4953TIP3   OH214864   4.391   5.103   4.353  0.3936 -0.5912 -0.5186
 4953TIP3    H114865   4.368   5.121   4.262  0.5858 -2.3365 -0.9476
 4953TIP3    H214866   4.337   5.163   4.403 -0.0132  0.1301 -1.7711
 4954TIP3   OH214867   0.606   0.283   4.012 -0.2495 -0.1411 -0.2564
 4954TIP3    H114868   0.521   0.239   4.010 -1.5018  2.1147  0.5114
 4954TIP3    H214869   0.656   0.235   4.079 -2.1793  0.5855  1.8116
 4955TIP3   OH214870   5.944   2.873   3.632  0.1474  0.3139 -0.0489
 4955TIP3    H114871   5.899   2.957   3.644 -0.0600  0.3544 -1.0125
 4955TIP3    H214872   6.006   2.889   3.561 -0.3968 -0.5327 -0.7350
 4956TIP3   OH214873   1.710   1.760   0.253 -0.2369  0.4146  0.4074
 4956TIP3    H114874   1.678   1.812   0.180  1.2747  0.0804 -0.5544
 4956TIP3    H214875   1.719   1.822   0.326 -1.2870  0.8558  0.1645
 4957TIP3   OH214876   5.486   1.279   3.857  0.0575 -0.8377 -0.1138
 4957TIP3    H114877   5.490   1.186   3.877  1.5119 -0.5523  1.0925
 4957TIP3    H214878   5.564   1.316   3.897  0.0930  0.7424 -1.5307
 4958TIP3   OH214879   4.125   0.942   2.717  0.1904 -0.0578  0.7830
 4958TIP3    H114880   4.133   0.958   2.811  2.4310 -0.5004  0.7158
 4958TIP3    H214881   4.071   0.863   2.711 -0.2337  0.1496  1.6675
 4959TIP3   OH214882   2.347   5.918   4.702 -0.1276  0.1766  0.0032
 4959TIP3    H114883   2.405   5.847   4.730 -0.9454 -0.4566  0.1284
 4959TIP3    H214884   2.404   5.977   4.652  0.3323 -1.1765 -1.1280
 4960TIP3   OH214885   5.443   0.974   4.601  0.4347  0.0529  0.0523
 4960TIP3    H114886   5.362   1.007   4.641  0.3038 -1.2695  0.9556
 4960TIP3    H214887   5.416   0.894   4.556  1.3150 -0.7261  0.8624
 4961TIP3   OH214888   2.748   3.740   0.332  0.0681  0.0414  0.0837
 4961TIP3    H114889   2.796   3.668   0.374 -0.2828  1.2344  2.7736
 4961TIP3    H214890   2.815   3.805   0.312  0.0375  0.2090  0.5045
 4962TIP3   OH214891   4.282   4.180   0.993  0.2501  0.0457  0.1661
 4962TIP3    H114892   4.283   4.237   0.916 -1.8792  0.2050  0.2020
 4962TIP3    H214893   4.227   4.225   1.056  1.2361 -0.5114  1.4766
 4963TIP3   OH214894   3.112   3.629   3.140 -0.2597 -0.2756  0.1800
 4963TIP3    H114895   3.158   3.546   3.141  0.2199 -0.0110  0.2444
 4963TIP3    H214896   3.166   3.688   3.192 -1.3312 -0.3000  1.3531
 4964TIP3   OH214897   1.770   1.776   1.869 -0.5741  0.0062 -0.2961
 4964TIP3    H114898   1.825   1.742   1.799 -1.2990 -0.9234 -0.4416
 4964TIP3    H214899   1.773   1.708   1.937  0.0203  0.8370  0.5295
 4965TIP3   OH214900   5.372   2.067   2.585  0.0379  0.1065 -0.3646
 4965TIP3    H114901   5.385   2.073   2.490 -0.7320 -0.5759 -0.5274
 4965TIP3    H214902   5.277   2.055   2.595  0.1571 -0.1668  0.4732
 4966TIP3   OH214903   4.298   5.181   4.758  0.3633  0.0827  0.1667
 4966TIP3    H114904   4.330   5.153   4.844  2.0394 -2.1259 -1.0590
 4966TIP3    H214905   4.320   5.108   4.700 -0.7343  1.4936 -2.1488
 4967TIP3   OH214906   5.719   2.941   0.438  0.2848  0.2458  0.0137
 4967TIP3    H114907   5.686   3.029   0.422  2.1737  0.8241 -0.9473
 4967TIP3    H214908   5.766   2.948   0.522 -1.3081 -0.3892  0.9976
 4968TIP3   OH214909   1.916   2.671   3.306 -0.0747 -0.0133 -0.3304
 4968TIP3    H114910   1.880   2.720   3.232  1.1415  0.1964 -0.7940
 4968TIP3    H214911   1.839   2.629   3.346 -1.1486  2.0880 -0.0171
 4969TIP3   OH214912   5.376   2.609   2.127 -0.7687  0.1619 -0.6594
 4969TIP3    H114913   5.435   2.538   2.154  1.1083  1.3140 -1.4633
 4969TIP3    H214914   5.290   2.582   2.157 -0.2240 -2.6723 -1.3272
 4970TIP3   OH214915   3.413   0.198   0.217 -0.5634 -0.3560  0.5512
 4970TIP3    H114916   3.461   0.234   0.142 -0.3139  0.5833  1.1514
 4970TIP3    H214917   3.321   0.214   0.197 -0.5464 -0.8018  0.0970
 4971TIP3   OH214918   3.267   2.055   2.095  0.5987 -0.0922 -0.8353
 4971TIP3    H114919   3.322   2.133   2.099  1.3432 -0.6268 -0.2338
 4971TIP3    H214920   3.223   2.052   2.180  1.9086 -1.2348 -0.1439
 4972TIP3   OH214921   5.103   2.640   1.274 -0.1069  0.2156  0.4559
 4972TIP3    H114922   5.103   2.705   1.204  1.3932  2.6125  2.4832
 4972TIP3    H214923   5.186   2.595   1.266  0.2668  0.8066  0.9245
 4973TIP3   OH214924   5.880   1.402   4.960  0.2406 -0.6491  0.2992
 4973TIP3    H114925   5.785   1.413   4.973  0.4634  0.3260  1.2405
 4973TIP3    H214926   5.913   1.491   4.948  0.9463 -1.0421 -0.8448
 4974TIP3   OH214927   5.593   1.927   3.343  0.4355  0.3160  0.0628
 4974TIP3    H114928   5.534   1.917   3.269  1.4825  0.4357 -0.8053
 4974TIP3    H214929   5.673   1.882   3.317  0.0528 -1.6715  2.0492
 4975TIP3   OH214930   5.257   0.174   3.447  0.7251  0.2713  0.0640
 4975TIP3    H114931   5.176   0.175   3.496  0.8610 -0.2609  0.3106
 4975TIP3    H214932   5.320   0.131   3.505  1.5320  1.8556  0.4077
 4976TIP3   OH214933   3.525   4.524   3.372 -0.0372  0.4956 -0.3348
 4976TIP3    H114934   3.531   4.556   3.461 -0.9148  0.2977 -0.1922
 4976TIP3    H214935   3.431   4.516   3.355  0.0218 -3.3404  0.1558
 4977TIP3   OH214936   1.533   1.504   4.451  0.1655 -0.1470  0.1138
 4977TIP3    H114937   1.593   1.569   4.486 -0.0129 -0.0379  0.2210
 4977TIP3    H214938   1.589   1.434   4.419  0.4417  0.7403 -1.4329
 4978TIP3   OH214939   0.793   3.140   4.338  0.1881 -0.7712 -0.4474
 4978TIP3    H114940   0.794   3.121   4.245 -0.6518 -0.6885 -0.4883
 4978TIP3    H214941   0.869   3.196   4.353 -0.6688  0.7196 -1.4264
 4979TIP3   OH214942   6.117   2.052   5.083  0.2504 -0.4026 -0.8242
 4979TIP3    H114943   6.210   2.033   5.098  0.4531 -0.3784 -1.9824
 4979TIP3    H214944   6.071   1.991   5.141  0.9596 -1.6723 -1.5410
 4980TIP3   OH214945   3.746   4.905   4.858  0.0261 -0.3249 -0.2408
 4980TIP3    H114946   3.736   4.919   4.764  0.2699 -1.8210 -0.5229
 4980TIP3    H214947   3.657   4.906   4.892 -0.1753 -1.0561 -0.7095
 4981TIP3   OH214948   3.703   1.841   4.994 -0.4270 -0.2828  0.6765
 4981TIP3    H114949   3.757   1.803   4.925 -2.0019  0.8045 -1.2595
 4981TIP3    H214950   3.764   1.853   5.067  1.2402 -1.7730 -0.3725
 4982TIP3   OH214951   4.379   1.307   4.414 -0.1853 -0.0692  0.0972
 4982TIP3    H114952   4.347   1.319   4.503 -0.0560  1.0712  0.0030
 4982TIP3    H214953   4.333   1.230   4.382 -0.1659 -0.5394  1.1739
 4983TIP3   OH214954   0.229   5.372   2.848  0.0574  0.3192  0.1829
 4983TIP3    H114955   0.146   5.353   2.804 -1.0975  0.8407  1.9917
 4983TIP3    H214956   0.284   5.295   2.831 -1.9246 -1.5058  1.4428
 4984TIP3   OH214957   0.137   3.922   0.844 -0.0917  0.8858 -0.1794
 4984TIP3    H114958   0.049   3.941   0.876 -0.7136 -0.3978 -1.0870
 4984TIP3    H214959   0.131   3.926   0.749  1.1011  1.8806 -0.2449
 4985TIP3   OH214960   1.368   2.615   0.790  0.1954  0.3444 -0.9268
 4985TIP3    H114961   1.399   2.698   0.826 -1.0588  0.6946 -0.5813
 4985TIP3    H214962   1.311   2.579   0.858 -0.9828  0.2606 -1.9127
 4986TIP3   OH214963   2.740   0.902   1.688  0.3886 -0.0394 -0.1202
 4986TIP3    H114964   2.800   0.936   1.754 -1.1431  2.3262  0.1546
 4986TIP3    H214965   2.709   0.819   1.724  2.7368 -0.8703  0.1426
 4987TIP3   OH214966   5.842   4.655   5.012 -0.1570  1.1411 -0.7467
 4987TIP3    H114967   5.782   4.708   5.064 -0.2064  0.5028 -0.1377
 4987TIP3    H214968   5.845   4.571   5.058 -1.2987  0.0683 -2.5301
 4988TIP3   OH214969   5.145   3.226   2.974 -0.0107  0.2801  0.2735
 4988TIP3    H114970   5.065   3.248   2.927 -0.4585 -2.1092 -0.2000
 4988TIP3    H214971   5.119   3.159   3.037  1.3713  0.4811  1.1078
 4989TIP3   OH214972   2.042   5.018   1.280  0.0603 -0.1422 -0.3831
 4989TIP3    H114973   2.020   5.067   1.359 -0.5061 -0.0901 -0.5704
 4989TIP3    H214974   2.051   5.084   1.211  1.1768 -0.1203 -0.2490
 4990TIP3   OH214975   4.145   0.402   4.889 -0.2411 -0.2844  0.1504
 4990TIP3    H114976   4.180   0.347   4.959 -0.8391  1.5390  1.9924
 4990TIP3    H214977   4.050   0.394   4.897 -0.3862  1.6414  1.0977
 4991TIP3   OH214978   3.854   2.390   1.337  0.0367 -0.3439 -0.3514
 4991TIP3    H114979   3.945   2.379   1.364  0.3047 -2.5576 -1.9376
 4991TIP3    H214980   3.837   2.316   1.280 -2.7084  0.1821 -0.3154
 4992TIP3   OH214981   1.237   3.189   3.448 -1.0006 -0.4295  0.0501
 4992TIP3    H114982   1.273   3.237   3.523 -1.5470  0.3590 -0.1735
 4992TIP3    H214983   1.221   3.257   3.382 -0.3480 -1.1259 -0.8580
 4993TIP3   OH214984   5.106   5.219   2.577  0.0723  0.2694 -0.3462
 4993TIP3    H114985   5.047   5.183   2.643  1.0721  1.0189  1.0092
 4993TIP3    H214986   5.140   5.300   2.617  1.6283  0.1064 -1.2735
 4994TIP3   OH214987   1.744   5.701   3.032  0.4812 -0.2319  0.2603
 4994TIP3    H114988   1.824   5.692   2.979  0.8186 -0.5941  0.8243
 4994TIP3    H214989   1.719   5.792   3.021  1.6573  0.2174  1.0309
 4995TIP3   OH214990   1.811   4.365   0.016 -0.4132  0.2696 -0.0755
 4995TIP3    H114991   1.743   4.380  -0.049 -0.7706  2.5803  0.7418
 4995TIP3    H214992   1.770   4.386   0.099  1.0359  0.8523  0.5225
 4996TIP3   OH214993   5.754   3.618   2.690  0.2621  0.1909  0.2425
 4996TIP3    H114994   5.740   3.524   2.693  1.0869  0.0791  2.6462
 4996TIP3    H214995   5.789   3.635   2.602  1.4355 -1.9347  0.2493
 4997TIP3   OH214996   5.835   4.003   3.332 -0.3403 -0.0423  0.2537
 4997TIP3    H114997   5.741   4.007   3.354  0.0663 -1.1145  2.4620
 4997TIP3    H214998   5.870   4.087   3.363 -0.5176  0.2880 -0.4175
 4998TIP3   OH214999   2.127   3.650   0.585  0.3621 -0.0897 -0.0338
 4998TIP3    H115000   2.043   3.611   0.610  0.3005 -0.5138 -0.8893
 4998TIP3    H215001   2.103   3.724   0.529  0.5625 -0.3640 -0.4868
 4999TIP3   OH215002   0.060   4.120   2.213 -0.3266 -0.0600  0.0614
 4999TIP3    H115003   0.062   4.092   2.122 -0.2192 -1.0468  0.3481
 4999TIP3    H215004  -0.033   4.130   2.234 -0.4148 -1.0736  0.1920
 5000TIP3   OH215005   1.375   0.742   2.647  0.2030  0.7317  0.0177
 5000TIP3    H115006   1.295   0.690   2.636  0.4091  0.2916  0.5650
 5000TIP3    H215007   1.424   0.697   2.716  0.4976  1.5218  0.3383
 5001TIP3   OH215008   3.318   4.741   5.030  0.5097 -0.2300  0.2052
 5001TIP3    H115009   3.365   4.823   5.041 -0.3050  0.0249  2.2019
 5001TIP3    H215010   3.359   4.682   5.094 -0.6122 -0.5692  0.6257
 5002TIP3   OH215011   3.152   2.069   2.345  0.2632  0.0336 -0.7726
 5002TIP3    H115012   3.237   2.097   2.381 -0.3149  0.8525 -0.0133
 5002TIP3    H215013   3.131   1.989   2.393  0.3497  0.1185 -0.5937
 5003TIP3   OH215014   3.415   2.882   2.094  0.3748 -1.3153  0.0242
 5003TIP3    H115015   3.384   2.880   2.004  1.1879 -0.8731 -0.2747
 5003TIP3    H215016   3.483   2.950   2.095  0.7003 -1.6375  0.8574
 5004TIP3   OH215017   0.553   5.001   1.122  0.0775  0.7377  0.3204
 5004TIP3    H115018   0.489   4.954   1.174 -0.3753  0.9542 -0.0329
 5004TIP3    H215019   0.516   5.089   1.111  1.1191  1.3338  1.3571
 5005TIP3   OH215020   1.359   2.631   4.327 -0.5537 -0.0822  0.3589
 5005TIP3    H115021   1.303   2.684   4.270 -0.3938 -1.5124 -1.1998
 5005TIP3    H215022   1.308   2.553   4.346  0.4453 -0.8717 -0.1148
 5006TIP3   OH215023   5.021   2.111   4.234  0.0808 -0.2240  0.0803
 5006TIP3    H115024   5.069   2.042   4.280  0.0741  0.2885  0.8770
 5006TIP3    H215025   5.089   2.172   4.206  0.1127 -0.6692 -0.8467
 5007TIP3   OH215026   4.798   0.838   0.938  0.1581 -0.1028  0.3535
 5007TIP3    H115027   4.884   0.801   0.957  1.3397  2.9320  1.4662
 5007TIP3    H215028   4.739   0.789   0.996  0.8502 -2.8911 -1.1100
 5008TIP3   OH215029   1.966   1.412   1.294  0.1399  0.1834  0.9884
 5008TIP3    H115030   2.012   1.404   1.210 -1.5346  1.7188 -0.1633
 5008TIP3    H215031   1.937   1.323   1.314 -0.0185 -0.1093 -0.4373
 5009TIP3   OH215032   4.665   0.715   2.777 -0.8080  0.3309  0.0771
 5009TIP3    H115033   4.707   0.661   2.709  0.4649 -1.7579  2.3788
 5009TIP3    H215034   4.658   0.802   2.737  0.5408 -0.6125 -2.4542
 5010TIP3   OH215035   1.033   4.016   3.180  0.2722 -1.0737  0.4289
 5010TIP3    H115036   1.024   4.020   3.085 -0.7223  1.1276  0.5555
 5010TIP3    H215037   0.944   4.008   3.212  0.4090  0.2077  1.2003
 5011TIP3   OH215038   0.991   5.145   0.861  0.2041  0.5212 -0.1727
 5011TIP3    H115039   0.928   5.208   0.827  1.5047  1.1382 -1.5419
 5011TIP3    H215040   0.956   5.060   0.835 -0.5626  0.7839 -0.0307
 5012TIP3   OH215041   1.345   4.786   4.468  0.4422  0.1213  0.7952
 5012TIP3    H115042   1.302   4.711   4.510 -0.8738  0.4497  0.1102
 5012TIP3    H215043   1.413   4.746   4.413 -0.9184 -0.6971 -0.3735
 5013TIP3   OH215044   0.804   0.999   4.788  0.2104  0.2375 -0.0786
 5013TIP3    H115045   0.757   0.945   4.851  1.1861  0.5928  0.9875
 5013TIP3    H215046   0.808   1.085   4.828  2.7103 -0.0259  0.4411
 5014TIP3   OH215047   5.531   4.754   4.637  0.1750  0.4501  0.7409
 5014TIP3    H115048   5.578   4.737   4.555  1.0668  0.4705  1.2277
 5014TIP3    H215049   5.587   4.817   4.683 -1.0164  1.5293  0.7580
 5015TIP3   OH215050   3.724   1.411   3.925 -0.3686 -0.3610 -0.0497
 5015TIP3    H115051   3.694   1.468   3.855 -2.2143 -2.1599 -0.8518
 5015TIP3    H215052   3.649   1.406   3.985  0.7742  0.2591  1.4733
 5016TIP3   OH215053   0.929   2.017   4.730 -0.7311  0.2190 -0.0323
 5016TIP3    H115054   1.024   2.025   4.725 -0.6377 -0.8629 -0.2691
 5016TIP3    H215055   0.913   1.922   4.729 -1.8212  0.3939 -0.2701
 5017TIP3   OH215056   4.921   5.319   2.356 -0.0879  0.2418 -0.0098
 5017TIP3    H115057   4.986   5.265   2.401  2.2409  1.6798 -1.4233
 5017TIP3    H215058   4.960   5.406   2.355 -1.7242  1.0051 -1.5805
 5018TIP3   OH215059   2.425   4.067   3.193  0.5261 -0.5517 -0.3951
 5018TIP3    H115060   2.383   4.004   3.135 -0.1241  1.2378 -1.9585
 5018TIP3    H215061   2.475   4.013   3.255 -2.4674 -2.7276  0.3690
 5019TIP3   OH215062   5.199   1.682   4.802  0.1291 -0.0814 -0.3234
 5019TIP3    H115063   5.179   1.770   4.833  0.6199  0.2263 -0.8564
 5019TIP3    H215064   5.252   1.643   4.871  1.2243  0.6005 -0.7510
 5020TIP3   OH215065   3.757   4.416   4.394  0.4286 -0.3703  0.2014
 5020TIP3    H115066   3.822   4.372   4.339  1.0103  0.4912  0.1937
 5020TIP3    H215067   3.672   4.392   4.355  0.7705 -0.8967 -0.2291
 5021TIP3   OH215068   5.213   0.487   0.164  0.5757 -0.5100 -0.2470
 5021TIP3    H115069   5.262   0.505   0.244 -0.3964 -2.8044  0.9800
 5021TIP3    H215070   5.280   0.478   0.097  1.4387  1.1493  0.3386
 5022TIP3   OH215071   1.814   0.307   2.466 -0.4383  0.1061 -0.1436
 5022TIP3    H115072   1.831   0.258   2.546 -1.8039 -0.4919 -0.1983
 5022TIP3    H215073   1.814   0.399   2.494  1.3922  0.0777  0.0880
 5023TIP3   OH215074   4.810   5.503   2.654  0.1000  0.1221 -0.2076
 5023TIP3    H115075   4.854   5.432   2.608 -0.6056 -1.0925  0.9013
 5023TIP3    H215076   4.877   5.541   2.710  0.3625  0.0141 -0.4462
 5024TIP3   OH215077   4.065   3.355   3.557 -0.4084  0.8470  0.2053
 5024TIP3    H115078   4.075   3.311   3.473  2.2142  0.9222  0.3873
 5024TIP3    H215079   4.089   3.289   3.622 -1.9721  0.9215  0.9043
 5025TIP3   OH215080   6.325   4.715   0.180 -0.6129  0.3988  0.3591
 5025TIP3    H115081   6.269   4.701   0.103  0.7985 -1.2380 -0.4495
 5025TIP3    H215082   6.298   4.646   0.241 -1.4736  1.4652  1.2326
 5026TIP3   OH215083   5.563   2.242   3.728 -0.0669 -0.4542  0.3129
 5026TIP3    H115084   5.524   2.317   3.683 -0.6098 -0.2906  1.0329
 5026TIP3    H215085   5.656   2.261   3.733  0.2338 -1.1006 -1.9351
 5027TIP3   OH215086   0.317   1.352   3.319  0.0304  0.0789  0.2058
 5027TIP3    H115087   0.366   1.310   3.248 -0.5169 -0.6495  0.2431
 5027TIP3    H215088   0.233   1.306   3.321 -1.2728  2.2495 -0.8212
 5028TIP3   OH215089   3.076   1.226   4.781  0.0252  0.1475 -0.2074
 5028TIP3    H115090   3.148   1.163   4.774 -0.7224 -0.5835 -1.8316
 5028TIP3    H215091   3.085   1.282   4.704 -0.0572  1.2477  0.5683
 5029TIP3   OH215092   3.115   2.078   4.274  0.1389 -0.2189  0.4478
 5029TIP3    H115093   3.209   2.094   4.271  0.1273 -0.2378 -0.8774
 5029TIP3    H215094   3.107   1.982   4.277  0.1849 -0.3094 -1.2141
 5030TIP3   OH215095   1.367   4.401   3.664  0.6141 -0.2265 -0.0465
 5030TIP3    H115096   1.365   4.490   3.629 -0.3891 -0.2790 -0.1532
 5030TIP3    H215097   1.348   4.412   3.757 -0.1493 -0.3769 -0.1802
 5031TIP3   OH215098   4.194   1.322   2.367  0.0596  0.0465 -0.5328
 5031TIP3    H115099   4.180   1.365   2.282 -0.1084 -0.3854 -0.7265
 5031TIP3    H215100   4.208   1.230   2.345  1.1218  0.1108 -0.1728
 5032TIP3   OH215101   0.695   0.343   3.346  0.5755  0.7941 -0.0522
 5032TIP3    H115102   0.647   0.348   3.264  0.6629 -0.8252 -0.2288
 5032TIP3    H215103   0.633   0.306   3.409  0.0583  3.2835  1.0282
 5033TIP3   OH215104   1.823   5.115   2.822  0.2742  0.0709  0.3623
 5033TIP3    H115105   1.854   5.161   2.744  0.7728  0.1584  0.6088
 5033TIP3    H215106   1.889   5.134   2.889  0.7101 -1.3538  0.3609
 5034TIP3   OH215107   3.215   4.935   0.113  0.2292 -0.4946  0.1671
 5034TIP3    H115108   3.202   4.850   0.154 -1.7176  0.0811  0.8914
 5034TIP3    H215109   3.307   4.936   0.087 -0.0297 -3.3489 -1.1878
 5035TIP3   OH215110   4.867   2.834   0.977  0.1347  0.0902 -0.1326
 5035TIP3    H115111   4.958   2.811   0.957 -0.3431 -0.3272 -1.9893
 5035TIP3    H215112   4.870   2.870   1.066  2.0927  0.0149 -0.1381
 5036TIP3   OH215113   2.088   3.859   0.896 -0.0111  0.2751  0.1324
 5036TIP3    H115114   2.008   3.819   0.862  1.1690 -1.4193 -0.8346
 5036TIP3    H215115   2.157   3.796   0.874  1.6588  1.8743  0.5344
 5037TIP3   OH215116   0.989   0.695   4.953 -0.2017 -0.8302 -0.1837
 5037TIP3    H115117   0.896   0.696   4.930 -0.4698 -0.6312  0.8377
 5037TIP3    H215118   1.000   0.772   5.008  0.8298 -0.2146 -1.2385
 5038TIP3   OH215119   0.543   3.684   0.631 -0.0491 -0.0961  0.3608
 5038TIP3    H115120   0.465   3.725   0.594  0.7545 -0.0420 -1.3843
 5038TIP3    H215121   0.512   3.600   0.666 -0.6489 -0.9058 -1.9103
 5039TIP3   OH215122   5.369   2.767   3.912  0.2477  0.4656 -0.6086
 5039TIP3    H115123   5.422   2.770   3.832  0.9808  0.5438 -0.1372
 5039TIP3    H215124   5.338   2.676   3.917 -0.9204  0.7757 -1.6657
 5040TIP3   OH215125   5.073   0.444   3.488 -0.1858 -0.1958 -0.4309
 5040TIP3    H115126   5.036   0.520   3.444 -1.2493 -1.6239 -2.1386
 5040TIP3    H215127   5.087   0.472   3.579 -2.2649  1.4641 -0.5620
 5041TIP3   OH215128   0.574   4.396   3.981  0.0157  0.2717 -0.3830
 5041TIP3    H115129   0.569   4.435   4.068 -0.3465  0.2381 -0.3884
 5041TIP3    H215130   0.651   4.339   3.985  0.0164  0.2918 -0.0933
 5042TIP3   OH215131   5.308   3.845   3.231 -0.1020  0.1821 -0.5134
 5042TIP3    H115132   5.233   3.819   3.178 -0.0879  3.2485 -2.2449
 5042TIP3    H215133   5.281   3.924   3.276  1.9685  1.2715 -1.0339
 5043TIP3   OH215134   4.507   5.541   2.009 -0.1133  0.1000 -0.4379
 5043TIP3    H115135   4.599   5.538   1.983 -0.1728 -2.6017 -0.6711
 5043TIP3    H215136   4.459   5.512   1.932 -1.1223  0.9842 -0.1609
 5044TIP3   OH215137   2.225   4.628   2.498 -0.4822  0.0275  0.1312
 5044TIP3    H115138   2.223   4.719   2.471  1.8677  0.3057  0.6459
 5044TIP3    H215139   2.318   4.610   2.514 -0.9657 -2.2381  0.7655
 5045TIP3   OH215140   3.401   4.745   1.335 -0.4427  0.6693  0.5940
 5045TIP3    H115141   3.380   4.837   1.319  0.0442  0.5186 -1.0596
 5045TIP3    H215142   3.494   4.738   1.313 -0.5995 -0.3312  0.2451
 5046TIP3   OH215143   3.936   3.334   1.666 -0.0528  0.1808 -0.1224
 5046TIP3    H115144   4.012   3.336   1.724 -2.0271  1.0900  2.5787
 5046TIP3    H215145   3.875   3.273   1.708 -0.7535 -0.8216 -2.4191
 5047TIP3   OH215146   1.491   1.679   1.938  0.0853  0.5381 -0.3216
 5047TIP3    H115147   1.507   1.671   2.032 -2.7896  0.6877  0.2788
 5047TIP3    H215148   1.507   1.591   1.903  1.1029  0.4685  0.2885
 5048TIP3   OH215149   3.601   2.369   1.500  0.1448 -0.1426  0.3672
 5048TIP3    H115150   3.520   2.400   1.461 -1.4026 -1.0183  2.7201
 5048TIP3    H215151   3.669   2.398   1.439 -1.7356  2.1175 -0.8160
 5049TIP3   OH215152   1.489   4.678   2.597  0.1002 -0.0876  0.5043
 5049TIP3    H115153   1.535   4.762   2.600  0.2323 -0.0904 -0.8016
 5049TIP3    H215154   1.543   4.619   2.649  0.5639  0.3749  0.5537
 5050TIP3   OH215155   1.919   4.597   1.489 -0.2220  0.7527 -0.6271
 5050TIP3    H115156   1.949   4.617   1.577  0.5925  0.1253 -0.7555
 5050TIP3    H215157   1.847   4.535   1.501 -0.2979  0.8855 -0.3963
 5051TIP3   OH215158   4.064   3.487   4.441  0.5879  0.5611  0.0799
 5051TIP3    H115159   4.138   3.469   4.383  1.7334  0.1205  1.6063
 5051TIP3    H215160   4.105   3.517   4.522 -0.8550 -0.5641  1.2700
 5052TIP3   OH215161   5.474   4.015   2.198  0.1153  0.0239 -0.1624
 5052TIP3    H115162   5.490   4.053   2.285  0.6203 -1.7633  0.5620
 5052TIP3    H215163   5.389   4.050   2.172 -1.5096 -1.6712  2.3909
 5053TIP3   OH215164   0.230   4.214   4.783 -0.3892  0.3272  0.5423
 5053TIP3    H115165   0.243   4.254   4.869  2.4381 -0.5658  0.6348
 5053TIP3    H215166   0.279   4.270   4.723  2.0942 -1.8599  0.4006
 5054TIP3   OH215167   4.745   0.640   2.514  0.8923 -0.3656 -0.1991
 5054TIP3    H115168   4.795   0.717   2.487 -1.3863  0.9726 -0.8593
 5054TIP3    H215169   4.699   0.613   2.435  0.3501 -1.3816  0.4509
 5055TIP3   OH215170   2.310   0.424   3.473  0.1498 -0.2500  0.0625
 5055TIP3    H115171   2.343   0.358   3.534  0.6602 -0.2067 -0.1666
 5055TIP3    H215172   2.326   0.507   3.517  0.4454 -0.2233 -0.0911
 5056TIP3   OH215173   1.777   2.295   1.187  0.5078 -0.5666 -0.1972
 5056TIP3    H115174   1.808   2.205   1.192 -0.1668 -0.7655  0.8330
 5056TIP3    H215175   1.684   2.287   1.165  0.4530 -0.1217 -0.1363
 5057TIP3   OH215176   6.136   1.977   3.209  0.3696 -0.5917  1.0021
 5057TIP3    H115177   6.108   2.042   3.144  0.5464 -1.5574 -0.0578
 5057TIP3    H215178   6.201   2.024   3.262  0.3098  0.1780  0.4216
 5058TIP3   OH215179   6.213   3.211   4.891 -0.3587 -0.0277  0.0138
 5058TIP3    H115180   6.254   3.209   4.977  0.8127 -0.3295 -0.5286
 5058TIP3    H215181   6.119   3.215   4.909 -0.0980  0.8057  1.2961
 5059TIP3   OH215182   0.459   5.732   4.148  0.0588 -0.1990  0.2015
 5059TIP3    H115183   0.478   5.825   4.158 -0.4614  0.0334 -0.8046
 5059TIP3    H215184   0.484   5.693   4.232  2.1340  0.5328 -0.0131
 5060TIP3   OH215185   5.613   2.787   5.146 -0.3761  0.2986 -0.7404
 5060TIP3    H115186   5.702   2.751   5.143 -0.4305  0.1920 -1.0403
 5060TIP3    H215187   5.557   2.711   5.160 -0.3613  0.4530  0.2585
 5061TIP3   OH215188   2.579   2.381   3.604 -0.6378 -0.1001 -0.5310
 5061TIP3    H115189   2.539   2.468   3.599 -1.0712 -0.2879 -0.4015
 5061TIP3    H215190   2.652   2.392   3.665 -0.1292  0.3805 -1.2184
 5062TIP3   OH215191   2.900   4.838   4.285 -0.1422 -0.4349 -0.0073
 5062TIP3    H115192   2.904   4.934   4.276 -0.3453  0.0112  3.3440
 5062TIP3    H215193   2.808   4.819   4.302 -0.1915 -1.3567 -1.1384
 5063TIP3   OH215194   3.242   3.434   1.481 -0.8649 -0.2745 -0.2857
 5063TIP3    H115195   3.243   3.466   1.571 -0.1047  0.0720 -0.4162
 5063TIP3    H215196   3.333   3.440   1.452 -1.2939  0.7806 -1.4850
 5064TIP3   OH215197   3.529   5.785   0.709 -0.3074  0.4920  0.0744
 5064TIP3    H115198   3.596   5.728   0.670  0.5356  1.0713  0.6346
 5064TIP3    H215199   3.494   5.835   0.635 -0.9500 -0.6221 -0.3996
 5065TIP3   OH215200   4.432   4.279   4.888  0.1916 -0.3640 -0.1481
 5065TIP3    H115201   4.443   4.185   4.876  1.3561 -0.1588 -0.8836
 5065TIP3    H215202   4.410   4.289   4.980  0.3126 -1.3452 -0.0025
 5066TIP3   OH215203   2.249   2.676   1.680 -0.2457 -0.0910 -0.5358
 5066TIP3    H115204   2.262   2.623   1.758 -0.8779  0.4494 -0.0457
 5066TIP3    H215205   2.310   2.641   1.615  1.6853  0.6810  0.8005
 5067TIP3   OH215206   5.669   3.837   0.559 -0.1291 -0.3107 -0.1290
 5067TIP3    H115207   5.650   3.802   0.472  1.0646 -0.5141 -0.3253
 5067TIP3    H215208   5.681   3.760   0.613 -0.7507 -0.1828  0.2046
 5068TIP3   OH215209   2.468   4.104   1.325 -0.4646  0.4073  0.8789
 5068TIP3    H115210   2.563   4.096   1.337 -0.5843 -0.8774  1.1856
 5068TIP3    H215211   2.452   4.198   1.320  0.9037  0.6315  0.1309
 5069TIP3   OH215212   3.726   5.733   0.312  0.1349 -0.2978  0.5556
 5069TIP3    H115213   3.640   5.693   0.305  1.0910 -2.6998  1.2625
 5069TIP3    H215214   3.783   5.677   0.258  1.8863 -1.0245  2.9821
 5070TIP3   OH215215   3.150   0.860   0.291  0.1629  0.2531 -0.4496
 5070TIP3    H115216   3.098   0.887   0.216 -0.5796  0.0885 -0.0052
 5070TIP3    H215217   3.232   0.828   0.253  0.9382  2.7202 -1.0068
 5071TIP3   OH215218   3.772   3.246   3.788  0.0623 -0.4909  0.2613
 5071TIP3    H115219   3.692   3.272   3.833  1.1210  1.1829  1.2777
 5071TIP3    H215220   3.842   3.292   3.834  1.4442 -0.5083 -1.6953
 5072TIP3   OH215221   4.728   4.529   4.860  0.2239 -0.3006 -0.2660
 5072TIP3    H115222   4.818   4.512   4.833  0.6567  0.8517  0.3633
 5072TIP3    H215223   4.679   4.453   4.831  1.3605 -0.8373 -0.8339
 5073TIP3   OH215224   1.601   2.148   1.506 -0.0851 -0.3129 -0.0372
 5073TIP3    H115225   1.616   2.178   1.595  0.0759 -0.5322  0.0096
 5073TIP3    H215226   1.664   2.198   1.453  0.6277 -1.0282  0.1226
 5074TIP3   OH215227   1.191   0.394   3.104 -0.3142 -0.5227 -0.8391
 5074TIP3    H115228   1.195   0.419   3.012 -0.8780 -1.0212 -1.0021
 5074TIP3    H215229   1.282   0.377   3.128 -0.0961  0.1699 -1.1430
 5075TIP3   OH215230   5.978   2.535   0.521  0.1348 -0.0884  0.2483
 5075TIP3    H115231   6.034   2.462   0.493  0.8752  0.1031  1.1837
 5075TIP3    H215232   5.905   2.534   0.459  1.1648 -0.3626 -0.9992
 5076TIP3   OH215233   2.094   2.636   4.859 -0.5281  0.6364  0.2520
 5076TIP3    H115234   2.037   2.580   4.910 -0.4036  1.3488  1.2030
 5076TIP3    H215235   2.090   2.721   4.903 -0.8005  1.4157 -1.2048
 5077TIP3   OH215236   4.468   1.682   1.344 -0.3895  0.6431 -0.6119
 5077TIP3    H115237   4.469   1.588   1.326  1.5062  0.9702 -2.7616
 5077TIP3    H215238   4.507   1.691   1.431 -0.5262 -0.5371 -0.4168
 5078TIP3   OH215239   4.007   0.020   0.981 -0.2357  0.1558 -0.6018
 5078TIP3    H115240   4.075  -0.048   0.980  1.0921  1.4198 -0.7524
 5078TIP3    H215241   3.989   0.037   0.888  1.9868  2.3457 -0.7475
 5079TIP3   OH215242   5.438   2.701   0.018  0.2882 -0.1689 -0.2350
 5079TIP3    H115243   5.350   2.666   0.004 -0.1029  1.0157 -0.8733
 5079TIP3    H215244   5.476   2.645   0.086 -1.5550  0.3234  1.2885
 5080TIP3   OH215245   4.407   5.554   1.291  0.3504  0.0111 -0.3962
 5080TIP3    H115246   4.410   5.473   1.240  0.4262  0.0254 -0.4134
 5080TIP3    H215247   4.323   5.549   1.338  0.6884 -0.4211  0.1672
 5081TIP3   OH215248   0.499   4.988   2.197  0.6001  0.3012 -0.1649
 5081TIP3    H115249   0.495   4.904   2.244 -0.3561  0.6101  0.3391
 5081TIP3    H215250   0.420   4.988   2.143 -1.9774  2.7294  3.1473
 5082TIP3   OH215251   0.231   5.513   4.665  0.3968  0.0576 -0.7502
 5082TIP3    H115252   0.305   5.473   4.711 -1.0484 -1.0568  0.7190
 5082TIP3    H215253   0.229   5.468   4.580 -0.6588 -2.5620  0.5267
 5083TIP3   OH215254   0.828   4.397   0.415  0.2035 -0.0115 -0.5868
 5083TIP3    H115255   0.838   4.402   0.320  0.2356 -0.0477 -0.5856
 5083TIP3    H215256   0.823   4.488   0.444  1.0601  0.0273 -0.5323
 5084TIP3   OH215257   1.948   5.285   1.804  0.1399  0.4311  0.3464
 5084TIP3    H115258   1.918   5.321   1.721  0.2419 -0.3226 -0.0222
 5084TIP3    H215259   1.889   5.211   1.821  0.1627  0.5363  0.9077
 5085TIP3   OH215260   0.340   0.270   0.847 -0.0652  0.4586  0.0367
 5085TIP3    H115261   0.329   0.365   0.849 -1.7553  0.3049  0.1345
 5085TIP3    H215262   0.276   0.240   0.783 -0.0153 -0.6573  0.4838
 5086TIP3   OH215263   3.065   5.156   4.417  0.4357  0.0798  0.1882
 5086TIP3    H115264   3.131   5.193   4.358  0.3665 -0.2135 -0.0785
 5086TIP3    H215265   2.987   5.146   4.361  0.5042 -0.6273  0.2067
 5087TIP3   OH215266   0.231   5.285   1.686 -0.2481 -0.0365 -0.4819
 5087TIP3    H115267   0.322   5.259   1.672 -0.2369 -1.1992  1.4296
 5087TIP3    H215268   0.235   5.349   1.757 -0.8581  0.7015 -1.0912
 5088TIP3   OH215269   1.764   0.036   1.409  0.2000  0.4354 -0.3170
 5088TIP3    H115270   1.776   0.016   1.316  1.0673 -0.2227 -0.0693
 5088TIP3    H215271   1.847   0.014   1.450 -0.5733 -0.5184  0.8249
 5089TIP3   OH215272   0.477   4.132   0.303  0.7676  0.4364  0.2674
 5089TIP3    H115273   0.556   4.091   0.338  1.5024 -0.6866 -2.4317
 5089TIP3    H215274   0.508   4.182   0.227 -1.2689 -1.8701 -2.2914
 5090TIP3   OH215275   5.366   5.423   2.896 -0.1365 -0.1981 -0.2143
 5090TIP3    H115276   5.364   5.515   2.920  0.4568 -0.2466  0.0297
 5090TIP3    H215277   5.451   5.411   2.853  0.5817 -1.0112  1.3399
 5091TIP3   OH215278   5.643   4.908   3.031  0.0650 -0.2313 -0.1058
 5091TIP3    H115279   5.612   4.910   3.121  1.3278 -0.7747  0.3608
 5091TIP3    H215280   5.565   4.926   2.978 -0.7383 -0.1693  1.0760
 5092TIP3   OH215281   0.708   0.396   0.902  0.0633 -0.1341  0.6262
 5092TIP3    H115282   0.793   0.352   0.902 -0.3447 -1.0024 -0.7974
 5092TIP3    H215283   0.708   0.450   0.981  0.8347 -2.2043  2.1065
 5093TIP3   OH215284   5.197   5.081   4.990  0.5109  0.0296 -0.4164
 5093TIP3    H115285   5.127   5.062   4.927 -1.8152  0.1090  1.9747
 5093TIP3    H215286   5.252   5.003   4.989 -0.6817 -0.8293 -1.0052
 5094TIP3   OH215287   2.791   1.756   0.675 -0.0635 -0.1144 -0.0544
 5094TIP3    H115288   2.725   1.822   0.655  1.8536  2.0282  0.3518
 5094TIP3    H215289   2.828   1.732   0.590  1.4928  1.8542  0.0161
 5095TIP3   OH215290   0.252   5.491   1.859 -0.0296 -0.8065 -0.5249
 5095TIP3    H115291   0.277   5.583   1.872  1.5874 -1.4038  0.9936
 5095TIP3    H215292   0.156   5.492   1.863 -0.0224  0.7563 -0.0820
 5096TIP3   OH215293   0.692   1.440   4.583 -0.0449 -0.3151  0.5350
 5096TIP3    H115294   0.770   1.384   4.581 -0.1768 -0.5278 -1.9558
 5096TIP3    H215295   0.628   1.393   4.530 -0.2489  2.0099 -1.4458
 5097TIP3   OH215296   5.808   1.880   1.458 -0.0448  0.2364 -0.4695
 5097TIP3    H115297   5.732   1.823   1.444 -0.6027  0.9915 -0.5989
 5097TIP3    H215298   5.858   1.837   1.527 -0.7928 -0.0760 -0.1094
 5098TIP3   OH215299   1.727   0.339   0.115  0.0622  0.1214 -0.5187
 5098TIP3    H115300   1.817   0.369   0.129 -0.7315  2.0910  0.8812
 5098TIP3    H215301   1.690   0.402   0.054 -0.0198 -1.5092 -2.2407
 5099TIP3   OH215302   6.219   0.834   2.297  0.6126 -0.1469 -0.3804
 5099TIP3    H115303   6.205   0.901   2.230 -1.0463 -1.3606 -1.3266
 5099TIP3    H215304   6.132   0.799   2.314  1.3704 -1.7383  0.4226
 5100TIP3   OH215305   1.000   1.423   4.180  0.4414 -0.4590 -0.0678
 5100TIP3    H115306   1.036   1.495   4.127 -0.4992  0.1663  0.1100
 5100TIP3    H215307   0.955   1.367   4.116 -0.2640  0.0257 -0.0056
 5101TIP3   OH215308   2.561   5.596   1.613  0.5105  0.0648  0.1333
 5101TIP3    H115309   2.533   5.559   1.696  1.6624 -0.4624  0.3143
 5101TIP3    H215310   2.520   5.682   1.609 -0.5423 -0.3946  0.6674
 5102TIP3   OH215311   0.557   5.285   0.579  0.6739  0.2304  0.4284
 5102TIP3    H115312   0.515   5.201   0.598 -0.4122  0.9126  1.1568
 5102TIP3    H215313   0.633   5.262   0.525 -0.5478 -1.0680 -0.8253
 5103TIP3   OH215314   3.502   3.155   2.106  0.1992 -0.6017  0.0032
 5103TIP3    H115315   3.422   3.206   2.091  0.3587  0.0623  1.2888
 5103TIP3    H215316   3.561   3.181   2.036 -0.5881 -0.8479 -0.7647
 5104TIP3   OH215317   2.350   2.026   0.947 -0.5319  0.4347 -0.6131
 5104TIP3    H115318   2.404   1.948   0.933  0.3617  1.0671 -0.7387
 5104TIP3    H215319   2.410   2.099   0.934 -0.8091  1.1398  1.7013
 5105TIP3   OH215320   5.597   5.386   1.068  0.0487  0.2357  0.6862
 5105TIP3    H115321   5.503   5.391   1.089  0.0456 -0.4801  0.8416
 5105TIP3    H215322   5.631   5.318   1.126  0.0278 -1.8629 -1.6350
 5106TIP3   OH215323   1.105   3.294   2.588  0.5159  0.0122  0.4281
 5106TIP3    H115324   1.125   3.225   2.650  2.1478  0.5612  0.5755
 5106TIP3    H215325   1.174   3.288   2.521 -0.2295  0.4911 -0.4207
 5107TIP3   OH215326   1.715   0.080   0.265 -0.3768  0.1290 -0.3131
 5107TIP3    H115327   1.796   0.032   0.284  0.1187  0.0870 -2.3157
 5107TIP3    H215328   1.737   0.136   0.191 -2.0409  0.5078 -0.5554
 5108TIP3   OH215329   2.937   5.280   2.793  0.1482 -0.5138 -0.1160
 5108TIP3    H115330   3.023   5.278   2.751  0.6670  0.4792  0.8441
 5108TIP3    H215331   2.951   5.239   2.878  0.0743  1.0459  0.6818
 5109TIP3   OH215332   3.406   0.512   0.267  0.2065 -0.4064 -0.0348
 5109TIP3    H115333   3.498   0.492   0.254  0.4484  0.7044 -0.1528
 5109TIP3    H215334   3.384   0.472   0.351  1.5111  1.4822  1.3069
 5110TIP3   OH215335   5.832   3.132   2.861 -0.1099 -0.0265 -0.5320
 5110TIP3    H115336   5.822   3.147   2.955  2.4315 -0.9797 -0.0225
 5110TIP3    H215337   5.876   3.047   2.855  1.7994  1.0034 -2.4433
 5111TIP3   OH215338   1.646   0.213   3.879  0.0154  0.0908 -0.4342
 5111TIP3    H115339   1.653   0.246   3.968 -1.9842 -3.3299  1.1932
 5111TIP3    H215340   1.720   0.153   3.869  0.3756  0.6410 -1.2150
 5112TIP3   OH215341   3.268   0.531   3.165  0.2104  0.6544  0.0852
 5112TIP3    H115342   3.176   0.559   3.166  0.0483  0.1134  1.8155
 5112TIP3    H215343   3.272   0.466   3.094 -1.0783 -0.3746  0.9079
 5113TIP3   OH215344   3.306   5.185   1.208 -0.1111  0.2617  0.8844
 5113TIP3    H115345   3.322   5.279   1.219  1.8202 -0.2049  2.7190
 5113TIP3    H215346   3.381   5.153   1.158 -0.5985 -0.3607  0.5356
 5114TIP3   OH215347   0.378   3.824   2.650  0.3412  0.6542 -0.2976
 5114TIP3    H115348   0.289   3.787   2.647 -0.0009  0.6860  3.7114
 5114TIP3    H215349   0.368   3.906   2.698  2.4957  0.8967 -0.1875
 5115TIP3   OH215350   2.941   0.518   2.341 -0.1119  0.5035  0.2272
 5115TIP3    H115351   2.970   0.427   2.348  0.1084  0.5796  0.3404
 5115TIP3    H215352   3.019   0.565   2.310 -0.1783  0.6783  0.3261
 5116TIP3   OH215353   3.410   2.614   1.597  0.2784  0.1992 -0.2776
 5116TIP3    H115354   3.441   2.673   1.529  0.6207 -0.4266 -0.6802
 5116TIP3    H215355   3.476   2.620   1.666  0.3819  0.1883 -0.3752
 5117TIP3   OH215356   3.245   4.974   2.257 -0.1479 -0.5979 -0.2267
 5117TIP3    H115357   3.242   4.936   2.345 -0.0414  0.9706  0.4890
 5117TIP3    H215358   3.334   5.009   2.249 -0.6107  0.6007 -0.3517
 5118TIP3   OH215359   0.308   4.794   0.356  0.2353  0.3384  0.3500
 5118TIP3    H115360   0.293   4.805   0.263  0.5117  0.7467  0.3549
 5118TIP3    H215361   0.231   4.834   0.397  0.4543  0.8006  0.3169
 5119TIP3   OH215362   2.237   0.075   2.452  0.1838  0.4800 -0.0124
 5119TIP3    H115363   2.328   0.056   2.427  0.2261  0.9980 -0.2692
 5119TIP3    H215364   2.199  -0.011   2.472  0.4655  0.1567 -0.8083
 5120TIP3   OH215365   3.695   5.940   3.378 -0.0037 -0.4207  0.4234
 5120TIP3    H115366   3.683   6.024   3.335  0.0350 -0.9428 -0.6601
 5120TIP3    H215367   3.607   5.909   3.398 -0.0146 -0.0992  0.8983
 5121TIP3   OH215368   3.171   3.669   2.647  0.0619 -0.6070 -0.2699
 5121TIP3    H115369   3.250   3.667   2.592 -0.7520  0.7547 -1.5763
 5121TIP3    H215370   3.204   3.658   2.736  1.6861 -0.5662 -0.8208
 5122TIP3   OH215371   6.162   2.311   0.438 -0.6021 -0.5816 -0.1682
 5122TIP3    H115372   6.211   2.326   0.357  0.0559  0.6150  0.4343
 5122TIP3    H215373   6.228   2.304   0.506 -1.2061  0.0427  0.5036
 5123TIP3   OH215374   4.677   4.317   2.288 -0.1144  0.2023  0.6965
 5123TIP3    H115375   4.708   4.407   2.297 -0.2916  0.5274 -1.4447
 5123TIP3    H215376   4.754   4.263   2.305 -0.0610  0.7197  2.2262
 5124TIP3   OH215377   0.003   0.453   3.327  0.5986  0.1585 -0.1726
 5124TIP3    H115378   0.089   0.468   3.365  0.0985 -0.5896  1.3280
 5124TIP3    H215379  -0.002   0.358   3.316 -0.0600  0.1919 -0.1968
 5125TIP3   OH215380   0.219   4.173   4.381 -0.6280 -0.5030 -0.3708
 5125TIP3    H115381   0.306   4.137   4.399 -0.7654 -1.7317 -1.9021
 5125TIP3    H215382   0.169   4.158   4.461  1.3694  3.1941  1.8256
 5126TIP3   OH215383   0.987   5.447   4.630  0.0258  0.5161 -0.5101
 5126TIP3    H115384   0.899   5.445   4.592  0.2045  1.0080 -0.9523
 5126TIP3    H215385   1.027   5.526   4.594  0.9692 -0.1838 -1.0174
 5127TIP3   OH215386   4.982   5.878   3.224 -0.2037  0.1427  0.0786
 5127TIP3    H115387   4.906   5.875   3.282  1.0036 -1.3194  1.6658
 5127TIP3    H215388   5.012   5.969   3.229 -0.0291  0.0118  1.9269
 5128TIP3   OH215389   2.114   4.626   0.664 -0.2019  0.0293  0.3211
 5128TIP3    H115390   2.076   4.556   0.612 -0.2458  0.0178  0.3684
 5128TIP3    H215391   2.040   4.661   0.715 -0.3128  0.5293 -0.1707
 5129TIP3   OH215392   3.781   0.934   3.212  0.3332 -0.0544 -0.0101
 5129TIP3    H115393   3.695   0.943   3.254 -0.5067 -0.9325 -1.4698
 5129TIP3    H215394   3.762   0.896   3.127  2.3092 -1.4825  0.1390
 5130TIP3   OH215395   2.381   5.275   2.845 -0.0739 -0.0711  0.5742
 5130TIP3    H115396   2.467   5.277   2.803  0.1302 -2.1785  0.8156
 5130TIP3    H215397   2.393   5.223   2.924 -1.1934  1.0995  1.5552
 5131TIP3   OH215398   5.426   4.354   4.906  0.3454 -0.1611  0.1621
 5131TIP3    H115399   5.495   4.302   4.946  0.2038 -0.1334  0.4518
 5131TIP3    H215400   5.433   4.440   4.949  1.0748  0.3096 -0.8644
 5132TIP3   OH215401   4.365   3.959   1.676  0.4682 -0.2575 -0.0426
 5132TIP3    H115402   4.296   3.997   1.730 -0.6741 -0.2405 -1.4541
 5132TIP3    H215403   4.444   3.964   1.731 -0.5879 -0.0964  1.5331
 5133TIP3   OH215404   0.910   1.232   1.920 -0.8452  0.8407 -0.2053
 5133TIP3    H115405   0.989   1.258   1.872  1.5617 -1.0838  2.4022
 5133TIP3    H215406   0.866   1.171   1.862  0.1279  1.1708 -1.3332
 5134TIP3   OH215407   5.237   3.437   0.296  0.1314  0.3327 -0.4336
 5134TIP3    H115408   5.158   3.464   0.342  0.5293  1.0304 -0.1515
 5134TIP3    H215409   5.265   3.515   0.248  1.0057  0.2869 -0.0146
 5135TIP3   OH215410   3.693   4.889   4.575 -0.1699  0.1853  0.0345
 5135TIP3    H115411   3.728   4.838   4.502 -1.5990  0.0935 -0.6145
 5135TIP3    H215412   3.605   4.854   4.589 -0.8584  1.8623  0.1450
 5136TIP3   OH215413   2.107   5.387   0.750 -0.6669 -0.1993  0.2906
 5136TIP3    H115414   2.123   5.389   0.656 -2.1984 -0.5748 -0.0053
 5136TIP3    H215415   2.174   5.327   0.784 -0.8545 -1.0206 -0.7349
 5137TIP3   OH215416   2.390   5.488   3.202  0.5065 -0.6203  0.3107
 5137TIP3    H115417   2.469   5.468   3.151  0.9117 -0.9208  1.0530
 5137TIP3    H215418   2.320   5.439   3.159  0.6987 -0.2760 -0.4098
 5138TIP3   OH215419   4.385   4.618   4.298  0.6893 -0.2547 -0.1969
 5138TIP3    H115420   4.332   4.683   4.343 -0.5508 -0.1685 -1.7024
 5138TIP3    H215421   4.389   4.543   4.358  1.6859  0.9465  1.3239
 5139TIP3   OH215422   2.863   3.868   3.454  0.2033 -0.1447 -0.2592
 5139TIP3    H115423   2.852   3.950   3.503 -1.2914 -0.3882 -0.1227
 5139TIP3    H215424   2.914   3.812   3.511 -1.1597 -0.2778  0.8866
 5140TIP3   OH215425   1.663   0.944   3.061  0.2061 -0.1179  0.0295
 5140TIP3    H115426   1.634   0.929   3.151  1.1314  0.5082  0.4493
 5140TIP3    H215427   1.712   0.864   3.039 -1.1676 -0.8652 -0.4288
 5141TIP3   OH215428   5.542   1.973   3.727  0.0396  0.1996 -0.2141
 5141TIP3    H115429   5.530   2.065   3.748 -1.2529 -0.1074  0.5192
 5141TIP3    H215430   5.558   1.931   3.812  0.9580 -0.2224 -0.5774
 5142TIP3   OH215431   0.851   0.685   0.894  0.1668  0.0152  0.6264
 5142TIP3    H115432   0.850   0.602   0.846 -2.2957 -0.0691  0.6609
 5142TIP3    H215433   0.892   0.663   0.978 -0.9256 -1.3393  0.8508
 5143TIP3   OH215434   3.805   5.222   3.155  0.1612 -0.4043 -0.1784
 5143TIP3    H115435   3.723   5.173   3.151 -0.5897  0.8530 -1.9568
 5143TIP3    H215436   3.780   5.307   3.193  0.8555 -0.3745  0.2280
 5144TIP3   OH215437   5.299   5.538   3.871  0.4593 -0.4066 -0.1822
 5144TIP3    H115438   5.391   5.518   3.891  0.1688  1.2100  3.8175
 5144TIP3    H215439   5.260   5.555   3.956 -3.1994  0.6247 -1.8779
 5145TIP3   OH215440   5.178   3.539   4.493 -0.0246  0.0673 -0.1077
 5145TIP3    H115441   5.227   3.505   4.418 -0.8516 -2.3641  0.3591
 5145TIP3    H215442   5.204   3.482   4.566 -1.9949 -0.0200  0.5865
 5146TIP3   OH215443   2.543   0.349   1.879 -0.2619  0.2543 -0.1304
 5146TIP3    H115444   2.553   0.260   1.912  0.4530  0.6148  0.6829
 5146TIP3    H215445   2.485   0.341   1.804 -2.0630 -0.6161  1.2652
 5147TIP3   OH215446   5.520   4.339   2.983  0.1010  0.2518  0.0708
 5147TIP3    H115447   5.572   4.360   2.905  0.7695 -2.1340 -0.1999
 5147TIP3    H215448   5.435   4.381   2.967  0.8869  1.4827 -0.9919
 5148TIP3   OH215449   6.183   2.978   3.105 -0.4142  0.1247 -0.7242
 5148TIP3    H115450   6.136   2.913   3.157  0.5386  0.2162  0.2964
 5148TIP3    H215451   6.169   2.952   3.014  2.0030 -3.0603 -0.3491
 5149TIP3   OH215452   4.781   2.762   4.734  0.5117 -0.0264 -0.1656
 5149TIP3    H115453   4.765   2.693   4.798  0.2174 -2.2559 -2.4790
 5149TIP3    H215454   4.695   2.797   4.714  0.7233  1.5575  1.4869
 5150TIP3   OH215455   2.088   1.664   3.260  0.7180 -0.1122 -0.2397
 5150TIP3    H115456   2.096   1.656   3.165 -1.6377 -2.1907 -0.3614
 5150TIP3    H215457   2.142   1.593   3.295  0.6261 -0.1025 -0.0755
 5151TIP3   OH215458   6.031   2.838   2.484 -0.9157 -0.3100  0.4506
 5151TIP3    H115459   6.067   2.810   2.400 -1.4668 -0.4476  0.2546
 5151TIP3    H215460   6.027   2.934   2.478 -1.0023 -0.3228  0.2982
 5152TIP3   OH215461   3.128   2.515   2.192  0.4630  0.8460  0.1391
 5152TIP3    H115462   3.168   2.511   2.279  0.3539  0.0472  0.1578
 5152TIP3    H215463   3.047   2.466   2.201  0.2485  1.1142 -0.3119
 5153TIP3   OH215464   5.019   3.642   2.389 -0.0825 -0.2352 -0.1201
 5153TIP3    H115465   5.066   3.717   2.424 -0.2324 -0.9770  1.7773
 5153TIP3    H215466   5.088   3.584   2.356  0.0732  0.3589 -0.8717
 5154TIP3   OH215467   3.716   4.344   3.296 -0.1151  0.0829 -0.7398
 5154TIP3    H115468   3.652   4.405   3.332  0.4517 -0.1480  0.7768
 5154TIP3    H215469   3.794   4.357   3.351  0.9566 -0.0235 -2.1873
 5155TIP3   OH215470   4.689   3.786   4.154 -0.6425 -0.0959  0.2467
 5155TIP3    H115471   4.782   3.777   4.175 -0.5158  1.3477  0.3657
 5155TIP3    H215472   4.644   3.740   4.226 -0.0800  1.2912  1.5393
 5156TIP3   OH215473   5.133   5.040   0.288  0.0234  0.1463 -0.2242
 5156TIP3    H115474   5.225   5.063   0.276 -0.0900  1.2997  0.8909
 5156TIP3    H215475   5.126   4.951   0.256  1.9999 -0.7498  1.5968
 5157TIP3   OH215476   3.933   1.778   4.844 -0.1634  0.0080 -0.0212
 5157TIP3    H115477   4.008   1.835   4.825 -0.2622 -0.0790 -0.6988
 5157TIP3    H215478   3.966   1.690   4.828 -0.3253 -0.0488 -0.0447
 5158TIP3   OH215479   0.928   5.442   1.860 -0.2653 -0.2513  0.0301
 5158TIP3    H115480   0.889   5.447   1.772  0.0339  0.2247 -0.0820
 5158TIP3    H215481   0.875   5.501   1.912 -0.7169 -0.8717  0.2809
 5159TIP3   OH215482   5.573   4.653   0.801  0.1486 -0.0304 -0.6232
 5159TIP3    H115483   5.491   4.697   0.778 -0.6599 -3.0109 -4.3969
 5159TIP3    H215484   5.639   4.695   0.746  0.0947 -0.9481 -1.4156
 5160TIP3   OH215485   2.749   4.149   5.090 -0.0153  0.6155 -0.5385
 5160TIP3    H115486   2.671   4.137   5.035  1.3557 -0.9816 -2.2544
 5160TIP3    H215487   2.816   4.179   5.030  1.5692 -1.2503  0.2013
 5161TIP3   OH215488   3.299   3.217   3.247 -0.0351 -0.0319  0.5487
 5161TIP3    H115489   3.311   3.278   3.174 -2.6916 -0.3351 -0.2298
 5161TIP3    H215490   3.374   3.158   3.240 -0.8156 -0.8366 -2.7913
 5162TIP3   OH215491   2.714   0.556   1.954  0.1427 -0.1369 -0.1517
 5162TIP3    H115492   2.648   0.492   1.925  0.0174 -0.5591  0.9899
 5162TIP3    H215493   2.703   0.630   1.895 -0.5934 -0.6583 -0.6962
 5163TIP3   OH215494   4.606   2.343   0.841 -0.4546 -0.2176  0.0483
 5163TIP3    H115495   4.700   2.358   0.856 -0.7254  1.8641 -0.0040
 5163TIP3    H215496   4.595   2.355   0.747 -0.8169 -0.1841  0.0950
 5164TIP3   OH215497   0.250   5.001   1.031 -0.1015  0.0793 -0.3327
 5164TIP3    H115498   0.172   5.035   1.075  0.4275  0.8705  0.0072
 5164TIP3    H215499   0.299   4.957   1.101  0.5669  1.0334 -0.1798
 5165TIP3   OH215500   0.803   4.798   4.603 -0.0221 -0.4653 -0.2409
 5165TIP3    H115501   0.890   4.835   4.590  0.4328 -1.2234  0.5472
 5165TIP3    H215502   0.769   4.784   4.515 -0.1369  1.5833 -0.5789
 5166TIP3   OH215503   0.690   4.252   3.209  0.1913 -0.0726  0.2544
 5166TIP3    H115504   0.688   4.158   3.192 -0.1239  0.3169 -2.0686
 5166TIP3    H215505   0.705   4.258   3.304 -1.6531 -2.4435  0.8003
 5167TIP3   OH215506   5.948   6.009   3.519 -0.8581 -0.0309 -0.9618
 5167TIP3    H115507   6.024   6.039   3.468 -0.3038 -1.7505 -1.2199
 5167TIP3    H215508   5.957   5.914   3.521 -2.4726 -0.1964 -0.1119
 5168TIP3   OH215509   6.331   2.276   3.011 -0.6984 -0.2505 -0.1022
 5168TIP3    H115510   6.245   2.270   3.053 -1.9160  0.8003 -2.3006
 5168TIP3    H215511   6.356   2.368   3.021 -1.8598  0.4967 -3.0609
 5169TIP3   OH215512   2.186   4.194   0.973  0.1050  0.0432 -0.6821
 5169TIP3    H115513   2.235   4.265   1.013  0.0627 -0.2310 -0.1343
 5169TIP3    H215514   2.216   4.192   0.882 -0.2240  1.0396 -0.8164
 5170TIP3   OH215515   4.411   0.752   2.190  0.7719  0.2239 -0.0817
 5170TIP3    H115516   4.321   0.776   2.213 -0.2048 -1.6587 -1.6445
 5170TIP3    H215517   4.464   0.787   2.262 -1.1960  1.3365  0.9176
 5171TIP3   OH215518   4.760   4.596   2.798 -0.0117 -0.6867 -0.3858
 5171TIP3    H115519   4.847   4.585   2.836 -1.5318  0.1057  3.9133
 5171TIP3    H215520   4.748   4.691   2.791 -0.1996 -0.7984 -1.9690
 5172TIP3   OH215521   1.141   1.030   0.241 -0.3106 -0.0261  0.5757
 5172TIP3    H115522   1.111   1.118   0.262 -0.7256 -0.1046  0.3201
 5172TIP3    H215523   1.105   0.974   0.309 -2.8270 -0.4971 -1.0200
 5173TIP3   OH215524   1.817   3.448   3.988 -0.2321  0.1972  0.3937
 5173TIP3    H115525   1.801   3.535   4.026 -1.1140  1.0062 -1.6690
 5173TIP3    H215526   1.768   3.448   3.906  2.4093 -1.0249 -1.3361
 5174TIP3   OH215527   2.343   1.830   3.582  0.0030 -0.5049 -0.1175
 5174TIP3    H115528   2.429   1.810   3.546 -0.6236 -0.8503 -1.4788
 5174TIP3    H215529   2.302   1.887   3.517 -1.1805 -1.1919 -0.0065
 5175TIP3   OH215530   5.592   1.773   3.007 -0.1655 -0.0619  0.2946
 5175TIP3    H115531   5.561   1.712   2.941  0.2960  0.6131 -0.5650
 5175TIP3    H215532   5.543   1.750   3.086  0.2329 -1.7620  0.0925
 5176TIP3   OH215533   3.880   0.743   2.668  0.5687 -0.3820 -0.9587
 5176TIP3    H115534   3.914   0.679   2.730 -0.9701 -0.6478 -0.3476
 5176TIP3    H215535   3.898   0.704   2.582 -0.2779 -1.6463 -0.6018
 5177TIP3   OH215536   0.444   2.258   4.187 -0.0273  0.1129 -0.0659
 5177TIP3    H115537   0.365   2.251   4.242  0.9026  0.7339  1.4060
 5177TIP3    H215538   0.477   2.168   4.182 -1.2866 -0.3255 -1.4745
 5178TIP3   OH215539   4.085   4.377   1.105  0.2174  0.3455  0.4855
 5178TIP3    H115540   4.002   4.357   1.061  1.2261 -0.4860 -1.1485
 5178TIP3    H215541   4.107   4.465   1.076  0.3446  0.2048  0.1339
 5179TIP3   OH215542   2.960   5.349   4.615  0.0452 -0.5808  0.2734
 5179TIP3    H115543   3.015   5.366   4.691 -0.9363 -1.2436  1.1642
 5179TIP3    H215544   3.021   5.317   4.548  1.0062  0.5854  0.5617
 5180TIP3   OH215545   3.754   3.235   1.992 -0.3940  0.4874  0.6055
 5180TIP3    H115546   3.774   3.325   1.969  0.6185  0.6126  1.8534
 5180TIP3    H215547   3.760   3.187   1.910 -4.3753  2.0195 -0.8158
 5181TIP3   OH215548   5.904   0.341   0.773 -0.2039 -0.2411 -0.6454
 5181TIP3    H115549   5.990   0.368   0.741 -0.3797  1.6055  0.3410
 5181TIP3    H215550   5.867   0.289   0.701  2.1195 -2.0368 -0.6872
 5182TIP3   OH215551   3.817  -0.016   2.987 -0.2815 -0.0697  0.4418
 5182TIP3    H115552   3.842  -0.058   2.905  1.2572  0.1972  0.7369
 5182TIP3    H215553   3.837   0.077   2.974  1.1592 -0.2045  1.5209
 5183TIP3   OH215554   5.884   4.895   0.950 -0.2504 -0.6695  0.5873
 5183TIP3    H115555   5.939   4.971   0.970 -0.7407  0.4485 -1.9328
 5183TIP3    H215556   5.942   4.819   0.965  1.6834  0.4090 -0.8808
 5184TIP3   OH215557   5.750   4.334   4.864 -0.8546 -0.2976 -0.1795
 5184TIP3    H115558   5.760   4.261   4.802 -0.8308 -0.4000 -0.0547
 5184TIP3    H215559   5.703   4.401   4.814 -0.4655 -0.2156 -0.4474
 5185TIP3   OH215560   2.591   4.150   4.880 -0.4841 -0.3321 -0.3558
 5185TIP3    H115561   2.573   4.065   4.840 -3.3011  1.0891 -2.5240
 5185TIP3    H215562   2.645   4.195   4.815 -0.7529  0.2379 -0.1858
 5186TIP3   OH215563   1.286   1.772   3.816 -0.1145 -0.0379 -0.0440
 5186TIP3    H115564   1.264   1.862   3.793 -0.6855 -0.1473  0.0534
 5186TIP3    H215565   1.356   1.780   3.882 -1.5661  0.4181  1.5185
 5187TIP3   OH215566   0.131   2.558   0.025  0.1702  0.6127  0.1593
 5187TIP3    H115567   0.080   2.480   0.004  0.3645  0.5431 -0.0550
 5187TIP3    H215568   0.087   2.595   0.102 -0.3137  0.6537 -0.1282
 5188TIP3   OH215569   3.905   0.156   5.037 -0.0655 -0.2693 -0.6654
 5188TIP3    H115570   3.939   0.120   4.954  0.0402 -1.9748  0.0831
 5188TIP3    H215571   3.944   0.100   5.104 -0.8363  0.5662  0.4961
 5189TIP3   OH215572   3.467   3.640   0.821 -0.8989  0.3273  0.3384
 5189TIP3    H115573   3.523   3.712   0.793 -0.4411  0.9264  2.5960
 5189TIP3    H215574   3.524   3.563   0.822 -1.4563 -0.2359 -2.3573
 5190TIP3   OH215575   5.866   2.349   0.075  0.1161 -0.5119 -0.1490
 5190TIP3    H115576   5.920   2.281   0.117 -0.9071 -0.8691  0.6281
 5190TIP3    H215577   5.798   2.300   0.029 -0.1040 -0.0379 -0.3278
 5191TIP3   OH215578   4.434   3.188   3.771  0.4682  0.4202  0.2807
 5191TIP3    H115579   4.421   3.141   3.689 -0.2339 -0.4162  0.8529
 5191TIP3    H215580   4.447   3.279   3.745  0.4539  0.1320 -0.7633
 5192TIP3   OH215581   1.484   0.277   1.605  0.4085 -0.2070  0.1883
 5192TIP3    H115582   1.424   0.323   1.546 -0.9573 -1.4447  0.5609
 5192TIP3    H215583   1.494   0.336   1.679  0.3209  0.3720 -0.2492
 5193TIP3   OH215584   4.355   1.378   4.040  0.4150 -0.0888  0.4582
 5193TIP3    H115585   4.419   1.334   4.096 -0.2264 -2.3385 -0.4980
 5193TIP3    H215586   4.396   1.381   3.954 -0.1162 -0.0823  0.2030
 5194TIP3   OH215587   1.297   5.202   2.633  0.2285  0.2074 -0.0033
 5194TIP3    H115588   1.374   5.254   2.609 -0.8664  2.1109  0.4011
 5194TIP3    H215589   1.268   5.239   2.716  0.4663 -2.3382  1.2996
 5195TIP3   OH215590   1.822   5.361   0.839  0.2841  0.1145  0.6580
 5195TIP3    H115591   1.904   5.404   0.861  0.1889  0.1188  1.0017
 5195TIP3    H215592   1.813   5.374   0.744  0.3290  0.7190  0.7343
 5196TIP3   OH215593   0.700   5.839   4.457 -0.2913 -0.3254  0.5446
 5196TIP3    H115594   0.719   5.825   4.364 -1.0507  0.3673  0.2695
 5196TIP3    H215595   0.632   5.774   4.477 -0.4189 -0.2073  0.5013
 5197TIP3   OH215596   0.581   2.585   3.008 -0.0225 -0.0007  0.4159
 5197TIP3    H115597   0.561   2.512   3.066 -0.1658  0.9119  1.5583
 5197TIP3    H215598   0.638   2.642   3.060 -3.1178  2.7244  1.1248
 5198TIP3   OH215599   5.367   2.498   4.998 -0.3024  0.2374  0.6061
 5198TIP3    H115600   5.345   2.406   4.987 -2.0785  0.6671  0.2454
 5198TIP3    H215601   5.438   2.514   4.936 -2.4016 -0.0969 -2.0534
 5199TIP3   OH215602   4.292   4.057   4.210 -1.1128 -0.0122 -0.9613
 5199TIP3    H115603   4.301   3.962   4.199 -1.2211 -0.5452  2.4696
 5199TIP3    H215604   4.199   4.073   4.192 -1.3461 -0.7514 -0.4683
 5200TIP3   OH215605   3.592   1.497   0.629  0.2987  0.0892  0.2835
 5200TIP3    H115606   3.683   1.522   0.615  0.1647  0.1142 -0.6137
 5200TIP3    H215607   3.557   1.484   0.541 -0.4000 -0.5189  0.6394
 5201TIP3   OH215608   0.957   4.842   1.256 -0.1720  0.5813  0.5948
 5201TIP3    H115609   0.882   4.824   1.313 -0.9601 -2.1442 -1.0927
 5201TIP3    H215610   1.003   4.758   1.251 -0.1071  0.6810 -2.6213
 5202TIP3   OH215611   6.088   4.799   2.123  0.0039  0.1299  0.0679
 5202TIP3    H115612   6.155   4.859   2.091 -0.9737  1.4502  0.4083
 5202TIP3    H215613   6.017   4.805   2.059 -0.5651  0.2280  0.6852
 5203TIP3   OH215614   5.733   5.861   3.077  0.0515  0.3217 -0.0354
 5203TIP3    H115615   5.668   5.913   3.029 -0.5916  0.2600  0.7370
 5203TIP3    H215616   5.814   5.910   3.069 -0.4829  1.3152  0.4514
 5204TIP3   OH215617   1.355   5.783   2.887  0.8902 -0.4952  0.2429
 5204TIP3    H115618   1.406   5.829   2.820  0.7829 -1.3934 -0.4798
 5204TIP3    H215619   1.279   5.749   2.839  1.0634 -1.5699  0.7118
 5205TIP3   OH215620   1.141   0.295   4.991  0.2001 -0.0902  0.0730
 5205TIP3    H115621   1.214   0.346   4.955  1.0104 -1.1210  0.1826
 5205TIP3    H215622   1.181   0.243   5.061 -0.3466 -1.6315 -0.7037
 5206TIP3   OH215623   0.103   0.603   0.200 -0.6862  0.3112 -0.2627
 5206TIP3    H115624   0.183   0.639   0.161  0.3802  0.8217  2.1873
 5206TIP3    H215625   0.032   0.656   0.164  0.1806  0.6155 -1.5948
 5207TIP3   OH215626   2.610   2.087   1.550  0.0052 -0.4914  0.7946
 5207TIP3    H115627   2.668   2.061   1.478 -0.6178 -1.5088  0.6309
 5207TIP3    H215628   2.560   2.007   1.569 -0.6008  0.0793  1.6253
 5208TIP3   OH215629   0.158   2.020   1.218 -0.1346  0.2322 -0.0978
 5208TIP3    H115630   0.086   1.958   1.207  0.0562  0.2831 -2.0187
 5208TIP3    H215631   0.186   2.040   1.129  1.2603  1.3962  0.5575
 5209TIP3   OH215632   5.704   3.178   5.141  0.0087 -0.6798  0.0372
 5209TIP3    H115633   5.780   3.121   5.156  0.2620 -0.2950  0.2521
 5209TIP3    H215634   5.731   3.262   5.177 -0.4875 -0.5140  0.0219
 5210TIP3   OH215635   5.506   2.574   2.790  0.4576 -0.5073 -0.4974
 5210TIP3    H115636   5.470   2.616   2.868  1.2522  1.4739 -1.1323
 5210TIP3    H215637   5.445   2.504   2.770 -0.7678  0.1296  0.8225
 5211TIP3   OH215638   2.063   3.992   4.896  0.1809 -0.0021  0.3913
 5211TIP3    H115639   1.982   3.959   4.857 -0.2412 -0.3515  1.5269
 5211TIP3    H215640   2.132   3.939   4.856 -0.4719 -2.3788  2.1686
 5212TIP3   OH215641   6.337   2.762   1.419 -0.1391 -0.0557  0.5008
 5212TIP3    H115642   6.299   2.698   1.480 -0.7048 -0.5542 -0.3561
 5212TIP3    H215643   6.426   2.730   1.405 -0.7133 -1.2414 -0.6724
 5213TIP3   OH215644   5.281   3.633   0.100 -0.4129  0.3256 -0.1238
 5213TIP3    H115645   5.193   3.628   0.063 -0.3818 -0.3702 -0.1151
 5213TIP3    H215646   5.311   3.722   0.079 -1.3067  0.7537  0.3255
 5214TIP3   OH215647   2.748   1.064   3.217 -0.2792 -0.8619 -0.3873
 5214TIP3    H115648   2.729   1.134   3.280 -0.3435  0.4635 -1.8184
 5214TIP3    H215649   2.714   0.985   3.258 -3.0484  0.3937  0.0009
 5215TIP3   OH215650   6.274   0.630   1.758  0.6899 -0.3043  0.0939
 5215TIP3    H115651   6.237   0.693   1.697  0.7341  1.7115  2.0537
 5215TIP3    H215652   6.221   0.637   1.837  1.6208 -1.6504  0.9037
 5216TIP3   OH215653   4.178   4.340   0.788 -0.5433  0.3462 -0.1684
 5216TIP3    H115654   4.114   4.411   0.782  0.0522  0.8099 -1.9886
 5216TIP3    H215655   4.140   4.269   0.736  0.0119  0.3048 -0.5310
 5217TIP3   OH215656   2.933   2.111   2.758  0.2934  0.4106  0.3787
 5217TIP3    H115657   2.858   2.072   2.803  0.1053  0.2091 -0.1013
 5217TIP3    H215658   2.976   2.164   2.825  0.5930 -0.6655  1.0540
 5218TIP3   OH215659   2.745   2.377   0.044 -0.2480 -0.3608  0.0101
 5218TIP3    H115660   2.787   2.414   0.121 -1.0750  0.1112  0.2510
 5218TIP3    H215661   2.814   2.372  -0.022  0.2262  0.2025  0.4568
 5219TIP3   OH215662   5.283   0.199   4.277 -0.3470 -0.0658 -0.4183
 5219TIP3    H115663   5.197   0.240   4.286 -0.9237 -0.5306 -3.0632
 5219TIP3    H215664   5.343   0.272   4.262 -0.5244  0.1524 -0.0792
 5220TIP3   OH215665   3.045   2.199   3.057 -0.2298 -0.7291  0.2921
 5220TIP3    H115666   3.057   2.161   3.145 -1.3614 -0.3912  0.6086
 5220TIP3    H215667   2.960   2.243   3.061 -0.1519 -0.4344 -0.8873
 5221TIP3   OH215668   2.672   2.126   4.927  0.3124 -0.2510  0.4788
 5221TIP3    H115669   2.628   2.153   4.846 -1.4220 -1.9461  0.7996
 5221TIP3    H215670   2.661   2.031   4.931  0.0510 -0.1920  2.8544
 5222TIP3   OH215671   3.981   5.739   3.026  0.5358 -0.0558  0.2843
 5222TIP3    H115672   3.920   5.705   3.092 -0.7240  0.0660 -0.7685
 5222TIP3    H215673   3.999   5.664   2.970  2.2936 -0.3814  1.2308
 5223TIP3   OH215674   6.008   4.784   2.389  0.2186 -0.1186  0.5591
 5223TIP3    H115675   6.037   4.863   2.433  0.4697  0.2879 -0.3061
 5223TIP3    H215676   6.051   4.787   2.303 -0.7527 -0.5488  0.0371
 5224TIP3   OH215677   3.101   0.355   1.679  0.3284  0.3580 -0.1202
 5224TIP3    H115678   3.188   0.343   1.717 -0.6363  0.0648  2.1295
 5224TIP3    H215679   3.103   0.304   1.598  2.1887  0.2462 -0.0431
 5225TIP3   OH215680   2.053   2.397   2.871 -0.4752 -0.1765  0.0071
 5225TIP3    H115681   2.009   2.454   2.807 -0.8923 -0.5388 -0.0347
 5225TIP3    H215682   2.130   2.446   2.898 -1.1681  0.6929  0.4583
 5226TIP3   OH215683   0.980   4.017   0.297 -0.2536  0.6630  0.1014
 5226TIP3    H115684   1.020   3.942   0.340 -0.2561  1.1337  0.9568
 5226TIP3    H215685   1.034   4.033   0.220 -0.6971 -0.6734 -0.5084
 5227TIP3   OH215686   1.708   1.355   0.447 -0.4682  0.1671 -0.1186
 5227TIP3    H115687   1.777   1.309   0.494 -0.4193 -0.4116 -0.7422
 5227TIP3    H215688   1.631   1.347   0.502 -0.4912 -0.7763 -0.2817
 5228TIP3   OH215689   1.479   2.649   2.724  0.0092 -0.4877  0.5978
 5228TIP3    H115690   1.544   2.591   2.763  1.9000  0.3679 -1.0918
 5228TIP3    H215691   1.445   2.699   2.798  1.0718 -1.1565  1.5787
 5229TIP3   OH215692   2.851   4.788   5.041  0.7620 -0.1908 -0.3269
 5229TIP3    H115693   2.929   4.737   5.020 -0.2817 -1.7726 -0.4918
 5229TIP3    H215694   2.790   4.725   5.078 -0.9600  0.7315 -1.4743
 5230TIP3   OH215695   5.454   1.197   0.207 -0.3068 -0.3367  0.2745
 5230TIP3    H115696   5.547   1.181   0.224 -0.3440  1.5170  3.0233
 5230TIP3    H215697   5.425   1.121   0.158  2.2942 -1.7727  0.7511
 5231TIP3   OH215698   5.748   4.794   2.524 -0.1204  0.0066 -0.0762
 5231TIP3    H115699   5.832   4.789   2.477 -0.1517 -0.5987 -0.0813
 5231TIP3    H215700   5.770   4.836   2.607  0.3653 -0.9384  0.2905
 5232TIP3   OH215701   0.577   4.267   0.078  0.4593 -0.0621 -0.4957
 5232TIP3    H115702   0.637   4.282   0.005 -1.0402  0.4086 -1.6892
 5232TIP3    H215703   0.552   4.354   0.107 -1.8318 -0.1345 -1.9517
 5233TIP3   OH215704   3.807   4.280   4.768  0.0986  0.0735 -0.1574
 5233TIP3    H115705   3.727   4.306   4.722  0.1823 -0.0146 -0.3552
 5233TIP3    H215706   3.804   4.184   4.767  0.7386  0.0529 -1.1078
 5234TIP3   OH215707   3.111   3.195   1.771  0.4447 -0.1529  0.4501
 5234TIP3    H115708   3.124   3.180   1.678  0.4039  1.4436  0.1666
 5234TIP3    H215709   3.021   3.167   1.788  0.2911  0.0093 -0.0885
 5235TIP3   OH215710   4.730   4.893   0.019 -0.1309  0.0945 -0.0413
 5235TIP3    H115711   4.672   4.959  -0.019  0.0140  1.3688  1.7926
 5235TIP3    H215712   4.715   4.900   0.114  1.3505 -1.1417  0.3234
 5236TIP3   OH215713   4.585   1.303   2.123 -1.1591  0.1155 -0.2183
 5236TIP3    H115714   4.650   1.350   2.175  0.8440 -2.1793 -0.4747
 5236TIP3    H215715   4.593   1.340   2.035 -2.0875  1.5963  0.2817
 5237TIP3   OH215716   3.931   1.391   2.423 -0.0619 -0.3331  0.2849
 5237TIP3    H115717   3.992   1.330   2.381  0.1571  0.5172 -0.6792
 5237TIP3    H215718   3.976   1.476   2.419 -0.2125 -0.1480  1.9057
 5238TIP3   OH215719   4.280   1.621   3.807 -0.1716  0.5868 -0.1271
 5238TIP3    H115720   4.326   1.670   3.876  0.1318  0.3705 -0.1723
 5238TIP3    H215721   4.190   1.653   3.811  0.5276  2.9737 -1.7969
 5239TIP3   OH215722   1.903   2.717   4.280  0.2538 -0.3737  0.1195
 5239TIP3    H115723   1.969   2.751   4.220 -1.4364 -0.5368 -1.9417
 5239TIP3    H215724   1.878   2.793   4.334  1.1991 -0.0111  0.0637
 5240TIP3   OH215725   1.473   2.780   4.104 -0.1695  0.2798  0.0842
 5240TIP3    H115726   1.377   2.774   4.110 -0.2280  1.5772  0.7350
 5240TIP3    H215727   1.499   2.821   4.186  1.0313 -0.7017  0.2226
 5241TIP3   OH215728   0.700   4.884   2.047 -0.6734  0.7477 -0.5210
 5241TIP3    H115729   0.635   4.952   2.067 -0.4118  0.5825  1.0554
 5241TIP3    H215730   0.662   4.804   2.084 -0.6598  0.1629 -1.7461
 5242TIP3   OH215731   4.141   0.398   0.197 -0.0722 -0.0355  0.8485
 5242TIP3    H115732   4.108   0.314   0.231  0.2129 -0.7330 -0.4976
 5242TIP3    H215733   4.149   0.383   0.103  0.9037  1.2174  0.7145
 5243TIP3   OH215734   2.534   0.341   2.261 -0.6686 -0.2165 -0.0298
 5243TIP3    H115735   2.536   0.430   2.226 -1.0961 -0.2409 -0.1233
 5243TIP3    H215736   2.504   0.287   2.188 -0.3501 -0.4452  0.0093
 5244TIP3   OH215737   6.149   1.248   2.766 -0.3157 -0.0195  0.1369
 5244TIP3    H115738   6.120   1.243   2.674  3.1312  0.9966 -1.1499
 5244TIP3    H215739   6.242   1.229   2.762 -0.1730 -0.5923  3.6107
 5245TIP3   OH215740   2.455   1.987   3.852 -0.0150  0.3960  0.0658
 5245TIP3    H115741   2.438   2.041   3.776 -1.5268 -0.0051  0.0879
 5245TIP3    H215742   2.540   2.018   3.886  1.1196  0.0107 -2.2366
 5246TIP3   OH215743   3.460   3.743   1.611  0.4486 -0.2827 -0.2029
 5246TIP3    H115744   3.394   3.797   1.655 -0.7907 -1.3060 -0.7276
 5246TIP3    H215745   3.486   3.679   1.677 -0.3342 -0.9128 -0.4913
 5247TIP3   OH215746   1.471   2.997   4.964 -0.4778 -0.0301  0.6832
 5247TIP3    H115747   1.415   2.920   4.955 -1.7055  1.0271 -1.9618
 5247TIP3    H215748   1.508   3.010   4.877  1.9351  0.8096  1.7421
 5248TIP3   OH215749   4.043   4.742   1.179  0.6277 -0.0942  0.2649
 5248TIP3    H115750   4.103   4.692   1.124 -0.3014 -0.8653 -0.0829
 5248TIP3    H215751   3.974   4.679   1.203 -0.2155  0.8449  0.3734
 5249TIP3   OH215752   0.782   2.131   3.877  0.3041 -0.1282  0.4199
 5249TIP3    H115753   0.689   2.121   3.898  0.6295  0.2596  2.1361
 5249TIP3    H215754   0.793   2.080   3.796 -1.0814 -1.4537  1.0120
 5250TIP3   OH215755   1.207   3.229   1.723 -0.7684 -0.0095 -0.4867
 5250TIP3    H115756   1.129   3.229   1.779 -0.7680 -0.3360 -0.4813
 5250TIP3    H215757   1.201   3.311   1.674 -0.9025  0.1606 -0.1920
 5251TIP3   OH215758   5.636   1.417   2.032  0.1226 -0.1372 -0.4392
 5251TIP3    H115759   5.630   1.483   1.963 -3.9330 -0.1237 -0.3468
 5251TIP3    H215760   5.544   1.396   2.052  1.1901 -2.6858  2.5348
 5252TIP3   OH215761   2.981   1.510   1.056  0.1224  0.6852  0.7483
 5252TIP3    H115762   3.054   1.487   1.113  0.1865  1.0126  0.7999
 5252TIP3    H215763   2.903   1.487   1.105  0.1770  0.9980  0.9792
 5253TIP3   OH215764   0.744   0.670   1.612  0.3921  0.3913  0.3371
 5253TIP3    H115765   0.829   0.638   1.580 -0.8256 -1.9046 -0.7755
 5253TIP3    H215766   0.726   0.616   1.689 -0.3142  0.5194  0.2597
 5254TIP3   OH215767   5.701   1.970   5.083 -0.1668  0.8359  0.2868
 5254TIP3    H115768   5.715   2.017   5.165 -0.4022  1.1681  0.1395
 5254TIP3    H215769   5.719   2.034   5.014 -0.7463  0.7945  0.0861
 5255TIP3   OH215770   0.744   1.774   0.584  0.2223  0.6193 -0.0117
 5255TIP3    H115771   0.714   1.686   0.608 -1.0510  0.8029 -0.8674
 5255TIP3    H215772   0.812   1.758   0.518 -1.9585  0.2732 -2.3193
 5256TIP3   OH215773   1.794   2.278   1.974 -0.0483  1.0478 -0.4837
 5256TIP3    H115774   1.829   2.364   1.950 -0.7079  0.9539 -1.8750
 5256TIP3    H215775   1.716   2.298   2.026 -0.6519  1.3238 -1.4661
 5257TIP3   OH215776   5.554   2.858   1.614 -0.6579 -0.2563 -0.3539
 5257TIP3    H115777   5.522   2.899   1.694 -0.7428 -0.1491 -0.4419
 5257TIP3    H215778   5.633   2.811   1.641 -0.5894 -0.0791 -0.2413
 5258TIP3   OH215779   0.709   5.574   4.835  0.0734  0.6468 -0.4276
 5258TIP3    H115780   0.647   5.645   4.817  0.7943  1.6667  0.8722
 5258TIP3    H215781   0.681   5.502   4.779 -2.3778  1.0037  0.2231
 5259TIP3   OH215782   1.147   5.887   2.610 -0.1051  0.4974 -0.0530
 5259TIP3    H115783   1.242   5.892   2.601  0.2100 -3.5920 -0.9650
 5259TIP3    H215784   1.114   5.902   2.521 -0.1071 -0.2535 -0.1859
 5260TIP3   OH215785   2.796   4.774   2.453  0.4478  0.1606  0.3525
 5260TIP3    H115786   2.828   4.743   2.368  1.0445 -1.0179  0.9752
 5260TIP3    H215787   2.857   4.845   2.476  0.6407  0.0959  0.0639
 5261TIP3   OH215788   2.967   1.096   0.890 -0.2750  0.8319 -0.3877
 5261TIP3    H115789   2.888   1.124   0.937 -0.9760  0.0260 -1.0358
 5261TIP3    H215790   2.987   1.168   0.831 -0.0870  1.3504  0.2990
 5262TIP3   OH215791   0.040   2.772   2.947  0.1770  0.4982 -0.3299
 5262TIP3    H115792   0.106   2.738   2.887  3.1010  0.6754  2.5185
 5262TIP3    H215793   0.055   2.867   2.948 -0.0993  0.5385  0.3740
 5263TIP3   OH215794   3.461   1.552   2.543  0.0109 -0.3934  1.0492
 5263TIP3    H115795   3.398   1.481   2.536  0.9271 -1.0740 -0.9351
 5263TIP3    H215796   3.407   1.631   2.546 -1.0314 -0.8412 -2.1032
 5264TIP3   OH215797   2.192   4.416   3.293  0.5344 -0.7903  0.1038
 5264TIP3    H115798   2.280   4.383   3.310  0.7848 -0.7430 -1.0087
 5264TIP3    H215799   2.165   4.372   3.212  0.0358  0.1189 -0.2474
 5265TIP3   OH215800   6.011   3.325   4.302  0.2892 -0.4646 -0.9295
 5265TIP3    H115801   6.021   3.370   4.218  0.4817  1.2264 -0.0475
 5265TIP3    H215802   6.097   3.286   4.319  0.5887  0.1541 -0.9957
 5266TIP3   OH215803   0.152   4.535   3.042  0.1975  0.4237 -0.1180
 5266TIP3    H115804   0.235   4.543   2.994 -0.5062 -0.8857 -1.6730
 5266TIP3    H215805   0.150   4.443   3.069 -1.1750  0.1735 -0.9882
 5267TIP3   OH215806   0.639   0.165   1.055  0.3364  0.0935  0.0696
 5267TIP3    H115807   0.627   0.212   1.138  0.8118 -0.5632  0.5192
 5267TIP3    H215808   0.664   0.233   0.993  0.1851  0.5626  0.5127
 5268TIP3   OH215809   6.002   3.385   1.743  0.0573 -0.4743 -0.1791
 5268TIP3    H115810   5.912   3.411   1.722  0.8641  1.7721 -1.1258
 5268TIP3    H215811   6.015   3.304   1.695 -0.3873  0.9959 -2.9889
 5269TIP3   OH215812   1.122   4.734   1.601  0.0489  0.1644  0.9374
 5269TIP3    H115813   1.195   4.796   1.591  1.9762 -2.1138 -0.3783
 5269TIP3    H215814   1.117   4.718   1.695 -0.3387  2.0891  1.2776
 5270TIP3   OH215815   1.743   5.445   2.450  0.1228  0.2626  0.1429
 5270TIP3    H115816   1.793   5.526   2.465  1.4432 -0.1617 -1.5570
 5270TIP3    H215817   1.802   5.375   2.477  0.7175 -0.2688 -2.3010
 5271TIP3   OH215818   4.147   2.699   1.077  0.0571  0.7195  0.4074
 5271TIP3    H115819   4.240   2.678   1.084  0.1834  0.6526 -1.1092
 5271TIP3    H215820   4.116   2.701   1.167  1.7733  1.8987  1.0326
 5272TIP3   OH215821   4.880   4.300   4.990 -0.7958 -0.0145  0.0992
 5272TIP3    H115822   4.938   4.286   4.915  1.8654  0.5705  1.9400
 5272TIP3    H215823   4.793   4.312   4.950  0.4635  0.2251 -2.8611
 5273TIP3   OH215824   1.301   0.036   2.958  0.5014  0.1455  0.3946
 5273TIP3    H115825   1.231   0.090   2.995  0.4987 -0.1820  0.8749
 5273TIP3    H215826   1.306   0.063   2.866  0.3035  0.7540  0.5573
 5274TIP3   OH215827   1.202   2.733   2.667  0.4374 -0.1703  0.1187
 5274TIP3    H115828   1.289   2.698   2.682  0.6644  0.0188 -0.6862
 5274TIP3    H215829   1.196   2.808   2.725  1.4976  0.8809 -1.0569
 5275TIP3   OH215830   1.545   3.905   4.390  0.1223 -0.5280 -0.7489
 5275TIP3    H115831   1.611   3.972   4.408 -0.3694 -0.4003  0.6514
 5275TIP3    H215832   1.479   3.916   4.459 -0.7890 -1.3963 -1.4514
 5276TIP3   OH215833   2.662   4.033   1.943  0.1802 -0.5531  0.6912
 5276TIP3    H115834   2.633   4.124   1.952 -0.2498 -0.8325  2.5409
 5276TIP3    H215835   2.667   4.019   1.848 -3.0673  0.3458  0.2646
 5277TIP3   OH215836   1.294   1.588   5.124  0.0554  0.9417 -0.4955
 5277TIP3    H115837   1.295   1.663   5.064  3.0542  1.8473  0.4839
 5277TIP3    H215838   1.298   1.628   5.211 -2.1591 -0.3803  0.3142
 5278TIP3   OH215839   5.165   3.685   2.730 -0.0635  0.5421  0.2174
 5278TIP3    H115840   5.229   3.645   2.789 -0.7333 -1.2068 -0.1901
 5278TIP3    H215841   5.195   3.775   2.720 -0.0613  1.0493  3.4728
 5279TIP3   OH215842   3.234   1.145   0.951 -0.2345  0.0104 -0.0418
 5279TIP3    H115843   3.145   1.134   0.918  0.1462 -0.2970 -0.9832
 5279TIP3    H215844   3.290   1.108   0.883  0.6153  0.1357  0.5726
 5280TIP3   OH215845   0.439   2.912   4.460 -0.1804 -0.2308 -0.2459
 5280TIP3    H115846   0.488   2.946   4.535  0.5453  0.6279 -1.0827
 5280TIP3    H215847   0.365   2.972   4.451 -0.0465 -0.0982 -0.4601
 5281TIP3   OH215848   4.646   5.428   4.176  0.9344 -0.5110  0.4154
 5281TIP3    H115849   4.605   5.514   4.175  1.9677 -0.0106 -0.2352
 5281TIP3    H215850   4.662   5.410   4.269  1.3010  0.2804  0.5057
 5282TIP3   OH215851   4.130   4.866   0.102  0.0920 -0.4742 -1.0384
 5282TIP3    H115852   4.053   4.907   0.063  0.3943  0.4289 -0.7008
 5282TIP3    H215853   4.178   4.938   0.142  0.3266 -1.2352  0.0987
 5283TIP3   OH215854   2.046   3.130   2.409  0.1654  0.1313  0.1246
 5283TIP3    H115855   2.076   3.042   2.433 -0.1828  0.0203  0.1584
 5283TIP3    H215856   2.118   3.187   2.435 -0.0966 -0.0111  1.2376
 5284TIP3   OH215857   2.601   0.665   1.719 -0.2895  0.2087 -0.3698
 5284TIP3    H115858   2.511   0.672   1.750 -0.4837  1.8983 -1.1709
 5284TIP3    H215859   2.593   0.664   1.623  0.5305  0.0008 -0.4434
 5285TIP3   OH215860   3.945   3.466   0.449  0.4237 -0.6922 -0.0973
 5285TIP3    H115861   4.033   3.466   0.413  0.5517 -0.0313  0.1892
 5285TIP3    H215862   3.897   3.529   0.396  0.1056 -1.0873 -0.2849
 5286TIP3   OH215863   5.892   0.422   3.671  0.2689  0.0014  0.5059
 5286TIP3    H115864   5.909   0.381   3.586  1.2892  1.2295  0.0865
 5286TIP3    H215865   5.828   0.364   3.713 -0.0284 -0.7948 -0.9629
 5287TIP3   OH215866   1.769   5.143   1.318  0.0637 -0.3017 -0.3664
 5287TIP3    H115867   1.784   5.122   1.226 -0.5012  0.8293 -0.7444
 5287TIP3    H215868   1.744   5.060   1.359 -2.6454 -0.3639 -1.8874
 5288TIP3   OH215869   4.134   2.417   1.851 -0.0676 -0.2809 -0.1003
 5288TIP3    H115870   4.112   2.331   1.887 -1.9909  0.4543  0.6031
 5288TIP3    H215871   4.070   2.430   1.781  0.1919  0.6007 -0.1796
 5289TIP3   OH215872   5.031   3.665   5.130 -0.0688  0.1943 -0.5239
 5289TIP3    H115873   4.941   3.652   5.098  0.0081  0.0839 -0.7021
 5289TIP3    H215874   5.060   3.576   5.153  0.3352  0.0910 -1.3979
 5290TIP3   OH215875   5.507   3.087   3.766 -0.1690 -0.1362  0.1429
 5290TIP3    H115876   5.486   3.023   3.834 -1.4513 -0.9183 -0.9426
 5290TIP3    H215877   5.428   3.140   3.758  0.3870  0.6962  0.0388
 5291TIP3   OH215878   5.499   3.735   2.606  0.4246 -0.4257 -0.5514
 5291TIP3    H115879   5.463   3.668   2.547 -0.4471 -0.1983 -0.2824
 5291TIP3    H215880   5.578   3.694   2.642 -0.1585 -1.3619 -0.3058
 5292TIP3   OH215881   1.774   4.368   3.548  0.2194 -0.2394 -0.2814
 5292TIP3    H115882   1.861   4.387   3.514  0.3535  0.9366  0.6916
 5292TIP3    H215883   1.777   4.393   3.640 -1.2353  0.1023 -0.3043
 5293TIP3   OH215884   5.350   0.405   5.100  0.4862 -0.3361  0.3351
 5293TIP3    H115885   5.400   0.458   5.038  0.2265 -0.5419 -0.0500
 5293TIP3    H215886   5.403   0.406   5.180  0.8242 -0.0737  0.1098
 5294TIP3   OH215887   1.317   3.016   3.830 -0.2801 -0.0312  0.3583
 5294TIP3    H115888   1.272   3.099   3.846 -1.0214 -0.7210  2.1130
 5294TIP3    H215889   1.261   2.950   3.870  2.2246 -0.9566  2.6366
 5295TIP3   OH215890   4.333   1.904   0.604 -0.2161 -0.2356  0.1014
 5295TIP3    H115891   4.388   1.850   0.547  1.1191  0.5692  0.5660
 5295TIP3    H215892   4.243   1.879   0.582  0.1317  1.1282 -3.4859
 5296TIP3   OH215893   4.664   2.709   0.236  0.6613 -0.0001  0.0661
 5296TIP3    H115894   4.681   2.756   0.317  0.4833 -0.0093  0.1089
 5296TIP3    H215895   4.589   2.755   0.197 -0.6675 -1.2981  0.9651
 5297TIP3   OH215896   0.771   3.499   0.226 -0.1860  0.5819  0.1966
 5297TIP3    H115897   0.851   3.446   0.227 -0.1081  0.6927 -0.0208
 5297TIP3    H215898   0.711   3.453   0.284 -0.0456  0.3680  0.1740
 5298TIP3   OH215899   5.391   5.781   4.364 -0.2964 -0.0346  0.1701
 5298TIP3    H115900   5.449   5.810   4.435 -0.5075  0.2163  0.2440
 5298TIP3    H215901   5.388   5.686   4.373 -0.8700  0.0400  0.9416
 5299TIP3   OH215902   0.430   5.426   4.859 -0.3490 -0.1181 -0.2953
 5299TIP3    H115903   0.501   5.379   4.813  1.1151 -0.6159  2.2812
 5299TIP3    H215904   0.403   5.366   4.928 -1.0245  1.3772  0.7836
 5300TIP3   OH215905   1.941   4.391   3.838  0.2463 -0.3038 -0.3783
 5300TIP3    H115906   1.884   4.465   3.856 -1.6824 -1.7155 -0.3570
 5300TIP3    H215907   2.014   4.401   3.899  0.3130  1.8204 -0.7434
 5301TIP3   OH215908   3.915   4.206   4.274  0.3007  0.0704  0.1865
 5301TIP3    H115909   3.895   4.125   4.322 -0.4993  0.4800  0.5580
 5301TIP3    H215910   3.966   4.177   4.199  1.1649 -0.6436  1.0195
 5302TIP3   OH215911   5.050   0.880   2.689 -0.1779 -0.5735  0.1230
 5302TIP3    H115912   5.133   0.872   2.641  1.1754 -0.4076  2.2819
 5302TIP3    H215913   5.034   0.791   2.723 -1.7732 -0.9833 -1.5634
 5303TIP3   OH215914   5.218   5.040   0.549 -0.4508 -0.6351 -0.2573
 5303TIP3    H115915   5.285   4.981   0.583 -1.0660 -0.9011  0.5633
 5303TIP3    H215916   5.175   4.990   0.480  1.0958  0.0698 -1.7948
 5304TIP3   OH215917   5.637   5.208   0.744 -0.2084  0.3243 -0.4872
 5304TIP3    H115918   5.623   5.298   0.716 -0.8845  0.4666  0.2507
 5304TIP3    H215919   5.726   5.187   0.716  1.0194  2.1495  1.6936
 5305TIP3   OH215920   2.514   1.999   4.371  0.2392  0.5771 -0.3007
 5305TIP3    H115921   2.502   2.088   4.339  0.8877  0.9008  0.3104
 5305TIP3    H215922   2.562   1.954   4.302 -0.8576  0.4331 -0.9931
 5306TIP3   OH215923   3.029   0.014   0.467 -0.1412  0.1321  0.0596
 5306TIP3    H115924   3.098  -0.036   0.424 -0.5090 -0.2487 -0.0875
 5306TIP3    H215925   3.062   0.029   0.555 -0.1676 -0.6648  0.2137
 5307TIP3   OH215926   3.284   0.368   2.943  0.4620 -0.2665 -0.4918
 5307TIP3    H115927   3.357   0.421   2.909  1.4173 -2.1274 -1.5503
 5307TIP3    H215928   3.265   0.307   2.872 -0.6184 -1.3116  0.6558
 5308TIP3   OH215929   4.559   3.029   4.622 -0.0960 -0.5363  0.1222
 5308TIP3    H115930   4.501   2.978   4.678 -2.5990  2.1733  0.2443
 5308TIP3    H215931   4.609   3.083   4.684 -0.4981  0.1061 -0.1003
 5309TIP3   OH215932   6.289   5.399   0.010  0.1223 -1.1194 -0.3010
 5309TIP3    H115933   6.338   5.360   0.083  0.7800 -2.8725 -1.6081
 5309TIP3    H215934   6.246   5.475   0.048  0.3291 -2.0521  1.9603
 5310TIP3   OH215935   5.264   2.495   0.349  0.3347 -0.0241 -0.5287
 5310TIP3    H115936   5.247   2.406   0.317  0.1892 -0.9466  1.8910
 5310TIP3    H215937   5.176   2.533   0.362  0.3934  0.8816 -2.4515
 5311TIP3   OH215938   4.463   3.930   2.446  0.3263  0.2645  0.7474
 5311TIP3    H115939   4.537   3.965   2.396  0.3771 -0.6804  0.1529
 5311TIP3    H215940   4.468   3.976   2.531  3.0311 -1.4631  1.6369
 5312TIP3   OH215941   2.441   4.787   3.355 -0.9265  0.2410  0.0939
 5312TIP3    H115942   2.501   4.840   3.303  0.6837 -0.4233  1.2100
 5312TIP3    H215943   2.498   4.734   3.411 -2.4486 -2.2314 -0.5290
 5313TIP3   OH215944   6.233   5.542   3.986  0.1917 -0.0121 -0.7493
 5313TIP3    H115945   6.271   5.624   4.019 -0.1825  0.7920 -2.2680
 5313TIP3    H215946   6.268   5.475   4.045  0.1275  1.2720  0.8263
 5314TIP3   OH215947   5.255   2.140   3.957  0.1186  0.5857  0.5586
 5314TIP3    H115948   5.209   2.215   3.994  1.1173  1.4482  0.1226
 5314TIP3    H215949   5.246   2.152   3.862 -2.4854 -1.6336  0.4112
 5315TIP3   OH215950   1.642   0.485   0.656  0.5024  0.3657 -0.0092
 5315TIP3    H115951   1.563   0.473   0.710 -1.5695  2.0809 -2.3803
 5315TIP3    H215952   1.629   0.427   0.582  1.7160  0.3667 -0.2320
 5316TIP3   OH215953   5.362   4.011   0.030  0.3710 -0.7716 -0.1216
 5316TIP3    H115954   5.450   3.979   0.051 -0.9513 -3.5671  1.9218
 5316TIP3    H215955   5.349   4.086   0.087  1.1985 -0.7655  0.0674
 5317TIP3   OH215956   0.920   1.556   1.641 -0.3772 -0.1294 -0.3818
 5317TIP3    H115957   0.949   1.516   1.724  0.1022 -0.3672 -0.6621
 5317TIP3    H215958   0.860   1.492   1.604 -2.7755  1.1397  1.0768
 5318TIP3   OH215959   2.085   4.733   1.315  0.1117 -0.5615  0.7174
 5318TIP3    H115960   2.065   4.826   1.328  0.0887 -0.5627  0.6918
 5318TIP3    H215961   2.014   4.687   1.358 -0.6741 -0.5594 -0.5325
 5319TIP3   OH215962   4.816   5.258   4.803  0.6486 -0.4129  0.2147
 5319TIP3    H115963   4.803   5.164   4.799  0.2094 -0.2993 -2.1016
 5319TIP3    H215964   4.908   5.272   4.782  0.6152 -0.2936  0.1457
 5320TIP3   OH215965   2.541   3.741   1.173 -0.4129 -0.0207  0.3071
 5320TIP3    H115966   2.619   3.691   1.152 -1.3721 -1.3205 -0.2554
 5320TIP3    H215967   2.543   3.749   1.269  0.3799 -0.0524  0.3004
 5321TIP3   OH215968   4.504   1.547   0.046  0.9156  0.3619  0.0430
 5321TIP3    H115969   4.505   1.494   0.126  0.6623  1.3528  0.7167
 5321TIP3    H215970   4.539   1.632   0.073 -0.4739  1.1664 -0.5657
 5322TIP3   OH215971   0.466   5.595   2.476  0.0726  0.2127 -0.2336
 5322TIP3    H115972   0.516   5.543   2.539  1.5013 -0.2790 -1.6931
 5322TIP3    H215973   0.423   5.663   2.529 -1.2988 -1.9659  1.6466
 5323TIP3   OH215974   5.317   2.237   4.963 -0.1079  0.3725  0.8532
 5323TIP3    H115975   5.225   2.236   4.937 -0.0878  0.6324  0.7648
 5323TIP3    H215976   5.365   2.213   4.884 -0.0560  1.0145  0.6863
 5324TIP3   OH215977   4.772   2.965   0.623  0.0707  0.6155 -0.5291
 5324TIP3    H115978   4.743   2.992   0.711 -1.3613  0.7083 -1.0050
 5324TIP3    H215979   4.722   3.021   0.563 -0.6098 -0.9165 -1.4587
 5325TIP3   OH215980   1.176   1.508   4.858  0.0112 -0.2401  1.1479
 5325TIP3    H115981   1.197   1.527   4.950 -1.5754 -0.7303  1.6410
 5325TIP3    H215982   1.242   1.557   4.809  0.6228  0.4088  2.5334
 5326TIP3   OH215983   6.070   3.653   1.200  0.0704  0.0367  0.6298
 5326TIP3    H115984   6.050   3.560   1.201  3.0508 -0.7220 -0.2694
 5326TIP3    H215985   6.098   3.673   1.289 -0.0042 -0.0770  0.6791
 5327TIP3   OH215986   2.500   2.514   0.643 -0.2910  0.2932  0.1171
 5327TIP3    H115987   2.567   2.516   0.711  0.1484  0.9128 -0.3295
 5327TIP3    H215988   2.433   2.576   0.673  0.2231  1.0869 -0.3232
 5328TIP3   OH215989   0.570   0.398   0.670 -0.8203  0.0593  0.3283
 5328TIP3    H115990   0.491   0.344   0.674 -1.6005  1.0287 -1.0269
 5328TIP3    H215991   0.604   0.398   0.760 -1.3253 -1.8537  0.5590
 5329TIP3   OH215992   3.818   3.327   4.500 -0.7696 -0.1797 -0.5513
 5329TIP3    H115993   3.774   3.258   4.451 -0.1525 -0.9975  0.0078
 5329TIP3    H215994   3.877   3.367   4.437 -1.4724  0.1628 -1.0032
 5330TIP3   OH215995   0.382   5.456   0.431  0.2351 -0.1968 -0.1185
 5330TIP3    H115996   0.355   5.520   0.497 -0.8299 -0.3061 -0.4444
 5330TIP3    H215997   0.443   5.399   0.478  1.2255  1.0422  0.1780
 5331TIP3   OH215998   2.925   0.564   1.380  0.1067  0.7805  0.6837
 5331TIP3    H115999   2.834   0.587   1.362 -0.1198  1.3224  2.3747
 5331TIP3    H216000   2.968   0.648   1.398  0.4510  0.3607  1.9249
 5332TIP3   OH216001   3.892   4.781   1.471  0.2841  0.3137 -0.3648
 5332TIP3    H116002   3.871   4.719   1.401  1.0533 -1.9212  1.2585
 5332TIP3    H216003   3.946   4.730   1.532 -0.6762  2.0141  2.0571
 5333TIP3   OH216004   5.147   4.382   4.878 -0.2245  0.0614 -0.3491
 5333TIP3    H116005   5.121   4.302   4.834  1.5908 -0.6587 -0.2163
 5333TIP3    H216006   5.241   4.372   4.892 -0.3881  1.0999  1.9644
 5334TIP3   OH216007   2.013   3.294   2.778 -0.1638 -0.6106 -0.3650
 5334TIP3    H116008   2.085   3.236   2.803 -0.0953 -0.2638  0.2530
 5334TIP3    H216009   2.055   3.362   2.726 -0.1026 -0.6108 -0.3163
 5335TIP3   OH216010   3.463   1.654   3.788 -0.1224 -0.4213  0.5286
 5335TIP3    H116011   3.456   1.621   3.698  0.9643  1.2347 -0.2252
 5335TIP3    H216012   3.557   1.661   3.803 -0.2559  2.0469  0.6807
 5336TIP3   OH216013   3.458   5.132   2.665  0.0581 -0.2018  0.7808
 5336TIP3    H116014   3.528   5.100   2.722  0.9138 -0.2996 -0.2804
 5336TIP3    H216015   3.504   5.180   2.596 -0.9931  0.4590  0.5197
 5337TIP3   OH216016   2.292   4.017   5.079 -0.1392 -0.2656  0.1587
 5337TIP3    H116017   2.210   4.010   5.030  0.3376  0.9635 -0.8770
 5337TIP3    H216018   2.351   3.956   5.036 -0.3797 -0.8721  0.6681
 5338TIP3   OH216019   3.588   0.052   4.265 -0.2998  0.3631  0.0198
 5338TIP3    H116020   3.626   0.031   4.350  0.5135  0.6359 -0.2630
 5338TIP3    H216021   3.648   0.117   4.228  0.2843 -0.9477 -1.4541
 5339TIP3   OH216022   5.972   1.968   1.805 -0.3343 -0.0473 -0.4028
 5339TIP3    H116023   5.994   2.017   1.726  0.4700 -0.0534 -0.1897
 5339TIP3    H216024   5.994   2.027   1.877 -1.9367  0.3181 -0.1877
 5340TIP3   OH216025   2.404   4.884   1.752 -0.0208 -0.0223  0.1600
 5340TIP3    H116026   2.333   4.942   1.780  0.2202  0.2082  0.2917
 5340TIP3    H216027   2.375   4.852   1.666 -0.2638  0.1063  0.1909
 5341TIP3   OH216028   2.944   3.809   0.809 -0.2165  0.0948  0.1022
 5341TIP3    H116029   2.917   3.886   0.858 -2.9335 -1.1182  0.7188
 5341TIP3    H216030   3.011   3.767   0.863 -1.6414 -0.0855  1.8282
 5342TIP3   OH216031   5.365   0.241   2.386 -0.7974  0.5027 -0.3915
 5342TIP3    H116032   5.446   0.215   2.341 -0.7632  0.4495 -0.3016
 5342TIP3    H216033   5.395   0.300   2.456 -0.6855 -0.5723  0.5008
 5343TIP3   OH216034   4.936   0.534   4.714  0.0205 -0.3692  0.1097
 5343TIP3    H116035   4.878   0.459   4.696  1.4273 -1.1066 -1.5753
 5343TIP3    H216036   5.005   0.498   4.769 -0.8572  0.4297  1.8129
 5344TIP3   OH216037   4.259   4.202   4.633 -0.5331  0.2579 -0.4610
 5344TIP3    H116038   4.289   4.139   4.699 -0.4095  1.0635  0.2706
 5344TIP3    H216039   4.217   4.272   4.683 -1.1248  0.5148 -1.2953
 5345TIP3   OH216040   4.941   3.900   0.068 -0.4646 -0.4794  0.0942
 5345TIP3    H116041   4.952   3.877   0.160  1.2489  0.4882  0.1632
 5345TIP3    H216042   4.869   3.844   0.038 -1.5794 -0.2827  2.1896
 5346TIP3   OH216043   3.630   2.579   0.034 -0.1347 -0.5648  0.5711
 5346TIP3    H116044   3.660   2.667   0.056 -1.5328 -0.0756  0.5763
 5346TIP3    H216045   3.622   2.534   0.118  0.0238 -0.5173  0.6121
 5347TIP3   OH216046   2.881   3.016   0.673  0.5186  0.0767  0.1968
 5347TIP3    H116047   2.940   2.963   0.620 -1.3046 -1.0332 -0.8315
 5347TIP3    H216048   2.864   2.963   0.751 -1.2672 -0.9217 -0.8097
 5348TIP3   OH216049   3.136   1.535   3.155 -0.1631 -0.3188  0.3976
 5348TIP3    H116050   3.206   1.599   3.140 -1.1738  0.5298 -0.9220
 5348TIP3    H216051   3.156   1.497   3.240  1.0696  0.9760  0.7192
 5349TIP3   OH216052   1.228   3.733   0.615  0.8143 -1.2445 -0.0596
 5349TIP3    H116053   1.242   3.816   0.570 -0.6542 -1.0179 -0.1771
 5349TIP3    H216054   1.292   3.731   0.685  0.4600  0.2911  0.3371
 5350TIP3   OH216055   1.247   1.907   4.388 -0.1167  0.5650 -0.0427
 5350TIP3    H116056   1.185   1.846   4.348 -0.2756  0.9133 -0.3320
 5350TIP3    H216057   1.285   1.954   4.314  1.7210 -0.7845 -0.0229
 5351TIP3   OH216058   2.407   0.859   3.812  0.4581  0.2697 -0.0374
 5351TIP3    H116059   2.405   0.857   3.907  0.2455  1.2401 -0.0059
 5351TIP3    H216060   2.476   0.798   3.788 -0.5187 -1.1583  0.6641
 5352TIP3   OH216061   2.655   3.110   0.551  0.3184 -0.4331 -0.2702
 5352TIP3    H116062   2.718   3.074   0.613 -1.6996 -1.1434  1.4895
 5352TIP3    H216063   2.591   3.040   0.538 -0.8225  0.6843 -0.9411
 5353TIP3   OH216064   6.361   1.308   0.653  0.0949  0.6181  0.0113
 5353TIP3    H116065   6.288   1.247   0.647 -0.0700  0.9229 -1.5359
 5353TIP3    H216066   6.339   1.365   0.727 -0.3506 -0.3950  0.6748
 5354TIP3   OH216067   2.215   3.405   4.328 -0.3412  0.1788 -0.0152
 5354TIP3    H116068   2.120   3.393   4.318 -1.1416  2.7775  2.8728
 5354TIP3    H216069   2.231   3.495   4.301  0.9352  0.4206  1.3982
 5355TIP3   OH216070   0.128   2.676   4.030 -0.9263 -0.3955  0.1779
 5355TIP3    H116071   0.188   2.734   3.984 -2.7454  0.8181 -0.8048
 5355TIP3    H216072   0.178   2.596   4.045  0.5228  0.0964 -1.7074
 5356TIP3   OH216073   0.103   1.654   1.858 -0.3277 -0.4083 -0.1828
 5356TIP3    H116074   0.073   1.731   1.907  1.2369 -0.4327  0.8826
 5356TIP3    H216075   0.168   1.689   1.797  0.1887 -0.8287  0.1159
 5357TIP3   OH216076   6.018   3.235   4.015 -0.3552  0.4649  0.4884
 5357TIP3    H116077   5.944   3.177   4.029 -1.7815  2.3488  1.1652
 5357TIP3    H216078   5.988   3.297   3.949  0.9832  0.7156  0.0679
 5358TIP3   OH216079   5.721   0.781   1.703 -0.0833 -0.0597  0.1066
 5358TIP3    H116080   5.781   0.849   1.733 -0.9009  0.4029  0.7164
 5358TIP3    H216081   5.778   0.706   1.683  1.0326  1.2551 -2.0718
 5359TIP3   OH216082   5.423   4.784   0.255  0.4456 -0.0542  0.5087
 5359TIP3    H116083   5.380   4.867   0.235  0.8302  0.3418  1.2714
 5359TIP3    H216084   5.353   4.727   0.285  0.0651 -0.2518 -0.7131
 5360TIP3   OH216085   3.613   5.360   2.344 -0.2589  0.2793  0.5127
 5360TIP3    H116086   3.703   5.388   2.328 -0.4112  0.9421  0.7733
 5360TIP3    H216087   3.559   5.435   2.318 -0.8676 -0.7326 -1.3497
 5361TIP3   OH216088   6.174   5.814   2.389  0.2084 -0.6816  0.1099
 5361TIP3    H116089   6.231   5.882   2.353  0.7879 -1.1907  0.0299
 5361TIP3    H216090   6.146   5.764   2.312  1.0588 -1.4797  0.3034
 5362TIP3   OH216091   0.479   4.775   2.946 -0.1506  0.1481 -0.5788
 5362TIP3    H116092   0.438   4.722   2.877 -0.0395  2.5588 -2.6334
 5362TIP3    H216093   0.407   4.797   3.005 -1.2629  1.6739 -2.3937
 5363TIP3   OH216094   2.276   4.877   4.058 -0.2387 -0.1302  0.3169
 5363TIP3    H116095   2.345   4.940   4.080  0.6521 -0.8148 -0.3932
 5363TIP3    H216096   2.202   4.930   4.030  0.4488  0.6086 -0.1401
 5364TIP3   OH216097   4.461   3.189   0.049 -0.2830  0.2491 -0.1544
 5364TIP3    H116098   4.437   3.111  -0.001 -1.6669  1.5004 -1.5200
 5364TIP3    H216099   4.389   3.250   0.035 -0.2782  1.0368  2.6218
 5365TIP3   OH216100   5.728   0.648   2.261  0.0398 -0.2127  0.1231
 5365TIP3    H116101   5.767   0.578   2.312 -0.0879  0.0302  0.5615
 5365TIP3    H216102   5.705   0.608   2.177  0.7178 -0.4883  0.0695
 5366TIP3   OH216103   5.416   5.512   4.376 -0.4502  0.3145  0.0789
 5366TIP3    H116104   5.344   5.470   4.423  0.5232  0.3263  1.6247
 5366TIP3    H216105   5.495   5.481   4.419  0.5915 -0.5962 -2.2991
 5367TIP3   OH216106   2.001   4.461   0.998 -0.2855 -0.5323 -0.5177
 5367TIP3    H116107   2.020   4.401   1.071 -0.9052  0.5855  0.5998
 5367TIP3    H216108   2.077   4.519   0.995 -0.3823 -0.4073 -0.5707
 5368TIP3   OH216109   0.743   1.148   1.158  0.4973  0.3536 -0.1356
 5368TIP3    H116110   0.654   1.112   1.152  0.1148  1.4517 -1.9515
 5368TIP3    H216111   0.757   1.161   1.251 -0.3015 -2.0779  0.3922
 5369TIP3   OH216112   2.539   0.674   0.848 -0.0007  1.0201 -0.6544
 5369TIP3    H116113   2.468   0.737   0.861 -1.6617 -0.9949  0.4802
 5369TIP3    H216114   2.551   0.671   0.753 -1.7819  1.0501 -0.9094
 5370TIP3   OH216115   3.109   2.905   2.818  0.3401 -0.5147 -0.6165
 5370TIP3    H116116   3.063   2.929   2.738 -1.3641 -0.4607  0.3243
 5370TIP3    H216117   3.123   2.810   2.810  2.1823 -0.1755 -1.9199
 5371TIP3   OH216118   1.300   0.235   4.691  0.1067  0.2900  0.2342
 5371TIP3    H116119   1.230   0.174   4.714 -1.0077  1.9385  1.5242
 5371TIP3    H216120   1.358   0.186   4.633 -0.0118 -2.3647  2.2108
 5372TIP3   OH216121   3.022   4.891   2.807 -0.2774 -0.2119  0.5953
 5372TIP3    H116122   3.008   4.799   2.829  0.7859 -0.1157  1.8047
 5372TIP3    H216123   2.967   4.939   2.869 -2.8232 -0.0148 -1.6457
 5373TIP3   OH216124   2.026   3.136   4.555 -0.4416  0.4994  0.1296
 5373TIP3    H116125   2.044   3.054   4.510  0.4209  0.1209  1.1260
 5373TIP3    H216126   2.110   3.182   4.557 -0.7902  1.1584  0.0740
 5374TIP3   OH216127   2.789   3.341   3.935  0.4424  0.1382 -0.4099
 5374TIP3    H116128   2.750   3.397   3.869  0.2088  0.1815 -0.2361
 5374TIP3    H216129   2.755   3.253   3.915  1.4660 -0.0987 -1.1955
 5375TIP3   OH216130   5.466   2.079   1.335  0.6085 -0.3022  0.1104
 5375TIP3    H116131   5.382   2.107   1.300  0.2670 -0.2925  0.9184
 5375TIP3    H216132   5.531   2.128   1.283  0.1398 -0.5908 -0.7600
 5376TIP3   OH216133   5.413   3.529   0.924 -0.3104 -0.2942 -0.3426
 5376TIP3    H116134   5.487   3.584   0.949 -0.5081  0.5018 -1.4206
 5376TIP3    H216135   5.336   3.585   0.933 -1.0680 -1.6310  2.4925
 5377TIP3   OH216136   5.318   2.900   1.144  0.0979  0.0262 -0.0885
 5377TIP3    H116137   5.311   2.989   1.111  0.0983  0.6243  1.4164
 5377TIP3    H216138   5.404   2.870   1.114  0.5304  0.9164  0.2130
 5378TIP3   OH216139   2.543   3.072   4.503 -0.4936 -0.0709  0.0974
 5378TIP3    H116140   2.482   3.146   4.495 -0.7418 -0.2670  0.1641
 5378TIP3    H216141   2.573   3.076   4.594  0.5122  0.7392 -0.2508
 5379TIP3   OH216142   6.319   3.322   2.715  0.0232  0.0662 -0.2312
 5379TIP3    H116143   6.228   3.324   2.685 -0.0582  0.5450  0.0236
 5379TIP3    H216144   6.313   3.340   2.809  0.4388  1.0779 -0.3834
 5380TIP3   OH216145   4.314   3.424   4.339 -0.9879  0.7268 -0.2442
 5380TIP3    H116146   4.336   3.484   4.268 -0.2972  1.3182  0.4529
 5380TIP3    H216147   4.387   3.431   4.400  0.0345 -2.1727 -0.9567
 5381TIP3   OH216148   5.889   0.351   1.953 -0.1992 -0.1619  0.4295
 5381TIP3    H116149   5.873   0.436   1.913 -1.1024 -0.7352 -0.4734
 5381TIP3    H216150   5.977   0.327   1.925  0.5987  1.0364  1.7690
 5382TIP3   OH216151   4.766   5.586   0.985 -0.5503 -0.4038 -0.4964
 5382TIP3    H116152   4.815   5.560   1.063 -1.4933  0.1332  0.3012
 5382TIP3    H216153   4.741   5.503   0.944 -0.0429 -0.6895 -0.2346
 5383TIP3   OH216154   4.383   5.976   1.194 -0.4523  0.0182  0.7483
 5383TIP3    H116155   4.431   5.901   1.160  0.0170  2.0062 -3.6469
 5383TIP3    H216156   4.292   5.946   1.199 -0.1423 -1.0990 -0.0765
 5384TIP3   OH216157   5.128   0.411   4.869 -0.2643 -0.3870  0.0651
 5384TIP3    H116158   5.087   0.332   4.904  1.4143 -0.8032  1.2078
 5384TIP3    H216159   5.216   0.410   4.905  0.4239  1.0224 -1.4566
 5385TIP3   OH216160   6.305   4.457   0.917 -0.2152  0.1687 -0.1951
 5385TIP3    H116161   6.351   4.376   0.895 -0.0096  0.7633 -2.0862
 5385TIP3    H216162   6.281   4.495   0.833  0.6825  2.6545  0.5860
 5386TIP3   OH216163   1.646   4.433   3.806  0.7267 -1.0280 -1.2525
 5386TIP3    H116164   1.563   4.389   3.786  0.4439 -1.3022  0.3902
 5386TIP3    H216165   1.635   4.521   3.771 -1.1642 -0.3589  0.8025
 5387TIP3   OH216166   4.639   1.917   1.998 -0.1990  0.4920  0.2931
 5387TIP3    H116167   4.644   1.938   2.092  0.8653  0.0860  0.3328
 5387TIP3    H216168   4.673   1.829   1.991 -0.3639  0.4820 -0.4807
 5388TIP3   OH216169   2.465   2.880   1.905  0.0109  0.1416  0.2046
 5388TIP3    H116170   2.382   2.927   1.892 -0.5963 -0.4261  1.8327
 5388TIP3    H216171   2.518   2.905   1.829 -1.2092  1.4538 -0.2677
 5389TIP3   OH216172   1.157   3.473   1.640 -0.9377 -0.5812 -0.0988
 5389TIP3    H116173   1.068   3.508   1.636 -0.9470 -0.5614  0.2267
 5389TIP3    H216174   1.205   3.536   1.694 -0.9916 -1.1456  0.6147
 5390TIP3   OH216175   5.325   0.648   0.997  0.1279  0.6428 -0.0139
 5390TIP3    H116176   5.383   0.653   0.921 -0.6458  0.1793 -0.6505
 5390TIP3    H216177   5.343   0.728   1.047  2.3655 -0.1686  0.5891
 5391TIP3   OH216178   1.912   3.782   3.587  0.0732 -0.4892 -0.4477
 5391TIP3    H116179   1.911   3.710   3.524  1.4035 -1.0384  0.1130
 5391TIP3    H216180   1.927   3.861   3.534 -1.9842 -0.5076 -1.1298
 5392TIP3   OH216181   6.201   3.639   2.724 -0.2089  0.0864  0.3776
 5392TIP3    H116182   6.155   3.649   2.808  0.0089 -1.4393  0.7246
 5392TIP3    H216183   6.150   3.574   2.677 -0.3661  0.9913 -0.7290
 5393TIP3   OH216184   0.455   3.579   0.332  0.2270 -0.1902 -0.0859
 5393TIP3    H116185   0.410   3.643   0.387 -2.3253 -1.9289 -0.0029
 5393TIP3    H216186   0.486   3.512   0.393 -0.3071 -0.8126 -0.4860
 5394TIP3   OH216187   0.890   2.804   0.078  0.4668 -0.2193  0.2280
 5394TIP3    H116188   0.913   2.819   0.169 -0.4385 -0.8763  0.5720
 5394TIP3    H216189   0.844   2.721   0.078 -1.1010  0.6027 -0.5641
 5395TIP3   OH216190   2.267   1.106   0.481 -0.1839 -0.5176  0.2331
 5395TIP3    H116191   2.333   1.090   0.413  0.4159 -1.5163  1.0212
 5395TIP3    H216192   2.255   1.021   0.523 -1.3111 -0.1422  0.7083
 5396TIP3   OH216193   4.260   4.690   3.948  0.2734  0.0253 -0.2522
 5396TIP3    H116194   4.310   4.631   3.891  1.1014  0.0044  0.4839
 5396TIP3    H216195   4.249   4.770   3.896  0.7405 -0.1113 -0.5692
 5397TIP3   OH216196   5.067   2.136   3.335  0.0439  0.2470 -0.0675
 5397TIP3    H116197   5.110   2.056   3.302 -0.0034 -0.2322  0.9907
 5397TIP3    H216198   5.087   2.203   3.269 -0.5629 -0.8090 -1.3787
 5398TIP3   OH216199   5.020   2.321   0.689  0.2709 -0.3348 -0.5329
 5398TIP3    H116200   4.972   2.394   0.649 -0.0380  0.1605  0.6997
 5398TIP3    H216201   4.962   2.246   0.680 -0.5243  0.1369  0.4331
 5399TIP3   OH216202   1.027   5.107   0.015 -0.6000  0.1165  0.2314
 5399TIP3    H116203   1.096   5.071   0.071 -1.4953  0.4003  1.5625
 5399TIP3    H216204   1.073   5.162  -0.048  0.2914  1.5519  2.0713
 5400TIP3   OH216205   2.746   3.116   0.296  0.3197 -0.0345  0.1206
 5400TIP3    H116206   2.724   3.105   0.388 -0.5774 -0.1178 -0.1012
 5400TIP3    H216207   2.684   3.060   0.249  0.8282 -0.0653 -0.5325
 5401TIP3   OH216208   4.401   3.781   1.228  0.0896 -0.4128  0.3784
 5401TIP3    H116209   4.372   3.847   1.290  0.1075 -0.6171  0.6080
 5401TIP3    H216210   4.431   3.831   1.152 -0.4446 -0.1852  0.3138
 5402TIP3   OH216211   3.904   3.131   2.395  0.2316 -0.1206  0.4757
 5402TIP3    H116212   3.927   3.197   2.330 -0.2551 -1.3214 -0.9701
 5402TIP3    H216213   3.808   3.129   2.394 -0.0438  2.3558  3.8934
 5403TIP3   OH216214   5.668   0.592   1.979  0.8321 -0.7148  0.2657
 5403TIP3    H116215   5.682   0.545   1.897 -0.9419 -1.5759  0.4254
 5403TIP3    H216216   5.574   0.603   1.986  0.9927  0.0509  1.8129
 5404TIP3   OH216217   1.596   3.157   2.028  0.4315  0.0307  0.1234
 5404TIP3    H116218   1.630   3.194   1.947  0.4647 -1.2210 -0.4585
 5404TIP3    H216219   1.586   3.232   2.086 -0.5384  1.1086 -1.3545
 5405TIP3   OH216220   4.517   2.998   1.464  0.0262  0.0487  0.3482
 5405TIP3    H116221   4.551   2.932   1.405  0.5062 -0.3798  1.0857
 5405TIP3    H216222   4.485   2.949   1.540 -0.7249  0.5711  0.3811
 5406TIP3   OH216223   4.145   0.178   3.585 -0.4847  0.1271  0.4830
 5406TIP3    H116224   4.202   0.208   3.656  2.5995 -0.2336 -1.6743
 5406TIP3    H216225   4.134   0.255   3.529 -1.4529 -0.0496  0.4175
 5407TIP3   OH216226   4.218   5.509   2.611 -0.2272 -0.2944 -0.5647
 5407TIP3    H116227   4.139   5.481   2.564  0.0547 -1.1071 -0.5558
 5407TIP3    H216228   4.289   5.459   2.571  0.1441 -0.3008  0.0967
 5408TIP3   OH216229   5.449   5.572   3.518 -0.5555 -0.1472  0.5337
 5408TIP3    H116230   5.416   5.648   3.471 -0.1680 -0.2266  0.1255
 5408TIP3    H216231   5.371   5.532   3.558 -0.8272  0.1578  0.3066
 5409TIP3   OH216232   0.981   5.607   4.865  0.0561  0.2051 -0.2686
 5409TIP3    H116233   0.887   5.594   4.865 -0.1080  1.0287 -2.3980
 5409TIP3    H216234   1.013   5.557   4.790  1.8049 -2.6591  2.1612
 5410TIP3   OH216235   5.313   0.993   1.679  0.0564 -0.0269  0.3914
 5410TIP3    H116236   5.237   1.026   1.726 -0.7577 -2.3397  0.8331
 5410TIP3    H216237   5.372   0.961   1.747 -0.3330 -1.7544 -0.0203
 5411TIP3   OH216238   6.177   0.495   2.200 -0.2221  0.1005  0.1802
 5411TIP3    H116239   6.235   0.571   2.201  0.1055 -0.1514  1.1027
 5411TIP3    H216240   6.236   0.420   2.211 -0.8099 -0.0825  2.6189
 5412TIP3   OH216241   4.693   5.742   4.584 -0.0558 -0.4661 -0.9326
 5412TIP3    H116242   4.653   5.749   4.497  1.0711 -1.3900 -1.5537
 5412TIP3    H216243   4.760   5.675   4.574 -0.2710 -0.9813  0.8013
 5413TIP3   OH216244   5.063   5.010   4.745 -0.3144  0.3650 -0.0386
 5413TIP3    H116245   4.983   5.018   4.694 -1.0637 -2.6547  0.4782
 5413TIP3    H216246   5.111   4.938   4.703  0.6485  0.0789  1.4708
 5414TIP3   OH216247   2.034   1.930   1.465  0.1834 -0.1748 -0.0135
 5414TIP3    H116248   2.030   1.854   1.406  0.4132  1.6033 -2.4797
 5414TIP3    H216249   2.111   1.979   1.436 -1.1440  2.0731  0.0495
 5415TIP3   OH216250   0.994   5.012   4.830  0.4740 -0.4680 -0.1672
 5415TIP3    H116251   0.999   4.979   4.741 -2.1407  1.2554 -1.0535
 5415TIP3    H216252   0.919   4.967   4.869  1.5280 -1.1445  1.2004
 5416TIP3   OH216253   4.032   0.781   0.175 -0.3092 -0.3434 -0.0867
 5416TIP3    H116254   3.990   0.863   0.148 -2.6815 -0.8855  1.6662
 5416TIP3    H216255   4.125   0.795   0.155 -0.8716  2.0720 -1.4542
 5417TIP3   OH216256   3.676   5.780   1.015 -0.5973  0.0524 -0.4481
 5417TIP3    H116257   3.694   5.870   0.987  4.2854  0.2716  2.2072
 5417TIP3    H216258   3.759   5.734   1.001 -1.6971 -2.9678  1.8827
 5418TIP3   OH216259   0.831   1.402   3.470  0.5100  0.4339 -0.5194
 5418TIP3    H116260   0.912   1.353   3.454  0.7763  0.7452 -0.1480
 5418TIP3    H216261   0.830   1.418   3.565 -0.1245  0.1949 -0.4807
 5419TIP3   OH216262   0.707   0.043   4.155 -0.0037 -0.1093 -0.6201
 5419TIP3    H116263   0.720   0.011   4.244  0.9673  0.3850 -0.5675
 5419TIP3    H216264   0.786   0.016   4.108  0.5603  1.6064 -0.7316
 5420TIP3   OH216265   1.621   3.954   0.331  0.3063 -0.2627  0.9689
 5420TIP3    H116266   1.553   3.910   0.279  1.0144 -1.2101  0.8156
 5420TIP3    H216267   1.596   4.046   0.331 -0.4332 -0.4549  0.0616
 5421TIP3   OH216268   4.576   1.505   0.511  0.0310  0.1316  0.0338
 5421TIP3    H116269   4.568   1.446   0.586 -1.6708 -1.7220 -1.4610
 5421TIP3    H216270   4.569   1.447   0.435 -1.2157  2.1987 -1.5449
 5422TIP3   OH216271   1.985   4.020   2.711  0.3934  0.1593 -0.0301
 5422TIP3    H116272   2.002   4.007   2.618 -0.9642 -0.0297 -0.2729
 5422TIP3    H216273   1.969   4.114   2.720  1.3466  0.3136  0.1725
 5423TIP3   OH216274   3.366   2.640   3.739 -0.3089  0.0984  0.7717
 5423TIP3    H116275   3.418   2.717   3.762  0.3277 -0.0054 -0.2299
 5423TIP3    H216276   3.348   2.651   3.645 -1.5643 -0.1961  0.9549
 5424TIP3   OH216277   2.633   3.745   2.971 -0.7344 -0.6208  0.4019
 5424TIP3    H116278   2.706   3.781   3.022 -0.2838 -0.3724 -0.4115
 5424TIP3    H216279   2.670   3.670   2.924 -0.4807  0.6561 -1.5293
 5425TIP3   OH216280   0.665   1.523   0.666  0.3983  0.0857 -0.4179
 5425TIP3    H116281   0.602   1.547   0.734  0.8225 -0.0166  0.0138
 5425TIP3    H216282   0.617   1.462   0.610 -0.2714  0.9252 -0.7826
 5426TIP3   OH216283   3.563   3.368   1.197  0.1529  0.6095  0.3637
 5426TIP3    H116284   3.509   3.401   1.269 -0.3814  0.6714 -0.0549
 5426TIP3    H216285   3.628   3.313   1.239 -0.0586  0.7684  0.9098
 5427TIP3   OH216286   4.795   1.023   0.303 -0.1257 -0.3925  0.1068
 5427TIP3    H116287   4.881   1.027   0.344 -0.8980  0.2597  1.7473
 5427TIP3    H216288   4.741   1.083   0.354 -1.5571 -0.7664 -0.9010
 5428TIP3   OH216289   5.001   5.266   0.349 -0.2086  0.5136  0.3564
 5428TIP3    H116290   4.911   5.234   0.337  0.0157 -1.3878  2.9850
 5428TIP3    H216291   5.056   5.196   0.315  0.2792  0.3799  1.3902
 5429TIP3   OH216292   0.316   0.974   0.939  0.3150  0.2407 -0.0731
 5429TIP3    H116293   0.321   0.893   0.990  0.5766  0.2838 -0.0248
 5429TIP3    H216294   0.392   0.970   0.880 -1.1934 -0.8533 -2.0506
 5430TIP3   OH216295   2.120   1.281   4.382  0.2755  0.3671  0.4159
 5430TIP3    H116296   2.058   1.209   4.371 -0.6021  0.7925  2.0811
 5430TIP3    H216297   2.100   1.341   4.310 -0.2550 -0.1882  0.0857
 5431TIP3   OH216298   5.017   1.044   0.486 -0.0650  0.1073 -0.5204
 5431TIP3    H116299   4.976   1.081   0.564  0.6591  0.1788 -0.1655
 5431TIP3    H216300   5.108   1.030   0.511 -0.7495 -4.3825  0.3136
 5432TIP3   OH216301   1.959   2.435   1.514  0.2380  0.5490  0.1742
 5432TIP3    H116302   1.959   2.508   1.453 -1.8400  0.6497  0.2086
 5432TIP3    H216303   1.867   2.424   1.539  0.3503 -2.4346 -0.2803
 5433TIP3   OH216304   4.095   3.656   0.812  0.0479  0.0649  0.1766
 5433TIP3    H116305   4.072   3.733   0.760  0.6034  0.7014  0.8465
 5433TIP3    H216306   4.096   3.688   0.902 -0.3833 -0.8931  0.5391
 5434TIP3   OH216307   3.096   4.255   0.722  0.1502 -0.2882 -0.0416
 5434TIP3    H116308   3.020   4.197   0.718  0.0287 -0.1530  0.3042
 5434TIP3    H216309   3.164   4.208   0.672  0.1654 -0.9032  0.5391
 5435TIP3   OH216310   4.628   2.373   4.106  0.0924  0.6826 -0.2676
 5435TIP3    H116311   4.580   2.439   4.157 -0.3618 -0.3613  0.6922
 5435TIP3    H216312   4.614   2.399   4.015 -0.4617  1.6506  0.0763
 5436TIP3   OH216313   4.784   2.909   3.661  0.8632  0.2197  0.0754
 5436TIP3    H116314   4.742   2.828   3.632 -0.8144  0.2312  2.1897
 5436TIP3    H216315   4.767   2.971   3.591 -0.2604 -0.5333 -0.3536
 5437TIP3   OH216316   1.576   2.673   4.484  0.8525 -0.4037  0.1979
 5437TIP3    H116317   1.492   2.651   4.444 -0.6364  1.2448  2.2108
 5437TIP3    H216318   1.623   2.721   4.415 -0.2446 -0.4803 -0.6310
 5438TIP3   OH216319   0.943   0.917   3.419 -0.0790  0.1223 -0.1398
 5438TIP3    H116320   0.993   0.898   3.499 -1.8161 -0.0910  0.9463
 5438TIP3    H216321   0.971   0.849   3.357  0.6022 -0.3057  0.6110
 5439TIP3   OH216322   0.973   5.939   2.362 -0.4247 -0.1935 -0.2043
 5439TIP3    H116323   0.993   6.032   2.349  0.5149 -0.5707 -1.7180
 5439TIP3    H216324   0.929   5.913   2.281 -2.0481 -0.7468  0.8048
 5440TIP3   OH216325   5.963   3.974   2.394 -0.0354  0.5695 -0.0317
 5440TIP3    H116326   5.961   3.904   2.329  1.6942 -3.4879  3.8010
 5440TIP3    H216327   5.871   3.989   2.416 -0.4332 -0.9374 -0.5658
 5441TIP3   OH216328   4.264  -0.010   3.242  0.0733  0.3367 -0.2161
 5441TIP3    H116329   4.192   0.012   3.182 -0.9666  0.7939  1.1412
 5441TIP3    H216330   4.305   0.074   3.261  0.7887  0.1151 -0.7360
 5442TIP3   OH216331   3.585   0.694   0.020 -0.8428 -0.3405  0.3590
 5442TIP3    H116332   3.604   0.607  -0.017 -0.2560 -0.2314  0.3933
 5442TIP3    H216333   3.666   0.744   0.006 -1.3773  0.3921 -0.2003
 5443TIP3   OH216334   6.254   2.581   3.886 -0.4845  0.2170  0.2732
 5443TIP3    H116335   6.250   2.652   3.822  1.9539 -0.9616 -1.3071
 5443TIP3    H216336   6.320   2.610   3.949  0.6611 -0.6861 -0.4858
 5444TIP3   OH216337   5.318   4.313   4.059 -0.2519  0.1895  0.0503
 5444TIP3    H116338   5.382   4.360   4.004 -0.4438 -1.2084 -1.4415
 5444TIP3    H216339   5.353   4.320   4.147  1.6454  0.0584 -0.6379
 5445TIP3   OH216340   1.071   5.857   1.904 -0.7287 -0.0183 -0.1538
 5445TIP3    H116341   0.997   5.890   1.853 -0.7074 -0.2495 -0.3386
 5445TIP3    H216342   1.147   5.903   1.868 -0.8834  0.8590  0.6127
 5446TIP3   OH216343   5.068   0.848   4.823 -0.6311 -0.2301 -0.1924
 5446TIP3    H116344   5.023   0.909   4.881  0.8449  1.2382 -0.4976
 5446TIP3    H216345   5.130   0.802   4.880 -1.3871 -1.1132 -0.0579
 5447TIP3   OH216346   5.617   0.036   5.188  0.5960 -0.0327  0.3362
 5447TIP3    H116347   5.674  -0.015   5.130 -0.9555  1.3975 -2.6176
 5447TIP3    H216348   5.609   0.121   5.146 -2.7749  0.2174  1.1744
 5448TIP3   OH216349   2.586   4.101   0.770  0.4516  0.0284 -0.0565
 5448TIP3    H116350   2.603   4.091   0.864  0.0697 -2.4801 -0.1689
 5448TIP3    H216351   2.515   4.040   0.752  0.0095  1.0066 -1.8689
 5449TIP3   OH216352   3.023   0.223   2.861 -0.1253 -0.0262 -0.1715
 5449TIP3    H116353   3.058   0.244   2.774  0.7236 -0.0775  0.1527
 5449TIP3    H216354   2.928   0.237   2.852 -0.2653 -1.5199 -1.5619
 5450TIP3   OH216355   4.818   2.071   3.815 -0.1553 -0.3064 -0.2947
 5450TIP3    H116356   4.838   2.145   3.872 -0.5740 -0.3501 -0.0850
 5450TIP3    H216357   4.880   2.004   3.840 -1.1766 -0.7954  1.0514
 5451TIP3   OH216358   2.980   0.725   2.642 -0.0017  0.1587  0.0914
 5451TIP3    H116359   2.976   0.796   2.578  1.2004  1.1416  1.0343
 5451TIP3    H216360   3.073   0.719   2.665 -0.5283  0.9540  2.8866
 5452TIP3   OH216361   6.286   1.312   0.331  0.6884  0.3698  0.8469
 5452TIP3    H116362   6.291   1.217   0.325 -1.9290  0.2121 -0.3916
 5452TIP3    H216363   6.253   1.340   0.246 -1.2052  2.0775  2.0392
 5453TIP3   OH216364   2.626   2.626   3.071  0.5789  0.1970  0.1177
 5453TIP3    H116365   2.647   2.536   3.045 -0.7781 -0.5537  1.4782
 5453TIP3    H216366   2.531   2.629   3.072  0.6041  1.3905  0.9867
 5454TIP3   OH216367   2.739   1.478   1.840  0.0203  0.1421  0.0386
 5454TIP3    H116368   2.773   1.438   1.760  0.4541  0.2482  0.1685
 5454TIP3    H216369   2.754   1.572   1.827 -0.5106  0.2196 -0.0379
 5455TIP3   OH216370   4.750   4.123   1.940 -0.1656 -0.9316 -0.2145
 5455TIP3    H116371   4.702   4.078   1.870  0.6622 -0.8780 -0.8415
 5455TIP3    H216372   4.809   4.057   1.975  0.9824 -0.4054 -1.0691
 5456TIP3   OH216373   5.619   2.520   1.938  0.4541 -0.5815 -0.6159
 5456TIP3    H116374   5.612   2.425   1.933 -0.3201 -0.6572  1.1775
 5456TIP3    H216375   5.534   2.552   1.907  0.4387 -0.5106 -0.5030
 5457TIP3   OH216376   4.650   0.527   1.816  0.1417  0.3162 -0.5032
 5457TIP3    H116377   4.656   0.489   1.729  0.3017  0.0473 -0.3765
 5457TIP3    H216378   4.702   0.608   1.811 -1.9716  1.7160 -1.3970
 5458TIP3   OH216379   5.315   1.222   1.006  0.4698 -0.4683  0.0431
 5458TIP3    H116380   5.375   1.204   1.079  4.5142  2.6595 -2.0640
 5458TIP3    H216381   5.277   1.307   1.027  1.3541  0.2633 -1.2264
 5459TIP3   OH216382   3.528   4.594   2.600 -0.7510  0.2897  0.9410
 5459TIP3    H116383   3.570   4.584   2.514  0.0437  0.2143  1.3277
 5459TIP3    H216384   3.522   4.688   2.613 -2.2391  0.3320  0.1657
 5460TIP3   OH216385   4.879   4.410   1.362 -0.2030  0.2537 -0.3184
 5460TIP3    H116386   4.914   4.446   1.280 -0.6348  0.5941 -0.3559
 5460TIP3    H216387   4.786   4.396   1.344  0.0632 -1.4632 -0.5038
 5461TIP3   OH216388   0.211   4.291   1.066  0.4845 -0.1459  0.2098
 5461TIP3    H116389   0.190   4.307   0.974  1.3065  1.0198  0.2074
 5461TIP3    H216390   0.197   4.375   1.109  1.1907 -0.3878  0.9368
 5462TIP3   OH216391   5.613   5.583   1.296 -0.2281 -0.5586  0.3389
 5462TIP3    H116392   5.637   5.615   1.209 -1.9972  1.7998  0.5804
 5462TIP3    H216393   5.664   5.638   1.357 -2.8841  1.6907  0.7598
 5463TIP3   OH216394   5.790   4.289   2.512 -0.7857  0.3085 -0.2814
 5463TIP3    H116395   5.783   4.244   2.428  0.6268  0.0437 -0.2749
 5463TIP3    H216396   5.835   4.371   2.492 -1.0061  0.5317  0.1232
 5464TIP3   OH216397   1.630   2.347   3.751 -0.1913  0.5050  0.5465
 5464TIP3    H116398   1.654   2.266   3.794 -2.1561 -0.9203 -0.8669
 5464TIP3    H216399   1.713   2.384   3.721  0.6762 -1.7390 -0.0335
 5465TIP3   OH216400   2.690   3.497   3.715  0.3205 -0.3489  0.0162
 5465TIP3    H116401   2.600   3.475   3.739 -0.1384  0.2912 -1.0645
 5465TIP3    H216402   2.702   3.459   3.628  1.4972 -1.4286  0.5982
 5466TIP3   OH216403   4.675   0.030   0.083 -0.0134  0.3047  0.3204
 5466TIP3    H116404   4.677   0.099   0.016  0.5378 -0.5530 -0.5731
 5466TIP3    H216405   4.585   0.030   0.115  0.1969  2.0918  1.0574
 5467TIP3   OH216406   0.179   0.550   3.059  0.4771 -0.5088  0.8681
 5467TIP3    H116407   0.085   0.566   3.058  0.3405 -1.0673 -1.8089
 5467TIP3    H216408   0.202   0.548   3.152 -2.0571  0.0755  1.5761
 5468TIP3   OH216409   6.162   0.316   1.903  0.2260  0.0435  0.5830
 5468TIP3    H116410   6.206   0.310   1.988  0.5709  0.8451  0.4637
 5468TIP3    H216411   6.199   0.394   1.862 -0.3481 -0.0228 -0.0718
 5469TIP3   OH216412   5.268   4.791   4.610  0.4040 -0.1659 -0.1615
 5469TIP3    H116413   5.209   4.728   4.652  1.6563 -1.0566  0.3065
 5469TIP3    H216414   5.355   4.768   4.641  0.9465  1.6164 -0.2229
 5470TIP3   OH216415   1.016   1.671   0.064  0.5573 -0.0523 -0.2668
 5470TIP3    H116416   1.067   1.703  -0.010  1.0273 -1.4248 -0.5760
 5470TIP3    H216417   1.008   1.745   0.123  0.4685  0.9770 -1.5304
 5471TIP3   OH216418   3.591   4.352   0.852  0.1104  0.1759 -0.3836
 5471TIP3    H116419   3.510   4.311   0.881  0.0421  0.3598 -0.3193
 5471TIP3    H216420   3.639   4.281   0.808 -0.1998  0.1298 -0.6536
 5472TIP3   OH216421   2.627   2.689   4.769  0.1756  0.2729 -0.1287
 5472TIP3    H116422   2.678   2.734   4.702 -0.7960  0.8391 -0.5190
 5472TIP3    H216423   2.578   2.759   4.813  0.6046 -0.1226  1.0084
 5473TIP3   OH216424   5.668   3.979   2.009  0.2578 -0.3167  0.2481
 5473TIP3    H116425   5.593   3.971   2.068  1.3657 -1.5197  1.5436
 5473TIP3    H216426   5.638   3.941   1.927 -1.2166  1.1495  0.0501
 5474TIP3   OH216427   3.431   5.952   2.428  0.2412 -0.0490  0.0621
 5474TIP3    H116428   3.373   5.970   2.355  0.5193 -0.2199 -0.2034
 5474TIP3    H216429   3.518   5.974   2.395  0.7112 -2.5936 -0.5563
 5475TIP3   OH216430   4.929   5.624   4.473  0.7213 -0.4827 -0.2548
 5475TIP3    H116431   4.989   5.656   4.541  0.6266  0.8767 -0.7752
 5475TIP3    H216432   4.983   5.620   4.394  0.4226 -0.4066 -0.4639
 5476TIP3   OH216433   1.995   2.445   1.156 -0.3707  0.6477 -0.1651
 5476TIP3    H116434   1.906   2.415   1.171 -0.7985  2.1562  0.4476
 5476TIP3    H216435   2.050   2.373   1.188 -1.3416  0.0067  0.1112
 5477TIP3   OH216436   4.789   4.798   0.781 -0.1210 -0.1393 -0.2445
 5477TIP3    H116437   4.777   4.730   0.715  0.1366 -2.8510  2.2987
 5477TIP3    H216438   4.701   4.828   0.801 -0.2584  0.1330 -1.1993
 5478TIP3   OH216439   3.766   5.721   3.216 -0.2931  0.2766 -0.1110
 5478TIP3    H116440   3.764   5.797   3.275 -0.8565  0.6364 -0.5926
 5478TIP3    H216441   3.689   5.731   3.161  0.0780 -0.2117 -0.7273
 5479TIP3   OH216442   1.856   4.822   2.489 -0.0137 -0.0311  0.6165
 5479TIP3    H116443   1.909   4.777   2.423 -1.3906 -0.9622  0.0959
 5479TIP3    H216444   1.899   4.802   2.572  0.5862 -0.5550  0.1915
 5480TIP3   OH216445   3.035   1.200   2.691  0.0563 -0.1980  0.1035
 5480TIP3    H116446   2.978   1.137   2.646 -1.7899 -0.1471  2.1975
 5480TIP3    H216447   2.991   1.284   2.679  1.1411  0.3053 -0.4824
 5481TIP3   OH216448   5.049   3.163   4.541  0.0527 -0.9483  0.1975
 5481TIP3    H116449   5.014   3.252   4.548  0.5543 -0.6577 -0.7841
 5481TIP3    H216450   5.030   3.123   4.626 -0.7583 -0.1175  0.4280
 5482TIP3   OH216451   3.298   0.435   1.435 -0.1318 -0.0045  0.3185
 5482TIP3    H116452   3.378   0.454   1.385 -1.8338  1.3954 -2.1006
 5482TIP3    H216453   3.278   0.517   1.480 -0.8819  0.0859 -0.1633
 5483TIP3   OH216454   5.616   4.600   4.079  0.3224  0.4596  0.1936
 5483TIP3    H116455   5.672   4.578   4.153 -0.9271  0.7226  1.2444
 5483TIP3    H216456   5.653   4.681   4.044  1.5124 -0.1966 -0.1193
 5484TIP3   OH216457   2.571   5.206   5.012  0.1824 -0.3700  0.1198
 5484TIP3    H116458   2.639   5.179   4.950  1.2084 -1.2073  1.5433
 5484TIP3    H216459   2.598   5.167   5.095  1.2795  4.1120  2.2038
 5485TIP3   OH216460   1.439   2.371   1.428 -0.5406 -0.0224 -0.2457
 5485TIP3    H116461   1.479   2.290   1.461 -0.7921  0.2438  0.7662
 5485TIP3    H216462   1.393   2.407   1.504 -1.2054  0.5970 -0.9271
 5486TIP3   OH216463   5.313   2.650   0.835 -0.5336  0.0359  0.6988
 5486TIP3    H116464   5.353   2.717   0.779 -2.1138  1.0579  0.7184
 5486TIP3    H216465   5.309   2.572   0.780  0.6560  0.1522  0.4165
 5487TIP3   OH216466   6.084   0.469   2.459  0.0490  0.9635  0.3923
 5487TIP3    H116467   6.111   0.541   2.516  4.5704 -0.0875 -0.0579
 5487TIP3    H216468   6.083   0.508   2.371  0.7504  0.9021  0.3509
 5488TIP3   OH216469   3.799   3.993   2.324  0.0349 -0.3907  0.0527
 5488TIP3    H116470   3.727   3.930   2.316 -0.2414  0.0490 -1.0805
 5488TIP3    H216471   3.877   3.939   2.338 -0.0810 -1.0525 -1.6741
 5489TIP3   OH216472   4.223   5.052   2.803  0.4792  0.6282 -0.4854
 5489TIP3    H116473   4.242   4.964   2.771 -0.7834  0.2259 -0.1783
 5489TIP3    H216474   4.138   5.074   2.763 -1.4673 -0.1103  2.8479
 5490TIP3   OH216475   5.290   0.691   1.366 -0.6424 -0.0581 -0.4971
 5490TIP3    H116476   5.333   0.761   1.316 -2.5554 -0.1624 -2.4175
 5490TIP3    H216477   5.225   0.737   1.420 -1.7250 -0.2885 -1.5707
 5491TIP3   OH216478   5.159   1.013   1.081  0.2028  0.2386  0.3600
 5491TIP3    H116479   5.111   1.065   1.145 -0.7379 -0.1899  0.0217
 5491TIP3    H216480   5.206   1.077   1.028 -1.0004  0.7750 -0.1009
 5492TIP3   OH216481   4.231   4.908   4.684  0.1313  0.5103  0.0277
 5492TIP3    H116482   4.267   4.860   4.758  2.1249 -0.2730 -1.3650
 5492TIP3    H216483   4.144   4.869   4.671  0.7597 -1.1060  0.4099
 5493TIP3   OH216484   5.752   3.336   2.685  0.4868  0.2249  0.4999
 5493TIP3    H116485   5.776   3.275   2.755  2.8425  2.7205  2.0831
 5493TIP3    H216486   5.741   3.280   2.608  2.1841 -2.2528  1.8782
 5494TIP3   OH216487   5.317   1.973   0.968  0.2170 -0.6510  0.5895
 5494TIP3    H116488   5.316   2.057   1.015 -0.3067 -0.1369 -0.3007
 5494TIP3    H216489   5.231   1.934   0.987 -0.2556 -0.1494 -0.4053
 5495TIP3   OH216490   1.110   4.023   3.546 -0.1421  0.4550 -0.1147
 5495TIP3    H116491   1.146   3.934   3.542 -0.4218  0.3848 -2.5979
 5495TIP3    H216492   1.126   4.051   3.636  0.9497 -1.6914  0.4336
 5496TIP3   OH216493   5.772   0.365   0.439  0.4667 -0.3349 -0.3307
 5496TIP3    H116494   5.818   0.381   0.356  0.6712 -1.2591 -0.4028
 5496TIP3    H216495   5.819   0.292   0.479  0.0528 -0.2274  0.3630
 5497TIP3   OH216496   2.864   5.665   3.988 -0.0308 -0.3792  0.4108
 5497TIP3    H116497   2.910   5.745   3.965  1.5799 -0.8878  1.6572
 5497TIP3    H216498   2.860   5.615   3.906 -0.2571  0.5660 -0.1713
 5498TIP3   OH216499   1.319   2.427   1.675  0.0194 -0.0830  0.1700
 5498TIP3    H116500   1.342   2.387   1.760 -0.3821 -0.7464 -0.0258
 5498TIP3    H216501   1.224   2.431   1.676 -0.0876 -1.6284 -0.9192
 5499TIP3   OH216502   5.544   0.806   2.396  0.0389 -0.7171  0.1810
 5499TIP3    H116503   5.601   0.745   2.349 -0.1111 -0.9318  0.2778
 5499TIP3    H216504   5.531   0.766   2.482 -0.5059 -0.8249  0.0532
 5500TIP3   OH216505   1.529   5.233   3.143  0.8099 -0.1514 -0.0612
 5500TIP3    H116506   1.531   5.232   3.048 -0.8941 -0.9509 -0.1248
 5500TIP3    H216507   1.498   5.321   3.165  1.2738  0.0574 -0.2451
 5501TIP3   OH216508   4.636   4.427   3.030 -0.2608 -0.0182  0.2264
 5501TIP3    H116509   4.648   4.397   2.940 -1.2778 -0.0659  0.1020
 5501TIP3    H216510   4.662   4.352   3.084  1.3365  0.3458  0.0155
 5502TIP3   OH216511   0.860   1.357   1.029 -0.1590 -0.1301 -0.1697
 5502TIP3    H116512   0.948   1.356   1.066  0.5938  1.1648 -1.8168
 5502TIP3    H216513   0.811   1.293   1.082  1.7066 -0.7819  0.8563
 5503TIP3   OH216514   0.937   4.945   1.919 -0.1723  0.6101 -0.2540
 5503TIP3    H116515   0.845   4.923   1.938 -0.5178  3.0054  1.2751
 5503TIP3    H216516   0.980   4.944   2.004  0.9003  0.8667 -0.7789
 5504TIP3   OH216517   4.263   0.500   0.439 -0.5280 -0.5443  0.1853
 5504TIP3    H116518   4.233   0.476   0.352  0.5913  1.3295 -0.7865
 5504TIP3    H216519   4.326   0.432   0.462  0.0722 -0.4116 -0.9983
 5505TIP3   OH216520   5.546   5.809   4.011  0.4717  0.0794 -0.0863
 5505TIP3    H116521   5.517   5.805   3.921  1.4043  0.1367 -0.4037
 5505TIP3    H216522   5.533   5.721   4.046 -0.6573  0.2608 -0.0156
 5506TIP3   OH216523   3.238   3.530   2.863 -0.3111 -0.2260 -0.5243
 5506TIP3    H116524   3.304   3.484   2.811 -0.9438 -0.1808 -1.3725
 5506TIP3    H216525   3.285   3.557   2.942  0.9011  0.5311 -1.4683
 5507TIP3   OH216526   3.855   2.625   0.317 -0.1137  0.1990  0.0028
 5507TIP3    H116527   3.770   2.582   0.317  0.8498 -2.0867  3.1013
 5507TIP3    H216528   3.858   2.672   0.400  2.2498 -1.4018  0.9417
 5508TIP3   OH216529   3.360   4.866   3.711  0.3727  0.4867 -0.2156
 5508TIP3    H116530   3.385   4.916   3.788  1.4505 -1.5548  0.8463
 5508TIP3    H216531   3.264   4.867   3.711  0.3693  1.0979  0.7346
 5509TIP3   OH216532   5.882   3.362   0.157  0.1810  0.3381 -0.6612
 5509TIP3    H116533   5.894   3.442   0.107 -0.8267  1.3462  0.6165
 5509TIP3    H216534   5.963   3.353   0.208  0.0025  0.9746 -0.2533
 5510TIP3   OH216535   2.945   3.438   4.925  0.3950 -0.1155  0.9321
 5510TIP3    H116536   2.900   3.521   4.938  0.6892  0.1737  0.1651
 5510TIP3    H216537   2.986   3.419   5.009 -0.6259 -0.0738  1.4623
 5511TIP3   OH216538   1.781   4.372   4.459  0.5869  0.0022  0.1195
 5511TIP3    H116539   1.851   4.379   4.394  0.2235  0.0555 -0.2680
 5511TIP3    H216540   1.740   4.458   4.459  0.2968 -0.1361  0.0902
 5512TIP3   OH216541   1.680   5.963   4.445 -0.0306 -0.3478  0.3883
 5512TIP3    H116542   1.672   5.878   4.488 -0.1596 -0.2046  0.6511
 5512TIP3    H216543   1.740   5.947   4.373 -1.2893 -1.0399 -0.5562
 5513TIP3   OH216544   1.998   5.302   2.112  0.2946 -0.3734  0.5456
 5513TIP3    H116545   1.928   5.247   2.148  1.0225 -1.5446  0.2367
 5513TIP3    H216546   1.990   5.290   2.017  0.8457 -0.4390  0.5052
 5514TIP3   OH216547   4.691   4.859   3.309  0.1727  0.5423 -0.1507
 5514TIP3    H116548   4.764   4.826   3.361 -1.1412 -1.0943  0.7696
 5514TIP3    H216549   4.681   4.796   3.238 -2.0804 -0.9778  1.3621
 5515TIP3   OH216550   3.228   0.898   1.458 -0.4797 -0.1152 -0.1373
 5515TIP3    H116551   3.279   0.934   1.530 -1.1716 -0.2886  0.4504
 5515TIP3    H216552   3.260   0.944   1.380  1.3363 -0.9867  0.0399
 5516TIP3   OH216553   2.815   1.602   4.422  0.2860  0.1722 -0.6814
 5516TIP3    H116554   2.896   1.574   4.380  0.2156  1.6549 -1.8549
 5516TIP3    H216555   2.813   1.697   4.411  0.3248  0.7255  2.8111
 5517TIP3   OH216556   3.361   0.875   2.456  0.2149  0.0893  0.6254
 5517TIP3    H116557   3.373   0.874   2.361 -0.2108 -0.7550  0.5706
 5517TIP3    H216558   3.273   0.911   2.468 -0.7368 -2.0357  0.5438
 5518TIP3   OH216559   0.552   2.722   0.986 -0.3848 -0.1171  0.0566
 5518TIP3    H116560   0.643   2.742   1.011 -0.4358 -0.9652  0.9902
 5518TIP3    H216561   0.500   2.751   1.060 -0.8826  0.3271 -0.4615
 5519TIP3   OH216562   5.612   0.585   3.551  0.0970 -0.1752 -0.7210
 5519TIP3    H116563   5.601   0.534   3.631  0.8680 -0.0350 -0.5219
 5519TIP3    H216564   5.541   0.650   3.553 -0.2684 -0.5771 -0.4755
 5520TIP3   OH216565   5.837   3.104   0.905 -0.2481  0.0042  0.3202
 5520TIP3    H116566   5.743   3.093   0.891 -0.2125 -1.2781  0.9179
 5520TIP3    H216567   5.845   3.191   0.944 -1.0501  0.6158 -0.8291
 5521TIP3   OH216568   1.091   5.842   4.955  0.0977 -0.1030  0.0417
 5521TIP3    H116569   1.039   5.762   4.949  2.4448 -1.8317  0.9051
 5521TIP3    H216570   1.144   5.829   5.034  3.0929  0.6536 -1.7077
 5522TIP3   OH216571   5.346   3.987   2.933  0.3923  0.2480 -0.4288
 5522TIP3    H116572   5.310   3.906   2.896  0.2498  0.9662 -1.9414
 5522TIP3    H216573   5.424   4.004   2.880 -0.3514  1.8427 -1.0606
 5523TIP3   OH216574   3.346   4.244   1.767 -0.2336 -0.5184 -0.1289
 5523TIP3    H116575   3.335   4.332   1.803  1.0325 -0.0418 -0.8555
 5523TIP3    H216576   3.407   4.255   1.695 -0.0205 -2.0127 -0.2033
 5524TIP3   OH216577   1.401   2.747   1.811 -0.1982  0.2341 -0.0948
 5524TIP3    H116578   1.354   2.691   1.749 -0.3428 -1.1449  1.1916
 5524TIP3    H216579   1.364   2.834   1.798 -0.7191 -0.1546 -1.4334
 5525TIP3   OH216580   5.836   5.738   2.470  0.3705 -0.3871  0.0144
 5525TIP3    H116581   5.829   5.830   2.495  0.4481 -0.3070 -0.2527
 5525TIP3    H216582   5.929   5.718   2.483  0.5142 -0.2008 -0.6969
 5526TIP3   OH216583   0.085   3.946   1.648 -0.4151 -0.1898  0.0700
 5526TIP3    H116584   0.073   4.020   1.589 -0.2025  1.2738  1.7972
 5526TIP3    H216585   0.145   3.888   1.602 -1.2314  0.2748 -1.6669
 5527TIP3   OH216586   2.044   5.893   1.956  0.2612  0.2821  0.5412
 5527TIP3    H116587   1.990   5.892   2.034 -0.2288 -1.4840  0.2212
 5527TIP3    H216588   2.125   5.937   1.983 -0.7366  1.6601  1.4060
 5528TIP3   OH216589   4.222   0.617   2.461 -0.2270  0.1134 -0.5797
 5528TIP3    H116590   4.136   0.576   2.453  0.1718 -0.9593  0.2935
 5528TIP3    H216591   4.216   0.697   2.409 -1.7764  0.1073 -0.4592
 5529TIP3   OH216592   5.148   3.845   4.731  0.1975  0.5118 -0.0077
 5529TIP3    H116593   5.238   3.850   4.698 -0.4810 -0.8837 -2.2823
 5529TIP3    H216594   5.127   3.752   4.729 -1.4306  0.8492  0.0746
 5530TIP3   OH216595   2.513   1.363   0.256 -0.0119 -0.0108 -0.0533
 5530TIP3    H116596   2.522   1.325   0.343 -1.2249  2.4426  1.2276
 5530TIP3    H216597   2.591   1.334   0.209  2.5742  1.4801  3.0088
 5531TIP3   OH216598   4.345   4.542   0.701 -0.4076 -0.3230 -0.4525
 5531TIP3    H116599   4.301   4.545   0.616 -1.6496  0.5928  0.1902
 5531TIP3    H216600   4.304   4.469   0.747 -0.0222 -0.5636 -0.4888
 5532TIP3   OH216601   0.628   2.391   2.088 -0.1334  0.4987 -0.2531
 5532TIP3    H116602   0.681   2.422   2.014  0.1057 -0.6859 -0.5915
 5532TIP3    H216603   0.603   2.471   2.134  0.3507  1.2072 -1.1821
 5533TIP3   OH216604   1.486   1.333   0.600  0.3566  0.3024 -0.8625
 5533TIP3    H116605   1.398   1.362   0.577  0.5004  0.6622 -0.9722
 5533TIP3    H216606   1.476   1.288   0.684  0.2982  1.6655 -0.1144
 5534TIP3   OH216607   1.047   0.782   2.179 -0.2021  0.1950 -0.3306
 5534TIP3    H116608   1.013   0.847   2.240 -0.3527 -1.6891  1.7221
 5534TIP3    H216609   1.008   0.806   2.095 -0.8871  2.2470  0.5126
 5535TIP3   OH216610   2.634   5.600   4.733  0.2863  0.0865 -0.0330
 5535TIP3    H116611   2.624   5.566   4.644  0.8814 -1.3976  0.4359
 5535TIP3    H216612   2.584   5.539   4.787  0.7262  0.4156  0.7559
 5536TIP3   OH216613   2.885   1.700   2.676  0.6653  0.0460 -0.0251
 5536TIP3    H116614   2.793   1.707   2.702  0.9753 -2.0800  2.0274
 5536TIP3    H216615   2.933   1.730   2.753  1.6731 -0.1709 -0.5624
 5537TIP3   OH216616   3.364   1.456   0.412  0.5230 -0.3630  0.1254
 5537TIP3    H116617   3.410   1.465   0.329 -0.2607 -1.0026 -0.3972
 5537TIP3    H216618   3.272   1.445   0.388  0.4471 -1.9578  0.9936
 5538TIP3   OH216619   4.339   4.798   3.339 -0.2792 -0.0071  0.4602
 5538TIP3    H116620   4.380   4.813   3.424  0.3458  0.7092  0.0392
 5538TIP3    H216621   4.361   4.707   3.318 -2.1672 -0.8907  1.9739
 5539TIP3   OH216622   5.601   2.223   0.281 -0.7158  0.1909  0.9684
 5539TIP3    H116623   5.652   2.214   0.362 -1.4939 -1.8003  1.2910
 5539TIP3    H216624   5.567   2.136   0.265 -0.4312  0.4999 -1.6527
 5540TIP3   OH216625   1.412   5.990   5.051  0.2095  0.0380 -0.5032
 5540TIP3    H116626   1.441   5.902   5.026  0.2519 -0.4164  1.0349
 5540TIP3    H216627   1.488   6.028   5.096 -0.7214 -0.2655  1.4353
 5541TIP3   OH216628   5.074   1.468   1.549 -0.6128  0.3486 -0.3537
 5541TIP3    H116629   5.110   1.379   1.558  0.0337  0.7190  0.9519
 5541TIP3    H216630   5.139   1.514   1.496 -0.2022  0.4394  0.2197
 5542TIP3   OH216631   4.228   1.049   0.862  0.0274  0.1147  0.2672
 5542TIP3    H116632   4.272   1.086   0.938  1.6348 -0.8854 -0.1329
 5542TIP3    H216633   4.298   1.034   0.798 -0.9464 -1.1907 -0.5500
 5543TIP3   OH216634   6.344   0.263   2.221  0.4993 -0.0625  0.4402
 5543TIP3    H116635   6.357   0.268   2.316  0.4465 -1.1466  0.5130
 5543TIP3    H216636   6.281   0.192   2.209  1.9423 -1.2433 -0.5022
 5544TIP3   OH216637   2.028   0.492   2.373  0.2840 -0.1099 -0.4278
 5544TIP3    H116638   2.060   0.570   2.418 -0.8908 -1.0113  2.1688
 5544TIP3    H216639   1.943   0.518   2.339  0.0482 -0.1323  0.1296
 5545TIP3   OH216640   5.912   1.530   0.192 -0.3662  0.4642  0.0725
 5545TIP3    H116641   5.828   1.494   0.220  0.4414 -1.3752  0.2777
 5545TIP3    H216642   5.965   1.533   0.271 -0.5512  2.6806  0.1679
 5546TIP3   OH216643   4.151   5.981   4.189  0.2936  0.3471 -0.0021
 5546TIP3    H116644   4.144   5.976   4.284 -0.9931 -0.9770 -0.1315
 5546TIP3    H216645   4.219   5.918   4.167 -1.4381 -1.5880 -0.1190
 5547TIP3   OH216646   3.364   0.505   0.991  0.0282 -0.4063 -0.2336
 5547TIP3    H116647   3.424   0.520   1.064 -0.0025 -0.3079 -0.2279
 5547TIP3    H216648   3.279   0.538   1.022 -0.2513 -1.4144  0.1122
 5548TIP3   OH216649   1.981   1.761   1.167  0.3092 -0.6049 -0.3737
 5548TIP3    H116650   2.008   1.684   1.218 -0.0637 -0.6310 -0.2105
 5548TIP3    H216651   1.992   1.735   1.076  0.3037 -0.8098 -0.3158
 5549TIP3   OH216652   4.563   1.009   4.465 -0.3690 -0.0444 -0.1419
 5549TIP3    H116653   4.545   0.995   4.372  0.2537 -1.9667 -0.0339
 5549TIP3    H216654   4.489   0.968   4.510  0.6095 -1.5046  0.2059
 5550TIP3   OH216655   1.701   3.504   2.909  0.0738 -0.6065  0.1445
 5550TIP3    H116656   1.726   3.481   2.998 -0.1581  1.0369  0.6582
 5550TIP3    H216657   1.607   3.516   2.912 -0.0878 -1.5264 -0.5770
 5551TIP3   OH216658   0.686   0.783   4.956 -0.4971 -0.3892 -0.1769
 5551TIP3    H116659   0.596   0.755   4.940 -0.0555 -3.1422  1.5803
 5551TIP3    H216660   0.713   0.734   5.033  2.2974  0.9015 -0.2279
 5552TIP3   OH216661   4.351   2.238   4.798  0.2300 -0.3681  0.0032
 5552TIP3    H116662   4.444   2.260   4.793  0.8726 -1.8551  2.9811
 5552TIP3    H216663   4.336   2.182   4.722  1.7496 -0.0456 -0.5764
 5553TIP3   OH216664   4.197   1.286   3.411  0.2560 -0.1449 -0.5783
 5553TIP3    H116665   4.229   1.367   3.451  0.6298 -1.7094  2.6039
 5553TIP3    H216666   4.269   1.257   3.355  0.5899  1.0841 -0.8151
 5554TIP3   OH216667   0.245   5.723   3.988  0.0461  0.0521 -0.0357
 5554TIP3    H116668   0.328   5.719   4.035 -0.2992  0.1993  0.5970
 5554TIP3    H216669   0.180   5.744   4.055 -0.9277 -2.6568  0.0068
 5555TIP3   OH216670   3.036   3.122   3.729 -0.0506  0.2453 -0.3472
 5555TIP3    H116671   3.029   3.033   3.695  0.4804 -0.3315  0.9866
 5555TIP3    H216672   3.060   3.175   3.653  1.4301 -1.0359 -0.8160
 5556TIP3   OH216673   5.607   0.112   0.184 -0.2053  0.1256 -0.0533
 5556TIP3    H116674   5.547   0.133   0.256  0.4450 -0.2365  0.6152
 5556TIP3    H216675   5.559   0.133   0.105 -0.2338  2.4813  0.5199
 5557TIP3   OH216676   0.142   4.908   0.544 -0.5684  0.4502 -0.6615
 5557TIP3    H116677   0.053   4.931   0.517  0.0096  3.2059 -0.5699
 5557TIP3    H216678   0.167   4.978   0.605  0.9201 -1.4365  1.0375
 5558TIP3   OH216679   1.883   2.441   0.146 -0.0203  0.4425  0.5425
 5558TIP3    H116680   1.970   2.435   0.106 -0.4529  0.4065 -0.4221
 5558TIP3    H216681   1.893   2.399   0.232  0.4753 -1.2998 -0.3242
 5559TIP3   OH216682   1.707   1.304   2.150  0.1961  0.4404 -0.1342
 5559TIP3    H116683   1.795   1.270   2.132  0.2812  0.4911  0.1822
 5559TIP3    H216684   1.705   1.318   2.245 -1.1726 -2.4505  0.3620
 5560TIP3   OH216685   4.385   3.272   3.213  0.3493  0.1130  0.2476
 5560TIP3    H116686   4.407   3.334   3.143 -0.9724  0.1971 -0.1190
 5560TIP3    H216687   4.444   3.296   3.285  0.1167  1.5768 -0.0134
 5561TIP3   OH216688   0.543   4.120   4.862 -0.3223  0.3298 -0.3870
 5561TIP3    H116689   0.572   4.185   4.926  0.6710 -0.9554  0.5443
 5561TIP3    H216690   0.555   4.162   4.777 -0.8258  1.7560  0.2190
 5562TIP3   OH216691   4.412   0.103   0.969  0.1376 -0.3058  0.5757
 5562TIP3    H116692   4.467   0.159   1.023 -0.2470  0.1252  0.5308
 5562TIP3    H216693   4.344   0.162   0.935  0.6626 -0.4473 -0.7898
 5563TIP3   OH216694   3.823   0.760   2.272  0.4782  0.0183  0.2158
 5563TIP3    H116695   3.818   0.846   2.230  1.3249  0.0965  0.2503
 5563TIP3    H216696   3.749   0.758   2.332 -1.4078 -0.4942 -1.9795
 5564TIP3   OH216697   3.201   2.833   0.250  0.1751  0.3298 -0.6179
 5564TIP3    H116698   3.285   2.877   0.241  1.0555 -0.9913  0.5936
 5564TIP3    H216699   3.137   2.893   0.212  1.3767  2.3196  0.3602
 5565TIP3   OH216700   2.903   1.669   2.074 -0.3053 -0.1833 -0.6950
 5565TIP3    H116701   2.921   1.764   2.073  0.4332 -0.2925  0.2980
 5565TIP3    H216702   2.809   1.663   2.086 -0.3065  0.4323 -0.3262
 5566TIP3   OH216703   3.329   5.840   0.160  0.3527 -0.3138 -0.4810
 5566TIP3    H116704   3.246   5.808   0.126  0.2109 -0.3265 -0.1277
 5566TIP3    H216705   3.347   5.920   0.111  0.0172 -0.1877 -0.3967
 5567TIP3   OH216706   2.130   4.158   4.478 -0.5970  0.0489 -0.3565
 5567TIP3    H116707   2.090   4.197   4.400  0.9380  0.3871 -1.0118
 5567TIP3    H216708   2.165   4.232   4.527 -1.4036 -0.1774  0.5956
 5568TIP3   OH216709   3.543   2.464   0.899  0.1106 -0.6059  0.1831
 5568TIP3    H116710   3.497   2.411   0.965 -0.6186 -0.7765 -0.4430
 5568TIP3    H216711   3.617   2.503   0.946 -1.5589  0.9798  1.6485
 5569TIP3   OH216712   1.974   1.280   2.249  0.1659  0.0952 -0.3915
 5569TIP3    H116713   2.038   1.220   2.209  0.6019  0.0902  0.2984
 5569TIP3    H216714   1.940   1.232   2.324  0.0434  0.4680 -0.2087
 5570TIP3   OH216715   5.247   4.483   2.957 -0.1084  0.4798  0.0026
 5570TIP3    H116716   5.244   4.540   2.880  0.6783  1.5614  0.7509
 5570TIP3    H216717   5.157   4.480   2.988 -0.3067  0.5997 -0.5435
 5571TIP3   OH216718   0.349   2.617   5.103  0.5333  0.6293 -0.3642
 5571TIP3    H116719   0.414   2.648   5.166 -1.3702  1.7782  1.1547
 5571TIP3    H216720   0.357   2.677   5.029 -0.3386  2.2559  0.8133
 5572TIP3   OH216721   4.446   3.771   0.534 -0.3860 -0.5972  0.3100
 5572TIP3    H116722   4.495   3.803   0.458 -2.0331 -2.1888 -1.5379
 5572TIP3    H216723   4.393   3.846   0.562  1.0745  0.3422  0.6638
 5573TIP3   OH216724   6.171   5.225   3.408 -0.5076  0.4262  1.1523
 5573TIP3    H116725   6.179   5.189   3.319  0.5496 -1.7663  2.0651
 5573TIP3    H216726   6.218   5.309   3.404  1.2868 -0.5699  0.0943
 5574TIP3   OH216727   5.105   4.767   4.177 -0.1922 -0.6122  0.5237
 5574TIP3    H116728   5.031   4.706   4.171 -0.8763  0.3116 -0.6925
 5574TIP3    H216729   5.179   4.718   4.140 -0.8447 -0.5668 -0.9044
 5575TIP3   OH216730   2.161   2.769   4.175  0.6493  0.2919  0.4518
 5575TIP3    H116731   2.172   2.811   4.260 -0.7340  1.1619  0.2448
 5575TIP3    H216732   2.216   2.819   4.115  0.6351  0.4961  0.6084
 5576TIP3   OH216733   4.054   5.797   1.500 -0.6600 -0.1426 -0.0009
 5576TIP3    H116734   4.138   5.763   1.529 -0.5113 -0.1941 -0.4826
 5576TIP3    H216735   3.996   5.787   1.576 -0.2336 -0.1053  0.3312
 5577TIP3   OH216736   5.659   3.647   3.520  0.0628 -0.4751  0.0275
 5577TIP3    H116737   5.705   3.679   3.598  1.4034 -3.3365  0.5681
 5577TIP3    H216738   5.729   3.630   3.457 -0.7391 -0.7291 -0.8069
 5578TIP3   OH216739   0.757   2.667   3.473  0.1369  0.3243 -0.0447
 5578TIP3    H116740   0.681   2.612   3.495  1.3220 -0.9535  1.0392
 5578TIP3    H216741   0.765   2.659   3.378 -0.0800 -0.9079  0.0240
 5579TIP3   OH216742   6.004   0.762   4.645  0.2154 -0.5432 -0.2298
 5579TIP3    H116743   5.996   0.857   4.633  1.0104 -0.2363  1.4812
 5579TIP3    H216744   6.070   0.736   4.581  0.4959  0.1609 -0.2446
 5580TIP3   OH216745   1.957   0.903   2.396  0.7088 -0.1916  0.7077
 5580TIP3    H116746   1.974   0.909   2.302 -2.1757 -0.5379  0.0685
 5580TIP3    H216747   1.945   0.994   2.424  1.3490 -0.1032  0.7040
 5581TIP3   OH216748   4.854   4.596   2.294 -0.2175  0.7760 -0.3476
 5581TIP3    H116749   4.792   4.643   2.239 -0.8677  1.7691  1.1854
 5581TIP3    H216750   4.886   4.661   2.356  1.4490 -0.0129 -0.3209
 5582TIP3   OH216751   0.322   4.954   1.953  0.0166  0.6406  0.0934
 5582TIP3    H116752   0.361   4.905   1.881  0.0914  1.8973 -0.7561
 5582TIP3    H216753   0.243   4.992   1.916 -0.3898  0.6288  0.9244
 5583TIP3   OH216754   0.163   4.259   3.126 -0.3746  0.0607  0.1582
 5583TIP3    H116755   0.257   4.254   3.143 -0.3183  2.2380  0.8252
 5583TIP3    H216756   0.155   4.238   3.033  0.5126 -1.9578  0.4739
 5584TIP3   OH216757   3.910   1.483   3.333  0.2163  0.0049 -0.1892
 5584TIP3    H116758   3.988   1.528   3.367 -1.0158  2.2093 -0.1311
 5584TIP3    H216759   3.836   1.526   3.376 -1.2247  0.4718 -2.9250
 5585TIP3   OH216760   4.880   1.556   2.635 -0.1216  0.3816  0.2972
 5585TIP3    H116761   4.824   1.580   2.561  0.3721 -0.0721 -0.2247
 5585TIP3    H216762   4.822   1.505   2.692 -0.3409  0.2239 -0.0629
 5586TIP3   OH216763   6.183   1.853   0.807  0.0880 -0.0941 -0.3592
 5586TIP3    H116764   6.109   1.819   0.858  1.5073 -0.0917  1.8279
 5586TIP3    H216765   6.151   1.935   0.770 -0.9019  0.0865  0.8413
 5587TIP3   OH216766   0.961   0.935   1.121  0.2723 -0.3021 -0.4634
 5587TIP3    H116767   0.897   1.005   1.107 -1.5632 -1.5990  0.8772
 5587TIP3    H216768   1.013   0.964   1.196  0.9169  0.5227 -1.2180
 5588TIP3   OH216769   5.402   0.247   3.202  0.1206 -0.0691  0.0166
 5588TIP3    H116770   5.345   0.221   3.275 -0.8538 -0.6654 -0.9216
 5588TIP3    H216771   5.476   0.290   3.244  0.3785 -1.7867  1.4855
 5589TIP3   OH216772   4.001   4.766   4.671  0.4763  0.2711 -0.1057
 5589TIP3    H116773   3.998   4.695   4.606  0.8955  1.0393 -0.9982
 5589TIP3    H216774   3.991   4.723   4.755 -0.6740 -0.7004 -0.7237
 5590TIP3   OH216775   0.667   3.952   2.789 -0.2263  0.2192  0.2559
 5590TIP3    H116776   0.638   3.920   2.874 -0.3391 -0.1631  0.0803
 5590TIP3    H216777   0.622   4.035   2.777  0.5755  0.7706  1.0120
 5591TIP3   OH216778   4.500   4.921   0.708 -0.0586 -0.6581  0.2486
 5591TIP3    H116779   4.577   4.973   0.684  0.3230 -0.9774  0.7527
 5591TIP3    H216780   4.496   4.928   0.804 -2.3913  1.7898  0.0678
 5592TIP3   OH216781   3.314   2.936   1.529  0.3760 -0.0685  0.6224
 5592TIP3    H116782   3.277   3.023   1.541 -1.7570 -0.8453  0.0433
 5592TIP3    H216783   3.396   2.952   1.481 -1.1878  1.4729 -1.7531
 5593TIP3   OH216784   3.570   1.672   1.385  0.1233 -0.0325  0.1141
 5593TIP3    H116785   3.616   1.667   1.301 -1.0263 -0.2596 -0.5119
 5593TIP3    H216786   3.591   1.760   1.418  0.2611  0.2055 -0.5866
 5594TIP3   OH216787   1.493   3.302   1.369  0.2298  0.0229 -0.1937
 5594TIP3    H116788   1.422   3.366   1.378 -1.3792 -1.5720 -0.8232
 5594TIP3    H216789   1.457   3.221   1.406  1.5146 -0.9903 -1.0696
 5595TIP3   OH216790   1.321   5.020   1.115 -0.4326  0.5755 -0.2590
 5595TIP3    H116791   1.321   5.092   1.178 -0.7493  0.3808 -0.0334
 5595TIP3    H216792   1.360   5.057   1.036 -0.5573  0.9844 -0.1320
 5596TIP3   OH216793   3.419   1.865   1.971  0.6329  0.2468 -0.9350
 5596TIP3    H116794   3.447   1.917   1.895 -1.8684  0.0022 -2.1127
 5596TIP3    H216795   3.344   1.913   2.006 -0.0055 -1.1429 -0.3524
 5597TIP3   OH216796   5.499   4.985   2.811  0.1239  0.5030  0.0930
 5597TIP3    H116797   5.406   5.000   2.795  0.3217  2.1519  0.3209
 5597TIP3    H216798   5.543   5.058   2.769  1.4046 -0.6686 -0.7013
 5598TIP3   OH216799   4.401   5.283   1.080 -0.2870  0.0378  0.0107
 5598TIP3    H116800   4.341   5.273   1.154  0.2776 -3.1831  0.2079
 5598TIP3    H216801   4.348   5.265   1.003 -0.5642  2.0171 -0.3064
 5599TIP3   OH216802   4.715   1.376   4.914 -0.0946  0.6897  0.5688
 5599TIP3    H116803   4.734   1.307   4.850 -1.6953 -1.0387  1.8631
 5599TIP3    H216804   4.773   1.448   4.889 -1.3785  0.5686 -3.5425
 5600TIP3   OH216805   4.610   5.129   1.247  0.4461 -0.0787  0.0866
 5600TIP3    H116806   4.556   5.051   1.259  0.5475  0.0222  1.3560
 5600TIP3    H216807   4.548   5.200   1.230  0.2204 -0.0969  0.8119
 5601TIP3   OH216808   2.102   2.506   0.903 -0.3560  0.4077 -0.1161
 5601TIP3    H116809   2.041   2.474   0.969  0.5687  1.5775  1.3639
 5601TIP3    H216810   2.186   2.467   0.926 -0.0353  0.7600 -0.6580
 5602TIP3   OH216811   5.658   0.490   0.834  0.2435 -0.0832 -0.0095
 5602TIP3    H116812   5.647   0.561   0.898 -0.1664  1.9778 -2.2116
 5602TIP3    H216813   5.747   0.459   0.849  0.0843  0.1492  1.7030
 5603TIP3   OH216814   1.530   2.763   3.211  0.0283  0.5816 -0.4356
 5603TIP3    H116815   1.481   2.788   3.289  0.7159  1.4463 -0.2685
 5603TIP3    H216816   1.604   2.713   3.245  1.1901  2.2552 -0.3554
 5604TIP3   OH216817   0.142   1.445   0.457 -0.0236  0.1250 -0.3168
 5604TIP3    H116818   0.101   1.449   0.544  1.5258  3.1224  0.3930
 5604TIP3    H216819   0.075   1.405   0.401 -3.2032  2.9084  1.1749
 5605TIP3   OH216820   6.099   1.114   2.988  0.1836  0.0031  0.0299
 5605TIP3    H116821   6.115   1.174   2.914  0.6891  2.3863  1.9442
 5605TIP3    H216822   6.004   1.120   3.002  0.4371  1.9115  1.3404
 5606TIP3   OH216823   1.276   2.894   0.442  0.0050 -0.2237 -0.2949
 5606TIP3    H116824   1.254   2.903   0.535  0.4015 -0.4475 -0.1768
 5606TIP3    H216825   1.192   2.897   0.397 -0.0731  2.2009 -0.1250
 5607TIP3   OH216826   0.990   0.729   2.987  0.7647  0.2754 -0.1640
 5607TIP3    H116827   0.937   0.699   2.914 -1.1226 -2.5648  2.1279
 5607TIP3    H216828   0.974   0.823   2.992 -2.3448 -0.1017 -0.9741
 5608TIP3   OH216829   0.326   1.617   4.859  0.2377  0.1686  0.0507
 5608TIP3    H116830   0.393   1.638   4.793  1.1077  0.1641  0.9188
 5608TIP3    H216831   0.288   1.701   4.882  1.1810  0.3970  0.8402
 5609TIP3   OH216832   3.513   4.341   4.276 -0.1818 -0.1263  0.4864
 5609TIP3    H116833   3.441   4.375   4.328 -0.0182 -1.9016  1.9904
 5609TIP3    H216834   3.484   4.254   4.249  0.8087 -0.2772 -0.1573
 5610TIP3   OH216835   2.662   4.407   3.308 -0.1151  0.3273 -0.0251
 5610TIP3    H116836   2.604   4.464   3.258  1.5731 -0.7812 -3.6226
 5610TIP3    H216837   2.636   4.318   3.282  1.3417 -0.2649  0.4489
 5611TIP3   OH216838   1.626   1.148   0.972  0.3759 -0.1188 -0.0976
 5611TIP3    H116839   1.615   1.203   1.049  2.0126  1.2385 -0.7578
 5611TIP3    H216840   1.537   1.138   0.937 -0.2799 -0.1018  1.4880
 5612TIP3   OH216841   5.261   2.223   4.418  0.6051 -0.1884 -0.0946
 5612TIP3    H116842   5.299   2.311   4.416  0.3098 -0.0375 -2.8102
 5612TIP3    H216843   5.325   2.169   4.371 -0.6054 -0.7481 -1.1788
 5613TIP3   OH216844   6.256   3.300   1.306  0.3673 -0.3023  0.3592
 5613TIP3    H116845   6.278   3.281   1.397  1.2000 -1.7793 -0.1229
 5613TIP3    H216846   6.337   3.287   1.258 -0.0337  0.5604 -0.6081
 5614TIP3   OH216847   1.612   3.582   0.099 -0.0583 -0.3294  0.2674
 5614TIP3    H116848   1.607   3.558   0.006 -0.8281  1.0076 -0.0689
 5614TIP3    H216849   1.631   3.676   0.098  0.4829 -0.4098  1.4832
 5615TIP3   OH216850   5.901   5.099   4.836  0.1178  0.0434  0.3342
 5615TIP3    H116851   5.907   5.112   4.931 -0.5043 -0.3282  0.4308
 5615TIP3    H216852   5.823   5.148   4.810  0.4528  0.3841 -0.0350
 5616TIP3   OH216853   0.069   0.415   2.556  0.1522 -0.1360  0.5866
 5616TIP3    H116854   0.124   0.436   2.631 -1.2984 -1.7134  2.1663
 5616TIP3    H216855   0.029   0.499   2.532 -1.1153  0.0491  3.0811
 5617TIP3   OH216856   1.734   5.562   1.368  0.6393  0.3252  0.3693
 5617TIP3    H116857   1.730   5.574   1.273  0.5226  0.4340  0.3875
 5617TIP3    H216858   1.649   5.591   1.400  0.8701  0.8123  0.5607
 5618TIP3   OH216859   4.950   2.290   3.935  0.3420  0.1698  0.2576
 5618TIP3    H116860   5.006   2.333   3.871 -1.7398  2.2748 -0.3140
 5618TIP3    H216861   4.947   2.350   4.010  0.0981 -0.6566  0.9360
 5619TIP3   OH216862   4.444   2.919   3.919 -0.2712  0.1500  0.6111
 5619TIP3    H116863   4.530   2.890   3.886 -0.1240 -0.1656  1.2585
 5619TIP3    H216864   4.447   3.014   3.914 -1.2876  0.1436 -2.9281
 5620TIP3   OH216865   1.135   5.659   4.564  0.3231 -0.4481 -0.2544
 5620TIP3    H116866   1.169   5.741   4.600 -0.6857  0.3835 -1.1295
 5620TIP3    H216867   1.145   5.669   4.469 -1.1765 -0.7070 -0.4549
 5621TIP3   OH216868   5.418   0.563   0.732  0.5679 -0.5620  0.1456
 5621TIP3    H116869   5.511   0.541   0.736  0.6966  0.0932  1.0845
 5621TIP3    H216870   5.381   0.498   0.672  1.1861 -2.4232  1.6648
 5622TIP3   OH216871   2.946   5.390   4.172  0.1113 -0.1919  0.2865
 5622TIP3    H116872   2.939   5.471   4.221  2.5739  1.1145 -1.2983
 5622TIP3    H216873   2.877   5.396   4.105  0.5369  0.8344 -0.0810
 5623TIP3   OH216874   1.904   0.154   2.934  0.2975 -0.0952 -0.1257
 5623TIP3    H116875   1.972   0.132   2.997  1.7195 -1.0791 -1.9153
 5623TIP3    H216876   1.930   0.239   2.899  0.3423 -0.2400 -0.4499
 5624TIP3   OH216877   2.401   1.314   3.919  0.1208  0.1331  0.3112
 5624TIP3    H116878   2.422   1.270   4.001 -0.5443  0.4734  0.6773
 5624TIP3    H216879   2.352   1.249   3.869 -0.0582  0.1493  0.4656
 5625TIP3   OH216880   2.609   3.560   2.349 -0.3148 -0.6728 -0.2986
 5625TIP3    H116881   2.603   3.511   2.267 -1.2034  0.2319 -0.8018
 5625TIP3    H216882   2.673   3.512   2.401  1.6080 -0.3290 -2.1845
 5626TIP3   OH216883   2.767   3.139   1.359  0.0760 -0.3887 -0.5360
 5626TIP3    H116884   2.820   3.199   1.306  0.6109 -0.9666 -0.6733
 5626TIP3    H216885   2.721   3.196   1.421  1.6759  0.0787  0.3016
 5627TIP3   OH216886   1.879   2.213   0.620 -0.3296  0.2549 -0.3446
 5627TIP3    H116887   1.975   2.219   0.613 -0.2507  0.9804  1.1025
 5627TIP3    H216888   1.863   2.199   0.713 -1.6605  0.4761 -0.5307
 5628TIP3   OH216889   2.276   2.737   5.067 -0.3105 -0.0503 -0.2983
 5628TIP3    H116890   2.280   2.642   5.066 -3.0926 -0.2715 -2.0673
 5628TIP3    H216891   2.199   2.757   5.121 -0.9862  1.0363 -1.5906
 5629TIP3   OH216892   3.317   2.652   0.620 -0.9422 -0.3793  0.5206
 5629TIP3    H116893   3.265   2.731   0.604 -0.3893  0.0667  0.8901
 5629TIP3    H216894   3.307   2.635   0.713 -0.8711 -0.6154  0.4863
 5630TIP3   OH216895   2.580   5.415   2.438 -0.1334  0.3292  0.3400
 5630TIP3    H116896   2.649   5.425   2.503 -0.1994 -0.3857  0.5289
 5630TIP3    H216897   2.541   5.502   2.431  0.2008  0.5283  0.8898
 5631TIP3   OH216898   0.131   1.605   0.795  0.1984  0.1241 -0.8074
 5631TIP3    H116899   0.097   1.646   0.874  0.6460  0.8479 -0.9764
 5631TIP3    H216900   0.055   1.599   0.736 -0.3735 -1.3770  0.0370
 5632TIP3   OH216901   4.987   5.632   3.081  0.3696  0.5690 -0.1992
 5632TIP3    H116902   4.913   5.571   3.082  2.0179 -1.5717 -1.4388
 5632TIP3    H216903   4.956   5.708   3.131 -2.4231 -0.4860 -0.1521
 5633TIP3   OH216904   1.257   0.941   4.497 -0.2308  0.1824  0.1030
 5633TIP3    H116905   1.190   0.918   4.561 -0.2633 -1.0289 -0.3398
 5633TIP3    H216906   1.213   0.934   4.412  0.0769  0.8001 -0.1127
 5634TIP3   OH216907   1.394   3.221   3.050  0.1979 -0.5850  0.1243
 5634TIP3    H116908   1.405   3.224   2.955 -2.1772 -2.1692 -0.2905
 5634TIP3    H216909   1.462   3.161   3.081 -0.5274 -1.9738 -0.9061
 5635TIP3   OH216910   1.474   2.199   2.919  0.1233  0.0970  0.0563
 5635TIP3    H116911   1.386   2.180   2.950 -0.2979  1.9162  0.1163
 5635TIP3    H216912   1.473   2.174   2.827 -0.2091 -0.5718  0.2324
 5636TIP3   OH216913   0.281   0.021   2.710  0.1134 -0.0242 -0.2400
 5636TIP3    H116914   0.196   0.063   2.722  0.3420  0.4357 -0.2145
 5636TIP3    H216915   0.265  -0.050   2.649 -0.2126  0.3110 -0.5445
 5637TIP3   OH216916   3.805   1.023   1.441 -0.1198  0.2648  0.4177
 5637TIP3    H116917   3.768   1.061   1.362 -0.2370  1.7145  1.1391
 5637TIP3    H216918   3.864   1.090   1.475  1.2447 -1.0091  0.6603
 5638TIP3   OH216919   1.910   3.046   2.173  0.4091  0.9588 -0.3891
 5638TIP3    H116920   1.859   3.085   2.102 -1.8193 -0.0251  0.5766
 5638TIP3    H216921   1.882   3.093   2.252 -0.4833 -0.8273  0.4240
 5639TIP3   OH216922   2.657   2.673   1.978 -0.1907 -0.6429  0.3116
 5639TIP3    H116923   2.714   2.740   2.017  0.2452 -0.2527 -0.9568
 5639TIP3    H216924   2.619   2.716   1.901 -0.4195 -1.6438 -0.1493
 5640TIP3   OH216925   4.218   4.079   3.411 -0.6418 -0.4597  0.1225
 5640TIP3    H116926   4.294   4.125   3.375 -1.0595  0.1556  0.0179
 5640TIP3    H216927   4.255   4.000   3.450  0.1914  0.3387  1.0100
 5641TIP3   OH216928   0.442   4.201   1.399 -0.2552  0.3110 -0.4066
 5641TIP3    H116929   0.396   4.284   1.390 -0.2889  0.2727 -0.5879
 5641TIP3    H216930   0.409   4.147   1.327 -0.8236 -0.1336  0.1798
 5642TIP3   OH216931   5.495   0.839   0.857 -0.4616  0.1667  0.1255
 5642TIP3    H116932   5.437   0.911   0.831  1.8201  1.4000 -2.0012
 5642TIP3    H216933   5.475   0.768   0.796 -0.0655  0.4313 -0.3183
 5643TIP3   OH216934   3.017   5.223   2.428  0.4648 -0.5483 -0.5497
 5643TIP3    H116935   3.068   5.276   2.489 -0.1513 -0.0478 -0.4578
 5643TIP3    H216936   2.997   5.143   2.476  1.2931 -0.8224 -0.6441
 5644TIP3   OH216937   3.400   4.108   3.167  0.3174  0.2590 -0.3904
 5644TIP3    H116938   3.320   4.160   3.157 -0.3135 -1.0613 -3.4604
 5644TIP3    H216939   3.404   4.088   3.260 -1.6830  2.2339  0.2156
 5645TIP3   OH216940   6.327   2.554   1.601  0.4430  0.0344 -0.0377
 5645TIP3    H116941   6.292   2.595   1.680  2.4928  1.3494  0.2731
 5645TIP3    H216942   6.388   2.488   1.633 -0.9098 -1.5696 -0.5729
 5646TIP3   OH216943   4.522   4.031   0.736 -0.5177  0.0439 -0.0606
 5646TIP3    H116944   4.565   4.117   0.736 -0.6150  0.0957 -0.5694
 5646TIP3    H216945   4.587   3.972   0.697 -0.9225  0.1365 -0.8968
 5647TIP3   OH216946   3.446   1.060   1.825  0.1198  0.3085  0.5043
 5647TIP3    H116947   3.503   1.096   1.894  0.8010 -0.4264  0.3423
 5647TIP3    H216948   3.478   1.101   1.745  2.6307 -2.4049 -0.0917
 5648TIP3   OH216949   5.768   1.387   2.279 -0.0896 -0.2922  0.4057
 5648TIP3    H116950   5.713   1.386   2.201  1.1217 -2.2174 -0.5049
 5648TIP3    H216951   5.706   1.399   2.351 -1.5504 -0.9402 -0.6767
 5649TIP3   OH216952   2.769   3.745   4.039  0.2746  0.9472 -0.5655
 5649TIP3    H116953   2.838   3.744   3.973 -0.6553 -0.7159 -1.5929
 5649TIP3    H216954   2.815   3.731   4.122  1.2931  1.2350 -1.0670
 5650TIP3   OH216955   1.257   3.732   4.342 -0.3910 -0.0924 -0.1368
 5650TIP3    H116956   1.335   3.679   4.351  1.0914  1.1587 -3.8327
 5650TIP3    H216957   1.268   3.803   4.406  1.2191 -0.2630 -0.1955
 5651TIP3   OH216958   3.856   3.158   5.099  0.3922 -0.4845 -0.0269
 5651TIP3    H116959   3.926   3.194   5.044  0.7348 -0.7237  0.2472
 5651TIP3    H216960   3.831   3.230   5.157  1.3068 -0.7715  0.7480
 5652TIP3   OH216961   5.569   3.516   1.294  0.0261 -0.0339 -0.2987
 5652TIP3    H116962   5.556   3.546   1.204 -1.9080 -0.2001 -0.1097
 5652TIP3    H216963   5.641   3.569   1.326 -0.1344  0.9839 -1.5202
 5653TIP3   OH216964   0.043   2.514   2.413  0.3942 -0.2347  0.2080
 5653TIP3    H116965   0.137   2.499   2.408  0.3406 -0.2994 -1.0489
 5653TIP3    H216966   0.031   2.572   2.488  1.3187 -0.9948  0.9703
 5654TIP3   OH216967   3.270   3.384   2.272 -0.2149  0.0422  0.0414
 5654TIP3    H116968   3.245   3.466   2.229  1.4177  0.0220 -1.0381
 5654TIP3    H216969   3.246   3.316   2.209 -1.2893 -0.3265  0.8105
 5655TIP3   OH216970   1.332   4.690   3.540 -0.0619 -0.0845  0.6320
 5655TIP3    H116971   1.286   4.702   3.457  0.9237 -1.5026 -0.1598
 5655TIP3    H216972   1.396   4.761   3.543 -1.8540  1.6066  1.5090
 5656TIP3   OH216973   3.445   1.356   2.197  0.4289  0.4152 -0.3800
 5656TIP3    H116974   3.429   1.292   2.266 -0.5083  0.7847 -0.2372
 5656TIP3    H216975   3.511   1.415   2.234 -1.1351  1.5033  0.8439
 5657TIP3   OH216976   1.463   3.289   0.073  0.2162 -0.1941  0.5271
 5657TIP3    H116977   1.528   3.315   0.008 -0.0436 -1.6200 -0.3334
 5657TIP3    H216978   1.500   3.212   0.116 -1.1321 -1.4318 -0.4291
 5658TIP3   OH216979   4.623   2.235   3.680  0.1986 -0.1212 -0.2174
 5658TIP3    H116980   4.654   2.272   3.597 -0.7528  2.0083  0.3005
 5658TIP3    H216981   4.686   2.166   3.701 -0.2775 -1.6673 -3.3311
 5659TIP3   OH216982   5.958   2.206   1.062 -0.2080 -0.3319  0.1717
 5659TIP3    H116983   5.942   2.170   0.975 -1.3192  2.8208 -1.0892
 5659TIP3    H216984   5.893   2.164   1.118 -0.2357 -1.5703 -0.7451
 5660TIP3   OH216985   2.497   2.699   1.470 -0.2368 -0.1162 -0.8099
 5660TIP3    H116986   2.520   2.773   1.414 -0.8906  0.1049 -0.7895
 5660TIP3    H216987   2.525   2.726   1.557  2.4528 -1.1806 -1.2526
 5661TIP3   OH216988   5.469   0.157   3.924 -0.1261  0.2545 -0.0956
 5661TIP3    H116989   5.456   0.230   3.984 -1.8346 -0.0314 -0.0624
 5661TIP3    H216990   5.564   0.151   3.913  0.2650  0.2581  2.6416
 5662TIP3   OH216991   0.133   3.418   1.666  0.0014  0.0391  0.2122
 5662TIP3    H116992   0.066   3.484   1.647  0.1394 -0.1304 -0.9189
 5662TIP3    H216993   0.168   3.443   1.751 -1.4798  0.1473  0.8244
 5663TIP3   OH216994   3.419   3.404   0.476  0.3615 -0.3096 -0.1318
 5663TIP3    H116995   3.359   3.466   0.435 -1.1729 -0.2864  1.9495
 5663TIP3    H216996   3.492   3.458   0.505  0.1635  0.1251 -0.4227
 5664TIP3   OH216997   0.900   3.826   4.847  0.0623 -0.4803  0.4779
 5664TIP3    H116998   0.899   3.902   4.906 -0.7562 -0.5923  0.6311
 5664TIP3    H216999   0.988   3.825   4.810  1.8984 -2.5638  4.4157
 5665TIP3   OH217000   5.276   2.458   0.622  0.0566 -0.2541  0.1685
 5665TIP3    H117001   5.277   2.492   0.532 -0.7516  2.1487  0.9999
 5665TIP3    H217002   5.184   2.440   0.640  0.2814 -1.3262  0.3638
 5666TIP3   OH217003   1.761   0.464   3.119  0.1292  0.5479 -0.5027
 5666TIP3    H117004   1.774   0.558   3.127 -1.4131  0.7664 -0.3926
 5666TIP3    H217005   1.738   0.451   3.027 -1.3154  0.5205 -0.1638
 5667TIP3   OH217006   5.124   4.128   4.789 -0.3045  0.0367  0.2996
 5667TIP3    H117007   5.149   4.037   4.778 -0.0159  0.2909 -1.5070
 5667TIP3    H217008   5.102   4.158   4.700 -0.8357  1.5905  0.9127
 5668TIP3   OH217009   1.004   5.319   3.037 -0.3384 -0.2346 -0.4340
 5668TIP3    H117010   1.022   5.304   2.944  4.6341 -1.4853  0.4228
 5668TIP3    H217011   0.945   5.248   3.062 -0.5183 -0.8014 -2.3376
 5669TIP3   OH217012   4.717   5.364   1.497  0.0267  0.3048 -0.1032
 5669TIP3    H117013   4.716   5.449   1.454 -0.3612 -0.3913 -1.5383
 5669TIP3    H217014   4.629   5.354   1.533 -0.0940  0.2825 -0.4047
 5670TIP3   OH217015   4.669   1.609   0.763  0.1983 -0.4757 -0.2215
 5670TIP3    H117016   4.763   1.626   0.773 -0.0455  0.1464  1.1630
 5670TIP3    H217017   4.660   1.581   0.672  1.5816  0.4495 -0.6775
 5671TIP3   OH217018   5.756   5.880   0.327 -0.0437 -0.2538 -0.0009
 5671TIP3    H117019   5.778   5.877   0.420  0.4561  0.4887 -0.0859
 5671TIP3    H217020   5.802   5.958   0.294 -0.4036 -0.3776 -0.8165
 5672TIP3   OH217021   2.584   0.143   0.738  0.5819  0.1944 -0.8133
 5672TIP3    H117022   2.661   0.112   0.690  0.0587 -0.2801 -1.3525
 5672TIP3    H217023   2.590   0.238   0.734  1.1690  0.1643 -0.8008
 5673TIP3   OH217024   5.481   5.130   1.879 -0.1993 -0.1293 -0.1014
 5673TIP3    H117025   5.406   5.146   1.822 -0.3007 -1.7883 -0.5049
 5673TIP3    H217026   5.556   5.158   1.829 -0.4807  0.7571 -0.0353
 5674TIP3   OH217027   3.609   0.247   1.462  0.2128  0.1688  0.6248
 5674TIP3    H117028   3.686   0.298   1.437  0.5372  0.0253  1.3170
 5674TIP3    H217029   3.576   0.291   1.541  0.2991 -0.4897  1.0349
 5675TIP3   OH217030   2.167   0.017   3.545  0.1684  0.6391  0.0837
 5675TIP3    H117031   2.217   0.079   3.491  0.8573 -1.1355 -1.4294
 5675TIP3    H217032   2.223   0.003   3.621  0.5187  1.0558 -0.0870
 5676TIP3   OH217033   1.353   4.685   2.370 -0.1785  0.1087 -0.4985
 5676TIP3    H117034   1.408   4.686   2.448 -2.7933 -3.0751  1.6452
 5676TIP3    H217035   1.285   4.749   2.387 -0.1659  0.1619 -0.6467
 5677TIP3   OH217036   0.293   2.981   2.571 -0.7309 -0.3457  0.0744
 5677TIP3    H117037   0.215   2.930   2.594 -0.5176 -0.2003  1.1882
 5677TIP3    H217038   0.366   2.928   2.605 -0.3747 -0.2339 -0.5080
 5678TIP3   OH217039   1.770   4.388   1.278  0.0294 -0.1171  0.2516
 5678TIP3    H117040   1.842   4.416   1.222  1.5173 -3.2229  0.3939
 5678TIP3    H217041   1.810   4.374   1.364 -1.1669 -0.0609  0.8458
 5679TIP3   OH217042   2.772   4.462   2.217  0.2702 -0.1682 -0.2287
 5679TIP3    H117043   2.748   4.553   2.199  1.7188  0.4365  0.7236
 5679TIP3    H217044   2.798   4.461   2.309 -0.0974 -1.6462 -0.1115
 5680TIP3   OH217045   6.232   1.297   1.335  0.0444 -0.0674 -0.0156
 5680TIP3    H117046   6.246   1.235   1.263  0.5681  1.2542 -1.0937
 5680TIP3    H217047   6.170   1.253   1.392 -0.4333 -1.1401 -1.3032
 5681TIP3   OH217048   2.086   0.939   1.105  0.9004 -0.2542 -0.1631
 5681TIP3    H117049   2.086   0.862   1.049  0.4243  0.8398 -1.7515
 5681TIP3    H217050   2.099   1.013   1.044 -0.3177  1.0459  1.0706
 5682TIP3   OH217051   0.589   2.320   3.540 -0.0010 -0.3757 -0.3696
 5682TIP3    H117052   0.575   2.415   3.538  0.5126 -0.2918 -0.2357
 5682TIP3    H217053   0.598   2.300   3.634  1.9640 -0.2253 -0.4842
 5683TIP3   OH217054   6.314   5.216   0.859  0.0880  0.3076 -0.7567
 5683TIP3    H117055   6.350   5.300   0.835 -2.4548  1.2587 -1.6239
 5683TIP3    H217056   6.342   5.203   0.950 -0.0285  2.4465 -0.3585
 5684TIP3   OH217057   2.272   4.868   4.923 -0.0297 -0.2017 -0.6061
 5684TIP3    H117058   2.364   4.850   4.903  0.6107  3.0369 -1.1172
 5684TIP3    H217059   2.265   4.963   4.920 -3.2267 -0.2926  0.3701
 5685TIP3   OH217060   3.639   4.511   1.734  0.0571 -0.3949  0.1335
 5685TIP3    H117061   3.547   4.511   1.761  0.4659 -0.9732  1.6453
 5685TIP3    H217062   3.637   4.539   1.642 -1.5265  0.6308  0.4292
 5686TIP3   OH217063   0.941   3.009   1.982 -0.3377  0.1159  0.2172
 5686TIP3    H117064   0.996   3.049   2.048 -1.3039  0.1435  1.0288
 5686TIP3    H217065   0.854   3.004   2.023 -0.3475 -2.4501  0.0414
 5687TIP3   OH217066   1.546   1.610   3.761 -0.6559 -0.1290 -0.0965
 5687TIP3    H117067   1.564   1.588   3.670 -0.2699 -0.3774  0.0355
 5687TIP3    H217068   1.621   1.662   3.788  0.1203 -1.5240  0.5814
 5688TIP3   OH217069   4.473   2.096   2.369 -0.3527  0.2517  0.4672
 5688TIP3    H117070   4.398   2.151   2.347  0.5452  1.4618  0.3461
 5688TIP3    H217071   4.484   2.107   2.464 -0.4186 -0.0384  0.5089
 5689TIP3   OH217072   4.014   0.073   4.783  0.6560 -0.2320  0.1568
 5689TIP3    H117073   4.090   0.064   4.840  0.7200  1.5297  0.3786
 5689TIP3    H217074   4.009  -0.011   4.737  0.3850 -1.9043  2.9636
 5690TIP3   OH217075   6.087   0.670   1.301  0.1813  0.2674  0.2010
 5690TIP3    H117076   6.154   0.623   1.252  0.2650 -0.5488  1.0760
 5690TIP3    H217077   6.067   0.613   1.375 -0.1288  1.3492  0.9723
 5691TIP3   OH217078   0.290   5.933   1.687 -0.4397 -0.2281 -0.2566
 5691TIP3    H117079   0.210   5.974   1.719  0.5714  1.6506  0.0467
 5691TIP3    H217080   0.301   5.970   1.599 -1.6788 -3.1431 -1.7794
 5692TIP3   OH217081   1.479   3.296   1.807 -0.1806 -0.2203 -0.1959
 5692TIP3    H117082   1.492   3.378   1.853  0.7622 -1.7865  2.6011
 5692TIP3    H217083   1.384   3.291   1.791 -0.3808  0.8850  0.5934
 5693TIP3   OH217084   2.178   1.129   2.131  0.0691 -0.2471  0.3948
 5693TIP3    H117085   2.144   1.074   2.061  1.0899 -0.3940 -0.0085
 5693TIP3    H217086   2.261   1.088   2.157  0.9529  1.1621 -0.0439
 5694TIP3   OH217087   2.110   5.797   1.257 -0.0461 -0.0604 -0.1776
 5694TIP3    H117088   2.071   5.861   1.317  0.4845 -0.1289  0.2452
 5694TIP3    H217089   2.155   5.850   1.191  1.2021  0.0154  0.7043
 5695TIP3   OH217090   2.838   3.745   3.737  0.4851  0.2007  0.1644
 5695TIP3    H117091   2.931   3.725   3.741  0.6942  1.3773  3.0748
 5695TIP3    H217092   2.796   3.659   3.727  1.7846 -0.6037  1.2665
 5696TIP3   OH217093   1.773   2.944   3.993  0.1501 -0.8310 -0.3377
 5696TIP3    H117094   1.731   2.936   3.908 -2.1884 -2.0654  0.8226
 5696TIP3    H217095   1.713   2.901   4.054  1.6079  0.1861  1.9916
 5697TIP3   OH217096   5.881   2.380   3.281 -0.5779  0.5863  0.2660
 5697TIP3    H117097   5.875   2.343   3.193 -0.1865  3.0269 -0.8671
 5697TIP3    H217098   5.827   2.322   3.335 -1.6397 -0.4129 -1.7584
 5698TIP3   OH217099   1.401   0.228   0.320  0.1379 -0.4761  0.0803
 5698TIP3    H117100   1.478   0.191   0.363  1.0829  0.3674 -0.8420
 5698TIP3    H217101   1.327   0.198   0.374  1.1853 -0.3244  1.6749
 5699TIP3   OH217102   0.026   5.143   3.713  0.3128  0.7404 -0.7985
 5699TIP3    H117103   0.011   5.231   3.746 -2.0696  0.0781  0.0448
 5699TIP3    H217104   0.117   5.124   3.738  0.2476  2.2227  0.7755
 5700TIP3   OH217105   1.148   1.197   2.500  0.2344  0.1622 -0.0990
 5700TIP3    H117106   1.105   1.161   2.577 -0.6312 -0.0677 -0.6720
 5700TIP3    H217107   1.131   1.133   2.431  1.4669  0.0918 -0.3673
 5701TIP3   OH217108   3.737   2.798   1.046 -0.7995  0.0856  0.4319
 5701TIP3    H117109   3.783   2.882   1.053 -0.1581 -0.3061  1.0063
 5701TIP3    H217110   3.759   2.752   1.127  0.8080 -1.5952 -0.8822
 5702TIP3   OH217111   0.091   5.163   4.976  0.1070 -0.0496  0.1307
 5702TIP3    H117112   0.130   5.194   4.894 -0.9543  1.2242  0.0736
 5702TIP3    H217113   0.001   5.140   4.952  0.3893 -1.7151  0.5236
 5703TIP3   OH217114   6.029   2.405   4.296 -0.1382  0.3858  0.2952
 5703TIP3    H117115   6.036   2.420   4.390  0.5853  1.7894  0.0368
 5703TIP3    H217116   6.059   2.486   4.256  1.1457 -0.7662 -1.1911
 5704TIP3   OH217117   0.510   5.108   3.768  0.3768 -0.0672  0.5160
 5704TIP3    H117118   0.527   5.201   3.788  0.6395 -0.1800  0.8217
 5704TIP3    H217119   0.547   5.061   3.843  2.3699 -0.5779 -0.7050
 5705TIP3   OH217120   2.107   0.739   4.974  0.1474 -0.3383  0.2382
 5705TIP3    H117121   2.073   0.710   4.890  0.3718  1.0528 -0.3504
 5705TIP3    H217122   2.055   0.817   4.996 -0.1031 -0.8330  1.5361
 5706TIP3   OH217123   2.688   4.044   2.432  0.0409  0.0250  0.2005
 5706TIP3    H117124   2.674   3.961   2.477 -0.4439  0.8247  1.5873
 5706TIP3    H217125   2.705   4.107   2.502  2.0468  0.8136 -0.8825
 5707TIP3   OH217126   0.922   3.631   1.643 -0.0873  0.0963 -0.0350
 5707TIP3    H117127   0.894   3.652   1.732  0.1962 -1.7282  0.5238
 5707TIP3    H217128   0.848   3.654   1.587 -1.5122 -1.6757  1.0470
 5708TIP3   OH217129   1.926   5.253   2.608 -0.0414 -0.1405  0.3400
 5708TIP3    H117130   1.939   5.193   2.535 -2.4084 -1.8123  1.1695
 5708TIP3    H217131   2.014   5.274   2.638  1.0556  0.8101 -3.0576
 5709TIP3   OH217132   2.604   1.716   2.757 -0.1759  0.1782  0.1267
 5709TIP3    H117133   2.582   1.695   2.666  0.2062 -2.2452  0.5318
 5709TIP3    H217134   2.520   1.740   2.797 -0.6233 -0.3139 -0.4966
 5710TIP3   OH217135   3.690   1.669   1.688 -0.4779 -0.2773 -0.0721
 5710TIP3    H117136   3.770   1.715   1.664  0.5504 -2.4828 -1.0354
 5710TIP3    H217137   3.632   1.681   1.613 -0.9361  0.9556  0.4495
 5711TIP3   OH217138   1.161   4.157   1.377  0.2787 -0.1942 -0.6898
 5711TIP3    H117139   1.200   4.208   1.448  0.5174 -0.7493 -0.4211
 5711TIP3    H217140   1.066   4.170   1.388  0.3377  2.2270 -2.1220
 5712TIP3   OH217141   4.233   1.156   3.740 -0.4823  0.3063 -0.3619
 5712TIP3    H117142   4.146   1.195   3.727 -1.0193 -1.0983 -1.2804
 5712TIP3    H217143   4.268   1.147   3.652 -0.8492 -2.2119 -0.3321
 5713TIP3   OH217144   3.761   1.043   2.239 -0.1271  0.9196 -0.1232
 5713TIP3    H117145   3.824   1.113   2.227 -1.8626  2.2945 -2.0565
 5713TIP3    H217146   3.748   1.038   2.334  0.3628  2.9368  0.0979
 5714TIP3   OH217147   1.379   2.338   3.317 -0.3878 -0.0487  1.2610
 5714TIP3    H117148   1.381   2.433   3.330 -1.3778 -0.0301  1.3343
 5714TIP3    H217149   1.471   2.313   3.316 -0.0678  1.0575  0.1013
 5715TIP3   OH217150   4.071   1.368   0.814  0.4944  0.4781 -0.5927
 5715TIP3    H117151   4.020   1.289   0.834  0.1050  0.9239  0.2490
 5715TIP3    H217152   4.071   1.374   0.719 -0.5647  0.1555 -0.6230
 5716TIP3   OH217153   1.037   2.365   3.615 -0.4485  0.1369 -0.3523
 5716TIP3    H117154   1.101   2.345   3.683  0.0224  1.3548 -0.4077
 5716TIP3    H217155   1.009   2.454   3.635  0.5304  0.9569 -2.3876
 5717TIP3   OH217156   3.165   2.355   2.822  0.5247 -0.2934  0.1341
 5717TIP3    H117157   3.251   2.327   2.791  0.6574  0.9967 -0.7331
 5717TIP3    H217158   3.163   2.331   2.914  2.2362  0.5931  0.4277
 5718TIP3   OH217159   0.771   5.176   0.429 -0.3714 -0.1566 -0.5084
 5718TIP3    H117160   0.738   5.128   0.354  0.0420  0.5497 -1.1559
 5718TIP3    H217161   0.851   5.130   0.455 -1.2007 -1.1711  0.3284
 5719TIP3   OH217162   1.221   5.384   2.255 -1.3609 -0.1250  0.0812
 5719TIP3    H117163   1.205   5.470   2.218 -0.5863 -0.3455 -0.7937
 5719TIP3    H217164   1.213   5.324   2.180  1.8448 -0.4247 -0.1404
 5720TIP3   OH217165   1.672   1.351   4.023  0.0151 -0.1271  0.0301
 5720TIP3    H117166   1.619   1.278   4.054 -2.4298  1.7419  0.5763
 5720TIP3    H217167   1.614   1.400   3.965  0.9618  2.2436  0.9447
 5721TIP3   OH217168   2.871   1.378   3.163  0.1163  0.7373  0.5486
 5721TIP3    H117169   2.868   1.457   3.109  0.8077  0.1152 -0.4290
 5721TIP3    H217170   2.887   1.307   3.101  0.3325 -0.0722  1.5086
 5722TIP3   OH217171   3.786   1.907   4.080 -0.0272  0.1456  0.2219
 5722TIP3    H117172   3.723   1.870   4.142  1.1638 -0.8629  0.8774
 5722TIP3    H217173   3.796   1.998   4.108 -0.6778  0.1298  0.5266
 5723TIP3   OH217174   0.695   2.076   1.938 -0.2949  0.1330 -0.3314
 5723TIP3    H117175   0.651   2.152   1.901 -0.9819  0.1289  0.4418
 5723TIP3    H217176   0.628   2.007   1.938 -0.0832 -0.0805  0.1934
 5724TIP3   OH217177   2.598   4.490   4.426 -0.3953 -0.5457 -0.2211
 5724TIP3    H117178   2.506   4.485   4.402 -0.4500 -1.2527  0.1311
 5724TIP3    H217179   2.635   4.406   4.399  0.6857  0.5690 -2.5210
 5725TIP3   OH217180   0.102   3.464   0.972  0.0961 -0.1548  0.0416
 5725TIP3    H117181   0.174   3.476   1.034 -1.7842 -3.2286  3.2060
 5725TIP3    H217182   0.051   3.545   0.978  0.4870 -0.0110  1.8580
 5726TIP3   OH217183   4.359   5.387   3.380  0.1762  0.3153 -0.7510
 5726TIP3    H117184   4.372   5.482   3.382 -1.9008  0.7048 -1.8671
 5726TIP3    H217185   4.447   5.350   3.383  0.9896  2.2226  0.9325
 5727TIP3   OH217186   3.369   3.145   1.247 -0.4112 -0.6887 -0.2689
 5727TIP3    H117187   3.290   3.092   1.258 -0.8799 -0.7095 -2.8917
 5727TIP3    H217188   3.347   3.207   1.178  1.2103  0.7419  0.4179
 5728TIP3   OH217189   5.271   0.439   4.645 -0.0978 -0.7351  0.3644
 5728TIP3    H117190   5.206   0.436   4.715 -0.6359  0.9766 -0.0124
 5728TIP3    H217191   5.223   0.473   4.569  1.2579  0.8205  0.1557
 5729TIP3   OH217192   4.126   5.237   1.200 -0.6265  0.3539  0.3122
 5729TIP3    H117193   4.077   5.156   1.193  0.1585  0.0059 -2.6699
 5729TIP3    H217194   4.071   5.302   1.156 -0.5280  1.0844  1.2363
 5730TIP3   OH217195   3.119   3.577   0.829 -0.1398 -0.0805 -0.0773
 5730TIP3    H117196   3.048   3.543   0.775  0.1012 -0.3254 -0.2450
 5730TIP3    H217197   3.189   3.512   0.820 -0.9285 -1.4047  2.4197
 5731TIP3   OH217198   1.457   5.214   2.151 -0.0412  0.4177 -0.3773
 5731TIP3    H117199   1.395   5.195   2.081  0.5900 -1.7402 -0.4362
 5731TIP3    H217200   1.473   5.129   2.192  0.5230  1.4222  1.6283
 5732TIP3   OH217201   4.216   4.794   1.423  0.0609 -0.1249 -0.2053
 5732TIP3    H117202   4.154   4.810   1.352 -0.2612 -1.2284 -0.1924
 5732TIP3    H217203   4.252   4.707   1.404  1.1659  0.2483  0.1136
 5733TIP3   OH217204   2.049   4.234   2.006 -0.5564  0.0757  0.1475
 5733TIP3    H117205   2.055   4.173   2.079  2.1125 -0.2330 -0.2376
 5733TIP3    H217206   2.088   4.315   2.039 -0.0146  0.1693 -0.6764
 5734TIP3   OH217207   6.273   0.649   1.039  0.4102  0.1677  0.3178
 5734TIP3    H117208   6.333   0.603   0.980  0.1738  2.3025 -1.7676
 5734TIP3    H217209   6.191   0.600   1.033  0.5989 -0.0590 -0.6459
 5735TIP3   OH217210   5.505   3.882   1.190  0.8141 -0.0348 -0.0350
 5735TIP3    H117211   5.576   3.892   1.254 -0.7734  0.2117  1.7652
 5735TIP3    H217212   5.461   3.966   1.190  0.0077 -0.4484 -0.4895
 5736TIP3   OH217213   2.731   1.935   4.191 -0.2808  0.0885 -0.0536
 5736TIP3    H117214   2.705   1.848   4.162 -0.5638  0.1013  0.1565
 5736TIP3    H217215   2.698   1.994   4.123  1.1172 -0.0786 -0.9082
 5737TIP3   OH217216   1.106   1.875   2.959  0.0490 -0.4256 -0.7207
 5737TIP3    H117217   1.090   1.827   3.040 -2.7647  0.8464 -0.4131
 5737TIP3    H217218   1.104   1.967   2.985  1.6090 -0.0286 -1.8805
 5738TIP3   OH217219   2.938   4.373   1.254  0.6466 -0.1250 -0.1116
 5738TIP3    H117220   3.024   4.403   1.223 -0.0453  2.5948  0.3725
 5738TIP3    H217221   2.888   4.359   1.173  0.6481  1.2569 -0.3824
 5739TIP3   OH217222   2.938   3.340   2.284 -0.0550 -0.0008 -0.2571
 5739TIP3    H117223   2.882   3.266   2.260 -0.4814  0.2971 -0.1983
 5739TIP3    H217224   2.917   3.407   2.218 -1.4285  0.9282  1.0529
 5740TIP3   OH217225   0.179   5.980   0.466 -0.2933 -0.5657 -0.1955
 5740TIP3    H117226   0.123   5.947   0.537 -2.0202 -0.2847 -1.3663
 5740TIP3    H217227   0.155   5.927   0.390  0.2919  0.2615 -0.9805
 5741TIP3   OH217228   1.629   3.645   3.853 -0.1644 -0.1861 -0.7283
 5741TIP3    H117229   1.557   3.685   3.902 -0.8452 -0.0637 -1.8067
 5741TIP3    H217230   1.702   3.706   3.863 -0.8923  0.8277 -1.5069
 5742TIP3   OH217231   5.050   1.937   0.595  0.3118  0.2535  0.2532
 5742TIP3    H117232   4.995   1.936   0.516 -1.7431  1.9336  1.5403
 5742TIP3    H217233   5.117   2.003   0.576 -1.4822  2.3285  0.5891
 5743TIP3   OH217234   1.852   2.512   4.106  0.3841 -0.1515 -0.1910
 5743TIP3    H117235   1.833   2.436   4.162  0.3845  0.2208  0.3146
 5743TIP3    H217236   1.886   2.578   4.166  1.2462 -0.0562 -0.7624
 5744TIP3   OH217237   2.403   2.374   4.800 -0.0464 -0.3074  0.3857
 5744TIP3    H117238   2.378   2.282   4.785  0.3394 -0.2987 -0.3629
 5744TIP3    H217239   2.480   2.387   4.745  0.3525  0.2624  1.0678
 5745TIP3   OH217240   4.190   2.408   3.473 -0.2838 -0.3466 -0.0037
 5745TIP3    H117241   4.253   2.464   3.427 -1.4968  0.3986 -0.8066
 5745TIP3    H217242   4.117   2.466   3.494 -0.9119 -1.2906  0.5012
 5746TIP3   OH217243   3.774   4.019   2.649 -0.1930 -0.6439  0.7163
 5746TIP3    H117244   3.821   3.938   2.630  0.8920  0.0419  0.3797
 5746TIP3    H217245   3.827   4.063   2.714  0.5687  0.9275 -0.8824
 5747TIP3   OH217246   3.935   4.746   3.320  0.4039  0.4004 -0.3306
 5747TIP3    H117247   3.882   4.750   3.400  0.1080  1.4106 -0.5604
 5747TIP3    H217248   3.871   4.734   3.250  0.3521  2.3982 -0.6917
 5748TIP3   OH217249   0.125   0.931   5.082  0.1405  0.0491  0.1661
 5748TIP3    H117250   0.137   0.841   5.113  2.6249  0.1867 -0.2149
 5748TIP3    H217251   0.066   0.923   5.007 -0.6049 -1.0925  0.8461
 5749TIP3   OH217252   6.096   0.200   0.317  0.1513  0.5317 -0.2543
 5749TIP3    H117253   6.022   0.140   0.314  0.1241  0.5074  0.7009
 5749TIP3    H217254   6.073   0.269   0.254 -0.1550 -0.0559 -0.8056
 5750TIP3   OH217255   3.316   4.848   2.814  0.3829  0.1805 -0.2607
 5750TIP3    H117256   3.338   4.913   2.880 -0.6408  1.0187 -0.7082
 5750TIP3    H217257   3.220   4.852   2.807  0.4629  0.1249 -1.7880
 5751TIP3   OH217258   1.676   4.646   3.046  0.2147  0.0545 -0.5306
 5751TIP3    H117259   1.620   4.714   3.082  0.3202 -0.3686  0.4680
 5751TIP3    H217260   1.700   4.593   3.122 -0.6527 -1.6761 -1.4210
 5752TIP3   OH217261   3.308   1.443   4.598 -0.5348 -0.4968  0.2290
 5752TIP3    H117262   3.213   1.442   4.591 -0.6356  0.4164  1.1778
 5752TIP3    H217263   3.326   1.509   4.665  0.6713 -2.0499  1.5185
 5753TIP3   OH217264   3.140   3.078   4.748 -0.0610  0.0687  0.0855
 5753TIP3    H117265   3.075   3.016   4.715  0.8308 -0.2873 -1.0262
 5753TIP3    H217266   3.087   3.147   4.788 -1.2041  0.3843 -1.8213
 5754TIP3   OH217267   4.373   2.342   2.894  0.0713  0.2253  0.0436
 5754TIP3    H117268   4.297   2.400   2.907  1.1488  1.3692  1.5938
 5754TIP3    H217269   4.438   2.397   2.851  1.1448  0.2758  1.6198
 5755TIP3   OH217270   5.409   4.927   3.576 -0.3113  0.6525 -0.2303
 5755TIP3    H117271   5.431   4.972   3.657 -0.4928 -0.0589  0.2173
 5755TIP3    H217272   5.491   4.890   3.545 -0.6579 -1.1567  0.9196
 5756TIP3   OH217273   4.819   2.892   3.175  0.3323 -0.0787 -0.1456
 5756TIP3    H117274   4.824   2.856   3.264 -0.2503 -0.6929 -0.3528
 5756TIP3    H217275   4.800   2.816   3.120 -0.3498  0.4621 -0.6664
 5757TIP3   OH217276   1.265   4.318   0.941  0.1125 -0.0298  0.1543
 5757TIP3    H117277   1.211   4.384   0.897 -1.5281 -0.8512  0.8313
 5757TIP3    H217278   1.202   4.257   0.980  1.5521 -1.3243  0.5920
 5758TIP3   OH217279   5.118   3.761   4.046 -0.0269  0.0413 -0.1391
 5758TIP3    H117280   5.162   3.845   4.043  0.4001 -0.0805  1.6548
 5758TIP3    H217281   5.175   3.706   4.099 -1.5213 -0.6166  0.8394
 5759TIP3   OH217282   4.385   2.994   0.508  0.3673 -0.1190 -0.6798
 5759TIP3    H117283   4.389   3.081   0.469  1.1584 -0.0496 -0.4733
 5759TIP3    H217284   4.381   3.010   0.602  0.2933 -0.3041 -0.6511
 5760TIP3   OH217285   0.879   3.315   5.109  0.1574  0.7548  0.2939
 5760TIP3    H117286   0.966   3.353   5.118 -0.7450  2.9414  0.4060
 5760TIP3    H217287   0.819   3.386   5.131 -1.6753 -0.7347  0.3961
 5761TIP3   OH217288   1.483   2.568   2.215 -0.0917 -0.3436 -0.3612
 5761TIP3    H117289   1.421   2.494   2.211  0.1969 -0.5357 -2.3508
 5761TIP3    H217290   1.432   2.640   2.252 -0.9069 -1.0455 -0.0795
 5762TIP3   OH217291   0.384   1.240   0.778  0.1648 -0.2101 -0.7990
 5762TIP3    H117292   0.315   1.217   0.716 -0.4331 -0.2739 -0.1194
 5762TIP3    H217293   0.463   1.246   0.724 -0.6316  1.4267 -1.8634
 5763TIP3   OH217294   3.426   1.705   4.737 -0.8320 -0.1215  0.1287
 5763TIP3    H117295   3.456   1.646   4.807 -0.4823 -0.9890 -0.7187
 5763TIP3    H217296   3.423   1.791   4.777 -0.1006 -0.5138  1.0645
 5764TIP3   OH217297   1.770   5.061   0.282  0.6737 -0.2138 -0.1544
 5764TIP3    H117298   1.755   4.994   0.349 -2.5057  0.3745 -0.0956
 5764TIP3    H217299   1.848   5.108   0.311  0.1287 -0.7733  2.4890
 5765TIP3   OH217300   4.714   5.076   0.689  0.3282  0.3291  0.0529
 5765TIP3    H117301   4.742   5.151   0.636  0.8916  0.4841  0.5481
 5765TIP3    H217302   4.790   5.058   0.745  0.0996 -0.4511  0.1106
 5766TIP3   OH217303   4.062   0.589   1.822  0.0283 -0.3393 -0.3682
 5766TIP3    H117304   4.098   0.572   1.735  1.2884 -0.3810  0.1338
 5766TIP3    H217305   4.112   0.532   1.880 -0.0676  0.4431  0.5109
 5767TIP3   OH217306   3.722   5.899   1.977  0.3284  0.1033  0.2296
 5767TIP3    H117307   3.639   5.932   2.011  1.9676  2.3785  2.3840
 5767TIP3    H217308   3.751   5.966   1.916  1.0838 -0.0936  0.3647
 5768TIP3   OH217309   1.685   2.038   0.146 -0.0772 -0.1750  1.4765
 5768TIP3    H117310   1.706   2.111   0.203 -0.0081  0.5164  0.5888
 5768TIP3    H217311   1.713   2.066   0.059 -1.1909 -0.7410  0.9067
 5769TIP3   OH217312   0.133   0.111   0.731  0.1137 -0.3988  0.2139
 5769TIP3    H117313   0.080   0.078   0.804 -0.5608  2.5222  1.1712
 5769TIP3    H217314   0.068   0.135   0.663  0.4863 -0.1916 -0.0732
 5770TIP3   OH217315   5.302   2.516   3.933 -0.0503  0.2153 -0.4152
 5770TIP3    H117316   5.372   2.465   3.974 -0.9415 -1.5452 -0.9506
 5770TIP3    H217317   5.266   2.457   3.866 -2.4522  0.7822  0.2728
 5771TIP3   OH217318   2.611   5.713   4.104  0.1222  0.2702 -0.1007
 5771TIP3    H117319   2.692   5.690   4.057  0.2344  0.6185 -0.0781
 5771TIP3    H217320   2.553   5.638   4.090 -0.2215  0.7994 -1.6552
 5772TIP3   OH217321   3.817   2.856   4.865 -0.4893 -0.4100 -0.1272
 5772TIP3    H117322   3.898   2.899   4.894 -1.0723  0.0107  0.9268
 5772TIP3    H217323   3.804   2.785   4.927 -0.5741 -0.9275 -0.7179
 5773TIP3   OH217324   6.278   2.152   3.371 -0.6712  0.3387  0.3812
 5773TIP3    H117325   6.329   2.223   3.410 -2.1121  0.7271  1.6407
 5773TIP3    H217326   6.234   2.110   3.445 -0.3646 -1.4761 -0.4172
 5774TIP3   OH217327   6.246   1.671   3.883 -0.4140 -0.2678  0.2346
 5774TIP3    H117328   6.286   1.633   3.961  0.3874 -1.7298 -0.8354
 5774TIP3    H217329   6.307   1.650   3.812 -1.3374  0.6253 -0.8738
 5775TIP3   OH217330   0.547   5.932   2.372  1.0286  0.3685 -0.5043
 5775TIP3    H117331   0.559   5.994   2.299  0.3822 -0.0610 -0.9913
 5775TIP3    H217332   0.528   5.849   2.329  1.7969 -0.1531  0.1529
 5776TIP3   OH217333   2.749   3.177   3.278  0.4712  0.2848  0.3995
 5776TIP3    H117334   2.842   3.199   3.276  0.8216 -1.0389  1.0678
 5776TIP3    H217335   2.745   3.086   3.251 -0.9880  1.1895 -2.8781
 5777TIP3   OH217336   2.984   4.402   3.588  0.2619 -0.2606 -0.6067
 5777TIP3    H117337   3.014   4.316   3.557 -0.0526 -0.8292  0.5936
 5777TIP3    H217338   2.913   4.426   3.530 -1.5355 -2.1379  0.6692
 5778TIP3   OH217339   0.334   2.390   3.876 -0.3046 -0.9600  0.0085
 5778TIP3    H117340   0.261   2.388   3.937 -0.9421 -0.5585 -0.7240
 5778TIP3    H217341   0.307   2.331   3.805 -0.0050 -0.6556 -0.3595
 5779TIP3   OH217342   5.742   2.710   1.775  0.2867  0.0175  0.2670
 5779TIP3    H117343   5.710   2.775   1.838 -0.1228 -0.3423  0.4406
 5779TIP3    H217344   5.705   2.627   1.806  0.0492 -0.1609 -0.4693
 5780TIP3   OH217345   1.028   5.036   2.210 -0.2235  0.1856  0.5788
 5780TIP3    H117346   0.935   5.041   2.232  0.0310 -1.7285  2.3240
 5780TIP3    H217347   1.073   5.062   2.290  0.7543  0.3777 -0.0214
 5781TIP3   OH217348   2.392   1.246   1.176  0.3734  0.0531 -0.0502
 5781TIP3    H117349   2.449   1.309   1.220 -0.2361 -0.4605  1.5384
 5781TIP3    H217350   2.348   1.200   1.247  0.9752 -2.3461 -1.1469
 5782TIP3   OH217351   2.944   3.570   2.141 -0.4253  0.0353  0.0046
 5782TIP3    H117352   3.035   3.562   2.114 -0.4880 -0.6313 -0.0423
 5782TIP3    H217353   2.944   3.639   2.208 -0.0275  0.6262 -0.5969
 5783TIP3   OH217354   4.545   2.881   2.270  0.3956  0.5126 -0.2779
 5783TIP3    H117355   4.605   2.854   2.200  0.9461  0.2434  0.2928
 5783TIP3    H217356   4.560   2.818   2.340  2.7480  2.9512  1.6711
 5784TIP3   OH217357   4.297   0.847   3.015  0.5877  0.0650 -0.2868
 5784TIP3    H117358   4.307   0.769   2.961  0.0133  1.0131 -1.8598
 5784TIP3    H217359   4.259   0.816   3.097 -1.1576 -1.1308 -1.4838
 5785TIP3   OH217360   4.189   3.126   2.167 -0.2128  0.4865 -0.0152
 5785TIP3    H117361   4.095   3.141   2.182 -0.7833 -1.1185 -1.5931
 5785TIP3    H217362   4.194   3.035   2.138  1.8000  0.6596 -0.3058
 5786TIP3   OH217363   0.821   3.237   1.578 -0.3888  0.4869  0.3173
 5786TIP3    H117364   0.870   3.229   1.660 -1.2316  2.7014  1.1019
 5786TIP3    H217365   0.881   3.282   1.518 -0.8357  1.7043  0.7538
 5787TIP3   OH217366   1.420   4.202   3.494  0.0751  0.2088 -0.2171
 5787TIP3    H117367   1.367   4.253   3.556  2.1456  1.2552  0.8016
 5787TIP3    H217368   1.358   4.172   3.429 -1.6510  2.0872  0.4470
 5788TIP3   OH217369   5.270   1.327   4.308  0.3496  0.4213 -0.0855
 5788TIP3    H117370   5.342   1.381   4.273  0.1208  0.2812 -0.7955
 5788TIP3    H217371   5.245   1.272   4.234  0.8498 -0.9670  0.7585
 5789TIP3   OH217372   1.225   0.788   0.549 -0.3660  0.0067  0.9082
 5789TIP3    H117373   1.292   0.853   0.530 -1.5554  1.0106 -0.0450
 5789TIP3    H217374   1.260   0.738   0.623  1.6428  0.1299  0.1019
 5790TIP3   OH217375   5.226   5.451   4.146 -0.2388  0.2908  0.2416
 5790TIP3    H117376   5.229   5.357   4.129 -2.1244  0.5367 -2.1597
 5790TIP3    H217377   5.296   5.467   4.208  0.4654 -2.6135  0.3432
 5791TIP3   OH217378   6.183   2.148   1.875  0.5069 -0.2271  0.2941
 5791TIP3    H117379   6.140   2.227   1.908 -2.5935 -1.8956  0.6273
 5791TIP3    H217380   6.238   2.119   1.948  0.9621  1.1022  0.5014
 5792TIP3   OH217381   6.252   0.915   2.859 -0.0809 -0.4880  0.5462
 5792TIP3    H117382   6.177   0.963   2.894 -1.2214 -0.9459 -1.1089
 5792TIP3    H217383   6.317   0.982   2.838 -0.7569  0.1140  0.3589
 5793TIP3   OH217384   1.962   0.260   0.425  0.1775 -0.4308  0.3244
 5793TIP3    H117385   1.906   0.213   0.488  0.9670 -0.7291  0.8236
 5793TIP3    H217386   1.925   0.348   0.421  0.6263 -0.1290  1.9057
 5794TIP3   OH217387   3.050   4.509   0.609  0.2797 -0.7253 -0.5485
 5794TIP3    H117388   3.075   4.421   0.637  1.7794  0.0732  0.7903
 5794TIP3    H217389   3.068   4.564   0.685 -1.3227  0.6544 -1.1109
 5795TIP3   OH217390   0.866   4.108   2.252 -0.2026  0.1797  0.0516
 5795TIP3    H117391   0.802   4.149   2.193 -0.8131  0.0944  0.6336
 5795TIP3    H217392   0.829   4.122   2.339  0.6484  0.2344  0.4081
 5796TIP3   OH217393   4.965   1.866   2.778  0.4590  0.3179  0.3329
 5796TIP3    H117394   4.895   1.890   2.718 -0.1113 -0.8625  0.4954
 5796TIP3    H217395   4.925   1.802   2.837  1.7272 -0.5260  0.3049
 5797TIP3   OH217396   3.371   0.266   1.629  0.2507 -0.7616 -0.2306
 5797TIP3    H117397   3.341   0.310   1.549 -2.0838 -0.1050  0.9126
 5797TIP3    H217398   3.436   0.326   1.666 -0.0739 -0.1160 -0.6835
 5798TIP3   OH217399   1.717   0.217   3.244 -0.3076  0.2735 -0.0225
 5798TIP3    H117400   1.806   0.201   3.275  0.5697 -0.7429 -2.7948
 5798TIP3    H217401   1.723   0.297   3.191 -0.7170 -0.4965 -1.2840
 5799TIP3   OH217402   2.203   0.200   3.934  0.3539 -0.0409  0.2011
 5799TIP3    H117403   2.234   0.245   4.012  0.9896  0.8136 -0.5272
 5799TIP3    H217404   2.115   0.235   3.920  0.2904 -0.0957  0.4463
 5800TIP3   OH217405   0.604   2.780   0.478  0.3466 -0.2460 -0.3562
 5800TIP3    H117406   0.597   2.822   0.393 -0.8320  0.5394  0.0950
 5800TIP3    H217407   0.563   2.841   0.539  1.0942 -0.8199  0.7722
 5801TIP3   OH217408   4.299   3.225   4.129 -0.0718  0.3086  0.1745
 5801TIP3    H117409   4.293   3.281   4.207 -1.6266 -0.1207  0.3942
 5801TIP3    H217410   4.384   3.247   4.090 -0.6606  2.9016  0.1978
 5802TIP3   OH217411   4.442   1.728   2.746  0.0692  0.4191  0.0743
 5802TIP3    H117412   4.355   1.715   2.710 -0.0655  1.2773  0.0768
 5802TIP3    H217413   4.445   1.672   2.824  0.0361 -0.7203 -0.7227
 5803TIP3   OH217414   3.202   0.791   2.771 -0.0641 -0.4082 -0.2374
 5803TIP3    H117415   3.173   0.881   2.786  0.4912 -0.4811  1.3849
 5803TIP3    H217416   3.295   0.800   2.749 -0.2372 -0.5237 -1.0478
 5804TIP3   OH217417   0.406   0.487   1.103 -0.0618 -0.1485  0.0976
 5804TIP3    H117418   0.502   0.482   1.108 -0.0828  0.1757  0.8605
 5804TIP3    H217419   0.375   0.437   1.178 -0.5303 -1.3822 -0.8756
 5805TIP3   OH217420   4.030   3.748   4.317 -0.0674  0.2316 -0.4594
 5805TIP3    H117421   4.111   3.768   4.270  0.1504  1.0130  0.2257
 5805TIP3    H217422   4.048   3.667   4.364  0.4760  0.6310  0.0355
 5806TIP3   OH217423   2.037   4.525   0.190 -0.2564 -0.2589 -0.4674
 5806TIP3    H117424   2.088   4.491   0.264 -1.6156 -2.2123 -0.3298
 5806TIP3    H217425   2.043   4.620   0.198  1.0719 -0.4289  1.1180
 5807TIP3   OH217426   1.988   2.893   0.210  0.1293  0.1146  0.5742
 5807TIP3    H117427   1.963   2.831   0.279  0.0839 -1.1580 -0.5377
 5807TIP3    H217428   2.078   2.869   0.189 -0.2271 -0.2991 -0.5818
 5808TIP3   OH217429   4.982   0.037   3.526  0.2438  0.2902  0.3585
 5808TIP3    H117430   4.912  -0.026   3.509  0.9230 -1.2155  2.5884
 5808TIP3    H217431   4.946   0.121   3.501 -1.5502 -0.7117 -0.6074
 5809TIP3   OH217432   1.396   1.909   3.045  0.4326 -0.1793  0.0653
 5809TIP3    H117433   1.360   1.895   3.133  0.2331 -0.5896 -0.0810
 5809TIP3    H217434   1.488   1.932   3.060 -0.1877  2.3441  0.5448
 5810TIP3   OH217435   2.575   3.574   0.141 -0.5922 -0.4217 -0.3298
 5810TIP3    H117436   2.565   3.606   0.231 -0.0984 -1.5654  0.1544
 5810TIP3    H217437   2.587   3.653   0.088  0.5246  0.2171  0.8117
 5811TIP3   OH217438   4.426   5.545   0.824 -0.0294 -0.6903 -0.3401
 5811TIP3    H117439   4.464   5.485   0.758  1.4090 -1.2466  0.9217
 5811TIP3    H217440   4.500   5.598   0.853 -1.0087  0.7747 -0.4128
 5812TIP3   OH217441   0.987   3.320   1.874 -0.2673 -0.3429 -0.1223
 5812TIP3    H117442   1.033   3.390   1.920  0.6300 -1.0288  0.0658
 5812TIP3    H217443   0.901   3.316   1.915 -0.3613  0.7010 -0.1993
 5813TIP3   OH217444   6.271   5.652   1.450  0.4866  0.1828 -0.0036
 5813TIP3    H117445   6.340   5.586   1.455  0.1000 -0.4291 -1.7898
 5813TIP3    H217446   6.241   5.648   1.359 -1.0866  1.2573  0.4240
 5814TIP3   OH217447   3.920   1.212   3.189 -0.1439 -0.5314  0.0353
 5814TIP3    H117448   3.942   1.255   3.271 -0.2537 -1.8180  0.7537
 5814TIP3    H217449   3.853   1.148   3.212 -2.0268  0.7488 -1.4745
 5815TIP3   OH217450   1.712   2.600   2.376  0.6108  0.0493 -0.1082
 5815TIP3    H117451   1.638   2.575   2.321  1.6467 -0.7105 -1.1990
 5815TIP3    H217452   1.737   2.520   2.421  1.6481 -0.0595 -0.8403
 5816TIP3   OH217453   2.264   1.112   3.803  0.1397 -0.3243 -0.1289
 5816TIP3    H117454   2.206   1.061   3.860  1.2896  0.0843  1.4748
 5816TIP3    H217455   2.338   1.054   3.787 -0.4075 -0.6252 -1.6790
 5817TIP3   OH217456   1.207   3.338   0.881  0.7310  0.3876  0.1256
 5817TIP3    H117457   1.189   3.359   0.789  0.4885 -0.2882  0.0140
 5817TIP3    H217458   1.298   3.306   0.880  1.4101  2.1577  0.4254
 5818TIP3   OH217459   2.416   0.947   0.297 -0.1010  0.4464  0.3667
 5818TIP3    H117460   2.470   0.870   0.280 -1.9343 -0.5318 -1.4615
 5818TIP3    H217461   2.468   1.000   0.358  1.6527 -1.7296  0.8948
 5819TIP3   OH217462   0.214   2.801   2.346  0.0438  0.0564  0.5166
 5819TIP3    H117463   0.262   2.740   2.402 -1.3659  0.2715  2.0504
 5819TIP3    H217464   0.281   2.843   2.292  1.2603 -1.3760  0.8546
 5820TIP3   OH217465   3.071   3.988   3.223 -0.4562  0.1829  0.3821
 5820TIP3    H117466   3.062   3.987   3.128  0.6523 -0.5037  0.2580
 5820TIP3    H217467   2.982   4.002   3.256 -0.8251  0.6060 -0.7503
 5821TIP3   OH217468   3.757   5.561   1.565 -0.0704 -0.0946  0.4015
 5821TIP3    H117469   3.682   5.609   1.530 -1.1717 -2.7943 -1.2166
 5821TIP3    H217470   3.736   5.548   1.658 -1.4257 -0.4646  0.0557
 5822TIP3   OH217471   5.869   5.919   2.200  0.2378  0.7707  0.0105
 5822TIP3    H117472   5.780   5.885   2.208  0.7885 -0.3937  1.8392
 5822TIP3    H217473   5.857   6.009   2.170 -1.4771  0.2654 -0.9777
 5823TIP3   OH217474   4.891   0.128   3.168  0.2179 -0.0683 -0.3773
 5823TIP3    H117475   4.879   0.185   3.244 -0.8396  0.3572 -0.8546
 5823TIP3    H217476   4.827   0.158   3.104 -0.6790 -2.0507 -0.4892
 5824TIP3   OH217477   0.454   1.274   2.579 -0.3229 -0.0005 -0.1819
 5824TIP3    H117478   0.512   1.328   2.633  0.5250 -1.5143  0.4866
 5824TIP3    H217479   0.388   1.335   2.546 -0.5555  1.1179  2.1226
 5825TIP3   OH217480   1.653   5.795   4.812  0.1148 -0.3963 -0.7825
 5825TIP3    H117481   1.662   5.720   4.870  3.9124  0.5264  0.0691
 5825TIP3    H217482   1.716   5.779   4.741  0.6635  1.7180 -0.8399
 5826TIP3   OH217483   6.041   0.061   2.494  0.0253  0.1312 -0.1849
 5826TIP3    H117484   6.038   0.020   2.580  0.6320  3.4053  1.5706
 5826TIP3    H217485   6.134   0.062   2.471 -0.0864 -0.3131 -0.6691
 5827TIP3   OH217486   2.301   0.846   0.577 -0.0013 -0.4387  0.0276
 5827TIP3    H117487   2.259   0.800   0.504  0.8721 -1.5785  0.2163
 5827TIP3    H217488   2.390   0.812   0.579  0.1790  0.0400  1.2276
 5828TIP3   OH217489   3.067   3.039   2.267 -0.0475 -0.1439 -0.3558
 5828TIP3    H117490   3.059   2.945   2.280  0.5575 -0.1179  0.2354
 5828TIP3    H217491   2.979   3.067   2.240 -0.4434 -0.7405  0.2957
 5829TIP3   OH217492   1.542   2.247   2.084 -0.2511  0.2169 -1.1252
 5829TIP3    H117493   1.564   2.154   2.086  0.4164  0.2337 -3.8689
 5829TIP3    H217494   1.485   2.259   2.160 -0.0007 -2.3200 -0.4271
 5830TIP3   OH217495   3.452   0.470   1.998  0.2063  0.0014  0.6188
 5830TIP3    H117496   3.485   0.513   2.077 -0.2905 -0.7860  1.2732
 5830TIP3    H217497   3.464   0.535   1.928  1.2677  0.4644  1.2096
 5831TIP3   OH217498   3.469   4.153   3.462 -0.0671 -0.0342 -0.7858
 5831TIP3    H117499   3.558   4.181   3.444 -0.1185  0.3985 -0.3960
 5831TIP3    H217500   3.426   4.231   3.497 -0.5732 -0.2599 -0.8938
 5832TIP3   OH217501   5.540   0.255   2.161 -0.4110 -0.6034 -0.4305
 5832TIP3    H117502   5.572   0.214   2.081 -0.4729 -1.0672 -0.2206
 5832TIP3    H217503   5.618   0.294   2.200 -0.2790 -0.8625 -0.4323
 5833TIP3   OH217504   1.826   4.050   2.191  0.0667  0.0298 -0.2828
 5833TIP3    H117505   1.776   3.970   2.201  1.6524 -0.8471  1.2576
 5833TIP3    H217506   1.761   4.120   2.192 -1.3516 -1.2010 -1.6718
 5834TIP3   OH217507   5.904   4.539   2.437 -0.0677 -0.1751  0.6844
 5834TIP3    H117508   5.811   4.559   2.436 -0.2025 -0.7939  0.6407
 5834TIP3    H217509   5.947   4.622   2.412 -0.6854 -0.3223 -0.9707
 5835TIP3   OH217510   0.298   1.718   2.097 -0.3566  0.2013 -0.4178
 5835TIP3    H117511   0.339   1.697   2.181 -1.2086  0.6145  0.1158
 5835TIP3    H217512   0.220   1.663   2.094  0.9556 -1.7381 -2.1191
 5836TIP3   OH217513   2.838   3.201   2.889  0.3815 -0.1288  0.2649
 5836TIP3    H117514   2.875   3.167   2.808 -1.8792 -0.4072 -0.7427
 5836TIP3    H217515   2.828   3.123   2.945 -3.9247 -1.3355 -1.6949
 5837TIP3   OH217516   4.781   2.163   0.629  0.3997 -0.7264  0.0639
 5837TIP3    H117517   4.696   2.205   0.645  0.5533 -1.0991  2.1328
 5837TIP3    H217518   4.759   2.075   0.597  0.0413 -0.2737 -0.9549
 5838TIP3   OH217519   0.597   3.841   0.852  0.1653  0.3485  0.4751
 5838TIP3    H117520   0.591   3.798   0.938 -0.0989  0.9716  0.7830
 5838TIP3    H217521   0.598   3.769   0.789  1.5560 -0.1717  1.0430
 5839TIP3   OH217522   1.253   4.502   4.231  0.4423 -0.0538  0.7457
 5839TIP3    H117523   1.344   4.529   4.222  0.1842  0.6137 -0.0431
 5839TIP3    H217524   1.203   4.580   4.207 -0.3326 -0.5302  0.7804
 5840TIP3   OH217525   0.203   2.315   4.343  0.5416 -0.0138  0.3155
 5840TIP3    H117526   0.236   2.376   4.408 -0.8892  0.9099  0.2309
 5840TIP3    H217527   0.125   2.277   4.383  1.8714 -2.5332  0.7354
 5841TIP3   OH217528   4.724   0.821   5.077  0.4766 -0.8172 -0.3638
 5841TIP3    H117529   4.788   0.888   5.051 -1.7669  0.9459 -1.7039
 5841TIP3    H217530   4.716   0.764   5.001 -2.0946  1.1332 -1.7002
 5842TIP3   OH217531   5.993   3.375   1.232 -0.0305  0.1458  0.2664
 5842TIP3    H117532   5.925   3.323   1.275  0.5252 -0.5599  0.3256
 5842TIP3    H217533   6.075   3.335   1.261  0.4099  1.0347  0.2624
 5843TIP3   OH217534   4.465   3.402   2.547  0.1377  0.2500 -0.7177
 5843TIP3    H117535   4.443   3.481   2.498  1.9292  0.8099 -0.6844
 5843TIP3    H217536   4.404   3.336   2.515 -1.3405  1.6020 -0.8244
 5844TIP3   OH217537   5.220   0.540   3.278 -0.1695  0.4412 -0.0696
 5844TIP3    H117538   5.232   0.451   3.312 -1.4895  0.0548 -0.5591
 5844TIP3    H217539   5.193   0.527   3.187  0.2238  1.3735 -0.3304
 5845TIP3   OH217540   5.715   0.951   2.245 -0.5830  0.3345  0.4447
 5845TIP3    H117541   5.663   0.909   2.314 -1.2385 -0.0757 -0.2894
 5845TIP3    H217542   5.651   1.000   2.194 -0.2188  0.0044 -0.3373
 5846TIP3   OH217543   2.874   4.735   0.395  0.2686  0.1251 -0.7092
 5846TIP3    H117544   2.855   4.791   0.319  0.7400  2.2570  0.6557
 5846TIP3    H217545   2.949   4.777   0.438  0.1662 -1.1522  0.8200
 5847TIP3   OH217546   2.973   5.151   1.667 -0.3811  0.1772  0.1098
 5847TIP3    H117547   2.983   5.244   1.684 -2.2755  0.7028 -1.3089
 5847TIP3    H217548   2.997   5.140   1.575  0.1674 -0.8107  0.3511
 5848TIP3   OH217549   2.163   4.704   3.658 -0.2308  0.2071  0.0542
 5848TIP3    H117550   2.255   4.711   3.687 -0.0728 -1.2901  0.0306
 5848TIP3    H217551   2.155   4.767   3.587  0.4794  1.1367  0.7764
 5849TIP3   OH217552   5.432   0.961   2.755 -0.1061 -0.0486 -0.0810
 5849TIP3    H117553   5.430   0.917   2.840 -0.0447 -0.7529 -0.4389
 5849TIP3    H217554   5.463   0.894   2.694  1.4329  0.8936 -0.3861
 5850TIP3   OH217555   0.502   3.560   0.944  0.0011 -0.3387  0.4190
 5850TIP3    H117556   0.429   3.598   0.894  0.3554 -1.4173 -0.9794
 5850TIP3    H217557   0.459   3.513   1.015 -0.5614  0.5298  0.6795
 5851TIP3   OH217558   6.294   3.527   4.760  0.4552 -0.0987 -0.7246
 5851TIP3    H117559   6.233   3.454   4.759  0.7811 -0.3810  0.0199
 5851TIP3    H217560   6.368   3.497   4.706  1.5298 -1.1528  1.2301
 5852TIP3   OH217561   4.458   2.100   3.013 -0.0354  0.2761  0.4215
 5852TIP3    H117562   4.437   2.180   2.965  1.2596  0.5970  0.3283
 5852TIP3    H217563   4.443   2.122   3.105  0.9683  0.8860  0.4621
 5853TIP3   OH217564   0.855   0.819   0.636  0.4812  0.0554  0.1747
 5853TIP3    H117565   0.846   0.844   0.728 -0.9816 -1.3970  0.4641
 5853TIP3    H217566   0.898   0.734   0.638 -0.5109 -0.4817 -0.3987
 5854TIP3   OH217567   1.851   3.007   3.200 -0.1280 -0.1027  0.3121
 5854TIP3    H117568   1.850   3.007   3.296 -0.6329 -2.3550  0.3561
 5854TIP3    H217569   1.940   3.037   3.177  0.8138 -1.7853  1.5658
 5855TIP3   OH217570   5.379   2.773   1.884  0.2300 -0.0168 -0.4144
 5855TIP3    H117571   5.286   2.797   1.883  0.1083 -0.3893  0.5475
 5855TIP3    H217572   5.389   2.720   1.963  1.5300  1.1191  0.2368
 5856TIP3   OH217573   2.596   0.247   4.201  0.2011 -0.7991 -0.3623
 5856TIP3    H117574   2.652   0.260   4.125  0.5308 -0.3920 -0.0613
 5856TIP3    H217575   2.514   0.291   4.178 -0.0035 -1.4234 -0.8160
 5857TIP3   OH217576   3.989   0.031   3.339 -0.1146  0.5445 -0.0025
 5857TIP3    H117577   4.034   0.071   3.413 -0.6863  1.6574 -0.2319
 5857TIP3    H217578   4.000   0.093   3.268  1.8595 -1.2617 -1.3839
 5858TIP3   OH217579   6.238   0.575   4.184  0.1612 -0.6795  0.1387
 5858TIP3    H117580   6.146   0.592   4.166  0.1817  0.1750  0.7578
 5858TIP3    H217581   6.253   0.486   4.152 -1.1100 -1.1906  0.8701
 5859TIP3   OH217582   1.634   1.985   2.146 -0.6657 -0.9787  0.2974
 5859TIP3    H117583   1.567   1.917   2.148 -1.5466 -0.2534 -1.6535
 5859TIP3    H217584   1.715   1.939   2.170 -1.5830 -2.2269  1.1088
 5860TIP3   OH217585   4.828   3.770   4.947 -0.3983  0.1522  0.3823
 5860TIP3    H117586   4.893   3.839   4.932  1.2503 -1.0882  1.3586
 5860TIP3    H217587   4.751   3.816   4.980  0.0061  1.6685 -0.6643
 5861TIP3   OH217588   5.872   0.729   0.840 -0.3779 -0.2832  0.4866
 5861TIP3    H117589   5.803   0.716   0.905 -1.3013 -0.9361 -0.5879
 5861TIP3    H217590   5.940   0.666   0.863 -0.7090 -0.5228  0.8061
 5862TIP3   OH217591   5.137   1.307   4.845 -0.0605  0.1636  0.5429
 5862TIP3    H117592   5.157   1.233   4.787  1.6033  1.2657 -0.3844
 5862TIP3    H217593   5.212   1.366   4.835 -1.5274  2.2028  0.8749
 5863TIP3   OH217594   0.144   1.785   3.436 -0.4352 -0.0565  0.3403
 5863TIP3    H117595   0.233   1.752   3.420 -0.5525  0.7436 -2.4527
 5863TIP3    H217596   0.091   1.706   3.447  0.2974 -0.5994  0.0962
 5864TIP3   OH217597   0.273   5.213   2.039 -0.1035  0.2376  0.3632
 5864TIP3    H117598   0.355   5.246   2.003 -0.2174  0.0098 -0.1190
 5864TIP3    H217599   0.298   5.170   2.121  0.1068  1.0943  0.7542
 5865TIP3   OH217600   0.502   0.113   2.874 -0.2400 -0.2765  0.1250
 5865TIP3    H117601   0.432   0.098   2.811  0.9821 -1.0084 -1.1246
 5865TIP3    H217602   0.493   0.042   2.937 -0.2276 -0.7596 -0.4074
 5866TIP3   OH217603   0.184   1.970   1.491 -0.0905 -0.2120 -0.2112
 5866TIP3    H117604   0.158   1.995   1.402 -2.0636 -0.6649  0.1863
 5866TIP3    H217605   0.120   2.014   1.547  1.2147  0.1746  1.0025
 5867TIP3   OH217606   3.360   1.712   3.177 -0.1104 -0.5863  0.6594
 5867TIP3    H117607   3.435   1.694   3.121 -1.0925 -0.5174 -0.7213
 5867TIP3    H217608   3.394   1.769   3.246  0.9684 -0.0190 -0.3132
 5868TIP3   OH217609   3.206   3.230   2.053  0.0256 -0.3324 -0.3180
 5868TIP3    H117610   3.163   3.229   1.968  0.3041 -1.5613 -0.4735
 5868TIP3    H217611   3.157   3.167   2.105 -0.2410  0.5294  0.4976
 5869TIP3   OH217612   5.766   5.122   3.337  0.0407 -0.4736 -0.1484
 5869TIP3    H117613   5.779   5.120   3.242  2.2790  2.5184 -0.0709
 5869TIP3    H217614   5.855   5.116   3.373 -0.6251 -0.0474  1.6762
 5870TIP3   OH217615   3.834   3.285   2.797 -0.6185  0.4177  0.0902
 5870TIP3    H117616   3.785   3.309   2.876 -1.1791 -0.6859  0.1035
 5870TIP3    H217617   3.769   3.246   2.739 -0.0935  0.6624 -0.6765
 5871TIP3   OH217618   5.211   1.899   0.289  0.5359  0.3090 -0.3672
 5871TIP3    H117619   5.239   1.928   0.202  1.7517 -0.4284 -0.2522
 5871TIP3    H217620   5.213   1.978   0.342 -0.7488  0.8752 -1.1106
 5872TIP3   OH217621   2.356   2.854   4.745  0.0472  0.4487  0.2563
 5872TIP3    H117622   2.361   2.851   4.650  0.2646  0.9820  0.2456
 5872TIP3    H217623   2.269   2.820   4.766 -0.6596  1.8760 -0.2289
 5873TIP3   OH217624   2.625   4.416   5.118 -0.0443  0.5964 -0.2105
 5873TIP3    H117625   2.581   4.361   5.183 -0.4465  0.3220 -0.7068
 5873TIP3    H217626   2.677   4.354   5.066 -0.4199  0.6929 -0.7081
 5874TIP3   OH217627   3.817   4.387   2.803 -0.2724  0.1950  0.5833
 5874TIP3    H117628   3.868   4.321   2.850  1.4147  1.1644  0.1915
 5874TIP3    H217629   3.825   4.362   2.711 -2.5697 -1.0049  0.6158
 5875TIP3   OH217630   1.116   0.628   2.658 -0.2108 -0.1952 -0.0671
 5875TIP3    H117631   1.055   0.697   2.634 -0.9423 -0.4449  1.0093
 5875TIP3    H217632   1.096   0.557   2.598  1.2064  0.8255 -1.8409
 5876TIP3   OH217633   1.609   5.742   1.857 -0.1695 -0.3635 -0.9219
 5876TIP3    H117634   1.532   5.791   1.883  0.2550  0.4928 -1.2546
 5876TIP3    H217635   1.624   5.766   1.766  0.7907 -0.1081 -0.7067
 5877TIP3   OH217636   0.426   3.556   1.781 -0.0256 -0.1703  0.3425
 5877TIP3    H117637   0.451   3.547   1.873 -0.7395 -0.3109  0.5307
 5877TIP3    H217638   0.498   3.515   1.733  0.1181 -0.5429  0.8589
 5878TIP3   OH217639   2.871   4.465   0.410 -0.0269 -0.9774  0.2030
 5878TIP3    H117640   2.928   4.465   0.487 -0.5125 -1.3845  0.5672
 5878TIP3    H217641   2.858   4.558   0.390  1.6507 -0.8710 -0.5643
 5879TIP3   OH217642   5.027   3.967   2.659  0.2882  0.8207 -0.1170
 5879TIP3    H117643   4.995   3.906   2.724 -0.0536  0.4399 -0.6381
 5879TIP3    H217644   5.120   3.977   2.679  0.0261  1.3120  0.9032
 5880TIP3   OH217645   2.928   2.528   3.572 -0.8611  0.1899 -0.0014
 5880TIP3    H117646   2.970   2.515   3.658 -0.7608 -1.1853 -0.2402
 5880TIP3    H217647   3.001   2.546   3.513 -0.8311  0.0651 -0.0018
 5881TIP3   OH217648   0.173   3.289   2.511 -0.6531  0.2194  0.4292
 5881TIP3    H117649   0.116   3.295   2.588 -0.2869 -1.1420  0.8436
 5881TIP3    H217650   0.194   3.196   2.504 -0.1493  0.4107 -0.9476
 5882TIP3   OH217651   3.164   3.816   2.902 -1.2726  0.5954  0.0399
 5882TIP3    H117652   3.074   3.845   2.914 -1.8086 -0.8416 -0.2824
 5882TIP3    H217653   3.170   3.735   2.951 -0.6873 -0.2608 -1.3822
 5883TIP3   OH217654   1.399   2.791   4.673 -0.3419  0.2774 -0.0757
 5883TIP3    H117655   1.417   2.727   4.742  0.9727  1.6702  0.9527
 5883TIP3    H217656   1.454   2.764   4.600  0.5702  0.4704  0.5196
 5884TIP3   OH217657   3.673   5.230   4.789  0.1116  0.1858  0.1014
 5884TIP3    H117658   3.699   5.163   4.852  1.3594  1.0049  0.5133
 5884TIP3    H217659   3.663   5.309   4.842 -0.6109  0.4915 -0.4790
 5885TIP3   OH217660   5.402   3.296   0.805 -0.0340  0.3354  0.4581
 5885TIP3    H117661   5.383   3.315   0.713 -1.9635  0.2930  0.7990
 5885TIP3    H217662   5.429   3.380   0.842  2.0397  0.1065 -0.3842
 5886TIP3   OH217663   0.182   5.760   2.121  0.5817 -0.0539  0.5216
 5886TIP3    H117664   0.243   5.746   2.049 -1.2911 -2.1613 -0.7765
 5886TIP3    H217665   0.096   5.736   2.085 -0.5042 -0.7612  3.3090
 5887TIP3   OH217666   2.834   5.972   5.176 -0.6049  0.1146 -0.4413
 5887TIP3    H117667   2.906   5.919   5.210  0.5613  1.6538 -0.3924
 5887TIP3    H217668   2.876   6.052   5.144 -2.1229  0.4085 -1.8674
 5888TIP3   OH217669   0.726   5.579   1.943 -0.1183  0.2728 -0.0629
 5888TIP3    H117670   0.663   5.546   1.879  0.9972 -0.2582 -0.9324
 5888TIP3    H217671   0.686   5.659   1.976 -0.9954  0.2555 -1.0098
 5889TIP3   OH217672   2.639   4.842   4.376 -0.3498 -0.0248  0.2018
 5889TIP3    H117673   2.660   4.785   4.450 -0.6043  0.5187  0.7004
 5889TIP3    H217674   2.562   4.803   4.336 -1.3835  0.7106  1.3850
 5890TIP3   OH217675   0.960   4.234   3.361 -0.7569  0.5464 -0.1950
 5890TIP3    H117676   1.032   4.179   3.330 -1.0107  0.5433 -0.7884
 5890TIP3    H217677   0.903   4.174   3.409 -0.0341  0.6721  0.8697
 5891TIP3   OH217678   5.880   0.141   0.597 -0.2006 -0.1166  0.4008
 5891TIP3    H117679   5.951   0.080   0.577  1.7801  1.0021  3.3842
 5891TIP3    H217680   5.811   0.086   0.635 -0.1512 -0.9619 -0.6875
 5892TIP3   OH217681   4.373   3.889   3.475 -0.0792 -0.9489 -0.1880
 5892TIP3    H117682   4.369   3.883   3.570 -1.9821  0.2429 -0.1338
 5892TIP3    H217683   4.441   3.827   3.449  0.6719 -1.0878  1.9502
 5893TIP3   OH217684   3.667   3.784   4.532  0.3760 -0.5866  0.2785
 5893TIP3    H117685   3.609   3.725   4.581  0.0894 -0.6570 -0.1483
 5893TIP3    H217686   3.611   3.855   4.503  0.5924 -0.4345  0.2307
 5894TIP3   OH217687   3.308   3.377   0.808 -0.2031 -0.1944  0.2917
 5894TIP3    H117688   3.304   3.330   0.725 -0.8809 -0.4328  0.4539
 5894TIP3    H217689   3.401   3.390   0.824 -0.0748  0.1375 -0.6652
 5895TIP3   OH217690   3.982   0.930   3.772 -0.2011 -0.1848  0.4396
 5895TIP3    H117691   3.913   0.996   3.783 -2.9099 -2.5238 -0.9959
 5895TIP3    H217692   4.006   0.935   3.680 -0.0279 -0.8040  0.4451
 5896TIP3   OH217693   5.399   3.483   1.499  0.1801 -0.1589  0.0270
 5896TIP3    H117694   5.326   3.422   1.491  2.4659 -3.1130  0.1359
 5896TIP3    H217695   5.433   3.491   1.409 -0.5795  1.7174 -0.1405
 5897TIP3   OH217696   5.392   3.785   0.375 -0.5344 -0.1483 -0.8574
 5897TIP3    H117697   5.458   3.747   0.317  1.2038  0.4011  0.6731
 5897TIP3    H217698   5.412   3.879   0.376  0.3790 -0.3124  1.6480
 5898TIP3   OH217699   2.498   3.743   1.484 -0.3471 -1.0318 -0.0838
 5898TIP3    H117700   2.531   3.728   1.572 -1.3606  0.5737  0.6312
 5898TIP3    H217701   2.436   3.672   1.468 -2.3634  0.1848  1.7325
 5899TIP3   OH217702   3.244   3.544   4.131 -0.1216  0.8909 -0.0152
 5899TIP3    H117703   3.339   3.534   4.123  0.0182 -1.1826  2.6076
 5899TIP3    H217704   3.208   3.510   4.049  1.3617  0.4091 -0.4855
 5900TIP3   OH217705   3.915   2.935   0.738  0.2374  0.0439 -0.2339
 5900TIP3    H117706   3.974   2.927   0.812  0.9767 -0.8473 -0.8917
 5900TIP3    H217707   3.874   3.021   0.749 -1.0637 -0.7929  2.1878
 5901TIP3   OH217708   5.691   2.239   2.715  0.3524  0.6856  0.1897
 5901TIP3    H117709   5.746   2.170   2.753  0.7005  0.7808 -0.1388
 5901TIP3    H217710   5.723   2.320   2.754  0.4788  0.7455 -0.0334
 5902TIP3   OH217711   1.126   5.201   4.483  0.0680 -0.0443 -0.5527
 5902TIP3    H117712   1.193   5.155   4.432  0.3106 -0.4091  0.0831
 5902TIP3    H217713   1.090   5.265   4.422  0.1401 -0.6726 -1.2829
 5903TIP3   OH217714   2.710   0.704   2.656  0.0716 -0.3717 -0.6314
 5903TIP3    H117715   2.699   0.614   2.627 -0.1662 -0.2989 -0.7669
 5903TIP3    H217716   2.802   0.709   2.685 -0.1984 -0.9460  0.3858
 5904TIP3   OH217717   5.271   4.525   4.359  0.2213  0.6127  0.3245
 5904TIP3    H117718   5.186   4.527   4.315  0.0866 -0.3599  0.5200
 5904TIP3    H217719   5.250   4.533   4.452  0.4058  1.1953  0.3192
 5905TIP3   OH217720   2.446   4.983   1.455  0.3739 -0.2304 -0.3558
 5905TIP3    H117721   2.385   5.055   1.467 -1.1549 -1.3067 -1.2467
 5905TIP3    H217722   2.529   5.015   1.489 -0.7817  1.1266  1.3144
 5906TIP3   OH217723   5.130   2.565   2.238 -0.0555 -0.7334 -0.0410
 5906TIP3    H117724   5.152   2.610   2.319  0.7564 -2.1621  0.5681
 5906TIP3    H217725   5.079   2.628   2.188 -1.3956 -0.1534  1.9754
 5907TIP3   OH217726   2.458   2.628   2.198  0.0554  0.0236  0.5700
 5907TIP3    H117727   2.428   2.719   2.189 -0.5633 -0.3130 -1.0793
 5907TIP3    H217728   2.545   2.627   2.157 -0.4369 -0.3589 -0.4965
 5908TIP3   OH217729   1.375   4.988   1.409  0.2761  0.1962 -0.1350
 5908TIP3    H117730   1.377   4.935   1.489 -0.8035 -0.8915 -0.7842
 5908TIP3    H217731   1.403   4.927   1.340 -0.6279  0.5635 -0.8433
 5909TIP3   OH217732   0.593   1.210   1.736  0.2797 -0.5636 -0.2394
 5909TIP3    H117733   0.655   1.138   1.747 -1.2084 -1.8069  0.3522
 5909TIP3    H217734   0.567   1.205   1.644  0.5425 -0.4423 -0.3242
 5910TIP3   OH217735   2.196   4.416   0.395  0.0902  0.4149 -0.2032
 5910TIP3    H117736   2.251   4.426   0.472 -1.1640  1.0918  0.6293
 5910TIP3    H217737   2.186   4.322   0.384 -1.7979  0.2924  2.0174
 5911TIP3   OH217738   5.651   0.863   3.782 -0.1738  0.5349 -0.8714
 5911TIP3    H117739   5.663   0.851   3.876  0.8885  0.8264 -0.9613
 5911TIP3    H217740   5.727   0.820   3.742 -0.9851 -0.2469 -1.6471
 5912TIP3   OH217741   2.431   1.620   3.740  0.2657 -0.3469 -0.1400
 5912TIP3    H117742   2.441   1.542   3.686  0.1088  0.6488 -1.6818
 5912TIP3    H217743   2.397   1.687   3.680  0.1643  0.8469  1.1800
 5913TIP3   OH217744   0.898   5.125   3.447 -0.2713  0.7090  0.3045
 5913TIP3    H117745   0.969   5.182   3.475  0.5256 -0.8995  1.6631
 5913TIP3    H217746   0.828   5.140   3.511 -1.0129  1.8556 -0.7004
 5914TIP3   OH217747   5.710   3.363   1.891  0.0676  0.1051  0.4066
 5914TIP3    H117748   5.705   3.446   1.938  0.5917 -0.0298  0.7078
 5914TIP3    H217749   5.631   3.361   1.837 -1.3661 -0.3961  2.3907
 5915TIP3   OH217750   0.501   5.689   0.614 -0.1923 -0.8835 -0.2212
 5915TIP3    H117751   0.418   5.719   0.576  0.3328  1.3694  0.2426
 5915TIP3    H217752   0.495   5.714   0.707  1.7111  1.0768 -0.5645
 5916TIP3   OH217753   1.088   5.714   2.799  0.3476 -0.0282 -0.1411
 5916TIP3    H117754   1.073   5.745   2.710  0.4225  0.5637  0.0485
 5916TIP3    H217755   1.093   5.794   2.852 -0.7350 -0.4104  0.5560
 5917TIP3   OH217756   3.820   1.439   4.616 -0.2255  0.1453 -0.1793
 5917TIP3    H117757   3.904   1.485   4.619 -0.7766  1.1551  0.7390
 5917TIP3    H217758   3.809   1.414   4.524  0.8270  0.4781 -0.4050
 5918TIP3   OH217759   5.926   1.386   4.061 -0.5344  0.0371 -0.1755
 5918TIP3    H117760   5.961   1.449   4.124 -1.6510 -1.1511  1.7595
 5918TIP3    H217761   6.000   1.330   4.038 -0.4017 -0.4724  1.3565
 5919TIP3   OH217762   1.120   4.294   0.263  0.3378  0.3512 -0.2352
 5919TIP3    H117763   1.028   4.281   0.239  0.1964 -0.6859  0.7843
 5919TIP3    H217764   1.166   4.226   0.214  0.7690  1.6892 -1.7787
 5920TIP3   OH217765   5.688   2.374   4.175 -0.1023 -0.2098 -0.6274
 5920TIP3    H117766   5.774   2.350   4.140 -0.3034 -0.2003 -1.1322
 5920TIP3    H217767   5.696   2.465   4.201  0.2892 -0.4457  0.1148
 5921TIP3   OH217768   0.209   5.430   3.949  0.1695  0.4567 -0.0290
 5921TIP3    H117769   0.242   5.519   3.964  0.6321  0.1116  1.0592
 5921TIP3    H217770   0.279   5.373   3.981 -1.3119 -0.3036  2.0450
 5922TIP3   OH217771   4.865   1.950   1.132  0.2587  0.3470 -0.2710
 5922TIP3    H117772   4.840   1.958   1.040 -1.8974 -0.3610  0.1930
 5922TIP3    H217773   4.799   1.892   1.170  0.7296  1.1079  1.8640
 5923TIP3   OH217774   5.646   5.236   4.785 -0.3267 -0.4925 -0.6459
 5923TIP3    H117775   5.709   5.298   4.749 -0.9664  0.3128 -0.4054
 5923TIP3    H217776   5.563   5.282   4.783 -0.8381 -1.3848 -0.5513
 5924TIP3   OH217777   2.192   0.195   0.270  0.1292 -0.2591  0.5569
 5924TIP3    H117778   2.244   0.124   0.307  0.2586  0.3183  1.5159
 5924TIP3    H217779   2.122   0.210   0.334  1.0270  1.5374  1.2011
 5925TIP3   OH217780   1.728   2.860   2.802 -0.2407 -0.3699  0.0396
 5925TIP3    H117781   1.758   2.947   2.829 -2.0220 -0.1269  1.4337
 5925TIP3    H217782   1.707   2.870   2.709 -1.3504  0.9892  0.4010
 5926TIP3   OH217783   2.910   5.909   3.164  0.1700  0.5692  0.1149
 5926TIP3    H117784   2.981   5.941   3.219 -1.0012  0.1883  1.9443
 5926TIP3    H217785   2.847   5.981   3.161 -0.1221  0.3082 -0.1022
 5927TIP3   OH217786   5.955   5.919   4.459 -0.1453  0.0997 -0.3202
 5927TIP3    H117787   5.885   5.897   4.397  0.0221 -2.1016  0.1900
 5927TIP3    H217788   5.974   5.837   4.504 -0.3980  1.6263  2.8529
 5928TIP3   OH217789   5.142   0.940   1.396  0.4419  0.0116 -0.4580
 5928TIP3    H117790   5.053   0.964   1.423 -0.0322 -1.0086 -1.0651
 5928TIP3    H217791   5.182   0.905   1.476  0.7780  1.7102  0.1643
 5929TIP3   OH217792   4.317   3.954   1.417  0.6249  0.5062 -0.1374
 5929TIP3    H117793   4.314   3.906   1.500 -0.0106 -1.5708 -1.2830
 5929TIP3    H217794   4.228   3.987   1.405 -0.3287 -2.3011 -1.6206
 5930TIP3   OH217795   1.309   4.163   4.160 -0.3534 -0.3900 -0.6749
 5930TIP3    H117796   1.255   4.198   4.231  0.4727  0.4936 -0.4587
 5930TIP3    H217797   1.399   4.182   4.186  0.0967 -1.9602 -0.9661
 5931TIP3   OH217798   5.469   0.510   0.303 -0.1161 -0.1068 -0.4936
 5931TIP3    H117799   5.541   0.515   0.367 -0.3621 -0.4437 -0.1914
 5931TIP3    H217800   5.507   0.544   0.222  1.0270 -2.2283 -0.9082
 5932TIP3   OH217801   4.427   0.796   4.068  0.3059 -0.2311 -0.4826
 5932TIP3    H117802   4.361   0.825   4.006 -0.0037  0.3409  0.1088
 5932TIP3    H217803   4.388   0.720   4.112 -0.1020  0.3182  0.1113
 5933TIP3   OH217804   5.225   4.060   3.415  0.5667  0.1954 -0.1748
 5933TIP3    H117805   5.204   4.152   3.431 -0.1777 -0.3754  2.8024
 5933TIP3    H217806   5.306   4.045   3.463  0.6142 -0.7425 -0.5212
 5934TIP3   OH217807   0.955   5.446   0.764  0.2052  0.7955  0.2510
 5934TIP3    H117808   0.996   5.409   0.686 -0.7592 -2.4644  1.1317
 5934TIP3    H217809   0.861   5.434   0.750  0.0426 -0.7162  2.2271
 5935TIP3   OH217810   0.308   5.949   3.444  0.1799  0.5315  0.3314
 5935TIP3    H117811   0.353   5.971   3.525  0.6929  1.8104 -0.2735
 5935TIP3    H217812   0.347   6.006   3.378 -1.5198  0.8754 -0.4524
 5936TIP3   OH217813   4.972   3.739   4.332 -0.4694 -0.6713  0.1146
 5936TIP3    H117814   4.943   3.648   4.333  1.6614 -1.4380 -0.7581
 5936TIP3    H217815   5.068   3.733   4.330 -0.2890  1.5476 -1.5066
 5937TIP3   OH217816   4.516   4.599   3.465  0.1086  0.1688 -0.6022
 5937TIP3    H117817   4.539   4.672   3.522 -1.3595 -1.1717  1.8975
 5937TIP3    H217818   4.599   4.552   3.452  0.4769  0.4857  0.4984
 5938TIP3   OH217819   6.126   1.033   3.817 -0.1139 -0.3901 -0.5238
 5938TIP3    H117820   6.043   1.031   3.769 -0.8713  1.9315  0.5829
 5938TIP3    H217821   6.192   1.040   3.748 -0.9591 -0.1995 -1.3421
 5939TIP3   OH217822   0.687   3.929   1.645  0.2659 -0.6252 -0.0392
 5939TIP3    H117823   0.618   3.911   1.581  1.0455 -1.1952 -0.7397
 5939TIP3    H217824   0.688   4.025   1.652 -1.2014 -0.6335  0.6904
 5940TIP3   OH217825   2.055   4.071   1.311 -0.4591  0.7420  0.2658
 5940TIP3    H117826   1.970   4.027   1.316  0.1528 -0.6059 -0.7088
 5940TIP3    H217827   2.116   4.010   1.353  0.1478  1.3569  0.2859
 5941TIP3   OH217828   6.274   1.415   2.295 -0.0361  0.4871  0.3466
 5941TIP3    H117829   6.264   1.369   2.212 -0.5712  2.3385 -0.6857
 5941TIP3    H217830   6.185   1.418   2.330  0.0050  0.6717  0.4331
 5942TIP3   OH217831   4.877   5.355   1.737 -0.5053  0.2217  0.1150
 5942TIP3    H117832   4.855   5.338   1.645  0.2725 -1.0663  0.1295
 5942TIP3    H217833   4.946   5.421   1.734 -0.7996  0.5140 -0.2058
 5943TIP3   OH217834   5.192   2.706   4.827  0.0633 -0.3193 -0.4441
 5943TIP3    H117835   5.193   2.801   4.827 -0.0564 -0.2642  1.9479
 5943TIP3    H217836   5.273   2.681   4.871 -0.5685 -1.2665  0.2192
 5944TIP3   OH217837   0.728   5.187   3.630  0.0898  0.4792 -0.3029
 5944TIP3    H117838   0.733   5.263   3.688 -1.0547 -0.9939  1.8441
 5944TIP3    H217839   0.642   5.148   3.648 -0.1062 -0.3570 -2.6509
 5945TIP3   OH217840   5.965   2.840   1.611 -0.0123  1.1225 -0.1811
 5945TIP3    H117841   5.949   2.820   1.519  0.7089 -1.2239  0.1316
 5945TIP3    H217842   5.898   2.790   1.658  0.7588  0.7981  0.6108
 5946TIP3   OH217843   2.803   4.117   3.647 -0.3489  0.4848 -0.1560
 5946TIP3    H117844   2.891   4.149   3.625  0.0136  0.3523  1.0218
 5946TIP3    H217845   2.810   4.091   3.739 -1.4987  0.0168 -0.1911
 5947TIP3   OH217846   6.190   5.020   4.255  0.0043  0.0381 -0.1880
 5947TIP3    H117847   6.212   5.008   4.163 -1.6908  0.0388 -0.6155
 5947TIP3    H217848   6.244   4.955   4.301 -1.0936 -1.8459 -1.4484
 5948TIP3   OH217849   4.060   2.978   4.521  0.2860  0.3682  0.3270
 5948TIP3    H117850   4.113   3.058   4.526 -0.5770  1.0708 -1.2240
 5948TIP3    H217851   4.006   2.990   4.443 -1.9469 -0.4570  1.6559
 5949TIP3   OH217852   5.123   0.461   3.039  0.0979 -0.3320  0.3371
 5949TIP3    H117853   5.062   0.434   2.971 -0.7470 -1.3903  1.4760
 5949TIP3    H217854   5.208   0.426   3.012 -0.0086  0.1498 -0.6640
 5950TIP3   OH217855   0.768   1.165   2.149 -0.3513  0.5707  0.3386
 5950TIP3    H117856   0.771   1.250   2.193  0.4558  0.4301  0.5677
 5950TIP3    H217857   0.819   1.178   2.069  0.5005  0.0762  0.7891
 5951TIP3   OH217858   5.815   1.727   3.546  0.4712  0.0378 -0.0089
 5951TIP3    H117859   5.887   1.677   3.584  0.0468 -1.6935 -1.3518
 5951TIP3    H217860   5.852   1.761   3.464  0.2524  0.5634  0.1078
 5952TIP3   OH217861   0.748   4.236   2.035  0.0914 -0.0169 -0.2941
 5952TIP3    H117862   0.669   4.201   1.996  0.2662 -1.0676  0.2656
 5952TIP3    H217863   0.720   4.319   2.075 -0.5714 -0.0513 -0.6762
 5953TIP3   OH217864   3.178   4.908   3.390  0.0129 -0.0118 -0.0259
 5953TIP3    H117865   3.094   4.885   3.430 -0.2576 -1.0323 -1.1263
 5953TIP3    H217866   3.205   4.988   3.435 -1.5907  0.3831  0.2832
 5954TIP3   OH217867   2.431   1.955   2.724 -0.6504 -0.6369 -0.0271
 5954TIP3    H117868   2.442   1.917   2.637 -1.1857 -0.0261 -0.3782
 5954TIP3    H217869   2.354   1.912   2.760 -2.3570  1.2736 -1.1371
 5955TIP3   OH217870   3.856   4.653   2.511 -0.1142  0.2565 -0.1991
 5955TIP3    H117871   3.769   4.646   2.473  0.3159 -0.8934 -1.0011
 5955TIP3    H217872   3.842   4.700   2.594 -1.8703 -1.9628  0.8713
 5956TIP3   OH217873   6.143   2.524   3.565 -0.0901 -0.1806  0.1348
 5956TIP3    H117874   6.048   2.525   3.575 -0.1835  0.7051 -0.6517
 5956TIP3    H217875   6.165   2.613   3.536  1.1146 -0.0084  1.4660
 5957TIP3   OH217876   4.104   3.182   1.091  0.1599 -0.2380  0.4652
 5957TIP3    H117877   4.154   3.261   1.074  1.3621 -0.9562  0.5266
 5957TIP3    H217878   4.128   3.123   1.019 -1.1555 -0.3548  0.0982
 5958TIP3   OH217879   2.603   1.588   3.079 -0.0027 -0.5192  0.2301
 5958TIP3    H117880   2.552   1.654   3.126 -0.5141 -0.1905 -0.7732
 5958TIP3    H217881   2.691   1.625   3.075 -0.4977  0.6065 -1.2094
 5959TIP3   OH217882   5.885   3.836   1.892  0.1348  0.1477 -0.0045
 5959TIP3    H117883   5.874   3.926   1.861 -0.1508  0.0003 -0.3393
 5959TIP3    H217884   5.956   3.800   1.839  0.1679  0.1364  0.0467
 5960TIP3   OH217885   5.300   4.339   3.428 -0.1221 -0.4936 -0.2324
 5960TIP3    H117886   5.373   4.341   3.490 -0.9440  0.8003  0.7620
 5960TIP3    H217887   5.340   4.316   3.344  1.9051  2.5442 -0.2625
 5961TIP3   OH217888   0.692   0.142   2.360  0.6026 -1.0182 -0.4705
 5961TIP3    H117889   0.742   0.061   2.349  0.2907 -1.1060 -1.2880
 5961TIP3    H217890   0.698   0.160   2.454  1.0930 -1.7169 -0.3532
 5962TIP3   OH217891   4.958   1.254   2.905  0.2909 -0.5199  0.1883
 5962TIP3    H117892   4.970   1.163   2.932 -0.8810 -0.2152  1.8436
 5962TIP3    H217893   4.876   1.254   2.856  0.9389 -0.5520 -0.9313
 5963TIP3   OH217894   4.614   4.400   4.461  0.3148  0.6790  0.2927
 5963TIP3    H117895   4.540   4.347   4.429  0.2601  1.3697 -0.7878
 5963TIP3    H217896   4.600   4.406   4.555 -2.0859  2.3341 -0.0649
 5964TIP3   OH217897   1.355   2.715   3.846 -0.0706 -0.2984  0.3667
 5964TIP3    H117898   1.293   2.653   3.885 -0.1235 -0.6449 -0.2454
 5964TIP3    H217899   1.405   2.748   3.920 -0.6941 -0.3433  0.8193
 5965TIP3   OH217900   4.951   4.245   2.897  0.5357 -0.2890  0.7765
 5965TIP3    H117901   4.960   4.321   2.954  1.1029 -0.8968  1.5255
 5965TIP3    H217902   5.040   4.223   2.870  0.2372  0.3576 -0.8830
 5966TIP3   OH217903   1.013   5.129   1.496 -0.0419  0.0802  0.0761
 5966TIP3    H117904   0.998   5.138   1.590  0.5016 -0.5215  0.2244
 5966TIP3    H217905   0.964   5.051   1.471  1.6265 -1.1047  0.3102
 5967TIP3   OH217906   0.408   2.657   2.542  0.1732  0.7654  0.2119
 5967TIP3    H117907   0.437   2.576   2.501 -1.3694  0.5835 -0.5809
 5967TIP3    H217908   0.467   2.669   2.616  0.8812 -0.6901 -0.0850
 5968TIP3   OH217909   1.483   0.341   3.144 -0.0459  0.0537  0.5379
 5968TIP3    H117910   1.511   0.287   3.071  0.5487  0.5809  0.3570
 5968TIP3    H217911   1.439   0.281   3.204  0.2283 -0.5397  0.1501
 5969TIP3   OH217912   3.531   5.073   1.019 -0.2418  0.2343  0.1031
 5969TIP3    H117913   3.576   5.157   1.012 -1.5418  1.0386  1.0886
 5969TIP3    H217914   3.488   5.062   0.935  0.2178  0.3682 -0.1576
 5970TIP3   OH217915   1.272   1.536   4.497 -0.1709  0.3493  0.3598
 5970TIP3    H117916   1.365   1.529   4.478 -0.1101  2.1730 -0.2042
 5970TIP3    H217917   1.263   1.620   4.542 -1.7241  0.8926 -0.8864
 5971TIP3   OH217918   4.087   1.333   5.011 -0.1449  0.1889  0.1514
 5971TIP3    H117919   4.164   1.277   4.999  2.2446  3.3549 -0.7757
 5971TIP3    H217920   4.032   1.315   4.935  0.3188 -1.1402  0.1007
 5972TIP3   OH217921   2.592   1.357   3.284  0.5538 -0.2401  0.3523
 5972TIP3    H117922   2.549   1.308   3.214 -1.0097 -0.2807  1.2938
 5972TIP3    H217923   2.683   1.365   3.255  0.1767 -1.1147 -1.2008
 5973TIP3   OH217924   5.369   0.378   2.953 -0.3555  0.3896 -0.7835
 5973TIP3    H117925   5.376   0.331   3.036 -1.6261 -0.3615 -1.0824
 5973TIP3    H217926   5.456   0.414   2.939  0.6910 -1.8563 -0.5225
 5974TIP3   OH217927   0.152   1.686   2.429 -0.0402 -0.2385 -0.2082
 5974TIP3    H117928   0.137   1.669   2.336  0.8240  2.9183 -1.0409
 5974TIP3    H217929   0.072   1.729   2.459  0.4954  0.6733 -0.0615
 5975TIP3   OH217930   1.625   3.539   1.734  0.5749 -0.2086 -0.2110
 5975TIP3    H117931   1.673   3.483   1.673  0.9641  0.0813 -0.1748
 5975TIP3    H217932   1.574   3.598   1.678  0.9883  0.1058 -0.2551
 5976TIP3   OH217933   1.735   4.935   3.791  0.2572  0.0801 -0.6438
 5976TIP3    H117934   1.696   4.847   3.795 -0.9225  0.5944 -0.1861
 5976TIP3    H217935   1.775   4.940   3.705 -0.0987 -0.7285 -0.8683
 5977TIP3   OH217936   2.847   2.483   0.261  0.3739  0.0492  0.1519
 5977TIP3    H117937   2.769   2.512   0.310 -0.7691 -1.7429 -0.5059
 5977TIP3    H217938   2.905   2.447   0.328  0.7391  1.4905  0.6625
 5978TIP3   OH217939   0.644   5.338   3.842 -1.3721 -0.0031 -0.7525
 5978TIP3    H117940   0.591   5.416   3.854 -1.1782 -0.0550  0.6451
 5978TIP3    H217941   0.724   5.356   3.891  0.6524  0.7105 -4.0342
 5979TIP3   OH217942   2.095   5.271   4.074  0.3781 -0.0151 -0.2924
 5979TIP3    H117943   2.031   5.250   4.006 -1.3695 -2.0502  1.8248
 5979TIP3    H217944   2.177   5.284   4.026 -0.5670 -2.2006 -2.7453
 5980TIP3   OH217945   6.213   0.212   2.979 -0.6551 -0.1761 -0.4440
 5980TIP3    H117946   6.306   0.186   2.977 -0.7148 -0.4282 -0.0974
 5980TIP3    H217947   6.203   0.270   2.904 -0.6286 -1.5515 -1.5601
 5981TIP3   OH217948   5.361   4.885   4.954 -0.3242 -0.0387 -0.2308
 5981TIP3    H117949   5.380   4.792   4.938 -1.8705 -0.0750 -2.2962
 5981TIP3    H217950   5.447   4.926   4.962  0.5484 -1.0906 -3.0393
 5982TIP3   OH217951   2.251   3.918   1.949  0.0790  0.7233 -0.0291
 5982TIP3    H117952   2.312   3.845   1.938 -0.0569  0.7981 -1.3857
 5982TIP3    H217953   2.216   3.934   1.862 -2.7828 -0.0540  0.8706
 5983TIP3   OH217954   3.602   1.952   4.337 -0.2944 -0.3822 -0.0583
 5983TIP3    H117955   3.579   1.868   4.376 -1.2120  0.0296  0.3058
 5983TIP3    H217956   3.669   1.988   4.395 -1.6056  0.2017  1.1383
 5984TIP3   OH217957   4.390   1.176   0.534  0.4329  0.2411  0.4854
 5984TIP3    H117958   4.390   1.098   0.589  2.5918  0.0644  0.3226
 5984TIP3    H217959   4.358   1.146   0.449 -2.3517  0.3901  1.3852
 5985TIP3   OH217960   6.126   4.510   0.173 -0.0490  0.5285  0.4705
 5985TIP3    H117961   6.119   4.417   0.195 -0.2776  0.4138 -0.0628
 5985TIP3    H217962   6.043   4.531   0.130  0.2286  0.8404  0.0803
 5986TIP3   OH217963   1.790   3.877   1.901  0.8480 -0.2798  0.3450
 5986TIP3    H117964   1.709   3.877   1.849  1.0559 -3.8720 -0.2384
 5986TIP3    H217965   1.761   3.883   1.992  0.0977  0.3925  0.0744
 5987TIP3   OH217966   0.540   2.704   2.766 -0.2629  0.1277  0.9873
 5987TIP3    H117967   0.615   2.763   2.757 -0.1438 -0.1700 -0.0693
 5987TIP3    H217968   0.552   2.663   2.852  1.1426 -0.3998  0.5623
 5988TIP3   OH217969   3.626   5.333   1.015 -0.1218 -0.0544  0.0026
 5988TIP3    H117970   3.707   5.365   1.055  0.6272 -0.2423 -1.2984
 5988TIP3    H217971   3.570   5.411   1.009  0.1959  0.2059  0.3635
 5989TIP3   OH217972   4.461   1.026   4.847 -0.0357 -0.2304 -0.9303
 5989TIP3    H117973   4.431   1.001   4.759  1.5438 -0.4246 -1.4417
 5989TIP3    H217974   4.450   0.947   4.900 -3.0593  0.4759 -0.3235
 5990TIP3   OH217975   5.131   2.520   3.550 -0.5375 -0.3524 -0.3538
 5990TIP3    H117976   5.165   2.602   3.587 -0.6444 -0.0353 -0.9534
 5990TIP3    H217977   5.203   2.487   3.496 -0.2853 -0.9497  0.3328
 5991TIP3   OH217978   5.969   4.425   0.774 -0.0332  0.1060 -0.4259
 5991TIP3    H117979   6.037   4.469   0.722 -0.3510  0.2189 -0.7494
 5991TIP3    H217980   5.924   4.369   0.711 -1.3751  1.3337 -0.5917
 5992TIP3   OH217981   1.154   4.858   2.425 -0.3821 -0.1539 -0.3781
 5992TIP3    H117982   1.108   4.846   2.508  0.9549  0.5175  0.4978
 5992TIP3    H217983   1.204   4.939   2.437 -0.8605  0.4515 -2.1861
 5993TIP3   OH217984   4.072   2.044   4.608 -0.2837  0.5566 -0.1974
 5993TIP3    H117985   4.154   2.004   4.577 -1.9186 -4.0867  0.5610
 5993TIP3    H217986   4.087   2.059   4.701 -0.8070 -2.3979  0.4607
 5994TIP3   OH217987   2.502   0.409   4.700  0.3101 -0.0658  0.1216
 5994TIP3    H117988   2.480   0.323   4.666 -1.8827  0.1038  0.9788
 5994TIP3    H217989   2.594   0.422   4.674  0.7281 -2.6501  0.0284
 5995TIP3   OH217990   3.901   2.645   2.958 -0.1121  0.0950 -0.1051
 5995TIP3    H117991   3.847   2.720   2.983 -1.1248 -0.9828  1.0841
 5995TIP3    H217992   3.840   2.573   2.950  0.8236 -0.5996 -1.3962
 5996TIP3   OH217993   1.000   2.857   0.345  0.0514  0.2144 -0.4723
 5996TIP3    H117994   1.029   2.767   0.361 -0.2726  0.0459 -0.8247
 5996TIP3    H217995   0.940   2.876   0.418 -0.9530 -0.3454 -1.1261
 5997TIP3   OH217996   2.654   1.153   3.461  0.0055  0.3970 -0.6450
 5997TIP3    H117997   2.613   1.239   3.453 -0.0902  0.2785 -1.4570
 5997TIP3    H217998   2.581   1.094   3.477  0.2644  0.7600  2.4784
 5998TIP3   OH217999   3.794   0.498   2.054  0.3366  0.6421 -0.6038
 5998TIP3    H118000   3.737   0.548   2.113  1.8515  1.3568  0.3073
 5998TIP3    H218001   3.870   0.555   2.040  0.7949 -0.2394 -1.8697
 5999TIP3   OH218002   5.255   0.106   4.830 -0.5985  0.2690 -0.3913
 5999TIP3    H118003   5.271   0.089   4.737  0.7371  0.8305 -0.2821
 5999TIP3    H218004   5.340   0.132   4.865 -0.9768 -0.4049  1.1064
 6000TIP3   OH218005   1.090   2.918   1.765  0.4193 -0.0415 -0.4415
 6000TIP3    H118006   1.027   2.954   1.828 -0.2181 -2.6406  0.5701
 6000TIP3    H218007   1.175   2.954   1.793 -0.3290  1.8461 -0.5045
 6001TIP3   OH218008   0.815   5.460   4.424  0.1845 -0.1711  0.1633
 6001TIP3    H118009   0.900   5.492   4.393  0.0089 -0.4182 -0.5682
 6001TIP3    H218010   0.771   5.426   4.347 -0.7982  0.4163  0.4334
 6002TIP3   OH218011   2.585   2.170   4.651 -0.4761 -0.1796  0.2302
 6002TIP3    H118012   2.581   2.116   4.572 -3.1289 -0.1069  0.2494
 6002TIP3    H218013   2.609   2.257   4.619 -0.4464 -0.3956 -0.3501
 6003TIP3   OH218014   4.482   3.593   0.227  0.4883  0.0382  0.2366
 6003TIP3    H118015   4.515   3.570   0.313 -0.0871 -0.4485  0.3283
 6003TIP3    H218016   4.397   3.549   0.220 -0.1268  1.2289 -0.0168
 6004TIP3   OH218017   5.700   4.373   2.799 -0.2674 -0.4646  0.1112
 6004TIP3    H118018   5.749   4.443   2.843  1.0109 -0.6589 -0.9490
 6004TIP3    H218019   5.752   4.352   2.722 -0.8488 -2.2924  0.1631
 6005TIP3   OH218020   3.037   4.967   0.496  0.1219 -0.3654 -0.2621
 6005TIP3    H118021   3.108   4.939   0.553  0.8873 -0.7647 -1.3824
 6005TIP3    H218022   2.982   5.022   0.551  1.9278  0.9376  0.3429
 6006TIP3   OH218023   0.037   0.158   2.687  0.1871  0.1130 -0.5145
 6006TIP3    H118024   0.058   0.243   2.647  2.2830 -1.0743 -2.2149
 6006TIP3    H218025   0.021   0.100   2.612  1.7221 -1.6301  0.4181
 6007TIP3   OH218026   3.357   0.317   4.090 -0.3620  0.4376  0.3052
 6007TIP3    H118027   3.275   0.318   4.040 -0.6241 -1.1678  0.6283
 6007TIP3    H218028   3.373   0.408   4.112 -1.3855  0.9347 -0.8588
 6008TIP3   OH218029   3.003   4.521   5.066 -0.4396  0.3893  0.6115
 6008TIP3    H118030   2.997   4.533   5.161 -0.5074  0.0975  0.6465
 6008TIP3    H218031   3.092   4.489   5.052  0.1471  2.0619  0.3895
 6009TIP3   OH218032   2.560   1.122   0.464  0.0587  0.4122  0.0585
 6009TIP3    H118033   2.529   1.199   0.512 -0.7217  0.0751  0.1213
 6009TIP3    H218034   2.645   1.102   0.502 -0.5482  0.1375  1.3358
 6010TIP3   OH218035   3.186   5.137   3.537  0.0266 -0.8179  0.0787
 6010TIP3    H118036   3.139   5.110   3.616  1.4884 -1.2343  0.8467
 6010TIP3    H218037   3.164   5.230   3.526  1.2674 -0.2046  2.1214
 6011TIP3   OH218038   1.869   3.624   3.338  0.0322  0.0138  0.7332
 6011TIP3    H118039   1.949   3.572   3.341 -0.4996 -0.7864  1.5890
 6011TIP3    H218040   1.891   3.699   3.283  0.5858 -1.5037 -1.2349
 6012TIP3   OH218041   3.681   1.972   0.242  0.4201  0.1204 -0.0820
 6012TIP3    H118042   3.737   2.050   0.240  2.3248 -1.1834 -0.3809
 6012TIP3    H218043   3.721   1.915   0.308  0.7304 -1.7118 -1.7349
 6013TIP3   OH218044   3.530   5.596   2.270 -0.3193  0.2128 -0.6992
 6013TIP3    H118045   3.529   5.684   2.233 -1.2301  1.1711  1.4786
 6013TIP3    H218046   3.439   5.578   2.292  0.2758  0.2166  2.1007
 6014TIP3   OH218047   0.392   1.802   0.967 -0.1128  0.7080  0.1690
 6014TIP3    H118048   0.373   1.860   0.894 -1.3092 -0.0701 -0.1840
 6014TIP3    H218049   0.414   1.718   0.926  1.7778  0.9149  0.6586
 6015TIP3   OH218050   0.030   5.935   0.067 -0.0833  0.2013  0.0191
 6015TIP3    H118051   0.084   5.873   0.115  1.2368  1.1442 -0.1749
 6015TIP3    H218052   0.056   6.021   0.100 -1.5096  0.6942 -0.0656
 6016TIP3   OH218053   0.508   3.015   3.080  0.2617  0.6189  0.3166
 6016TIP3    H118054   0.595   2.986   3.106  0.3591  0.9224  0.3301
 6016TIP3    H218055   0.473   3.057   3.158 -0.8914 -1.7032  1.1596
 6017TIP3   OH218056   1.352   1.023   0.559 -0.6906 -0.2945 -0.7823
 6017TIP3    H118057   1.267   1.050   0.526 -1.3506 -1.6662 -0.2911
 6017TIP3    H218058   1.366   1.076   0.637 -0.4697  0.8733 -1.5958
 6018TIP3   OH218059  -0.012   2.222   4.058 -0.3013 -0.2438  0.0042
 6018TIP3    H118060  -0.023   2.188   4.147  0.1318  0.0032  0.1597
 6018TIP3    H218061   0.044   2.157   4.014  2.6675  1.3843  1.0525
 6019TIP3   OH218062   5.178   1.578   2.784  0.0759  0.3343  0.7063
 6019TIP3    H118063   5.093   1.607   2.751  1.4640  1.3437 -2.3338
 6019TIP3    H218064   5.184   1.486   2.757 -0.2235  0.0977  1.4087
 6020TIP3   OH218065   2.834   4.112   3.196  0.1765  0.3360 -0.0585
 6020TIP3    H118066   2.756   4.087   3.246  1.1536 -2.0483  0.4033
 6020TIP3    H218067   2.819   4.075   3.109 -0.0098  1.5269 -0.5527
 6021TIP3   OH218068   1.893   3.822   4.745 -0.1804 -0.5237 -0.3511
 6021TIP3    H118069   1.982   3.785   4.742 -0.3811 -0.9870 -1.1213
 6021TIP3    H218070   1.881   3.859   4.657 -1.1519 -1.4659 -0.6294
 6022TIP3   OH218071   5.387   2.008   3.507 -0.4065 -0.0644  0.1021
 6022TIP3    H118072   5.470   1.972   3.476 -0.9915 -1.4902  0.1044
 6022TIP3    H218073   5.395   2.008   3.602 -0.8400 -1.3233  0.1487
 6023TIP3   OH218074   2.641   5.104   3.887  0.2159 -0.6881  0.0058
 6023TIP3    H118075   2.666   5.190   3.920  0.6914 -1.1156  0.7821
 6023TIP3    H218076   2.579   5.070   3.952  0.2738 -1.0647 -0.1309
 6024TIP3   OH218077   2.804   3.419   2.501 -0.1847 -0.0094  0.0120
 6024TIP3    H118078   2.836   3.380   2.419 -0.1990 -1.7153  0.7860
 6024TIP3    H218079   2.883   3.435   2.552 -0.3339 -1.5007  0.7462
 6025TIP3   OH218080   0.403   1.464   5.083  0.2017  0.0142  0.4937
 6025TIP3    H118081   0.368   1.375   5.078  0.2149  0.0266  0.1972
 6025TIP3    H218082   0.379   1.505   5.000 -0.4051  0.5117  0.9077
 6026TIP3   OH218083   2.160   5.420   0.464 -1.1061 -0.2397 -0.3180
 6026TIP3    H118084   2.234   5.369   0.431  0.0778  0.6814  0.7987
 6026TIP3    H218085   2.125   5.466   0.387 -0.5762 -0.7478 -0.8666
 6027TIP3   OH218086   3.023   4.248   1.485  0.1317  0.6748 -0.4360
 6027TIP3    H118087   3.012   4.298   1.404  1.7471  1.8640  0.0337
 6027TIP3    H218088   3.116   4.229   1.489 -0.2708 -1.4029  0.0110
 6028TIP3   OH218089   4.713   1.386   3.808  0.0951  0.5020 -0.3301
 6028TIP3    H118090   4.737   1.334   3.731  0.1587 -0.3475  0.2490
 6028TIP3    H218091   4.627   1.353   3.834 -0.6426  1.8607 -0.9395
 6029TIP3   OH218092   3.971   0.988   4.972  0.4689  0.2594 -0.8217
 6029TIP3    H118093   4.005   0.963   4.886 -0.5706  0.5009 -1.3231
 6029TIP3    H218094   3.884   1.024   4.954  0.8870  1.8793  0.1466
 6030TIP3   OH218095   5.410   2.817   3.416 -0.0367  0.5559 -0.0230
 6030TIP3    H118096   5.410   2.756   3.342 -3.0263  2.0709 -1.4532
 6030TIP3    H218097   5.502   2.840   3.428  0.9836 -2.5990 -0.7186
 6031TIP3   OH218098   4.788   1.937   3.521 -0.7969 -0.1903 -0.0377
 6031TIP3    H118099   4.697   1.921   3.547 -0.4179 -0.3794  1.2066
 6031TIP3    H218100   4.820   2.001   3.584 -0.7553  1.7668 -1.9063
 6032TIP3   OH218101   3.387   5.936   4.892 -0.0400  0.4193 -0.3931
 6032TIP3    H118102   3.465   5.893   4.927 -0.1145  0.0760 -0.6306
 6032TIP3    H218103   3.412   6.028   4.884  0.5052  0.2403 -0.8991
 6033TIP3   OH218104   4.218   0.822   4.374  0.2965 -0.2250 -0.0255
 6033TIP3    H118105   4.126   0.808   4.395  0.4475 -1.7410 -0.2535
 6033TIP3    H218106   4.225   0.799   4.282  0.6920  1.0760 -0.3445
 6034TIP3   OH218107   5.069   4.506   2.526 -0.3158 -0.3129 -0.2913
 6034TIP3    H118108   5.004   4.576   2.520  0.0791  0.3563  2.2361
 6034TIP3    H218109   5.019   4.426   2.519 -1.6105  0.1744  2.2724
 6035TIP3   OH218110   6.321   0.956   0.675 -0.2975 -0.0011  0.3178
 6035TIP3    H118111   6.325   0.945   0.770  0.2025  1.3983  0.4830
 6035TIP3    H218112   6.234   0.994   0.659  0.5092  2.0939  0.5309
 6036TIP3   OH218113   3.994   4.722   2.184  0.3039  0.7035  0.1950
 6036TIP3    H118114   3.962   4.682   2.103  1.0430  1.2458 -0.3772
 6036TIP3    H218115   4.023   4.648   2.237  0.2005  0.3692 -0.2051
 6037TIP3   OH218116   4.043   2.904   3.823  0.2401 -0.2611 -0.2044
 6037TIP3    H118117   3.952   2.903   3.854  0.8886 -0.3688  1.8388
 6037TIP3    H218118   4.063   2.997   3.812 -0.4551 -0.2617 -1.9170
 6038TIP3   OH218119   6.276   3.238   2.290 -0.3843 -0.0496 -0.8710
 6038TIP3    H118120   6.278   3.151   2.331 -0.9463  0.0914 -0.5293
 6038TIP3    H218121   6.190   3.274   2.314  0.7564  1.5830  1.0340
 6039TIP3   OH218122   5.204   2.968   4.866  0.6009  0.1895 -0.0681
 6039TIP3    H118123   5.251   3.029   4.923 -0.3419  0.4516  0.4616
 6039TIP3    H218124   5.114   3.002   4.864  0.2297 -0.7754 -0.3446
 6040TIP3   OH218125   4.085   3.714   5.024  0.5177 -0.2019 -0.0955
 6040TIP3    H118126   4.056   3.789   5.076 -0.3744  0.2949 -1.2467
 6040TIP3    H218127   4.006   3.687   4.976  0.9807 -1.5023 -0.1561
 6041TIP3   OH218128   5.628   0.193   2.687  0.2985 -0.2821 -0.1567
 6041TIP3    H118129   5.577   0.273   2.676 -0.8491 -1.0229 -0.3224
 6041TIP3    H218130   5.661   0.174   2.599 -1.2452 -1.1653 -0.5748
 6042TIP3   OH218131   1.533   6.011   4.691  0.1356 -0.0875 -0.3967
 6042TIP3    H118132   1.591   6.004   4.615  0.3421 -1.0985 -0.1605
 6042TIP3    H218133   1.565   5.945   4.752  0.3660  1.1396  0.8610
 6043TIP3   OH218134   1.280   5.029   4.334 -0.0222 -0.2721 -0.2204
 6043TIP3    H118135   1.321   5.017   4.249  3.2509  2.0118  0.8598
 6043TIP3    H218136   1.290   4.944   4.377  0.1054 -0.8657 -1.3837
 6044TIP3   OH218137   4.996   2.518   0.319 -0.2141 -0.2442  0.1036
 6044TIP3    H118138   4.958   2.430   0.322 -0.7390 -0.0479 -0.4390
 6044TIP3    H218139   4.920   2.576   0.311  0.1813  0.1632 -0.9439
 6045TIP3   OH218140   5.910   4.015   0.597 -0.5476  0.1688 -0.3901
 6045TIP3    H118141   5.959   3.997   0.516 -0.9982 -0.2183 -0.5868
 6045TIP3    H218142   5.836   3.953   0.594  0.7009 -1.5195  1.4580
 6046TIP3   OH218143   3.087   4.267   0.224 -0.1358  0.7916  0.2696
 6046TIP3    H118144   3.039   4.346   0.200  1.1092  1.2095 -0.9822
 6046TIP3    H218145   3.064   4.204   0.156 -1.2474 -0.0016  1.3483
 6047TIP3   OH218146   1.381   2.997   4.447  0.1007 -0.0731  0.2815
 6047TIP3    H118147   1.339   2.943   4.514  1.6767 -1.1293  0.4531
 6047TIP3    H218148   1.446   3.048   4.494  2.4458 -2.0857 -0.5949
 6048TIP3   OH218149   4.604   2.013   1.719 -0.7578  0.4750 -0.1523
 6048TIP3    H118150   4.610   1.994   1.812  0.6223 -0.0207 -0.3291
 6048TIP3    H218151   4.644   2.100   1.710 -1.2988  0.7194 -0.2264
 6049TIP3   OH218152   2.722   3.725   0.676  0.0470  0.1704  0.1142
 6049TIP3    H118153   2.806   3.757   0.709  0.3379 -0.5208  0.0475
 6049TIP3    H218154   2.732   3.630   0.673 -0.3593  0.1496 -0.9176
 6050TIP3   OH218155   5.391   3.276   2.886  0.1601  0.5846  0.8145
 6050TIP3    H118156   5.444   3.236   2.956 -0.8754 -3.2244 -0.3610
 6050TIP3    H218157   5.302   3.272   2.919  0.0602  2.8230  0.9488
 6051TIP3   OH218158   0.169   0.148   4.193 -0.2200 -0.1566 -0.1855
 6051TIP3    H118159   0.174   0.102   4.110  1.8519 -0.1917 -0.0988
 6051TIP3    H218160   0.193   0.081   4.258  0.3950  0.4154  0.1845
 6052TIP3   OH218161   3.532   4.217   1.566 -0.2681  0.5815 -0.0581
 6052TIP3    H118162   3.545   4.126   1.593 -0.4741  0.1865 -1.2058
 6052TIP3    H218163   3.589   4.227   1.489  1.0928  1.9493  1.0422
 6053TIP3   OH218164   6.282   4.191   0.793 -0.3279  0.4012 -0.0817
 6053TIP3    H118165   6.269   4.165   0.702  0.0331  1.7503 -0.5468
 6053TIP3    H218166   6.327   4.117   0.834  0.6428  0.2883 -1.3196
 6054TIP3   OH218167   4.093   3.756   1.573 -0.1117 -0.7611 -0.0558
 6054TIP3    H118168   4.018   3.703   1.601 -1.0147  0.0719 -0.8594
 6054TIP3    H218169   4.073   3.844   1.604 -1.2536  0.2568 -3.3366
 6055TIP3   OH218170   1.246   4.421   3.201 -0.1885  0.0379 -0.4424
 6055TIP3    H118171   1.181   4.474   3.246  0.0564 -0.2340  0.2427
 6055TIP3    H218172   1.325   4.430   3.254 -0.4290 -1.9133  0.3346
 6056TIP3   OH218173   2.168   5.056   1.820  0.0638 -0.1996 -0.1048
 6056TIP3    H118174   2.148   5.094   1.734 -0.1021 -0.7983 -0.3311
 6056TIP3    H218175   2.086   5.062   1.869  0.1208  0.0123 -0.0325
 6057TIP3   OH218176   3.245   2.919   3.304 -0.3496  0.0567  0.7298
 6057TIP3    H118177   3.244   2.944   3.212  2.5666  0.1536  0.6496
 6057TIP3    H218178   3.172   2.969   3.343 -0.9242  0.8879 -1.2852
 6058TIP3   OH218179   4.917   5.040   3.578  0.0496  0.5914 -0.1228
 6058TIP3    H118180   4.895   4.951   3.603  1.0131  0.3419 -0.1286
 6058TIP3    H218181   4.851   5.094   3.621 -0.6843 -0.1330 -0.3108
 6059TIP3   OH218182   0.587   1.871   2.550 -0.3063 -0.0539  0.0803
 6059TIP3    H118183   0.618   1.919   2.473  1.5406 -3.0950 -1.2883
 6059TIP3    H218184   0.492   1.875   2.544 -0.2053  0.4455 -1.9858
 6060TIP3   OH218185   2.303   4.408   3.589  0.2978  0.5650 -0.0727
 6060TIP3    H118186   2.232   4.445   3.642  0.2186 -0.0652  0.2764
 6060TIP3    H218187   2.260   4.341   3.535  0.8066 -0.7073  1.0495
 6061TIP3   OH218188   3.550   5.401   1.766 -0.0010 -0.9420  0.0473
 6061TIP3    H118189   3.596   5.320   1.743 -1.0269 -0.8454 -2.7090
 6061TIP3    H218190   3.458   5.382   1.747 -0.3741  0.5689  0.2354
 6062TIP3   OH218191   3.380   3.949   3.713  0.0487 -0.3630  0.0028
 6062TIP3    H118192   3.465   3.977   3.745  0.8250 -0.4227 -1.8664
 6062TIP3    H218193   3.320   4.019   3.740  0.6841 -0.2872  1.2738
 6063TIP3   OH218194   0.328   0.906   4.741  0.4908  0.0329  0.3212
 6063TIP3    H118195   0.395   0.858   4.788 -0.6186 -1.0136  0.8882
 6063TIP3    H218196   0.263   0.840   4.717  0.5312  0.6887 -1.8400
 6064TIP3   OH218197   2.106   3.095   1.008  0.0061  0.9259  0.0764
 6064TIP3    H118198   2.168   3.152   0.963 -0.1695  2.2026  1.3600
 6064TIP3    H218199   2.145   3.008   1.004  0.9481  1.3687 -0.7691
 6065TIP3   OH218200   4.124   5.725   0.480 -0.2166  0.5398  0.0681
 6065TIP3    H118201   4.198   5.735   0.419 -0.3130  1.9117  0.1452
 6065TIP3    H218202   4.161   5.680   0.556  0.2172  0.0336 -0.4289
 6066TIP3   OH218203   5.467   5.017   0.808  0.1670 -0.0446  0.2095
 6066TIP3    H118204   5.520   5.092   0.781 -0.2108  0.6445  1.3188
 6066TIP3    H218205   5.468   4.958   0.733  0.9449  0.8141 -0.4674
 6067TIP3   OH218206   1.273   4.324   2.495 -0.0399 -0.1428  0.0055
 6067TIP3    H118207   1.233   4.402   2.532 -1.8365 -1.6167  1.3777
 6067TIP3    H218208   1.232   4.315   2.408 -0.0185  0.2977 -0.0504
 6068TIP3   OH218209   1.917   4.715   0.824 -0.4933 -0.0306  0.4417
 6068TIP3    H118210   1.868   4.636   0.844  1.4396 -0.9765  1.6267
 6068TIP3    H218211   1.911   4.768   0.903 -1.1560  0.7113 -0.0849
 6069TIP3   OH218212   4.992   5.947   1.606 -0.7040 -0.3893  0.1993
 6069TIP3    H118213   4.910   5.937   1.558  0.1666 -0.7599 -1.2861
 6069TIP3    H218214   5.058   5.910   1.547  0.7244  1.1819  0.7458
 6070TIP3   OH218215   2.368   3.106   4.171  0.5721 -0.5056 -0.9030
 6070TIP3    H118216   2.370   3.025   4.120 -1.0912 -0.8731 -0.4427
 6070TIP3    H218217   2.309   3.163   4.122 -0.0383 -0.4047 -0.0617
 6071TIP3   OH218218   4.018   0.824   0.448  0.2627 -0.1652  0.0001
 6071TIP3    H118219   3.995   0.917   0.440 -0.8026 -0.4066  0.1030
 6071TIP3    H218220   4.043   0.798   0.359  0.0278  0.0832 -0.1393
 6072TIP3   OH218221   0.809   4.141   4.423 -0.1448  0.9084 -0.6678
 6072TIP3    H118222   0.762   4.214   4.384  1.7701  2.4294 -0.2660
 6072TIP3    H218223   0.866   4.181   4.488 -0.4083 -1.1667  0.9521
 6073TIP3   OH218224   0.420   3.106   2.828 -0.7522  0.1430 -0.4526
 6073TIP3    H118225   0.458   3.194   2.829 -2.2299  0.8069 -0.8448
 6073TIP3    H218226   0.454   3.064   2.907 -0.5662  1.3061  0.0933
 6074TIP3   OH218227   4.759   5.075   1.022  0.4784 -0.0259  0.6526
 6074TIP3    H118228   4.700   5.005   0.992  0.2082  0.3114  0.3960
 6074TIP3    H218229   4.733   5.091   1.113 -0.9870  1.2944  0.0551
 6075TIP3   OH218230   2.193   5.358   2.619 -0.1498 -0.4441  0.9154
 6075TIP3    H118231   2.244   5.374   2.698  2.8130  1.8281 -1.2604
 6075TIP3    H218232   2.254   5.319   2.557 -0.8556  2.4207 -1.8504
 6076TIP3   OH218233   0.923   3.790   5.160 -0.0270  0.1697 -0.1735
 6076TIP3    H118234   0.911   3.772   5.254  0.6730  2.0143  0.3115
 6076TIP3    H218235   0.873   3.871   5.145 -0.2433 -0.1766 -1.4464
 6077TIP3   OH218236   5.316   5.495   4.933  0.3318  0.5124 -0.4399
 6077TIP3    H118237   5.358   5.422   4.888 -1.5081 -0.7867 -0.1281
 6077TIP3    H218238   5.382   5.526   4.995  0.9233 -1.3230 -0.1015
 6078TIP3   OH218239   0.941   1.221   4.941 -0.1763  0.1156  0.1056
 6078TIP3    H118240   0.981   1.226   4.854  0.8191 -1.0538  0.4735
 6078TIP3    H218241   0.956   1.307   4.979 -0.3150  0.5281 -0.7440
 6079TIP3   OH218242   4.341   3.854   2.739 -0.2258 -0.5301 -0.5895
 6079TIP3    H118243   4.274   3.865   2.807  0.2362 -0.8363 -0.0723
 6079TIP3    H218244   4.333   3.763   2.713  1.6690 -1.3287  1.3256
 6080TIP3   OH218245   2.883   3.670   2.805  0.1325  0.0166  0.1550
 6080TIP3    H118246   2.904   3.606   2.873  3.3807  1.4326  0.6642
 6080TIP3    H218247   2.923   3.634   2.726 -0.9411 -0.1382 -0.3306
 6081TIP3   OH218248   4.638   4.292   0.770  0.3044  0.0049  0.0105
 6081TIP3    H118249   4.726   4.258   0.753 -0.5247 -3.3564  1.5219
 6081TIP3    H218250   4.652   4.363   0.834  1.9629  0.2912 -0.6127
 6082TIP3   OH218251   5.134   0.875   0.772 -0.4435 -0.0543  0.2890
 6082TIP3    H118252   5.142   0.826   0.853 -3.9492 -0.9905  0.2248
 6082TIP3    H218253   5.204   0.941   0.776  1.3029 -1.8967  2.6375
 6083TIP3   OH218254   3.681   5.009   2.063 -0.0487 -0.5571 -0.5299
 6083TIP3    H118255   3.743   5.018   2.136  0.5793 -0.6821 -1.0339
 6083TIP3    H218256   3.648   5.097   2.049 -1.6361 -0.8250  1.1318
 6084TIP3   OH218257   0.827   1.622   3.723  0.1372  0.2402  0.3751
 6084TIP3    H118258   0.919   1.616   3.697  0.5469  2.8742  1.0138
 6084TIP3    H218259   0.825   1.590   3.813  0.4809  0.4396  0.4530
 6085TIP3   OH218260   4.418   2.557   2.237  0.0435 -0.7104  0.0620
 6085TIP3    H118261   4.483   2.495   2.205  0.5769  0.3016 -0.8830
 6085TIP3    H218262   4.414   2.625   2.169 -0.7785  0.0968  0.8916
 6086TIP3   OH218263   5.691   0.722   1.032  0.4662  0.1940  0.0035
 6086TIP3    H118264   5.605   0.763   1.038  0.0802 -0.6501  0.4148
 6086TIP3    H218265   5.722   0.720   1.123  0.1275 -1.1361  0.1045
 6087TIP3   OH218266   2.178   3.640   3.023  0.0524 -0.2399 -0.5895
 6087TIP3    H118267   2.208   3.633   2.933  1.5890  0.7627 -0.1918
 6087TIP3    H218268   2.258   3.630   3.076 -0.1467  2.9679  0.5057
 6088TIP3   OH218269   1.923   2.268   3.554 -0.2082  0.1317 -0.1913
 6088TIP3    H118270   1.983   2.339   3.574  0.4882 -0.5314  0.1531
 6088TIP3    H218271   1.962   2.224   3.478 -0.7368  0.2486 -0.5270
 6089TIP3   OH218272   0.170   0.721   3.544  0.2261  0.0854  0.0920
 6089TIP3    H118273   0.184   0.649   3.606 -1.1085  0.7051  1.1781
 6089TIP3    H218274   0.099   0.772   3.583  1.9589  2.7191  0.0243
 6090TIP3   OH218275   4.520   0.268   0.672 -0.3595  0.0953 -0.6864
 6090TIP3    H118276   4.426   0.254   0.685 -0.1873  0.1104  0.7534
 6090TIP3    H218277   4.525   0.334   0.604 -1.4449  1.1556  0.2164
 6091TIP3   OH218278   4.049   5.171   5.170  0.2854 -0.4915 -0.6251
 6091TIP3    H118279   4.035   5.132   5.084 -0.5831 -0.2840 -0.5952
 6091TIP3    H218280   4.012   5.259   5.162  2.2271  0.3618 -0.6983
 6092TIP3   OH218281   1.562   4.173   1.657  0.1390 -0.0476  0.1607
 6092TIP3    H118282   1.622   4.236   1.697 -1.7435  1.2472  1.0465
 6092TIP3    H218283   1.547   4.108   1.726 -0.6760  0.4776  0.4814
 6093TIP3   OH218284   2.346   3.520   1.672 -0.4572  0.3421  0.4365
 6093TIP3    H118285   2.324   3.432   1.705 -0.9126 -0.0016 -0.7385
 6093TIP3    H218286   2.267   3.550   1.628 -0.2395  1.2707  0.6545
 6094TIP3   OH218287   4.311   3.624   3.173 -0.0099  0.1890 -0.0803
 6094TIP3    H118288   4.327   3.618   3.079  1.3198  0.3502  0.1068
 6094TIP3    H218289   4.391   3.587   3.213 -0.3213  0.6176  0.9773
 6095TIP3   OH218290   3.830   2.350   3.388 -0.4487 -0.6267  0.2166
 6095TIP3    H118291   3.878   2.306   3.458  1.1755  1.7573  0.7410
 6095TIP3    H218292   3.808   2.436   3.425 -4.0469 -1.0656 -0.4967
 6096TIP3   OH218293   1.724   4.090   4.407  0.1053 -0.3725 -0.0045
 6096TIP3    H118294   1.744   4.087   4.313 -3.3418  0.6049 -0.9217
 6096TIP3    H218295   1.763   4.172   4.437 -0.1052  0.0937 -0.9702
 6097TIP3   OH218296   2.857   5.970   0.044 -0.4353  0.3854  0.5669
 6097TIP3    H118297   2.871   5.989  -0.049  1.0814 -1.3987  0.3754
 6097TIP3    H218298   2.763   5.977   0.056 -1.0917 -2.3382 -1.8572
 6098TIP3   OH218299   2.057   0.607   1.267 -0.0328 -0.4610 -0.1495
 6098TIP3    H118300   2.062   0.513   1.247 -0.5763 -0.0583 -2.5119
 6098TIP3    H218301   2.050   0.649   1.181  0.8166  1.8021  0.8202
 6099TIP3   OH218302   5.744   2.373   5.124  0.3093  0.8096  0.3270
 6099TIP3    H118303   5.679   2.366   5.194 -0.6763  1.8191 -0.4501
 6099TIP3    H218304   5.820   2.325   5.157 -0.0172  1.4992  2.2080
 6100TIP3   OH218305   1.276   5.446   5.050  0.5780  0.4324  0.1621
 6100TIP3    H118306   1.290   5.538   5.072  2.4514  0.2617 -0.1162
 6100TIP3    H218307   1.275   5.444   4.954 -1.3046  0.3575  0.1351
 6101TIP3   OH218308   3.155   2.154   5.143 -0.4917 -0.3295 -0.1900
 6101TIP3    H118309   3.097   2.226   5.169  0.1164 -0.0980  0.5682
 6101TIP3    H218310   3.096   2.089   5.104 -1.3326 -0.2670  0.9197
 6102TIP3   OH218311   4.617   4.530   0.036 -0.4936 -0.1528  0.6693
 6102TIP3    H118312   4.667   4.544   0.116  0.5667  1.0833 -0.1782
 6102TIP3    H218313   4.682   4.508  -0.030 -1.3609 -1.2028  0.1190
 6103TIP3   OH218314   0.376   4.363   4.599  0.3456 -0.2172 -0.2213
 6103TIP3    H118315   0.354   4.456   4.605  1.2254  0.1238 -1.7543
 6103TIP3    H218316   0.347   4.337   4.512  0.3447 -1.3270  0.0916
 6104TIP3   OH218317   5.219   2.635   4.555 -0.4322 -0.8030 -0.5880
 6104TIP3    H118318   5.231   2.644   4.650  0.1778 -1.3321 -0.6045
 6104TIP3    H218319   5.214   2.724   4.523 -0.1885 -0.6089 -0.1064
 6105TIP3   OH218320   1.912   0.217   1.104  0.1009  0.2276 -0.0565
 6105TIP3    H118321   1.829   0.254   1.133  0.7553  0.3623  1.7804
 6105TIP3    H218322   1.900   0.122   1.111  0.1028  0.2483  0.2451
 6106TIP3   OH218323   4.927   4.979   4.507  0.6827  0.2061  0.3863
 6106TIP3    H118324   4.849   5.028   4.530  0.6161  0.3313 -0.1062
 6106TIP3    H218325   4.954   5.014   4.422 -0.1207 -1.4903 -0.6240
 6107TIP3   OH218326   0.822   3.608   0.871  0.4638 -0.0611  0.3262
 6107TIP3    H118327   0.768   3.604   0.951 -0.3886 -0.8113 -0.2666
 6107TIP3    H218328   0.911   3.593   0.902  0.3728  1.2609  1.3424
 6108TIP3   OH218329   6.084   5.834   2.028 -0.1238 -0.1816 -0.0151
 6108TIP3    H118330   6.004   5.844   2.080  0.1217  2.1735  0.0417
 6108TIP3    H218331   6.146   5.896   2.066  1.0769 -0.5448 -1.2740
 6109TIP3   OH218332   2.059   5.554   4.093  0.1716  0.1782  0.6201
 6109TIP3    H118333   2.033   5.463   4.108 -0.5809  0.5917  1.9268
 6109TIP3    H218334   1.976   5.602   4.088  0.5744  0.8494  0.2533
 6110TIP3   OH218335   2.400   4.070   4.420  0.2989 -0.0234  0.6030
 6110TIP3    H118336   2.414   4.000   4.357  3.1106  0.3706  0.6488
 6110TIP3    H218337   2.334   4.126   4.380 -0.7380 -1.7556 -0.2120
 6111TIP3   OH218338   2.327   0.832   0.868  0.0087  0.2398 -0.3230
 6111TIP3    H118339   2.352   0.925   0.870  1.4434 -0.1115 -0.6567
 6111TIP3    H218340   2.257   0.828   0.803  1.6039  0.7551 -2.1860
 6112TIP3   OH218341   3.132   3.004   1.283 -0.3851 -0.3961 -0.0478
 6112TIP3    H118342   3.114   2.910   1.286 -0.0028 -0.4769 -0.3611
 6112TIP3    H218343   3.086   3.035   1.205  0.1666 -0.4655 -0.4031
 6113TIP3   OH218344   5.168   2.093   1.191 -0.2319  0.0490  1.0826
 6113TIP3    H118345   5.181   2.146   1.113  0.5373 -2.0208 -0.2886
 6113TIP3    H218346   5.079   2.059   1.182 -0.2648  0.0792  1.2934
 6114TIP3   OH218347   4.596   4.647   2.164 -0.1796  0.1943 -0.0028
 6114TIP3    H118348   4.540   4.582   2.121 -1.0248  0.7739  0.1866
 6114TIP3    H218349   4.565   4.649   2.255  0.8788 -0.2493  0.3911
 6115TIP3   OH218350   1.209   4.845   2.095 -0.6544  0.1360  0.1543
 6115TIP3    H118351   1.142   4.897   2.138 -0.5310  0.4559 -0.0373
 6115TIP3    H218352   1.209   4.762   2.142  1.2070  1.3211  2.5041
 6116TIP3   OH218353   4.954   2.820   2.129 -0.2953 -0.0132 -0.6232
 6116TIP3    H118354   4.994   2.883   2.189  0.3147 -0.6428 -0.3497
 6116TIP3    H218355   4.943   2.869   2.047  0.1037  0.4647 -0.3970
 6117TIP3   OH218356   2.283   5.993   0.117 -0.1064 -0.1943 -0.1210
 6117TIP3    H118357   2.270   5.906   0.156  0.0818 -0.1446  0.0542
 6117TIP3    H218358   2.249   6.053   0.183 -1.5581 -0.1961 -0.8288
 6118TIP3   OH218359   3.778   3.464   5.064 -0.0589 -0.1703  0.3318
 6118TIP3    H118360   3.721   3.541   5.069 -0.1064 -0.2489  1.3765
 6118TIP3    H218361   3.773   3.436   4.973 -1.3766  0.0657  0.3052
 6119TIP3   OH218362   1.027   1.658   2.571 -0.4874 -0.5744  0.0124
 6119TIP3    H118363   1.012   1.565   2.582 -0.4380 -0.6005 -0.1330
 6119TIP3    H218364   0.947   1.700   2.603  0.0422 -0.5866  1.4314
 6120TIP3   OH218365   0.974   0.421   0.946 -0.0264  0.2048  0.1393
 6120TIP3    H118366   1.012   0.373   0.872 -1.4962 -1.0679  0.1689
 6120TIP3    H218367   1.021   0.389   1.022  0.4090  0.3534 -0.0617
 6121TIP3   OH218368   2.757   2.102   1.826 -0.2540 -0.2337 -0.3456
 6121TIP3    H118369   2.751   2.189   1.786 -0.5666  1.0449  2.2559
 6121TIP3    H218370   2.809   2.051   1.765  0.1071  1.8373 -1.8818
 6122TIP3   OH218371   5.718   2.453   0.738  0.3274  0.2899 -0.1320
 6122TIP3    H118372   5.656   2.452   0.666  0.7477 -1.6190 -0.5236
 6122TIP3    H218373   5.804   2.455   0.696  0.5854 -1.2563  0.2639
 6123TIP3   OH218374   3.126   0.163   3.432  0.3643  0.9259  0.0012
 6123TIP3    H118375   3.076   0.094   3.388 -1.3278 -0.1934  3.3764
 6123TIP3    H218376   3.072   0.242   3.420  0.6522  0.9849 -1.0496
 6124TIP3   OH218377   1.712   0.492   4.371 -0.4927  0.2115  0.3533
 6124TIP3    H118378   1.672   0.431   4.308 -0.9111 -0.7711  1.5359
 6124TIP3    H218379   1.647   0.501   4.440 -0.7373  2.5839 -0.1057
 6125TIP3   OH218380   1.904   3.535   4.607 -0.2947  0.1836 -0.4931
 6125TIP3    H118381   1.958   3.572   4.676 -0.2235  1.8377 -1.3990
 6125TIP3    H218382   1.835   3.488   4.654  1.1258 -0.8287  0.6678
 6126TIP3   OH218383   5.430   1.688   2.495 -0.2240  0.2928  0.3889
 6126TIP3    H118384   5.477   1.729   2.422 -2.6711  1.9889 -0.3940
 6126TIP3    H218385   5.465   1.731   2.573 -0.0495  1.1018 -0.1159
 6127TIP3   OH218386   2.396   0.501   0.390  0.0205  0.9338  0.0140
 6127TIP3    H118387   2.302   0.513   0.377  0.1284  1.5315 -0.2548
 6127TIP3    H218388   2.420   0.567   0.456 -0.1055 -0.5572  1.6286
 6128TIP3   OH218389   3.878   2.293   4.316 -0.8871 -0.1429 -0.2783
 6128TIP3    H118390   3.837   2.366   4.363  0.3231  0.8561 -0.6954
 6128TIP3    H218391   3.968   2.292   4.349 -1.2279 -2.3846  0.7591
 6129TIP3   OH218392   5.846   5.323   0.966  0.2831  0.1103  0.2271
 6129TIP3    H118393   5.840   5.314   0.871  1.4458 -1.1636  0.2533
 6129TIP3    H218394   5.755   5.338   0.994 -0.0333  0.8336 -1.0873
 6130TIP3   OH218395   5.128   2.787   4.178  0.0413  0.6171  0.0056
 6130TIP3    H118396   5.108   2.820   4.090 -0.1502  2.3260  0.6498
 6130TIP3    H218397   5.214   2.746   4.170  0.2329  1.1702 -0.8930
 6131TIP3   OH218398   0.500   1.076   1.964 -0.3883  0.1108  0.1965
 6131TIP3    H118399   0.502   1.117   1.877  0.2692 -0.5171 -0.0987
 6131TIP3    H218400   0.575   1.114   2.010 -2.1446  2.3151  1.4084
 6132TIP3   OH218401   5.580   0.851   0.540 -0.0202  0.8709 -0.1078
 6132TIP3    H118402   5.639   0.926   0.529 -0.7607  1.5925  0.8200
 6132TIP3    H218403   5.638   0.779   0.564  0.5914  1.3692 -0.0639
 6133TIP3   OH218404   1.528   2.101   5.107  0.4397 -0.4492 -0.0282
 6133TIP3    H118405   1.534   2.196   5.116  2.2358 -0.5489  0.2301
 6133TIP3    H218406   1.495   2.087   5.019 -0.2796  0.4153  0.0912
 6134TIP3   OH218407   0.760   5.174   3.195  0.2607  0.4203  0.1871
 6134TIP3    H118408   0.791   5.139   3.279 -1.0511  0.7528  0.8292
 6134TIP3    H218409   0.717   5.257   3.217  0.4201  0.8129 -0.8958
 6135TIP3   OH218410   3.290   2.315   0.306 -0.6372  0.0106  0.0163
 6135TIP3    H118411   3.274   2.405   0.276 -1.0177 -0.2024 -0.4259
 6135TIP3    H218412   3.219   2.264   0.268 -0.0761 -0.5878 -0.2587
 6136TIP3   OH218413   6.289   2.226   4.367  0.0897  0.3385 -0.1527
 6136TIP3    H118414   6.201   2.249   4.339 -0.2541 -0.7055  0.0444
 6136TIP3    H218415   6.278   2.149   4.422  1.1981 -0.2566 -0.7324
 6137TIP3   OH218416   5.298   3.767   4.390  0.3578  0.6981  0.3086
 6137TIP3    H118417   5.389   3.758   4.362  0.2885 -0.6460  0.4232
 6137TIP3    H218418   5.289   3.702   4.460 -1.1305 -0.4465 -0.8750
 6138TIP3   OH218419   3.779   5.573   2.421 -0.1005  0.1794  0.4086
 6138TIP3    H118420   3.793   5.601   2.512 -0.8663  1.1825  0.2362
 6138TIP3    H218421   3.709   5.630   2.389 -0.0501 -0.3676 -0.7252
 6139TIP3   OH218422   2.367   3.602   2.827 -0.0046 -0.1362 -0.4824
 6139TIP3    H118423   2.372   3.668   2.758 -0.3440 -1.2949 -1.6447
 6139TIP3    H218424   2.454   3.561   2.827  1.0154  1.7740  1.8088
 6140TIP3   OH218425   2.158   0.443   4.878  0.0932  0.4395 -0.0725
 6140TIP3    H118426   2.245   0.469   4.907  0.0109  0.5393  0.0822
 6140TIP3    H218427   2.132   0.374   4.938 -0.0937  0.6749  0.1214
 6141TIP3   OH218428   1.961   4.385   2.336  0.4433 -0.3125 -0.0505
 6141TIP3    H118429   2.021   4.427   2.274  1.1257 -0.3017  0.6076
 6141TIP3    H218430   2.016   4.324   2.386  0.4120  1.3006  2.1011
 6142TIP3   OH218431   2.304   3.623   4.180  0.0634  0.1300  0.1491
 6142TIP3    H118432   2.395   3.597   4.162 -0.0348 -0.4998  0.5494
 6142TIP3    H218433   2.254   3.584   4.108  0.0288 -0.0446  0.2685
 6143TIP3   OH218434   2.484   5.907   0.544 -0.0994 -0.1821  0.1754
 6143TIP3    H118435   2.508   5.964   0.617 -0.1966 -0.5661  0.5133
 6143TIP3    H218436   2.398   5.939   0.515 -0.4310 -0.5234  0.7527
 6144TIP3   OH218437   6.281   2.032   4.566 -0.5291  0.6071  0.2669
 6144TIP3    H118438   6.372   2.003   4.575  0.4006  2.9038 -0.8372
 6144TIP3    H218439   6.251   2.044   4.656 -0.3582 -1.7614  0.7042
 6145TIP3   OH218440   1.452   1.501   1.014  0.6101 -0.6598  0.0903
 6145TIP3    H118441   1.458   1.534   0.924  1.1836  0.7128  0.5931
 6145TIP3    H218442   1.542   1.481   1.038  0.4165 -1.3610  0.2482
 6146TIP3   OH218443   3.826   3.729   3.135 -0.2094 -0.1712  0.5004
 6146TIP3    H118444   3.901   3.784   3.161 -0.7234 -0.0685  1.8606
 6146TIP3    H218445   3.789   3.773   3.059  0.3474  0.4957  0.6078
 6147TIP3   OH218446   4.768   4.454   3.736  0.2922 -0.5749 -0.1250
 6147TIP3    H118447   4.819   4.534   3.747 -0.6216 -0.0688  0.5169
 6147TIP3    H218448   4.715   4.448   3.815 -1.3705 -0.5438 -1.1773
 6148TIP3   OH218449   1.878   2.742   1.451 -0.1667  0.8089  0.3231
 6148TIP3    H118450   1.788   2.752   1.483 -0.7052  0.8669 -1.1149
 6148TIP3    H218451   1.929   2.720   1.529 -2.0493 -3.0956  0.7108
 6149TIP3   OH218452   0.146   3.526   1.928  0.0571 -0.2999 -0.1027
 6149TIP3    H118453   0.154   3.501   2.020 -1.0361  3.0930  1.0867
 6149TIP3    H218454   0.221   3.584   1.912 -1.4660  1.7567 -0.2487
 6150TIP3   OH218455   1.327   2.738   2.387  0.1681 -0.1891  0.1444
 6150TIP3    H118456   1.321   2.825   2.427 -0.1250 -0.1065 -0.0786
 6150TIP3    H218457   1.291   2.679   2.454  3.9268 -0.6884  1.9709
 6151TIP3   OH218458   3.522   1.566   3.533 -0.0499  0.0348 -0.2586
 6151TIP3    H118459   3.555   1.500   3.594 -1.7558 -2.6758 -2.0299
 6151TIP3    H218460   3.601   1.604   3.494  1.0106  0.0521  1.7567
 6152TIP3   OH218461   0.346   0.029   3.368  0.2474 -0.0131  0.2572
 6152TIP3    H118462   0.355   0.086   3.444  0.5064  1.1783 -0.6337
 6152TIP3    H218463   0.402  -0.046   3.387  2.7175  1.6290  0.0161
 6153TIP3   OH218464   1.397   5.939   3.332  0.3873  0.7665  0.0905
 6153TIP3    H118465   1.468   5.959   3.393  0.4517  0.3253  0.1567
 6153TIP3    H218466   1.420   5.987   3.252  2.2569 -1.6041 -0.8969
 6154TIP3   OH218467   1.444   5.414   0.767  0.8820  0.2857  0.9100
 6154TIP3    H118468   1.383   5.340   0.765 -1.2439  1.8425  2.7863
 6154TIP3    H218469   1.466   5.430   0.676 -0.8545 -0.8878  0.2417
 6155TIP3   OH218470   3.016   2.155   3.534 -0.3480  0.9788 -0.3756
 6155TIP3    H118471   3.107   2.185   3.535 -0.3107  0.9756  1.5883
 6155TIP3    H218472   2.998   2.133   3.625 -0.9040 -3.4514 -1.3574
 6156TIP3   OH218473   3.738   1.436   1.816  0.2033  0.3595 -0.7328
 6156TIP3    H118474   3.714   1.471   1.902 -1.5996 -0.1173 -0.9872
 6156TIP3    H218475   3.727   1.509   1.756  1.8690  0.8044 -0.5222
 6157TIP3   OH218476   4.295   5.830   0.185 -0.0920  0.3377  0.7403
 6157TIP3    H118477   4.353   5.810   0.259  0.4253 -0.4892  0.1336
 6157TIP3    H218478   4.279   5.924   0.193  1.3808  0.6118  0.9176
 6158TIP3   OH218479   4.655   1.259   2.933 -0.6633  0.2136 -0.3238
 6158TIP3    H118480   4.630   1.350   2.949 -2.0938  0.1174 -1.7976
 6158TIP3    H218481   4.574   1.215   2.909  0.2787 -1.0346 -1.4035
 6159TIP3   OH218482   0.116   3.744   3.479  0.4382 -0.3893 -0.0683
 6159TIP3    H118483   0.149   3.831   3.457  1.1538 -0.3247  1.1943
 6159TIP3    H218484   0.129   3.693   3.399  1.6147  0.2082 -0.2845
 6160TIP3   OH218485   4.090   5.281  -0.004 -0.1408 -0.8045 -0.2746
 6160TIP3    H118486   4.141   5.200  -0.006  1.7739  0.2950  0.8666
 6160TIP3    H218487   4.020   5.264   0.058  0.2865 -1.5869  0.0016
 6161TIP3   OH218488   3.156   4.670   0.853 -0.9402 -0.2225 -1.0539
 6161TIP3    H118489   3.168   4.587   0.898 -0.7843 -0.7770 -2.0942
 6161TIP3    H218490   3.243   4.710   0.853 -0.6180 -0.8851 -2.1152
 6162TIP3   OH218491   4.949   1.092   3.811 -0.7576  0.0744  0.8612
 6162TIP3    H118492   4.906   1.106   3.896 -1.5141  0.7539  0.3869
 6162TIP3    H218493   5.005   1.169   3.800 -1.0628  0.2518  0.5175
 6163TIP3   OH218494   2.274   1.100   3.164 -0.1332  0.0575 -0.0265
 6163TIP3    H118495   2.348   1.127   3.109 -0.3275  0.2229 -0.2100
 6163TIP3    H218496   2.236   1.183   3.194 -0.3328 -0.0247 -0.0528
 6164TIP3   OH218497   4.616   0.778   1.154  0.7282 -0.2444  0.3199
 6164TIP3    H118498   4.640   0.871   1.149  1.5791 -0.3867  1.3825
 6164TIP3    H218499   4.617   0.758   1.248 -1.9848 -0.7011  0.3366
 6165TIP3   OH218500   2.478   2.547   2.842  0.2500 -0.5778 -0.2319
 6165TIP3    H118501   2.540   2.479   2.870 -0.0677 -0.3723  1.0110
 6165TIP3    H218502   2.420   2.559   2.916 -0.1220  0.5877 -0.6864
 6166TIP3   OH218503   1.484   5.642   2.629  0.7521 -0.2330  0.0833
 6166TIP3    H118504   1.545   5.586   2.677 -0.3972 -0.8872  0.8448
 6166TIP3    H218505   1.406   5.588   2.618 -0.9303  1.6167  2.0482
 6167TIP3   OH218506   5.994   4.207   3.621 -0.7924  0.6055 -0.2016
 6167TIP3    H118507   5.945   4.246   3.548 -2.4962  1.2385  1.2109
 6167TIP3    H218508   5.927   4.176   3.681  0.5675 -0.7032  0.7221
 6168TIP3   OH218509   0.365   3.820   0.456  0.2922  0.4018  0.0341
 6168TIP3    H118510   0.415   3.902   0.457  0.2691  0.4477  1.8695
 6168TIP3    H218511   0.279   3.845   0.420  0.8959  0.7496 -1.2288
 6169TIP3   OH218512   0.403   3.106   3.323 -0.1897  0.1118  0.4061
 6169TIP3    H118513   0.353   3.083   3.401  2.4307 -0.0563  2.1940
 6169TIP3    H218514   0.414   3.201   3.329 -1.1193  0.2989 -0.5510
 6170TIP3   OH218515   2.024   1.905   4.745 -0.2454 -0.3423  0.0199
 6170TIP3    H118516   2.106   1.857   4.759 -0.3806 -0.5841 -0.0237
 6170TIP3    H218517   2.024   1.925   4.651  0.0870  0.2461  0.1377
 6171TIP3   OH218518   5.688   5.610   0.274  0.0348 -0.4046  0.3872
 6171TIP3    H118519   5.720   5.700   0.270  1.2624 -0.8301  0.0029
 6171TIP3    H218520   5.606   5.615   0.323  1.1888  0.6191  2.3041
 6172TIP3   OH218521   1.494   0.782   0.660  0.2465  0.0225 -0.0406
 6172TIP3    H118522   1.562   0.722   0.689  1.1076 -0.3413 -2.5462
 6172TIP3    H218523   1.534   0.869   0.666  0.0045  0.0784  0.8881
 6173TIP3   OH218524   1.787   5.645   4.261 -0.1242  0.2504 -0.0922
 6173TIP3    H118525   1.715   5.589   4.232  0.4047 -0.5703  0.1542
 6173TIP3    H218526   1.764   5.668   4.351 -0.1788  0.1604 -0.0827
 6174TIP3   OH218527   1.643   3.810   5.058  0.2181 -0.5249 -0.2342
 6174TIP3    H118528   1.596   3.731   5.084  1.6060 -1.3825 -0.2574
 6174TIP3    H218529   1.676   3.847   5.139 -0.6291  0.1817 -0.1981
 6175TIP3   OH218530   3.897   0.374   2.657 -0.1942  0.1947  0.2525
 6175TIP3    H118531   3.949   0.432   2.712 -1.3805  0.0006  1.6641
 6175TIP3    H218532   3.957   0.305   2.630  0.4752  0.3988  1.1771
 6176TIP3   OH218533   2.873   2.284   4.959 -0.1047 -0.4864 -0.2878
 6176TIP3    H118534   2.818   2.206   4.959 -0.2377 -0.3933 -1.1228
 6176TIP3    H218535   2.814   2.356   4.936 -0.0005 -0.1143  0.5389
 6177TIP3   OH218536   2.522   3.360   0.576 -0.0340 -0.7967  0.2908
 6177TIP3    H118537   2.568   3.276   0.580  0.1184 -0.6881  0.9923
 6177TIP3    H218538   2.524   3.393   0.666 -2.0314 -1.0711  0.4821
 6178TIP3   OH218539   5.380   4.697   1.865 -0.1676  0.3987  0.3220
 6178TIP3    H118540   5.398   4.681   1.958 -2.1663 -1.1254  0.5130
 6178TIP3    H218541   5.298   4.650   1.848  0.1591  0.6148 -2.2262
 6179TIP3   OH218542   0.099   3.679   0.588 -0.1623  0.1195 -0.0323
 6179TIP3    H118543   0.064   3.652   0.503  1.2317  1.3187 -1.0388
 6179TIP3    H218544   0.061   3.766   0.604 -1.7410 -0.7829  1.4169
 6180TIP3   OH218545   2.084   1.890   1.780  0.5054 -0.4930  0.7659
 6180TIP3    H118546   2.011   1.940   1.815  1.7079  1.1115  1.0896
 6180TIP3    H218547   2.070   1.890   1.685  0.5364  0.6070  0.7471
 6181TIP3   OH218548   4.773   5.158   0.193  0.5483 -0.3648  0.3528
 6181TIP3    H118549   4.722   5.081   0.218 -0.1875 -0.0588 -0.1696
 6181TIP3    H218550   4.810   5.135   0.107 -0.7432  0.3377 -0.4237
 6182TIP3   OH218551   5.830   2.994   4.885  0.1553 -0.4033  0.2589
 6182TIP3    H118552   5.748   3.042   4.874 -0.4917 -1.2329  1.2215
 6182TIP3    H218553   5.813   2.909   4.845  1.5070  0.3302 -2.0182
 6183TIP3   OH218554   4.617   1.528   5.110  0.1074 -0.3415 -0.3692
 6183TIP3    H118555   4.561   1.470   5.162  0.0026  0.7269  0.7663
 6183TIP3    H218556   4.631   1.481   5.029 -1.8636 -0.9720 -0.4141
 6184TIP3   OH218557   1.240   1.753   4.659 -0.8332 -0.3093 -0.6073
 6184TIP3    H118558   1.156   1.729   4.620 -0.0966 -1.5121 -1.5177
 6184TIP3    H218559   1.235   1.848   4.670 -1.8006 -0.1926 -1.8671
 6185TIP3   OH218560   5.882   3.851   2.162 -0.2361  0.9147  0.5420
 6185TIP3    H118561   5.922   3.809   2.086  1.1040 -0.9772  2.2051
 6185TIP3    H218562   5.812   3.905   2.125  0.1815 -0.1410 -1.9966
 6186TIP3   OH218563   1.066   2.699   0.808  0.5289  0.0627  0.1656
 6186TIP3    H118564   1.110   2.638   0.868 -0.9300 -3.1886 -1.7444
 6186TIP3    H218565   0.973   2.680   0.819 -0.0721  2.5069 -0.1058
 6187TIP3   OH218566   4.047   0.294   1.167  0.2879  0.2885 -0.4538
 6187TIP3    H118567   4.094   0.370   1.133 -0.4024  0.6304 -0.6576
 6187TIP3    H218568   4.027   0.241   1.090 -0.7353  0.7586 -0.5273
 6188TIP3   OH218569   2.045   4.262   4.260  0.1190  0.2303  0.1064
 6188TIP3    H118570   2.110   4.284   4.193  1.7140 -2.0555  0.7812
 6188TIP3    H218571   1.983   4.204   4.215 -2.1907  3.1648 -0.8049
 6189TIP3   OH218572   3.240   2.281   3.431  0.0282 -0.3512  0.1790
 6189TIP3    H118573   3.285   2.266   3.348  0.0226 -2.0177  0.4544
 6189TIP3    H218574   3.187   2.359   3.415 -0.7242 -1.1881 -1.7079
 6190TIP3   OH218575   0.102   3.851   2.888 -0.0351  0.1248  0.4689
 6190TIP3    H118576   0.011   3.824   2.896 -0.4980  0.6370 -2.0851
 6190TIP3    H218577   0.101   3.920   2.821  2.4845 -1.6344 -1.5898
 6191TIP3   OH218578   0.727   3.568   3.761  0.1486 -0.6294 -0.1961
 6191TIP3    H118579   0.724   3.543   3.669  1.1420  1.3486 -0.8241
 6191TIP3    H218580   0.815   3.602   3.775  0.0763 -1.0248  1.5429
 6192TIP3   OH218581   3.861   3.032   1.067 -0.1209  0.2363  0.1148
 6192TIP3    H118582   3.955   3.019   1.069 -0.2211 -0.6430  2.7564
 6192TIP3    H218583   3.848   3.123   1.091  0.0434  0.6759 -1.3590
 6193TIP3   OH218584   5.514   4.223   1.659 -0.3034 -0.0558  0.4990
 6193TIP3    H118585   5.605   4.221   1.629 -0.0059 -0.4087  1.4058
 6193TIP3    H218586   5.463   4.220   1.578  0.4822  0.4379 -0.0354
 6194TIP3   OH218587   5.979   2.117   0.481 -0.2854 -0.0355 -0.1999
 6194TIP3    H118588   6.056   2.061   0.477 -0.6173 -0.5517  0.4508
 6194TIP3    H218589   6.014   2.206   0.487  0.2586 -0.2510 -0.1511
 6195TIP3   OH218590   3.917   2.126   2.900 -0.1616 -0.3580 -0.4036
 6195TIP3    H118591   4.007   2.101   2.921 -0.1057  0.0876 -0.0990
 6195TIP3    H218592   3.921   2.156   2.809 -0.0326 -0.4728 -0.4370
 6196TIP3   OH218593   5.546   1.877   4.010 -0.1608 -0.2022 -0.4894
 6196TIP3    H118594   5.499   1.947   4.056 -1.3899 -0.3100 -1.5299
 6196TIP3    H218595   5.489   1.800   4.019  1.1443 -1.0844  0.5864
 6197TIP3   OH218596   4.753   4.933   1.808  0.0190 -0.4663 -0.0488
 6197TIP3    H118597   4.774   4.864   1.870  0.5457 -1.3269 -1.1581
 6197TIP3    H218598   4.736   5.010   1.863  0.1207 -1.2838  1.1648
 6198TIP3   OH218599   4.010   0.180   0.286  0.4594  0.1913  0.4071
 6198TIP3    H118600   3.928   0.176   0.335 -0.6743  0.8111 -1.3503
 6198TIP3    H218601   4.036   0.088   0.276  1.2925  0.0619  2.9573
 6199TIP3   OH218602   3.315   3.079   4.111 -0.4282  0.2117  0.1497
 6199TIP3    H118603   3.301   3.128   4.029 -0.5268 -1.1436 -0.6738
 6199TIP3    H218604   3.228   3.071   4.149 -0.1638  2.5409  1.4616
 6200TIP3   OH218605   5.300   1.205   1.496 -0.4279  0.1515  0.4727
 6200TIP3    H118606   5.283   1.121   1.539 -1.5224 -0.7226 -1.4963
 6200TIP3    H218607   5.377   1.239   1.539 -1.7019 -0.3792  3.4176
 6201TIP3   OH218608   5.225   5.041   2.855  0.0774  0.1514 -0.5429
 6201TIP3    H118609   5.231   5.050   2.950 -3.0710 -0.4067 -0.1960
 6201TIP3    H218610   5.175   5.118   2.827  1.8575  0.8733 -1.9543
 6202TIP3   OH218611   0.807   2.847   2.787  0.0545 -0.2357  0.3515
 6202TIP3    H118612   0.881   2.898   2.821  0.0414 -0.0928  0.1682
 6202TIP3    H218613   0.848   2.780   2.732  0.0581 -0.2596  0.3836
 6203TIP3   OH218614   3.093   5.267   3.060  0.1105 -0.0401 -0.4160
 6203TIP3    H118615   3.171   5.269   3.005  1.1439 -1.2608  0.9480
 6203TIP3    H218616   3.045   5.346   3.036 -0.1201 -1.0757 -3.9496
 6204TIP3   OH218617   3.641   4.973   3.142  0.5689 -0.0286  0.6436
 6204TIP3    H118618   3.658   4.879   3.149  0.9680  0.1562  4.8673
 6204TIP3    H218619   3.677   5.010   3.223 -0.5690  3.6157 -0.3295
 6205TIP3   OH218620   0.653   2.006   0.457  0.0494  0.1963  0.5507
 6205TIP3    H118621   0.678   1.968   0.541  0.9659  0.7372  0.5396
 6205TIP3    H218622   0.687   1.945   0.392 -0.3341 -0.0358  0.5700
 6206TIP3   OH218623   2.546   0.705   5.014  0.4020  0.3109 -0.0030
 6206TIP3    H118624   2.537   0.797   5.036 -0.3095 -0.0280  1.1962
 6206TIP3    H218625   2.622   0.702   4.955  2.8049  1.2660  2.7613
 6207TIP3   OH218626   2.173   2.482   0.185  0.0503 -0.6544  0.2339
 6207TIP3    H118627   2.173   2.397   0.230  4.2842  0.8271  3.8312
 6207TIP3    H218628   2.238   2.471   0.115 -0.0279 -0.6039  0.1535
 6208TIP3   OH218629   0.712   5.372   4.187  0.5995 -0.2249 -0.1397
 6208TIP3    H118630   0.620   5.351   4.176 -0.1237  2.0707  0.9362
 6208TIP3    H218631   0.753   5.352   4.103 -1.0631 -0.3509 -0.9388
 6209TIP3   OH218632   5.399   0.069   0.873  0.1108 -0.0138  0.1679
 6209TIP3    H118633   5.338   0.008   0.832 -0.6585  0.6843  0.2366
 6209TIP3    H218634   5.447   0.108   0.800  0.2296 -0.3110  0.0866
 6210TIP3   OH218635   0.979   0.476   3.647  0.4107  0.2429  0.5163
 6210TIP3    H118636   1.002   0.444   3.560  0.4666 -2.8814  1.5601
 6210TIP3    H218637   0.883   0.478   3.647  0.4010  2.1549 -0.1603
 6211TIP3   OH218638   2.406   4.477   2.238 -0.5213  0.5314 -0.2803
 6211TIP3    H118639   2.393   4.571   2.231  0.9249  0.7036 -0.8303
 6211TIP3    H218640   2.425   4.448   2.149  2.0055  0.2184  0.2782
 6212TIP3   OH218641   2.763   0.191   4.735  0.1773  0.0988  0.2561
 6212TIP3    H118642   2.736   0.281   4.716  0.5622 -0.0436 -1.0786
 6212TIP3    H218643   2.717   0.138   4.670  0.8527 -0.5349  0.2783
 6213TIP3   OH218644   1.115   2.817   2.200 -0.2779  0.1558  0.2649
 6213TIP3    H118645   1.194   2.795   2.249 -0.4957  0.8051  0.9136
 6213TIP3    H218646   1.096   2.907   2.224 -0.0363  0.7260 -1.4880
 6214TIP3   OH218647   3.864   1.298   2.109  0.5305 -0.5399 -0.0600
 6214TIP3    H118648   3.813   1.379   2.111  0.6767 -0.4409 -0.2695
 6214TIP3    H218649   3.955   1.328   2.117  0.8224 -0.4576 -2.7372
 6215TIP3   OH218650   1.781   3.238   0.610  0.1637  0.4723 -0.4189
 6215TIP3    H118651   1.788   3.192   0.693  0.8239  1.2046 -0.0596
 6215TIP3    H218652   1.699   3.205   0.572 -1.5329  1.9558  1.6819
 6216TIP3   OH218653   3.447   2.000   2.435  0.0399  0.7083 -0.7467
 6216TIP3    H118654   3.387   1.954   2.493  0.7203  1.3582  0.5068
 6216TIP3    H218655   3.466   1.936   2.366  0.2660 -0.5889  0.4585
 6217TIP3   OH218656   1.595   1.478   1.771  0.2840  0.6544 -0.6590
 6217TIP3    H118657   1.683   1.460   1.805  1.3423 -0.0791 -3.4607
 6217TIP3    H218658   1.543   1.403   1.798 -0.0716  1.9208  2.5613
 6218TIP3   OH218659   0.357   5.739   1.880 -0.2609  0.4678 -0.3686
 6218TIP3    H118660   0.339   5.801   1.810 -0.6698  0.6162 -0.1328
 6218TIP3    H218661   0.443   5.703   1.858  0.6577  2.1542  0.2267
 6219TIP3   OH218662   1.961   4.524   2.575  0.3518 -0.1368 -0.1179
 6219TIP3    H118663   2.039   4.568   2.541  0.9805 -1.6743 -0.7477
 6219TIP3    H218664   1.912   4.499   2.497  0.8706 -2.0374  0.1321
 6220TIP3   OH218665   3.473   0.271   4.960  0.2359 -0.2317 -0.0929
 6220TIP3    H118666   3.500   0.246   4.872 -0.2442  0.0282 -0.3227
 6220TIP3    H218667   3.485   0.192   5.013  1.0734 -0.2245 -0.2633
 6221TIP3   OH218668   4.407   3.559   1.856 -0.3565  0.0271 -0.4166
 6221TIP3    H118669   4.465   3.499   1.808 -1.1722 -3.2653  2.3268
 6221TIP3    H218670   4.458   3.587   1.931 -0.9103  0.5405 -0.2262
 6222TIP3   OH218671   3.687   4.685   4.398 -0.7220  0.4879 -0.3824
 6222TIP3    H118672   3.592   4.672   4.394 -0.6111 -0.1363 -1.4484
 6222TIP3    H218673   3.723   4.596   4.395 -0.1252  0.5689  2.1431
 6223TIP3   OH218674   0.374   4.996   3.550 -0.2790 -0.0813 -0.0197
 6223TIP3    H118675   0.402   5.078   3.508 -0.0304 -0.4096 -0.5089
 6223TIP3    H218676   0.406   5.003   3.640 -1.7947  1.1334  0.4903
 6224TIP3   OH218677   5.261   0.695   1.853  0.3304 -0.1478 -0.4449
 6224TIP3    H118678   5.217   0.693   1.938 -1.5965  1.3045 -1.3428
 6224TIP3    H218679   5.351   0.722   1.873 -0.2931  0.9579  1.0590
 6225TIP3   OH218680   5.457   1.608   2.832  0.4802  0.0027  0.7302
 6225TIP3    H118681   5.430   1.518   2.850 -1.1026  0.7553  2.5055
 6225TIP3    H218682   5.378   1.650   2.798  1.5565  0.4424 -1.4259
 6226TIP3   OH218683   6.242   2.002   0.435 -0.0450 -0.4037 -0.4547
 6226TIP3    H118684   6.294   1.932   0.474  1.0995  1.4172  1.4698
 6226TIP3    H218685   6.266   2.081   0.484 -3.8300  0.7587 -0.1384
 6227TIP3   OH218686   4.989   0.013   2.077  0.1011  0.5695 -0.4351
 6227TIP3    H118687   4.964   0.101   2.102  0.0381  0.1119  1.2284
 6227TIP3    H218688   5.068   0.025   2.023  0.8797  1.5833  0.8702
 6228TIP3   OH218689   5.975   4.159   2.717  0.5479 -0.3217  0.3044
 6228TIP3    H118690   5.965   4.066   2.736 -0.2422 -0.2832  0.0980
 6228TIP3    H218691   5.923   4.173   2.637  1.7178  0.0269 -0.4262
 6229TIP3   OH218692   2.224   5.832   2.263 -0.6598  0.3823 -0.0811
 6229TIP3    H118693   2.140   5.814   2.304  0.0908  1.5396  2.0847
 6229TIP3    H218694   2.238   5.758   2.203 -3.2376  0.2394 -0.5914
 6230TIP3   OH218695   0.499   1.261   4.485  0.1997 -0.0194 -0.2476
 6230TIP3    H118696   0.419   1.212   4.469  0.8308 -0.9531 -0.6052
 6230TIP3    H218697   0.562   1.196   4.515  0.6315  0.8169  0.7253
 6231TIP3   OH218698   0.837   2.848   0.583 -0.5117  0.0721  0.2007
 6231TIP3    H118699   0.743   2.864   0.573 -0.7727 -1.4924 -0.0659
 6231TIP3    H218700   0.843   2.755   0.602  1.0024  0.1472  0.1496
 6232TIP3   OH218701   0.904   3.716   4.545  0.0639  0.4933 -0.1989
 6232TIP3    H118702   0.809   3.730   4.543  0.1940  1.3977 -0.1440
 6232TIP3    H218703   0.942   3.801   4.525  0.8626 -0.2391 -1.9888
 6233TIP3   OH218704   0.635   3.483   3.526 -0.1299 -0.2431 -0.3265
 6233TIP3    H118705   0.658   3.506   3.436  2.4616 -1.1636 -0.0021
 6233TIP3    H218706   0.546   3.450   3.521  0.4065 -1.5456 -2.8445
 6234TIP3   OH218707   4.283   1.837   2.327 -0.6749 -0.1213  0.0668
 6234TIP3    H118708   4.240   1.758   2.360 -1.6568 -0.0817 -1.0547
 6234TIP3    H218709   4.251   1.908   2.383  0.6912 -0.5650  1.4815
 6235TIP3   OH218710   2.754   1.197   4.538  0.1115  0.2351  0.5409
 6235TIP3    H118711   2.713   1.202   4.451 -0.0724 -0.2284  0.5938
 6235TIP3    H218712   2.691   1.146   4.590  0.5933 -0.1772  0.7230
 6236TIP3   OH218713   1.330   4.845   3.865 -0.3146  0.4043  0.2780
 6236TIP3    H118714   1.250   4.856   3.916 -1.4874  0.5793 -1.5038
 6236TIP3    H218715   1.303   4.858   3.774  1.1805 -2.3460 -0.6782
 6237TIP3   OH218716   2.460   3.093   2.947  0.1512 -0.0855 -0.0288
 6237TIP3    H118717   2.416   3.078   2.864 -0.3401 -0.5979  0.3186
 6237TIP3    H218718   2.553   3.085   2.927  0.1270  1.2881 -0.8308
 6238TIP3   OH218719   2.630   3.067   2.453 -0.0353 -0.8314 -0.4584
 6238TIP3    H118720   2.564   2.999   2.450 -1.1248  0.1967 -0.3653
 6238TIP3    H218721   2.618   3.109   2.538  1.3545 -1.1965 -0.0387
 6239TIP3   OH218722   6.219   4.313   4.278  0.0151 -0.5408  0.0984
 6239TIP3    H118723   6.279   4.307   4.203  0.3633 -1.5773  0.4539
 6239TIP3    H218724   6.216   4.225   4.314 -1.5041 -0.4382  0.2740
 6240TIP3   OH218725   1.219   1.721   2.160 -0.0730  0.2457 -0.0144
 6240TIP3    H118726   1.255   1.676   2.083 -0.1591  2.5350 -1.4683
 6240TIP3    H218727   1.181   1.650   2.212 -2.2032 -1.2603 -3.2184
 6241TIP3   OH218728   1.434   5.974   3.068 -0.3098  0.1357 -0.3478
 6241TIP3    H118729   1.408   5.898   3.016  1.0960 -0.6831  0.0930
 6241TIP3    H218730   1.526   5.986   3.048  0.4379 -0.5395  2.2946
 6242TIP3   OH218731   3.625   5.018   3.797  0.4417 -0.2372  0.3532
 6242TIP3    H118732   3.711   5.020   3.838  0.1058 -0.8004  1.0991
 6242TIP3    H218733   3.569   5.067   3.857  0.4736  1.2041 -0.7221
 6243TIP3   OH218734   1.932   3.748   5.033 -0.2002  0.1377  0.0214
 6243TIP3    H118735   1.839   3.763   5.015 -0.4153 -0.5779  0.4614
 6243TIP3    H218736   1.965   3.706   4.954 -0.1716  0.7072 -0.2683
 6244TIP3   OH218737   0.324   1.991   3.592 -0.0576 -0.5794  0.0526
 6244TIP3    H118738   0.394   1.977   3.528 -0.5703 -2.1609 -0.1953
 6244TIP3    H218739   0.269   1.913   3.586  1.4097 -2.2582  4.3195
 6245TIP3   OH218740   1.501   1.643   0.528 -0.3680  0.5579 -0.0704
 6245TIP3    H118741   1.465   1.731   0.541 -0.1831  0.9313 -1.8304
 6245TIP3    H218742   1.443   1.603   0.463 -1.3445 -1.2271  1.7857
 6246TIP3   OH218743   2.133   5.749   1.696 -0.2647  0.4245 -0.3135
 6246TIP3    H118744   2.091   5.727   1.779 -2.1828  0.0463 -1.3326
 6246TIP3    H218745   2.096   5.688   1.633  0.1183  1.5729 -1.7199
 6247TIP3   OH218746   2.939   4.696   3.485 -0.5074  0.1102 -0.2506
 6247TIP3    H118747   2.913   4.630   3.550 -1.1760 -0.2406 -0.8691
 6247TIP3    H218748   2.969   4.645   3.410 -1.2999  0.4932 -0.8405
 6248TIP3   OH218749   4.123   2.941   0.964 -0.3664 -0.2733  0.0105
 6248TIP3    H118750   4.208   2.935   0.920  0.2167  1.0671  0.8863
 6248TIP3    H218751   4.118   2.862   1.017  1.5800  0.8423  1.9926
 6249TIP3   OH218752   0.639   4.761   2.619 -0.0878  0.3642  0.4688
 6249TIP3    H118753   0.669   4.816   2.546  2.4071  0.0218  1.1283
 6249TIP3    H218754   0.676   4.803   2.697 -1.3606 -0.1697  1.3982
 6250TIP3   OH218755   4.264   5.418   4.615  0.0213 -0.3857 -0.4386
 6250TIP3    H118756   4.298   5.337   4.653  2.3587  0.7678  0.0348
 6250TIP3    H218757   4.330   5.445   4.551  0.9431  2.7703  1.6281
 6251TIP3   OH218758   3.866   1.866   3.565  0.0085  0.7170  0.3172
 6251TIP3    H118759   3.960   1.848   3.558 -0.4703 -1.8374 -0.5289
 6251TIP3    H218760   3.853   1.889   3.657  1.0279 -2.2269  1.3073
 6252TIP3   OH218761   3.060   3.866   0.524  0.5622 -0.1862  0.0610
 6252TIP3    H118762   3.142   3.817   0.523  0.0639 -1.0454  0.1456
 6252TIP3    H218763   3.016   3.838   0.605 -0.3431 -0.6622 -0.5727
 6253TIP3   OH218764   6.324   5.485   1.885  0.2140 -0.4420  0.1654
 6253TIP3    H118765   6.312   5.580   1.884 -1.6381 -0.6355 -0.2749
 6253TIP3    H218766   6.244   5.451   1.846  0.9847 -2.1860  0.0275
 6254TIP3   OH218767   2.630   3.244   1.076 -0.1280 -0.2510 -0.1486
 6254TIP3    H118768   2.689   3.299   1.128 -3.1764  1.5963  1.7043
 6254TIP3    H218769   2.598   3.179   1.138 -2.5051  0.8990 -0.0443
 6255TIP3   OH218770   0.478   4.121   4.440 -1.2062 -0.0197 -0.0626
 6255TIP3    H118771   0.526   4.200   4.417  1.3938 -1.2969  0.6126
 6255TIP3    H218772   0.508   4.055   4.377 -1.9412 -0.9278  0.5020
 6256TIP3   OH218773   4.668   1.009   2.700 -0.3885  0.7167 -0.2553
 6256TIP3    H118774   4.715   1.062   2.763 -2.0316  1.5688  0.2980
 6256TIP3    H218775   4.732   0.990   2.631  1.6922 -0.9219  1.9784
 6257TIP3   OH218776   3.269   3.950   3.465 -0.5571 -0.1316 -0.4100
 6257TIP3    H118777   3.302   3.909   3.545  0.1467 -0.9840 -1.1275
 6257TIP3    H218778   3.339   4.009   3.438 -0.8661  0.2835 -0.3122
 6258TIP3   OH218779   1.797   3.136   4.907  0.6912 -0.1812 -0.1392
 6258TIP3    H118780   1.816   3.132   5.001  1.1306 -0.6844 -0.2436
 6258TIP3    H218781   1.767   3.047   4.885 -0.3112  0.1765 -0.2944
 6259TIP3   OH218782   1.928   1.872   4.113  0.4892 -0.0730 -0.4444
 6259TIP3    H118783   1.952   1.916   4.195 -0.2120  1.9539 -1.2616
 6259TIP3    H218784   1.994   1.803   4.103  0.0864 -0.9849  2.2288
 6260TIP3   OH218785   5.961   5.035   3.156  0.6409  0.3845  0.5792
 6260TIP3    H118786   5.896   5.071   3.095  0.5311  0.8554  0.9688
 6260TIP3    H218787   6.041   5.084   3.136  1.7271 -2.1085 -1.8787
 6261TIP3   OH218788   3.935   5.029   4.633 -0.1109  0.1857  0.5025
 6261TIP3    H118789   3.847   5.018   4.599 -0.5647  1.1974  1.2837
 6261TIP3    H218790   3.956   4.945   4.675 -0.2124 -0.4660 -0.7033
 6262TIP3   OH218791   2.243   2.458   5.033  0.0454  0.1725  0.4994
 6262TIP3    H118792   2.220   2.457   4.940  0.2122  0.3415  0.4566
 6262TIP3    H218793   2.161   2.482   5.077  0.0648  0.4914  0.3661
 6263TIP3   OH218794   3.345   4.168   0.992  0.0654  0.1387 -0.6086
 6263TIP3    H118795   3.381   4.100   0.935  1.6564 -0.2934  0.8174
 6263TIP3    H218796   3.271   4.125   1.037  0.9718 -0.6519  0.1780
 6264TIP3   OH218797   4.509   4.444   4.694  0.3332  0.2556 -0.2705
 6264TIP3    H118798   4.428   4.494   4.684  1.0945  2.2093  2.2590
 6264TIP3    H218799   4.491   4.385   4.768  1.4597  1.4572  1.0279
 6265TIP3   OH218800   1.320   1.595   1.261 -0.3914  0.2924 -0.1528
 6265TIP3    H118801   1.398   1.567   1.214 -0.4891 -1.2163  0.5461
 6265TIP3    H218802   1.248   1.578   1.200 -0.4973 -1.4753  0.4150
 6266TIP3   OH218803   3.217   3.826   1.956 -0.5651 -0.0930  0.0444
 6266TIP3    H118804   3.158   3.788   1.892 -0.8285  1.4022 -0.6318
 6266TIP3    H218805   3.174   3.906   1.985  0.8560  0.7557 -0.0725
 6267TIP3   OH218806   5.891   0.914   2.830 -0.0557  0.4126  0.1887
 6267TIP3    H118807   5.879   1.001   2.792 -1.2439  1.2462  2.2932
 6267TIP3    H218808   5.880   0.928   2.924  2.5328 -1.5564  0.8730
 6268TIP3   OH218809   0.325   0.648   0.393  0.1486 -0.1207  0.4563
 6268TIP3    H118810   0.251   0.630   0.334  0.8556  0.0405 -0.5015
 6268TIP3    H218811   0.371   0.564   0.400  1.0579  0.2584 -0.6486
 6269TIP3   OH218812   4.120   2.663   1.975  0.1510  0.0336 -0.1501
 6269TIP3    H118813   4.115   2.655   2.071  1.7067  0.9522  0.0410
 6269TIP3    H218814   4.125   2.572   1.945  0.6996 -0.2478  0.7286
 6270TIP3   OH218815   3.519   1.255   1.199  0.3761  0.9834  0.3561
 6270TIP3    H118816   3.557   1.307   1.269  2.0506  0.4166 -0.1025
 6270TIP3    H218817   3.584   1.188   1.179 -0.2212  0.8813 -1.4592
 6271TIP3   OH218818   0.136   2.017   3.008  0.4664 -0.5736 -0.1438
 6271TIP3    H118819   0.114   1.954   3.076 -0.6638 -1.2957 -1.1189
 6271TIP3    H218820   0.081   2.094   3.027  2.2135  0.3758  1.3362
 6272TIP3   OH218821   4.826   0.204   4.540  0.1904  0.2107  0.0686
 6272TIP3    H118822   4.900   0.255   4.575  0.4366 -0.4366  0.5097
 6272TIP3    H218823   4.866   0.128   4.500 -0.0991  0.9161 -1.6290
 6273TIP3   OH218824   2.499   1.805   4.576  0.1878 -0.2583 -0.1454
 6273TIP3    H118825   2.574   1.747   4.589 -1.1368 -2.2931 -1.0084
 6273TIP3    H218826   2.523   1.858   4.500  0.7159 -0.9977 -0.5173
 6274TIP3   OH218827   0.182   3.186   3.097 -0.3815 -0.0073  0.2498
 6274TIP3    H118828   0.250   3.141   3.148  0.0918 -1.5394 -1.6146
 6274TIP3    H218829   0.157   3.261   3.151  1.9499 -0.0607  1.5148
 6275TIP3   OH218830   5.251   3.489   0.644  0.1157 -0.0024  0.2831
 6275TIP3    H118831   5.188   3.419   0.664 -0.3917  0.6216  0.9354
 6275TIP3    H218832   5.199   3.556   0.599  0.0987  0.9187  1.6303
 6276TIP3   OH218833   1.243   3.674   1.811 -0.0136 -0.2946  0.1364
 6276TIP3    H118834   1.184   3.731   1.860 -2.3162 -1.4557 -1.1198
 6276TIP3    H218835   1.290   3.626   1.879 -1.1961  0.0110  1.2252
 6277TIP3   OH218836   0.674   1.948   2.302  0.4949 -0.0016  0.1670
 6277TIP3    H118837   0.725   1.893   2.243 -0.5088  0.0469 -0.7780
 6277TIP3    H218838   0.713   2.035   2.295 -0.5694  0.3806 -1.6854
 6278TIP3   OH218839   2.147   1.512   1.889 -0.1913  0.1068  0.3269
 6278TIP3    H118840   2.234   1.512   1.930 -0.5930 -1.4887  1.2805
 6278TIP3    H218841   2.157   1.455   1.813 -0.5854 -0.7656  0.9151
 6279TIP3   OH218842   0.946   3.349   3.519 -0.8127 -0.2088  0.4392
 6279TIP3    H118843   0.877   3.299   3.563 -1.9206  1.1048  0.2633
 6279TIP3    H218844   1.000   3.383   3.590  0.3996 -2.1895  0.5407
 6280TIP3   OH218845   3.171   4.062   3.875 -0.3791 -0.0879 -0.0698
 6280TIP3    H118846   3.186   4.030   3.964  0.7491  0.5577 -0.0141
 6280TIP3    H218847   3.078   4.047   3.860 -0.5509 -0.3503  1.1563
 6281TIP3   OH218848   1.644   2.694   3.761  0.0538  0.0465 -0.1592
 6281TIP3    H118849   1.555   2.672   3.789  0.4561 -1.6888 -0.1138
 6281TIP3    H218850   1.633   2.769   3.703 -1.2775  0.7815  0.9772
 6282TIP3   OH218851   3.476   1.425   1.483 -0.2294  0.1992  0.5719
 6282TIP3    H118852   3.398   1.457   1.527  0.8785  1.0231  2.0177
 6282TIP3    H218853   3.508   1.500   1.432 -0.3136 -0.1066  0.0575
 6283TIP3   OH218854   0.603   3.361   3.243 -0.0511  0.0872 -0.3575
 6283TIP3    H118855   0.536   3.384   3.308  0.5993  1.2734 -0.0592
 6283TIP3    H218856   0.556   3.354   3.161 -0.5688  0.8719 -0.1447
 6284TIP3   OH218857   0.375   4.055   2.231  0.4111  0.8551  0.5629
 6284TIP3    H118858   0.361   3.964   2.256  0.2152  0.1562 -1.7888
 6284TIP3    H218859   0.288   4.088   2.208  0.4493  1.7200  1.6147
 6285TIP3   OH218860   6.002   1.260   1.490 -0.4685  0.3560  0.4232
 6285TIP3    H118861   5.956   1.343   1.504  0.7159  1.0756  0.1839
 6285TIP3    H218862   6.022   1.228   1.578 -1.6348 -0.0948  0.5357
 6286TIP3   OH218863   5.789   3.848   4.901  0.5015 -0.2806 -0.9325
 6286TIP3    H118864   5.773   3.753   4.904 -1.0231 -0.0151  0.8498
 6286TIP3    H218865   5.872   3.859   4.947  0.2969 -0.6817 -0.4568
 6287TIP3   OH218866   1.996   5.159   1.529  0.3384  0.5215 -0.2424
 6287TIP3    H118867   1.939   5.236   1.531  0.1640  0.4758 -1.7554
 6287TIP3    H218868   1.949   5.093   1.581  0.8246  1.6071  1.6602
 6288TIP3   OH218869   4.070   0.629   4.664  0.4570  0.1749  0.0926
 6288TIP3    H118870   4.050   0.631   4.758  0.1004 -0.3945  0.0315
 6288TIP3    H218871   4.158   0.593   4.659 -0.3728 -1.9767  0.0967
 6289TIP3   OH218872   0.931   2.963   1.281  0.1501  0.3276 -0.0409
 6289TIP3    H118873   0.994   3.030   1.259  0.5004  0.3114  0.8680
 6289TIP3    H218874   0.931   2.960   1.377 -1.2186  0.3276 -0.0153
 6290TIP3   OH218875   1.507   5.200   1.811 -0.3447  0.5330  0.2300
 6290TIP3    H118876   1.435   5.173   1.867 -0.4963  0.6891  0.1096
 6290TIP3    H218877   1.556   5.119   1.794 -0.7087  0.3596 -0.0024
 6291TIP3   OH218878   0.518   5.781   0.101  0.2312  0.1245  0.1702
 6291TIP3    H118879   0.445   5.833   0.067  1.0042  1.2878  0.2324
 6291TIP3    H218880   0.495   5.690   0.079 -2.1446  0.2197  1.8604
 6292TIP3   OH218881   2.695   1.233   0.065  0.1058  0.1032 -0.1104
 6292TIP3    H118882   2.676   1.140   0.054 -1.1009  0.4438 -1.0663
 6292TIP3    H218883   2.718   1.263  -0.023 -2.0660  1.2429 -0.3376
 6293TIP3   OH218884   1.913   1.255   4.026 -0.4222 -0.3542 -0.5547
 6293TIP3    H118885   1.942   1.245   3.936  2.0756  1.4943 -0.0684
 6293TIP3    H218886   1.834   1.309   4.020 -1.1511 -1.4913 -1.6713
 6294TIP3   OH218887   1.535   0.452   4.594 -1.1611  0.1633 -0.0715
 6294TIP3    H118888   1.598   0.385   4.620 -1.0853  0.1192 -0.3619
 6294TIP3    H218889   1.450   0.408   4.594 -1.2405  0.3108  0.6550
 6295TIP3   OH218890   0.818   1.540   3.979  0.0835 -0.0185 -0.7405
 6295TIP3    H118891   0.909   1.558   4.003 -0.3032  0.9081  0.1070
 6295TIP3    H218892   0.810   1.445   3.989  0.9160 -0.0959 -0.6806
 6296TIP3   OH218893   3.626   2.489   0.293  0.7137 -0.1672 -0.3580
 6296TIP3    H118894   3.644   2.396   0.305 -1.2508 -0.4768  0.5255
 6296TIP3    H218895   3.585   2.517   0.375  0.7010  1.3411 -0.8376
 6297TIP3   OH218896   5.210   1.492   0.085 -0.0398 -0.4271  0.3065
 6297TIP3    H118897   5.166   1.573   0.063  1.1851  0.1272 -0.2238
 6297TIP3    H218898   5.289   1.519   0.131  0.0473 -1.3537  0.7272
 6298TIP3   OH218899   2.011   3.316   2.204 -0.3852 -0.7095 -0.5682
 6298TIP3    H118900   2.025   3.240   2.260 -0.3151 -1.4327 -1.5312
 6298TIP3    H218901   2.092   3.367   2.213 -1.8641  1.3651  3.1031
 6299TIP3   OH218902   3.277   2.525   0.862  0.2916  0.3428  0.0062
 6299TIP3    H118903   3.372   2.528   0.876  0.6978 -0.0960 -2.2423
 6299TIP3    H218904   3.255   2.432   0.868 -0.0061  0.4330  0.4157
 6300TIP3   OH218905   0.586   4.400   3.699  0.1948 -0.5782 -0.1915
 6300TIP3    H118906   0.510   4.343   3.687 -0.7246  0.2278  1.3929
 6300TIP3    H218907   0.579   4.429   3.790  1.8543  0.3320 -0.3184
 6301TIP3   OH218908   5.274   4.902   4.370  0.2582  0.1838 -0.0845
 6301TIP3    H118909   5.255   4.871   4.458  0.7805 -0.1543 -0.0808
 6301TIP3    H218910   5.199   4.875   4.318 -0.0541  0.3860  0.2549
 6302TIP3   OH218911   5.531   3.408   5.007  0.3626 -0.0854 -0.4388
 6302TIP3    H118912   5.457   3.464   5.032  0.1282  0.3854 -2.0818
 6302TIP3    H218913   5.588   3.466   4.956  0.1020 -1.3078 -2.2103
 6303TIP3   OH218914   5.695   2.513   4.541 -0.1783 -0.8383  0.2858
 6303TIP3    H118915   5.709   2.546   4.629 -1.8347 -0.1899  0.3356
 6303TIP3    H218916   5.723   2.421   4.545  0.3619 -0.6428  1.2950
 6304TIP3   OH218917   5.319   3.692   2.120 -0.0544 -0.0134 -0.1738
 6304TIP3    H118918   5.302   3.779   2.083 -2.6256 -0.2536  0.2295
 6304TIP3    H218919   5.306   3.632   2.047  0.9552 -0.1360 -0.2671
 6305TIP3   OH218920   6.148   0.620   3.350 -0.2084  0.0710 -0.5186
 6305TIP3    H118921   6.192   0.552   3.300 -0.2756 -0.6057  0.3342
 6305TIP3    H218922   6.202   0.633   3.427 -0.0967  1.1247 -0.7493
 6306TIP3   OH218923   4.208   0.215   5.103  0.7343  0.4570  0.6158
 6306TIP3    H118924   4.226   0.179   5.190 -2.2752 -2.4941  0.1904
 6306TIP3    H218925   4.229   0.144   5.043 -2.5199  0.3043 -0.5357
 6307TIP3   OH218926   3.411   4.994   1.470  0.5067 -0.4626 -0.1840
 6307TIP3    H118927   3.498   4.957   1.484  0.5244  0.0298  1.1608
 6307TIP3    H218928   3.424   5.089   1.478 -0.1460 -0.3850  0.0259
 6308TIP3   OH218929   1.437   5.799   4.430  0.0324  0.1131 -0.3604
 6308TIP3    H118930   1.381   5.869   4.465 -1.0326 -1.8091  2.0632
 6308TIP3    H218931   1.380   5.747   4.374  0.2168 -0.1277 -0.3252
 6309TIP3   OH218932   1.453   5.537   4.010  0.3930 -0.3974  0.4386
 6309TIP3    H118933   1.536   5.546   3.963  0.3539 -0.2009  0.4049
 6309TIP3    H218934   1.469   5.466   4.072  1.0371  0.5103  1.3598
 6310TIP3   OH218935   1.404   1.283   2.892  0.0772  0.1286 -0.1905
 6310TIP3    H118936   1.410   1.258   2.984  0.8905 -1.5118 -0.6614
 6310TIP3    H218937   1.395   1.200   2.845 -0.4714  0.9505 -1.5933
 6311TIP3   OH218938   0.563   5.438   2.709 -0.1759  0.0711 -0.1843
 6311TIP3    H118939   0.620   5.392   2.770  0.1378  1.4756  0.6437
 6311TIP3    H218940   0.509   5.495   2.765 -0.0533  1.2139 -1.1911
 6312TIP3   OH218941   2.597   3.961   4.004 -0.1534  0.3256  0.2010
 6312TIP3    H118942   2.666   3.895   4.010 -1.1961 -0.8635 -0.5184
 6312TIP3    H218943   2.532   3.923   3.946 -0.8525  1.9484 -0.1438
 6313TIP3   OH218944   2.697   1.015   4.819  0.3114  0.8091  0.3278
 6313TIP3    H118945   2.629   1.058   4.769 -0.5667  0.3426  1.0973
 6313TIP3    H218946   2.705   1.067   4.899  1.8366  1.6633 -0.3226
 6314TIP3   OH218947   3.620   0.265   2.903  0.0351 -0.0766 -0.5028
 6314TIP3    H118948   3.576   0.339   2.861  0.5876  0.2785 -0.4738
 6314TIP3    H218949   3.594   0.269   2.995 -1.2813 -0.9317 -0.8134
 6315TIP3   OH218950   3.024   1.360   5.071  0.1299  0.1051 -0.4154
 6315TIP3    H118951   3.025   1.265   5.063  1.7909  0.0321  0.1810
 6315TIP3    H218952   2.995   1.391   4.986  2.9906 -0.9008 -1.8832
 6316TIP3   OH218953   0.731   0.202   1.916  0.2193  0.2896 -0.3623
 6316TIP3    H118954   0.777   0.214   1.999  0.3381 -0.4066 -0.3187
 6316TIP3    H218955   0.799   0.175   1.854  0.0327  0.2231 -0.5401
 6317TIP3   OH218956   6.323   3.031   4.666 -0.4102  0.0615  0.0546
 6317TIP3    H118957   6.307   3.069   4.752 -1.5806  0.6022 -0.3756
 6317TIP3    H218958   6.240   2.990   4.643 -0.2543  0.3099 -0.9966
 6318TIP3   OH218959   0.875   5.914   3.336  0.0972 -0.1090 -0.3057
 6318TIP3    H118960   0.838   5.828   3.356  0.9529 -0.4686 -0.1928
 6318TIP3    H218961   0.828   5.944   3.258 -0.5837 -0.4351 -0.0187
 6319TIP3   OH218962   2.498   4.950   2.692  0.0467  0.1771  0.5481
 6319TIP3    H118963   2.572   5.002   2.724 -0.5877  1.0936  0.5675
 6319TIP3    H218964   2.522   4.859   2.710  3.6292 -0.1612 -4.1510
 6320TIP3   OH218965   4.094   0.399   3.428 -0.2250 -0.0536  0.1104
 6320TIP3    H118966   4.121   0.476   3.479  0.7067  1.1270 -2.0460
 6320TIP3    H218967   4.014   0.428   3.384 -0.2710 -0.5864 -0.1561
 6321TIP3   OH218968   3.755   0.185   0.437 -0.2462 -0.6353  0.5607
 6321TIP3    H118969   3.690   0.130   0.392 -0.1344 -0.5081  0.2432
 6321TIP3    H218970   3.713   0.208   0.520 -0.9587  0.1649 -0.0084
 6322TIP3   OH218971   0.716   4.697   4.348 -0.7082 -0.3507  0.1778
 6322TIP3    H118972   0.691   4.605   4.350 -0.1819 -0.4895  0.8727
 6322TIP3    H218973   0.637   4.743   4.317 -1.9612 -0.7370  2.5539
 6323TIP3   OH218974   5.081   2.240   1.931  0.3382 -0.1598 -0.3949
 6323TIP3    H118975   5.112   2.233   2.022 -1.3189  0.9644  0.3094
 6323TIP3    H218976   5.018   2.169   1.922  0.4682 -0.2414 -0.6502
 6324TIP3   OH218977   4.478   1.135   3.465  0.1695  0.0226  0.1618
 6324TIP3    H118978   4.561   1.171   3.432 -0.2571  1.3763  0.4943
 6324TIP3    H218979   4.442   1.087   3.391 -0.5017  2.5470 -1.2760
 6325TIP3   OH218980   5.904   3.879   5.155 -0.4954 -0.1131  0.1648
 6325TIP3    H118981   5.964   3.901   5.226  0.8790  3.0808 -1.7744
 6325TIP3    H218982   5.863   3.962   5.131 -2.3649 -1.4186 -1.5560
 6326TIP3   OH218983   2.746   2.979   5.083  0.6927 -0.1263  0.1721
 6326TIP3    H118984   2.833   2.944   5.061  0.9351  1.4421 -1.7061
 6326TIP3    H218985   2.685   2.909   5.059  1.3882 -1.2098  1.4178
 6327TIP3   OH218986   1.255   3.770   0.235  0.1544 -0.4381  0.2778
 6327TIP3    H118987   1.170   3.743   0.270 -0.1138  0.6778  0.5184
 6327TIP3    H218988   1.319   3.719   0.285 -0.3490 -1.0185  0.3453
 6328TIP3   OH218989   2.907   3.768   2.343  0.5226 -0.2588 -0.1712
 6328TIP3    H118990   2.980   3.813   2.385  1.0516  0.8990 -2.1693
 6328TIP3    H218991   2.833   3.780   2.402  1.2785  0.9969  0.5622
 6329TIP3   OH218992   0.954   3.215   0.915 -0.2960 -0.2487  0.4204
 6329TIP3    H118993   0.959   3.139   0.856  0.0727 -1.9163  2.4744
 6329TIP3    H218994   1.032   3.266   0.895 -0.3880 -0.5633 -0.8058
 6330TIP3   OH218995   3.619   3.100   3.368 -0.1548  0.6142 -0.2443
 6330TIP3    H118996   3.540   3.141   3.404  1.0744  2.8612  0.1012
 6330TIP3    H218997   3.682   3.103   3.440 -0.3371 -3.2759  0.2742
 6331TIP3   OH218998   3.842   1.184   3.814 -0.4556 -0.4370  0.3396
 6331TIP3    H118999   3.902   1.219   3.748  0.0607 -0.1469  0.9579
 6331TIP3    H219000   3.810   1.261   3.861  1.1535 -0.7994  2.1057
 6332TIP3   OH219001   4.602   0.880   2.328 -0.5754 -0.4567 -0.8700
 6332TIP3    H119002   4.688   0.888   2.286 -0.2535 -0.5526 -0.2436
 6332TIP3    H219003   4.610   0.930   2.410 -1.2798 -0.0390 -1.0477
 6333TIP3   OH219004   1.736   1.469   1.076  0.4651  0.1225  0.2079
 6333TIP3    H119005   1.768   1.526   1.146 -0.0193 -0.4348  0.8983
 6333TIP3    H219006   1.742   1.522   0.997  1.3939  0.6318  0.6073
 6334TIP3   OH219007   0.422   3.168   3.663 -0.3719 -0.0146  0.3429
 6334TIP3    H119008   0.422   3.243   3.604 -2.8649 -1.0931 -1.1822
 6334TIP3    H219009   0.345   3.116   3.637  0.9581 -2.8719  1.6100
 6335TIP3   OH219010   1.744   1.857   4.785  0.0416 -0.1071  0.4595
 6335TIP3    H119011   1.762   1.782   4.841  1.5215 -1.1161 -1.2849
 6335TIP3    H219012   1.830   1.893   4.764 -0.6079  1.8584  0.8886
 6336TIP3   OH219013   5.800   1.581   0.475  0.1759 -0.1903 -0.0335
 6336TIP3    H119014   5.743   1.559   0.402 -0.5506 -1.1058  0.7816
 6336TIP3    H219015   5.811   1.676   0.469  0.2551 -0.2700 -1.3984
 6337TIP3   OH219016   3.520   3.178   2.612  0.1369  0.4936  0.1892
 6337TIP3    H119017   3.513   3.109   2.546 -1.0290 -0.0590  0.8573
 6337TIP3    H219018   3.576   3.245   2.572  2.8233 -1.6090  0.1969
 6338TIP3   OH219019   2.946   5.419   5.027  0.1309  0.3279  0.2584
 6338TIP3    H119020   2.920   5.329   5.009 -2.4191  1.1076 -0.2801
 6338TIP3    H219021   3.008   5.440   4.958  0.6884 -0.9603  0.3370
 6339TIP3   OH219022   0.720   4.766   1.762  0.1305  0.1884 -0.1517
 6339TIP3    H119023   0.712   4.671   1.772 -0.9566  0.4272  1.9671
 6339TIP3    H219024   0.758   4.795   1.845 -1.1652  1.7328 -0.0552
 6340TIP3   OH219025   2.835   4.029   2.197 -0.3168  0.2925  0.4597
 6340TIP3    H119026   2.771   4.031   2.268 -0.2355  0.2963  0.5330
 6340TIP3    H219027   2.788   3.990   2.123  0.1522 -1.5221  1.0683
 6341TIP3   OH219028   0.532   1.659   2.297  0.0241 -0.2521  0.1473
 6341TIP3    H119029   0.575   1.637   2.214 -0.1437 -0.5768  0.1440
 6341TIP3    H219030   0.589   1.724   2.337 -1.2095  1.9922 -1.4467
 6342TIP3   OH219031   5.807   4.251   2.244  0.7969  0.4629  0.6969
 6342TIP3    H119032   5.897   4.220   2.237  0.7457  0.7768 -2.6318
 6342TIP3    H219033   5.768   4.233   2.158 -2.3691  0.2791  2.0230
 6343TIP3   OH219034   4.705   2.638   4.945  0.4597  0.3960 -0.2536
 6343TIP3    H119035   4.738   2.588   5.020 -0.4967  1.1559  0.6920
 6343TIP3    H219036   4.637   2.695   4.981  0.4644  1.2887 -1.5782
 6344TIP3   OH219037   4.313   1.986   3.794  0.6111 -0.5452  0.4803
 6344TIP3    H119038   4.315   1.990   3.890 -3.5478  1.3275  0.7092
 6344TIP3    H219039   4.310   2.077   3.766 -1.2055 -1.0279 -1.1478
 6345TIP3   OH219040   1.629   3.035   1.449  0.1345  0.5938 -0.3574
 6345TIP3    H119041   1.667   2.951   1.477  0.1989  0.0036 -2.0624
 6345TIP3    H219042   1.535   3.017   1.442 -0.1468  1.2873  1.2760
 6346TIP3   OH219043   4.773   3.678   1.794  0.3604 -0.0184  0.0825
 6346TIP3    H119044   4.844   3.644   1.849 -0.3995 -0.2535  0.9293
 6346TIP3    H219045   4.727   3.600   1.764 -1.3484  0.1837  1.9780
 6347TIP3   OH219046   2.352   5.995   5.123  0.2643  0.1030  0.1375
 6347TIP3    H119047   2.340   5.919   5.066 -0.8748 -0.7329  1.4293
 6347TIP3    H219048   2.421   6.046   5.080  1.4049 -1.8720 -0.5327
 6348TIP3   OH219049   0.389   2.359   5.042 -0.5291 -0.1188  0.0820
 6348TIP3    H119050   0.388   2.447   5.079 -1.0504  0.3187 -0.9468
 6348TIP3    H219051   0.474   2.352   4.999 -0.8946  0.2494 -0.6997
 6349TIP3   OH219052   1.368   1.057   0.104 -0.5845  0.3974 -0.4411
 6349TIP3    H119053   1.450   1.051   0.152 -1.0891 -0.3340  0.3560
 6349TIP3    H219054   1.302   1.072   0.171 -1.3819 -1.2522 -0.8153
 6350TIP3   OH219055   2.401   0.463   3.917  0.1629  0.5826 -0.5117
 6350TIP3    H119056   2.374   0.420   3.998 -1.2846  1.5302 -0.4495
 6350TIP3    H219057   2.493   0.485   3.930  0.4903 -1.0363  0.0686
 6351TIP3   OH219058   0.100   4.765   0.937 -0.4042 -0.8535 -0.4526
 6351TIP3    H119059   0.027   4.818   0.905 -0.4834  0.0116  1.0630
 6351TIP3    H219060   0.162   4.829   0.973  0.4998 -1.6567 -0.5479
 6352TIP3   OH219061   0.603   5.525   3.540 -0.0911  0.1652 -0.1844
 6352TIP3    H119062   0.596   5.429   3.537  1.3710  0.0421 -0.1063
 6352TIP3    H219063   0.514   5.555   3.523 -0.5739 -1.2069 -0.2475
 6353TIP3   OH219064   2.645   4.456   1.078 -0.2357 -0.0532 -0.4393
 6353TIP3    H119065   2.632   4.549   1.097 -1.1761 -0.1606 -0.5187
 6353TIP3    H219066   2.738   4.449   1.055  0.2486  0.5692  1.1865
 6354TIP3   OH219067   1.963   1.931   3.709  0.9240 -0.0131 -0.6230
 6354TIP3    H119068   1.891   1.887   3.754  0.6812  0.3003 -0.7047
 6354TIP3    H219069   1.921   1.995   3.653  1.2417 -0.2461 -1.1291
 6355TIP3   OH219070   1.511   1.228   4.223  0.0675  0.6005  0.0119
 6355TIP3    H119071   1.440   1.290   4.237 -0.6081  0.2924 -1.8914
 6355TIP3    H219072   1.475   1.143   4.249  1.0467  0.9019  2.7864
 6356TIP3   OH219073   1.324   0.154   3.307  1.0224 -0.6226 -0.2293
 6356TIP3    H119074   1.290   0.088   3.246 -0.2193 -0.4374  0.2236
 6356TIP3    H219075   1.349   0.104   3.385 -0.9073 -0.4903  0.5226
 6357TIP3   OH219076   2.958   0.146   3.740 -0.2625 -0.5945  0.5327
 6357TIP3    H119077   2.933   0.108   3.824 -0.5814 -1.6959 -0.0453
 6357TIP3    H219078   3.016   0.081   3.701  1.4658  0.7424  0.6979
 6358TIP3   OH219079   0.919   2.891   1.549  0.4023  0.3582  0.2567
 6358TIP3    H119080   0.987   2.890   1.616 -0.7018  0.0912  1.4229
 6358TIP3    H219081   0.838   2.908   1.598 -0.4421  0.1211 -1.0158
 6359TIP3   OH219082   4.764   1.624   2.958  0.5939  0.0235 -0.2038
 6359TIP3    H119083   4.681   1.577   2.955  0.8937 -0.5442  0.3070
 6359TIP3    H219084   4.741   1.713   2.984  0.1558 -0.1558  0.0226
 6360TIP3   OH219085   3.359   4.387   2.123 -0.6355  0.0003  0.2408
 6360TIP3    H119086   3.415   4.346   2.058 -0.5373  1.5014 -0.6631
 6360TIP3    H219087   3.418   4.409   2.195  0.0686  1.9551 -0.8852
 6361TIP3   OH219088   4.602   1.807   5.146 -0.5036 -0.1536 -0.6802
 6361TIP3    H119089   4.697   1.820   5.147 -0.6425  0.9565 -0.6172
 6361TIP3    H219090   4.590   1.717   5.118  0.6179 -0.8481  0.9326
 6362TIP3   OH219091   0.953   2.075   5.051  0.2526 -0.4166 -0.3454
 6362TIP3    H119092   0.971   2.028   4.969  2.8995  0.5281 -0.3900
 6362TIP3    H219093   0.964   2.009   5.119 -1.8444 -1.1784 -0.6591
 6363TIP3   OH219094   0.108   1.616   3.720  0.1731 -0.7272 -0.2067
 6363TIP3    H119095   0.186   1.671   3.726 -1.8015  2.3356 -0.5351
 6363TIP3    H219096   0.076   1.629   3.631 -0.6681 -2.0442 -0.1271
 6364TIP3   OH219097   5.826   1.005   5.047 -0.1833  0.6281 -0.3211
 6364TIP3    H119098   5.801   0.925   5.002  0.1325  0.3759 -0.0591
 6364TIP3    H219099   5.851   1.065   4.977  0.2420  0.2636 -0.4915
 6365TIP3   OH219100   4.251   2.813   2.947 -0.8433  0.1521  0.3103
 6365TIP3    H119101   4.228   2.755   2.875  1.0185  0.3575 -0.5225
 6365TIP3    H219102   4.172   2.864   2.963 -1.1393  0.5630 -2.0699
 6366TIP3   OH219103   5.664   4.883   3.472 -0.1007 -0.1551 -0.0705
 6366TIP3    H119104   5.687   4.948   3.405  1.3179  0.4946  0.9873
 6366TIP3    H219105   5.701   4.918   3.553 -0.7433 -1.4962  0.8378
 6367TIP3   OH219106   5.510   3.194   2.281 -0.6946 -0.3280 -0.2403
 6367TIP3    H119107   5.529   3.124   2.344 -0.1736  0.5541  0.6111
 6367TIP3    H219108   5.437   3.242   2.319  1.1352  1.6685  0.9532
 6368TIP3   OH219109   0.679   5.670   0.348  0.2670 -0.3167  0.1559
 6368TIP3    H119110   0.636   5.703   0.427 -2.3161 -2.9231  0.0445
 6368TIP3    H219111   0.625   5.703   0.276  1.2401  0.1589 -0.3680
 6369TIP3   OH219112   3.010   0.704   4.062  0.0748  0.2313  0.2876
 6369TIP3    H119113   2.915   0.709   4.073 -0.3005 -0.2454 -2.0585
 6369TIP3    H219114   3.027   0.753   3.981  1.6138 -0.9555 -0.1579
 6370TIP3   OH219115   0.630   3.363   0.419  0.1958  0.2425 -0.0924
 6370TIP3    H119116   0.667   3.276   0.400  0.6631  0.7095 -1.4465
 6370TIP3    H219117   0.672   3.390   0.501  2.2394  0.3794 -1.1228
 6371TIP3   OH219118   2.496   4.684   2.812 -0.4822 -0.4166 -0.1737
 6371TIP3    H119119   2.575   4.650   2.855 -1.3906 -0.2003  1.7460
 6371TIP3    H219120   2.444   4.606   2.793  0.6765 -0.6953 -2.6301
 6372TIP3   OH219121   0.389   3.462   4.788  0.1488  0.6472  0.2034
 6372TIP3    H119122   0.463   3.412   4.821  0.0923  0.0655 -0.5323
 6372TIP3    H219123   0.400   3.461   4.692 -1.3002 -0.2593  0.0137
 6373TIP3   OH219124   6.166   0.413   0.727  0.7764 -0.1497 -0.1664
 6373TIP3    H119125   6.242   0.442   0.777  1.3518 -2.0283  0.1080
 6373TIP3    H219126   6.197   0.339   0.676 -0.3713  0.3301 -1.6511
 6374TIP3   OH219127   4.817   5.937   1.923 -0.0667 -0.3592  0.5585
 6374TIP3    H119128   4.760   5.939   1.846 -1.7864  1.7636  1.7684
 6374TIP3    H219129   4.851   6.026   1.931 -0.0991 -0.4581  2.3206
 6375TIP3   OH219130   1.049   2.946   2.866 -0.0617  0.3584  0.0477
 6375TIP3    H119131   1.114   2.974   2.802  0.4405  0.5985  0.6463
 6375TIP3    H219132   1.025   3.026   2.913  0.9857 -0.0860  1.4107
 6376TIP3   OH219133   0.452   3.371   4.046  0.1431  0.0441 -0.1477
 6376TIP3    H119134   0.513   3.443   4.028  0.0662  0.3638  0.8545
 6376TIP3    H219135   0.390   3.374   3.973  1.2946 -0.2695 -1.1735
 6377TIP3   OH219136   1.855   1.258   0.916  0.0130  0.4283  0.1313
 6377TIP3    H119137   1.829   1.346   0.943 -1.1164  0.1511 -0.0126
 6377TIP3    H219138   1.779   1.204   0.935  0.5279 -0.4331 -0.2293
 6378TIP3   OH219139   2.375   5.843   1.654 -0.0594 -0.3253 -0.1147
 6378TIP3    H119140   2.412   5.896   1.724  0.0116 -0.0926 -0.3257
 6378TIP3    H219141   2.283   5.834   1.676  0.2878 -1.7424  0.9426
 6379TIP3   OH219142   4.694   4.252   3.222 -0.0822  0.1369  0.3453
 6379TIP3    H119143   4.696   4.323   3.286  1.5270  0.3380  0.1062
 6379TIP3    H219144   4.760   4.190   3.253  0.2659 -0.0745 -0.7799
 6380TIP3   OH219145   3.131   5.421   4.817 -0.2313 -0.0105  0.5145
 6380TIP3    H119146   3.119   5.513   4.839 -0.0897  0.0163  0.4824
 6380TIP3    H219147   3.219   5.417   4.780 -1.2616  0.3446 -2.2276
 6381TIP3   OH219148   3.803   3.074   3.581  0.1053 -0.6047 -0.2166
 6381TIP3    H119149   3.810   3.119   3.665 -1.6801 -0.3667 -0.1656
 6381TIP3    H219150   3.893   3.071   3.548  0.8103 -0.5022  1.5795
 6382TIP3   OH219151   1.190   1.431   0.883 -0.2508  0.3457 -0.7764
 6382TIP3    H119152   1.242   1.493   0.833 -2.2376  0.2296 -3.2070
 6382TIP3    H219153   1.138   1.485   0.942  1.3858  0.5653  0.5347
 6383TIP3   OH219154   1.909   4.785   3.259  0.4866 -0.5313 -0.0025
 6383TIP3    H119155   1.894   4.803   3.166  0.3184  0.3154  0.1757
 6383TIP3    H219156   2.003   4.771   3.266  0.5243 -0.4289 -0.2742
 6384TIP3   OH219157   0.160   1.993   0.308  0.1404  0.0501 -0.0802
 6384TIP3    H119158   0.236   1.950   0.270 -0.6991 -1.1236 -0.5043
 6384TIP3    H219159   0.169   1.978   0.402  1.2846  1.4012  0.0635
 6385TIP3   OH219160   4.661   4.398   1.604  0.2170  0.1372  0.0240
 6385TIP3    H119161   4.737   4.375   1.657 -0.5572  0.2313  1.2012
 6385TIP3    H219162   4.627   4.314   1.572  1.0886  0.1253 -0.9344
 6386TIP3   OH219163   5.036   2.154   4.584  0.2962  0.5131  0.4706
 6386TIP3    H119164   5.116   2.174   4.536  0.7205 -1.4674  0.2555
 6386TIP3    H219165   4.968   2.206   4.539  1.1153  0.6777 -0.6312
 6387TIP3   OH219166   3.778   0.220   4.131 -0.7837  0.1758  0.0875
 6387TIP3    H119167   3.815   0.273   4.060 -0.9713 -1.6628 -1.4709
 6387TIP3    H219168   3.824   0.249   4.209 -0.0180  1.7464 -0.8889
 6388TIP3   OH219169   3.901   1.893   1.996 -0.5283  0.1614 -0.2020
 6388TIP3    H119170   3.924   1.876   1.905  0.8525 -0.4352  0.2406
 6388TIP3    H219171   3.806   1.882   1.999 -0.6244  0.4548 -1.6146
 6389TIP3   OH219172   6.010   4.498   4.189 -0.0701  0.2087  0.2940
 6389TIP3    H119173   5.923   4.467   4.211 -0.2197 -0.7397 -1.4969
 6389TIP3    H219174   6.069   4.432   4.226 -0.0547  0.9340  1.6473
 6390TIP3   OH219175   2.036   2.164   3.320 -0.0185 -1.0026  0.3196
 6390TIP3    H119176   1.987   2.083   3.311 -1.5150 -0.3084  1.7168
 6390TIP3    H219177   2.027   2.207   3.234 -1.4225 -1.1485  0.3714
 6391TIP3   OH219178   1.253   4.751   0.558 -0.0360  0.0085  0.1690
 6391TIP3    H119179   1.335   4.749   0.508 -1.3068  0.7515 -2.1187
 6391TIP3    H219180   1.254   4.669   0.608  1.4424 -0.7076 -0.9277
 6392TIP3   OH219181   1.719   2.523   0.413 -0.1443  0.1007 -0.0539
 6392TIP3    H119182   1.802   2.567   0.400 -0.3092  0.0786 -1.3730
 6392TIP3    H219183   1.655   2.580   0.371 -0.5364 -0.7492 -0.6443
 6393TIP3   OH219184   6.377   4.214   1.885 -0.0394  0.2862  0.2692
 6393TIP3    H119185   6.348   4.253   1.803  0.3507  1.1001  0.5010
 6393TIP3    H219186   6.306   4.155   1.911  0.3693 -0.9724 -1.2810
 6394TIP3   OH219187   1.139   2.246   3.217 -0.1419 -0.0030 -0.3902
 6394TIP3    H119188   1.076   2.315   3.239  0.6384  1.4809 -2.4535
 6394TIP3    H219189   1.223   2.278   3.249 -0.4046 -2.4807  3.3751
 6395TIP3   OH219190   3.265   4.347   4.066 -0.1703  0.1046  0.5927
 6395TIP3    H119191   3.317   4.313   3.993 -2.6948 -0.3452 -1.1245
 6395TIP3    H219192   3.286   4.440   4.068  1.5367 -0.2556  0.7217
 6396TIP3   OH219193   4.799   4.717   3.532  0.2029  0.1867 -0.1524
 6396TIP3    H119194   4.811   4.721   3.626  0.1748 -0.0059 -0.1407
 6396TIP3    H219195   4.888   4.714   3.496  0.2257  0.7440 -0.1558
 6397TIP3   OH219196   4.002   0.821   3.394  0.4075  0.0361 -0.1509
 6397TIP3    H119197   4.045   0.891   3.442  1.3230  0.2478 -1.2399
 6397TIP3    H219198   3.939   0.866   3.337  0.8850 -0.0170 -0.7358
 6398TIP3   OH219199   4.562   3.575   2.928 -0.0422  0.0260  0.4783
 6398TIP3    H119200   4.632   3.580   2.863  0.2529 -0.3705  0.7599
 6398TIP3    H219201   4.572   3.655   2.979  0.6461 -0.3482  0.9500
 6399TIP3   OH219202   2.876   5.267   1.198 -0.0580 -0.1232 -0.4542
 6399TIP3    H119203   2.780   5.269   1.195 -0.0464  0.1705 -0.6024
 6399TIP3    H219204   2.903   5.358   1.187  0.1808  0.1123  1.6572
 6400TIP3   OH219205   3.199   1.570   3.558  0.1799 -0.1607 -0.5214
 6400TIP3    H119206   3.232   1.497   3.611  0.4711  0.0907 -0.3526
 6400TIP3    H219207   3.131   1.531   3.503 -2.2905  0.0710  2.0770
 6401TIP3   OH219208   6.089   2.086   4.010  0.3563  0.4050 -0.5612
 6401TIP3    H119209   6.131   2.170   3.988 -0.7291  1.5674  1.4744
 6401TIP3    H219210   6.031   2.068   3.936  1.8008  0.5608 -1.7868
 6402TIP3   OH219211   4.032   1.733   5.143 -0.0403  0.5295 -0.5897
 6402TIP3    H119212   4.032   1.803   5.077 -0.9810 -0.2074 -1.3889
 6402TIP3    H219213   3.940   1.726   5.170 -0.1084 -0.9957 -1.1679
 6403TIP3   OH219214   4.227   4.412   2.580 -0.1323  0.5583  0.3518
 6403TIP3    H119215   4.267   4.460   2.507 -2.0084  0.9706 -0.4879
 6403TIP3    H219216   4.274   4.329   2.584 -0.6691  0.0501 -2.1117
 6404TIP3   OH219217   3.140   0.484   3.950  0.1613 -0.3541  0.2325
 6404TIP3    H119218   3.134   0.578   3.966  0.9088  0.0209 -1.4675
 6404TIP3    H219219   3.129   0.475   3.855  1.9230 -1.7971  0.1175
 6405TIP3   OH219220   1.692   0.534   2.568 -0.2323  0.2931 -0.3076
 6405TIP3    H119221   1.614   0.574   2.605  0.3008  1.5022 -0.4400
 6405TIP3    H219222   1.692   0.561   2.476 -0.8910 -1.6575 -0.9331
 6406TIP3   OH219223   6.008   1.048   4.596  0.1786 -0.0835  0.8175
 6406TIP3    H119224   6.030   1.118   4.535 -0.3775  0.4440  1.2099
 6406TIP3    H219225   5.936   1.084   4.648 -1.1654 -1.4763  0.0220
 6407TIP3   OH219226   6.161   3.271   0.620  0.1354  0.2866  0.6734
 6407TIP3    H119227   6.154   3.183   0.657  1.4701 -0.1346 -0.0201
 6407TIP3    H219228   6.073   3.309   0.632 -1.3186 -2.0984 -1.4424
 6408TIP3   OH219229   3.514   4.200   1.984 -0.4945 -0.4170  0.1061
 6408TIP3    H119230   3.476   4.122   2.024 -1.2270 -1.0000 -1.6017
 6408TIP3    H219231   3.455   4.221   1.911  0.2157  1.1762 -0.0601
 6409TIP3   OH219232   1.002   1.409   2.597 -0.2831 -0.7269  0.1296
 6409TIP3    H119233   0.984   1.348   2.668  1.1337 -0.5401  0.6836
 6409TIP3    H219234   1.030   1.353   2.524  1.4933 -0.7799  0.7861
 6410TIP3   OH219235   3.838   2.894   2.803 -0.4070  0.3112  0.2211
 6410TIP3    H119236   3.837   2.821   2.741  0.8173 -0.4902  1.0844
 6410TIP3    H219237   3.747   2.907   2.827 -0.7155 -0.4817 -0.4677
 6411TIP3   OH219238   0.232   3.924   3.145 -0.1516  0.2284 -0.7699
 6411TIP3    H119239   0.165   3.916   3.077 -1.0560 -0.8865  0.2049
 6411TIP3    H219240   0.253   3.833   3.168 -1.1443  0.5513  1.6476
 6412TIP3   OH219241   0.968   2.859   3.757  0.8491 -0.7732 -0.3681
 6412TIP3    H119242   0.967   2.932   3.695  1.6495  0.3630  0.8945
 6412TIP3    H219243   1.017   2.892   3.833  0.9788 -2.5297  0.3713
 6413TIP3   OH219244   5.483   3.128   1.802  0.1783  0.4062  0.0045
 6413TIP3    H119245   5.428   3.145   1.878 -1.3085 -0.4135 -0.8456
 6413TIP3    H219246   5.480   3.209   1.751  1.2407  0.9858  0.7993
 6414TIP3   OH219247   4.967   4.536   2.989  0.2493 -0.1525 -0.9049
 6414TIP3    H119248   4.941   4.521   3.080  0.9126  0.2604 -0.6409
 6414TIP3    H219249   5.007   4.623   2.990 -3.7959  1.9680 -2.4511
 6415TIP3   OH219250   3.233   1.731   5.042 -0.4137  0.0071 -0.3048
 6415TIP3    H119251   3.175   1.675   5.095 -1.0644  1.5506  0.6758
 6415TIP3    H219252   3.274   1.670   4.981  0.5553 -1.9420  2.1030
 6416TIP3   OH219253   3.213   1.624   2.287  0.2079 -0.0772 -0.6686
 6416TIP3    H119254   3.214   1.535   2.323  1.2910  0.0162 -0.4251
 6416TIP3    H219255   3.131   1.662   2.319  1.3094  0.1500  2.2088
 6417TIP3   OH219256   0.913   4.884   3.321  0.2019 -0.1736  0.2890
 6417TIP3    H119257   1.004   4.894   3.291 -0.8950  0.3632 -3.3048
 6417TIP3    H219258   0.899   4.957   3.381  1.8021  0.3955  0.0176
 6418TIP3   OH219259   5.163   3.713   0.501 -0.1718  0.1603  0.3208
 6418TIP3    H119260   5.249   3.733   0.463 -0.0297 -1.2001 -0.1164
 6418TIP3    H219261   5.100   3.755   0.443  0.1887  1.6966  0.9831
 6419TIP3   OH219262   3.422   2.088   0.043  0.3609  0.4790 -0.1672
 6419TIP3    H119263   3.364   2.029   0.091 -0.5248  1.5331  0.1079
 6419TIP3    H219264   3.379   2.173   0.048  1.0771  0.9455 -1.4518
 6420TIP3   OH219265   2.696   2.489   4.970 -0.4353  0.4004 -0.1020
 6420TIP3    H119266   2.696   2.547   5.046 -2.6089  0.0009  0.2619
 6420TIP3    H219267   2.690   2.549   4.895  0.2516  0.7370  0.1072
 6421TIP3   OH219268   5.489   4.139   2.428 -0.5472 -0.3462  0.7993
 6421TIP3    H119269   5.418   4.185   2.473 -0.8923 -1.2575  1.2215
 6421TIP3    H219270   5.548   4.113   2.499  0.2320  0.4273  0.4453
 6422TIP3   OH219271   0.322   0.124   3.630 -0.0595 -0.1891  0.1763
 6422TIP3    H119272   0.324   0.040   3.675 -2.3129 -0.6002 -0.3919
 6422TIP3    H219273   0.245   0.168   3.665  0.7889  1.4526  0.0848
 6423TIP3   OH219274   0.151   2.019   3.929  0.0295  0.6643 -0.6316
 6423TIP3    H119275   0.064   2.018   3.889 -0.9503 -0.1760  1.4085
 6423TIP3    H219276   0.202   1.956   3.877 -1.4205 -0.9849 -0.1354
 6424TIP3   OH219277   2.705   4.037   1.653  0.0784  0.1028  0.0160
 6424TIP3    H119278   2.620   4.081   1.664  1.8884  3.3657  4.0979
 6424TIP3    H219279   2.744   4.079   1.576 -1.1583  0.0785 -0.6518
 6425TIP3   OH219280   5.885   4.275   0.567  0.3754 -0.0085 -0.2674
 6425TIP3    H119281   5.791   4.265   0.583  0.3808  0.2675 -0.0605
 6425TIP3    H219282   5.921   4.186   0.577 -0.3541 -0.8179 -3.7303
 6426TIP3   OH219283   4.119   4.045   2.076 -0.4423 -0.1495 -0.4709
 6426TIP3    H119284   4.030   4.076   2.061 -0.0900 -0.2505 -3.5953
 6426TIP3    H219285   4.153   4.101   2.146 -3.2610 -0.9271  1.6689
 6427TIP3   OH219286   1.943   1.559   2.693  0.3163  0.6167  0.1241
 6427TIP3    H119287   1.982   1.473   2.685  0.1127  0.6088 -0.9043
 6427TIP3    H219288   1.982   1.610   2.622  0.2918  1.3180  0.6017
 6428TIP3   OH219289   0.944   5.939   4.474  0.7571 -0.1138  0.5557
 6428TIP3    H119290   0.855   5.910   4.492  1.4181 -1.3260  2.0604
 6428TIP3    H219291   0.969   5.991   4.551  1.5295 -0.2154  0.3867
 6429TIP3   OH219292   3.777   5.150   4.409 -0.5260 -0.4183 -0.1761
 6429TIP3    H119293   3.863   5.112   4.390 -0.6686 -0.3486 -0.9960
 6429TIP3    H219294   3.721   5.120   4.337 -0.2087  2.8744 -1.9609
 6430TIP3   OH219295   1.973   3.792   3.129 -0.1371 -0.5956  0.7205
 6430TIP3    H119296   1.940   3.827   3.046 -0.6773 -1.8599  0.3820
 6430TIP3    H219297   2.051   3.741   3.105  1.4639  1.4100  1.3727
 6431TIP3   OH219298   5.289   0.182   2.087  0.3504 -0.2642 -0.4224
 6431TIP3    H119299   5.272   0.090   2.110  0.1275  0.0807  0.8805
 6431TIP3    H219300   5.371   0.203   2.131 -1.8329  1.4338  3.2400
 6432TIP3   OH219301   3.982   4.857   3.024  0.0168  0.0590  0.0997
 6432TIP3    H119302   3.912   4.915   2.995  0.0428 -0.2672 -0.6262
 6432TIP3    H219303   3.998   4.798   2.950  1.6790  0.6964 -0.1088
 6433TIP3   OH219304   1.781   4.398   4.762 -0.1644 -0.3187 -0.2425
 6433TIP3    H119305   1.793   4.400   4.667 -0.2324 -0.2396 -0.2493
 6433TIP3    H219306   1.694   4.435   4.776 -1.2751 -2.6525 -0.3432
 6434TIP3   OH219307   0.186   2.670   3.270  0.6544  0.2750 -0.3730
 6434TIP3    H119308   0.227   2.589   3.300  0.7981  0.2348 -0.6791
 6434TIP3    H219309   0.250   2.710   3.211  0.9286  1.0138  0.3966
 6435TIP3   OH219310   4.569   3.283   3.472 -0.1970  0.2374  0.1646
 6435TIP3    H119311   4.657   3.311   3.445  0.0336  0.8006  1.4336
 6435TIP3    H219312   4.539   3.351   3.532 -0.8988 -0.6945  0.9052
 6436TIP3   OH219313   2.186   2.665   3.312  0.6000 -0.3546 -0.4847
 6436TIP3    H119314   2.184   2.583   3.362  1.9683  1.1543  2.3193
 6436TIP3    H219315   2.094   2.685   3.295  0.0018 -0.7838  1.8984
 6437TIP3   OH219316   5.438   1.619   3.337  0.1596  0.0864 -0.1238
 6437TIP3    H119317   5.404   1.701   3.301  0.1977 -0.0064 -0.3704
 6437TIP3    H219318   5.453   1.638   3.429  2.5741  1.1329 -0.6731
 6438TIP3   OH219319   2.452   0.089   1.462 -0.1929  0.1229  0.4893
 6438TIP3    H119320   2.413   0.119   1.379  1.1801  0.3358 -0.1163
 6438TIP3    H219321   2.528   0.146   1.474  1.5102 -1.9743  0.2042
 6439TIP3   OH219322   1.866   5.060   2.238 -0.1700  0.5601  0.2676
 6439TIP3    H119323   1.928   5.043   2.308  0.8793 -2.9423 -1.3175
 6439TIP3    H219324   1.781   5.032   2.273 -0.3292  2.0758  1.2147
 6440TIP3   OH219325   4.287   0.290   3.067 -0.0402  0.2382  0.5984
 6440TIP3    H119326   4.340   0.363   3.099 -0.9491  0.9825  0.4306
 6440TIP3    H219327   4.302   0.289   2.973  1.8014 -1.2911  0.8307
 6441TIP3   OH219328   5.477   2.185   3.265 -0.4889 -0.4851 -0.3057
 6441TIP3    H119329   5.538   2.169   3.337  0.2615  0.4202 -0.7145
 6441TIP3    H219330   5.444   2.098   3.242 -0.1623 -0.8688  0.6196
 6442TIP3   OH219331   1.238   2.093   0.555  0.3152  0.0713 -0.5185
 6442TIP3    H119332   1.270   2.182   0.572  0.3245  0.3875 -2.0371
 6442TIP3    H219333   1.223   2.091   0.461  0.3947 -1.5758 -0.5189
 6443TIP3   OH219334   0.029   1.039   0.270  0.3619 -0.0910 -0.2408
 6443TIP3    H119335  -0.017   0.989   0.338 -1.4970 -0.7394 -1.8619
 6443TIP3    H219336   0.114   0.996   0.261 -0.0046 -1.0098  0.5554
 6444TIP3   OH219337   2.394   1.569   4.192 -0.1323  0.1295 -0.1623
 6444TIP3    H119338   2.479   1.528   4.210 -0.7333 -1.9996 -1.7245
 6444TIP3    H219339   2.330   1.498   4.205 -1.4522  1.1299 -0.9802
 6445TIP3   OH219340   0.534   5.942   3.923 -0.0458 -0.0012  0.3839
 6445TIP3    H119341   0.599   6.001   3.963 -0.9118 -0.1751  2.1607
 6445TIP3    H219342   0.466   5.934   3.989 -1.1105 -1.1080 -0.8016
 6446TIP3   OH219343   4.020   2.771   1.330 -0.2025 -0.0084  0.4066
 6446TIP3    H119344   3.994   2.862   1.344 -1.3491 -0.2857  0.1357
 6446TIP3    H219345   4.040   2.738   1.417  0.5508  0.5879  0.4719
 6447TIP3   OH219346   1.619   5.611   3.674  0.0414  0.3203  0.0195
 6447TIP3    H119347   1.525   5.632   3.673 -0.3146 -1.1754 -0.1599
 6447TIP3    H219348   1.623   5.520   3.646  1.4418 -0.0711  1.3661
 6448TIP3   OH219349   5.119   1.213   1.294 -0.1994 -0.2139 -0.3580
 6448TIP3    H119350   5.172   1.170   1.360 -1.7522 -0.1597  0.9935
 6448TIP3    H219351   5.171   1.289   1.266  0.5917 -0.3819  0.6141
 6449TIP3   OH219352   1.893   0.626   0.745  0.5594 -0.0656 -0.7744
 6449TIP3    H119353   1.808   0.591   0.719  0.5874 -0.9963  0.3124
 6449TIP3    H219354   1.938   0.552   0.788  0.6427  1.2424  1.5470
 6450TIP3   OH219355   4.666   2.508   0.443  0.3501  0.4589 -0.1639
 6450TIP3    H119356   4.607   2.570   0.486  1.3007  0.8435  0.6292
 6450TIP3    H219357   4.688   2.550   0.359 -2.4393 -0.8267 -1.6723
 6451TIP3   OH219358   5.948   3.451   0.713  0.0989 -0.2625 -0.2259
 6451TIP3    H119359   5.877   3.510   0.738 -1.0648 -2.2471  1.5222
 6451TIP3    H219360   5.940   3.441   0.618 -1.5062  0.1401 -0.1476
 6452TIP3   OH219361   1.111   1.884   4.026 -0.1675  0.1436  0.4175
 6452TIP3    H119362   1.167   1.909   4.099  1.0425 -0.3279 -0.3181
 6452TIP3    H219363   1.141   1.937   3.953 -1.1912  0.4152  0.1732
 6453TIP3   OH219364   4.771   5.927   1.301  0.6958 -0.4881 -0.1861
 6453TIP3    H119365   4.856   5.889   1.279  1.2013  0.2976  0.3459
 6453TIP3    H219366   4.712   5.897   1.232  1.4242 -0.9763 -0.6024
 6454TIP3   OH219367   3.691   0.126   1.224  0.8218 -0.3517 -0.2404
 6454TIP3    H119368   3.635   0.134   1.301  1.2997  1.4335 -0.0253
 6454TIP3    H219369   3.779   0.147   1.255  1.5884 -2.6192 -0.6752
 6455TIP3   OH219370   5.335   5.255   3.112 -0.1258  0.1719 -0.2077
 6455TIP3    H119371   5.348   5.282   3.021  0.8505 -0.1619 -0.1784
 6455TIP3    H219372   5.305   5.335   3.157  1.6086  0.9682 -0.3571
 6456TIP3   OH219373   0.256   1.872   4.934  0.4967 -0.3637  0.1720
 6456TIP3    H119374   0.289   1.948   4.886  0.2495 -1.3719 -1.7194
 6456TIP3    H219375   0.308   1.869   5.014  0.5218  1.7553  0.2900
 6457TIP3   OH219376   3.644   4.481   2.059 -1.4506 -0.2334 -0.1484
 6457TIP3    H119377   3.648   4.543   1.986 -0.5728  0.1995  0.2508
 6457TIP3    H219378   3.643   4.395   2.017  1.7479 -0.1220 -0.7172
 6458TIP3   OH219379   6.256   5.428   4.415  0.2476  0.2466 -0.4445
 6458TIP3    H119380   6.317   5.502   4.406 -0.6714  1.1480  0.4748
 6458TIP3    H219381   6.287   5.364   4.351  1.7371  0.9655 -0.4903
 6459TIP3   OH219382   2.242   0.992   2.553 -0.1869  0.0254  0.1680
 6459TIP3    H119383   2.274   0.995   2.462 -1.1805  1.3887 -0.1508
 6459TIP3    H219384   2.322   0.983   2.605  0.4317 -0.3409 -0.8007
 6460TIP3   OH219385   1.752   1.137   3.644 -0.4498 -0.4060  0.2080
 6460TIP3    H119386   1.841   1.157   3.674 -0.0989 -0.5626 -0.6714
 6460TIP3    H219387   1.750   1.169   3.554 -0.9967 -1.2155 -0.0820
 6461TIP3   OH219388   3.187   0.477   0.095 -0.2030  0.3312 -0.7543
 6461TIP3    H119389   3.261   0.503   0.151 -0.3807  0.3384 -0.5209
 6461TIP3    H219390   3.206   0.517   0.010  0.7249 -0.7535 -1.0805
 6462TIP3   OH219391   0.601   1.192   3.229  0.2011 -0.3167 -0.0396
 6462TIP3    H119392   0.607   1.282   3.262  0.2169 -0.0524 -0.7380
 6462TIP3    H219393   0.688   1.174   3.194  0.7510 -1.2727  1.7296
 6463TIP3   OH219394   1.831   5.323   5.039 -0.3261  0.5114  0.3769
 6463TIP3    H119395   1.835   5.248   4.980  0.3170  2.1464 -1.7668
 6463TIP3    H219396   1.741   5.325   5.070 -0.4250 -0.9540  0.2319
 6464TIP3   OH219397   2.214   1.849   0.696 -0.3095 -0.2300  0.7347
 6464TIP3    H119398   2.292   1.861   0.750 -0.5128  1.7898  0.6679
 6464TIP3    H219399   2.247   1.828   0.609  0.3532  3.0189  0.0917
 6465TIP3   OH219400   3.578   1.949   1.524 -0.2230 -0.1953  0.0683
 6465TIP3    H119401   3.670   1.973   1.524  0.2097 -1.7186  0.7251
 6465TIP3    H219402   3.546   1.979   1.609 -0.3073  0.2134 -0.1052
 6466TIP3   OH219403   2.238   3.991   3.934  0.2943 -0.2648 -0.0488
 6466TIP3    H119404   2.266   4.060   3.994 -2.5381 -0.3070  1.4721
 6466TIP3    H219405   2.203   4.038   3.858  1.7692 -0.1715 -0.7077
 6467TIP3   OH219406   1.934   0.242   3.838 -0.3391  0.1041 -0.2621
 6467TIP3    H119407   1.875   0.318   3.846 -0.5015  0.0052 -0.5031
 6467TIP3    H219408   1.998   0.269   3.773 -0.1543  0.1850 -0.0503
 6468TIP3   OH219409   6.058   3.385   2.382  0.1676 -0.4324  0.7376
 6468TIP3    H119410   5.968   3.375   2.351 -0.4258 -0.6508  2.4355
 6468TIP3    H219411   6.076   3.478   2.374  0.0589 -0.4771 -0.2367
 6469TIP3   OH219412   6.019   4.297   2.985  0.1061  0.3429  0.1928
 6469TIP3    H119413   6.016   4.285   2.890 -2.2019 -1.5937  0.4283
 6469TIP3    H219414   6.113   4.296   3.006  0.6357 -0.0763 -1.9570
 6470TIP3   OH219415   2.921   5.932   1.100  0.1858 -0.3574  0.1143
 6470TIP3    H119416   2.857   5.998   1.126 -0.7297 -1.2145  0.0960
 6470TIP3    H219417   2.996   5.982   1.068 -2.1453  0.8553 -4.2069
 6471TIP3   OH219418   1.638   0.739   1.923  0.1289  0.3639 -0.5472
 6471TIP3    H119419   1.648   0.649   1.953 -0.8401 -0.1358 -1.6830
 6471TIP3    H219420   1.593   0.783   1.995 -0.7443 -0.4247 -0.5992
 6472TIP3   OH219421   0.760   4.723   4.874  0.6908  0.6075 -0.0494
 6472TIP3    H119422   0.774   4.747   4.782  0.3995  0.4079 -0.1478
 6472TIP3    H219423   0.716   4.799   4.912  1.1468  0.8435  0.0226
 6473TIP3   OH219424   4.374   3.750   4.632 -0.3219 -0.0234 -0.6210
 6473TIP3    H119425   4.348   3.808   4.560  2.8207  1.1866 -0.9468
 6473TIP3    H219426   4.469   3.751   4.631 -0.1222 -3.0064  1.2277
 6474TIP3   OH219427   3.902   2.895   4.182  0.0592  0.3790 -0.6968
 6474TIP3    H119428   3.987   2.919   4.145  0.4659  0.2268  0.1067
 6474TIP3    H219429   3.906   2.800   4.191  0.4331  0.5019  0.7772
 6475TIP3   OH219430   5.742   4.713   4.412  0.4062  0.2967  0.2951
 6475TIP3    H119431   5.801   4.698   4.487 -0.1418  0.6134  0.7963
 6475TIP3    H219432   5.734   4.627   4.371  0.6946  0.1103  0.6190
 6476TIP3   OH219433   3.706   1.759   2.361  1.0754  0.2916 -0.3464
 6476TIP3    H119434   3.628   1.761   2.305  1.6452 -2.6268 -1.4021
 6476TIP3    H219435   3.688   1.690   2.425  2.5344 -0.0067 -0.2191
 6477TIP3   OH219436   0.766   5.730   0.964  0.2062 -0.9504 -0.4481
 6477TIP3    H119437   0.809   5.669   1.024 -0.5550  0.8790  2.1159
 6477TIP3    H219438   0.685   5.755   1.009 -0.3946  0.5672 -2.2273
 6478TIP3   OH219439   3.394   5.750   4.666  0.2351 -0.1304 -0.1031
 6478TIP3    H119440   3.352   5.790   4.742  0.4838 -0.7114  0.3506
 6478TIP3    H219441   3.487   5.772   4.677  0.4055 -1.0021  0.2695
 6479TIP3   OH219442   4.526   2.743   0.521  0.1217 -0.0265  0.0347
 6479TIP3    H119443   4.568   2.769   0.604 -1.1457 -0.9343  0.9865
 6479TIP3    H219444   4.484   2.824   0.490  1.5117  0.5931 -0.3151
 6480TIP3   OH219445   3.203   4.113   4.424  0.4350 -0.3476 -0.1932
 6480TIP3    H119446   3.208   4.139   4.332  2.7008  0.5628  0.1324
 6480TIP3    H219447   3.192   4.018   4.422  2.1286 -0.5556 -1.4436
 6481TIP3   OH219448   4.943   5.132   1.558  0.2800 -0.6137 -0.3461
 6481TIP3    H119449   4.934   5.116   1.651 -0.9557  0.3188 -0.2783
 6481TIP3    H219450   5.030   5.171   1.548  0.4562 -0.8160  0.3897
 6482TIP3   OH219451   3.777   4.845   0.686  0.5479  0.1833  0.1429
 6482TIP3    H119452   3.730   4.929   0.682  0.9642  0.4416  0.5245
 6482TIP3    H219453   3.709   4.779   0.670  0.4338  0.6405 -1.3864
 6483TIP3   OH219454   2.632   5.847   2.111 -0.1023 -0.1326 -0.3149
 6483TIP3    H119455   2.706   5.908   2.118 -0.3394  0.2038 -0.7312
 6483TIP3    H219456   2.672   5.760   2.119  0.4589  0.0108 -1.3844
 6484TIP3   OH219457   0.622   0.644   0.577 -0.7494 -0.1040 -0.2293
 6484TIP3    H119458   0.704   0.636   0.527 -0.6601  0.9311 -0.2685
 6484TIP3    H219459   0.606   0.556   0.610  0.7218 -0.2028  0.3207
 6485TIP3   OH219460   4.613   5.306   3.417  0.0386  0.8305 -0.2826
 6485TIP3    H119461   4.658   5.295   3.501 -0.4595  0.0992 -0.0980
 6485TIP3    H219462   4.586   5.217   3.393 -0.6024  1.1571 -0.7871
 6486TIP3   OH219463   6.171   3.734   3.560  0.1378  0.8792 -0.2451
 6486TIP3    H119464   6.146   3.810   3.612 -0.9921  0.8048 -0.6423
 6486TIP3    H219465   6.267   3.732   3.564  0.1939  2.3688 -0.2955
 6487TIP3   OH219466   2.344   4.205   2.573 -0.4897  0.0954  0.2603
 6487TIP3    H119467   2.254   4.224   2.548 -0.8431 -0.0276  1.3863
 6487TIP3    H219468   2.395   4.223   2.494 -1.4094  0.8653 -0.1821
 6488TIP3   OH219469   3.992   0.556   1.321 -0.0058  0.4442  0.5368
 6488TIP3    H119470   4.023   0.647   1.319 -0.3300  0.6264  2.1799
 6488TIP3    H219471   3.977   0.534   1.229  3.2876  0.9190 -0.2430
 6489TIP3   OH219472   0.698   5.082   4.473 -0.2533 -0.8407 -0.3517
 6489TIP3    H119473   0.754   5.142   4.523 -2.1272 -0.6606  1.6879
 6489TIP3    H219474   0.735   4.996   4.492 -0.9562 -0.7876  1.5287
 6490TIP3   OH219475   3.977   4.560   4.523  0.3538  0.0951 -0.1622
 6490TIP3    H119476   4.015   4.500   4.459 -0.2914 -0.6495  0.1345
 6490TIP3    H219477   3.895   4.518   4.550  0.1632  0.8386  0.4703
 6491TIP3   OH219478   2.234   0.574   2.191 -0.1801 -0.2136  0.2484
 6491TIP3    H119479   2.179   0.530   2.256  2.0851 -1.4547  1.4480
 6491TIP3    H219480   2.240   0.512   2.119  0.6921 -0.6792  0.7046
 6492TIP3   OH219481   4.091   2.663   2.750  0.2347  0.5150  0.0683
 6492TIP3    H119482   4.047   2.670   2.665  0.5900  0.4764 -0.1229
 6492TIP3    H219483   4.021   2.651   2.813  0.0309 -0.4620 -0.3361
 6493TIP3   OH219484   0.066   1.084   4.081  0.7146 -0.2101 -0.5371
 6493TIP3    H119485   0.141   1.114   4.030  1.4401 -0.6000  0.2882
 6493TIP3    H219486   0.039   1.161   4.131  0.5608 -0.0761 -0.8185
 6494TIP3   OH219487   0.721   1.722   0.180 -0.4364  0.4812  0.0455
 6494TIP3    H119488   0.788   1.704   0.247 -0.3574  0.8758  0.0731
 6494TIP3    H219489   0.768   1.769   0.112 -0.8450  1.4369  0.4088
 6495TIP3   OH219490   1.963   1.903   3.317 -0.4146  0.0356  0.1662
 6495TIP3    H119491   1.903   1.866   3.381 -1.5991 -0.1679 -1.0359
 6495TIP3    H219492   2.025   1.832   3.298  0.4099  0.3311  1.6017
 6496TIP3   OH219493   2.848   0.137   1.367  0.0330 -0.1673  0.1250
 6496TIP3    H119494   2.852   0.056   1.417 -0.0888 -1.7200 -2.2376
 6496TIP3    H219495   2.938   0.170   1.368  1.0667 -2.5464 -2.1637
 6497TIP3   OH219496   3.807   4.305   1.048 -0.3207 -0.1181 -0.6981
 6497TIP3    H119497   3.726   4.339   1.010 -1.3874 -1.1097  0.5787
 6497TIP3    H219498   3.816   4.218   1.008  0.3996  0.1782 -1.1992
 6498TIP3   OH219499   0.409   4.351   3.309 -0.0831 -0.0469  0.1056
 6498TIP3    H119500   0.465   4.392   3.376 -0.0586  1.7228 -0.9637
 6498TIP3    H219501   0.470   4.325   3.240 -0.1306 -1.7228  0.6542
 6499TIP3   OH219502   5.367   3.601   2.892  0.3491  0.0282 -0.3103
 6499TIP3    H119503   5.367   3.505   2.886 -0.5647 -0.2407  2.4054
 6499TIP3    H219504   5.444   3.621   2.946  0.6989  0.8733 -1.1023
 6500TIP3   OH219505   1.201   5.683   0.675  0.9738 -0.3186  0.2455
 6500TIP3    H119506   1.115   5.641   0.671  1.1070 -0.5787  0.1087
 6500TIP3    H219507   1.249   5.647   0.600  1.2071 -0.1877  0.3319
 6501TIP3   OH219508   4.552   2.722   2.521  0.0020  0.0846  0.0024
 6501TIP3    H119509   4.640   2.702   2.553  0.2422  1.2211  0.0980
 6501TIP3    H219510   4.509   2.767   2.594 -1.1470 -1.6548  0.4482
 6502TIP3   OH219511   4.801   1.707   3.998 -0.1967  0.0678  0.1477
 6502TIP3    H119512   4.789   1.797   4.028  0.8984 -0.7268  3.4517
 6502TIP3    H219513   4.819   1.715   3.905 -1.2279  3.1510  0.0887
 6503TIP3   OH219514   2.737   3.447   2.956 -0.6226 -0.0991  0.0768
 6503TIP3    H119515   2.783   3.367   2.929  0.6325  1.2629 -2.2027
 6503TIP3    H219516   2.720   3.435   3.049  0.4721 -2.5576  0.0432
 6504TIP3   OH219517   5.453   1.029   3.982  0.1488 -0.3745  0.3349
 6504TIP3    H119518   5.534   1.034   4.032  0.3702  1.0834 -0.1114
 6504TIP3    H219519   5.454   0.942   3.942  1.8101 -0.1563 -0.1580
 6505TIP3   OH219520   1.836   2.524   3.832  0.3429  0.3284 -0.1864
 6505TIP3    H119521   1.756   2.574   3.817  0.3824  0.4730  0.0721
 6505TIP3    H219522   1.826   2.487   3.920  1.0192  1.2505  0.3010
 6506TIP3   OH219523   0.570   4.211   2.712  0.7696 -0.0163  0.0958
 6506TIP3    H119524   0.588   4.212   2.618 -1.6399  0.5441 -0.4320
 6506TIP3    H219525   0.601   4.297   2.742  1.0641  0.0159 -0.2780
 6507TIP3   OH219526   2.359   0.559   1.045  0.1380 -0.5417  0.1432
 6507TIP3    H119527   2.404   0.596   0.969 -0.9982  1.2253  0.2800
 6507TIP3    H219528   2.314   0.482   1.012 -0.2605  0.1500 -0.9771
 6508TIP3   OH219529   3.248   3.552   0.306  0.0806  0.1426 -0.2537
 6508TIP3    H119530   3.259   3.575   0.213  1.3391 -1.8917 -0.6935
 6508TIP3    H219531   3.161   3.513   0.311  0.5773 -1.1098 -0.9409
 6509TIP3   OH219532   2.424   1.802   2.039 -0.4612  0.0449 -0.4108
 6509TIP3    H119533   2.383   1.836   2.119  1.0106 -0.0169  0.4230
 6509TIP3    H219534   2.380   1.846   1.968 -2.6443 -0.7670  0.3625
 6510TIP3   OH219535   5.456   1.269   3.121 -0.2555  0.4499  0.0913
 6510TIP3    H119536   5.533   1.269   3.177  0.2967 -0.3189 -0.6306
 6510TIP3    H219537   5.402   1.341   3.153  0.7843  1.0322  0.5777
 6511TIP3   OH219538   1.592   4.675   0.129 -0.0046 -0.2995  0.4069
 6511TIP3    H119539   1.643   4.599   0.157  0.0534 -0.2073  0.5515
 6511TIP3    H219540   1.543   4.701   0.207 -0.7535 -0.7725  0.0995
 6512TIP3   OH219541   6.275   5.097   0.611 -0.4847 -0.1754 -0.2072
 6512TIP3    H119542   6.266   5.171   0.550  1.4023 -0.1220 -0.4686
 6512TIP3    H219543   6.263   5.136   0.698 -0.1604  0.3130 -0.3803
 6513TIP3   OH219544   5.601   4.281   0.564 -0.1087 -0.2935  0.1560
 6513TIP3    H119545   5.567   4.194   0.583 -1.5424  0.4885  1.4073
 6513TIP3    H219546   5.614   4.322   0.650  1.8704  0.2800 -0.3536
 6514TIP3   OH219547   1.583   1.097   1.693 -0.0723  0.0109 -0.3885
 6514TIP3    H119548   1.553   1.149   1.767  1.3257  1.6681 -0.9294
 6514TIP3    H219549   1.673   1.073   1.715  0.2413  0.2378 -1.3765
 6515TIP3   OH219550   4.514   0.521   1.096 -0.6266 -0.0795 -0.1439
 6515TIP3    H119551   4.535   0.613   1.113 -1.3051  0.2035 -0.7906
 6515TIP3    H219552   4.533   0.510   1.003  3.3655 -1.6771  0.6357
 6516TIP3   OH219553   3.449   0.707   3.987  0.1536 -0.1154 -0.0014
 6516TIP3    H119554   3.482   0.785   4.030  1.4024 -1.2201  1.1238
 6516TIP3    H219555   3.460   0.725   3.893  2.5539  0.1950  0.2814
 6517TIP3   OH219556   4.720   2.459   1.128 -0.4580  0.4583  0.1134
 6517TIP3    H119557   4.776   2.497   1.060  0.7662 -1.1951  0.1322
 6517TIP3    H219558   4.736   2.514   1.205  0.7218  0.3694 -0.0434
 6518TIP3   OH219559   4.875   4.804   4.038  0.0931 -0.6538  0.3490
 6518TIP3    H119560   4.807   4.831   4.099  0.7206  2.2633 -0.1069
 6518TIP3    H219561   4.957   4.827   4.081  0.7127 -2.0662 -0.0345
 6519TIP3   OH219562   1.485   5.553   1.536  0.8796  0.1326 -0.1764
 6519TIP3    H119563   1.448   5.639   1.559  0.0118 -0.5083  0.8828
 6519TIP3    H219564   1.540   5.530   1.610 -0.5640 -1.1661  0.5461
 6520TIP3   OH219565   6.317   0.893   0.941 -0.1070  0.4265 -0.4553
 6520TIP3    H119566   6.381   0.926   1.004 -0.9122 -0.7262  1.0047
 6520TIP3    H219567   6.292   0.807   0.974 -2.7496  1.0150 -0.7111
 6521TIP3   OH219568   0.477   3.918   2.999  0.2197 -0.1175 -0.0399
 6521TIP3    H119569   0.410   3.944   3.063 -0.9493 -4.4656  0.8005
 6521TIP3    H219570   0.441   3.945   2.914 -1.1798  0.2267  0.6388
 6522TIP3   OH219571   4.466   4.213   3.548  0.6278  0.1742 -0.6016
 6522TIP3    H119572   4.378   4.208   3.583 -0.0796  1.7622 -2.0108
 6522TIP3    H219573   4.458   4.182   3.458  1.8082 -1.0046 -0.3405
 6523TIP3   OH219574   1.429   0.588   2.101  0.1201  0.7600 -0.4151
 6523TIP3    H119575   1.373   0.513   2.122  0.8049  0.1612 -0.6371
 6523TIP3    H219576   1.472   0.609   2.184  0.2933  0.5801 -0.4565
 6524TIP3   OH219577   2.070   0.648   0.999 -0.3551 -0.4388  0.0210
 6524TIP3    H119578   2.165   0.657   0.992 -0.3205 -0.1262  0.7258
 6524TIP3    H219579   2.048   0.576   0.941  0.4308 -1.0915  0.5062
 6525TIP3   OH219580   5.435   3.498   3.485  0.0848 -0.0801  0.9973
 6525TIP3    H119581   5.398   3.486   3.573  0.6689 -0.9313  1.1412
 6525TIP3    H219582   5.508   3.560   3.499 -1.6258  2.1657  0.5998
 6526TIP3   OH219583   6.219   0.872   0.420  0.2582 -0.6323 -0.2764
 6526TIP3    H119584   6.201   0.778   0.430 -1.0052 -0.2490  1.5241
 6526TIP3    H219585   6.269   0.895   0.499 -3.0797  0.9753  1.5673
 6527TIP3   OH219586   6.326   4.418   4.684  0.4867  0.7403 -0.5295
 6527TIP3    H119587   6.352   4.465   4.604  0.2294 -0.6916 -1.4873
 6527TIP3    H219588   6.314   4.327   4.656  1.3833 -0.0219  1.3369
 6528TIP3   OH219589   2.236   2.392   3.342  0.0621  0.1334  0.2553
 6528TIP3    H119590   2.297   2.347   3.284  0.1874  2.6800 -1.7476
 6528TIP3    H219591   2.150   2.357   3.318  0.4296 -1.7654  1.4673
 6529TIP3   OH219592   1.303   1.282   3.159  0.8475  0.2674 -0.1217
 6529TIP3    H119593   1.286   1.190   3.178  0.8826  0.3602  0.3749
 6529TIP3    H219594   1.239   1.305   3.091  1.5472 -0.4044 -1.0260
 6530TIP3   OH219595   4.427   4.932   1.297  0.0922 -0.8190 -0.3432
 6530TIP3    H119596   4.486   4.857   1.302  0.9592 -0.3039 -2.0172
 6530TIP3    H219597   4.355   4.910   1.357  0.3221 -2.9748 -0.7672
 6531TIP3   OH219598   2.754   1.480   0.730  0.1198 -0.0255  0.0582
 6531TIP3    H119599   2.846   1.457   0.731  0.4159  0.9649 -1.6214
 6531TIP3    H219600   2.752   1.575   0.717 -1.1238 -0.0866 -0.4232
 6532TIP3   OH219601   4.673   4.079   4.912  0.9353 -0.2278 -0.4229
 6532TIP3    H119602   4.660   4.047   4.823  1.3778 -0.0196 -0.5636
 6532TIP3    H219603   4.592   4.055   4.958  0.7067 -0.3397 -0.8767
 6533TIP3   OH219604   3.751   3.206   1.374  0.2479  0.1793 -0.2064
 6533TIP3    H119605   3.842   3.184   1.356  0.4764  1.0207 -0.1269
 6533TIP3    H219606   3.702   3.128   1.349  1.0649 -0.5952  0.5598
 6534TIP3   OH219607   5.761   1.165   0.322 -0.0128  0.1043 -0.0658
 6534TIP3    H119608   5.824   1.211   0.378  0.6660  1.0529 -1.5465
 6534TIP3    H219609   5.800   1.079   0.307  0.4935  0.3570 -0.2157
 6535TIP3   OH219610   1.905   0.873   4.226  0.3675 -0.4095  0.2502
 6535TIP3    H119611   1.884   0.844   4.137 -1.0013  0.8962  0.0989
 6535TIP3    H219612   1.894   0.795   4.280 -0.7683 -0.7700 -0.4623
 6536TIP3   OH219613   0.510   2.129   3.893 -0.3646  0.0687 -0.1348
 6536TIP3    H119614   0.466   2.213   3.877 -0.0028  0.1265 -0.8416
 6536TIP3    H219615   0.453   2.064   3.854 -1.6686 -0.2548  2.1390
 6537TIP3   OH219616   5.538   5.565   4.135 -0.0094 -0.2544  0.3930
 6537TIP3    H119617   5.528   5.480   4.093  1.2216  0.0126 -0.4891
 6537TIP3    H219618   5.487   5.558   4.216 -1.0831 -1.3443 -0.3426
 6538TIP3   OH219619   5.428   4.680   3.097 -0.3059  0.2627 -0.1269
 6538TIP3    H119620   5.377   4.616   3.047 -2.5884  0.7699  1.4550
 6538TIP3    H219621   5.469   4.735   3.030 -1.6563 -0.2948 -1.4575
 6539TIP3   OH219622   1.630   5.221   3.787 -0.4084  0.4867 -0.5042
 6539TIP3    H119623   1.562   5.257   3.730 -1.7464 -2.2173 -0.7735
 6539TIP3    H219624   1.600   5.132   3.807  2.1462 -0.1534  0.9273
 6540TIP3   OH219625   1.756   3.681   4.152  0.3962  0.1875 -0.5705
 6540TIP3    H119626   1.839   3.728   4.151  0.1994  0.5571  0.2426
 6540TIP3    H219627   1.740   3.661   4.244 -0.6887  0.5987 -0.6474
 6541TIP3   OH219628   4.189   5.462   2.933  0.3818 -0.5849 -0.2787
 6541TIP3    H119629   4.222   5.479   2.845 -1.1669  0.3274 -0.7281
 6541TIP3    H219630   4.093   5.469   2.925  0.2361  0.3283  1.6182
 6542TIP3   OH219631   0.423   4.667   4.984 -0.8201 -0.4305  0.2986
 6542TIP3    H119632   0.428   4.595   4.921  1.0888 -0.5971  0.5686
 6542TIP3    H219633   0.347   4.718   4.957 -0.2118 -0.6244 -1.9866
 6543TIP3   OH219634   1.408   4.044   2.433  0.3542  0.6075 -0.5694
 6543TIP3    H119635   1.488   4.071   2.477  0.2968  0.7736 -0.5636
 6543TIP3    H219636   1.350   4.120   2.441  0.6245  0.9374 -1.6077
 6544TIP3   OH219637   2.888   1.412   2.623 -0.1273  0.2326  0.3219
 6544TIP3    H119638   2.848   1.423   2.537 -1.1996  0.5892  0.8477
 6544TIP3    H219639   2.898   1.501   2.657  0.3267  0.0959  0.5559
 6545TIP3   OH219640   2.712   2.380   1.980  0.2538 -0.3947  0.3427
 6545TIP3    H119641   2.704   2.469   1.947  0.9992 -0.1687  0.7576
 6545TIP3    H219642   2.629   2.338   1.956 -0.9094  0.9434  1.7702
 6546TIP3   OH219643   5.799   3.226   0.596 -0.5034  0.5118  0.4554
 6546TIP3    H119644   5.862   3.156   0.610 -1.3560 -0.5103 -0.5564
 6546TIP3    H219645   5.746   3.227   0.676 -1.9581 -1.6442 -0.3548
 6547TIP3   OH219646   3.069   1.850   2.824  0.4804 -0.5585 -0.4937
 6547TIP3    H119647   3.033   1.938   2.811  0.8630 -0.2908  0.2471
 6547TIP3    H219648   3.081   1.843   2.918 -0.3947 -1.7460 -0.4443
 6548TIP3   OH219649   6.246   4.046   4.287  0.3696  0.0136  0.8927
 6548TIP3    H119650   6.219   4.025   4.376  0.3595 -0.3478  0.8020
 6548TIP3    H219651   6.330   4.001   4.275  1.2936  1.5013  1.3397
 6549TIP3   OH219652   1.530   0.703   4.195 -0.8282 -0.2488 -0.0114
 6549TIP3    H119653   1.602   0.652   4.158 -0.6216  0.3058 -0.3923
 6549TIP3    H219654   1.456   0.644   4.195  0.1756 -1.6808  2.6782
 6550TIP3   OH219655   5.290   0.486   3.821 -0.0522  0.1449 -0.4327
 6550TIP3    H119656   5.213   0.506   3.767 -0.6442 -1.9093 -0.4186
 6550TIP3    H219657   5.308   0.568   3.867 -2.0523  0.7725 -0.6600
 6551TIP3   OH219658   1.664   4.829   0.568  0.1792 -0.5748 -0.2658
 6551TIP3    H119659   1.738   4.825   0.508  2.3512  1.8433  1.9860
 6551TIP3    H219660   1.700   4.798   0.652 -1.0169  1.4920  1.1089
 6552TIP3   OH219661   5.378   1.945   3.158  0.4224  0.3751 -0.0139
 6552TIP3    H119662   5.381   2.015   3.092 -1.3940  0.4348 -0.0874
 6552TIP3    H219663   5.314   1.883   3.123 -1.4130  0.9343  2.1579
 6553TIP3   OH219664   3.075   0.993   3.932 -0.0160 -0.2558 -0.3695
 6553TIP3    H119665   3.127   0.928   3.884  1.6917 -0.2159  1.2789
 6553TIP3    H219666   3.064   1.065   3.871  0.9437 -0.7462 -1.1592
 6554TIP3   OH219667   5.057   2.871   1.583  0.3510 -0.2945  0.4607
 6554TIP3    H119668   5.034   2.935   1.515  1.0707 -1.0779 -0.5529
 6554TIP3    H219669   5.145   2.842   1.559  0.5836 -0.6552  1.6972
 6555TIP3   OH219670   2.172   0.696   3.987  0.6549 -0.2724  0.0116
 6555TIP3    H119671   2.263   0.715   4.010  0.5176  0.2283  0.1527
 6555TIP3    H219672   2.144   0.772   3.935 -0.7869  1.3982  2.9338
 6556TIP3   OH219673   2.541   1.011   1.132  0.0087 -0.3433  0.5243
 6556TIP3    H119674   2.500   1.097   1.124 -1.7843 -1.0732  1.3218
 6556TIP3    H219675   2.479   0.960   1.184  1.2392 -1.9936  0.4409
 6557TIP3   OH219676   1.875   2.181   1.451 -0.0366 -0.2307  0.2798
 6557TIP3    H119677   1.916   2.268   1.457  0.1762 -0.3746  1.0413
 6557TIP3    H219678   1.946   2.124   1.423  0.0208 -0.2968  0.5604
 6558TIP3   OH219679   5.831   1.484   1.526 -0.6268 -0.2449  0.4832
 6558TIP3    H119680   5.869   1.544   1.462 -0.5871 -0.9842 -0.2051
 6558TIP3    H219681   5.845   1.527   1.611 -1.4349  1.1669 -0.0482
 6559TIP3   OH219682   2.522   4.242   2.988  0.2048 -0.1848  0.1652
 6559TIP3    H119683   2.474   4.204   3.061  0.6405 -0.4528  0.3175
 6559TIP3    H219684   2.546   4.167   2.933 -0.1092  0.0130 -0.2517
 6560TIP3   OH219685   6.202   3.598   4.493 -0.0620 -0.1297 -0.6817
 6560TIP3    H119686   6.277   3.572   4.546 -0.4352  0.2955  0.0664
 6560TIP3    H219687   6.226   3.573   4.404  1.9721  2.0858 -0.8565
 6561TIP3   OH219688   5.526   2.483   3.570 -0.0259 -0.1568  0.5964
 6561TIP3    H119689   5.595   2.505   3.508 -0.6335 -1.4086 -0.5889
 6561TIP3    H219690   5.445   2.492   3.520 -0.7331  1.0939  1.9061
 6562TIP3   OH219691   5.261   1.458   3.813  0.2909 -0.0925 -0.1683
 6562TIP3    H119692   5.172   1.423   3.811  0.0144  0.5892 -0.2836
 6562TIP3    H219693   5.315   1.385   3.842 -0.2777 -0.5776 -0.3017
 6563TIP3   OH219694   1.402   4.089   1.026  0.1469 -0.6922  0.2013
 6563TIP3    H119695   1.322   4.100   1.078  0.0678  1.4405 -0.2842
 6563TIP3    H219696   1.447   4.173   1.034  0.8388 -0.8089 -1.9904
 6564TIP3   OH219697   0.956   1.766   4.690  0.0849  0.1933 -0.3654
 6564TIP3    H119698   0.878   1.731   4.648 -0.1204 -0.4838  0.5450
 6564TIP3    H219699   0.977   1.703   4.759  1.7232  0.1068 -0.8931
 6565TIP3   OH219700   0.215   2.650   0.430  0.0979 -0.7618 -0.0491
 6565TIP3    H119701   0.145   2.664   0.365 -0.0953 -1.7536 -0.0651
 6565TIP3    H219702   0.189   2.704   0.504  0.7931  1.1340 -1.1049
 6566TIP3   OH219703   3.050   2.543   3.818 -0.6965  0.2395 -0.2359
 6566TIP3    H119704   3.139   2.553   3.851 -0.6401 -1.2300  0.1496
 6566TIP3    H219705   2.996   2.594   3.879 -0.1680  0.8729 -0.2837
 6567TIP3   OH219706   4.215   0.809   1.394 -0.6483  0.8156  0.4195
 6567TIP3    H119707   4.225   0.775   1.483  0.3973  0.7035  0.2737
 6567TIP3    H219708   4.244   0.900   1.400 -1.7900  1.1839  0.4496
 6568TIP3   OH219709   1.948   4.042   0.570  0.3317  0.2784 -0.3913
 6568TIP3    H119710   1.883   4.033   0.640  1.1839 -0.8777  0.2884
 6568TIP3    H219711   1.904   4.096   0.504 -1.7899 -1.4704 -0.5281
 6569TIP3   OH219712   0.834   4.039   5.097 -0.0243 -0.1705  0.2142
 6569TIP3    H119713   0.846   4.132   5.076  1.0574 -0.8058 -2.3004
 6569TIP3    H219714   0.741   4.032   5.119 -0.3652  1.3327 -0.5919
 6570TIP3   OH219715   5.166   5.034   2.349 -0.0410 -0.2271  0.0243
 6570TIP3    H119716   5.202   5.094   2.415  0.8124 -1.8056  1.0626
 6570TIP3    H219717   5.072   5.034   2.365  0.2087 -1.0407  1.6866
 6571TIP3   OH219718   2.228   1.460   3.439 -0.3220 -0.2680  0.5292
 6571TIP3    H119719   2.323   1.467   3.454 -0.1399 -0.5679 -0.4420
 6571TIP3    H219720   2.219   1.396   3.369 -1.1767  0.6763 -0.2527
 6572TIP3   OH219721   1.578   3.515   5.082 -0.5930 -0.6133  0.2915
 6572TIP3    H119722   1.659   3.507   5.032 -0.9983  0.2795 -0.5482
 6572TIP3    H219723   1.543   3.426   5.087  0.7919 -1.1260  1.3035
 6573TIP3   OH219724   2.915   1.771   1.471 -0.2870 -0.9200 -0.0922
 6573TIP3    H119725   2.968   1.694   1.494  3.3811  1.5251  0.4899
 6573TIP3    H219726   2.867   1.744   1.393  1.1242 -3.7033 -0.1477
 6574TIP3   OH219727   1.662   5.604   4.993 -0.0090  0.6571 -0.6380
 6574TIP3    H119728   1.736   5.595   5.053  0.5900  2.5438 -1.0357
 6574TIP3    H219729   1.585   5.602   5.050  0.3191 -0.9028 -0.1819
 6575TIP3   OH219730   1.983   1.101   0.488 -0.3202  0.2933  0.5614
 6575TIP3    H119731   1.979   1.171   0.422  0.5767  2.5118  2.7115
 6575TIP3    H219732   2.077   1.084   0.499 -0.5071 -2.6008 -1.0919
 6576TIP3   OH219733   2.567   5.702   3.734  0.2185 -0.1414 -0.4718
 6576TIP3    H119734   2.553   5.672   3.824  1.0172  0.6416 -0.0705
 6576TIP3    H219735   2.526   5.635   3.680  0.3663 -0.9977  0.4485
 6577TIP3   OH219736   6.108   5.751   1.670  0.7650  0.0859  0.4481
 6577TIP3    H119737   6.179   5.810   1.698  0.1948  1.5393 -1.0100
 6577TIP3    H219738   6.140   5.712   1.589 -0.2829  1.2094 -0.5432
 6578TIP3   OH219739   0.732   1.003   3.672  0.3414  0.6810  0.4156
 6578TIP3    H119740   0.679   1.029   3.596  1.1668  0.4638 -0.2563
 6578TIP3    H219741   0.777   0.923   3.644  2.1614  1.6584  0.3944
 6579TIP3   OH219742   2.107   3.123   3.195  0.3374 -0.2105  0.2803
 6579TIP3    H119743   2.088   3.202   3.246 -0.5111 -0.7508  0.8255
 6579TIP3    H219744   2.156   3.067   3.255  1.0817 -0.0491 -0.1581
 6580TIP3   OH219745   6.174   0.058   2.221  0.2201  0.1725 -0.2814
 6580TIP3    H119746   6.186  -0.024   2.172 -1.2059 -0.1013 -0.2069
 6580TIP3    H219747   6.096   0.098   2.184 -0.1589  0.5959  0.9103
 6581TIP3   OH219748   3.533   1.054   5.132 -0.2303 -0.1736 -0.0429
 6581TIP3    H119749   3.627   1.059   5.118  0.1542 -1.0175  1.9245
 6581TIP3    H219750   3.509   0.966   5.103 -0.3556 -0.0647 -0.2687
 6582TIP3   OH219751   3.068   0.324   1.350  0.2718  0.0893  0.2290
 6582TIP3    H119752   3.029   0.399   1.396  0.8283 -0.0007  0.8528
 6582TIP3    H219753   3.159   0.349   1.335 -0.2354  0.7626 -2.2206
 6583TIP3   OH219754   0.400   5.867   2.955 -0.3359  0.3354  0.1782
 6583TIP3    H119755   0.373   5.848   2.866 -1.7064  2.2674  0.1154
 6583TIP3    H219756   0.395   5.783   3.000  1.3588 -0.8851 -1.7395
 6584TIP3   OH219757   4.336   2.601   0.380  0.4494 -0.2184 -0.4597
 6584TIP3    H119758   4.417   2.640   0.414  0.3144 -0.5871  0.3007
 6584TIP3    H219759   4.361   2.565   0.295 -0.0437  3.9800 -2.6701
 6585TIP3   OH219760   2.761   0.739   4.197  0.5687  0.2277 -0.1015
 6585TIP3    H119761   2.792   0.703   4.279 -0.9567 -0.8200  0.0584
 6585TIP3    H219762   2.677   0.780   4.219 -1.3965 -2.6658 -1.5509
 6586TIP3   OH219763   0.298   5.749   2.669  0.1433  0.2180  0.3234
 6586TIP3    H119764   0.202   5.745   2.659  0.2121  0.8263 -0.8371
 6586TIP3    H219765   0.321   5.837   2.640  1.2910 -0.7424 -2.0022
 6587TIP3   OH219766   4.346   2.381   0.746 -0.3310  0.1748  0.3474
 6587TIP3    H119767   4.395   2.416   0.672  1.0165 -1.8058  0.2120
 6587TIP3    H219768   4.408   2.381   0.818 -0.2643 -1.7670  0.3486
 6588TIP3   OH219769   5.604   0.362   3.358 -0.1378 -0.3039  0.2623
 6588TIP3    H119770   5.630   0.312   3.435 -0.3711 -1.6466 -0.5059
 6588TIP3    H219771   5.627   0.452   3.379 -1.2509 -0.4566  2.3678
 6589TIP3   OH219772   0.220   1.186   4.959 -0.2055 -0.1268 -0.5291
 6589TIP3    H119773   0.246   1.183   4.866  1.9940 -0.4813  0.0308
 6589TIP3    H219774   0.196   1.095   4.980 -1.9224  0.1846 -1.0293
 6590TIP3   OH219775   1.652   5.143   0.740  0.2527  0.0668  0.6548
 6590TIP3    H119776   1.668   5.162   0.648  1.1569  0.7339  0.9427
 6590TIP3    H219777   1.724   5.184   0.786 -0.5743  0.3507  1.7293
 6591TIP3   OH219778   3.865   4.155   2.040  0.5257 -0.3204 -0.1068
 6591TIP3    H119779   3.811   4.214   2.093 -0.7864 -1.3886 -0.2062
 6591TIP3    H219780   3.845   4.180   1.950 -0.4107 -1.2002 -0.1617
 6592TIP3   OH219781   2.099   0.980   1.882 -0.0082 -0.5311  0.2199
 6592TIP3    H119782   2.119   0.906   1.939 -0.2988 -0.2053  0.7546
 6592TIP3    H219783   2.174   0.984   1.821  0.2659 -0.9325  0.5252
 6593TIP3   OH219784   5.811   1.331   0.570 -0.0611 -0.2526  0.1702
 6593TIP3    H119785   5.788   1.420   0.542  1.0136  0.7272  2.1965
 6593TIP3    H219786   5.763   1.318   0.652  0.8774 -0.9775  0.6297
 6594TIP3   OH219787   5.253   4.531   2.280 -0.3276  0.0078 -0.2648
 6594TIP3    H119788   5.295   4.610   2.314  0.6794 -0.6563  0.0766
 6594TIP3    H219789   5.205   4.496   2.355  1.4136 -1.1356  0.3742
 6595TIP3   OH219790   3.400   2.941   2.385 -0.2595 -0.0548  0.1053
 6595TIP3    H119791   3.373   2.920   2.296 -0.3556  0.2751  0.0522
 6595TIP3    H219792   3.363   3.028   2.401  0.3610  0.2008  0.2081
 6596TIP3   OH219793   2.756   0.167   2.222 -0.3022  0.3294 -0.0445
 6596TIP3    H119794   2.832   0.196   2.273  0.5035  2.2379 -2.1448
 6596TIP3    H219795   2.684   0.222   2.253  0.2321  1.6329 -1.0087
 6597TIP3   OH219796   0.719   2.200   2.560 -0.1189  0.4223 -0.3725
 6597TIP3    H119797   0.696   2.240   2.643  2.1734 -0.5373  0.8053
 6597TIP3    H219798   0.780   2.130   2.582  0.4534  0.0182 -2.8464
 6598TIP3   OH219799   0.983   3.104   4.996  0.4485  0.4366  0.2780
 6598TIP3    H119800   0.946   3.102   4.908  2.3646  0.8826 -0.5901
 6598TIP3    H219801   0.921   3.155   5.047 -1.2656 -0.7767 -0.4996
 6599TIP3   OH219802   1.466   3.609   4.467  0.2131  0.2126 -0.7584
 6599TIP3    H119803   1.558   3.624   4.448  0.2370  0.2521 -0.6141
 6599TIP3    H219804   1.463   3.594   4.562 -0.0405  1.0710 -0.6217
 6600TIP3   OH219805   5.226   3.956   2.029 -0.2706  0.3988  0.7124
 6600TIP3    H119806   5.248   3.918   1.944  0.0984 -1.1563  1.4604
 6600TIP3    H219807   5.166   4.028   2.009 -0.1913  0.0596 -0.8532
 6601TIP3   OH219808   1.314   4.313   1.936  0.0731  0.3721 -0.4348
 6601TIP3    H119809   1.262   4.366   1.875  1.9173  1.0188 -1.5060
 6601TIP3    H219810   1.389   4.368   1.958  2.1032 -1.7475 -1.6210
 6602TIP3   OH219811   4.842   3.438   3.165 -0.2043 -0.4004 -0.0855
 6602TIP3    H119812   4.936   3.452   3.177 -0.5819  2.9038  0.0260
 6602TIP3    H219813   4.834   3.400   3.078  1.2538 -2.1256  0.4765
 6603TIP3   OH219814   3.173   5.971   4.105 -0.0594 -0.2715  1.2589
 6603TIP3    H119815   3.262   5.942   4.121  0.3406  0.2259  0.0531
 6603TIP3    H219816   3.158   6.039   4.171  1.7760  2.2149 -0.6907
 6604TIP3   OH219817   0.325   1.186   2.818  0.4021  0.0871 -0.0988
 6604TIP3    H119818   0.377   1.205   2.740  0.5318 -1.1799 -0.3418
 6604TIP3    H219819   0.369   1.234   2.888  1.9353 -0.9694 -0.2984
 6605TIP3   OH219820   1.311   1.676   3.560  0.3996  0.3418 -0.4490
 6605TIP3    H119821   1.378   1.614   3.588  0.2198  0.9181  1.3468
 6605TIP3    H219822   1.276   1.712   3.641  0.7457  3.0679 -1.4010
 6606TIP3   OH219823   1.320   5.363   0.120 -0.0400  0.3002 -0.0271
 6606TIP3    H119824   1.261   5.439   0.119 -1.9379 -1.0818 -0.2518
 6606TIP3    H219825   1.282   5.305   0.186  2.5639  0.3672  1.6780
 6607TIP3   OH219826   6.298   0.698   3.025  0.0965 -0.3050  0.1723
 6607TIP3    H119827   6.331   0.768   2.969  1.1521 -1.1645 -0.3180
 6607TIP3    H219828   6.243   0.743   3.089  0.4719  0.9253 -0.3334
 6608TIP3   OH219829   1.946   0.931   4.800  0.4491 -0.1056 -0.6806
 6608TIP3    H119830   2.034   0.914   4.766  0.9050  2.8061 -1.2435
 6608TIP3    H219831   1.898   0.966   4.726 -0.4119  0.6796  0.2236
 6609TIP3   OH219832   0.286   0.903   2.868 -0.0508  0.5456  0.3761
 6609TIP3    H119833   0.275   0.998   2.871 -1.8510  0.3574  1.4163
 6609TIP3    H219834   0.375   0.890   2.836 -0.2566  2.5542 -1.2305
 6610TIP3   OH219835   1.283   2.581   0.510  0.1498  0.3450  0.6057
 6610TIP3    H119836   1.299   2.580   0.605  0.6386  1.2038  0.5359
 6610TIP3    H219837   1.360   2.623   0.473 -0.4474  0.8276 -0.1032
 6611TIP3   OH219838   3.453   4.363   2.384  0.1072 -0.4805 -0.1437
 6611TIP3    H119839   3.481   4.318   2.464  1.6718 -0.4737 -0.6497
 6611TIP3    H219840   3.473   4.455   2.400 -0.5888 -0.3211 -0.1467
 6612TIP3   OH219841   1.500   3.956   3.285 -0.1158 -0.8115  0.7878
 6612TIP3    H119842   1.419   4.006   3.279 -0.2889 -1.0346  1.2355
 6612TIP3    H219843   1.528   3.944   3.194  0.7211  1.3805  0.6972
 6613TIP3   OH219844   2.605   2.847   4.320 -0.0983 -0.2683  0.1597
 6613TIP3    H119845   2.647   2.859   4.235  0.0778  0.0947  0.2952
 6613TIP3    H219846   2.608   2.934   4.360  0.0934 -0.5048  0.6635
 6614TIP3   OH219847   1.989   5.851   2.391  0.2829  0.0924 -0.2242
 6614TIP3    H119848   1.955   5.912   2.325 -0.1929  0.8331  0.6853
 6614TIP3    H219849   1.910   5.812   2.430  0.5538 -0.1652  0.0660
 6615TIP3   OH219850   6.176   3.897   2.588 -0.2970  0.0956  0.2673
 6615TIP3    H119851   6.160   3.819   2.642 -0.4216 -0.1462 -0.1144
 6615TIP3    H219852   6.092   3.916   2.547  0.1157 -0.5877 -0.9703
 6616TIP3   OH219853   4.997   4.019   4.243  0.2068 -0.6058 -0.0689
 6616TIP3    H119854   4.922   4.061   4.203 -0.2646 -1.3853 -0.0281
 6616TIP3    H219855   4.989   3.927   4.218  0.2944 -0.9808  1.2128
 6617TIP3   OH219856   2.326   3.635   4.996  0.4504  0.3435  0.2441
 6617TIP3    H119857   2.361   3.676   5.075 -0.2333 -1.3114  1.4547
 6617TIP3    H219858   2.269   3.564   5.028 -2.5878  1.7305 -1.6688
 6618TIP3   OH219859   5.220   1.894   4.982 -0.1221  0.1174 -0.1489
 6618TIP3    H119860   5.275   1.819   5.005  0.1465  0.1395 -0.7128
 6618TIP3    H219861   5.233   1.955   5.054  0.0628 -0.1613  0.0589
 6619TIP3   OH219862   2.627   1.215   0.802 -0.2715  0.2275  0.5247
 6619TIP3    H119863   2.612   1.284   0.737  1.6611 -0.9944 -1.3463
 6619TIP3    H219864   2.549   1.160   0.797 -1.7153  2.0054  1.8449
 6620TIP3   OH219865   2.004   1.689   0.423 -0.2833 -0.2833  0.0984
 6620TIP3    H119866   1.987   1.708   0.331  0.6097 -0.8989 -0.2138
 6620TIP3    H219867   1.919   1.663   0.458 -1.1725  2.3152  0.0870
 6621TIP3   OH219868   5.869   3.959   4.402  0.2541 -0.2899  0.2355
 6621TIP3    H119869   5.843   3.914   4.483  3.1453  0.0787  1.4875
 6621TIP3    H219870   5.932   3.899   4.361  0.4464  0.4924 -0.6283
 6622TIP3   OH219871   2.634   1.861   4.946 -0.2810  0.0336  0.7934
 6622TIP3    H119872   2.631   1.803   5.022  1.2018  0.0173  0.8772
 6622TIP3    H219873   2.648   1.803   4.872 -3.2451 -0.1051  0.2378
 6623TIP3   OH219874   3.655   5.444   4.953 -0.2769 -0.2489 -0.2905
 6623TIP3    H119875   3.715   5.486   5.015  1.2035 -3.5394  0.7294
 6623TIP3    H219876   3.579   5.421   5.007 -1.0897  1.0404 -0.8467
 6624TIP3   OH219877   3.087   2.624   4.212  0.1757 -0.0356 -0.3257
 6624TIP3    H119878   3.171   2.579   4.209 -0.7384 -2.0629  1.4881
 6624TIP3    H219879   3.080   2.658   4.301 -0.9133  0.0980 -0.4412
 6625TIP3   OH219880   1.436   5.245   1.528 -0.1733  0.4309  0.4685
 6625TIP3    H119881   1.432   5.238   1.624  2.9318  2.1563  0.8664
 6625TIP3    H219882   1.449   5.156   1.498 -0.4119 -0.0493  1.7168
 6626TIP3   OH219883   0.993   0.137   3.762 -0.0090 -0.1098  0.7135
 6626TIP3    H119884   1.067   0.137   3.702 -1.0427 -0.3185 -0.6139
 6626TIP3    H219885   1.003   0.218   3.813  1.4606 -0.4635  1.0213
 6627TIP3   OH219886   1.509   4.985   4.139 -0.0884 -0.0924 -1.1354
 6627TIP3    H119887   1.583   5.045   4.135  0.9336 -1.2903 -0.8071
 6627TIP3    H219888   1.450   5.014   4.069 -0.1846  1.9698 -0.2648
 6628TIP3   OH219889   3.393   1.699   4.249  0.0915 -0.0761  0.3383
 6628TIP3    H119890   3.401   1.763   4.178 -0.8867  1.4776  1.5407
 6628TIP3    H219891   3.461   1.723   4.311  0.9227 -1.4050 -0.0238
 6629TIP3   OH219892   1.172   2.262   3.865 -0.0664 -0.1688 -0.0462
 6629TIP3    H119893   1.245   2.234   3.920 -0.1782 -1.4975 -0.5480
 6629TIP3    H219894   1.101   2.280   3.927  0.2594 -0.2209  0.3465
 6630TIP3   OH219895   0.721   4.464   2.362 -0.4548  0.0819 -0.4279
 6630TIP3    H119896   0.667   4.525   2.313 -1.8096  0.8587  1.8863
 6630TIP3    H219897   0.682   4.378   2.345 -0.9715  0.3539 -0.6207
 6631TIP3   OH219898   1.178   2.065   4.655  0.3703  0.0241  0.1427
 6631TIP3    H119899   1.222   2.150   4.648  1.5211 -0.6828 -2.1258
 6631TIP3    H219900   1.174   2.032   4.565 -0.2742 -2.2242  0.9253
 6632TIP3   OH219901   1.499   4.709   0.380  0.2061 -0.0830  0.0872
 6632TIP3    H119902   1.541   4.758   0.451  1.4439  0.9206 -1.2801
 6632TIP3    H219903   1.483   4.622   0.417  1.8058  0.0749  1.2538
 6633TIP3   OH219904   4.547   3.632   4.339 -0.7029  0.1886  0.0006
 6633TIP3    H119905   4.471   3.654   4.286 -0.4823  0.5790 -0.1595
 6633TIP3    H219906   4.511   3.590   4.417 -1.0131 -0.5616 -0.5447
 6634TIP3   OH219907   0.397   0.992   4.223 -0.2356  0.8386  0.0535
 6634TIP3    H119908   0.357   0.913   4.257 -1.0598  1.2547  0.0822
 6634TIP3    H219909   0.376   0.992   4.129  1.9241 -0.2453 -0.4946
 6635TIP3   OH219910   5.363   4.962   1.465  0.3797 -0.0691  0.2438
 6635TIP3    H119911   5.272   4.936   1.459  0.7625 -1.1902 -2.9841
 6635TIP3    H219912   5.407   4.888   1.508  0.0558 -0.4438 -0.0680
 6636TIP3   OH219913   4.683   3.801   0.918 -0.7229  0.1715 -0.3285
 6636TIP3    H119914   4.623   3.727   0.920  2.1128 -2.3176 -0.1775
 6636TIP3    H219915   4.662   3.851   0.997 -1.0613 -1.9397  1.0010
 6637TIP3   OH219916   4.691   4.386   3.485 -0.7265  0.2250  0.0134
 6637TIP3    H119917   4.620   4.329   3.517 -1.8443  0.6843 -1.4996
 6637TIP3    H219918   4.727   4.426   3.563 -1.4083 -0.8721  0.9243
 6638TIP3   OH219919   1.354   3.015   1.819 -0.3511 -0.4248 -0.3354
 6638TIP3    H119920   1.294   3.081   1.782 -0.2988  0.5180  1.1921
 6638TIP3    H219921   1.441   3.046   1.793 -0.3923 -0.6405 -0.7496
 6639TIP3   OH219922   3.873   1.989   2.350  0.8112 -0.7176 -0.6221
 6639TIP3    H119923   3.791   1.942   2.362  1.0290 -0.8263  0.4684
 6639TIP3    H219924   3.890   1.983   2.256  1.3574 -3.6836 -0.4230
 6640TIP3   OH219925   1.372   1.178   0.825 -0.1312 -0.3634 -0.2464
 6640TIP3    H119926   1.292   1.226   0.844 -0.1899 -0.6508  0.2456
 6640TIP3    H219927   1.366   1.098   0.878  0.8127 -0.0494  0.3622
   6.35442   5.99100   5.18837   0.00000   0.00000  -2.11814   0.00000  -2.11814  -2.99551
