PSF EXT CMAP XPLOR

         3 !NTITLE
* GENERATED BY CHARMM-GUI (HTTP://WWW.CHARMM-GUI.ORG) V3.7 ON JUN, 13. 2026. JOB
* READ PDB, MANIPULATE STRUCTURE IF NEEDED, AND GENERATE TOPOLOGY FILE          
*  DATE:     6/13/26      7: 6: 7      CREATED BY USER: charmm-gui              

       159 !NATOM
         1 PROA     1        GLY      N        NH3     -0.300000       14.0070           0
         2 PROA     1        GLY      HT1      HC       0.330000       1.00800           0
         3 PROA     1        GLY      HT2      HC       0.330000       1.00800           0
         4 PROA     1        GLY      HT3      HC       0.330000       1.00800           0
         5 PROA     1        GLY      CA       CT2      0.130000       12.0110           0
         6 PROA     1        GLY      HA1      HB2      0.900000E-01   1.00800           0
         7 PROA     1        GLY      HA2      HB2      0.900000E-01   1.00800           0
         8 PROA     1        GLY      C        C        0.510000       12.0110           0
         9 PROA     1        GLY      O        O       -0.510000       15.9994           0
        10 PROA     2        PRO      N        N       -0.290000       14.0070           0
        11 PROA     2        PRO      CD       CP3       0.00000       12.0110           0
        12 PROA     2        PRO      HD1      HA2      0.900000E-01   1.00800           0
        13 PROA     2        PRO      HD2      HA2      0.900000E-01   1.00800           0
        14 PROA     2        PRO      CA       CP1      0.200000E-01   12.0110           0
        15 PROA     2        PRO      HA       HB1      0.900000E-01   1.00800           0
        16 PROA     2        PRO      CB       CP2     -0.180000       12.0110           0
        17 PROA     2        PRO      HB1      HA2      0.900000E-01   1.00800           0
        18 PROA     2        PRO      HB2      HA2      0.900000E-01   1.00800           0
        19 PROA     2        PRO      CG       CP2     -0.180000       12.0110           0
        20 PROA     2        PRO      HG1      HA2      0.900000E-01   1.00800           0
        21 PROA     2        PRO      HG2      HA2      0.900000E-01   1.00800           0
        22 PROA     2        PRO      C        C        0.510000       12.0110           0
        23 PROA     2        PRO      O        O       -0.510000       15.9994           0
        24 PROA     3        GLY      N        NH1     -0.470000       14.0070           0
        25 PROA     3        GLY      HN       H        0.310000       1.00800           0
        26 PROA     3        GLY      CA       CT2     -0.200000E-01   12.0110           0
        27 PROA     3        GLY      HA1      HB2      0.900000E-01   1.00800           0
        28 PROA     3        GLY      HA2      HB2      0.900000E-01   1.00800           0
        29 PROA     3        GLY      C        C        0.510000       12.0110           0
        30 PROA     3        GLY      O        O       -0.510000       15.9994           0
        31 PROA     4        ASP      N        NH1     -0.470000       14.0070           0
        32 PROA     4        ASP      HN       H        0.310000       1.00800           0
        33 PROA     4        ASP      CA       CT1      0.700000E-01   12.0110           0
        34 PROA     4        ASP      HA       HB1      0.900000E-01   1.00800           0
        35 PROA     4        ASP      CB       CT2A    -0.280000       12.0110           0
        36 PROA     4        ASP      HB1      HA2      0.900000E-01   1.00800           0
        37 PROA     4        ASP      HB2      HA2      0.900000E-01   1.00800           0
        38 PROA     4        ASP      CG       CC       0.620000       12.0110           0
        39 PROA     4        ASP      OD1      OC      -0.760000       15.9994           0
        40 PROA     4        ASP      OD2      OC      -0.760000       15.9994           0
        41 PROA     4        ASP      C        C        0.510000       12.0110           0
        42 PROA     4        ASP      O        O       -0.510000       15.9994           0
        43 PROA     5        PRO      N        N       -0.290000       14.0070           0
        44 PROA     5        PRO      CD       CP3       0.00000       12.0110           0
        45 PROA     5        PRO      HD1      HA2      0.900000E-01   1.00800           0
        46 PROA     5        PRO      HD2      HA2      0.900000E-01   1.00800           0
        47 PROA     5        PRO      CA       CP1      0.200000E-01   12.0110           0
        48 PROA     5        PRO      HA       HB1      0.900000E-01   1.00800           0
        49 PROA     5        PRO      CB       CP2     -0.180000       12.0110           0
        50 PROA     5        PRO      HB1      HA2      0.900000E-01   1.00800           0
        51 PROA     5        PRO      HB2      HA2      0.900000E-01   1.00800           0
        52 PROA     5        PRO      CG       CP2     -0.180000       12.0110           0
        53 PROA     5        PRO      HG1      HA2      0.900000E-01   1.00800           0
        54 PROA     5        PRO      HG2      HA2      0.900000E-01   1.00800           0
        55 PROA     5        PRO      C        C        0.510000       12.0110           0
        56 PROA     5        PRO      O        O       -0.510000       15.9994           0
        57 PROA     6        GLY      N        NH1     -0.470000       14.0070           0
        58 PROA     6        GLY      HN       H        0.310000       1.00800           0
        59 PROA     6        GLY      CA       CT2     -0.200000E-01   12.0110           0
        60 PROA     6        GLY      HA1      HB2      0.900000E-01   1.00800           0
        61 PROA     6        GLY      HA2      HB2      0.900000E-01   1.00800           0
        62 PROA     6        GLY      C        C        0.510000       12.0110           0
        63 PROA     6        GLY      O        O       -0.510000       15.9994           0
        64 PROA     7        SER      N        NH1     -0.470000       14.0070           0
        65 PROA     7        SER      HN       H        0.310000       1.00800           0
        66 PROA     7        SER      CA       CT1      0.700000E-01   12.0110           0
        67 PROA     7        SER      HA       HB1      0.900000E-01   1.00800           0
        68 PROA     7        SER      CB       CT2      0.500000E-01   12.0110           0
        69 PROA     7        SER      HB1      HA2      0.900000E-01   1.00800           0
        70 PROA     7        SER      HB2      HA2      0.900000E-01   1.00800           0
        71 PROA     7        SER      OG       OH1     -0.660000       15.9994           0
        72 PROA     7        SER      HG1      H        0.430000       1.00800           0
        73 PROA     7        SER      C        C        0.510000       12.0110           0
        74 PROA     7        SER      O        O       -0.510000       15.9994           0
        75 PROA     8        ASP      N        NH1     -0.470000       14.0070           0
        76 PROA     8        ASP      HN       H        0.310000       1.00800           0
        77 PROA     8        ASP      CA       CT1      0.700000E-01   12.0110           0
        78 PROA     8        ASP      HA       HB1      0.900000E-01   1.00800           0
        79 PROA     8        ASP      CB       CT2A    -0.280000       12.0110           0
        80 PROA     8        ASP      HB1      HA2      0.900000E-01   1.00800           0
        81 PROA     8        ASP      HB2      HA2      0.900000E-01   1.00800           0
        82 PROA     8        ASP      CG       CC       0.620000       12.0110           0
        83 PROA     8        ASP      OD1      OC      -0.760000       15.9994           0
        84 PROA     8        ASP      OD2      OC      -0.760000       15.9994           0
        85 PROA     8        ASP      C        C        0.510000       12.0110           0
        86 PROA     8        ASP      O        O       -0.510000       15.9994           0
        87 PROA     9        GLY      N        NH1     -0.470000       14.0070           0
        88 PROA     9        GLY      HN       H        0.310000       1.00800           0
        89 PROA     9        GLY      CA       CT2     -0.200000E-01   12.0110           0
        90 PROA     9        GLY      HA1      HB2      0.900000E-01   1.00800           0
        91 PROA     9        GLY      HA2      HB2      0.900000E-01   1.00800           0
        92 PROA     9        GLY      C        C        0.510000       12.0110           0
        93 PROA     9        GLY      O        O       -0.510000       15.9994           0
        94 PROA     10       SER      N        NH1     -0.470000       14.0070           0
        95 PROA     10       SER      HN       H        0.310000       1.00800           0
        96 PROA     10       SER      CA       CT1      0.700000E-01   12.0110           0
        97 PROA     10       SER      HA       HB1      0.900000E-01   1.00800           0
        98 PROA     10       SER      CB       CT2      0.500000E-01   12.0110           0
        99 PROA     10       SER      HB1      HA2      0.900000E-01   1.00800           0
       100 PROA     10       SER      HB2      HA2      0.900000E-01   1.00800           0
       101 PROA     10       SER      OG       OH1     -0.660000       15.9994           0
       102 PROA     10       SER      HG1      H        0.430000       1.00800           0
       103 PROA     10       SER      C        C        0.510000       12.0110           0
       104 PROA     10       SER      O        O       -0.510000       15.9994           0
       105 PROA     11       GLY      N        NH1     -0.470000       14.0070           0
       106 PROA     11       GLY      HN       H        0.310000       1.00800           0
       107 PROA     11       GLY      CA       CT2     -0.200000E-01   12.0110           0
       108 PROA     11       GLY      HA1      HB2      0.900000E-01   1.00800           0
       109 PROA     11       GLY      HA2      HB2      0.900000E-01   1.00800           0
       110 PROA     11       GLY      C        C        0.510000       12.0110           0
       111 PROA     11       GLY      O        O       -0.510000       15.9994           0
       112 PROA     12       PRO      N        N       -0.290000       14.0070           0
       113 PROA     12       PRO      CD       CP3       0.00000       12.0110           0
       114 PROA     12       PRO      HD1      HA2      0.900000E-01   1.00800           0
       115 PROA     12       PRO      HD2      HA2      0.900000E-01   1.00800           0
       116 PROA     12       PRO      CA       CP1      0.200000E-01   12.0110           0
       117 PROA     12       PRO      HA       HB1      0.900000E-01   1.00800           0
       118 PROA     12       PRO      CB       CP2     -0.180000       12.0110           0
       119 PROA     12       PRO      HB1      HA2      0.900000E-01   1.00800           0
       120 PROA     12       PRO      HB2      HA2      0.900000E-01   1.00800           0
       121 PROA     12       PRO      CG       CP2     -0.180000       12.0110           0
       122 PROA     12       PRO      HG1      HA2      0.900000E-01   1.00800           0
       123 PROA     12       PRO      HG2      HA2      0.900000E-01   1.00800           0
       124 PROA     12       PRO      C        C        0.510000       12.0110           0
       125 PROA     12       PRO      O        O       -0.510000       15.9994           0
       126 PROA     13       GLY      N        NH1     -0.470000       14.0070           0
       127 PROA     13       GLY      HN       H        0.310000       1.00800           0
       128 PROA     13       GLY      CA       CT2     -0.200000E-01   12.0110           0
       129 PROA     13       GLY      HA1      HB2      0.900000E-01   1.00800           0
       130 PROA     13       GLY      HA2      HB2      0.900000E-01   1.00800           0
       131 PROA     13       GLY      C        C        0.510000       12.0110           0
       132 PROA     13       GLY      O        O       -0.510000       15.9994           0
       133 PROA     14       ASP      N        NH1     -0.470000       14.0070           0
       134 PROA     14       ASP      HN       H        0.310000       1.00800           0
       135 PROA     14       ASP      CA       CT1      0.700000E-01   12.0110           0
       136 PROA     14       ASP      HA       HB1      0.900000E-01   1.00800           0
       137 PROA     14       ASP      CB       CT2A    -0.280000       12.0110           0
       138 PROA     14       ASP      HB1      HA2      0.900000E-01   1.00800           0
       139 PROA     14       ASP      HB2      HA2      0.900000E-01   1.00800           0
       140 PROA     14       ASP      CG       CC       0.620000       12.0110           0
       141 PROA     14       ASP      OD1      OC      -0.760000       15.9994           0
       142 PROA     14       ASP      OD2      OC      -0.760000       15.9994           0
       143 PROA     14       ASP      C        C        0.510000       12.0110           0
       144 PROA     14       ASP      O        O       -0.510000       15.9994           0
       145 PROA     15       PRO      N        N       -0.290000       14.0070           0
       146 PROA     15       PRO      CD       CP3       0.00000       12.0110           0
       147 PROA     15       PRO      HD1      HA2      0.900000E-01   1.00800           0
       148 PROA     15       PRO      HD2      HA2      0.900000E-01   1.00800           0
       149 PROA     15       PRO      CA       CP1      0.200000E-01   12.0110           0
       150 PROA     15       PRO      HA       HB1      0.900000E-01   1.00800           0
       151 PROA     15       PRO      CB       CP2     -0.180000       12.0110           0
       152 PROA     15       PRO      HB1      HA2      0.900000E-01   1.00800           0
       153 PROA     15       PRO      HB2      HA2      0.900000E-01   1.00800           0
       154 PROA     15       PRO      CG       CP2     -0.180000       12.0110           0
       155 PROA     15       PRO      HG1      HA2      0.900000E-01   1.00800           0
       156 PROA     15       PRO      HG2      HA2      0.900000E-01   1.00800           0
       157 PROA     15       PRO      C        CC       0.340000       12.0110           0
       158 PROA     15       PRO      OT1      OC      -0.670000       15.9994           0
       159 PROA     15       PRO      OT2      OC      -0.670000       15.9994           0

       162 !NBOND: bonds
         2         1         3         1         4         1         1         5
         8         5         8        10         5         6         5         7
         9         8        22        14        22        24        10        14
        14        16        16        19        19        11        10        11
        15        14        20        19        21        19        12        11
        13        11        17        16        18        16        23        22
        24        25        24        26        29        26        29        31
        26        27        26        28        30        29        35        33
        38        35        40        38        31        32        31        33
        41        33        41        43        33        34        35        36
        35        37        42        41        38        39        55        47
        55        57        43        47        47        49        49        52
        52        44        43        44        48        47        53        52
        54        52        45        44        46        44        50        49
        51        49        56        55        57        58        57        59
        62        59        62        64        59        60        59        61
        63        62        68        66        71        68        64        65
        64        66        73        66        73        75        66        67
        68        69        68        70        71        72        74        73
        79        77        82        79        84        82        75        76
        75        77        85        77        85        87        77        78
        79        80        79        81        86        85        82        83
        87        88        87        89        92        89        92        94
        89        90        89        91        93        92        98        96
       101        98        94        95        94        96       103        96
       103       105        96        97        98        99        98       100
       101       102       104       103       105       106       105       107
       110       107       110       112       107       108       107       109
       111       110       124       116       124       126       112       116
       116       118       118       121       121       113       112       113
       117       116       122       121       123       121       114       113
       115       113       119       118       120       118       125       124
       126       127       126       128       131       128       131       133
       128       129       128       130       132       131       137       135
       140       137       142       140       133       134       133       135
       143       135       143       145       135       136       137       138
       137       139       144       143       140       141       157       149
       145       149       149       151       151       154       154       146
       145       146       150       149       155       154       156       154
       147       146       148       146       152       151       153       151
       157       159       157       158

       296 !NTHETA: angles
         2         1         3         2         1         4         2         1         5
         3         1         4         3         1         5         4         1         5
         1         5         6         1         5         7         1         5         8
         6         5         7         6         5         8         7         5         8
         5         8         9         5         8        10         9         8        10
         8        10        11         8        10        14        11        10        14
        10        11        12        10        11        13        10        11        19
        12        11        13        12        11        19        13        11        19
        10        14        15        10        14        16        10        14        22
        15        14        16        15        14        22        16        14        22
        14        16        17        14        16        18        14        16        19
        17        16        18        17        16        19        18        16        19
        11        19        16        11        19        20        11        19        21
        16        19        20        16        19        21        20        19        21
        14        22        23        14        22        24        23        22        24
        22        24        25        22        24        26        25        24        26
        24        26        27        24        26        28        24        26        29
        27        26        28        27        26        29        28        26        29
        26        29        30        26        29        31        30        29        31
        29        31        32        29        31        33        32        31        33
        31        33        34        31        33        35        31        33        41
        34        33        35        34        33        41        35        33        41
        33        35        36        33        35        37        33        35        38
        36        35        37        36        35        38        37        35        38
        35        38        39        35        38        40        39        38        40
        33        41        42        33        41        43        42        41        43
        41        43        44        41        43        47        44        43        47
        43        44        45        43        44        46        43        44        52
        45        44        46        45        44        52        46        44        52
        43        47        48        43        47        49        43        47        55
        48        47        49        48        47        55        49        47        55
        47        49        50        47        49        51        47        49        52
        50        49        51        50        49        52        51        49        52
        44        52        49        44        52        53        44        52        54
        49        52        53        49        52        54        53        52        54
        47        55        56        47        55        57        56        55        57
        55        57        58        55        57        59        58        57        59
        57        59        60        57        59        61        57        59        62
        60        59        61        60        59        62        61        59        62
        59        62        63        59        62        64        63        62        64
        62        64        65        62        64        66        65        64        66
        64        66        67        64        66        68        64        66        73
        67        66        68        67        66        73        68        66        73
        66        68        69        66        68        70        66        68        71
        69        68        70        69        68        71        70        68        71
        68        71        72        66        73        74        66        73        75
        74        73        75        73        75        76        73        75        77
        76        75        77        75        77        78        75        77        79
        75        77        85        78        77        79        78        77        85
        79        77        85        77        79        80        77        79        81
        77        79        82        80        79        81        80        79        82
        81        79        82        79        82        83        79        82        84
        83        82        84        77        85        86        77        85        87
        86        85        87        85        87        88        85        87        89
        88        87        89        87        89        90        87        89        91
        87        89        92        90        89        91        90        89        92
        91        89        92        89        92        93        89        92        94
        93        92        94        92        94        95        92        94        96
        95        94        96        94        96        97        94        96        98
        94        96       103        97        96        98        97        96       103
        98        96       103        96        98        99        96        98       100
        96        98       101        99        98       100        99        98       101
       100        98       101        98       101       102        96       103       104
        96       103       105       104       103       105       103       105       106
       103       105       107       106       105       107       105       107       108
       105       107       109       105       107       110       108       107       109
       108       107       110       109       107       110       107       110       111
       107       110       112       111       110       112       110       112       113
       110       112       116       113       112       116       112       113       114
       112       113       115       112       113       121       114       113       115
       114       113       121       115       113       121       112       116       117
       112       116       118       112       116       124       117       116       118
       117       116       124       118       116       124       116       118       119
       116       118       120       116       118       121       119       118       120
       119       118       121       120       118       121       113       121       118
       113       121       122       113       121       123       118       121       122
       118       121       123       122       121       123       116       124       125
       116       124       126       125       124       126       124       126       127
       124       126       128       127       126       128       126       128       129
       126       128       130       126       128       131       129       128       130
       129       128       131       130       128       131       128       131       132
       128       131       133       132       131       133       131       133       134
       131       133       135       134       133       135       133       135       136
       133       135       137       133       135       143       136       135       137
       136       135       143       137       135       143       135       137       138
       135       137       139       135       137       140       138       137       139
       138       137       140       139       137       140       137       140       141
       137       140       142       141       140       142       135       143       144
       135       143       145       144       143       145       143       145       146
       143       145       149       146       145       149       145       146       147
       145       146       148       145       146       154       147       146       148
       147       146       154       148       146       154       145       149       150
       145       149       151       145       149       157       150       149       151
       150       149       157       151       149       157       149       151       152
       149       151       153       149       151       154       152       151       153
       152       151       154       153       151       154       146       154       151
       146       154       155       146       154       156       151       154       155
       151       154       156       155       154       156       149       157       158
       149       157       159       158       157       159

       440 !NPHI: dihedrals
         1         5         8         9         1         5         8        10
         2         1         5         6         2         1         5         7
         2         1         5         8         3         1         5         6
         3         1         5         7         3         1         5         8
         4         1         5         6         4         1         5         7
         4         1         5         8         5         8        10        11
         5         8        10        14         6         5         8         9
         6         5         8        10         7         5         8         9
         7         5         8        10         8        10        11        12
         8        10        11        13         8        10        11        19
         8        10        14        15         8        10        14        16
         8        10        14        22         9         8        10        11
         9         8        10        14        10        11        19        16
        10        11        19        20        10        11        19        21
        10        14        16        17        10        14        16        18
        10        14        16        19        10        14        22        23
        10        14        22        24        11        10        14        15
        11        10        14        16        11        10        14        22
        11        19        16        14        11        19        16        17
        11        19        16        18        12        11        10        14
        12        11        19        16        12        11        19        20
        12        11        19        21        13        11        10        14
        13        11        19        16        13        11        19        20
        13        11        19        21        14        10        11        19
        14        16        19        20        14        16        19        21
        14        22        24        25        14        22        24        26
        15        14        16        17        15        14        16        18
        15        14        16        19        15        14        22        23
        15        14        22        24        16        14        22        23
        16        14        22        24        17        16        14        22
        17        16        19        20        17        16        19        21
        18        16        14        22        18        16        19        20
        18        16        19        21        19        16        14        22
        22        24        26        27        22        24        26        28
        22        24        26        29        23        22        24        25
        23        22        24        26        24        26        29        30
        24        26        29        31        25        24        26        27
        25        24        26        28        25        24        26        29
        26        29        31        32        26        29        31        33
        27        26        29        30        27        26        29        31
        28        26        29        30        28        26        29        31
        29        31        33        34        29        31        33        35
        29        31        33        41        30        29        31        32
        30        29        31        33        31        33        35        36
        31        33        35        37        31        33        35        38
        31        33        41        42        31        33        41        43
        32        31        33        34        32        31        33        35
        32        31        33        41        33        35        38        39
        33        35        38        40        33        41        43        44
        33        41        43        47        34        33        35        36
        34        33        35        37        34        33        35        38
        34        33        41        42        34        33        41        43
        35        33        41        42        35        33        41        43
        36        35        33        41        36        35        38        39
        36        35        38        40        37        35        33        41
        37        35        38        39        37        35        38        40
        38        35        33        41        41        43        44        45
        41        43        44        46        41        43        44        52
        41        43        47        48        41        43        47        49
        41        43        47        55        42        41        43        44
        42        41        43        47        43        44        52        49
        43        44        52        53        43        44        52        54
        43        47        49        50        43        47        49        51
        43        47        49        52        43        47        55        56
        43        47        55        57        44        43        47        48
        44        43        47        49        44        43        47        55
        44        52        49        47        44        52        49        50
        44        52        49        51        45        44        43        47
        45        44        52        49        45        44        52        53
        45        44        52        54        46        44        43        47
        46        44        52        49        46        44        52        53
        46        44        52        54        47        43        44        52
        47        49        52        53        47        49        52        54
        47        55        57        58        47        55        57        59
        48        47        49        50        48        47        49        51
        48        47        49        52        48        47        55        56
        48        47        55        57        49        47        55        56
        49        47        55        57        50        49        47        55
        50        49        52        53        50        49        52        54
        51        49        47        55        51        49        52        53
        51        49        52        54        52        49        47        55
        55        57        59        60        55        57        59        61
        55        57        59        62        56        55        57        58
        56        55        57        59        57        59        62        63
        57        59        62        64        58        57        59        60
        58        57        59        61        58        57        59        62
        59        62        64        65        59        62        64        66
        60        59        62        63        60        59        62        64
        61        59        62        63        61        59        62        64
        62        64        66        67        62        64        66        68
        62        64        66        73        63        62        64        65
        63        62        64        66        64        66        68        69
        64        66        68        70        64        66        68        71
        64        66        73        74        64        66        73        75
        65        64        66        67        65        64        66        68
        65        64        66        73        66        68        71        72
        66        73        75        76        66        73        75        77
        67        66        68        69        67        66        68        70
        67        66        68        71        67        66        73        74
        67        66        73        75        68        66        73        74
        68        66        73        75        69        68        66        73
        69        68        71        72        70        68        66        73
        70        68        71        72        71        68        66        73
        73        75        77        78        73        75        77        79
        73        75        77        85        74        73        75        76
        74        73        75        77        75        77        79        80
        75        77        79        81        75        77        79        82
        75        77        85        86        75        77        85        87
        76        75        77        78        76        75        77        79
        76        75        77        85        77        79        82        83
        77        79        82        84        77        85        87        88
        77        85        87        89        78        77        79        80
        78        77        79        81        78        77        79        82
        78        77        85        86        78        77        85        87
        79        77        85        86        79        77        85        87
        80        79        77        85        80        79        82        83
        80        79        82        84        81        79        77        85
        81        79        82        83        81        79        82        84
        82        79        77        85        85        87        89        90
        85        87        89        91        85        87        89        92
        86        85        87        88        86        85        87        89
        87        89        92        93        87        89        92        94
        88        87        89        90        88        87        89        91
        88        87        89        92        89        92        94        95
        89        92        94        96        90        89        92        93
        90        89        92        94        91        89        92        93
        91        89        92        94        92        94        96        97
        92        94        96        98        92        94        96       103
        93        92        94        95        93        92        94        96
        94        96        98        99        94        96        98       100
        94        96        98       101        94        96       103       104
        94        96       103       105        95        94        96        97
        95        94        96        98        95        94        96       103
        96        98       101       102        96       103       105       106
        96       103       105       107        97        96        98        99
        97        96        98       100        97        96        98       101
        97        96       103       104        97        96       103       105
        98        96       103       104        98        96       103       105
        99        98        96       103        99        98       101       102
       100        98        96       103       100        98       101       102
       101        98        96       103       103       105       107       108
       103       105       107       109       103       105       107       110
       104       103       105       106       104       103       105       107
       105       107       110       111       105       107       110       112
       106       105       107       108       106       105       107       109
       106       105       107       110       107       110       112       113
       107       110       112       116       108       107       110       111
       108       107       110       112       109       107       110       111
       109       107       110       112       110       112       113       114
       110       112       113       115       110       112       113       121
       110       112       116       117       110       112       116       118
       110       112       116       124       111       110       112       113
       111       110       112       116       112       113       121       118
       112       113       121       122       112       113       121       123
       112       116       118       119       112       116       118       120
       112       116       118       121       112       116       124       125
       112       116       124       126       113       112       116       117
       113       112       116       118       113       112       116       124
       113       121       118       116       113       121       118       119
       113       121       118       120       114       113       112       116
       114       113       121       118       114       113       121       122
       114       113       121       123       115       113       112       116
       115       113       121       118       115       113       121       122
       115       113       121       123       116       112       113       121
       116       118       121       122       116       118       121       123
       116       124       126       127       116       124       126       128
       117       116       118       119       117       116       118       120
       117       116       118       121       117       116       124       125
       117       116       124       126       118       116       124       125
       118       116       124       126       119       118       116       124
       119       118       121       122       119       118       121       123
       120       118       116       124       120       118       121       122
       120       118       121       123       121       118       116       124
       124       126       128       129       124       126       128       130
       124       126       128       131       125       124       126       127
       125       124       126       128       126       128       131       132
       126       128       131       133       127       126       128       129
       127       126       128       130       127       126       128       131
       128       131       133       134       128       131       133       135
       129       128       131       132       129       128       131       133
       130       128       131       132       130       128       131       133
       131       133       135       136       131       133       135       137
       131       133       135       143       132       131       133       134
       132       131       133       135       133       135       137       138
       133       135       137       139       133       135       137       140
       133       135       143       144       133       135       143       145
       134       133       135       136       134       133       135       137
       134       133       135       143       135       137       140       141
       135       137       140       142       135       143       145       146
       135       143       145       149       136       135       137       138
       136       135       137       139       136       135       137       140
       136       135       143       144       136       135       143       145
       137       135       143       144       137       135       143       145
       138       137       135       143       138       137       140       141
       138       137       140       142       139       137       135       143
       139       137       140       141       139       137       140       142
       140       137       135       143       143       145       146       147
       143       145       146       148       143       145       146       154
       143       145       149       150       143       145       149       151
       143       145       149       157       144       143       145       146
       144       143       145       149       145       146       154       151
       145       146       154       155       145       146       154       156
       145       149       151       152       145       149       151       153
       145       149       151       154       145       149       157       158
       145       149       157       159       146       145       149       150
       146       145       149       151       146       145       149       157
       146       154       151       149       146       154       151       152
       146       154       151       153       147       146       145       149
       147       146       154       151       147       146       154       155
       147       146       154       156       148       146       145       149
       148       146       154       151       148       146       154       155
       148       146       154       156       149       145       146       154
       149       151       154       155       149       151       154       156
       150       149       151       152       150       149       151       153
       150       149       151       154       150       149       157       158
       150       149       157       159       151       149       157       158
       151       149       157       159       152       151       149       157
       152       151       154       155       152       151       154       156
       153       151       149       157       153       151       154       155
       153       151       154       156       154       151       149       157

        32 !NIMPHI: impropers
         8         5        10         9        10         8        14        11
        22        14        24        23        24        22        26        25
        29        26        31        30        31        29        33        32
        41        33        43        42        38        35        40        39
        43        41        47        44        55        47        57        56
        57        55        59        58        62        59        64        63
        64        62        66        65        73        66        75        74
        75        73        77        76        85        77        87        86
        82        79        84        83        87        85        89        88
        92        89        94        93        94        92        96        95
       103        96       105       104       105       103       107       106
       110       107       112       111       112       110       116       113
       124       116       126       125       126       124       128       127
       131       128       133       132       133       131       135       134
       143       135       145       144       140       137       142       141
       145       143       149       146       157       149       159       158

        15 !NDON: donors
         1         2         1         3         1         4        24        25
        31        32        57        58        64        65        71        72
        75        76        87        88        94        95       101       102
       105       106       126       127       133       134

        24 !NACC: acceptors
         9         8        23        22        30        29        39        38
        40        38        42        41        56        55        63        62
        71         0        74        73        83        82        84        82
        86        85        93        92       101         0       104       103
       111       110       125       124       132       131       141       140
       142       140       144       143       158       157       159       157

         0 !NNB

         0         0         0         0         0         0         0         0
         0         0         0         0         0         0         0         0
         0         0         0         0         0         0         0         0
         0         0         0         0         0         0         0         0
         0         0         0         0         0         0         0         0
         0         0         0         0         0         0         0         0
         0         0         0         0         0         0         0         0
         0         0         0         0         0         0         0         0
         0         0         0         0         0         0         0         0
         0         0         0         0         0         0         0         0
         0         0         0         0         0         0         0         0
         0         0         0         0         0         0         0         0
         0         0         0         0         0         0         0         0
         0         0         0         0         0         0         0         0
         0         0         0         0         0         0         0         0
         0         0         0         0         0         0         0         0
         0         0         0         0         0         0         0         0
         0         0         0         0         0         0         0         0
         0         0         0         0         0         0         0         0
         0         0         0         0         0         0         0

        43         0 !NGRP NST2
         0         2         0         7         1         0         9         1         0
        15         1         0        18         1         0        21         1         0
        23         1         0        28         1         0        30         1         0
        34         2         0        40         1         0        42         1         0
        48         1         0        51         1         0        54         1         0
        56         1         0        61         1         0        63         1         0
        67         1         0        72         1         0        74         1         0
        78         2         0        84         1         0        86         1         0
        91         1         0        93         1         0        97         1         0
       102         1         0       104         1         0       109         1         0
       111         1         0       117         1         0       120         1         0
       123         1         0       125         1         0       130         1         0
       132         1         0       136         2         0       142         1         0
       144         1         0       150         1         0       153         1         0
       156         2         0

         0         0 !NUMLP NUMLPH

        13 !NCRTERM: cross-terms
         8        10        14        22        10        14        22        24
        22        24        26        29        24        26        29        31
        29        31        33        41        31        33        41        43
        41        43        47        55        43        47        55        57
        55        57        59        62        57        59        62        64
        62        64        66        73        64        66        73        75
        73        75        77        85        75        77        85        87
        85        87        89        92        87        89        92        94
        92        94        96       103        94        96       103       105
       103       105       107       110       105       107       110       112
       110       112       116       124       112       116       124       126
       124       126       128       131       126       128       131       133
       131       133       135       143       133       135       143       145
