Title t=  22.00000 step= 11000
19942
    1ASP      N    1   1.433   2.339   3.489
    1ASP    HT1    2   1.403   2.369   3.584
    1ASP    HT2    3   1.399   2.411   3.421
    1ASP    HT3    4   1.536   2.331   3.482
    1ASP     CA    5   1.375   2.214   3.458
    1ASP     HA    6   1.386   2.147   3.542
    1ASP     CB    7   1.227   2.250   3.434
    1ASP    HB1    8   1.207   2.284   3.330
    1ASP    HB2    9   1.181   2.318   3.509
    1ASP     CG   10   1.141   2.117   3.434
    1ASP    OD1   11   1.029   2.122   3.380
    1ASP    OD2   12   1.183   2.027   3.506
    1ASP      C   13   1.444   2.147   3.340
    1ASP      O   14   1.492   2.224   3.253
    2ALA      N   15   1.447   2.013   3.326
    2ALA     HN   16   1.389   1.964   3.390
    2ALA     CA   17   1.495   1.939   3.218
    2ALA     HA   18   1.574   2.000   3.178
    2ALA     CB   19   1.537   1.795   3.246
    2ALA    HB1   20   1.578   1.730   3.165
    2ALA    HB2   21   1.453   1.736   3.290
    2ALA    HB3   22   1.612   1.804   3.327
    2ALA      C   23   1.393   1.947   3.111
    2ALA      O   24   1.273   1.949   3.135
    3ASP      N   25   1.434   1.951   2.985
    3ASP     HN   26   1.530   1.968   2.962
    3ASP     CA   27   1.333   1.947   2.873
    3ASP     HA   28   1.276   2.038   2.886
    3ASP     CB   29   1.391   1.955   2.722
    3ASP    HB1   30   1.307   1.984   2.656
    3ASP    HB2   31   1.453   1.866   2.699
    3ASP     CG   32   1.490   2.070   2.698
    3ASP    OD1   33   1.543   2.069   2.585
    3ASP    OD2   34   1.511   2.153   2.790
    3ASP      C   35   1.244   1.819   2.877
    3ASP      O   36   1.283   1.708   2.921
    4GLY      N   37   1.114   1.833   2.835
    4GLY     HN   38   1.087   1.923   2.803
    4GLY     CA   39   1.017   1.722   2.835
    4GLY    HA1   40   0.918   1.764   2.826
    4GLY    HA2   41   1.021   1.670   2.929
    4GLY      C   42   1.038   1.617   2.725
    4GLY      O   43   1.090   1.651   2.621
    5PRO      N   44   0.996   1.492   2.737
    5PRO     CD   45   0.960   1.425   2.862
    5PRO    HD1   46   0.885   1.495   2.906
    5PRO    HD2   47   1.050   1.419   2.927
    5PRO     CA   48   0.994   1.387   2.632
    5PRO     HA   49   1.096   1.352   2.639
    5PRO     CB   50   0.892   1.292   2.675
    5PRO    HB1   51   0.895   1.187   2.638
    5PRO    HB2   52   0.795   1.337   2.645
    5PRO     CG   53   0.899   1.286   2.828
    5PRO    HG1   54   0.801   1.274   2.880
    5PRO    HG2   55   0.958   1.197   2.859
    5PRO      C   56   0.979   1.418   2.481
    5PRO      O   57   0.893   1.493   2.447
    6GLY      N   58   1.043   1.345   2.396
    6GLY     HN   59   1.106   1.276   2.428
    6GLY     CA   60   1.005   1.338   2.258
    6GLY    HA1   61   1.079   1.279   2.205
    6GLY    HA2   62   0.991   1.439   2.221
    6GLY      C   63   0.882   1.267   2.222
    6GLY      O   64   0.834   1.183   2.300
    7ASP      N   65   0.831   1.281   2.094
    7ASP     HN   66   0.881   1.351   2.044
    7ASP     CA   67   0.735   1.200   2.025
    7ASP     HA   68   0.645   1.208   2.083
    7ASP     CB   69   0.723   1.258   1.882
    7ASP    HB1   70   0.818   1.237   1.829
    7ASP    HB2   71   0.711   1.367   1.903
    7ASP     CG   72   0.607   1.199   1.814
    7ASP    OD1   73   0.575   1.227   1.696
    7ASP    OD2   74   0.530   1.124   1.881
    7ASP      C   75   0.778   1.051   2.021
    7ASP      O   76   0.872   1.032   1.949
    8PRO      N   77   0.716   0.953   2.080
    8PRO     CD   78   0.612   0.976   2.179
    8PRO    HD1   79   0.511   0.965   2.134
    8PRO    HD2   80   0.617   1.064   2.247
    8PRO     CA   81   0.751   0.808   2.079
    8PRO     HA   82   0.852   0.787   2.113
    8PRO     CB   83   0.655   0.742   2.180
    8PRO    HB1   84   0.691   0.646   2.224
    8PRO    HB2   85   0.559   0.712   2.134
    8PRO     CG   86   0.635   0.861   2.279
    8PRO    HG1   87   0.555   0.840   2.354
    8PRO    HG2   88   0.733   0.867   2.332
    8PRO      C   89   0.751   0.760   1.940
    8PRO      O   90   0.804   0.653   1.917
    9ASP      N   91   0.684   0.830   1.846
    9ASP     HN   92   0.630   0.907   1.878
    9ASP     CA   93   0.685   0.793   1.707
    9ASP     HA   94   0.658   0.689   1.701
    9ASP     CB   95   0.580   0.881   1.635
    9ASP    HB1   96   0.592   0.873   1.524
    9ASP    HB2   97   0.608   0.987   1.651
    9ASP     CG   98   0.441   0.861   1.690
    9ASP    OD1   99   0.358   0.955   1.699
    9ASP    OD2  100   0.407   0.742   1.727
    9ASP      C  101   0.819   0.811   1.635
    9ASP      O  102   0.848   0.742   1.541
   10ALA      N  103   0.899   0.910   1.678
   10ALA     HN  104   0.879   0.959   1.763
   10ALA     CA  105   1.007   0.969   1.607
   10ALA     HA  106   0.990   0.967   1.500
   10ALA     CB  107   1.031   1.120   1.642
   10ALA    HB1  108   1.117   1.162   1.584
   10ALA    HB2  109   1.044   1.132   1.751
   10ALA    HB3  110   0.940   1.178   1.616
   10ALA      C  111   1.134   0.892   1.642
   10ALA      O  112   1.147   0.840   1.746
   11GLY      N  113   1.225   0.887   1.545
   11GLY     HN  114   1.198   0.929   1.458
   11GLY     CA  115   1.356   0.815   1.540
   11GLY    HA1  116   1.365   0.781   1.438
   11GLY    HA2  117   1.359   0.742   1.619
   11GLY      C  118   1.469   0.914   1.564
   11GLY    OT1  119   1.494   1.013   1.493
   11GLY    OT2  120   1.538   0.879   1.665
   12LIT    LIT  121   5.048   5.002   3.237
   13LIT    LIT  122   0.433   2.630   2.797
   14LIT    LIT  123   0.972   5.558   2.676
   15LIT    LIT  124   0.561   0.536   4.699
   16LIT    LIT  125   4.120   5.669   2.893
   17LIT    LIT  126   3.810   5.134   4.667
   18LIT    LIT  127   0.141   5.500   3.237
   19LIT    LIT  128   0.419   1.125   1.711
   20LIT    LIT  129   3.151   2.698   4.177
   21LIT    LIT  130   4.142   0.220   2.563
   22LIT    LIT  131   4.211   3.298   0.672
   23LIT    LIT  132   1.233   2.293   2.097
   24LIT    LIT  133   5.771   3.035   0.443
   25LIT    LIT  134   1.585   5.305   0.107
   26LIT    LIT  135   1.967   0.900   4.410
   27LIT    LIT  136   0.104   0.580   3.174
   28LIT    LIT  137   2.285   1.850   4.132
   29LIT    LIT  138   2.873   4.137   2.339
   30LIT    LIT  139   2.489   1.641   1.226
   31LIT    LIT  140   5.371   3.742   4.568
   32LIT    LIT  141   5.616   0.367   1.582
   33LIT    LIT  142   4.040   1.012   0.777
   34CLA    CLA  143   3.096   2.150   3.129
   35CLA    CLA  144   0.151   0.090   4.827
   36CLA    CLA  145   2.077   1.383   4.419
   37CLA    CLA  146   5.936   3.791   4.250
   38CLA    CLA  147   1.700   2.199   5.105
   39CLA    CLA  148   3.885   4.413   3.981
   40CLA    CLA  149   1.302   1.575   3.709
   41CLA    CLA  150   0.316   3.822   1.354
   42CLA    CLA  151   3.381   3.382   2.137
   43CLA    CLA  152   1.514   3.452   1.272
   44CLA    CLA  153   1.346   5.724   0.016
   45CLA    CLA  154   3.199   0.952   3.012
   46CLA    CLA  155   1.820   1.523   2.324
   47CLA    CLA  156   1.932   0.732   4.566
   48CLA    CLA  157   3.184   5.479   4.929
   49CLA    CLA  158   3.992   1.282   5.079
   50CLA    CLA  159   1.312   2.008   0.841
   51CLA    CLA  160   1.463   5.542   1.532
   52TIP3   OH2  161   6.068   2.705   3.073
   52TIP3    H1  162   6.107   2.780   3.118
   52TIP3    H2  163   5.978   2.703   3.104
   53TIP3   OH2  164   1.554   2.601   4.555
   53TIP3    H1  165   1.567   2.568   4.644
   53TIP3    H2  166   1.468   2.567   4.530
   54TIP3   OH2  167   0.770   1.061   3.394
   54TIP3    H1  168   0.676   1.057   3.378
   54TIP3    H2  169   0.778   1.114   3.473
   55TIP3   OH2  170   4.564   4.452   1.214
   55TIP3    H1  171   4.592   4.431   1.303
   55TIP3    H2  172   4.491   4.513   1.225
   56TIP3   OH2  173   3.552   1.622   1.391
   56TIP3    H1  174   3.523   1.712   1.401
   56TIP3    H2  175   3.647   1.625   1.401
   57TIP3   OH2  176   5.467   4.157   4.794
   57TIP3    H1  177   5.423   4.072   4.788
   57TIP3    H2  178   5.503   4.159   4.883
   58TIP3   OH2  179   5.832   2.902   1.319
   58TIP3    H1  180   5.789   2.859   1.245
   58TIP3    H2  181   5.871   2.830   1.368
   59TIP3   OH2  182   3.015   2.894   3.274
   59TIP3    H1  183   3.051   2.979   3.300
   59TIP3    H2  184   3.089   2.834   3.279
   60TIP3   OH2  185   3.074   5.964   3.535
   60TIP3    H1  186   3.037   6.044   3.497
   60TIP3    H2  187   3.095   5.909   3.459
   61TIP3   OH2  188   4.648   2.445   2.799
   61TIP3    H1  189   4.580   2.440   2.866
   61TIP3    H2  190   4.610   2.499   2.730
   62TIP3   OH2  191   5.408   3.122   3.283
   62TIP3    H1  192   5.323   3.165   3.292
   62TIP3    H2  193   5.461   3.184   3.233
   63TIP3   OH2  194   3.347   3.141   2.347
   63TIP3    H1  195   3.360   3.233   2.323
   63TIP3    H2  196   3.259   3.121   2.316
   64TIP3   OH2  197   4.465   0.617   1.257
   64TIP3    H1  198   4.413   0.574   1.325
   64TIP3    H2  199   4.463   0.557   1.183
   65TIP3   OH2  200   3.200   1.079   1.624
   65TIP3    H1  201   3.126   1.110   1.571
   65TIP3    H2  202   3.198   1.135   1.702
   66TIP3   OH2  203  -0.003   4.633   4.891
   66TIP3    H1  204  -0.049   4.552   4.912
   66TIP3    H2  205   0.090   4.612   4.900
   67TIP3   OH2  206   0.283   5.501   0.246
   67TIP3    H1  207   0.223   5.444   0.294
   67TIP3    H2  208   0.345   5.441   0.205
   68TIP3   OH2  209   1.879   1.340   2.080
   68TIP3    H1  210   1.855   1.253   2.111
   68TIP3    H2  211   1.858   1.398   2.153
   69TIP3   OH2  212   3.824   3.876   1.267
   69TIP3    H1  213   3.867   3.795   1.242
   69TIP3    H2  214   3.743   3.878   1.215
   70TIP3   OH2  215   5.000   1.490   3.870
   70TIP3    H1  216   4.924   1.545   3.855
   70TIP3    H2  217   5.056   1.504   3.793
   71TIP3   OH2  218   4.617   3.329   0.781
   71TIP3    H1  219   4.695   3.300   0.734
   71TIP3    H2  220   4.642   3.413   0.820
   72TIP3   OH2  221   0.912   0.085   0.953
   72TIP3    H1  222   0.982   0.070   1.016
   72TIP3    H2  223   0.843   0.129   1.003
   73TIP3   OH2  224   6.230   5.612   1.668
   73TIP3    H1  225   6.149   5.600   1.618
   73TIP3    H2  226   6.250   5.705   1.658
   74TIP3   OH2  227   3.308   1.344   1.450
   74TIP3    H1  228   3.319   1.438   1.439
   74TIP3    H2  229   3.373   1.320   1.516
   75TIP3   OH2  230   5.971   2.057   2.055
   75TIP3    H1  231   5.916   2.026   1.983
   75TIP3    H2  232   6.034   2.115   2.014
   76TIP3   OH2  233   3.353   5.035   2.596
   76TIP3    H1  234   3.288   5.030   2.666
   76TIP3    H2  235   3.339   4.955   2.545
   77TIP3   OH2  236   1.219   1.578   3.143
   77TIP3    H1  237   1.245   1.655   3.092
   77TIP3    H2  238   1.205   1.612   3.232
   78TIP3   OH2  239   2.469   1.605   4.653
   78TIP3    H1  240   2.446   1.538   4.717
   78TIP3    H2  241   2.541   1.654   4.694
   79TIP3   OH2  242   5.787   0.768   0.879
   79TIP3    H1  243   5.828   0.847   0.846
   79TIP3    H2  244   5.859   0.711   0.905
   80TIP3   OH2  245   1.931   3.729   1.696
   80TIP3    H1  246   1.853   3.734   1.751
   80TIP3    H2  247   2.001   3.765   1.751
   81TIP3   OH2  248   3.071   3.987   3.507
   81TIP3    H1  249   2.980   4.006   3.532
   81TIP3    H2  250   3.118   3.979   3.590
   82TIP3   OH2  251   0.324   2.756   4.392
   82TIP3    H1  252   0.417   2.777   4.391
   82TIP3    H2  253   0.302   2.737   4.300
   83TIP3   OH2  254   5.300   3.198   3.904
   83TIP3    H1  255   5.289   3.284   3.945
   83TIP3    H2  256   5.247   3.139   3.956
   84TIP3   OH2  257   0.143   2.334   0.820
   84TIP3    H1  258   0.128   2.403   0.756
   84TIP3    H2  259   0.126   2.252   0.773
   85TIP3   OH2  260   0.193   1.949   4.491
   85TIP3    H1  261   0.254   1.928   4.562
   85TIP3    H2  262   0.238   2.016   4.439
   86TIP3   OH2  263   4.376   2.095   2.940
   86TIP3    H1  264   4.462   2.115   2.902
   86TIP3    H2  265   4.315   2.103   2.867
   87TIP3   OH2  266   6.167   4.491   3.236
   87TIP3    H1  267   6.228   4.476   3.164
   87TIP3    H2  268   6.120   4.408   3.246
   88TIP3   OH2  269   4.156   2.648   2.182
   88TIP3    H1  270   4.248   2.673   2.186
   88TIP3    H2  271   4.156   2.564   2.136
   89TIP3   OH2  272   0.094   5.375   0.426
   89TIP3    H1  273   0.038   5.302   0.401
   89TIP3    H2  274   0.065   5.399   0.514
   90TIP3   OH2  275   3.723   5.235   1.386
   90TIP3    H1  276   3.727   5.314   1.332
   90TIP3    H2  277   3.659   5.179   1.342
   91TIP3   OH2  278   0.204   0.523   4.205
   91TIP3    H1  279   0.232   0.442   4.162
   91TIP3    H2  280   0.193   0.498   4.297
   92TIP3   OH2  281   4.813   2.892   1.616
   92TIP3    H1  282   4.866   2.825   1.571
   92TIP3    H2  283   4.826   2.971   1.564
   93TIP3   OH2  284   5.355   5.310   2.855
   93TIP3    H1  285   5.442   5.271   2.845
   93TIP3    H2  286   5.332   5.293   2.947
   94TIP3   OH2  287   4.748   3.790   2.765
   94TIP3    H1  288   4.655   3.806   2.747
   94TIP3    H2  289   4.767   3.843   2.842
   95TIP3   OH2  290   3.734   0.300   4.455
   95TIP3    H1  291   3.775   0.367   4.509
   95TIP3    H2  292   3.760   0.321   4.365
   96TIP3   OH2  293   1.623   5.333   0.307
   96TIP3    H1  294   1.605   5.409   0.362
   96TIP3    H2  295   1.713   5.310   0.326
   97TIP3   OH2  296   3.797   5.434   0.547
   97TIP3    H1  297   3.841   5.371   0.604
   97TIP3    H2  298   3.794   5.515   0.597
   98TIP3   OH2  299   1.445   1.032   4.127
   98TIP3    H1  300   1.406   1.111   4.165
   98TIP3    H2  301   1.504   1.065   4.059
   99TIP3   OH2  302   6.151   3.746   1.614
   99TIP3    H1  303   6.186   3.830   1.640
   99TIP3    H2  304   6.163   3.690   1.690
  100TIP3   OH2  305   2.668   0.527   0.455
  100TIP3    H1  306   2.606   0.464   0.420
  100TIP3    H2  307   2.750   0.507   0.411
  101TIP3   OH2  308   2.389   1.594   1.684
  101TIP3    H1  309   2.455   1.545   1.733
  101TIP3    H2  310   2.346   1.650   1.749
  102TIP3   OH2  311   3.365   1.544   4.301
  102TIP3    H1  312   3.283   1.502   4.274
  102TIP3    H2  313   3.427   1.521   4.232
  103TIP3   OH2  314   3.005   4.757   2.805
  103TIP3    H1  315   2.998   4.729   2.897
  103TIP3    H2  316   2.915   4.768   2.776
  104TIP3   OH2  317   0.339   5.822   3.456
  104TIP3    H1  318   0.426   5.811   3.493
  104TIP3    H2  319   0.319   5.915   3.467
  105TIP3   OH2  320   5.518   0.304   5.166
  105TIP3    H1  321   5.500   0.213   5.192
  105TIP3    H2  322   5.507   0.355   5.246
  106TIP3   OH2  323   0.097   4.579   1.151
  106TIP3    H1  324   0.045   4.585   1.231
  106TIP3    H2  325   0.151   4.501   1.162
  107TIP3   OH2  326   3.971   1.964   0.626
  107TIP3    H1  327   4.040   1.992   0.566
  107TIP3    H2  328   4.007   1.886   0.669
  108TIP3   OH2  329   4.330   5.883   3.928
  108TIP3    H1  330   4.368   5.969   3.908
  108TIP3    H2  331   4.404   5.830   3.956
  109TIP3   OH2  332   2.981   3.491   3.656
  109TIP3    H1  333   2.985   3.527   3.568
  109TIP3    H2  334   2.978   3.567   3.714
  110TIP3   OH2  335   6.159   0.403   3.386
  110TIP3    H1  336   6.159   0.498   3.377
  110TIP3    H2  337   6.155   0.387   3.480
  111TIP3   OH2  338   5.088   4.399   2.879
  111TIP3    H1  339   5.178   4.375   2.856
  111TIP3    H2  340   5.084   4.493   2.864
  112TIP3   OH2  341   4.884   4.130   2.368
  112TIP3    H1  342   4.962   4.119   2.422
  112TIP3    H2  343   4.846   4.042   2.361
  113TIP3   OH2  344   0.522   5.070   2.672
  113TIP3    H1  345   0.528   5.053   2.578
  113TIP3    H2  346   0.472   5.151   2.678
  114TIP3   OH2  347   0.550   0.718   2.775
  114TIP3    H1  348   0.606   0.796   2.771
  114TIP3    H2  349   0.591   0.663   2.841
  115TIP3   OH2  350   4.348  -0.062   2.950
  115TIP3    H1  351   4.383  -0.016   2.874
  115TIP3    H2  352   4.283  -0.002   2.986
  116TIP3   OH2  353   4.854   3.692   3.385
  116TIP3    H1  354   4.823   3.774   3.424
  116TIP3    H2  355   4.803   3.683   3.305
  117TIP3   OH2  356   3.922   4.089   2.487
  117TIP3    H1  357   3.874   4.098   2.569
  117TIP3    H2  358   3.918   3.995   2.468
  118TIP3   OH2  359   5.345   5.604   4.492
  118TIP3    H1  360   5.284   5.558   4.549
  118TIP3    H2  361   5.420   5.546   4.485
  119TIP3   OH2  362   1.452   4.446   1.669
  119TIP3    H1  363   1.399   4.526   1.674
  119TIP3    H2  364   1.534   4.475   1.627
  120TIP3   OH2  365   3.088   4.937   4.810
  120TIP3    H1  366   3.029   4.864   4.826
  120TIP3    H2  367   3.042   4.993   4.747
  121TIP3   OH2  368   0.226   1.630   4.806
  121TIP3    H1  369   0.270   1.610   4.888
  121TIP3    H2  370   0.293   1.672   4.752
  122TIP3   OH2  371   6.089   2.909   3.893
  122TIP3    H1  372   6.031   2.882   3.822
  122TIP3    H2  373   6.177   2.902   3.855
  123TIP3   OH2  374   2.774   1.683   5.046
  123TIP3    H1  375   2.853   1.705   4.995
  123TIP3    H2  376   2.807   1.632   5.120
  124TIP3   OH2  377   5.568   0.739   3.879
  124TIP3    H1  378   5.513   0.738   3.957
  124TIP3    H2  379   5.657   0.746   3.913
  125TIP3   OH2  380   2.513   2.138   1.315
  125TIP3    H1  381   2.445   2.124   1.381
  125TIP3    H2  382   2.580   2.073   1.336
  126TIP3   OH2  383   1.013   3.340   0.810
  126TIP3    H1  384   1.109   3.346   0.813
  126TIP3    H2  385   0.985   3.365   0.898
  127TIP3   OH2  386   0.241   5.756   5.156
  127TIP3    H1  387   0.298   5.689   5.194
  127TIP3    H2  388   0.187   5.709   5.092
  128TIP3   OH2  389   2.658   3.221   1.128
  128TIP3    H1  390   2.680   3.310   1.100
  128TIP3    H2  391   2.609   3.185   1.054
  129TIP3   OH2  392   5.276   2.797   1.806
  129TIP3    H1  393   5.345   2.781   1.871
  129TIP3    H2  394   5.303   2.745   1.730
  130TIP3   OH2  395   1.442   5.453   3.103
  130TIP3    H1  396   1.466   5.544   3.121
  130TIP3    H2  397   1.512   5.420   3.047
  131TIP3   OH2  398   3.610   2.108   0.084
  131TIP3    H1  399   3.652   2.110   0.169
  131TIP3    H2  400   3.632   2.193   0.044
  132TIP3   OH2  401   3.735   0.847   1.285
  132TIP3    H1  402   3.672   0.776   1.296
  132TIP3    H2  403   3.682   0.925   1.274
  133TIP3   OH2  404   2.286   5.840   2.657
  133TIP3    H1  405   2.214   5.785   2.687
  133TIP3    H2  406   2.364   5.804   2.698
  134TIP3   OH2  407   2.415   3.116   1.254
  134TIP3    H1  408   2.365   3.190   1.221
  134TIP3    H2  409   2.499   3.121   1.209
  135TIP3   OH2  410   2.270   2.035   3.266
  135TIP3    H1  411   2.226   2.014   3.184
  135TIP3    H2  412   2.344   2.090   3.241
  136TIP3   OH2  413   5.561   1.896   4.579
  136TIP3    H1  414   5.657   1.893   4.585
  136TIP3    H2  415   5.541   1.841   4.503
  137TIP3   OH2  416   3.086   4.255   4.752
  137TIP3    H1  417   3.179   4.246   4.772
  137TIP3    H2  418   3.074   4.350   4.741
  138TIP3   OH2  419   3.710   4.941   5.098
  138TIP3    H1  420   3.753   4.954   5.183
  138TIP3    H2  421   3.617   4.954   5.116
  139TIP3   OH2  422   5.179   0.283   1.572
  139TIP3    H1  423   5.178   0.362   1.626
  139TIP3    H2  424   5.178   0.210   1.634
  140TIP3   OH2  425   6.119   2.039   0.473
  140TIP3    H1  426   6.149   2.015   0.561
  140TIP3    H2  427   6.127   2.134   0.469
  141TIP3   OH2  428   6.126   1.551   3.975
  141TIP3    H1  429   6.197   1.486   3.969
  141TIP3    H2  430   6.170   1.632   3.999
  142TIP3   OH2  431   4.020   4.178   3.356
  142TIP3    H1  432   4.107   4.150   3.330
  142TIP3    H2  433   4.034   4.245   3.423
  143TIP3   OH2  434   5.736   1.878   3.064
  143TIP3    H1  435   5.705   1.886   2.974
  143TIP3    H2  436   5.746   1.784   3.078
  144TIP3   OH2  437   5.858   2.799   4.318
  144TIP3    H1  438   5.886   2.712   4.349
  144TIP3    H2  439   5.935   2.854   4.329
  145TIP3   OH2  440   5.497   4.584   2.167
  145TIP3    H1  441   5.539   4.573   2.082
  145TIP3    H2  442   5.553   4.645   2.214
  146TIP3   OH2  443   4.742   1.444   3.099
  146TIP3    H1  444   4.654   1.410   3.114
  146TIP3    H2  445   4.731   1.505   3.026
  147TIP3   OH2  446   6.192   2.609   1.081
  147TIP3    H1  447   6.282   2.610   1.049
  147TIP3    H2  448   6.188   2.682   1.143
  148TIP3   OH2  449   6.095   2.018   2.619
  148TIP3    H1  450   6.061   2.008   2.708
  148TIP3    H2  451   6.128   2.107   2.615
  149TIP3   OH2  452   5.145   5.497   3.019
  149TIP3    H1  453   5.145   5.408   3.053
  149TIP3    H2  454   5.236   5.525   3.024
  150TIP3   OH2  455   1.955   5.085   0.317
  150TIP3    H1  456   1.915   5.169   0.292
  150TIP3    H2  457   2.017   5.066   0.247
  151TIP3   OH2  458   3.717   1.087   2.591
  151TIP3    H1  459   3.726   0.995   2.565
  151TIP3    H2  460   3.796   1.106   2.640
  152TIP3   OH2  461   2.655   4.116   5.138
  152TIP3    H1  462   2.660   4.063   5.218
  152TIP3    H2  463   2.700   4.063   5.071
  153TIP3   OH2  464   0.650   3.314   3.685
  153TIP3    H1  465   0.725   3.278   3.732
  153TIP3    H2  466   0.586   3.243   3.682
  154TIP3   OH2  467   4.678   5.549   1.367
  154TIP3    H1  468   4.694   5.494   1.290
  154TIP3    H2  469   4.711   5.498   1.440
  155TIP3   OH2  470   5.768   5.254   4.106
  155TIP3    H1  471   5.851   5.208   4.093
  155TIP3    H2  472   5.735   5.222   4.190
  156TIP3   OH2  473   3.646   1.264   3.722
  156TIP3    H1  474   3.664   1.279   3.815
  156TIP3    H2  475   3.637   1.352   3.685
  157TIP3   OH2  476   6.058   2.800   2.165
  157TIP3    H1  477   6.124   2.862   2.196
  157TIP3    H2  478   6.034   2.831   2.078
  158TIP3   OH2  479   4.388   2.205   1.965
  158TIP3    H1  480   4.388   2.141   1.894
  158TIP3    H2  481   4.365   2.154   2.043
  159TIP3   OH2  482   6.023   3.959   4.482
  159TIP3    H1  483   5.981   3.912   4.409
  159TIP3    H2  484   6.025   4.050   4.453
  160TIP3   OH2  485   2.340   5.746   4.367
  160TIP3    H1  486   2.392   5.779   4.294
  160TIP3    H2  487   2.278   5.816   4.387
  161TIP3   OH2  488   5.132   1.635   1.768
  161TIP3    H1  489   5.088   1.702   1.820
  161TIP3    H2  490   5.062   1.574   1.744
  162TIP3   OH2  491   3.554   1.825   0.998
  162TIP3    H1  492   3.574   1.777   0.917
  162TIP3    H2  493   3.587   1.913   0.982
  163TIP3   OH2  494   2.078   1.518   3.049
  163TIP3    H1  495   1.990   1.553   3.068
  163TIP3    H2  496   2.092   1.452   3.117
  164TIP3   OH2  497   0.080   1.509   1.381
  164TIP3    H1  498   0.078   1.429   1.329
  164TIP3    H2  499   0.092   1.579   1.317
  165TIP3   OH2  500   4.420   2.869   1.098
  165TIP3    H1  501   4.364   2.947   1.095
  165TIP3    H2  502   4.375   2.806   1.042
  166TIP3   OH2  503   0.300   5.049   0.186
  166TIP3    H1  504   0.261   4.963   0.195
  166TIP3    H2  505   0.279   5.095   0.267
  167TIP3   OH2  506   2.958   5.089   1.912
  167TIP3    H1  507   3.050   5.066   1.918
  167TIP3    H2  508   2.938   5.087   1.818
  168TIP3   OH2  509   5.153   5.240   4.516
  168TIP3    H1  510   5.106   5.159   4.537
  168TIP3    H2  511   5.173   5.232   4.423
  169TIP3   OH2  512   5.356   0.096   4.297
  169TIP3    H1  513   5.371   0.123   4.387
  169TIP3    H2  514   5.379   0.003   4.296
  170TIP3   OH2  515   4.542   1.086   1.328
  170TIP3    H1  516   4.467   1.033   1.354
  170TIP3    H2  517   4.615   1.052   1.380
  171TIP3   OH2  518   3.164   4.574   0.429
  171TIP3    H1  519   3.156   4.508   0.498
  171TIP3    H2  520   3.258   4.588   0.420
  172TIP3   OH2  521   2.876   3.151   0.356
  172TIP3    H1  522   2.910   3.212   0.422
  172TIP3    H2  523   2.793   3.121   0.392
  173TIP3   OH2  524   5.716   1.501   5.022
  173TIP3    H1  525   5.663   1.537   4.950
  173TIP3    H2  526   5.722   1.408   5.002
  174TIP3   OH2  527   1.634   4.923   0.724
  174TIP3    H1  528   1.627   4.889   0.635
  174TIP3    H2  529   1.647   5.017   0.713
  175TIP3   OH2  530   0.373   3.722   1.053
  175TIP3    H1  531   0.469   3.723   1.053
  175TIP3    H2  532   0.350   3.750   1.142
  176TIP3   OH2  533   6.260   4.407   2.439
  176TIP3    H1  534   6.297   4.397   2.527
  176TIP3    H2  535   6.242   4.317   2.411
  177TIP3   OH2  536   2.743   5.098   3.613
  177TIP3    H1  537   2.710   5.160   3.678
  177TIP3    H2  538   2.833   5.079   3.641
  178TIP3   OH2  539   3.539   4.105   3.853
  178TIP3    H1  540   3.537   4.085   3.760
  178TIP3    H2  541   3.632   4.121   3.872
  179TIP3   OH2  542   1.800   5.625   1.553
  179TIP3    H1  543   1.716   5.580   1.561
  179TIP3    H2  544   1.776   5.715   1.528
  180TIP3   OH2  545   2.182   3.975   0.036
  180TIP3    H1  546   2.189   3.926   0.118
  180TIP3    H2  547   2.089   3.995   0.028
  181TIP3   OH2  548   0.511   4.353   3.537
  181TIP3    H1  549   0.606   4.346   3.543
  181TIP3    H2  550   0.489   4.434   3.582
  182TIP3   OH2  551   5.647   0.513   1.109
  182TIP3    H1  552   5.711   0.475   1.049
  182TIP3    H2  553   5.575   0.449   1.111
  183TIP3   OH2  554   5.285   1.814   1.513
  183TIP3    H1  555   5.321   1.779   1.431
  183TIP3    H2  556   5.207   1.761   1.529
  184TIP3   OH2  557   0.896   2.128   1.493
  184TIP3    H1  558   0.907   2.219   1.519
  184TIP3    H2  559   0.912   2.078   1.572
  185TIP3   OH2  560   1.852   3.574   4.075
  185TIP3    H1  561   1.768   3.528   4.071
  185TIP3    H2  562   1.849   3.636   4.002
  186TIP3   OH2  563   4.197   0.625   4.456
  186TIP3    H1  564   4.133   0.586   4.397
  186TIP3    H2  565   4.155   0.624   4.542
  187TIP3   OH2  566   3.175   5.012   2.803
  187TIP3    H1  567   3.124   4.935   2.829
  187TIP3    H2  568   3.153   5.079   2.868
  188TIP3   OH2  569   1.979   4.281   1.446
  188TIP3    H1  570   2.051   4.282   1.509
  188TIP3    H2  571   2.002   4.349   1.383
  189TIP3   OH2  572   0.227   5.103   1.815
  189TIP3    H1  573   0.228   5.179   1.757
  189TIP3    H2  574   0.306   5.054   1.793
  190TIP3   OH2  575   3.711   0.553   0.930
  190TIP3    H1  576   3.717   0.622   0.996
  190TIP3    H2  577   3.696   0.473   0.980
  191TIP3   OH2  578   3.499   2.742   1.719
  191TIP3    H1  579   3.483   2.739   1.624
  191TIP3    H2  580   3.412   2.746   1.758
  192TIP3   OH2  581   2.991   3.261   0.149
  192TIP3    H1  582   2.925   3.236   0.213
  192TIP3    H2  583   2.944   3.264   0.066
  193TIP3   OH2  584   5.369   3.626   2.678
  193TIP3    H1  585   5.280   3.597   2.697
  193TIP3    H2  586   5.359   3.719   2.656
  194TIP3   OH2  587   0.101   4.259   4.418
  194TIP3    H1  588   0.035   4.241   4.351
  194TIP3    H2  589   0.139   4.343   4.391
  195TIP3   OH2  590   3.665   1.643   0.784
  195TIP3    H1  591   3.700   1.616   0.699
  195TIP3    H2  592   3.573   1.663   0.766
  196TIP3   OH2  593   2.279   2.456   0.274
  196TIP3    H1  594   2.244   2.480   0.360
  196TIP3    H2  595   2.211   2.483   0.213
  197TIP3   OH2  596   0.405   5.508   4.849
  197TIP3    H1  597   0.373   5.460   4.772
  197TIP3    H2  598   0.326   5.526   4.900
  198TIP3   OH2  599   0.134   5.934   4.074
  198TIP3    H1  600   0.089   6.009   4.036
  198TIP3    H2  601   0.188   5.899   4.003
  199TIP3   OH2  602   5.049   3.305   4.379
  199TIP3    H1  603   5.016   3.395   4.379
  199TIP3    H2  604   5.028   3.271   4.466
  200TIP3   OH2  605   2.749   5.981   5.026
  200TIP3    H1  606   2.664   5.937   5.022
  200TIP3    H2  607   2.728   6.072   5.047
  201TIP3   OH2  608   4.882   2.769   3.849
  201TIP3    H1  609   4.925   2.713   3.784
  201TIP3    H2  610   4.871   2.713   3.926
  202TIP3   OH2  611   3.507   2.196   4.998
  202TIP3    H1  612   3.583   2.143   5.020
  202TIP3    H2  613   3.450   2.189   5.075
  203TIP3   OH2  614   2.792   0.814   2.530
  203TIP3    H1  615   2.698   0.798   2.520
  203TIP3    H2  616   2.798   0.884   2.595
  204TIP3   OH2  617   5.168   5.087   1.716
  204TIP3    H1  618   5.240   5.027   1.696
  204TIP3    H2  619   5.201   5.139   1.790
  205TIP3   OH2  620   0.484   0.102   1.530
  205TIP3    H1  621   0.525   0.018   1.550
  205TIP3    H2  622   0.557   0.156   1.498
  206TIP3   OH2  623   4.141   1.710   3.173
  206TIP3    H1  624   4.128   1.635   3.231
  206TIP3    H2  625   4.112   1.785   3.224
  207TIP3   OH2  626   4.884   4.267   3.581
  207TIP3    H1  627   4.955   4.299   3.635
  207TIP3    H2  628   4.853   4.188   3.625
  208TIP3   OH2  629   4.030   2.422   5.021
  208TIP3    H1  630   4.056   2.469   4.942
  208TIP3    H2  631   4.051   2.482   5.092
  209TIP3   OH2  632   0.282   2.723   4.124
  209TIP3    H1  633   0.204   2.759   4.082
  209TIP3    H2  634   0.309   2.652   4.065
  210TIP3   OH2  635   1.004   0.966   2.448
  210TIP3    H1  636   1.089   0.993   2.483
  210TIP3    H2  637   0.978   1.037   2.390
  211TIP3   OH2  638   0.401   3.314   0.089
  211TIP3    H1  639   0.438   3.309   0.178
  211TIP3    H2  640   0.323   3.368   0.099
  212TIP3   OH2  641   2.175   1.826   0.971
  212TIP3    H1  642   2.169   1.734   1.000
  212TIP3    H2  643   2.128   1.875   1.038
  213TIP3   OH2  644   2.797   0.973   0.444
  213TIP3    H1  645   2.818   0.916   0.518
  213TIP3    H2  646   2.751   0.916   0.382
  214TIP3   OH2  647   4.259   1.553   5.121
  214TIP3    H1  648   4.284   1.560   5.213
  214TIP3    H2  649   4.191   1.486   5.119
  215TIP3   OH2  650   1.273   3.476   0.789
  215TIP3    H1  651   1.314   3.506   0.707
  215TIP3    H2  652   1.314   3.528   0.857
  216TIP3   OH2  653   5.600   2.753   2.810
  216TIP3    H1  654   5.627   2.703   2.887
  216TIP3    H2  655   5.585   2.686   2.742
  217TIP3   OH2  656   4.534   3.370   0.218
  217TIP3    H1  657   4.486   3.431   0.274
  217TIP3    H2  658   4.597   3.328   0.276
  218TIP3   OH2  659   4.956   1.362   3.248
  218TIP3    H1  660   5.017   1.436   3.246
  218TIP3    H2  661   4.888   1.385   3.185
  219TIP3   OH2  662   1.723   1.420   3.986
  219TIP3    H1  663   1.793   1.478   3.956
  219TIP3    H2  664   1.715   1.439   4.079
  220TIP3   OH2  665   4.456   1.430   2.817
  220TIP3    H1  666   4.463   1.347   2.770
  220TIP3    H2  667   4.485   1.496   2.753
  221TIP3   OH2  668   2.660   0.441   3.603
  221TIP3    H1  669   2.632   0.473   3.517
  221TIP3    H2  670   2.684   0.520   3.651
  222TIP3   OH2  671   2.595   4.259   1.156
  222TIP3    H1  672   2.551   4.186   1.114
  222TIP3    H2  673   2.528   4.301   1.209
  223TIP3   OH2  674   2.719   5.241   2.377
  223TIP3    H1  675   2.802   5.224   2.333
  223TIP3    H2  676   2.669   5.160   2.368
  224TIP3   OH2  677   2.636   1.591   2.323
  224TIP3    H1  678   2.675   1.627   2.403
  224TIP3    H2  679   2.608   1.503   2.347
  225TIP3   OH2  680   0.187   4.642   3.527
  225TIP3    H1  681   0.221   4.640   3.616
  225TIP3    H2  682   0.108   4.696   3.532
  226TIP3   OH2  683   5.498   2.148   1.325
  226TIP3    H1  684   5.516   2.117   1.237
  226TIP3    H2  685   5.556   2.097   1.381
  227TIP3   OH2  686   4.520   2.128   3.504
  227TIP3    H1  687   4.589   2.111   3.568
  227TIP3    H2  688   4.567   2.148   3.423
  228TIP3   OH2  689   3.541   4.226   4.841
  228TIP3    H1  690   3.598   4.279   4.897
  228TIP3    H2  691   3.600   4.182   4.781
  229TIP3   OH2  692   0.885   2.300   0.850
  229TIP3    H1  693   0.953   2.269   0.911
  229TIP3    H2  694   0.841   2.370   0.897
  230TIP3   OH2  695   4.628   2.671   4.881
  230TIP3    H1  696   4.599   2.661   4.791
  230TIP3    H2  697   4.547   2.676   4.932
  231TIP3   OH2  698   5.745   3.440   1.475
  231TIP3    H1  699   5.755   3.490   1.394
  231TIP3    H2  700   5.786   3.495   1.542
  232TIP3   OH2  701   3.027   3.935   4.423
  232TIP3    H1  702   3.057   4.025   4.410
  232TIP3    H2  703   2.972   3.917   4.347
  233TIP3   OH2  704   5.766   2.959   4.902
  233TIP3    H1  705   5.840   2.979   4.960
  233TIP3    H2  706   5.763   2.864   4.898
  234TIP3   OH2  707   4.813   5.919   4.047
  234TIP3    H1  708   4.905   5.891   4.046
  234TIP3    H2  709   4.804   5.974   3.969
  235TIP3   OH2  710   1.475   3.397   4.956
  235TIP3    H1  711   1.486   3.460   5.028
  235TIP3    H2  712   1.555   3.345   4.957
  236TIP3   OH2  713   0.108   0.266   3.342
  236TIP3    H1  714   0.154   0.288   3.423
  236TIP3    H2  715   0.042   0.202   3.369
  237TIP3   OH2  716   5.134   1.838   4.467
  237TIP3    H1  717   5.058   1.812   4.520
  237TIP3    H2  718   5.124   1.933   4.456
  238TIP3   OH2  719   5.795   0.401   1.713
  238TIP3    H1  720   5.800   0.477   1.771
  238TIP3    H2  721   5.846   0.426   1.636
  239TIP3   OH2  722   0.025   0.271   4.599
  239TIP3    H1  723   0.015   0.196   4.540
  239TIP3    H2  724   0.067   0.236   4.677
  240TIP3   OH2  725   2.853   1.275   2.793
  240TIP3    H1  726   2.915   1.283   2.865
  240TIP3    H2  727   2.886   1.336   2.727
  241TIP3   OH2  728   2.230   4.876   2.614
  241TIP3    H1  729   2.265   4.926   2.688
  241TIP3    H2  730   2.141   4.852   2.642
  242TIP3   OH2  731   2.505   3.495   2.553
  242TIP3    H1  732   2.542   3.407   2.548
  242TIP3    H2  733   2.541   3.531   2.635
  243TIP3   OH2  734   3.677   5.691   3.201
  243TIP3    H1  735   3.659   5.629   3.131
  243TIP3    H2  736   3.748   5.651   3.251
  244TIP3   OH2  737   2.852   5.564   3.146
  244TIP3    H1  738   2.866   5.485   3.095
  244TIP3    H2  739   2.932   5.573   3.199
  245TIP3   OH2  740   4.397   5.360   0.906
  245TIP3    H1  741   4.334   5.416   0.951
  245TIP3    H2  742   4.353   5.334   0.825
  246TIP3   OH2  743   3.772   0.010   2.494
  246TIP3    H1  744   3.703  -0.021   2.552
  246TIP3    H2  745   3.831  -0.064   2.485
  247TIP3   OH2  746   1.687   3.450   2.359
  247TIP3    H1  747   1.719   3.409   2.278
  247TIP3    H2  748   1.694   3.544   2.342
  248TIP3   OH2  749   1.372   3.789   3.751
  248TIP3    H1  750   1.427   3.729   3.801
  248TIP3    H2  751   1.433   3.853   3.714
  249TIP3   OH2  752   0.165   1.176   4.300
  249TIP3    H1  753   0.256   1.206   4.296
  249TIP3    H2  754   0.114   1.256   4.311
  250TIP3   OH2  755   3.523   4.416   3.023
  250TIP3    H1  756   3.606   4.461   3.034
  250TIP3    H2  757   3.489   4.405   3.112
  251TIP3   OH2  758   2.666   3.781   1.792
  251TIP3    H1  759   2.745   3.777   1.846
  251TIP3    H2  760   2.614   3.704   1.819
  252TIP3   OH2  761   0.780   0.836   4.014
  252TIP3    H1  762   0.707   0.786   4.050
  252TIP3    H2  763   0.838   0.851   4.088
  253TIP3   OH2  764   4.994   5.619   1.562
  253TIP3    H1  765   4.926   5.662   1.510
  253TIP3    H2  766   5.035   5.557   1.501
  254TIP3   OH2  767   1.433   4.590   1.112
  254TIP3    H1  768   1.397   4.656   1.171
  254TIP3    H2  769   1.500   4.637   1.062
  255TIP3   OH2  770   3.413   1.975   4.804
  255TIP3    H1  771   3.460   2.051   4.770
  255TIP3    H2  772   3.332   2.012   4.841
  256TIP3   OH2  773   0.790   5.707   3.038
  256TIP3    H1  774   0.729   5.776   3.012
  256TIP3    H2  775   0.777   5.699   3.133
  257TIP3   OH2  776   5.100   1.721   3.437
  257TIP3    H1  777   5.085   1.699   3.345
  257TIP3    H2  778   5.168   1.788   3.436
  258TIP3   OH2  779   4.479   5.606   5.049
  258TIP3    H1  780   4.549   5.581   5.109
  258TIP3    H2  781   4.467   5.700   5.064
  259TIP3   OH2  782   2.133   3.650   3.870
  259TIP3    H1  783   2.164   3.708   3.939
  259TIP3    H2  784   2.110   3.709   3.798
  260TIP3   OH2  785   3.828   4.692   2.464
  260TIP3    H1  786   3.744   4.646   2.474
  260TIP3    H2  787   3.856   4.709   2.554
  261TIP3   OH2  788   0.884   4.554   2.985
  261TIP3    H1  789   0.875   4.593   2.898
  261TIP3    H2  790   0.931   4.472   2.969
  262TIP3   OH2  791   4.730   5.404   1.132
  262TIP3    H1  792   4.806   5.459   1.113
  262TIP3    H2  793   4.699   5.375   1.047
  263TIP3   OH2  794   3.998   2.640   0.117
  263TIP3    H1  795   4.039   2.558   0.088
  263TIP3    H2  796   3.923   2.650   0.058
  264TIP3   OH2  797   3.944   3.850   0.000
  264TIP3    H1  798   3.928   3.849  -0.095
  264TIP3    H2  799   4.016   3.788   0.013
  265TIP3   OH2  800   4.078   1.321   0.146
  265TIP3    H1  801   3.997   1.362   0.174
  265TIP3    H2  802   4.062   1.227   0.155
  266TIP3   OH2  803   3.113   3.764   0.831
  266TIP3    H1  804   3.191   3.819   0.843
  266TIP3    H2  805   3.046   3.825   0.801
  267TIP3   OH2  806   5.238   0.590   1.161
  267TIP3    H1  807   5.143   0.604   1.165
  267TIP3    H2  808   5.272   0.630   1.240
  268TIP3   OH2  809   3.189   1.024   2.609
  268TIP3    H1  810   3.226   0.992   2.691
  268TIP3    H2  811   3.264   1.052   2.557
  269TIP3   OH2  812   6.211   0.534   4.701
  269TIP3    H1  813   6.167   0.497   4.779
  269TIP3    H2  814   6.232   0.624   4.725
  270TIP3   OH2  815   3.615   3.858   2.302
  270TIP3    H1  816   3.703   3.880   2.331
  270TIP3    H2  817   3.625   3.835   2.209
  271TIP3   OH2  818   1.091   4.809   0.915
  271TIP3    H1  819   1.013   4.788   0.966
  271TIP3    H2  820   1.155   4.744   0.940
  272TIP3   OH2  821   4.877   3.250   3.461
  272TIP3    H1  822   4.917   3.163   3.456
  272TIP3    H2  823   4.880   3.283   3.371
  273TIP3   OH2  824   2.812   2.062   1.707
  273TIP3    H1  825   2.887   2.004   1.694
  273TIP3    H2  826   2.817   2.124   1.633
  274TIP3   OH2  827   4.993   4.495   1.597
  274TIP3    H1  828   5.061   4.510   1.662
  274TIP3    H2  829   4.915   4.473   1.648
  275TIP3   OH2  830   3.458   3.869   2.499
  275TIP3    H1  831   3.468   3.784   2.542
  275TIP3    H2  832   3.521   3.867   2.427
  276TIP3   OH2  833   5.536   3.834   4.622
  276TIP3    H1  834   5.587   3.799   4.696
  276TIP3    H2  835   5.600   3.844   4.552
  277TIP3   OH2  836   1.210   5.707   2.333
  277TIP3    H1  837   1.189   5.799   2.316
  277TIP3    H2  838   1.184   5.661   2.253
  278TIP3   OH2  839   5.565   5.810   0.127
  278TIP3    H1  840   5.475   5.785   0.146
  278TIP3    H2  841   5.561   5.850   0.040
  279TIP3   OH2  842   2.281   0.230   5.110
  279TIP3    H1  843   2.235   0.267   5.034
  279TIP3    H2  844   2.339   0.300   5.139
  280TIP3   OH2  845   0.597   2.015   1.341
  280TIP3    H1  846   0.604   2.095   1.393
  280TIP3    H2  847   0.518   1.972   1.375
  281TIP3   OH2  848   2.722   2.874   2.863
  281TIP3    H1  849   2.682   2.824   2.935
  281TIP3    H2  850   2.685   2.835   2.784
  282TIP3   OH2  851   3.800   5.627   3.711
  282TIP3    H1  852   3.887   5.643   3.675
  282TIP3    H2  853   3.796   5.680   3.791
  283TIP3   OH2  854   5.316   5.601   0.746
  283TIP3    H1  855   5.238   5.591   0.692
  283TIP3    H2  856   5.320   5.521   0.798
  284TIP3   OH2  857   2.592   1.183   2.816
  284TIP3    H1  858   2.686   1.203   2.819
  284TIP3    H2  859   2.581   1.113   2.880
  285TIP3   OH2  860   0.510   1.559   2.096
  285TIP3    H1  861   0.465   1.476   2.108
  285TIP3    H2  862   0.514   1.596   2.184
  286TIP3   OH2  863   5.325   2.487   3.940
  286TIP3    H1  864   5.405   2.437   3.954
  286TIP3    H2  865   5.330   2.515   3.849
  287TIP3   OH2  866   0.494   5.605   1.132
  287TIP3    H1  867   0.502   5.645   1.218
  287TIP3    H2  868   0.421   5.652   1.090
  288TIP3   OH2  869   3.637   4.060   4.290
  288TIP3    H1  870   3.642   4.151   4.261
  288TIP3    H2  871   3.595   4.064   4.376
  289TIP3   OH2  872   0.515   5.757   3.189
  289TIP3    H1  873   0.590   5.791   3.237
  289TIP3    H2  874   0.468   5.835   3.159
  290TIP3   OH2  875   0.033   3.349   2.260
  290TIP3    H1  876   0.025   3.418   2.325
  290TIP3    H2  877   0.084   3.281   2.303
  291TIP3   OH2  878   1.084   3.138   2.080
  291TIP3    H1  879   1.067   3.214   2.025
  291TIP3    H2  880   1.114   3.071   2.020
  292TIP3   OH2  881   0.880   1.734   2.335
  292TIP3    H1  882   0.882   1.660   2.396
  292TIP3    H2  883   0.817   1.707   2.267
  293TIP3   OH2  884   3.012   0.747   0.192
  293TIP3    H1  885   3.040   0.798   0.116
  293TIP3    H2  886   3.054   0.790   0.267
  294TIP3   OH2  887   5.670   2.534   2.985
  294TIP3    H1  888   5.583   2.557   3.015
  294TIP3    H2  889   5.669   2.438   2.978
  295TIP3   OH2  890   1.695   3.352   3.382
  295TIP3    H1  891   1.644   3.320   3.307
  295TIP3    H2  892   1.675   3.290   3.452
  296TIP3   OH2  893   5.653   2.769   4.615
  296TIP3    H1  894   5.685   2.842   4.562
  296TIP3    H2  895   5.607   2.713   4.552
  297TIP3   OH2  896   3.595   5.076   2.460
  297TIP3    H1  897   3.602   5.149   2.398
  297TIP3    H2  898   3.502   5.076   2.485
  298TIP3   OH2  899   2.332   3.380   3.229
  298TIP3    H1  900   2.361   3.317   3.295
  298TIP3    H2  901   2.269   3.332   3.176
  299TIP3   OH2  902   3.055   0.754   2.421
  299TIP3    H1  903   3.109   0.801   2.358
  299TIP3    H2  904   2.984   0.814   2.442
  300TIP3   OH2  905   5.429   0.401   0.303
  300TIP3    H1  906   5.516   0.436   0.283
  300TIP3    H2  907   5.390   0.467   0.360
  301TIP3   OH2  908   4.678   2.363   4.091
  301TIP3    H1  909   4.593   2.326   4.071
  301TIP3    H2  910   4.738   2.289   4.090
  302TIP3   OH2  911   3.522   5.301   1.829
  302TIP3    H1  912   3.503   5.267   1.917
  302TIP3    H2  913   3.531   5.395   1.841
  303TIP3   OH2  914   5.805   0.267   0.087
  303TIP3    H1  915   5.768   0.249   0.174
  303TIP3    H2  916   5.827   0.181   0.053
  304TIP3   OH2  917   0.628   4.037   3.013
  304TIP3    H1  918   0.546   3.997   3.041
  304TIP3    H2  919   0.677   4.052   3.094
  305TIP3   OH2  920   5.334   4.368   2.250
  305TIP3    H1  921   5.278   4.347   2.175
  305TIP3    H2  922   5.388   4.441   2.220
  306TIP3   OH2  923   4.566   2.639   4.040
  306TIP3    H1  924   4.566   2.550   4.075
  306TIP3    H2  925   4.608   2.631   3.955
  307TIP3   OH2  926   3.710   1.112   4.698
  307TIP3    H1  927   3.617   1.090   4.696
  307TIP3    H2  928   3.722   1.161   4.779
  308TIP3   OH2  929   5.180   0.077   4.558
  308TIP3    H1  930   5.127   0.156   4.553
  308TIP3    H2  931   5.260   0.104   4.604
  309TIP3   OH2  932   6.341  -0.027   2.165
  309TIP3    H1  933   6.257   0.016   2.182
  309TIP3    H2  934   6.363  -0.002   2.075
  310TIP3   OH2  935   5.756   5.287   2.329
  310TIP3    H1  936   5.775   5.339   2.251
  310TIP3    H2  937   5.841   5.250   2.354
  311TIP3   OH2  938   3.778   5.292   4.205
  311TIP3    H1  939   3.814   5.381   4.216
  311TIP3    H2  940   3.855   5.239   4.184
  312TIP3   OH2  941   4.284   4.750   1.850
  312TIP3    H1  942   4.326   4.729   1.767
  312TIP3    H2  943   4.282   4.846   1.853
  313TIP3   OH2  944   4.764   1.690   1.544
  313TIP3    H1  945   4.682   1.685   1.495
  313TIP3    H2  946   4.831   1.705   1.478
  314TIP3   OH2  947   6.210   2.612   0.688
  314TIP3    H1  948   6.150   2.556   0.737
  314TIP3    H2  949   6.194   2.700   0.722
  315TIP3   OH2  950   3.119   5.037   3.933
  315TIP3    H1  951   3.092   5.028   4.025
  315TIP3    H2  952   3.215   5.030   3.936
  316TIP3   OH2  953   6.342   1.510   3.705
  316TIP3    H1  954   6.315   1.465   3.785
  316TIP3    H2  955   6.262   1.517   3.653
  317TIP3   OH2  956   4.544   2.698   4.619
  317TIP3    H1  957   4.625   2.667   4.579
  317TIP3    H2  958   4.486   2.714   4.544
  318TIP3   OH2  959   5.903   5.347   3.824
  318TIP3    H1  960   5.910   5.258   3.857
  318TIP3    H2  961   5.948   5.346   3.740
  319TIP3   OH2  962   1.864   4.330   3.871
  319TIP3    H1  963   1.806   4.327   3.794
  319TIP3    H2  964   1.952   4.342   3.834
  320TIP3   OH2  965   4.747   4.899   4.563
  320TIP3    H1  966   4.790   4.875   4.645
  320TIP3    H2  967   4.716   4.816   4.527
  321TIP3   OH2  968   3.044   2.800   0.190
  321TIP3    H1  969   3.051   2.720   0.243
  321TIP3    H2  970   3.100   2.863   0.235
  322TIP3   OH2  971   2.343   5.666   5.152
  322TIP3    H1  972   2.303   5.706   5.229
  322TIP3    H2  973   2.269   5.642   5.096
  323TIP3   OH2  974   3.051   2.977   1.528
  323TIP3    H1  975   3.133   2.985   1.576
  323TIP3    H2  976   3.020   3.067   1.518
  324TIP3   OH2  977   3.295   2.446   4.506
  324TIP3    H1  978   3.285   2.437   4.411
  324TIP3    H2  979   3.387   2.425   4.522
  325TIP3   OH2  980   0.290   4.078   3.027
  325TIP3    H1  981   0.230   4.032   3.084
  325TIP3    H2  982   0.327   4.148   3.081
  326TIP3   OH2  983   5.750   1.397   1.025
  326TIP3    H1  984   5.762   1.312   1.067
  326TIP3    H2  985   5.818   1.401   0.958
  327TIP3   OH2  986   4.356   4.288   2.429
  327TIP3    H1  987   4.262   4.277   2.444
  327TIP3    H2  988   4.385   4.346   2.500
  328TIP3   OH2  989   1.750   5.923   5.031
  328TIP3    H1  990   1.798   5.901   5.110
  328TIP3    H2  991   1.667   5.874   5.039
  329TIP3   OH2  992   5.957   5.397   0.030
  329TIP3    H1  993   5.983   5.309   0.003
  329TIP3    H2  994   6.001   5.409   0.114
  330TIP3   OH2  995   0.248   3.535   0.871
  330TIP3    H1  996   0.164   3.570   0.898
  330TIP3    H2  997   0.311   3.572   0.932
  331TIP3   OH2  998   3.240   0.606   3.284
  331TIP3    H1  999   3.268   0.574   3.370
  331TIP3    H2 1000   3.264   0.698   3.284
  332TIP3   OH2 1001   0.642   3.365   1.883
  332TIP3    H1 1002   0.641   3.456   1.851
  332TIP3    H2 1003   0.553   3.334   1.871
  333TIP3   OH2 1004   2.564   2.476   4.220
  333TIP3    H1 1005   2.505   2.480   4.145
  333TIP3    H2 1006   2.649   2.454   4.182
  334TIP3   OH2 1007   5.826   2.969   0.279
  334TIP3    H1 1008   5.845   2.884   0.241
  334TIP3    H2 1009   5.897   3.026   0.248
  335TIP3   OH2 1010   3.438   5.294   1.021
  335TIP3    H1 1011   3.376   5.267   0.952
  335TIP3    H2 1012   3.475   5.212   1.052
  336TIP3   OH2 1013   1.537   3.874   2.426
  336TIP3    H1 1014   1.465   3.889   2.365
  336TIP3    H2 1015   1.533   3.780   2.445
  337TIP3   OH2 1016   5.915   1.358   0.213
  337TIP3    H1 1017   6.006   1.332   0.197
  337TIP3    H2 1018   5.873   1.280   0.249
  338TIP3   OH2 1019   3.145   1.988   4.364
  338TIP3    H1 1020   3.196   2.048   4.419
  338TIP3    H2 1021   3.062   2.033   4.349
  339TIP3   OH2 1022   2.277   2.577   3.574
  339TIP3    H1 1023   2.278   2.520   3.497
  339TIP3    H2 1024   2.366   2.572   3.609
  340TIP3   OH2 1025   2.640   2.348   5.123
  340TIP3    H1 1026   2.656   2.272   5.178
  340TIP3    H2 1027   2.725   2.391   5.116
  341TIP3   OH2 1028   3.990   3.140   1.739
  341TIP3    H1 1029   3.986   3.206   1.808
  341TIP3    H2 1030   4.079   3.105   1.744
  342TIP3   OH2 1031   0.816   2.752   1.375
  342TIP3    H1 1032   0.843   2.698   1.301
  342TIP3    H2 1033   0.737   2.710   1.408
  343TIP3   OH2 1034   2.107   0.379   1.387
  343TIP3    H1 1035   2.036   0.389   1.451
  343TIP3    H2 1036   2.145   0.293   1.408
  344TIP3   OH2 1037   3.246   0.519   1.532
  344TIP3    H1 1038   3.259   0.494   1.623
  344TIP3    H2 1039   3.265   0.439   1.482
  345TIP3   OH2 1040   2.283   5.139   3.250
  345TIP3    H1 1041   2.220   5.075   3.215
  345TIP3    H2 1042   2.360   5.086   3.271
  346TIP3   OH2 1043   1.485   3.749   2.073
  346TIP3    H1 1044   1.567   3.777   2.113
  346TIP3    H2 1045   1.434   3.713   2.146
  347TIP3   OH2 1046   1.643   3.096   4.276
  347TIP3    H1 1047   1.567   3.116   4.330
  347TIP3    H2 1048   1.609   3.042   4.205
  348TIP3   OH2 1049   0.616   1.900   0.339
  348TIP3    H1 1050   0.639   1.920   0.248
  348TIP3    H2 1051   0.679   1.948   0.391
  349TIP3   OH2 1052   3.044   5.461   3.663
  349TIP3    H1 1053   3.014   5.414   3.741
  349TIP3    H2 1054   3.029   5.553   3.684
  350TIP3   OH2 1055   2.379   4.683   1.106
  350TIP3    H1 1056   2.300   4.679   1.052
  350TIP3    H2 1057   2.362   4.754   1.168
  351TIP3   OH2 1058   5.511   4.538   3.486
  351TIP3    H1 1059   5.514   4.443   3.497
  351TIP3    H2 1060   5.518   4.573   3.574
  352TIP3   OH2 1061   5.366   4.004   3.882
  352TIP3    H1 1062   5.420   4.070   3.926
  352TIP3    H2 1063   5.380   4.019   3.789
  353TIP3   OH2 1064   2.260   2.068  -0.009
  353TIP3    H1 1065   2.231   2.129   0.059
  353TIP3    H2 1066   2.295   1.993   0.040
  354TIP3   OH2 1067   4.812   3.863   0.601
  354TIP3    H1 1068   4.773   3.950   0.598
  354TIP3    H2 1069   4.752   3.812   0.656
  355TIP3   OH2 1070   2.882   3.875   0.362
  355TIP3    H1 1071   2.962   3.835   0.394
  355TIP3    H2 1072   2.821   3.802   0.349
  356TIP3   OH2 1073   1.998   3.583   5.120
  356TIP3    H1 1074   1.958   3.513   5.172
  356TIP3    H2 1075   2.092   3.564   5.121
  357TIP3   OH2 1076   2.477   1.240   1.210
  357TIP3    H1 1077   2.460   1.194   1.128
  357TIP3    H2 1078   2.537   1.182   1.257
  358TIP3   OH2 1079   5.198   1.047   3.157
  358TIP3    H1 1080   5.257   0.994   3.211
  358TIP3    H2 1081   5.238   1.045   3.070
  359TIP3   OH2 1082   4.205   5.667   0.613
  359TIP3    H1 1083   4.223   5.642   0.523
  359TIP3    H2 1084   4.290   5.693   0.649
  360TIP3   OH2 1085   4.688   2.165   1.762
  360TIP3    H1 1086   4.768   2.133   1.803
  360TIP3    H2 1087   4.676   2.253   1.797
  361TIP3   OH2 1088   4.730   4.450   3.412
  361TIP3    H1 1089   4.791   4.377   3.404
  361TIP3    H2 1090   4.676   4.445   3.333
  362TIP3   OH2 1091   1.759   4.548   0.194
  362TIP3    H1 1092   1.729   4.621   0.140
  362TIP3    H2 1093   1.854   4.556   0.195
  363TIP3   OH2 1094   4.262   3.515   3.401
  363TIP3    H1 1095   4.216   3.483   3.324
  363TIP3    H2 1096   4.238   3.607   3.406
  364TIP3   OH2 1097   0.141   1.985   0.821
  364TIP3    H1 1098   0.117   2.008   0.911
  364TIP3    H2 1099   0.177   1.897   0.828
  365TIP3   OH2 1100   0.323   3.752   1.874
  365TIP3    H1 1101   0.343   3.709   1.791
  365TIP3    H2 1102   0.312   3.845   1.851
  366TIP3   OH2 1103   1.528   1.490   0.960
  366TIP3    H1 1104   1.448   1.445   0.932
  366TIP3    H2 1105   1.503   1.582   0.963
  367TIP3   OH2 1106   3.742   4.702   4.515
  367TIP3    H1 1107   3.827   4.712   4.471
  367TIP3    H2 1108   3.765   4.688   4.607
  368TIP3   OH2 1109   2.986   0.334   1.988
  368TIP3    H1 1110   3.052   0.369   1.927
  368TIP3    H2 1111   2.904   0.371   1.957
  369TIP3   OH2 1112   0.193   0.458   4.474
  369TIP3    H1 1113   0.109   0.503   4.462
  369TIP3    H2 1114   0.171   0.377   4.521
  370TIP3   OH2 1115   5.534   1.918   2.519
  370TIP3    H1 1116   5.583   1.878   2.448
  370TIP3    H2 1117   5.566   1.876   2.599
  371TIP3   OH2 1118   0.672   2.662   1.891
  371TIP3    H1 1119   0.757   2.698   1.918
  371TIP3    H2 1120   0.669   2.575   1.932
  372TIP3   OH2 1121   5.671   3.683   2.922
  372TIP3    H1 1122   5.758   3.642   2.921
  372TIP3    H2 1123   5.610   3.609   2.924
  373TIP3   OH2 1124   3.799   0.224   1.645
  373TIP3    H1 1125   3.855   0.299   1.626
  373TIP3    H2 1126   3.852   0.148   1.620
  374TIP3   OH2 1127   4.084   4.961   4.887
  374TIP3    H1 1128   4.146   5.031   4.904
  374TIP3    H2 1129   4.132   4.881   4.907
  375TIP3   OH2 1130   3.169   4.166   1.626
  375TIP3    H1 1131   3.075   4.184   1.636
  375TIP3    H2 1132   3.200   4.150   1.715
  376TIP3   OH2 1133   4.906   1.263   1.196
  376TIP3    H1 1134   4.878   1.171   1.194
  376TIP3    H2 1135   4.826   1.311   1.219
  377TIP3   OH2 1136   1.210   0.092   0.833
  377TIP3    H1 1137   1.174   0.023   0.777
  377TIP3    H2 1138   1.194   0.063   0.922
  378TIP3   OH2 1139   3.285   5.114   0.854
  378TIP3    H1 1140   3.341   5.038   0.837
  378TIP3    H2 1141   3.201   5.075   0.881
  379TIP3   OH2 1142   4.346   4.417   1.917
  379TIP3    H1 1143   4.416   4.388   1.975
  379TIP3    H2 1144   4.290   4.471   1.972
  380TIP3   OH2 1145   1.307   0.125   1.519
  380TIP3    H1 1146   1.276   0.212   1.495
  380TIP3    H2 1147   1.336   0.086   1.437
  381TIP3   OH2 1148   4.288   5.284   0.167
  381TIP3    H1 1149   4.361   5.223   0.177
  381TIP3    H2 1150   4.244   5.256   0.087
  382TIP3   OH2 1151   2.894   2.202   3.738
  382TIP3    H1 1152   2.808   2.186   3.699
  382TIP3    H2 1153   2.901   2.137   3.808
  383TIP3   OH2 1154   5.706   2.903   2.074
  383TIP3    H1 1155   5.758   2.921   1.995
  383TIP3    H2 1156   5.726   2.975   2.133
  384TIP3   OH2 1157   2.885   4.768   4.832
  384TIP3    H1 1158   2.849   4.708   4.897
  384TIP3    H2 1159   2.809   4.796   4.781
  385TIP3   OH2 1160   5.337   4.503   0.474
  385TIP3    H1 1161   5.390   4.454   0.410
  385TIP3    H2 1162   5.342   4.450   0.554
  386TIP3   OH2 1163   3.856   4.124   2.964
  386TIP3    H1 1164   3.794   4.158   3.029
  386TIP3    H2 1165   3.942   4.139   3.004
  387TIP3   OH2 1166   3.808   3.523   3.190
  387TIP3    H1 1167   3.772   3.574   3.262
  387TIP3    H2 1168   3.819   3.435   3.225
  388TIP3   OH2 1169   1.308   5.679   0.344
  388TIP3    H1 1170   1.282   5.699   0.254
  388TIP3    H2 1171   1.383   5.736   0.361
  389TIP3   OH2 1172   0.191   1.262   2.990
  389TIP3    H1 1173   0.180   1.183   3.044
  389TIP3    H2 1174   0.270   1.303   3.026
  390TIP3   OH2 1175   6.056   1.082   2.991
  390TIP3    H1 1176   6.114   1.033   2.933
  390TIP3    H2 1177   6.059   1.035   3.074
  391TIP3   OH2 1178   1.821   1.843   2.393
  391TIP3    H1 1179   1.778   1.757   2.391
  391TIP3    H2 1180   1.896   1.833   2.334
  392TIP3   OH2 1181   3.344   3.952   5.226
  392TIP3    H1 1182   3.265   4.004   5.208
  392TIP3    H2 1183   3.417   4.011   5.210
  393TIP3   OH2 1184   3.502   4.249   2.400
  393TIP3    H1 1185   3.450   4.218   2.474
  393TIP3    H2 1186   3.482   4.188   2.329
  394TIP3   OH2 1187   4.281   1.249   4.190
  394TIP3    H1 1188   4.339   1.199   4.246
  394TIP3    H2 1189   4.214   1.186   4.163
  395TIP3   OH2 1190   5.799   3.450   1.009
  395TIP3    H1 1191   5.871   3.431   1.068
  395TIP3    H2 1192   5.722   3.412   1.051
  396TIP3   OH2 1193   6.042   1.242   1.465
  396TIP3    H1 1194   6.065   1.299   1.538
  396TIP3    H2 1195   6.124   1.200   1.441
  397TIP3   OH2 1196   3.869   0.753   3.648
  397TIP3    H1 1197   3.939   0.818   3.648
  397TIP3    H2 1198   3.909   0.674   3.610
  398TIP3   OH2 1199   0.266   4.582   2.326
  398TIP3    H1 1200   0.294   4.673   2.317
  398TIP3    H2 1201   0.346   4.530   2.313
  399TIP3   OH2 1202   2.779   1.950   3.833
  399TIP3    H1 1203   2.746   1.903   3.909
  399TIP3    H2 1204   2.704   2.001   3.802
  400TIP3   OH2 1205   0.830   4.888   1.233
  400TIP3    H1 1206   0.864   4.818   1.178
  400TIP3    H2 1207   0.857   4.968   1.189
  401TIP3   OH2 1208   4.775   0.770   3.193
  401TIP3    H1 1209   4.738   0.810   3.271
  401TIP3    H2 1210   4.758   0.676   3.203
  402TIP3   OH2 1211   4.727   1.253   1.447
  402TIP3    H1 1212   4.745   1.271   1.539
  402TIP3    H2 1213   4.633   1.235   1.443
  403TIP3   OH2 1214   1.878   2.030   3.945
  403TIP3    H1 1215   1.853   1.962   4.007
  403TIP3    H2 1216   1.803   2.089   3.941
  404TIP3   OH2 1217   1.979   0.137   1.717
  404TIP3    H1 1218   2.053   0.143   1.656
  404TIP3    H2 1219   1.944   0.225   1.722
  405TIP3   OH2 1220   1.282   4.462   0.595
  405TIP3    H1 1221   1.298   4.407   0.518
  405TIP3    H2 1222   1.241   4.403   0.658
  406TIP3   OH2 1223   1.824   0.805   1.002
  406TIP3    H1 1224   1.740   0.789   1.045
  406TIP3    H2 1225   1.814   0.767   0.915
  407TIP3   OH2 1226   3.319   4.553   5.215
  407TIP3    H1 1227   3.384   4.609   5.173
  407TIP3    H2 1228   3.314   4.475   5.159
  408TIP3   OH2 1229   0.330   0.553   2.830
  408TIP3    H1 1230   0.382   0.494   2.884
  408TIP3    H2 1231   0.395   0.602   2.779
  409TIP3   OH2 1232   0.391   2.156   4.944
  409TIP3    H1 1233   0.434   2.181   5.026
  409TIP3    H2 1234   0.358   2.067   4.960
  410TIP3   OH2 1235   0.549   5.698   4.331
  410TIP3    H1 1236   0.519   5.628   4.273
  410TIP3    H2 1237   0.622   5.739   4.284
  411TIP3   OH2 1238   2.858   1.017   4.332
  411TIP3    H1 1239   2.851   0.943   4.392
  411TIP3    H2 1240   2.768   1.038   4.308
  412TIP3   OH2 1241   3.066   5.217   3.004
  412TIP3    H1 1242   3.014   5.277   2.951
  412TIP3    H2 1243   3.010   5.196   3.079
  413TIP3   OH2 1244   2.069   1.852  -0.002
  413TIP3    H1 1245   2.024   1.913   0.057
  413TIP3    H2 1246   2.148   1.825   0.045
  414TIP3   OH2 1247   2.637   1.834   0.874
  414TIP3    H1 1248   2.698   1.902   0.846
  414TIP3    H2 1249   2.636   1.772   0.802
  415TIP3   OH2 1250   2.072   3.875   2.951
  415TIP3    H1 1251   2.003   3.815   2.922
  415TIP3    H2 1252   2.048   3.959   2.913
  416TIP3   OH2 1253   4.608   3.338   5.154
  416TIP3    H1 1254   4.539   3.272   5.151
  416TIP3    H2 1255   4.563   3.418   5.180
  417TIP3   OH2 1256   6.354   2.965   3.749
  417TIP3    H1 1257   6.289   2.970   3.679
  417TIP3    H2 1258   6.399   2.882   3.733
  418TIP3   OH2 1259   3.978   1.568   0.836
  418TIP3    H1 1260   3.948   1.623   0.764
  418TIP3    H2 1261   4.021   1.629   0.897
  419TIP3   OH2 1262   1.618   5.355   4.468
  419TIP3    H1 1263   1.523   5.366   4.465
  419TIP3    H2 1264   1.653   5.444   4.463
  420TIP3   OH2 1265   3.120   3.547   3.008
  420TIP3    H1 1266   3.027   3.534   3.023
  420TIP3    H2 1267   3.130   3.540   2.913
  421TIP3   OH2 1268   5.052   3.537   3.301
  421TIP3    H1 1269   5.023   3.619   3.340
  421TIP3    H2 1270   4.991   3.520   3.230
  422TIP3   OH2 1271   3.074  -0.045   4.006
  422TIP3    H1 1272   3.160  -0.048   4.047
  422TIP3    H2 1273   3.063   0.047   3.982
  423TIP3   OH2 1274   1.554   5.026   5.116
  423TIP3    H1 1275   1.468   4.990   5.138
  423TIP3    H2 1276   1.588   4.967   5.049
  424TIP3   OH2 1277   4.460   4.940   1.398
  424TIP3    H1 1278   4.529   4.883   1.363
  424TIP3    H2 1279   4.506   5.015   1.435
  425TIP3   OH2 1280   2.931   2.512   2.295
  425TIP3    H1 1281   2.973   2.525   2.380
  425TIP3    H2 1282   2.849   2.467   2.315
  426TIP3   OH2 1283   2.810   2.253   0.838
  426TIP3    H1 1284   2.742   2.282   0.778
  426TIP3    H2 1285   2.858   2.332   0.861
  427TIP3   OH2 1286   4.997   3.693   1.650
  427TIP3    H1 1287   5.019   3.667   1.561
  427TIP3    H2 1288   4.933   3.627   1.679
  428TIP3   OH2 1289   4.247   4.239   2.744
  428TIP3    H1 1290   4.199   4.178   2.800
  428TIP3    H2 1291   4.186   4.263   2.675
  429TIP3   OH2 1292   5.174   2.990   2.861
  429TIP3    H1 1293   5.236   3.061   2.846
  429TIP3    H2 1294   5.228   2.919   2.897
  430TIP3   OH2 1295   5.999   5.312   3.575
  430TIP3    H1 1296   5.949   5.258   3.514
  430TIP3    H2 1297   6.091   5.293   3.555
  431TIP3   OH2 1298   5.577   3.678   1.588
  431TIP3    H1 1299   5.666   3.680   1.622
  431TIP3    H2 1300   5.542   3.765   1.609
  432TIP3   OH2 1301   4.288   4.042   3.355
  432TIP3    H1 1302   4.287   4.012   3.446
  432TIP3    H2 1303   4.241   3.974   3.307
  433TIP3   OH2 1304   1.399   2.568   1.713
  433TIP3    H1 1305   1.452   2.623   1.770
  433TIP3    H2 1306   1.312   2.607   1.716
  434TIP3   OH2 1307   1.322   2.725   4.728
  434TIP3    H1 1308   1.394   2.785   4.708
  434TIP3    H2 1309   1.335   2.650   4.670
  435TIP3   OH2 1310   5.108   2.095   4.355
  435TIP3    H1 1311   5.085   2.184   4.381
  435TIP3    H2 1312   5.182   2.107   4.295
  436TIP3   OH2 1313   3.766   5.639   2.260
  436TIP3    H1 1314   3.748   5.553   2.223
  436TIP3    H2 1315   3.814   5.684   2.190
  437TIP3   OH2 1316   4.623   1.005   3.706
  437TIP3    H1 1317   4.582   0.920   3.718
  437TIP3    H2 1318   4.707   0.999   3.752
  438TIP3   OH2 1319   5.200   2.945   4.021
  438TIP3    H1 1320   5.173   2.995   4.098
  438TIP3    H2 1321   5.212   2.856   4.055
  439TIP3   OH2 1322   0.004   5.375   4.061
  439TIP3    H1 1323   0.043   5.453   4.022
  439TIP3    H2 1324  -0.052   5.339   3.993
  440TIP3   OH2 1325   5.547   3.527   2.478
  440TIP3    H1 1326   5.488   3.453   2.467
  440TIP3    H2 1327   5.504   3.582   2.543
  441TIP3   OH2 1328   3.367   1.709   2.760
  441TIP3    H1 1329   3.366   1.778   2.694
  441TIP3    H2 1330   3.444   1.729   2.813
  442TIP3   OH2 1331   4.899   3.502   3.582
  442TIP3    H1 1332   4.892   3.421   3.532
  442TIP3    H2 1333   4.880   3.571   3.519
  443TIP3   OH2 1334   6.345   2.197   3.214
  443TIP3    H1 1335   6.365   2.135   3.144
  443TIP3    H2 1336   6.415   2.261   3.211
  444TIP3   OH2 1337   5.086   2.010   3.328
  444TIP3    H1 1338   5.151   2.020   3.398
  444TIP3    H2 1339   5.138   1.989   3.251
  445TIP3   OH2 1340   5.928   2.522   0.478
  445TIP3    H1 1341   5.981   2.445   0.499
  445TIP3    H2 1342   5.868   2.531   0.552
  446TIP3   OH2 1343   1.512   3.145   2.854
  446TIP3    H1 1344   1.555   3.154   2.769
  446TIP3    H2 1345   1.466   3.061   2.849
  447TIP3   OH2 1346   4.423   3.819   2.204
  447TIP3    H1 1347   4.470   3.900   2.185
  447TIP3    H2 1348   4.475   3.776   2.272
  448TIP3   OH2 1349   4.433   3.479   2.367
  448TIP3    H1 1350   4.438   3.384   2.362
  448TIP3    H2 1351   4.363   3.503   2.306
  449TIP3   OH2 1352   0.211   4.842   1.439
  449TIP3    H1 1353   0.245   4.795   1.516
  449TIP3    H2 1354   0.262   4.807   1.366
  450TIP3   OH2 1355   4.208   0.759   4.932
  450TIP3    H1 1356   4.144   0.819   4.969
  450TIP3    H2 1357   4.232   0.800   4.848
  451TIP3   OH2 1358   4.126   3.150   2.156
  451TIP3    H1 1359   4.107   3.095   2.079
  451TIP3    H2 1360   4.057   3.128   2.219
  452TIP3   OH2 1361   1.431   4.158   0.539
  452TIP3    H1 1362   1.491   4.098   0.495
  452TIP3    H2 1363   1.431   4.237   0.485
  453TIP3   OH2 1364   4.530   2.023   0.156
  453TIP3    H1 1365   4.622   2.030   0.182
  453TIP3    H2 1366   4.503   1.936   0.186
  454TIP3   OH2 1367   3.740   3.017   4.523
  454TIP3    H1 1368   3.724   2.936   4.475
  454TIP3    H2 1369   3.705   3.001   4.611
  455TIP3   OH2 1370   0.690   1.743   4.508
  455TIP3    H1 1371   0.694   1.682   4.582
  455TIP3    H2 1372   0.706   1.829   4.548
  456TIP3   OH2 1373   1.653   4.582   4.373
  456TIP3    H1 1374   1.696   4.596   4.288
  456TIP3    H2 1375   1.582   4.646   4.374
  457TIP3   OH2 1376   3.968   3.378   0.303
  457TIP3    H1 1377   3.884   3.340   0.278
  457TIP3    H2 1378   3.993   3.432   0.228
  458TIP3   OH2 1379   5.491   4.983   2.705
  458TIP3    H1 1380   5.539   4.914   2.660
  458TIP3    H2 1381   5.400   4.969   2.682
  459TIP3   OH2 1382   2.599   4.229   4.510
  459TIP3    H1 1383   2.577   4.312   4.468
  459TIP3    H2 1384   2.694   4.233   4.521
  460TIP3   OH2 1385   0.252   0.177   3.130
  460TIP3    H1 1386   0.340   0.178   3.170
  460TIP3    H2 1387   0.193   0.183   3.205
  461TIP3   OH2 1388   4.635   5.846   4.379
  461TIP3    H1 1389   4.549   5.870   4.343
  461TIP3    H2 1390   4.618   5.768   4.432
  462TIP3   OH2 1391   4.894   0.438   4.560
  462TIP3    H1 1392   4.933   0.395   4.636
  462TIP3    H2 1393   4.968   0.480   4.516
  463TIP3   OH2 1394   1.394   3.590   2.268
  463TIP3    H1 1395   1.438   3.586   2.353
  463TIP3    H2 1396   1.358   3.502   2.255
  464TIP3   OH2 1397   3.156   3.095   2.659
  464TIP3    H1 1398   3.197   3.121   2.742
  464TIP3    H2 1399   3.214   3.029   2.623
  465TIP3   OH2 1400   4.525   2.281   0.051
  465TIP3    H1 1401   4.447   2.265  -0.001
  465TIP3    H2 1402   4.543   2.198   0.095
  466TIP3   OH2 1403   4.224   2.957   1.778
  466TIP3    H1 1404   4.263   2.894   1.717
  466TIP3    H2 1405   4.218   2.909   1.860
  467TIP3   OH2 1406   1.048   2.811   4.258
  467TIP3    H1 1407   1.042   2.764   4.341
  467TIP3    H2 1408   0.992   2.762   4.199
  468TIP3   OH2 1409   3.059   4.175   2.353
  468TIP3    H1 1410   3.111   4.230   2.294
  468TIP3    H2 1411   3.115   4.100   2.372
  469TIP3   OH2 1412   3.525   0.820   0.956
  469TIP3    H1 1413   3.564   0.889   1.010
  469TIP3    H2 1414   3.475   0.766   1.018
  470TIP3   OH2 1415   5.013   1.330   2.367
  470TIP3    H1 1416   4.992   1.423   2.377
  470TIP3    H2 1417   5.005   1.294   2.456
  471TIP3   OH2 1418   3.845   1.896   0.263
  471TIP3    H1 1419   3.809   1.952   0.331
  471TIP3    H2 1420   3.907   1.839   0.308
  472TIP3   OH2 1421   4.227   4.680   3.077
  472TIP3    H1 1422   4.260   4.590   3.087
  472TIP3    H2 1423   4.150   4.670   3.021
  473TIP3   OH2 1424   1.967   0.159   2.616
  473TIP3    H1 1425   1.982   0.250   2.590
  473TIP3    H2 1426   1.995   0.156   2.708
  474TIP3   OH2 1427   5.081   4.571   3.924
  474TIP3    H1 1428   5.110   4.487   3.958
  474TIP3    H2 1429   5.032   4.611   3.995
  475TIP3   OH2 1430   5.578   1.102   4.833
  475TIP3    H1 1431   5.576   1.081   4.926
  475TIP3    H2 1432   5.487   1.098   4.805
  476TIP3   OH2 1433   1.373   1.578   4.875
  476TIP3    H1 1434   1.384   1.659   4.825
  476TIP3    H2 1435   1.290   1.590   4.923
  477TIP3   OH2 1436   2.207   0.885   3.497
  477TIP3    H1 1437   2.183   0.940   3.572
  477TIP3    H2 1438   2.255   0.944   3.439
  478TIP3   OH2 1439   2.962   2.104   1.012
  478TIP3    H1 1440   2.885   2.152   0.981
  478TIP3    H2 1441   2.929   2.052   1.085
  479TIP3   OH2 1442   2.915   1.595   4.029
  479TIP3    H1 1443   2.851   1.553   4.086
  479TIP3    H2 1444   2.903   1.551   3.944
  480TIP3   OH2 1445   2.679   2.597   2.074
  480TIP3    H1 1446   2.753   2.650   2.044
  480TIP3    H2 1447   2.715   2.510   2.087
  481TIP3   OH2 1448   2.641   3.996   4.383
  481TIP3    H1 1449   2.662   4.038   4.299
  481TIP3    H2 1450   2.630   4.069   4.444
  482TIP3   OH2 1451   5.657   4.085   0.354
  482TIP3    H1 1452   5.745   4.084   0.318
  482TIP3    H2 1453   5.647   4.001   0.398
  483TIP3   OH2 1454   2.935   1.543   2.676
  483TIP3    H1 1455   2.984   1.622   2.701
  483TIP3    H2 1456   2.858   1.576   2.630
  484TIP3   OH2 1457   0.491   3.608   2.669
  484TIP3    H1 1458   0.481   3.703   2.675
  484TIP3    H2 1459   0.418   3.580   2.614
  485TIP3   OH2 1460   0.981   5.109   1.156
  485TIP3    H1 1461   0.988   5.195   1.198
  485TIP3    H2 1462   1.057   5.060   1.188
  486TIP3   OH2 1463   3.183   4.487   1.093
  486TIP3    H1 1464   3.098   4.481   1.138
  486TIP3    H2 1465   3.167   4.445   1.008
  487TIP3   OH2 1466   5.245   1.935   2.630
  487TIP3    H1 1467   5.296   1.867   2.674
  487TIP3    H2 1468   5.310   2.000   2.604
  488TIP3   OH2 1469   2.112   4.654   1.403
  488TIP3    H1 1470   2.029   4.697   1.423
  488TIP3    H2 1471   2.173   4.726   1.386
  489TIP3   OH2 1472   2.596   2.483   2.693
  489TIP3    H1 1473   2.627   2.467   2.782
  489TIP3    H2 1474   2.602   2.398   2.650
  490TIP3   OH2 1475   1.258   3.422   0.480
  490TIP3    H1 1476   1.245   3.418   0.385
  490TIP3    H2 1477   1.175   3.456   0.514
  491TIP3   OH2 1478   1.522   0.097   0.944
  491TIP3    H1 1479   1.440   0.100   0.896
  491TIP3    H2 1480   1.589   0.118   0.879
  492TIP3   OH2 1481   6.038   5.606   1.469
  492TIP3    H1 1482   5.998   5.521   1.452
  492TIP3    H2 1483   6.110   5.611   1.406
  493TIP3   OH2 1484   5.473   5.708   2.480
  493TIP3    H1 1485   5.437   5.670   2.400
  493TIP3    H2 1486   5.427   5.663   2.550
  494TIP3   OH2 1487   0.014   2.414   4.473
  494TIP3    H1 1488  -0.027   2.492   4.510
  494TIP3    H2 1489   0.091   2.400   4.527
  495TIP3   OH2 1490   0.119   3.200   0.178
  495TIP3    H1 1491   0.140   3.107   0.181
  495TIP3    H2 1492   0.109   3.226   0.269
  496TIP3   OH2 1493   1.275   0.692   3.387
  496TIP3    H1 1494   1.345   0.670   3.448
  496TIP3    H2 1495   1.248   0.608   3.351
  497TIP3   OH2 1496   2.679   0.395   1.188
  497TIP3    H1 1497   2.668   0.471   1.245
  497TIP3    H2 1498   2.770   0.399   1.159
  498TIP3   OH2 1499   1.477   5.160   3.587
  498TIP3    H1 1500   1.383   5.154   3.570
  498TIP3    H2 1501   1.513   5.203   3.509
  499TIP3   OH2 1502   5.835   1.907   2.234
  499TIP3    H1 1503   5.900   1.954   2.181
  499TIP3    H2 1504   5.880   1.888   2.316
  500TIP3   OH2 1505   0.041   5.550   2.841
  500TIP3    H1 1506  -0.052   5.551   2.821
  500TIP3    H2 1507   0.081   5.607   2.775
  501TIP3   OH2 1508   6.265   5.498   4.754
  501TIP3    H1 1509   6.302   5.454   4.677
  501TIP3    H2 1510   6.230   5.580   4.720
  502TIP3   OH2 1511   4.027   0.279   3.577
  502TIP3    H1 1512   3.998   0.303   3.489
  502TIP3    H2 1513   4.007   0.355   3.631
  503TIP3   OH2 1514   1.621   0.786   0.433
  503TIP3    H1 1515   1.572   0.809   0.354
  503TIP3    H2 1516   1.622   0.690   0.433
  504TIP3   OH2 1517   0.371   5.587   0.790
  504TIP3    H1 1518   0.445   5.565   0.733
  504TIP3    H2 1519   0.331   5.503   0.811
  505TIP3   OH2 1520   1.191   4.032   2.936
  505TIP3    H1 1521   1.198   4.125   2.912
  505TIP3    H2 1522   1.098   4.013   2.935
  506TIP3   OH2 1523   0.926   5.856   5.055
  506TIP3    H1 1524   0.955   5.787   5.114
  506TIP3    H2 1525   0.852   5.818   5.008
  507TIP3   OH2 1526   4.752   3.140   2.853
  507TIP3    H1 1527   4.817   3.192   2.900
  507TIP3    H2 1528   4.668   3.179   2.877
  508TIP3   OH2 1529   1.767   2.598   3.383
  508TIP3    H1 1530   1.747   2.578   3.291
  508TIP3    H2 1531   1.854   2.638   3.379
  509TIP3   OH2 1532   2.416   3.172   2.414
  509TIP3    H1 1533   2.351   3.109   2.382
  509TIP3    H2 1534   2.416   3.242   2.349
  510TIP3   OH2 1535   0.072   0.461   4.883
  510TIP3    H1 1536  -0.021   0.462   4.905
  510TIP3    H2 1537   0.076   0.499   4.795
  511TIP3   OH2 1538   4.333   5.994   0.576
  511TIP3    H1 1539   4.413   5.942   0.589
  511TIP3    H2 1540   4.264   5.945   0.620
  512TIP3   OH2 1541   2.462   3.767   2.456
  512TIP3    H1 1542   2.512   3.843   2.488
  512TIP3    H2 1543   2.480   3.698   2.519
  513TIP3   OH2 1544   2.965   0.665   3.209
  513TIP3    H1 1545   3.059   0.662   3.229
  513TIP3    H2 1546   2.946   0.758   3.198
  514TIP3   OH2 1547   0.260   3.862   4.375
  514TIP3    H1 1548   0.254   3.875   4.280
  514TIP3    H2 1549   0.347   3.823   4.388
  515TIP3   OH2 1550   4.035   5.101   2.023
  515TIP3    H1 1551   3.951   5.080   1.981
  515TIP3    H2 1552   4.074   5.168   1.967
  516TIP3   OH2 1553   1.950   0.792   3.427
  516TIP3    H1 1554   2.034   0.824   3.460
  516TIP3    H2 1555   1.937   0.708   3.472
  517TIP3   OH2 1556   1.562   5.376   4.100
  517TIP3    H1 1557   1.472   5.377   4.069
  517TIP3    H2 1558   1.560   5.317   4.176
  518TIP3   OH2 1559   3.231   2.566   0.050
  518TIP3    H1 1560   3.300   2.524   0.101
  518TIP3    H2 1561   3.165   2.593   0.114
  519TIP3   OH2 1562   5.086   3.326   4.864
  519TIP3    H1 1563   5.089   3.253   4.925
  519TIP3    H2 1564   5.019   3.384   4.900
  520TIP3   OH2 1565   5.211   1.522   0.552
  520TIP3    H1 1566   5.302   1.518   0.524
  520TIP3    H2 1567   5.215   1.523   0.648
  521TIP3   OH2 1568   0.572   1.136   0.403
  521TIP3    H1 1569   0.499   1.078   0.382
  521TIP3    H2 1570   0.619   1.146   0.320
  522TIP3   OH2 1571   3.678   4.314   4.189
  522TIP3    H1 1572   3.727   4.350   4.115
  522TIP3    H2 1573   3.646   4.391   4.237
  523TIP3   OH2 1574   3.748   4.410   0.857
  523TIP3    H1 1575   3.707   4.395   0.771
  523TIP3    H2 1576   3.699   4.354   0.917
  524TIP3   OH2 1577   0.789   3.731   0.417
  524TIP3    H1 1578   0.749   3.706   0.500
  524TIP3    H2 1579   0.768   3.824   0.407
  525TIP3   OH2 1580   5.716   4.119   4.645
  525TIP3    H1 1581   5.625   4.141   4.665
  525TIP3    H2 1582   5.711   4.040   4.593
  526TIP3   OH2 1583   0.401   5.703   2.901
  526TIP3    H1 1584   0.317   5.733   2.937
  526TIP3    H2 1585   0.458   5.693   2.978
  527TIP3   OH2 1586   5.517   0.182   3.825
  527TIP3    H1 1587   5.433   0.168   3.868
  527TIP3    H2 1588   5.538   0.274   3.843
  528TIP3   OH2 1589   5.020   3.495   0.808
  528TIP3    H1 1590   4.942   3.469   0.760
  528TIP3    H2 1591   5.074   3.541   0.743
  529TIP3   OH2 1592   5.891   0.653   3.263
  529TIP3    H1 1593   5.867   0.701   3.184
  529TIP3    H2 1594   5.880   0.717   3.334
  530TIP3   OH2 1595   6.082   0.003   1.977
  530TIP3    H1 1596   6.122   0.012   1.891
  530TIP3    H2 1597   6.010   0.066   1.977
  531TIP3   OH2 1598   5.340   2.213   1.782
  531TIP3    H1 1599   5.340   2.240   1.690
  531TIP3    H2 1600   5.271   2.267   1.823
  532TIP3   OH2 1601   3.021   3.723   1.505
  532TIP3    H1 1602   3.097   3.780   1.499
  532TIP3    H2 1603   3.015   3.699   1.597
  533TIP3   OH2 1604   2.883   0.973   4.750
  533TIP3    H1 1605   2.890   0.884   4.716
  533TIP3    H2 1606   2.941   1.025   4.695
  534TIP3   OH2 1607   2.521   5.881   0.605
  534TIP3    H1 1608   2.512   5.961   0.553
  534TIP3    H2 1609   2.555   5.816   0.544
  535TIP3   OH2 1610   0.173   3.747   3.455
  535TIP3    H1 1611   0.202   3.804   3.526
  535TIP3    H2 1612   0.253   3.721   3.410
  536TIP3   OH2 1613   2.780   1.116   1.120
  536TIP3    H1 1614   2.837   1.134   1.046
  536TIP3    H2 1615   2.792   1.023   1.138
  537TIP3   OH2 1616   0.081   0.341   2.576
  537TIP3    H1 1617   0.105   0.283   2.504
  537TIP3    H2 1618   0.110   0.428   2.547
  538TIP3   OH2 1619   1.031   0.308   1.606
  538TIP3    H1 1620   1.024   0.394   1.564
  538TIP3    H2 1621   1.080   0.325   1.687
  539TIP3   OH2 1622   2.906   1.039   2.632
  539TIP3    H1 1623   3.000   1.047   2.613
  539TIP3    H2 1624   2.881   1.123   2.669
  540TIP3   OH2 1625   5.326   4.598   2.432
  540TIP3    H1 1626   5.364   4.634   2.352
  540TIP3    H2 1627   5.362   4.510   2.439
  541TIP3   OH2 1628   3.663   1.195   4.305
  541TIP3    H1 1629   3.651   1.162   4.217
  541TIP3    H2 1630   3.590   1.159   4.355
  542TIP3   OH2 1631   3.253   1.159   3.817
  542TIP3    H1 1632   3.310   1.189   3.745
  542TIP3    H2 1633   3.285   1.205   3.894
  543TIP3   OH2 1634   2.951   2.219   2.463
  543TIP3    H1 1635   2.967   2.281   2.391
  543TIP3    H2 1636   3.006   2.252   2.534
  544TIP3   OH2 1637   5.616   5.119   0.073
  544TIP3    H1 1638   5.689   5.077   0.028
  544TIP3    H2 1639   5.653   5.145   0.158
  545TIP3   OH2 1640   2.104   0.358   4.185
  545TIP3    H1 1641   2.194   0.346   4.215
  545TIP3    H2 1642   2.057   0.389   4.262
  546TIP3   OH2 1643   0.188   3.094   4.063
  546TIP3    H1 1644   0.120   3.029   4.045
  546TIP3    H2 1645   0.146   3.156   4.123
  547TIP3   OH2 1646   2.493   5.837   4.977
  547TIP3    H1 1647   2.428   5.798   4.918
  547TIP3    H2 1648   2.468   5.803   5.063
  548TIP3   OH2 1649   3.558   2.879   3.581
  548TIP3    H1 1650   3.471   2.919   3.589
  548TIP3    H2 1651   3.618   2.946   3.615
  549TIP3   OH2 1652   2.784   3.400   4.751
  549TIP3    H1 1653   2.727   3.366   4.821
  549TIP3    H2 1654   2.797   3.492   4.774
  550TIP3   OH2 1655   1.324   0.912   3.216
  550TIP3    H1 1656   1.364   0.975   3.277
  550TIP3    H2 1657   1.281   0.848   3.272
  551TIP3   OH2 1658   3.493   1.569   5.035
  551TIP3    H1 1659   3.427   1.638   5.022
  551TIP3    H2 1660   3.446   1.488   5.020
  552TIP3   OH2 1661   2.981   2.745   1.393
  552TIP3    H1 1662   2.989   2.829   1.439
  552TIP3    H2 1663   3.026   2.760   1.310
  553TIP3   OH2 1664   0.084   1.407   1.678
  553TIP3    H1 1665   0.056   1.425   1.588
  553TIP3    H2 1666   0.081   1.492   1.722
  554TIP3   OH2 1667   1.980   2.902   1.179
  554TIP3    H1 1668   1.979   2.813   1.144
  554TIP3    H2 1669   1.951   2.957   1.106
  555TIP3   OH2 1670   5.114   1.596   3.138
  555TIP3    H1 1671   5.095   1.596   3.044
  555TIP3    H2 1672   5.210   1.586   3.142
  556TIP3   OH2 1673   5.931   0.567   1.485
  556TIP3    H1 1674   5.952   0.517   1.406
  556TIP3    H2 1675   6.004   0.629   1.494
  557TIP3   OH2 1676   6.026   1.834   2.423
  557TIP3    H1 1677   5.979   1.768   2.474
  557TIP3    H2 1678   6.043   1.905   2.485
  558TIP3   OH2 1679   0.625   2.093   1.080
  558TIP3    H1 1680   0.601   2.055   1.164
  558TIP3    H2 1681   0.695   2.155   1.100
  559TIP3   OH2 1682   5.281   4.925   4.746
  559TIP3    H1 1683   5.346   4.855   4.751
  559TIP3    H2 1684   5.320   4.990   4.687
  560TIP3   OH2 1685   3.793   4.738   3.511
  560TIP3    H1 1686   3.728   4.776   3.570
  560TIP3    H2 1687   3.858   4.699   3.570
  561TIP3   OH2 1688   0.024   3.073   4.549
  561TIP3    H1 1689   0.093   3.133   4.520
  561TIP3    H2 1690  -0.040   3.129   4.593
  562TIP3   OH2 1691   1.546   4.607   2.104
  562TIP3    H1 1692   1.548   4.691   2.059
  562TIP3    H2 1693   1.477   4.558   2.059
  563TIP3   OH2 1694   3.010   5.339   3.413
  563TIP3    H1 1695   3.001   5.367   3.504
  563TIP3    H2 1696   3.074   5.400   3.376
  564TIP3   OH2 1697   0.089   4.921   3.329
  564TIP3    H1 1698   0.162   4.891   3.275
  564TIP3    H2 1699   0.011   4.893   3.282
  565TIP3   OH2 1700   2.830   3.970   3.889
  565TIP3    H1 1701   2.830   4.005   3.800
  565TIP3    H2 1702   2.737   3.967   3.913
  566TIP3   OH2 1703   2.999   1.307   0.036
  566TIP3    H1 1704   3.065   1.273   0.097
  566TIP3    H2 1705   2.992   1.239  -0.031
  567TIP3   OH2 1706   1.191   0.442   3.290
  567TIP3    H1 1707   1.255   0.375   3.266
  567TIP3    H2 1708   1.151   0.410   3.371
  568TIP3   OH2 1709   2.053  -0.019   1.195
  568TIP3    H1 1710   1.979   0.019   1.243
  568TIP3    H2 1711   2.012  -0.075   1.129
  569TIP3   OH2 1712   1.320   5.001   1.692
  569TIP3    H1 1713   1.367   5.061   1.634
  569TIP3    H2 1714   1.386   4.975   1.757
  570TIP3   OH2 1715   2.063   2.575   1.419
  570TIP3    H1 1716   2.042   2.492   1.375
  570TIP3    H2 1717   1.997   2.636   1.387
  571TIP3   OH2 1718   1.815   1.512   0.466
  571TIP3    H1 1719   1.737   1.546   0.509
  571TIP3    H2 1720   1.888   1.536   0.523
  572TIP3   OH2 1721   1.340   0.482   0.618
  572TIP3    H1 1722   1.252   0.518   0.615
  572TIP3    H2 1723   1.375   0.509   0.703
  573TIP3   OH2 1724   2.849   4.797   0.997
  573TIP3    H1 1725   2.824   4.818   0.907
  573TIP3    H2 1726   2.933   4.750   0.987
  574TIP3   OH2 1727   5.289   0.804   2.005
  574TIP3    H1 1728   5.202   0.778   2.036
  574TIP3    H2 1729   5.298   0.895   2.033
  575TIP3   OH2 1730   1.706   3.779   1.462
  575TIP3    H1 1731   1.662   3.695   1.469
  575TIP3    H2 1732   1.790   3.766   1.506
  576TIP3   OH2 1733   4.628   3.175   1.420
  576TIP3    H1 1734   4.720   3.147   1.423
  576TIP3    H2 1735   4.593   3.153   1.506
  577TIP3   OH2 1736   0.207   4.763   0.384
  577TIP3    H1 1737   0.213   4.822   0.459
  577TIP3    H2 1738   0.173   4.681   0.420
  578TIP3   OH2 1739   3.759   0.619   4.491
  578TIP3    H1 1740   3.806   0.630   4.408
  578TIP3    H2 1741   3.802   0.680   4.551
  579TIP3   OH2 1742   5.730   2.967   3.626
  579TIP3    H1 1743   5.762   3.058   3.625
  579TIP3    H2 1744   5.648   2.970   3.577
  580TIP3   OH2 1745   5.279   4.635   5.049
  580TIP3    H1 1746   5.347   4.666   5.108
  580TIP3    H2 1747   5.252   4.712   5.000
  581TIP3   OH2 1748   3.125   0.328   3.216
  581TIP3    H1 1749   3.165   0.388   3.279
  581TIP3    H2 1750   3.124   0.376   3.133
  582TIP3   OH2 1751   5.471   5.048   5.016
  582TIP3    H1 1752   5.498   5.024   4.927
  582TIP3    H2 1753   5.511   5.133   5.032
  583TIP3   OH2 1754   2.337   1.560   0.074
  583TIP3    H1 1755   2.401   1.545   0.005
  583TIP3    H2 1756   2.312   1.472   0.103
  584TIP3   OH2 1757   5.370   2.271   3.130
  584TIP3    H1 1758   5.294   2.326   3.148
  584TIP3    H2 1759   5.334   2.188   3.101
  585TIP3   OH2 1760   3.401   0.373   3.391
  585TIP3    H1 1761   3.493   0.400   3.384
  585TIP3    H2 1762   3.394   0.299   3.331
  586TIP3   OH2 1763   5.159   2.128   2.827
  586TIP3    H1 1764   5.183   2.050   2.778
  586TIP3    H2 1765   5.188   2.110   2.917
  587TIP3   OH2 1766   1.207   4.417   1.990
  587TIP3    H1 1767   1.297   4.388   1.974
  587TIP3    H2 1768   1.173   4.438   1.903
  588TIP3   OH2 1769   5.700   5.577   4.109
  588TIP3    H1 1770   5.724   5.643   4.174
  588TIP3    H2 1771   5.730   5.494   4.147
  589TIP3   OH2 1772   6.226   3.145   0.527
  589TIP3    H1 1773   6.280   3.223   0.515
  589TIP3    H2 1774   6.288   3.072   0.529
  590TIP3   OH2 1775   3.489   4.669   4.443
  590TIP3    H1 1776   3.459   4.759   4.456
  590TIP3    H2 1777   3.583   4.672   4.462
  591TIP3   OH2 1778   5.779   2.138   3.751
  591TIP3    H1 1779   5.868   2.122   3.784
  591TIP3    H2 1780   5.722   2.089   3.811
  592TIP3   OH2 1781   5.449   0.142   4.616
  592TIP3    H1 1782   5.484   0.184   4.694
  592TIP3    H2 1783   5.519   0.084   4.587
  593TIP3   OH2 1784   2.737   4.895   0.241
  593TIP3    H1 1785   2.706   4.971   0.291
  593TIP3    H2 1786   2.777   4.838   0.307
  594TIP3   OH2 1787   2.501   2.919   4.761
  594TIP3    H1 1788   2.449   2.953   4.835
  594TIP3    H2 1789   2.442   2.858   4.717
  595TIP3   OH2 1790   4.898   2.857   2.484
  595TIP3    H1 1791   4.902   2.882   2.577
  595TIP3    H2 1792   4.974   2.800   2.473
  596TIP3   OH2 1793   2.037   4.067   3.972
  596TIP3    H1 1794   2.073   4.155   3.983
  596TIP3    H2 1795   2.069   4.039   3.886
  597TIP3   OH2 1796   2.684   4.817   3.242
  597TIP3    H1 1797   2.629   4.895   3.246
  597TIP3    H2 1798   2.692   4.798   3.149
  598TIP3   OH2 1799   2.294   0.609   3.774
  598TIP3    H1 1800   2.202   0.589   3.760
  598TIP3    H2 1801   2.322   0.653   3.693
  599TIP3   OH2 1802   3.248   1.643   0.506
  599TIP3    H1 1803   3.163   1.673   0.538
  599TIP3    H2 1804   3.232   1.615   0.416
  600TIP3   OH2 1805   5.747   0.202   0.337
  600TIP3    H1 1806   5.716   0.203   0.428
  600TIP3    H2 1807   5.729   0.114   0.306
  601TIP3   OH2 1808   5.849   5.404   0.660
  601TIP3    H1 1809   5.852   5.495   0.688
  601TIP3    H2 1810   5.853   5.408   0.564
  602TIP3   OH2 1811   6.230   5.289   1.512
  602TIP3    H1 1812   6.163   5.246   1.566
  602TIP3    H2 1813   6.303   5.305   1.571
  603TIP3   OH2 1814   5.903   0.535   2.087
  603TIP3    H1 1815   5.870   0.606   2.143
  603TIP3    H2 1816   5.911   0.575   2.000
  604TIP3   OH2 1817   1.428   2.286   0.873
  604TIP3    H1 1818   1.400   2.199   0.845
  604TIP3    H2 1819   1.521   2.276   0.896
  605TIP3   OH2 1820   0.396   0.620   1.499
  605TIP3    H1 1821   0.407   0.654   1.588
  605TIP3    H2 1822   0.484   0.625   1.461
  606TIP3   OH2 1823   5.772   1.173   3.652
  606TIP3    H1 1824   5.791   1.207   3.739
  606TIP3    H2 1825   5.693   1.220   3.624
  607TIP3   OH2 1826   0.376   5.688   4.599
  607TIP3    H1 1827   0.361   5.733   4.682
  607TIP3    H2 1828   0.412   5.755   4.541
  608TIP3   OH2 1829   2.888   4.477   2.069
  608TIP3    H1 1830   2.950   4.464   2.141
  608TIP3    H2 1831   2.857   4.389   2.048
  609TIP3   OH2 1832   5.500   2.981   5.002
  609TIP3    H1 1833   5.508   2.894   5.042
  609TIP3    H2 1834   5.582   2.993   4.954
  610TIP3   OH2 1835   4.704   3.837   1.398
  610TIP3    H1 1836   4.678   3.894   1.325
  610TIP3    H2 1837   4.622   3.815   1.442
  611TIP3   OH2 1838   5.074   4.597   1.871
  611TIP3    H1 1839   4.980   4.608   1.887
  611TIP3    H2 1840   5.112   4.682   1.891
  612TIP3   OH2 1841   4.982   0.887   0.488
  612TIP3    H1 1842   4.978   0.929   0.573
  612TIP3    H2 1843   5.064   0.918   0.449
  613TIP3   OH2 1844   6.007   4.177   2.962
  613TIP3    H1 1845   5.916   4.196   2.938
  613TIP3    H2 1846   6.042   4.128   2.888
  614TIP3   OH2 1847   6.269   3.956   4.286
  614TIP3    H1 1848   6.318   3.968   4.204
  614TIP3    H2 1849   6.224   3.872   4.275
  615TIP3   OH2 1850   4.424   3.116   4.954
  615TIP3    H1 1851   4.341   3.163   4.953
  615TIP3    H2 1852   4.446   3.106   4.861
  616TIP3   OH2 1853   0.954   5.578   3.533
  616TIP3    H1 1854   0.955   5.673   3.542
  616TIP3    H2 1855   0.900   5.561   3.456
  617TIP3   OH2 1856   5.068   5.568   0.616
  617TIP3    H1 1857   5.056   5.661   0.601
  617TIP3    H2 1858   4.982   5.536   0.642
  618TIP3   OH2 1859   1.458   1.681   4.037
  618TIP3    H1 1860   1.475   1.589   4.057
  618TIP3    H2 1861   1.433   1.680   3.944
  619TIP3   OH2 1862   2.742   4.518   3.615
  619TIP3    H1 1863   2.714   4.530   3.524
  619TIP3    H2 1864   2.750   4.607   3.649
  620TIP3   OH2 1865   0.279   5.162   4.279
  620TIP3    H1 1866   0.298   5.104   4.353
  620TIP3    H2 1867   0.268   5.249   4.318
  621TIP3   OH2 1868   1.093   4.730   1.225
  621TIP3    H1 1869   1.068   4.646   1.185
  621TIP3    H2 1870   1.179   4.713   1.263
  622TIP3   OH2 1871   2.558   2.536   1.298
  622TIP3    H1 1872   2.475   2.490   1.284
  622TIP3    H2 1873   2.559   2.605   1.232
  623TIP3   OH2 1874   6.326   0.698   3.166
  623TIP3    H1 1875   6.290   0.731   3.248
  623TIP3    H2 1876   6.260   0.718   3.100
  624TIP3   OH2 1877   1.393   4.776   3.144
  624TIP3    H1 1878   1.441   4.735   3.216
  624TIP3    H2 1879   1.312   4.726   3.137
  625TIP3   OH2 1880   6.055   4.502   0.203
  625TIP3    H1 1881   6.135   4.456   0.181
  625TIP3    H2 1882   5.987   4.460   0.150
  626TIP3   OH2 1883   4.182   2.547   4.293
  626TIP3    H1 1884   4.261   2.502   4.324
  626TIP3    H2 1885   4.110   2.492   4.324
  627TIP3   OH2 1886   5.306   1.269   4.145
  627TIP3    H1 1887   5.218   1.230   4.150
  627TIP3    H2 1888   5.315   1.318   4.227
  628TIP3   OH2 1889   3.449   3.850   4.738
  628TIP3    H1 1890   3.421   3.761   4.717
  628TIP3    H2 1891   3.540   3.855   4.709
  629TIP3   OH2 1892   1.467   1.424   3.464
  629TIP3    H1 1893   1.548   1.474   3.454
  629TIP3    H2 1894   1.412   1.478   3.521
  630TIP3   OH2 1895   1.549   3.426   0.461
  630TIP3    H1 1896   1.468   3.382   0.486
  630TIP3    H2 1897   1.579   3.469   0.542
  631TIP3   OH2 1898   1.811   2.297   3.783
  631TIP3    H1 1899   1.884   2.357   3.796
  631TIP3    H2 1900   1.784   2.272   3.871
  632TIP3   OH2 1901   5.030   1.639   2.866
  632TIP3    H1 1902   4.935   1.644   2.879
  632TIP3    H2 1903   5.040   1.624   2.772
  633TIP3   OH2 1904   2.637   1.649   1.332
  633TIP3    H1 1905   2.724   1.614   1.314
  633TIP3    H2 1906   2.638   1.670   1.425
  634TIP3   OH2 1907   1.784   0.601   3.945
  634TIP3    H1 1908   1.711   0.601   4.008
  634TIP3    H2 1909   1.784   0.690   3.909
  635TIP3   OH2 1910   5.985   3.193   3.772
  635TIP3    H1 1911   5.973   3.141   3.851
  635TIP3    H2 1912   5.899   3.194   3.730
  636TIP3   OH2 1913   0.157   0.939   4.427
  636TIP3    H1 1914   0.231   0.934   4.488
  636TIP3    H2 1915   0.170   1.021   4.379
  637TIP3   OH2 1916   2.328   2.750   4.696
  637TIP3    H1 1917   2.273   2.757   4.618
  637TIP3    H2 1918   2.386   2.677   4.678
  638TIP3   OH2 1919   0.353   1.643   3.131
  638TIP3    H1 1920   0.412   1.607   3.065
  638TIP3    H2 1921   0.288   1.693   3.081
  639TIP3   OH2 1922   4.585   0.371   1.451
  639TIP3    H1 1923   4.512   0.312   1.430
  639TIP3    H2 1924   4.624   0.392   1.366
  640TIP3   OH2 1925   4.949   4.846   0.773
  640TIP3    H1 1926   4.947   4.768   0.828
  640TIP3    H2 1927   4.944   4.919   0.834
  641TIP3   OH2 1928   4.621   4.378   3.936
  641TIP3    H1 1929   4.571   4.459   3.933
  641TIP3    H2 1930   4.583   4.328   4.007
  642TIP3   OH2 1931   4.399   5.348   1.592
  642TIP3    H1 1932   4.330   5.397   1.637
  642TIP3    H2 1933   4.380   5.359   1.499
  643TIP3   OH2 1934   0.605   3.091   1.272
  643TIP3    H1 1935   0.512   3.111   1.261
  643TIP3    H2 1936   0.611   3.042   1.354
  644TIP3   OH2 1937   2.758   4.879   2.948
  644TIP3    H1 1938   2.717   4.819   2.886
  644TIP3    H2 1939   2.731   4.966   2.919
  645TIP3   OH2 1940   2.938   1.130   1.961
  645TIP3    H1 1941   2.855   1.168   1.932
  645TIP3    H2 1942   2.937   1.141   2.056
  646TIP3   OH2 1943   0.860   2.838   2.843
  646TIP3    H1 1944   0.922   2.911   2.844
  646TIP3    H2 1945   0.777   2.876   2.873
  647TIP3   OH2 1946   0.327   5.818   0.608
  647TIP3    H1 1947   0.292   5.742   0.655
  647TIP3    H2 1948   0.402   5.783   0.559
  648TIP3   OH2 1949   5.833   2.400   4.867
  648TIP3    H1 1950   5.926   2.394   4.847
  648TIP3    H2 1951   5.810   2.491   4.848
  649TIP3   OH2 1952   1.965   0.577   2.051
  649TIP3    H1 1953   1.957   0.576   2.146
  649TIP3    H2 1954   1.915   0.654   2.023
  650TIP3   OH2 1955   2.356   0.274   2.417
  650TIP3    H1 1956   2.304   0.274   2.336
  650TIP3    H2 1957   2.443   0.300   2.389
  651TIP3   OH2 1958   2.078   0.803   1.099
  651TIP3    H1 1959   1.994   0.815   1.055
  651TIP3    H2 1960   2.139   0.859   1.051
  652TIP3   OH2 1961   1.341   5.400   4.838
  652TIP3    H1 1962   1.369   5.397   4.746
  652TIP3    H2 1963   1.411   5.355   4.885
  653TIP3   OH2 1964   0.502   2.588   4.703
  653TIP3    H1 1965   0.548   2.665   4.668
  653TIP3    H2 1966   0.459   2.621   4.783
  654TIP3   OH2 1967   3.460   2.877   3.332
  654TIP3    H1 1968   3.490   2.805   3.275
  654TIP3    H2 1969   3.504   2.861   3.415
  655TIP3   OH2 1970   4.067   2.608   0.789
  655TIP3    H1 1971   4.100   2.544   0.727
  655TIP3    H2 1972   4.034   2.679   0.734
  656TIP3   OH2 1973   1.808   1.508   4.247
  656TIP3    H1 1974   1.730   1.484   4.296
  656TIP3    H2 1975   1.880   1.464   4.294
  657TIP3   OH2 1976   2.687   4.968   0.721
  657TIP3    H1 1977   2.775   4.953   0.688
  657TIP3    H2 1978   2.700   5.018   0.802
  658TIP3   OH2 1979   6.194   4.994   4.762
  658TIP3    H1 1980   6.264   4.970   4.700
  658TIP3    H2 1981   6.235   4.991   4.848
  659TIP3   OH2 1982   4.158   4.928   0.492
  659TIP3    H1 1983   4.191   5.016   0.475
  659TIP3    H2 1984   4.180   4.911   0.584
  660TIP3   OH2 1985   2.632   3.877   0.557
  660TIP3    H1 1986   2.627   3.876   0.461
  660TIP3    H2 1987   2.605   3.789   0.584
  661TIP3   OH2 1988   2.312   2.681   2.979
  661TIP3    H1 1989   2.271   2.738   2.914
  661TIP3    H2 1990   2.247   2.673   3.049
  662TIP3   OH2 1991   3.618   1.430   3.469
  662TIP3    H1 1992   3.627   1.371   3.395
  662TIP3    H2 1993   3.614   1.518   3.430
  663TIP3   OH2 1994   3.809   5.569   4.199
  663TIP3    H1 1995   3.749   5.643   4.187
  663TIP3    H2 1996   3.811   5.555   4.294
  664TIP3   OH2 1997   2.015   5.744   3.180
  664TIP3    H1 1998   1.991   5.800   3.253
  664TIP3    H2 1999   2.042   5.662   3.221
  665TIP3   OH2 2000   5.141   0.670   2.885
  665TIP3    H1 2001   5.140   0.581   2.851
  665TIP3    H2 2002   5.213   0.670   2.948
  666TIP3   OH2 2003   0.454   5.024   2.161
  666TIP3    H1 2004   0.408   5.103   2.132
  666TIP3    H2 2005   0.488   4.985   2.081
  667TIP3   OH2 2006   1.679   2.183   2.977
  667TIP3    H1 2007   1.747   2.235   2.934
  667TIP3    H2 2008   1.626   2.149   2.905
  668TIP3   OH2 2009   5.010   2.828   0.934
  668TIP3    H1 2010   5.078   2.889   0.964
  668TIP3    H2 2011   5.001   2.848   0.840
  669TIP3   OH2 2012   1.790   5.169   4.044
  669TIP3    H1 2013   1.752   5.108   4.107
  669TIP3    H2 2014   1.716   5.218   4.009
  670TIP3   OH2 2015   2.088   0.046   3.759
  670TIP3    H1 2016   2.177   0.032   3.726
  670TIP3    H2 2017   2.100   0.105   3.834
  671TIP3   OH2 2018   2.014   3.300   1.350
  671TIP3    H1 2019   2.024   3.395   1.358
  671TIP3    H2 2020   1.919   3.286   1.351
  672TIP3   OH2 2021   4.593  -0.047   3.871
  672TIP3    H1 2022   4.613  -0.041   3.778
  672TIP3    H2 2023   4.635   0.030   3.910
  673TIP3   OH2 2024   3.452   2.137   1.717
  673TIP3    H1 2025   3.412   2.143   1.804
  673TIP3    H2 2026   3.487   2.224   1.701
  674TIP3   OH2 2027   0.845   3.079   3.176
  674TIP3    H1 2028   0.894   3.101   3.097
  674TIP3    H2 2029   0.771   3.140   3.176
  675TIP3   OH2 2030   5.125   1.482   1.077
  675TIP3    H1 2031   5.040   1.451   1.108
  675TIP3    H2 2032   5.138   1.566   1.122
  676TIP3   OH2 2033   2.798   4.224   0.680
  676TIP3    H1 2034   2.820   4.303   0.731
  676TIP3    H2 2035   2.707   4.237   0.654
  677TIP3   OH2 2036   5.424   5.472   2.139
  677TIP3    H1 2037   5.329   5.462   2.141
  677TIP3    H2 2038   5.458   5.383   2.147
  678TIP3   OH2 2039   2.429   2.881   0.488
  678TIP3    H1 2040   2.432   2.847   0.398
  678TIP3    H2 2041   2.368   2.954   0.485
  679TIP3   OH2 2042   4.409   1.127   0.164
  679TIP3    H1 2043   4.448   1.120   0.077
  679TIP3    H2 2044   4.433   1.045   0.207
  680TIP3   OH2 2045   5.873   1.648   2.591
  680TIP3    H1 2046   5.794   1.601   2.563
  680TIP3    H2 2047   5.929   1.581   2.630
  681TIP3   OH2 2048   3.090   1.064   4.199
  681TIP3    H1 2049   3.004   1.057   4.241
  681TIP3    H2 2050   3.111   1.157   4.203
  682TIP3   OH2 2051   4.082   1.313   1.152
  682TIP3    H1 2052   3.987   1.313   1.142
  682TIP3    H2 2053   4.099   1.259   1.229
  683TIP3   OH2 2054   3.129   2.843   2.942
  683TIP3    H1 2055   3.152   2.819   2.852
  683TIP3    H2 2056   3.142   2.938   2.945
  684TIP3   OH2 2057   2.573   2.753   2.679
  684TIP3    H1 2058   2.585   2.658   2.685
  684TIP3    H2 2059   2.480   2.764   2.657
  685TIP3   OH2 2060   0.320   3.238   3.895
  685TIP3    H1 2061   0.256   3.180   3.937
  685TIP3    H2 2062   0.389   3.249   3.960
  686TIP3   OH2 2063   3.306   5.806   2.840
  686TIP3    H1 2064   3.255   5.725   2.844
  686TIP3    H2 2065   3.397   5.778   2.850
  687TIP3   OH2 2066   1.467   4.386   1.932
  687TIP3    H1 2067   1.527   4.313   1.947
  687TIP3    H2 2068   1.480   4.410   1.841
  688TIP3   OH2 2069   4.710   3.716   3.862
  688TIP3    H1 2070   4.759   3.667   3.929
  688TIP3    H2 2071   4.777   3.758   3.809
  689TIP3   OH2 2072   2.754   0.123   2.595
  689TIP3    H1 2073   2.734   0.040   2.638
  689TIP3    H2 2074   2.709   0.117   2.511
  690TIP3   OH2 2075   4.044   4.541   2.891
  690TIP3    H1 2076   3.970   4.482   2.879
  690TIP3    H2 2077   4.104   4.494   2.948
  691TIP3   OH2 2078   3.128   1.134   3.456
  691TIP3    H1 2079   3.193   1.124   3.385
  691TIP3    H2 2080   3.081   1.214   3.433
  692TIP3   OH2 2081   2.342   4.618   3.335
  692TIP3    H1 2082   2.362   4.609   3.242
  692TIP3    H2 2083   2.301   4.535   3.359
  693TIP3   OH2 2084   6.271   5.044   1.902
  693TIP3    H1 2085   6.359   5.050   1.866
  693TIP3    H2 2086   6.213   5.051   1.827
  694TIP3   OH2 2087   6.082   2.045   3.467
  694TIP3    H1 2088   6.023   2.018   3.397
  694TIP3    H2 2089   6.076   2.140   3.468
  695TIP3   OH2 2090   1.804   1.425   1.818
  695TIP3    H1 2091   1.801   1.367   1.894
  695TIP3    H2 2092   1.712   1.450   1.803
  696TIP3   OH2 2093   5.197   5.323   0.606
  696TIP3    H1 2094   5.142   5.252   0.573
  696TIP3    H2 2095   5.139   5.399   0.608
  697TIP3   OH2 2096   1.600   3.595   3.632
  697TIP3    H1 2097   1.638   3.609   3.719
  697TIP3    H2 2098   1.645   3.658   3.576
  698TIP3   OH2 2099   3.107   0.792   4.725
  698TIP3    H1 2100   3.167   0.764   4.794
  698TIP3    H2 2101   3.153   0.771   4.643
  699TIP3   OH2 2102   4.743   2.580   4.514
  699TIP3    H1 2103   4.797   2.555   4.589
  699TIP3    H2 2104   4.748   2.506   4.454
  700TIP3   OH2 2105   0.673   4.892   2.025
  700TIP3    H1 2106   0.628   4.820   2.068
  700TIP3    H2 2107   0.705   4.855   1.942
  701TIP3   OH2 2108  -0.041   4.485   2.749
  701TIP3    H1 2109  -0.028   4.398   2.787
  701TIP3    H2 2110   0.047   4.519   2.736
  702TIP3   OH2 2111   5.516   0.441   3.268
  702TIP3    H1 2112   5.561   0.410   3.347
  702TIP3    H2 2113   5.580   0.428   3.198
  703TIP3   OH2 2114   2.611   5.529   3.435
  703TIP3    H1 2115   2.669   5.462   3.400
  703TIP3    H2 2116   2.554   5.553   3.362
  704TIP3   OH2 2117   2.864   5.403   0.208
  704TIP3    H1 2118   2.884   5.352   0.129
  704TIP3    H2 2119   2.940   5.459   0.221
  705TIP3   OH2 2120   4.398   3.109   4.165
  705TIP3    H1 2121   4.399   3.196   4.123
  705TIP3    H2 2122   4.333   3.059   4.116
  706TIP3   OH2 2123   6.292   2.609   2.280
  706TIP3    H1 2124   6.311   2.524   2.240
  706TIP3    H2 2125   6.197   2.612   2.286
  707TIP3   OH2 2126   4.196   2.907   0.769
  707TIP3    H1 2127   4.102   2.912   0.752
  707TIP3    H2 2128   4.206   2.941   0.858
  708TIP3   OH2 2129   4.254   3.801   2.001
  708TIP3    H1 2130   4.308   3.809   2.080
  708TIP3    H2 2131   4.263   3.709   1.975
  709TIP3   OH2 2132   0.593   0.352   4.718
  709TIP3    H1 2133   0.586   0.292   4.644
  709TIP3    H2 2134   0.563   0.302   4.793
  710TIP3   OH2 2135   0.571   1.096   1.289
  710TIP3    H1 2136   0.509   1.139   1.230
  710TIP3    H2 2137   0.637   1.163   1.307
  711TIP3   OH2 2138   4.830   4.778   2.488
  711TIP3    H1 2139   4.747   4.760   2.445
  711TIP3    H2 2140   4.874   4.842   2.432
  712TIP3   OH2 2141   5.694   3.804   0.201
  712TIP3    H1 2142   5.782   3.812   0.164
  712TIP3    H2 2143   5.660   3.723   0.163
  713TIP3   OH2 2144   1.179   4.669   5.125
  713TIP3    H1 2145   1.113   4.670   5.194
  713TIP3    H2 2146   1.180   4.578   5.094
  714TIP3   OH2 2147   2.510   4.605   3.078
  714TIP3    H1 2148   2.430   4.583   3.030
  714TIP3    H2 2149   2.575   4.540   3.049
  715TIP3   OH2 2150   2.958   0.132   1.719
  715TIP3    H1 2151   2.979   0.219   1.753
  715TIP3    H2 2152   3.037   0.105   1.673
  716TIP3   OH2 2153   2.364   0.117   4.704
  716TIP3    H1 2154   2.403   0.061   4.638
  716TIP3    H2 2155   2.435   0.135   4.766
  717TIP3   OH2 2156   5.268   5.487   0.041
  717TIP3    H1 2157   5.342   5.543   0.063
  717TIP3    H2 2158   5.229   5.463   0.125
  718TIP3   OH2 2159   4.728   5.363   0.277
  718TIP3    H1 2160   4.820   5.390   0.281
  718TIP3    H2 2161   4.678   5.441   0.301
  719TIP3   OH2 2162   6.112   4.408   0.990
  719TIP3    H1 2163   6.194   4.451   0.966
  719TIP3    H2 2164   6.122   4.386   1.083
  720TIP3   OH2 2165   3.910   3.097   2.341
  720TIP3    H1 2166   3.864   3.176   2.313
  720TIP3    H2 2167   3.845   3.027   2.334
  721TIP3   OH2 2168   3.014   5.837   4.679
  721TIP3    H1 2169   3.033   5.908   4.618
  721TIP3    H2 2170   3.008   5.758   4.624
  722TIP3   OH2 2171   1.311   4.480   1.337
  722TIP3    H1 2172   1.279   4.432   1.414
  722TIP3    H2 2173   1.316   4.414   1.268
  723TIP3   OH2 2174   6.364   5.504   3.115
  723TIP3    H1 2175   6.370   5.511   3.020
  723TIP3    H2 2176   6.270   5.495   3.132
  724TIP3   OH2 2177   2.032   5.288   1.057
  724TIP3    H1 2178   2.006   5.308   1.148
  724TIP3    H2 2179   2.001   5.363   1.007
  725TIP3   OH2 2180   0.614   4.743   4.573
  725TIP3    H1 2181   0.647   4.830   4.549
  725TIP3    H2 2182   0.537   4.760   4.627
  726TIP3   OH2 2183   4.206   1.781   1.899
  726TIP3    H1 2184   4.222   1.871   1.871
  726TIP3    H2 2185   4.252   1.727   1.835
  727TIP3   OH2 2186   3.809   3.597   2.930
  727TIP3    H1 2187   3.810   3.587   3.025
  727TIP3    H2 2188   3.879   3.660   2.912
  728TIP3   OH2 2189   5.342   2.749   0.806
  728TIP3    H1 2190   5.275   2.691   0.841
  728TIP3    H2 2191   5.424   2.703   0.822
  729TIP3   OH2 2192   1.240   1.718   2.259
  729TIP3    H1 2193   1.214   1.629   2.237
  729TIP3    H2 2194   1.282   1.750   2.179
  730TIP3   OH2 2195   2.940   0.347   1.070
  730TIP3    H1 2196   3.025   0.383   1.095
  730TIP3    H2 2197   2.955   0.253   1.059
  731TIP3   OH2 2198   2.470   5.072   3.456
  731TIP3    H1 2199   2.477   4.977   3.465
  731TIP3    H2 2200   2.533   5.107   3.519
  732TIP3   OH2 2201   1.782   0.346   3.871
  732TIP3    H1 2202   1.781   0.437   3.900
  732TIP3    H2 2203   1.690   0.321   3.867
  733TIP3   OH2 2204   6.014   3.408   1.282
  733TIP3    H1 2205   5.940   3.367   1.327
  733TIP3    H2 2206   6.074   3.433   1.353
  734TIP3   OH2 2207   1.010   0.595   5.018
  734TIP3    H1 2208   1.015   0.598   5.114
  734TIP3    H2 2209   0.939   0.655   4.996
  735TIP3   OH2 2210   4.539   2.840   2.013
  735TIP3    H1 2211   4.554   2.934   2.016
  735TIP3    H2 2212   4.534   2.819   1.920
  736TIP3   OH2 2213   0.377   2.370   0.988
  736TIP3    H1 2214   0.428   2.306   0.938
  736TIP3    H2 2215   0.298   2.383   0.936
  737TIP3   OH2 2216   3.345   5.019   4.743
  737TIP3    H1 2217   3.365   5.111   4.752
  737TIP3    H2 2218   3.255   5.010   4.775
  738TIP3   OH2 2219   3.958   2.371   2.359
  738TIP3    H1 2220   3.924   2.282   2.365
  738TIP3    H2 2221   3.916   2.407   2.280
  739TIP3   OH2 2222   6.052   5.222   4.636
  739TIP3    H1 2223   6.072   5.174   4.716
  739TIP3    H2 2224   6.073   5.313   4.656
  740TIP3   OH2 2225   4.509   5.034   0.931
  740TIP3    H1 2226   4.441   5.021   0.866
  740TIP3    H2 2227   4.547   5.120   0.910
  741TIP3   OH2 2228   3.710   2.646   0.991
  741TIP3    H1 2229   3.790   2.674   1.036
  741TIP3    H2 2230   3.737   2.573   0.936
  742TIP3   OH2 2231   1.017   2.775   0.444
  742TIP3    H1 2232   0.991   2.759   0.535
  742TIP3    H2 2233   1.026   2.870   0.438
  743TIP3   OH2 2234   6.192   1.780   2.215
  743TIP3    H1 2235   6.143   1.746   2.140
  743TIP3    H2 2236   6.131   1.774   2.289
  744TIP3   OH2 2237   3.429   3.703   1.079
  744TIP3    H1 2238   3.466   3.615   1.077
  744TIP3    H2 2239   3.501   3.761   1.056
  745TIP3   OH2 2240   0.051   1.693   1.765
  745TIP3    H1 2241   0.122   1.752   1.739
  745TIP3    H2 2242   0.052   1.696   1.861
  746TIP3   OH2 2243   5.146   0.279   3.586
  746TIP3    H1 2244   5.159   0.262   3.493
  746TIP3    H2 2245   5.213   0.344   3.608
  747TIP3   OH2 2246   2.307   0.936   1.466
  747TIP3    H1 2247   2.262   0.871   1.413
  747TIP3    H2 2248   2.306   1.016   1.413
  748TIP3   OH2 2249   0.698   0.227   1.403
  748TIP3    H1 2250   0.761   0.198   1.470
  748TIP3    H2 2251   0.677   0.317   1.428
  749TIP3   OH2 2252   3.169   5.586   2.817
  749TIP3    H1 2253   3.208   5.550   2.737
  749TIP3    H2 2254   3.083   5.617   2.790
  750TIP3   OH2 2255   1.187   3.076   4.895
  750TIP3    H1 2256   1.168   3.147   4.834
  750TIP3    H2 2257   1.167   3.112   4.981
  751TIP3   OH2 2258   0.220   3.665   2.919
  751TIP3    H1 2259   0.302   3.654   2.966
  751TIP3    H2 2260   0.212   3.760   2.906
  752TIP3   OH2 2261   3.641   5.199   0.634
  752TIP3    H1 2262   3.653   5.287   0.670
  752TIP3    H2 2263   3.706   5.146   0.679
  753TIP3   OH2 2264   3.749   3.317   3.830
  753TIP3    H1 2265   3.770   3.380   3.761
  753TIP3    H2 2266   3.801   3.346   3.905
  754TIP3   OH2 2267   1.112   2.181   2.013
  754TIP3    H1 2268   1.038   2.214   1.962
  754TIP3    H2 2269   1.101   2.086   2.012
  755TIP3   OH2 2270   4.469   1.625   3.400
  755TIP3    H1 2271   4.417   1.704   3.417
  755TIP3    H2 2272   4.528   1.618   3.475
  756TIP3   OH2 2273   1.652   0.307   1.347
  756TIP3    H1 2274   1.623   0.394   1.374
  756TIP3    H2 2275   1.663   0.259   1.428
  757TIP3   OH2 2276   3.885   5.219   5.169
  757TIP3    H1 2277   3.806   5.230   5.223
  757TIP3    H2 2278   3.872   5.135   5.125
  758TIP3   OH2 2279   4.766   5.474   2.532
  758TIP3    H1 2280   4.768   5.379   2.547
  758TIP3    H2 2281   4.761   5.512   2.619
  759TIP3   OH2 2282   4.895   4.670   4.404
  759TIP3    H1 2283   4.875   4.634   4.491
  759TIP3    H2 2284   4.974   4.624   4.377
  760TIP3   OH2 2285   0.340   5.548   2.663
  760TIP3    H1 2286   0.399   5.567   2.590
  760TIP3    H2 2287   0.353   5.621   2.724
  761TIP3   OH2 2288   0.136   2.193   2.699
  761TIP3    H1 2289   0.113   2.142   2.776
  761TIP3    H2 2290   0.103   2.281   2.717
  762TIP3   OH2 2291   2.103   3.165   0.950
  762TIP3    H1 2292   2.123   3.203   1.036
  762TIP3    H2 2293   2.008   3.149   0.954
  763TIP3   OH2 2294   2.188   0.226   2.220
  763TIP3    H1 2295   2.094   0.233   2.234
  763TIP3    H2 2296   2.203   0.268   2.135
  764TIP3   OH2 2297   0.668   3.839   3.282
  764TIP3    H1 2298   0.686   3.747   3.264
  764TIP3    H2 2299   0.603   3.838   3.352
  765TIP3   OH2 2300   1.371   0.888   4.697
  765TIP3    H1 2301   1.461   0.854   4.689
  765TIP3    H2 2302   1.347   0.869   4.787
  766TIP3   OH2 2303   1.223   1.121   2.441
  766TIP3    H1 2304   1.244   1.072   2.361
  766TIP3    H2 2305   1.305   1.123   2.490
  767TIP3   OH2 2306   6.136   1.901   1.791
  767TIP3    H1 2307   6.064   1.856   1.747
  767TIP3    H2 2308   6.134   1.990   1.755
  768TIP3   OH2 2309   2.991   5.071   1.656
  768TIP3    H1 2310   3.048   5.115   1.593
  768TIP3    H2 2311   3.017   4.979   1.652
  769TIP3   OH2 2312   5.219   4.506   3.458
  769TIP3    H1 2313   5.196   4.553   3.378
  769TIP3    H2 2314   5.315   4.512   3.462
  770TIP3   OH2 2315   1.475   1.412   4.140
  770TIP3    H1 2316   1.468   1.424   4.235
  770TIP3    H2 2317   1.410   1.345   4.120
  771TIP3   OH2 2318   1.357   5.454   4.514
  771TIP3    H1 2319   1.391   5.533   4.557
  771TIP3    H2 2320   1.261   5.461   4.523
  772TIP3   OH2 2321   4.540   4.773   3.504
  772TIP3    H1 2322   4.605   4.739   3.566
  772TIP3    H2 2323   4.489   4.696   3.478
  773TIP3   OH2 2324   0.128   2.726   3.657
  773TIP3    H1 2325   0.107   2.701   3.567
  773TIP3    H2 2326   0.221   2.707   3.667
  774TIP3   OH2 2327   6.145   2.037   1.028
  774TIP3    H1 2328   6.094   1.964   1.061
  774TIP3    H2 2329   6.080   2.105   1.009
  775TIP3   OH2 2330   0.991   0.438   2.044
  775TIP3    H1 2331   0.996   0.360   2.099
  775TIP3    H2 2332   1.032   0.507   2.097
  776TIP3   OH2 2333   1.935   5.367   1.298
  776TIP3    H1 2334   1.845   5.350   1.326
  776TIP3    H2 2335   1.964   5.439   1.354
  777TIP3   OH2 2336   2.209   2.330   2.484
  777TIP3    H1 2337   2.163   2.247   2.475
  777TIP3    H2 2338   2.281   2.325   2.421
  778TIP3   OH2 2339   0.344   0.301   0.477
  778TIP3    H1 2340   0.371   0.340   0.394
  778TIP3    H2 2341   0.418   0.316   0.536
  779TIP3   OH2 2342   0.261   5.597   3.586
  779TIP3    H1 2343   0.239   5.683   3.551
  779TIP3    H2 2344   0.356   5.590   3.576
  780TIP3   OH2 2345   5.550   5.285   1.665
  780TIP3    H1 2346   5.474   5.302   1.720
  780TIP3    H2 2347   5.608   5.360   1.679
  781TIP3   OH2 2348   3.367   0.190   2.538
  781TIP3    H1 2349   3.338   0.264   2.592
  781TIP3    H2 2350   3.361   0.222   2.448
  782TIP3   OH2 2351   2.786   0.322   3.976
  782TIP3    H1 2352   2.777   0.386   4.047
  782TIP3    H2 2353   2.739   0.245   4.006
  783TIP3   OH2 2354   1.480   2.704   2.329
  783TIP3    H1 2355   1.453   2.746   2.411
  783TIP3    H2 2356   1.574   2.689   2.340
  784TIP3   OH2 2357   5.181   2.560   0.966
  784TIP3    H1 2358   5.179   2.497   0.894
  784TIP3    H2 2359   5.109   2.620   0.947
  785TIP3   OH2 2360   6.262   3.928   0.708
  785TIP3    H1 2361   6.185   3.949   0.760
  785TIP3    H2 2362   6.273   3.833   0.717
  786TIP3   OH2 2363   1.399   2.199   2.129
  786TIP3    H1 2364   1.422   2.116   2.086
  786TIP3    H2 2365   1.481   2.229   2.168
  787TIP3   OH2 2366   0.362   2.159   0.371
  787TIP3    H1 2367   0.312   2.085   0.334
  787TIP3    H2 2368   0.353   2.147   0.466
  788TIP3   OH2 2369   2.285   1.893   0.373
  788TIP3    H1 2370   2.309   1.810   0.415
  788TIP3    H2 2371   2.288   1.874   0.279
  789TIP3   OH2 2372   1.914   1.730   3.219
  789TIP3    H1 2373   1.890   1.761   3.132
  789TIP3    H2 2374   1.909   1.808   3.275
  790TIP3   OH2 2375   0.890   4.140   4.425
  790TIP3    H1 2376   0.897   4.234   4.438
  790TIP3    H2 2377   0.927   4.125   4.338
  791TIP3   OH2 2378   3.794   5.551   4.467
  791TIP3    H1 2379   3.806   5.530   4.560
  791TIP3    H2 2380   3.862   5.617   4.449
  792TIP3   OH2 2381   5.773   2.726   2.296
  792TIP3    H1 2382   5.798   2.775   2.218
  792TIP3    H2 2383   5.814   2.774   2.368
  793TIP3   OH2 2384   3.730   5.924   3.482
  793TIP3    H1 2385   3.671   5.991   3.447
  793TIP3    H2 2386   3.676   5.846   3.490
  794TIP3   OH2 2387   1.815   0.820   2.400
  794TIP3    H1 2388   1.733   0.772   2.385
  794TIP3    H2 2389   1.869   0.760   2.451
  795TIP3   OH2 2390   3.308   5.465   3.730
  795TIP3    H1 2391   3.220   5.450   3.695
  795TIP3    H2 2392   3.323   5.559   3.719
  796TIP3   OH2 2393   5.694   2.853   4.086
  796TIP3    H1 2394   5.748   2.835   4.010
  796TIP3    H2 2395   5.755   2.853   4.160
  797TIP3   OH2 2396   2.075   5.213   2.767
  797TIP3    H1 2397   2.058   5.241   2.857
  797TIP3    H2 2398   1.991   5.181   2.736
  798TIP3   OH2 2399   4.290   5.118   4.953
  798TIP3    H1 2400   4.289   5.213   4.965
  798TIP3    H2 2401   4.307   5.083   5.041
  799TIP3   OH2 2402   3.057   4.311   3.115
  799TIP3    H1 2403   2.992   4.357   3.169
  799TIP3    H2 2404   3.062   4.223   3.151
  800TIP3   OH2 2405   2.333   1.489   4.856
  800TIP3    H1 2406   2.401   1.506   4.921
  800TIP3    H2 2407   2.259   1.542   4.885
  801TIP3   OH2 2408   3.834   5.521   3.403
  801TIP3    H1 2409   3.809   5.430   3.392
  801TIP3    H2 2410   3.912   5.519   3.459
  802TIP3   OH2 2411   5.350   2.935   0.293
  802TIP3    H1 2412   5.360   3.028   0.312
  802TIP3    H2 2413   5.352   2.892   0.378
  803TIP3   OH2 2414   1.902   4.001   3.291
  803TIP3    H1 2415   1.984   4.038   3.257
  803TIP3    H2 2416   1.903   3.910   3.261
  804TIP3   OH2 2417   5.391   5.128   0.254
  804TIP3    H1 2418   5.470   5.177   0.276
  804TIP3    H2 2419   5.396   5.049   0.308
  805TIP3   OH2 2420   2.643   0.842   0.272
  805TIP3    H1 2421   2.554   0.836   0.238
  805TIP3    H2 2422   2.688   0.765   0.236
  806TIP3   OH2 2423   4.548   3.764   1.607
  806TIP3    H1 2424   4.558   3.749   1.701
  806TIP3    H2 2425   4.475   3.825   1.600
  807TIP3   OH2 2426   0.026   2.015   3.006
  807TIP3    H1 2427   0.082   1.939   3.017
  807TIP3    H2 2428  -0.062   1.978   2.992
  808TIP3   OH2 2429   5.586   1.105   2.093
  808TIP3    H1 2430   5.619   1.096   2.003
  808TIP3    H2 2431   5.665   1.100   2.148
  809TIP3   OH2 2432   0.012   0.733   2.430
  809TIP3    H1 2433   0.081   0.760   2.369
  809TIP3    H2 2434   0.059   0.686   2.499
  810TIP3   OH2 2435   2.696   5.487   2.502
  810TIP3    H1 2436   2.604   5.477   2.482
  810TIP3    H2 2437   2.733   5.399   2.496
  811TIP3   OH2 2438   5.566   4.929   1.005
  811TIP3    H1 2439   5.527   4.954   0.921
  811TIP3    H2 2440   5.610   4.845   0.987
  812TIP3   OH2 2441   1.843   3.718   2.918
  812TIP3    H1 2442   1.862   3.648   2.981
  812TIP3    H2 2443   1.761   3.757   2.949
  813TIP3   OH2 2444   3.076   0.142   2.757
  813TIP3    H1 2445   3.126   0.062   2.768
  813TIP3    H2 2446   3.027   0.129   2.676
  814TIP3   OH2 2447   3.759   3.742   3.784
  814TIP3    H1 2448   3.854   3.750   3.798
  814TIP3    H2 2449   3.725   3.714   3.869
  815TIP3   OH2 2450   5.896   1.214   0.607
  815TIP3    H1 2451   5.967   1.275   0.590
  815TIP3    H2 2452   5.820   1.269   0.624
  816TIP3   OH2 2453   5.497   2.733   4.377
  816TIP3    H1 2454   5.545   2.687   4.308
  816TIP3    H2 2455   5.460   2.810   4.334
  817TIP3   OH2 2456   2.753   1.291   1.345
  817TIP3    H1 2457   2.703   1.233   1.403
  817TIP3    H2 2458   2.783   1.234   1.274
  818TIP3   OH2 2459   1.251   1.267   3.109
  818TIP3    H1 2460   1.266   1.356   3.140
  818TIP3    H2 2461   1.250   1.275   3.013
  819TIP3   OH2 2462   2.723   2.891   0.813
  819TIP3    H1 2463   2.654   2.956   0.820
  819TIP3    H2 2464   2.682   2.815   0.771
  820TIP3   OH2 2465   4.865   4.037   3.726
  820TIP3    H1 2466   4.907   4.041   3.812
  820TIP3    H2 2467   4.873   3.945   3.699
  821TIP3   OH2 2468   4.640   5.626   2.768
  821TIP3    H1 2469   4.632   5.594   2.858
  821TIP3    H2 2470   4.597   5.712   2.769
  822TIP3   OH2 2471   5.881   1.016   0.785
  822TIP3    H1 2472   5.975   1.023   0.803
  822TIP3    H2 2473   5.866   1.079   0.714
  823TIP3   OH2 2474   5.909   4.836   4.480
  823TIP3    H1 2475   5.905   4.746   4.512
  823TIP3    H2 2476   5.860   4.887   4.545
  824TIP3   OH2 2477   4.994   1.607   2.353
  824TIP3    H1 2478   4.996   1.699   2.380
  824TIP3    H2 2479   5.041   1.606   2.270
  825TIP3   OH2 2480   6.247   0.778   0.598
  825TIP3    H1 2481   6.303   0.795   0.522
  825TIP3    H2 2482   6.173   0.729   0.562
  826TIP3   OH2 2483   6.080   2.933   4.452
  826TIP3    H1 2484   6.118   3.008   4.498
  826TIP3    H2 2485   6.123   2.935   4.366
  827TIP3   OH2 2486   2.720   3.052   0.159
  827TIP3    H1 2487   2.800   3.058   0.210
  827TIP3    H2 2488   2.668   3.127   0.187
  828TIP3   OH2 2489   3.482   2.506   2.918
  828TIP3    H1 2490   3.464   2.523   2.826
  828TIP3    H2 2491   3.440   2.422   2.936
  829TIP3   OH2 2492   2.411   2.321   0.910
  829TIP3    H1 2493   2.435   2.284   0.825
  829TIP3    H2 2494   2.446   2.410   0.908
  830TIP3   OH2 2495   5.526   2.184   4.040
  830TIP3    H1 2496   5.555   2.186   4.131
  830TIP3    H2 2497   5.560   2.101   4.006
  831TIP3   OH2 2498   0.846   1.959   4.968
  831TIP3    H1 2499   0.931   2.002   4.961
  831TIP3    H2 2500   0.857   1.894   5.037
  832TIP3   OH2 2501   6.166   4.973   4.074
  832TIP3    H1 2502   6.237   5.036   4.090
  832TIP3    H2 2503   6.211   4.890   4.061
  833TIP3   OH2 2504   5.132   0.182   1.313
  833TIP3    H1 2505   5.054   0.128   1.324
  833TIP3    H2 2506   5.122   0.252   1.377
  834TIP3   OH2 2507   4.834   4.634   4.061
  834TIP3    H1 2508   4.863   4.723   4.083
  834TIP3    H2 2509   4.738   4.639   4.066
  835TIP3   OH2 2510  -0.007   1.690   4.078
  835TIP3    H1 2511   0.082   1.694   4.043
  835TIP3    H2 2512   0.004   1.700   4.173
  836TIP3   OH2 2513   0.757   2.642   2.451
  836TIP3    H1 2514   0.690   2.672   2.390
  836TIP3    H2 2515   0.840   2.669   2.410
  837TIP3   OH2 2516   6.182   1.538   0.642
  837TIP3    H1 2517   6.141   1.479   0.578
  837TIP3    H2 2518   6.269   1.554   0.607
  838TIP3   OH2 2519   0.811   0.599   3.366
  838TIP3    H1 2520   0.873   0.526   3.370
  838TIP3    H2 2521   0.784   0.603   3.274
  839TIP3   OH2 2522   4.281   1.329   3.408
  839TIP3    H1 2523   4.320   1.416   3.420
  839TIP3    H2 2524   4.356   1.271   3.395
  840TIP3   OH2 2525   5.014   0.396   3.293
  840TIP3    H1 2526   4.967   0.366   3.215
  840TIP3    H2 2527   5.078   0.327   3.310
  841TIP3   OH2 2528   5.514   1.231   0.153
  841TIP3    H1 2529   5.532   1.325   0.152
  841TIP3    H2 2530   5.429   1.222   0.110
  842TIP3   OH2 2531   5.198   0.417   0.728
  842TIP3    H1 2532   5.203   0.513   0.732
  842TIP3    H2 2533   5.118   0.399   0.678
  843TIP3   OH2 2534   4.196   0.327   4.242
  843TIP3    H1 2535   4.123   0.290   4.292
  843TIP3    H2 2536   4.262   0.348   4.308
  844TIP3   OH2 2537   2.285   0.857   0.478
  844TIP3    H1 2538   2.356   0.878   0.539
  844TIP3    H2 2539   2.318   0.880   0.392
  845TIP3   OH2 2540   0.834   3.678   3.481
  845TIP3    H1 2541   0.876   3.688   3.396
  845TIP3    H2 2542   0.905   3.654   3.541
  846TIP3   OH2 2543   2.477   4.557   0.440
  846TIP3    H1 2544   2.426   4.635   0.418
  846TIP3    H2 2545   2.427   4.515   0.510
  847TIP3   OH2 2546   4.238   2.711   2.818
  847TIP3    H1 2547   4.174   2.656   2.773
  847TIP3    H2 2548   4.228   2.690   2.911
  848TIP3   OH2 2549   1.314   3.713   1.517
  848TIP3    H1 2550   1.360   3.796   1.512
  848TIP3    H2 2551   1.382   3.648   1.534
  849TIP3   OH2 2552   5.575   2.835   3.220
  849TIP3    H1 2553   5.558   2.928   3.236
  849TIP3    H2 2554   5.492   2.792   3.237
  850TIP3   OH2 2555   1.744   3.590   2.698
  850TIP3    H1 2556   1.796   3.626   2.770
  850TIP3    H2 2557   1.807   3.576   2.627
  851TIP3   OH2 2558   0.539   4.289   5.117
  851TIP3    H1 2559   0.586   4.256   5.193
  851TIP3    H2 2560   0.452   4.250   5.124
  852TIP3   OH2 2561   2.057   6.017   0.748
  852TIP3    H1 2562   1.993   5.993   0.681
  852TIP3    H2 2563   2.106   5.936   0.765
  853TIP3   OH2 2564   2.987   1.769   2.000
  853TIP3    H1 2565   2.892   1.767   1.999
  853TIP3    H2 2566   3.013   1.678   1.985
  854TIP3   OH2 2567   0.655   2.883   0.552
  854TIP3    H1 2568   0.659   2.905   0.458
  854TIP3    H2 2569   0.663   2.967   0.596
  855TIP3   OH2 2570   4.282   1.308   0.760
  855TIP3    H1 2571   4.194   1.290   0.727
  855TIP3    H2 2572   4.339   1.258   0.701
  856TIP3   OH2 2573   4.310   0.237   2.704
  856TIP3    H1 2574   4.298   0.330   2.723
  856TIP3    H2 2575   4.392   0.214   2.748
  857TIP3   OH2 2576   6.250   5.012   2.159
  857TIP3    H1 2577   6.256   5.022   2.064
  857TIP3    H2 2578   6.314   4.944   2.180
  858TIP3   OH2 2579   4.362   3.400   0.735
  858TIP3    H1 2580   4.358   3.490   0.768
  858TIP3    H2 2581   4.452   3.372   0.750
  859TIP3   OH2 2582   0.794   0.407   1.789
  859TIP3    H1 2583   0.849   0.330   1.779
  859TIP3    H2 2584   0.830   0.453   1.865
  860TIP3   OH2 2585   0.754   2.193   4.070
  860TIP3    H1 2586   0.675   2.184   4.122
  860TIP3    H2 2587   0.744   2.129   3.999
  861TIP3   OH2 2588   0.954   3.529   2.102
  861TIP3    H1 2589   0.998   3.490   2.026
  861TIP3    H2 2590   1.026   3.549   2.163
  862TIP3   OH2 2591   4.571   3.705   1.887
  862TIP3    H1 2592   4.657   3.664   1.892
  862TIP3    H2 2593   4.522   3.665   1.959
  863TIP3   OH2 2594   2.181   3.271   5.141
  863TIP3    H1 2595   2.243   3.239   5.076
  863TIP3    H2 2596   2.173   3.365   5.123
  864TIP3   OH2 2597   3.096   0.399   4.881
  864TIP3    H1 2598   3.177   0.400   4.829
  864TIP3    H2 2599   3.096   0.482   4.928
  865TIP3   OH2 2600   1.137   1.852   4.030
  865TIP3    H1 2601   1.056   1.865   3.982
  865TIP3    H2 2602   1.206   1.880   3.969
  866TIP3   OH2 2603   4.719   2.892   2.765
  866TIP3    H1 2604   4.803   2.851   2.782
  866TIP3    H2 2605   4.731   2.984   2.790
  867TIP3   OH2 2606   4.677   4.292   2.547
  867TIP3    H1 2607   4.692   4.240   2.468
  867TIP3    H2 2608   4.754   4.274   2.601
  868TIP3   OH2 2609   2.620   4.314   3.928
  868TIP3    H1 2610   2.570   4.254   3.872
  868TIP3    H2 2611   2.565   4.393   3.932
  869TIP3   OH2 2612   5.069   1.544   4.313
  869TIP3    H1 2613   5.011   1.601   4.364
  869TIP3    H2 2614   5.142   1.600   4.288
  870TIP3   OH2 2615   5.252   2.937   1.191
  870TIP3    H1 2616   5.232   2.999   1.121
  870TIP3    H2 2617   5.211   2.975   1.269
  871TIP3   OH2 2618   0.633   0.674   0.939
  871TIP3    H1 2619   0.544   0.683   0.905
  871TIP3    H2 2620   0.636   0.733   1.014
  872TIP3   OH2 2621   2.201   4.043   1.773
  872TIP3    H1 2622   2.249   3.963   1.793
  872TIP3    H2 2623   2.117   4.013   1.739
  873TIP3   OH2 2624   0.350   3.460   4.338
  873TIP3    H1 2625   0.339   3.545   4.381
  873TIP3    H2 2626   0.354   3.480   4.245
  874TIP3   OH2 2627   6.199   0.158   2.450
  874TIP3    H1 2628   6.136   0.095   2.416
  874TIP3    H2 2629   6.233   0.202   2.372
  875TIP3   OH2 2630   3.696   0.748   1.605
  875TIP3    H1 2631   3.722   0.838   1.587
  875TIP3    H2 2632   3.602   0.746   1.587
  876TIP3   OH2 2633   5.713   0.771   4.378
  876TIP3    H1 2634   5.776   0.701   4.363
  876TIP3    H2 2635   5.690   0.763   4.471
  877TIP3   OH2 2636   4.402   2.370   0.713
  877TIP3    H1 2637   4.395   2.369   0.808
  877TIP3    H2 2638   4.440   2.284   0.691
  878TIP3   OH2 2639   2.298   0.203   2.720
  878TIP3    H1 2640   2.218   0.254   2.734
  878TIP3    H2 2641   2.352   0.258   2.664
  879TIP3   OH2 2642   0.100   3.766   2.377
  879TIP3    H1 2643   0.017   3.768   2.328
  879TIP3    H2 2644   0.073   3.770   2.468
  880TIP3   OH2 2645   6.024   5.815   4.430
  880TIP3    H1 2646   6.084   5.752   4.471
  880TIP3    H2 2647   5.945   5.812   4.484
  881TIP3   OH2 2648   0.725   5.078   4.973
  881TIP3    H1 2649   0.686   5.159   4.940
  881TIP3    H2 2650   0.816   5.083   4.944
  882TIP3   OH2 2651   3.404   0.939   2.779
  882TIP3    H1 2652   3.476   0.876   2.778
  882TIP3    H2 2653   3.353   0.915   2.856
  883TIP3   OH2 2654   2.256   2.401   4.395
  883TIP3    H1 2655   2.230   2.309   4.388
  883TIP3    H2 2656   2.259   2.418   4.489
  884TIP3   OH2 2657   4.373   2.995   3.753
  884TIP3    H1 2658   4.316   3.068   3.779
  884TIP3    H2 2659   4.438   2.989   3.822
  885TIP3   OH2 2660   1.666   1.786   4.871
  885TIP3    H1 2661   1.584   1.798   4.919
  885TIP3    H2 2662   1.639   1.775   4.780
  886TIP3   OH2 2663   3.876   3.408   4.968
  886TIP3    H1 2664   3.812   3.453   5.024
  886TIP3    H2 2665   3.850   3.316   4.972
  887TIP3   OH2 2666   2.442   2.634   1.756
  887TIP3    H1 2667   2.403   2.578   1.823
  887TIP3    H2 2668   2.487   2.573   1.697
  888TIP3   OH2 2669   5.468   3.491   2.885
  888TIP3    H1 2670   5.448   3.508   2.793
  888TIP3    H2 2671   5.383   3.475   2.925
  889TIP3   OH2 2672   1.478   4.321   4.929
  889TIP3    H1 2673   1.571   4.324   4.907
  889TIP3    H2 2674   1.434   4.305   4.845
  890TIP3   OH2 2675   3.839   4.651   0.103
  890TIP3    H1 2676   3.856   4.707   0.027
  890TIP3    H2 2677   3.807   4.710   0.171
  891TIP3   OH2 2678   2.809   3.756   3.369
  891TIP3    H1 2679   2.743   3.704   3.323
  891TIP3    H2 2680   2.892   3.716   3.343
  892TIP3   OH2 2681   0.139   1.427   4.623
  892TIP3    H1 2682   0.181   1.512   4.639
  892TIP3    H2 2683   0.166   1.373   4.697
  893TIP3   OH2 2684   5.238   3.679   2.220
  893TIP3    H1 2685   5.185   3.644   2.292
  893TIP3    H2 2686   5.193   3.761   2.196
  894TIP3   OH2 2687   2.072   5.743   2.823
  894TIP3    H1 2688   1.997   5.688   2.846
  894TIP3    H2 2689   2.091   5.792   2.903
  895TIP3   OH2 2690   5.229   4.786   2.125
  895TIP3    H1 2691   5.198   4.704   2.163
  895TIP3    H2 2692   5.163   4.807   2.058
  896TIP3   OH2 2693   3.334   0.524   4.751
  896TIP3    H1 2694   3.387   0.458   4.708
  896TIP3    H2 2695   3.387   0.603   4.749
  897TIP3   OH2 2696   0.289   5.601   3.962
  897TIP3    H1 2697   0.286   5.694   3.939
  897TIP3    H2 2698   0.234   5.558   3.896
  898TIP3   OH2 2699   3.851   3.859   3.092
  898TIP3    H1 2700   3.785   3.859   3.162
  898TIP3    H2 2701   3.854   3.950   3.062
  899TIP3   OH2 2702   3.244   0.736   2.148
  899TIP3    H1 2703   3.155   0.711   2.124
  899TIP3    H2 2704   3.237   0.828   2.176
  900TIP3   OH2 2705   3.243   5.204   1.569
  900TIP3    H1 2706   3.307   5.268   1.537
  900TIP3    H2 2707   3.289   5.121   1.568
  901TIP3   OH2 2708   2.160   0.458   3.365
  901TIP3    H1 2709   2.223   0.519   3.405
  901TIP3    H2 2710   2.152   0.488   3.275
  902TIP3   OH2 2711   2.927   1.188   2.239
  902TIP3    H1 2712   2.839   1.217   2.215
  902TIP3    H2 2713   2.941   1.222   2.327
  903TIP3   OH2 2714   4.207   3.796   0.724
  903TIP3    H1 2715   4.230   3.815   0.633
  903TIP3    H2 2716   4.121   3.836   0.736
  904TIP3   OH2 2717   2.635   1.160   0.878
  904TIP3    H1 2718   2.661   1.252   0.874
  904TIP3    H2 2719   2.655   1.134   0.968
  905TIP3   OH2 2720   0.807   2.307   4.378
  905TIP3    H1 2721   0.785   2.221   4.342
  905TIP3    H2 2722   0.893   2.327   4.341
  906TIP3   OH2 2723   2.250   3.809   2.645
  906TIP3    H1 2724   2.344   3.799   2.635
  906TIP3    H2 2725   2.232   3.780   2.734
  907TIP3   OH2 2726   4.127   0.768   3.003
  907TIP3    H1 2727   4.191   0.787   3.071
  907TIP3    H2 2728   4.048   0.744   3.050
  908TIP3   OH2 2729   3.740   5.672   5.120
  908TIP3    H1 2730   3.721   5.583   5.090
  908TIP3    H2 2731   3.738   5.667   5.215
  909TIP3   OH2 2732   3.145   2.751   2.268
  909TIP3    H1 2733   3.224   2.706   2.236
  909TIP3    H2 2734   3.080   2.681   2.277
  910TIP3   OH2 2735   4.010   0.247   3.001
  910TIP3    H1 2736   3.964   0.177   2.956
  910TIP3    H2 2737   4.082   0.204   3.046
  911TIP3   OH2 2738   2.613   2.623   3.319
  911TIP3    H1 2739   2.608   2.640   3.225
  911TIP3    H2 2740   2.706   2.612   3.337
  912TIP3   OH2 2741   0.487   4.384   2.304
  912TIP3    H1 2742   0.492   4.330   2.382
  912TIP3    H2 2743   0.507   4.325   2.232
  913TIP3   OH2 2744   3.998   0.035   4.799
  913TIP3    H1 2745   3.951   0.007   4.877
  913TIP3    H2 2746   4.060  -0.036   4.781
  914TIP3   OH2 2747   1.799   2.643   4.985
  914TIP3    H1 2748   1.711   2.657   5.019
  914TIP3    H2 2749   1.826   2.729   4.953
  915TIP3   OH2 2750   4.166   0.504   3.199
  915TIP3    H1 2751   4.232   0.569   3.224
  915TIP3    H2 2752   4.210   0.451   3.132
  916TIP3   OH2 2753   4.787   0.272   0.804
  916TIP3    H1 2754   4.711   0.328   0.786
  916TIP3    H2 2755   4.847   0.329   0.852
  917TIP3   OH2 2756   3.559   3.269   2.892
  917TIP3    H1 2757   3.604   3.190   2.862
  917TIP3    H2 2758   3.468   3.242   2.902
  918TIP3   OH2 2759   5.795   0.094   4.837
  918TIP3    H1 2760   5.774   0.011   4.794
  918TIP3    H2 2761   5.802   0.072   4.930
  919TIP3   OH2 2762   5.577   5.398   3.395
  919TIP3    H1 2763   5.671   5.414   3.382
  919TIP3    H2 2764   5.558   5.434   3.481
  920TIP3   OH2 2765   4.739   4.469   4.239
  920TIP3    H1 2766   4.796   4.475   4.317
  920TIP3    H2 2767   4.777   4.530   4.177
  921TIP3   OH2 2768   5.093   5.879   3.891
  921TIP3    H1 2769   5.058   5.792   3.875
  921TIP3    H2 2770   5.127   5.876   3.980
  922TIP3   OH2 2771   4.402   0.430   4.430
  922TIP3    H1 2772   4.352   0.511   4.433
  922TIP3    H2 2773   4.493   0.459   4.423
  923TIP3   OH2 2774   4.260   5.324   3.661
  923TIP3    H1 2775   4.271   5.338   3.755
  923TIP3    H2 2776   4.316   5.391   3.621
  924TIP3   OH2 2777   3.655   4.294   1.089
  924TIP3    H1 2778   3.576   4.251   1.122
  924TIP3    H2 2779   3.726   4.261   1.144
  925TIP3   OH2 2780   1.763   3.214   3.920
  925TIP3    H1 2781   1.744   3.284   3.858
  925TIP3    H2 2782   1.742   3.250   4.006
  926TIP3   OH2 2783   4.566   5.544   4.785
  926TIP3    H1 2784   4.625   5.611   4.751
  926TIP3    H2 2785   4.524   5.586   4.861
  927TIP3   OH2 2786   3.937   2.007   2.612
  927TIP3    H1 2787   3.942   2.082   2.672
  927TIP3    H2 2788   3.850   1.970   2.628
  928TIP3   OH2 2789   0.186   3.921   3.201
  928TIP3    H1 2790   0.262   3.941   3.255
  928TIP3    H2 2791   0.164   3.830   3.223
  929TIP3   OH2 2792   2.423   1.130   0.718
  929TIP3    H1 2793   2.454   1.057   0.664
  929TIP3    H2 2794   2.495   1.148   0.778
  930TIP3   OH2 2795   5.842   1.790   3.854
  930TIP3    H1 2796   5.914   1.753   3.803
  930TIP3    H2 2797   5.838   1.735   3.933
  931TIP3   OH2 2798   2.851   2.145   3.322
  931TIP3    H1 2799   2.841   2.235   3.355
  931TIP3    H2 2800   2.930   2.148   3.269
  932TIP3   OH2 2801   1.558   4.460   4.129
  932TIP3    H1 2802   1.525   4.499   4.209
  932TIP3    H2 2803   1.495   4.390   4.109
  933TIP3   OH2 2804   1.527   2.679   5.057
  933TIP3    H1 2805   1.492   2.724   4.980
  933TIP3    H2 2806   1.514   2.741   5.129
  934TIP3   OH2 2807   2.554   1.258   3.163
  934TIP3    H1 2808   2.467   1.293   3.181
  934TIP3    H2 2809   2.612   1.308   3.220
  935TIP3   OH2 2810   2.511   1.887   4.465
  935TIP3    H1 2811   2.463   1.961   4.503
  935TIP3    H2 2812   2.487   1.812   4.521
  936TIP3   OH2 2813   3.203   4.790   2.142
  936TIP3    H1 2814   3.253   4.850   2.087
  936TIP3    H2 2815   3.184   4.715   2.085
  937TIP3   OH2 2816   1.721   0.406   0.979
  937TIP3    H1 2817   1.798   0.408   1.036
  937TIP3    H2 2818   1.647   0.398   1.039
  938TIP3   OH2 2819   3.362   4.172   1.065
  938TIP3    H1 2820   3.389   4.089   1.105
  938TIP3    H2 2821   3.286   4.200   1.117
  939TIP3   OH2 2822   1.421   1.347   2.401
  939TIP3    H1 2823   1.374   1.322   2.322
  939TIP3    H2 2824   1.511   1.317   2.385
  940TIP3   OH2 2825   5.994   2.535   2.152
  940TIP3    H1 2826   5.938   2.517   2.076
  940TIP3    H2 2827   6.004   2.630   2.153
  941TIP3   OH2 2828   3.800   4.991   0.730
  941TIP3    H1 2829   3.837   4.943   0.804
  941TIP3    H2 2830   3.795   4.926   0.660
  942TIP3   OH2 2831   4.699   1.909   3.021
  942TIP3    H1 2832   4.709   1.858   3.102
  942TIP3    H2 2833   4.604   1.914   3.008
  943TIP3   OH2 2834   5.114   2.425   3.097
  943TIP3    H1 2835   5.066   2.343   3.088
  943TIP3    H2 2836   5.045   2.492   3.105
  944TIP3   OH2 2837   2.866   2.913  -0.006
  944TIP3    H1 2838   2.931   2.879   0.055
  944TIP3    H2 2839   2.795   2.947   0.050
  945TIP3   OH2 2840   6.035   3.439   4.938
  945TIP3    H1 2841   5.955   3.435   4.885
  945TIP3    H2 2842   6.103   3.469   4.878
  946TIP3   OH2 2843   2.365   5.352   1.858
  946TIP3    H1 2844   2.329   5.412   1.792
  946TIP3    H2 2845   2.433   5.304   1.812
  947TIP3   OH2 2846   4.999   0.627   3.398
  947TIP3    H1 2847   5.049   0.665   3.326
  947TIP3    H2 2848   5.001   0.533   3.382
  948TIP3   OH2 2849   5.993   0.705   3.742
  948TIP3    H1 2850   6.025   0.776   3.798
  948TIP3    H2 2851   5.939   0.749   3.676
  949TIP3   OH2 2852   4.010   3.917   0.289
  949TIP3    H1 2853   3.992   3.876   0.205
  949TIP3    H2 2854   3.928   3.959   0.314
  950TIP3   OH2 2855   1.078   4.518   2.683
  950TIP3    H1 2856   1.138   4.572   2.735
  950TIP3    H2 2857   1.001   4.507   2.739
  951TIP3   OH2 2858   4.679   4.143   1.785
  951TIP3    H1 2859   4.720   4.064   1.749
  951TIP3    H2 2860   4.606   4.161   1.725
  952TIP3   OH2 2861   4.518   4.237   5.148
  952TIP3    H1 2862   4.604   4.201   5.125
  952TIP3    H2 2863   4.475   4.251   5.064
  953TIP3   OH2 2864   4.868   3.641   2.189
  953TIP3    H1 2865   4.884   3.735   2.194
  953TIP3    H2 2866   4.935   3.603   2.246
  954TIP3   OH2 2867   1.219   2.902   1.492
  954TIP3    H1 2868   1.265   2.842   1.433
  954TIP3    H2 2869   1.218   2.986   1.446
  955TIP3   OH2 2870   5.908   1.660   0.952
  955TIP3    H1 2871   5.972   1.714   0.998
  955TIP3    H2 2872   5.866   1.609   1.021
  956TIP3   OH2 2873   0.119   1.146   0.234
  956TIP3    H1 2874   0.090   1.232   0.262
  956TIP3    H2 2875   0.038   1.095   0.226
  957TIP3   OH2 2876   0.719   5.869   4.862
  957TIP3    H1 2877   0.650   5.933   4.851
  957TIP3    H2 2878   0.739   5.838   4.773
  958TIP3   OH2 2879   0.058   0.257   5.128
  958TIP3    H1 2880   0.017   0.336   5.093
  958TIP3    H2 2881   0.083   0.207   5.050
  959TIP3   OH2 2882   1.011   5.757   1.530
  959TIP3    H1 2883   1.063   5.696   1.479
  959TIP3    H2 2884   0.921   5.738   1.506
  960TIP3   OH2 2885   5.530   5.784   3.328
  960TIP3    H1 2886   5.540   5.824   3.414
  960TIP3    H2 2887   5.600   5.823   3.276
  961TIP3   OH2 2888   5.934   0.623   0.504
  961TIP3    H1 2889   5.935   0.567   0.426
  961TIP3    H2 2890   5.843   0.620   0.534
  962TIP3   OH2 2891   1.414   1.826   1.284
  962TIP3    H1 2892   1.492   1.832   1.228
  962TIP3    H2 2893   1.386   1.917   1.295
  963TIP3   OH2 2894   4.361   0.295   5.097
  963TIP3    H1 2895   4.375   0.200   5.092
  963TIP3    H2 2896   4.397   0.320   5.182
  964TIP3   OH2 2897   6.194   4.947   1.502
  964TIP3    H1 2898   6.230   5.031   1.472
  964TIP3    H2 2899   6.199   4.891   1.424
  965TIP3   OH2 2900   1.852   1.143   3.073
  965TIP3    H1 2901   1.830   1.235   3.089
  965TIP3    H2 2902   1.930   1.128   3.126
  966TIP3   OH2 2903   1.902   0.161   2.218
  966TIP3    H1 2904   1.837   0.127   2.280
  966TIP3    H2 2905   1.860   0.237   2.179
  967TIP3   OH2 2906   0.623   0.669   1.337
  967TIP3    H1 2907   0.607   0.739   1.274
  967TIP3    H2 2908   0.576   0.594   1.301
  968TIP3   OH2 2909   4.504   1.792   3.769
  968TIP3    H1 2910   4.497   1.733   3.694
  968TIP3    H2 2911   4.448   1.866   3.747
  969TIP3   OH2 2912   1.239   4.964   1.081
  969TIP3    H1 2913   1.170   4.927   1.027
  969TIP3    H2 2914   1.309   4.898   1.080
  970TIP3   OH2 2915   0.385   4.109   3.972
  970TIP3    H1 2916   0.475   4.136   3.954
  970TIP3    H2 2917   0.332   4.168   3.919
  971TIP3   OH2 2918   5.909   5.082   3.924
  971TIP3    H1 2919   5.854   5.009   3.896
  971TIP3    H2 2920   5.984   5.041   3.966
  972TIP3   OH2 2921   0.396   3.674   1.608
  972TIP3    H1 2922   0.400   3.732   1.532
  972TIP3    H2 2923   0.363   3.591   1.574
  973TIP3   OH2 2924   0.819   3.763   2.862
  973TIP3    H1 2925   0.884   3.727   2.922
  973TIP3    H2 2926   0.849   3.853   2.845
  974TIP3   OH2 2927   1.005   4.098   5.131
  974TIP3    H1 2928   1.026   4.192   5.139
  974TIP3    H2 2929   0.922   4.096   5.084
  975TIP3   OH2 2930   5.314   4.693   3.841
  975TIP3    H1 2931   5.377   4.632   3.879
  975TIP3    H2 2932   5.229   4.664   3.876
  976TIP3   OH2 2933   1.989   2.171   3.008
  976TIP3    H1 2934   1.941   2.152   2.927
  976TIP3    H2 2935   2.078   2.142   2.991
  977TIP3   OH2 2936   4.822   4.995   1.980
  977TIP3    H1 2937   4.761   5.042   2.037
  977TIP3    H2 2938   4.767   4.948   1.918
  978TIP3   OH2 2939   6.023   0.047   1.232
  978TIP3    H1 2940   6.064   0.121   1.188
  978TIP3    H2 2941   6.074  -0.029   1.204
  979TIP3   OH2 2942   0.804   3.251   4.506
  979TIP3    H1 2943   0.725   3.302   4.492
  979TIP3    H2 2944   0.775   3.171   4.548
  980TIP3   OH2 2945   1.155   2.323   2.274
  980TIP3    H1 2946   1.111   2.241   2.297
  980TIP3    H2 2947   1.151   2.375   2.354
  981TIP3   OH2 2948   1.962   2.292   1.051
  981TIP3    H1 2949   1.895   2.279   0.983
  981TIP3    H2 2950   2.043   2.262   1.010
  982TIP3   OH2 2951   2.105   4.647   0.936
  982TIP3    H1 2952   2.063   4.572   0.894
  982TIP3    H2 2953   2.154   4.690   0.865
  983TIP3   OH2 2954   4.741   4.029   2.062
  983TIP3    H1 2955   4.790   3.948   2.045
  983TIP3    H2 2956   4.716   4.061   1.975
  984TIP3   OH2 2957   0.072   2.442   3.890
  984TIP3    H1 2958   0.014   2.389   3.945
  984TIP3    H2 2959   0.079   2.393   3.808
  985TIP3   OH2 2960   2.368   5.408   4.358
  985TIP3    H1 2961   2.451   5.361   4.352
  985TIP3    H2 2962   2.389   5.498   4.333
  986TIP3   OH2 2963   0.199   2.611   0.453
  986TIP3    H1 2964   0.245   2.671   0.394
  986TIP3    H2 2965   0.131   2.572   0.399
  987TIP3   OH2 2966   5.305   4.256   4.250
  987TIP3    H1 2967   5.243   4.192   4.285
  987TIP3    H2 2968   5.391   4.220   4.270
  988TIP3   OH2 2969   2.261   3.468   1.488
  988TIP3    H1 2970   2.275   3.561   1.503
  988TIP3    H2 2971   2.346   3.428   1.504
  989TIP3   OH2 2972   3.804   1.469   4.706
  989TIP3    H1 2973   3.842   1.518   4.633
  989TIP3    H2 2974   3.722   1.434   4.672
  990TIP3   OH2 2975   4.309   2.309   1.616
  990TIP3    H1 2976   4.357   2.372   1.563
  990TIP3    H2 2977   4.281   2.358   1.693
  991TIP3   OH2 2978   0.792   0.075   2.381
  991TIP3    H1 2979   0.713   0.097   2.430
  991TIP3    H2 2980   0.761   0.023   2.307
  992TIP3   OH2 2981   3.806   1.081   2.016
  992TIP3    H1 2982   3.822   1.046   2.103
  992TIP3    H2 2983   3.869   1.034   1.960
  993TIP3   OH2 2984   1.581   0.165   1.929
  993TIP3    H1 2985   1.525   0.126   1.862
  993TIP3    H2 2986   1.647   0.097   1.947
  994TIP3   OH2 2987   1.224   3.056   0.128
  994TIP3    H1 2988   1.206   2.970   0.091
  994TIP3    H2 2989   1.296   3.041   0.190
  995TIP3   OH2 2990   1.901   0.512   2.319
  995TIP3    H1 2991   1.969   0.506   2.385
  995TIP3    H2 2992   1.820   0.526   2.368
  996TIP3   OH2 2993   6.234   0.757   4.881
  996TIP3    H1 2994   6.205   0.838   4.840
  996TIP3    H2 2995   6.215   0.768   4.974
  997TIP3   OH2 2996   4.756   5.814   0.708
  997TIP3    H1 2997   4.732   5.745   0.646
  997TIP3    H2 2998   4.852   5.817   0.704
  998TIP3   OH2 2999   4.373   3.106   0.140
  998TIP3    H1 3000   4.376   3.163   0.064
  998TIP3    H2 3001   4.463   3.102   0.171
  999TIP3   OH2 3002   6.082   1.042   0.031
  999TIP3    H1 3003   6.022   1.055   0.104
  999TIP3    H2 3004   6.025   1.020  -0.043
 1000TIP3   OH2 3005   4.846   1.977   3.478
 1000TIP3    H1 3006   4.929   1.999   3.435
 1000TIP3    H2 3007   4.831   2.050   3.540
 1001TIP3   OH2 3008   3.783   4.831   1.753
 1001TIP3    H1 3009   3.722   4.764   1.721
 1001TIP3    H2 3010   3.805   4.882   1.676
 1002TIP3   OH2 3011   3.106   5.278   4.684
 1002TIP3    H1 3012   3.194   5.273   4.646
 1002TIP3    H2 3013   3.116   5.339   4.758
 1003TIP3   OH2 3014   0.453   4.178   2.823
 1003TIP3    H1 3015   0.540   4.153   2.855
 1003TIP3    H2 3016   0.395   4.165   2.898
 1004TIP3   OH2 3017   0.867   4.878   1.503
 1004TIP3    H1 3018   0.855   4.907   1.413
 1004TIP3    H2 3019   0.792   4.821   1.520
 1005TIP3   OH2 3020   2.801   4.120   2.512
 1005TIP3    H1 3021   2.728   4.082   2.561
 1005TIP3    H2 3022   2.871   4.130   2.577
 1006TIP3   OH2 3023   1.264   0.370   2.434
 1006TIP3    H1 3024   1.291   0.296   2.380
 1006TIP3    H2 3025   1.170   0.356   2.449
 1007TIP3   OH2 3026   2.464   2.200   3.070
 1007TIP3    H1 3027   2.496   2.157   2.991
 1007TIP3    H2 3028   2.397   2.261   3.038
 1008TIP3   OH2 3029   2.860   3.968   2.259
 1008TIP3    H1 3030   2.773   3.936   2.235
 1008TIP3    H2 3031   2.915   3.889   2.262
 1009TIP3   OH2 3032   1.508   1.463   3.155
 1009TIP3    H1 3033   1.495   1.497   3.066
 1009TIP3    H2 3034   1.421   1.461   3.193
 1010TIP3   OH2 3035   4.218   3.020   1.016
 1010TIP3    H1 3036   4.143   2.976   1.057
 1010TIP3    H2 3037   4.206   3.113   1.038
 1011TIP3   OH2 3038   0.058   2.853   2.313
 1011TIP3    H1 3039   0.107   2.832   2.393
 1011TIP3    H2 3040  -0.013   2.788   2.312
 1012TIP3   OH2 3041   3.024   0.596   4.253
 1012TIP3    H1 3042   3.092   0.555   4.201
 1012TIP3    H2 3043   3.064   0.676   4.287
 1013TIP3   OH2 3044   3.579   2.277   3.737
 1013TIP3    H1 3045   3.578   2.183   3.721
 1013TIP3    H2 3046   3.587   2.316   3.650
 1014TIP3   OH2 3047   4.350   2.714   3.329
 1014TIP3    H1 3048   4.344   2.727   3.423
 1014TIP3    H2 3049   4.283   2.647   3.310
 1015TIP3   OH2 3050   0.587   0.670   4.083
 1015TIP3    H1 3051   0.566   0.581   4.110
 1015TIP3    H2 3052   0.502   0.711   4.066
 1016TIP3   OH2 3053   1.595   2.781   4.353
 1016TIP3    H1 3054   1.638   2.729   4.420
 1016TIP3    H2 3055   1.504   2.787   4.382
 1017TIP3   OH2 3056   5.807   1.373   3.073
 1017TIP3    H1 3057   5.769   1.286   3.070
 1017TIP3    H2 3058   5.897   1.359   3.103
 1018TIP3   OH2 3059   4.009   5.542   2.809
 1018TIP3    H1 3060   3.954   5.551   2.731
 1018TIP3    H2 3061   3.985   5.457   2.845
 1019TIP3   OH2 3062   4.355   5.397   1.292
 1019TIP3    H1 3063   4.373   5.486   1.324
 1019TIP3    H2 3064   4.442   5.356   1.283
 1020TIP3   OH2 3065   1.637   5.489   3.721
 1020TIP3    H1 3066   1.554   5.507   3.675
 1020TIP3    H2 3067   1.624   5.403   3.761
 1021TIP3   OH2 3068   6.103   2.532   0.100
 1021TIP3    H1 3069   6.021   2.518   0.053
 1021TIP3    H2 3070   6.139   2.444   0.112
 1022TIP3   OH2 3071   4.334   4.432   4.338
 1022TIP3    H1 3072   4.331   4.378   4.417
 1022TIP3    H2 3073   4.242   4.448   4.316
 1023TIP3   OH2 3074   2.875   1.540   2.176
 1023TIP3    H1 3075   2.788   1.575   2.194
 1023TIP3    H2 3076   2.860   1.449   2.150
 1024TIP3   OH2 3077   2.768   2.753   5.185
 1024TIP3    H1 3078   2.785   2.658   5.178
 1024TIP3    H2 3079   2.698   2.769   5.122
 1025TIP3   OH2 3080   0.471   4.114   3.693
 1025TIP3    H1 3081   0.532   4.056   3.737
 1025TIP3    H2 3082   0.523   4.191   3.671
 1026TIP3   OH2 3083   1.681   0.241   0.309
 1026TIP3    H1 3084   1.632   0.322   0.322
 1026TIP3    H2 3085   1.652   0.184   0.381
 1027TIP3   OH2 3086   5.796   1.156   3.353
 1027TIP3    H1 3087   5.716   1.159   3.302
 1027TIP3    H2 3088   5.768   1.175   3.443
 1028TIP3   OH2 3089   2.602   2.646   4.917
 1028TIP3    H1 3090   2.552   2.712   4.965
 1028TIP3    H2 3091   2.617   2.685   4.831
 1029TIP3   OH2 3092   2.213   5.108   3.678
 1029TIP3    H1 3093   2.236   5.174   3.612
 1029TIP3    H2 3094   2.123   5.130   3.703
 1030TIP3   OH2 3095   3.726   2.143   4.503
 1030TIP3    H1 3096   3.812   2.103   4.489
 1030TIP3    H2 3097   3.727   2.169   4.595
 1031TIP3   OH2 3098   5.010   1.550   0.365
 1031TIP3    H1 3099   5.044   1.545   0.454
 1031TIP3    H2 3100   4.940   1.484   0.363
 1032TIP3   OH2 3101   6.113   3.088   4.974
 1032TIP3    H1 3102   6.078   3.028   4.908
 1032TIP3    H2 3103   6.035   3.127   5.014
 1033TIP3   OH2 3104   0.812   1.153   4.546
 1033TIP3    H1 3105   0.828   1.085   4.482
 1033TIP3    H2 3106   0.816   1.235   4.496
 1034TIP3   OH2 3107   3.593   2.030   4.217
 1034TIP3    H1 3108   3.525   1.969   4.245
 1034TIP3    H2 3109   3.619   2.075   4.298
 1035TIP3   OH2 3110   2.121   4.442   1.255
 1035TIP3    H1 3111   2.125   4.515   1.317
 1035TIP3    H2 3112   2.213   4.420   1.238
 1036TIP3   OH2 3113   1.542   5.166   1.917
 1036TIP3    H1 3114   1.582   5.220   1.985
 1036TIP3    H2 3115   1.469   5.218   1.884
 1037TIP3   OH2 3116   4.173   1.578   3.719
 1037TIP3    H1 3117   4.214   1.625   3.647
 1037TIP3    H2 3118   4.108   1.522   3.677
 1038TIP3   OH2 3119   0.921   4.730   2.202
 1038TIP3    H1 3120   0.898   4.660   2.141
 1038TIP3    H2 3121   1.010   4.708   2.231
 1039TIP3   OH2 3122   6.180   5.647   0.038
 1039TIP3    H1 3123   6.087   5.624   0.039
 1039TIP3    H2 3124   6.187   5.716  -0.027
 1040TIP3   OH2 3125   3.916   5.770   2.079
 1040TIP3    H1 3126   3.918   5.722   1.996
 1040TIP3    H2 3127   3.962   5.851   2.060
 1041TIP3   OH2 3128   5.315   4.548   4.627
 1041TIP3    H1 3129   5.360   4.607   4.566
 1041TIP3    H2 3130   5.361   4.560   4.710
 1042TIP3   OH2 3131   4.914   1.951   0.859
 1042TIP3    H1 3132   4.914   1.872   0.806
 1042TIP3    H2 3133   4.903   1.919   0.949
 1043TIP3   OH2 3134   1.204   3.677   1.764
 1043TIP3    H1 3135   1.231   3.716   1.681
 1043TIP3    H2 3136   1.115   3.645   1.748
 1044TIP3   OH2 3137   5.589   5.583   3.111
 1044TIP3    H1 3138   5.628   5.507   3.155
 1044TIP3    H2 3139   5.563   5.641   3.182
 1045TIP3   OH2 3140   2.227   3.917   0.966
 1045TIP3    H1 3141   2.244   4.011   0.957
 1045TIP3    H2 3142   2.310   3.875   0.941
 1046TIP3   OH2 3143   5.593   4.231   2.183
 1046TIP3    H1 3144   5.522   4.195   2.129
 1046TIP3    H2 3145   5.551   4.300   2.236
 1047TIP3   OH2 3146   4.655   0.328   2.609
 1047TIP3    H1 3147   4.580   0.325   2.550
 1047TIP3    H2 3148   4.682   0.236   2.618
 1048TIP3   OH2 3149   5.670   5.899   2.393
 1048TIP3    H1 3150   5.639   5.977   2.347
 1048TIP3    H2 3151   5.593   5.842   2.399
 1049TIP3   OH2 3152   2.359   0.060   3.386
 1049TIP3    H1 3153   2.296   0.081   3.317
 1049TIP3    H2 3154   2.414   0.138   3.393
 1050TIP3   OH2 3155   5.160   3.627   0.628
 1050TIP3    H1 3156   5.130   3.680   0.554
 1050TIP3    H2 3157   5.253   3.611   0.609
 1051TIP3   OH2 3158   4.842   1.651   2.644
 1051TIP3    H1 3159   4.782   1.602   2.588
 1051TIP3    H2 3160   4.857   1.733   2.596
 1052TIP3   OH2 3161   0.781   2.348   2.474
 1052TIP3    H1 3162   0.765   2.441   2.459
 1052TIP3    H2 3163   0.705   2.304   2.435
 1053TIP3   OH2 3164   4.408   3.684   4.591
 1053TIP3    H1 3165   4.451   3.599   4.578
 1053TIP3    H2 3166   4.320   3.661   4.621
 1054TIP3   OH2 3167   2.154   1.579   3.650
 1054TIP3    H1 3168   2.116   1.664   3.628
 1054TIP3    H2 3169   2.080   1.518   3.644
 1055TIP3   OH2 3170   5.836   1.192   1.269
 1055TIP3    H1 3171   5.854   1.120   1.209
 1055TIP3    H2 3172   5.921   1.233   1.284
 1056TIP3   OH2 3173   5.152   5.440   2.162
 1056TIP3    H1 3174   5.085   5.413   2.099
 1056TIP3    H2 3175   5.119   5.410   2.246
 1057TIP3   OH2 3176   3.841   5.035   4.839
 1057TIP3    H1 3177   3.926   5.001   4.867
 1057TIP3    H2 3178   3.787   5.033   4.918
 1058TIP3   OH2 3179   2.607   5.201   1.482
 1058TIP3    H1 3180   2.681   5.255   1.452
 1058TIP3    H2 3181   2.587   5.144   1.407
 1059TIP3   OH2 3182   3.697   1.836   2.484
 1059TIP3    H1 3183   3.638   1.850   2.410
 1059TIP3    H2 3184   3.729   1.747   2.473
 1060TIP3   OH2 3185   6.077   2.795   0.523
 1060TIP3    H1 3186   6.029   2.830   0.598
 1060TIP3    H2 3187   6.072   2.700   0.533
 1061TIP3   OH2 3188   4.730   3.811   5.147
 1061TIP3    H1 3189   4.663   3.851   5.202
 1061TIP3    H2 3190   4.789   3.767   5.208
 1062TIP3   OH2 3191   4.024   0.960   0.116
 1062TIP3    H1 3192   4.039   0.966   0.021
 1062TIP3    H2 3193   3.930   0.978   0.126
 1063TIP3   OH2 3194   4.785   3.040   2.293
 1063TIP3    H1 3195   4.849   2.992   2.345
 1063TIP3    H2 3196   4.829   3.054   2.209
 1064TIP3   OH2 3197   3.840   0.321   4.191
 1064TIP3    H1 3198   3.866   0.251   4.251
 1064TIP3    H2 3199   3.884   0.300   4.109
 1065TIP3   OH2 3200   2.555   4.622   1.439
 1065TIP3    H1 3201   2.495   4.692   1.462
 1065TIP3    H2 3202   2.579   4.639   1.348
 1066TIP3   OH2 3203   4.199   2.057   4.618
 1066TIP3    H1 3204   4.176   1.978   4.568
 1066TIP3    H2 3205   4.293   2.069   4.603
 1067TIP3   OH2 3206   2.478   5.395   0.987
 1067TIP3    H1 3207   2.539   5.406   0.914
 1067TIP3    H2 3208   2.445   5.306   0.977
 1068TIP3   OH2 3209   4.839   5.783   0.257
 1068TIP3    H1 3210   4.920   5.805   0.303
 1068TIP3    H2 3211   4.851   5.819   0.169
 1069TIP3   OH2 3212   3.661   4.396   5.015
 1069TIP3    H1 3213   3.618   4.457   5.076
 1069TIP3    H2 3214   3.745   4.437   4.996
 1070TIP3   OH2 3215   4.398   2.438   4.418
 1070TIP3    H1 3216   4.420   2.508   4.480
 1070TIP3    H2 3217   4.480   2.392   4.404
 1071TIP3   OH2 3218   2.082   4.901   3.378
 1071TIP3    H1 3219   2.116   4.824   3.423
 1071TIP3    H2 3220   2.094   4.973   3.440
 1072TIP3   OH2 3221   5.947   0.302   2.215
 1072TIP3    H1 3222   5.908   0.383   2.182
 1072TIP3    H2 3223   6.040   0.311   2.193
 1073TIP3   OH2 3224   1.509   0.167   2.916
 1073TIP3    H1 3225   1.519   0.088   2.864
 1073TIP3    H2 3226   1.591   0.214   2.906
 1074TIP3   OH2 3227   1.309   5.623   3.675
 1074TIP3    H1 3228   1.224   5.591   3.704
 1074TIP3    H2 3229   1.289   5.692   3.613
 1075TIP3   OH2 3230   3.924   2.869   0.731
 1075TIP3    H1 3231   3.895   2.891   0.642
 1075TIP3    H2 3232   3.848   2.889   0.786
 1076TIP3   OH2 3233   3.496   4.918   3.502
 1076TIP3    H1 3234   3.410   4.887   3.474
 1076TIP3    H2 3235   3.477   4.983   3.570
 1077TIP3   OH2 3236   2.558   5.281   0.249
 1077TIP3    H1 3237   2.602   5.249   0.328
 1077TIP3    H2 3238   2.583   5.373   0.244
 1078TIP3   OH2 3239   0.972   4.368   5.120
 1078TIP3    H1 3240   0.910   4.439   5.101
 1078TIP3    H2 3241   1.055   4.397   5.082
 1079TIP3   OH2 3242   4.824   4.541   1.372
 1079TIP3    H1 3243   4.853   4.586   1.294
 1079TIP3    H2 3244   4.903   4.527   1.424
 1080TIP3   OH2 3245   0.147   1.666   0.060
 1080TIP3    H1 3246   0.180   1.592   0.111
 1080TIP3    H2 3247   0.157   1.742   0.119
 1081TIP3   OH2 3248   5.054   3.607   2.399
 1081TIP3    H1 3249   5.021   3.658   2.473
 1081TIP3    H2 3250   5.073   3.520   2.436
 1082TIP3   OH2 3251   5.686   1.472   1.958
 1082TIP3    H1 3252   5.727   1.556   1.976
 1082TIP3    H2 3253   5.757   1.408   1.965
 1083TIP3   OH2 3254   2.555   5.505   5.103
 1083TIP3    H1 3255   2.551   5.453   5.184
 1083TIP3    H2 3256   2.479   5.563   5.108
 1084TIP3   OH2 3257   4.695   0.933   4.518
 1084TIP3    H1 3258   4.752   1.007   4.538
 1084TIP3    H2 3259   4.747   0.878   4.460
 1085TIP3   OH2 3260   3.691   3.708   3.378
 1085TIP3    H1 3261   3.677   3.802   3.369
 1085TIP3    H2 3262   3.603   3.670   3.374
 1086TIP3   OH2 3263   3.728   4.021   2.726
 1086TIP3    H1 3264   3.712   3.928   2.713
 1086TIP3    H2 3265   3.764   4.028   2.815
 1087TIP3   OH2 3266   0.920   2.483   3.276
 1087TIP3    H1 3267   0.888   2.546   3.212
 1087TIP3    H2 3268   0.985   2.532   3.328
 1088TIP3   OH2 3269   6.040   4.742   0.937
 1088TIP3    H1 3270   6.113   4.684   0.961
 1088TIP3    H2 3271   5.986   4.688   0.879
 1089TIP3   OH2 3272   3.671   0.037   2.008
 1089TIP3    H1 3273   3.750   0.008   1.963
 1089TIP3    H2 3274   3.638   0.109   1.954
 1090TIP3   OH2 3275   3.009   4.690   0.080
 1090TIP3    H1 3276   3.012   4.628   0.153
 1090TIP3    H2 3277   3.101   4.700   0.054
 1091TIP3   OH2 3278   6.168   2.242   1.382
 1091TIP3    H1 3279   6.260   2.267   1.391
 1091TIP3    H2 3280   6.167   2.147   1.397
 1092TIP3   OH2 3281   6.039   2.089   3.859
 1092TIP3    H1 3282   6.057   2.023   3.926
 1092TIP3    H2 3283   6.109   2.077   3.795
 1093TIP3   OH2 3284   4.379   1.715   4.502
 1093TIP3    H1 3285   4.372   1.707   4.597
 1093TIP3    H2 3286   4.356   1.629   4.468
 1094TIP3   OH2 3287   2.622   0.188   3.342
 1094TIP3    H1 3288   2.652   0.278   3.331
 1094TIP3    H2 3289   2.643   0.145   3.259
 1095TIP3   OH2 3290   1.265   5.272   3.012
 1095TIP3    H1 3291   1.286   5.180   2.997
 1095TIP3    H2 3292   1.346   5.311   3.044
 1096TIP3   OH2 3293   3.983   0.538   4.312
 1096TIP3    H1 3294   3.950   0.586   4.236
 1096TIP3    H2 3295   3.956   0.448   4.296
 1097TIP3   OH2 3296   0.842   5.429   4.192
 1097TIP3    H1 3297   0.798   5.491   4.134
 1097TIP3    H2 3298   0.825   5.463   4.280
 1098TIP3   OH2 3299   5.931   3.962   3.554
 1098TIP3    H1 3300   5.858   3.924   3.603
 1098TIP3    H2 3301   6.009   3.939   3.606
 1099TIP3   OH2 3302   4.490   5.243   4.016
 1099TIP3    H1 3303   4.505   5.241   4.110
 1099TIP3    H2 3304   4.476   5.152   3.991
 1100TIP3   OH2 3305   0.924   3.538   1.391
 1100TIP3    H1 3306   0.844   3.564   1.437
 1100TIP3    H2 3307   0.920   3.443   1.389
 1101TIP3   OH2 3308   2.976   4.640   1.838
 1101TIP3    H1 3309   3.069   4.663   1.833
 1101TIP3    H2 3310   2.964   4.607   1.927
 1102TIP3   OH2 3311   5.432   0.136   1.272
 1102TIP3    H1 3312   5.450   0.209   1.331
 1102TIP3    H2 3313   5.338   0.121   1.280
 1103TIP3   OH2 3314   0.159   4.173   2.520
 1103TIP3    H1 3315   0.111   4.169   2.603
 1103TIP3    H2 3316   0.150   4.086   2.483
 1104TIP3   OH2 3317   0.115   0.857   2.893
 1104TIP3    H1 3318   0.122   0.939   2.941
 1104TIP3    H2 3319   0.135   0.789   2.957
 1105TIP3   OH2 3320   0.228   1.946   5.008
 1105TIP3    H1 3321   0.162   1.964   4.942
 1105TIP3    H2 3322   0.194   1.987   5.088
 1106TIP3   OH2 3323   2.582   3.895   3.967
 1106TIP3    H1 3324   2.551   3.815   3.925
 1106TIP3    H2 3325   2.584   3.874   4.060
 1107TIP3   OH2 3326   6.338   1.354   3.972
 1107TIP3    H1 3327   6.344   1.258   3.974
 1107TIP3    H2 3328   6.421   1.384   4.010
 1108TIP3   OH2 3329   1.818   2.470   1.231
 1108TIP3    H1 3330   1.830   2.393   1.175
 1108TIP3    H2 3331   1.753   2.441   1.296
 1109TIP3   OH2 3332   2.850   3.619   4.175
 1109TIP3    H1 3333   2.906   3.627   4.252
 1109TIP3    H2 3334   2.765   3.651   4.205
 1110TIP3   OH2 3335   3.574   2.277   3.181
 1110TIP3    H1 3336   3.555   2.293   3.088
 1110TIP3    H2 3337   3.618   2.192   3.182
 1111TIP3   OH2 3338   3.047   5.096   1.357
 1111TIP3    H1 3339   3.081   5.147   1.284
 1111TIP3    H2 3340   3.122   5.083   1.415
 1112TIP3   OH2 3341   4.182   3.410   4.006
 1112TIP3    H1 3342   4.219   3.495   4.031
 1112TIP3    H2 3343   4.146   3.375   4.088
 1113TIP3   OH2 3344   6.141   3.661   5.115
 1113TIP3    H1 3345   6.185   3.585   5.076
 1113TIP3    H2 3346   6.203   3.732   5.106
 1114TIP3   OH2 3347   2.299   3.056   2.649
 1114TIP3    H1 3348   2.317   2.968   2.616
 1114TIP3    H2 3349   2.376   3.108   2.624
 1115TIP3   OH2 3350   5.559   5.173   1.163
 1115TIP3    H1 3351   5.477   5.155   1.117
 1115TIP3    H2 3352   5.623   5.115   1.120
 1116TIP3   OH2 3353   0.131   2.288   1.147
 1116TIP3    H1 3354   0.224   2.307   1.149
 1116TIP3    H2 3355   0.106   2.300   1.055
 1117TIP3   OH2 3356   5.500   0.496   4.605
 1117TIP3    H1 3357   5.503   0.511   4.699
 1117TIP3    H2 3358   5.571   0.550   4.570
 1118TIP3   OH2 3359   5.330   0.367   0.032
 1118TIP3    H1 3360   5.393   0.298   0.013
 1118TIP3    H2 3361   5.353   0.396   0.121
 1119TIP3   OH2 3362   3.138   1.994   1.918
 1119TIP3    H1 3363   3.097   1.924   1.969
 1119TIP3    H2 3364   3.098   2.075   1.950
 1120TIP3   OH2 3365   4.166   5.203   0.434
 1120TIP3    H1 3366   4.200   5.195   0.345
 1120TIP3    H2 3367   4.088   5.257   0.425
 1121TIP3   OH2 3368   1.048   1.900   0.708
 1121TIP3    H1 3369   1.129   1.910   0.758
 1121TIP3    H2 3370   1.019   1.990   0.693
 1122TIP3   OH2 3371   3.182   2.099   1.545
 1122TIP3    H1 3372   3.143   2.181   1.514
 1122TIP3    H2 3373   3.264   2.126   1.587
 1123TIP3   OH2 3374   6.218   5.297   3.862
 1123TIP3    H1 3375   6.241   5.206   3.840
 1123TIP3    H2 3376   6.208   5.340   3.778
 1124TIP3   OH2 3377   4.399   4.725   1.591
 1124TIP3    H1 3378   4.486   4.686   1.593
 1124TIP3    H2 3379   4.407   4.799   1.530
 1125TIP3   OH2 3380   4.522   1.865   2.777
 1125TIP3    H1 3381   4.467   1.847   2.853
 1125TIP3    H2 3382   4.513   1.959   2.761
 1126TIP3   OH2 3383   0.478   3.309   2.746
 1126TIP3    H1 3384   0.483   3.404   2.756
 1126TIP3    H2 3385   0.540   3.288   2.676
 1127TIP3   OH2 3386   2.739   3.172   2.239
 1127TIP3    H1 3387   2.764   3.166   2.147
 1127TIP3    H2 3388   2.708   3.262   2.250
 1128TIP3   OH2 3389   1.487   1.004   4.477
 1128TIP3    H1 3390   1.450   0.970   4.558
 1128TIP3    H2 3391   1.455   1.094   4.471
 1129TIP3   OH2 3392   4.258   0.988   0.848
 1129TIP3    H1 3393   4.316   1.061   0.824
 1129TIP3    H2 3394   4.263   0.985   0.943
 1130TIP3   OH2 3395   0.692   5.327   3.650
 1130TIP3    H1 3396   0.607   5.336   3.606
 1130TIP3    H2 3397   0.678   5.257   3.714
 1131TIP3   OH2 3398   1.340   3.335   2.170
 1131TIP3    H1 3399   1.427   3.306   2.145
 1131TIP3    H2 3400   1.282   3.300   2.101
 1132TIP3   OH2 3401   5.918   3.339   4.455
 1132TIP3    H1 3402   5.952   3.331   4.544
 1132TIP3    H2 3403   5.860   3.264   4.445
 1133TIP3   OH2 3404   6.320   5.308   1.981
 1133TIP3    H1 3405   6.273   5.225   1.975
 1133TIP3    H2 3406   6.361   5.307   2.067
 1134TIP3   OH2 3407   2.120   1.095   3.690
 1134TIP3    H1 3408   2.205   1.130   3.665
 1134TIP3    H2 3409   2.138   1.042   3.768
 1135TIP3   OH2 3410   5.368   0.208   0.754
 1135TIP3    H1 3411   5.308   0.282   0.756
 1135TIP3    H2 3412   5.455   0.247   0.758
 1136TIP3   OH2 3413   5.896   0.053   2.340
 1136TIP3    H1 3414   5.910   0.142   2.307
 1136TIP3    H2 3415   5.839   0.012   2.275
 1137TIP3   OH2 3416   1.275   0.609   5.003
 1137TIP3    H1 3417   1.301   0.557   4.927
 1137TIP3    H2 3418   1.181   0.593   5.013
 1138TIP3   OH2 3419   4.392   0.902   2.720
 1138TIP3    H1 3420   4.417   0.822   2.765
 1138TIP3    H2 3421   4.446   0.971   2.760
 1139TIP3   OH2 3422   2.577   5.713   2.595
 1139TIP3    H1 3423   2.556   5.682   2.683
 1139TIP3    H2 3424   2.643   5.652   2.563
 1140TIP3   OH2 3425   4.947   0.188   4.416
 1140TIP3    H1 3426   4.882   0.158   4.352
 1140TIP3    H2 3427   4.915   0.273   4.445
 1141TIP3   OH2 3428   1.200   4.560   0.969
 1141TIP3    H1 3429   1.186   4.478   0.922
 1141TIP3    H2 3430   1.289   4.553   1.004
 1142TIP3   OH2 3431   3.695   0.320   1.085
 1142TIP3    H1 3432   3.681   0.268   1.164
 1142TIP3    H2 3433   3.769   0.277   1.041
 1143TIP3   OH2 3434   6.035   5.914   1.310
 1143TIP3    H1 3435   6.046   6.009   1.317
 1143TIP3    H2 3436   5.975   5.891   1.381
 1144TIP3   OH2 3437   1.143   3.023   4.484
 1144TIP3    H1 3438   1.217   3.045   4.540
 1144TIP3    H2 3439   1.116   3.106   4.445
 1145TIP3   OH2 3440   2.821   5.663   4.048
 1145TIP3    H1 3441   2.915   5.647   4.051
 1145TIP3    H2 3442   2.807   5.710   3.966
 1146TIP3   OH2 3443   5.592   1.110   4.465
 1146TIP3    H1 3444   5.563   1.033   4.514
 1146TIP3    H2 3445   5.530   1.178   4.488
 1147TIP3   OH2 3446   3.475   5.975   4.511
 1147TIP3    H1 3447   3.515   5.926   4.583
 1147TIP3    H2 3448   3.395   5.926   4.491
 1148TIP3   OH2 3449   0.377   2.559   2.102
 1148TIP3    H1 3450   0.349   2.474   2.071
 1148TIP3    H2 3451   0.334   2.622   2.044
 1149TIP3   OH2 3452   2.930   1.861   4.594
 1149TIP3    H1 3453   3.025   1.862   4.605
 1149TIP3    H2 3454   2.911   1.933   4.534
 1150TIP3   OH2 3455   0.565   3.613   4.679
 1150TIP3    H1 3456   0.593   3.704   4.668
 1150TIP3    H2 3457   0.600   3.587   4.765
 1151TIP3   OH2 3458   3.210   3.109   4.217
 1151TIP3    H1 3459   3.250   3.196   4.227
 1151TIP3    H2 3460   3.251   3.074   4.138
 1152TIP3   OH2 3461   6.234   2.802   0.312
 1152TIP3    H1 3462   6.239   2.708   0.325
 1152TIP3    H2 3463   6.183   2.834   0.387
 1153TIP3   OH2 3464   1.689   0.025   2.368
 1153TIP3    H1 3465   1.649   0.078   2.436
 1153TIP3    H2 3466   1.635  -0.054   2.364
 1154TIP3   OH2 3467   5.039   2.091   1.627
 1154TIP3    H1 3468   4.966   2.030   1.616
 1154TIP3    H2 3469   5.080   2.096   1.541
 1155TIP3   OH2 3470   3.132   0.212   0.220
 1155TIP3    H1 3471   3.039   0.207   0.197
 1155TIP3    H2 3472   3.158   0.121   0.235
 1156TIP3   OH2 3473   0.170   2.825   4.664
 1156TIP3    H1 3474   0.115   2.896   4.634
 1156TIP3    H2 3475   0.211   2.790   4.585
 1157TIP3   OH2 3476   3.616   0.226   0.159
 1157TIP3    H1 3477   3.703   0.223   0.118
 1157TIP3    H2 3478   3.558   0.189   0.093
 1158TIP3   OH2 3479   3.013   2.283   0.292
 1158TIP3    H1 3480   2.955   2.283   0.368
 1158TIP3    H2 3481   2.963   2.327   0.224
 1159TIP3   OH2 3482   1.686   4.448   0.447
 1159TIP3    H1 3483   1.680   4.354   0.429
 1159TIP3    H2 3484   1.688   4.490   0.361
 1160TIP3   OH2 3485   0.703   2.913   2.601
 1160TIP3    H1 3486   0.738   2.937   2.515
 1160TIP3    H2 3487   0.780   2.897   2.655
 1161TIP3   OH2 3488   4.852   3.494   4.326
 1161TIP3    H1 3489   4.794   3.472   4.399
 1161TIP3    H2 3490   4.801   3.556   4.273
 1162TIP3   OH2 3491   1.717   4.162   1.398
 1162TIP3    H1 3492   1.665   4.214   1.336
 1162TIP3    H2 3493   1.808   4.176   1.371
 1163TIP3   OH2 3494   3.398   0.183   3.219
 1163TIP3    H1 3495   3.367   0.232   3.143
 1163TIP3    H2 3496   3.422   0.097   3.184
 1164TIP3   OH2 3497   2.030   1.731   2.218
 1164TIP3    H1 3498   1.976   1.656   2.242
 1164TIP3    H2 3499   2.090   1.698   2.152
 1165TIP3   OH2 3500   1.538   1.480   1.713
 1165TIP3    H1 3501   1.542   1.396   1.667
 1165TIP3    H2 3502   1.528   1.545   1.643
 1166TIP3   OH2 3503   1.240   2.495   2.903
 1166TIP3    H1 3504   1.269   2.423   2.959
 1166TIP3    H2 3505   1.272   2.472   2.816
 1167TIP3   OH2 3506   0.994   5.662   4.521
 1167TIP3    H1 3507   1.035   5.644   4.437
 1167TIP3    H2 3508   1.066   5.691   4.578
 1168TIP3   OH2 3509   0.743   2.028   0.817
 1168TIP3    H1 3510   0.719   2.033   0.910
 1168TIP3    H2 3511   0.803   2.102   0.804
 1169TIP3   OH2 3512   2.391   0.576   2.363
 1169TIP3    H1 3513   2.413   0.498   2.311
 1169TIP3    H2 3514   2.326   0.623   2.311
 1170TIP3   OH2 3515   0.076   1.608   2.760
 1170TIP3    H1 3516   0.061   1.657   2.679
 1170TIP3    H2 3517   0.081   1.516   2.732
 1171TIP3   OH2 3518   3.781   5.061   2.662
 1171TIP3    H1 3519   3.764   5.016   2.745
 1171TIP3    H2 3520   3.697   5.061   2.616
 1172TIP3   OH2 3521   1.490   3.534   5.201
 1172TIP3    H1 3522   1.477   3.439   5.196
 1172TIP3    H2 3523   1.581   3.544   5.229
 1173TIP3   OH2 3524   3.327   3.804   4.390
 1173TIP3    H1 3525   3.385   3.875   4.418
 1173TIP3    H2 3526   3.351   3.730   4.446
 1174TIP3   OH2 3527   0.457   3.914   2.129
 1174TIP3    H1 3528   0.420   3.843   2.077
 1174TIP3    H2 3529   0.552   3.902   2.122
 1175TIP3   OH2 3530   4.956   2.771   2.808
 1175TIP3    H1 3531   4.945   2.677   2.822
 1175TIP3    H2 3532   5.023   2.797   2.871
 1176TIP3   OH2 3533   0.772   0.637   4.319
 1176TIP3    H1 3534   0.774   0.544   4.343
 1176TIP3    H2 3535   0.697   0.645   4.260
 1177TIP3   OH2 3536   0.497   4.494   2.820
 1177TIP3    H1 3537   0.556   4.499   2.745
 1177TIP3    H2 3538   0.462   4.404   2.817
 1178TIP3   OH2 3539   2.196   2.984   3.097
 1178TIP3    H1 3540   2.179   2.891   3.111
 1178TIP3    H2 3541   2.281   3.000   3.138
 1179TIP3   OH2 3542   0.858   4.038   4.661
 1179TIP3    H1 3543   0.859   4.054   4.567
 1179TIP3    H2 3544   0.906   4.112   4.699
 1180TIP3   OH2 3545   5.915   4.624   2.909
 1180TIP3    H1 3546   5.854   4.675   2.856
 1180TIP3    H2 3547   5.986   4.602   2.849
 1181TIP3   OH2 3548   5.963   3.814   0.172
 1181TIP3    H1 3549   5.963   3.763   0.253
 1181TIP3    H2 3550   6.038   3.781   0.122
 1182TIP3   OH2 3551   4.357   0.791   3.205
 1182TIP3    H1 3552   4.367   0.781   3.300
 1182TIP3    H2 3553   4.409   0.868   3.183
 1183TIP3   OH2 3554   2.049   5.746   4.165
 1183TIP3    H1 3555   2.072   5.658   4.135
 1183TIP3    H2 3556   2.133   5.792   4.171
 1184TIP3   OH2 3557   0.023   2.883   4.003
 1184TIP3    H1 3558   0.005   2.935   3.925
 1184TIP3    H2 3559  -0.003   2.794   3.979
 1185TIP3   OH2 3560   5.959   4.046   0.354
 1185TIP3    H1 3561   6.035   4.103   0.365
 1185TIP3    H2 3562   5.935   4.054   0.262
 1186TIP3   OH2 3563   1.499   4.014   2.676
 1186TIP3    H1 3564   1.446   3.944   2.713
 1186TIP3    H2 3565   1.541   3.975   2.600
 1187TIP3   OH2 3566   3.281   3.864   1.746
 1187TIP3    H1 3567   3.208   3.808   1.774
 1187TIP3    H2 3568   3.256   3.896   1.660
 1188TIP3   OH2 3569   4.536   2.669   3.123
 1188TIP3    H1 3570   4.604   2.736   3.129
 1188TIP3    H2 3571   4.474   2.690   3.193
 1189TIP3   OH2 3572   2.266   0.461   1.688
 1189TIP3    H1 3573   2.337   0.492   1.633
 1189TIP3    H2 3574   2.186   0.491   1.644
 1190TIP3   OH2 3575   0.765   1.349   1.138
 1190TIP3    H1 3576   0.724   1.270   1.103
 1190TIP3    H2 3577   0.757   1.414   1.068
 1191TIP3   OH2 3578   5.266   3.812   3.568
 1191TIP3    H1 3579   5.247   3.725   3.603
 1191TIP3    H2 3580   5.208   3.819   3.492
 1192TIP3   OH2 3581   4.297   2.158   0.985
 1192TIP3    H1 3582   4.382   2.130   1.020
 1192TIP3    H2 3583   4.311   2.164   0.890
 1193TIP3   OH2 3584   2.727   3.461   1.462
 1193TIP3    H1 3585   2.690   3.549   1.454
 1193TIP3    H2 3586   2.731   3.429   1.372
 1194TIP3   OH2 3587   3.469   0.702   0.726
 1194TIP3    H1 3588   3.379   0.714   0.757
 1194TIP3    H2 3589   3.522   0.707   0.806
 1195TIP3   OH2 3590   4.350   3.943   1.766
 1195TIP3    H1 3591   4.312   4.004   1.829
 1195TIP3    H2 3592   4.350   3.859   1.812
 1196TIP3   OH2 3593   6.317   4.638   3.021
 1196TIP3    H1 3594   6.410   4.622   3.035
 1196TIP3    H2 3595   6.298   4.596   2.938
 1197TIP3   OH2 3596   0.426   5.303   0.109
 1197TIP3    H1 3597   0.482   5.363   0.059
 1197TIP3    H2 3598   0.364   5.269   0.045
 1198TIP3   OH2 3599   3.246   2.863   0.525
 1198TIP3    H1 3600   3.220   2.935   0.468
 1198TIP3    H2 3601   3.338   2.881   0.546
 1199TIP3   OH2 3602   0.627   0.075   2.690
 1199TIP3    H1 3603   0.586   0.100   2.773
 1199TIP3    H2 3604   0.616  -0.020   2.686
 1200TIP3   OH2 3605   3.573   3.968   1.443
 1200TIP3    H1 3606   3.659   3.987   1.406
 1200TIP3    H2 3607   3.588   3.955   1.536
 1201TIP3   OH2 3608   3.257   3.251   0.451
 1201TIP3    H1 3609   3.214   3.232   0.534
 1201TIP3    H2 3610   3.334   3.194   0.450
 1202TIP3   OH2 3611   5.611   0.408   2.100
 1202TIP3    H1 3612   5.581   0.419   2.190
 1202TIP3    H2 3613   5.706   0.417   2.104
 1203TIP3   OH2 3614   5.877   0.531   2.473
 1203TIP3    H1 3615   5.923   0.456   2.512
 1203TIP3    H2 3616   5.945   0.598   2.465
 1204TIP3   OH2 3617   5.708   4.135   0.889
 1204TIP3    H1 3618   5.681   4.105   0.976
 1204TIP3    H2 3619   5.654   4.085   0.828
 1205TIP3   OH2 3620   5.220   3.040   4.582
 1205TIP3    H1 3621   5.130   3.071   4.578
 1205TIP3    H2 3622   5.240   3.036   4.675
 1206TIP3   OH2 3623   3.598   1.277   2.035
 1206TIP3    H1 3624   3.655   1.354   2.039
 1206TIP3    H2 3625   3.659   1.204   2.020
 1207TIP3   OH2 3626   3.566   5.956   2.612
 1207TIP3    H1 3627   3.599   5.887   2.670
 1207TIP3    H2 3628   3.561   5.914   2.526
 1208TIP3   OH2 3629   4.854   2.182   3.646
 1208TIP3    H1 3630   4.818   2.269   3.662
 1208TIP3    H2 3631   4.943   2.198   3.615
 1209TIP3   OH2 3632   2.050   1.416   0.002
 1209TIP3    H1 3633   2.059   1.472   0.079
 1209TIP3    H2 3634   2.079   1.330   0.031
 1210TIP3   OH2 3635   5.392   5.185   3.383
 1210TIP3    H1 3636   5.362   5.154   3.469
 1210TIP3    H2 3637   5.468   5.239   3.403
 1211TIP3   OH2 3638   5.480   0.111   2.842
 1211TIP3    H1 3639   5.436   0.042   2.791
 1211TIP3    H2 3640   5.571   0.082   2.848
 1212TIP3   OH2 3641   5.594   5.629   0.853
 1212TIP3    H1 3642   5.576   5.535   0.851
 1212TIP3    H2 3643   5.520   5.669   0.807
 1213TIP3   OH2 3644   5.573   3.269   4.235
 1213TIP3    H1 3645   5.668   3.284   4.241
 1213TIP3    H2 3646   5.538   3.351   4.201
 1214TIP3   OH2 3647   4.002   5.842   4.155
 1214TIP3    H1 3648   4.010   5.936   4.140
 1214TIP3    H2 3649   3.952   5.835   4.237
 1215TIP3   OH2 3650   1.372   1.977   1.850
 1215TIP3    H1 3651   1.380   1.940   1.937
 1215TIP3    H2 3652   1.407   2.066   1.859
 1216TIP3   OH2 3653   4.764   1.644   0.733
 1216TIP3    H1 3654   4.740   1.630   0.642
 1216TIP3    H2 3655   4.858   1.663   0.730
 1217TIP3   OH2 3656   0.516   3.529   3.811
 1217TIP3    H1 3657   0.528   3.457   3.749
 1217TIP3    H2 3658   0.605   3.562   3.827
 1218TIP3   OH2 3659   5.790   1.318   1.623
 1218TIP3    H1 3660   5.869   1.372   1.620
 1218TIP3    H2 3661   5.796   1.262   1.545
 1219TIP3   OH2 3662   2.164   2.533   0.885
 1219TIP3    H1 3663   2.260   2.539   0.887
 1219TIP3    H2 3664   2.138   2.594   0.816
 1220TIP3   OH2 3665   2.650   4.202   0.121
 1220TIP3    H1 3666   2.585   4.219   0.188
 1220TIP3    H2 3667   2.656   4.283   0.071
 1221TIP3   OH2 3668   4.004   1.022   2.938
 1221TIP3    H1 3669   4.065   0.950   2.922
 1221TIP3    H2 3670   4.044   1.073   3.008
 1222TIP3   OH2 3671   2.872   2.515   1.283
 1222TIP3    H1 3672   2.896   2.603   1.313
 1222TIP3    H2 3673   2.776   2.515   1.285
 1223TIP3   OH2 3674   1.980   2.471   4.036
 1223TIP3    H1 3675   2.008   2.549   3.987
 1223TIP3    H2 3676   1.992   2.399   3.973
 1224TIP3   OH2 3677   2.912   4.237   1.440
 1224TIP3    H1 3678   2.843   4.188   1.484
 1224TIP3    H2 3679   2.933   4.308   1.500
 1225TIP3   OH2 3680   4.647   5.582   3.039
 1225TIP3    H1 3681   4.704   5.505   3.046
 1225TIP3    H2 3682   4.707   5.656   3.044
 1226TIP3   OH2 3683   4.189   4.123   4.291
 1226TIP3    H1 3684   4.113   4.182   4.292
 1226TIP3    H2 3685   4.166   4.054   4.353
 1227TIP3   OH2 3686   4.885   5.875   1.222
 1227TIP3    H1 3687   4.862   5.961   1.186
 1227TIP3    H2 3688   4.946   5.894   1.293
 1228TIP3   OH2 3689   2.750   2.447   2.926
 1228TIP3    H1 3690   2.790   2.424   3.010
 1228TIP3    H2 3691   2.817   2.426   2.861
 1229TIP3   OH2 3692   4.473   4.393   2.183
 1229TIP3    H1 3693   4.395   4.449   2.187
 1229TIP3    H2 3694   4.463   4.333   2.257
 1230TIP3   OH2 3695   3.261   4.705   0.168
 1230TIP3    H1 3696   3.323   4.660   0.110
 1230TIP3    H2 3697   3.315   4.769   0.215
 1231TIP3   OH2 3698   1.392   1.178   3.722
 1231TIP3    H1 3699   1.435   1.262   3.738
 1231TIP3    H2 3700   1.454   1.129   3.668
 1232TIP3   OH2 3701   0.597   4.056   0.881
 1232TIP3    H1 3702   0.631   3.974   0.918
 1232TIP3    H2 3703   0.502   4.042   0.875
 1233TIP3   OH2 3704   6.055   4.243   4.465
 1233TIP3    H1 3705   6.112   4.267   4.392
 1233TIP3    H2 3706   6.112   4.248   4.542
 1234TIP3   OH2 3707   6.091   1.198   3.422
 1234TIP3    H1 3708   5.997   1.183   3.432
 1234TIP3    H2 3709   6.129   1.167   3.505
 1235TIP3   OH2 3710   1.971   4.505   5.081
 1235TIP3    H1 3711   1.954   4.600   5.082
 1235TIP3    H2 3712   2.049   4.496   5.026
 1236TIP3   OH2 3713   4.786   2.954   3.678
 1236TIP3    H1 3714   4.835   3.034   3.694
 1236TIP3    H2 3715   4.828   2.888   3.734
 1237TIP3   OH2 3716   2.264   3.636   3.186
 1237TIP3    H1 3717   2.311   3.561   3.222
 1237TIP3    H2 3718   2.249   3.615   3.094
 1238TIP3   OH2 3719   4.791   2.986   4.686
 1238TIP3    H1 3720   4.838   2.942   4.615
 1238TIP3    H2 3721   4.837   2.958   4.766
 1239TIP3   OH2 3722   2.247   0.636   3.149
 1239TIP3    H1 3723   2.331   0.667   3.181
 1239TIP3    H2 3724   2.266   0.603   3.061
 1240TIP3   OH2 3725   1.535   0.831   4.274
 1240TIP3    H1 3726   1.520   0.876   4.357
 1240TIP3    H2 3727   1.508   0.895   4.208
 1241TIP3   OH2 3728   2.671   1.313   2.122
 1241TIP3    H1 3729   2.635   1.356   2.199
 1241TIP3    H2 3730   2.595   1.288   2.070
 1242TIP3   OH2 3731   5.063   2.959   3.274
 1242TIP3    H1 3732   5.034   3.047   3.250
 1242TIP3    H2 3733   5.130   2.937   3.210
 1243TIP3   OH2 3734   0.171   2.858   1.547
 1243TIP3    H1 3735   0.143   2.941   1.585
 1243TIP3    H2 3736   0.149   2.793   1.614
 1244TIP3   OH2 3737   0.930   5.201   2.409
 1244TIP3    H1 3738   0.978   5.266   2.358
 1244TIP3    H2 3739   0.902   5.136   2.345
 1245TIP3   OH2 3740   2.088   1.538   5.003
 1245TIP3    H1 3741   2.089   1.481   5.080
 1245TIP3    H2 3742   1.995   1.547   4.982
 1246TIP3   OH2 3743   1.746   0.621   3.609
 1246TIP3    H1 3744   1.763   0.694   3.669
 1246TIP3    H2 3745   1.831   0.578   3.600
 1247TIP3   OH2 3746   1.729   1.660   4.593
 1247TIP3    H1 3747   1.822   1.644   4.580
 1247TIP3    H2 3748   1.710   1.738   4.541
 1248TIP3   OH2 3749   1.318   2.465   4.540
 1248TIP3    H1 3750   1.227   2.434   4.539
 1248TIP3    H2 3751   1.360   2.413   4.609
 1249TIP3   OH2 3752   5.076   0.896   4.914
 1249TIP3    H1 3753   5.076   0.802   4.898
 1249TIP3    H2 3754   4.994   0.913   4.961
 1250TIP3   OH2 3755   2.599   2.361   4.474
 1250TIP3    H1 3756   2.588   2.268   4.494
 1250TIP3    H2 3757   2.554   2.373   4.390
 1251TIP3   OH2 3758   5.648   0.211   0.852
 1251TIP3    H1 3759   5.575   0.232   0.910
 1251TIP3    H2 3760   5.712   0.281   0.867
 1252TIP3   OH2 3761   1.449   2.263   1.735
 1252TIP3    H1 3762   1.537   2.227   1.745
 1252TIP3    H2 3763   1.455   2.352   1.769
 1253TIP3   OH2 3764   4.704   0.631   1.476
 1253TIP3    H1 3765   4.695   0.653   1.384
 1253TIP3    H2 3766   4.736   0.540   1.476
 1254TIP3   OH2 3767   3.949   1.558   4.938
 1254TIP3    H1 3768   3.918   1.526   4.853
 1254TIP3    H2 3769   3.963   1.478   4.989
 1255TIP3   OH2 3770   3.216   5.937   3.066
 1255TIP3    H1 3771   3.132   5.963   3.026
 1255TIP3    H2 3772   3.266   5.898   2.995
 1256TIP3   OH2 3773   5.437   1.826   5.025
 1256TIP3    H1 3774   5.429   1.915   4.992
 1256TIP3    H2 3775   5.348   1.798   5.045
 1257TIP3   OH2 3776   0.080   5.677   4.482
 1257TIP3    H1 3777   0.175   5.688   4.479
 1257TIP3    H2 3778   0.055   5.665   4.390
 1258TIP3   OH2 3779   4.102   5.986   0.823
 1258TIP3    H1 3780   4.101   5.892   0.841
 1258TIP3    H2 3781   4.194   6.011   0.836
 1259TIP3   OH2 3782   0.152   5.659   4.192
 1259TIP3    H1 3783   0.207   5.649   4.115
 1259TIP3    H2 3784   0.077   5.710   4.162
 1260TIP3   OH2 3785   2.022   4.494   0.259
 1260TIP3    H1 3786   2.052   4.580   0.289
 1260TIP3    H2 3787   2.102   4.451   0.228
 1261TIP3   OH2 3788   1.832   2.708   3.888
 1261TIP3    H1 3789   1.837   2.725   3.982
 1261TIP3    H2 3790   1.756   2.651   3.878
 1262TIP3   OH2 3791   5.246   0.860   2.318
 1262TIP3    H1 3792   5.254   0.778   2.270
 1262TIP3    H2 3793   5.286   0.926   2.261
 1263TIP3   OH2 3794   2.469   2.328   0.077
 1263TIP3    H1 3795   2.410   2.378   0.134
 1263TIP3    H2 3796   2.453   2.237   0.100
 1264TIP3   OH2 3797   6.304   4.327   0.156
 1264TIP3    H1 3798   6.271   4.289   0.075
 1264TIP3    H2 3799   6.388   4.282   0.171
 1265TIP3   OH2 3800   2.960   2.914   2.521
 1265TIP3    H1 3801   2.965   3.000   2.564
 1265TIP3    H2 3802   3.035   2.913   2.462
 1266TIP3   OH2 3803   4.459   4.362   0.850
 1266TIP3    H1 3804   4.502   4.447   0.847
 1266TIP3    H2 3805   4.392   4.366   0.782
 1267TIP3   OH2 3806   1.907   5.740   0.230
 1267TIP3    H1 3807   1.833   5.758   0.287
 1267TIP3    H2 3808   1.867   5.705   0.150
 1268TIP3   OH2 3809   5.231   2.909   3.744
 1268TIP3    H1 3810   5.179   2.921   3.824
 1268TIP3    H2 3811   5.322   2.908   3.775
 1269TIP3   OH2 3812   1.805   5.262   4.822
 1269TIP3    H1 3813   1.793   5.238   4.730
 1269TIP3    H2 3814   1.811   5.358   4.821
 1270TIP3   OH2 3815   1.130   5.529   5.116
 1270TIP3    H1 3816   1.049   5.545   5.165
 1270TIP3    H2 3817   1.142   5.434   5.120
 1271TIP3   OH2 3818   2.275   5.541   1.096
 1271TIP3    H1 3819   2.350   5.505   1.049
 1271TIP3    H2 3820   2.291   5.635   1.099
 1272TIP3   OH2 3821   2.505   5.841   1.702
 1272TIP3    H1 3822   2.451   5.873   1.775
 1272TIP3    H2 3823   2.442   5.803   1.641
 1273TIP3   OH2 3824   2.860   2.177   4.155
 1273TIP3    H1 3825   2.797   2.108   4.133
 1273TIP3    H2 3826   2.822   2.257   4.119
 1274TIP3   OH2 3827   3.925   3.082   0.328
 1274TIP3    H1 3828   3.976   3.154   0.292
 1274TIP3    H2 3829   3.984   3.006   0.323
 1275TIP3   OH2 3830   3.190   1.430   1.033
 1275TIP3    H1 3831   3.157   1.493   1.098
 1275TIP3    H2 3832   3.280   1.414   1.059
 1276TIP3   OH2 3833   3.055   1.881   0.160
 1276TIP3    H1 3834   3.118   1.811   0.142
 1276TIP3    H2 3835   3.066   1.901   0.253
 1277TIP3   OH2 3836   4.961   5.743   1.835
 1277TIP3    H1 3837   4.956   5.652   1.863
 1277TIP3    H2 3838   4.936   5.741   1.742
 1278TIP3   OH2 3839   3.361   2.425   0.465
 1278TIP3    H1 3840   3.386   2.333   0.456
 1278TIP3    H2 3841   3.414   2.458   0.537
 1279TIP3   OH2 3842   2.081   5.174   1.555
 1279TIP3    H1 3843   2.060   5.266   1.536
 1279TIP3    H2 3844   2.018   5.124   1.504
 1280TIP3   OH2 3845   1.234   1.636   1.215
 1280TIP3    H1 3846   1.312   1.692   1.220
 1280TIP3    H2 3847   1.178   1.667   1.286
 1281TIP3   OH2 3848   5.151   1.273   2.157
 1281TIP3    H1 3849   5.095   1.281   2.233
 1281TIP3    H2 3850   5.100   1.311   2.085
 1282TIP3   OH2 3851   1.575   0.281   4.110
 1282TIP3    H1 3852   1.533   0.349   4.163
 1282TIP3    H2 3853   1.648   0.250   4.164
 1283TIP3   OH2 3854   4.466   4.420   2.672
 1283TIP3    H1 3855   4.400   4.361   2.709
 1283TIP3    H2 3856   4.532   4.362   2.635
 1284TIP3   OH2 3857   3.807   3.079   4.183
 1284TIP3    H1 3858   3.742   3.093   4.251
 1284TIP3    H2 3859   3.891   3.072   4.230
 1285TIP3   OH2 3860   1.023   5.429   3.968
 1285TIP3    H1 3861   0.957   5.359   3.967
 1285TIP3    H2 3862   1.053   5.432   4.059
 1286TIP3   OH2 3863   1.673   3.011   3.733
 1286TIP3    H1 3864   1.711   2.928   3.705
 1286TIP3    H2 3865   1.746   3.058   3.774
 1287TIP3   OH2 3866   4.575   0.570   4.767
 1287TIP3    H1 3867   4.587   0.653   4.814
 1287TIP3    H2 3868   4.532   0.596   4.685
 1288TIP3   OH2 3869   4.278   2.540   1.794
 1288TIP3    H1 3870   4.184   2.521   1.791
 1288TIP3    H2 3871   4.288   2.615   1.736
 1289TIP3   OH2 3872   2.046   4.486   3.159
 1289TIP3    H1 3873   1.958   4.471   3.194
 1289TIP3    H2 3874   2.105   4.456   3.228
 1290TIP3   OH2 3875   2.491   2.340   1.693
 1290TIP3    H1 3876   2.444   2.305   1.617
 1290TIP3    H2 3877   2.425   2.344   1.762
 1291TIP3   OH2 3878   4.484   1.468   2.405
 1291TIP3    H1 3879   4.401   1.432   2.436
 1291TIP3    H2 3880   4.496   1.548   2.456
 1292TIP3   OH2 3881   2.462   5.098   2.617
 1292TIP3    H1 3882   2.406   5.021   2.613
 1292TIP3    H2 3883   2.475   5.124   2.526
 1293TIP3   OH2 3884   6.000   2.613   3.967
 1293TIP3    H1 3885   5.969   2.523   3.963
 1293TIP3    H2 3886   6.069   2.613   4.033
 1294TIP3   OH2 3887   4.923   5.931   4.441
 1294TIP3    H1 3888   4.844   5.877   4.432
 1294TIP3    H2 3889   4.960   5.903   4.525
 1295TIP3   OH2 3890   2.906   0.304   5.106
 1295TIP3    H1 3891   2.892   0.384   5.157
 1295TIP3    H2 3892   2.944   0.335   5.024
 1296TIP3   OH2 3893   0.329   3.134   1.213
 1296TIP3    H1 3894   0.261   3.159   1.276
 1296TIP3    H2 3895   0.312   3.042   1.194
 1297TIP3   OH2 3896   1.518   1.849   1.665
 1297TIP3    H1 3897   1.467   1.909   1.718
 1297TIP3    H2 3898   1.470   1.841   1.583
 1298TIP3   OH2 3899   5.811   0.434   0.893
 1298TIP3    H1 3900   5.782   0.510   0.842
 1298TIP3    H2 3901   5.906   0.432   0.881
 1299TIP3   OH2 3902   1.968   3.832   5.037
 1299TIP3    H1 3903   1.888   3.868   5.074
 1299TIP3    H2 3904   1.982   3.749   5.083
 1300TIP3   OH2 3905   3.491   1.068   3.093
 1300TIP3    H1 3906   3.426   1.031   3.033
 1300TIP3    H2 3907   3.571   1.019   3.074
 1301TIP3   OH2 3908   0.441   1.914   0.958
 1301TIP3    H1 3909   0.447   1.918   0.863
 1301TIP3    H2 3910   0.493   1.988   0.989
 1302TIP3   OH2 3911   4.149   2.313   4.661
 1302TIP3    H1 3912   4.243   2.326   4.669
 1302TIP3    H2 3913   4.138   2.218   4.657
 1303TIP3   OH2 3914   2.473   4.797   3.532
 1303TIP3    H1 3915   2.378   4.804   3.531
 1303TIP3    H2 3916   2.492   4.717   3.484
 1304TIP3   OH2 3917   4.726   0.023   3.607
 1304TIP3    H1 3918   4.694   0.075   3.533
 1304TIP3    H2 3919   4.805   0.068   3.635
 1305TIP3   OH2 3920   6.001   2.817   2.459
 1305TIP3    H1 3921   5.937   2.884   2.434
 1305TIP3    H2 3922   6.064   2.863   2.513
 1306TIP3   OH2 3923   3.260   0.181   5.004
 1306TIP3    H1 3924   3.340   0.204   4.955
 1306TIP3    H2 3925   3.206   0.260   4.999
 1307TIP3   OH2 3926   0.059   4.346   1.313
 1307TIP3    H1 3927   0.142   4.324   1.355
 1307TIP3    H2 3928   0.051   4.282   1.242
 1308TIP3   OH2 3929   5.901   0.331   1.137
 1308TIP3    H1 3930   5.953   0.354   1.214
 1308TIP3    H2 3931   5.913   0.405   1.078
 1309TIP3   OH2 3932   4.759   1.502   0.215
 1309TIP3    H1 3933   4.809   1.431   0.174
 1309TIP3    H2 3934   4.724   1.552   0.141
 1310TIP3   OH2 3935   1.335   2.793   4.424
 1310TIP3    H1 3936   1.268   2.725   4.421
 1310TIP3    H2 3937   1.287   2.873   4.448
 1311TIP3   OH2 3938   1.790   4.651   2.476
 1311TIP3    H1 3939   1.854   4.582   2.458
 1311TIP3    H2 3940   1.754   4.628   2.562
 1312TIP3   OH2 3941   1.566   0.088   0.513
 1312TIP3    H1 3942   1.587   0.015   0.573
 1312TIP3    H2 3943   1.513   0.148   0.566
 1313TIP3   OH2 3944   0.956   4.269   4.817
 1313TIP3    H1 3945   0.889   4.309   4.761
 1313TIP3    H2 3946   0.916   4.264   4.903
 1314TIP3   OH2 3947   2.722   1.414   0.117
 1314TIP3    H1 3948   2.720   1.337   0.175
 1314TIP3    H2 3949   2.796   1.397   0.058
 1315TIP3   OH2 3950   5.030   5.181   3.267
 1315TIP3    H1 3951   5.113   5.226   3.284
 1315TIP3    H2 3952   4.969   5.251   3.242
 1316TIP3   OH2 3953   4.099   3.971   1.630
 1316TIP3    H1 3954   4.137   4.058   1.626
 1316TIP3    H2 3955   4.169   3.915   1.664
 1317TIP3   OH2 3956   6.172   3.866   1.338
 1317TIP3    H1 3957   6.201   3.805   1.405
 1317TIP3    H2 3958   6.182   3.952   1.378
 1318TIP3   OH2 3959   4.968   5.844   2.229
 1318TIP3    H1 3960   4.906   5.781   2.264
 1318TIP3    H2 3961   5.054   5.806   2.247
 1319TIP3   OH2 3962   6.106   2.406   4.906
 1319TIP3    H1 3963   6.129   2.316   4.887
 1319TIP3    H2 3964   6.185   2.444   4.944
 1320TIP3   OH2 3965   0.652   2.891   2.093
 1320TIP3    H1 3966   0.743   2.922   2.102
 1320TIP3    H2 3967   0.653   2.803   2.131
 1321TIP3   OH2 3968   0.184   3.240   0.822
 1321TIP3    H1 3969   0.226   3.316   0.781
 1321TIP3    H2 3970   0.093   3.265   0.832
 1322TIP3   OH2 3971   0.255   4.573   3.039
 1322TIP3    H1 3972   0.232   4.499   2.983
 1322TIP3    H2 3973   0.260   4.536   3.127
 1323TIP3   OH2 3974   1.156   3.560   5.072
 1323TIP3    H1 3975   1.199   3.524   4.995
 1323TIP3    H2 3976   1.151   3.486   5.133
 1324TIP3   OH2 3977   5.925   2.345   3.923
 1324TIP3    H1 3978   5.879   2.273   3.965
 1324TIP3    H2 3979   6.008   2.307   3.894
 1325TIP3   OH2 3980   4.694   0.768   1.186
 1325TIP3    H1 3981   4.690   0.712   1.109
 1325TIP3    H2 3982   4.611   0.754   1.231
 1326TIP3   OH2 3983   5.505   2.567   4.877
 1326TIP3    H1 3984   5.484   2.634   4.812
 1326TIP3    H2 3985   5.430   2.507   4.874
 1327TIP3   OH2 3986   0.317   0.337   4.935
 1327TIP3    H1 3987   0.237   0.385   4.913
 1327TIP3    H2 3988   0.302   0.249   4.902
 1328TIP3   OH2 3989   6.050   1.023   4.499
 1328TIP3    H1 3990   5.995   0.995   4.426
 1328TIP3    H2 3991   6.076   1.112   4.476
 1329TIP3   OH2 3992   0.497   1.213   3.877
 1329TIP3    H1 3993   0.418   1.265   3.894
 1329TIP3    H2 3994   0.469   1.146   3.816
 1330TIP3   OH2 3995   2.860   2.020   4.881
 1330TIP3    H1 3996   2.772   2.026   4.844
 1330TIP3    H2 3997   2.913   1.980   4.812
 1331TIP3   OH2 3998   1.668   2.494   4.774
 1331TIP3    H1 3999   1.702   2.410   4.743
 1331TIP3    H2 4000   1.737   2.529   4.829
 1332TIP3   OH2 4001   5.922   3.550   0.791
 1332TIP3    H1 4002   5.893   3.503   0.869
 1332TIP3    H2 4003   5.885   3.638   0.800
 1333TIP3   OH2 4004   1.370   2.423   3.738
 1333TIP3    H1 4005   1.407   2.367   3.806
 1333TIP3    H2 4006   1.281   2.441   3.768
 1334TIP3   OH2 4007   6.024   5.275   2.632
 1334TIP3    H1 4008   5.994   5.297   2.720
 1334TIP3    H2 4009   6.119   5.281   2.636
 1335TIP3   OH2 4010   1.875   1.281   5.219
 1335TIP3    H1 4011   1.784   1.308   5.205
 1335TIP3    H2 4012   1.903   1.249   5.133
 1336TIP3   OH2 4013   2.192   0.435   0.663
 1336TIP3    H1 4014   2.103   0.439   0.697
 1336TIP3    H2 4015   2.234   0.514   0.697
 1337TIP3   OH2 4016   1.143   5.063   0.058
 1337TIP3    H1 4017   1.101   5.140   0.021
 1337TIP3    H2 4018   1.210   5.038  -0.006
 1338TIP3   OH2 4019   4.821   3.521   2.749
 1338TIP3    H1 4020   4.727   3.502   2.755
 1338TIP3    H2 4021   4.832   3.604   2.795
 1339TIP3   OH2 4022   4.850   5.581   3.888
 1339TIP3    H1 4023   4.819   5.605   3.975
 1339TIP3    H2 4024   4.807   5.497   3.869
 1340TIP3   OH2 4025   5.312   3.895   2.564
 1340TIP3    H1 4026   5.336   3.957   2.495
 1340TIP3    H2 4027   5.238   3.936   2.609
 1341TIP3   OH2 4028   2.554   1.837   2.886
 1341TIP3    H1 4029   2.478   1.788   2.918
 1341TIP3    H2 4030   2.621   1.825   2.953
 1342TIP3   OH2 4031   0.965   3.884   2.260
 1342TIP3    H1 4032   0.882   3.838   2.247
 1342TIP3    H2 4033   1.025   3.845   2.197
 1343TIP3   OH2 4034   5.112   2.297   3.349
 1343TIP3    H1 4035   5.093   2.364   3.284
 1343TIP3    H2 4036   5.084   2.215   3.307
 1344TIP3   OH2 4037   1.234   2.197   1.534
 1344TIP3    H1 4038   1.194   2.230   1.614
 1344TIP3    H2 4039   1.296   2.130   1.564
 1345TIP3   OH2 4040   6.130   2.280   2.008
 1345TIP3    H1 4041   6.086   2.311   1.929
 1345TIP3    H2 4042   6.117   2.350   2.072
 1346TIP3   OH2 4043   6.070   5.596   0.747
 1346TIP3    H1 4044   5.990   5.628   0.787
 1346TIP3    H2 4045   6.140   5.646   0.789
 1347TIP3   OH2 4046   2.040   5.298   2.512
 1347TIP3    H1 4047   2.075   5.299   2.601
 1347TIP3    H2 4048   2.105   5.248   2.462
 1348TIP3   OH2 4049   0.638   1.610   0.358
 1348TIP3    H1 4050   0.733   1.601   0.368
 1348TIP3    H2 4051   0.625   1.704   0.344
 1349TIP3   OH2 4052   5.787   5.404   1.736
 1349TIP3    H1 4053   5.830   5.377   1.655
 1349TIP3    H2 4054   5.859   5.421   1.797
 1350TIP3   OH2 4055   3.875   4.348   2.792
 1350TIP3    H1 4056   3.869   4.266   2.840
 1350TIP3    H2 4057   3.839   4.329   2.706
 1351TIP3   OH2 4058   0.720   1.055   0.618
 1351TIP3    H1 4059   0.674   1.100   0.548
 1351TIP3    H2 4060   0.661   0.983   0.643
 1352TIP3   OH2 4061   5.442   5.571   0.446
 1352TIP3    H1 4062   5.375   5.532   0.502
 1352TIP3    H2 4063   5.419   5.665   0.444
 1353TIP3   OH2 4064   5.638   0.613   0.373
 1353TIP3    H1 4065   5.565   0.674   0.358
 1353TIP3    H2 4066   5.664   0.630   0.463
 1354TIP3   OH2 4067   0.576   0.141   4.554
 1354TIP3    H1 4068   0.481   0.126   4.547
 1354TIP3    H2 4069   0.614   0.081   4.490
 1355TIP3   OH2 4070   6.121   4.669   3.475
 1355TIP3    H1 4071   6.158   4.746   3.432
 1355TIP3    H2 4072   6.124   4.600   3.409
 1356TIP3   OH2 4073   5.705   3.070   2.993
 1356TIP3    H1 4074   5.774   3.031   2.939
 1356TIP3    H2 4075   5.654   2.996   3.024
 1357TIP3   OH2 4076   5.244   1.686   0.172
 1357TIP3    H1 4077   5.151   1.697   0.150
 1357TIP3    H2 4078   5.242   1.645   0.259
 1358TIP3   OH2 4079   0.304   2.179   4.371
 1358TIP3    H1 4080   0.334   2.270   4.376
 1358TIP3    H2 4081   0.384   2.128   4.356
 1359TIP3   OH2 4082   6.011   2.693   4.866
 1359TIP3    H1 4083   5.922   2.705   4.834
 1359TIP3    H2 4084   6.034   2.603   4.839
 1360TIP3   OH2 4085   5.884   5.546   4.461
 1360TIP3    H1 4086   5.837   5.629   4.455
 1360TIP3    H2 4087   5.878   5.522   4.554
 1361TIP3   OH2 4088   4.655   0.797   0.672
 1361TIP3    H1 4089   4.719   0.730   0.695
 1361TIP3    H2 4090   4.570   0.754   0.682
 1362TIP3   OH2 4091   3.240   0.929   3.574
 1362TIP3    H1 4092   3.209   1.012   3.538
 1362TIP3    H2 4093   3.334   0.943   3.589
 1363TIP3   OH2 4094   1.026   2.612   1.517
 1363TIP3    H1 4095   1.108   2.566   1.498
 1363TIP3    H2 4096   1.005   2.658   1.435
 1364TIP3   OH2 4097   0.931   1.184   0.124
 1364TIP3    H1 4098   1.002   1.238   0.159
 1364TIP3    H2 4099   0.866   1.248   0.094
 1365TIP3   OH2 4100   1.358   5.800   4.056
 1365TIP3    H1 4101   1.344   5.835   3.968
 1365TIP3    H2 4102   1.271   5.772   4.084
 1366TIP3   OH2 4103   5.737   5.341   2.660
 1366TIP3    H1 4104   5.802   5.332   2.591
 1366TIP3    H2 4105   5.684   5.417   2.634
 1367TIP3   OH2 4106   4.177   3.399   0.497
 1367TIP3    H1 4107   4.232   3.466   0.457
 1367TIP3    H2 4108   4.117   3.373   0.427
 1368TIP3   OH2 4109   4.541   2.406   1.859
 1368TIP3    H1 4110   4.467   2.357   1.896
 1368TIP3    H2 4111   4.501   2.467   1.798
 1369TIP3   OH2 4112   1.884   3.492   3.064
 1369TIP3    H1 4113   1.961   3.462   3.015
 1369TIP3    H2 4114   1.885   3.438   3.144
 1370TIP3   OH2 4115   5.497   3.896   2.229
 1370TIP3    H1 4116   5.432   3.832   2.258
 1370TIP3    H2 4117   5.454   3.981   2.240
 1371TIP3   OH2 4118   5.596   4.572   4.271
 1371TIP3    H1 4119   5.624   4.565   4.362
 1371TIP3    H2 4120   5.674   4.602   4.224
 1372TIP3   OH2 4121   1.450   2.273   3.973
 1372TIP3    H1 4122   1.387   2.222   4.025
 1372TIP3    H2 4123   1.498   2.325   4.037
 1373TIP3   OH2 4124   2.618   4.950   1.799
 1373TIP3    H1 4125   2.578   4.947   1.712
 1373TIP3    H2 4126   2.676   5.027   1.796
 1374TIP3   OH2 4127   4.160   3.661   4.696
 1374TIP3    H1 4128   4.075   3.629   4.723
 1374TIP3    H2 4129   4.198   3.699   4.775
 1375TIP3   OH2 4130   1.804   4.943   3.270
 1375TIP3    H1 4131   1.876   4.909   3.323
 1375TIP3    H2 4132   1.725   4.919   3.319
 1376TIP3   OH2 4133   3.254   5.789   1.860
 1376TIP3    H1 4134   3.303   5.741   1.793
 1376TIP3    H2 4135   3.170   5.744   1.865
 1377TIP3   OH2 4136   4.782   3.782   4.183
 1377TIP3    H1 4137   4.763   3.802   4.275
 1377TIP3    H2 4138   4.769   3.865   4.137
 1378TIP3   OH2 4139   3.772   3.787   5.153
 1378TIP3    H1 4140   3.716   3.804   5.228
 1378TIP3    H2 4141   3.822   3.867   5.142
 1379TIP3   OH2 4142   5.808   2.688   3.170
 1379TIP3    H1 4143   5.771   2.646   3.092
 1379TIP3    H2 4144   5.734   2.734   3.209
 1380TIP3   OH2 4145   2.250   4.382   2.278
 1380TIP3    H1 4146   2.264   4.420   2.365
 1380TIP3    H2 4147   2.165   4.417   2.250
 1381TIP3   OH2 4148   0.393   4.496   0.880
 1381TIP3    H1 4149   0.373   4.444   0.958
 1381TIP3    H2 4150   0.416   4.432   0.813
 1382TIP3   OH2 4151   2.921   1.828   2.788
 1382TIP3    H1 4152   2.855   1.897   2.783
 1382TIP3    H2 4153   2.888   1.767   2.854
 1383TIP3   OH2 4154   6.319   4.609   0.909
 1383TIP3    H1 4155   6.330   4.657   0.992
 1383TIP3    H2 4156   6.386   4.646   0.852
 1384TIP3   OH2 4157   4.998   0.385   1.780
 1384TIP3    H1 4158   4.971   0.349   1.696
 1384TIP3    H2 4159   4.923   0.439   1.808
 1385TIP3   OH2 4160   0.961   5.090   1.634
 1385TIP3    H1 4161   1.002   5.055   1.713
 1385TIP3    H2 4162   0.918   5.014   1.594
 1386TIP3   OH2 4163   0.511   5.372   1.836
 1386TIP3    H1 4164   0.461   5.309   1.784
 1386TIP3    H2 4165   0.482   5.356   1.926
 1387TIP3   OH2 4166   0.331   3.967   0.906
 1387TIP3    H1 4167   0.330   3.873   0.922
 1387TIP3    H2 4168   0.331   4.006   0.993
 1388TIP3   OH2 4169   5.361   2.767   4.734
 1388TIP3    H1 4170   5.303   2.773   4.658
 1388TIP3    H2 4171   5.394   2.856   4.746
 1389TIP3   OH2 4172   1.142   4.426   4.529
 1389TIP3    H1 4173   1.058   4.441   4.484
 1389TIP3    H2 4174   1.165   4.512   4.565
 1390TIP3   OH2 4175   1.966   2.788   4.624
 1390TIP3    H1 4176   1.931   2.712   4.577
 1390TIP3    H2 4177   2.049   2.808   4.580
 1391TIP3   OH2 4178   2.487   3.003   3.308
 1391TIP3    H1 4179   2.543   2.949   3.365
 1391TIP3    H2 4180   2.542   3.023   3.232
 1392TIP3   OH2 4181   4.712   5.157   4.462
 1392TIP3    H1 4182   4.711   5.072   4.505
 1392TIP3    H2 4183   4.775   5.209   4.511
 1393TIP3   OH2 4184   0.794   2.288   1.145
 1393TIP3    H1 4185   0.805   2.373   1.101
 1393TIP3    H2 4186   0.855   2.292   1.219
 1394TIP3   OH2 4187   2.986   4.913   3.077
 1394TIP3    H1 4188   2.904   4.905   3.028
 1394TIP3    H2 4189   2.971   4.987   3.135
 1395TIP3   OH2 4190   4.600   3.417   4.079
 1395TIP3    H1 4191   4.589   3.322   4.074
 1395TIP3    H2 4192   4.606   3.446   3.988
 1396TIP3   OH2 4193   3.846   0.079   3.325
 1396TIP3    H1 4194   3.915   0.142   3.301
 1396TIP3    H2 4195   3.833   0.028   3.245
 1397TIP3   OH2 4196   0.524   4.430   4.215
 1397TIP3    H1 4197   0.566   4.345   4.210
 1397TIP3    H2 4198   0.520   4.460   4.124
 1398TIP3   OH2 4199   4.001   4.953   3.616
 1398TIP3    H1 4200   3.999   5.047   3.600
 1398TIP3    H2 4201   4.030   4.915   3.534
 1399TIP3   OH2 4202   5.145   1.033   1.723
 1399TIP3    H1 4203   5.221   1.056   1.670
 1399TIP3    H2 4204   5.161   1.075   1.807
 1400TIP3   OH2 4205   0.073   2.024   4.030
 1400TIP3    H1 4206   0.025   1.977   4.098
 1400TIP3    H2 4207   0.162   1.988   4.033
 1401TIP3   OH2 4208   3.919   0.648   2.258
 1401TIP3    H1 4209   3.861   0.576   2.231
 1401TIP3    H2 4210   3.919   0.644   2.354
 1402TIP3   OH2 4211   4.974   2.811   1.854
 1402TIP3    H1 4212   4.931   2.827   1.770
 1402TIP3    H2 4213   5.059   2.775   1.831
 1403TIP3   OH2 4214   4.360   0.552   2.272
 1403TIP3    H1 4215   4.283   0.594   2.233
 1403TIP3    H2 4216   4.411   0.524   2.197
 1404TIP3   OH2 4217   0.027   3.828   1.158
 1404TIP3    H1 4218  -0.043   3.850   1.219
 1404TIP3    H2 4219   0.107   3.842   1.208
 1405TIP3   OH2 4220   1.703   2.431   1.748
 1405TIP3    H1 4221   1.715   2.522   1.775
 1405TIP3    H2 4222   1.786   2.408   1.705
 1406TIP3   OH2 4223   0.782   4.317   3.632
 1406TIP3    H1 4224   0.841   4.382   3.669
 1406TIP3    H2 4225   0.839   4.251   3.593
 1407TIP3   OH2 4226   1.861   5.958   0.999
 1407TIP3    H1 4227   1.942   5.940   1.047
 1407TIP3    H2 4228   1.864   5.899   0.924
 1408TIP3   OH2 4229   6.149   2.865   1.158
 1408TIP3    H1 4230   6.223   2.877   1.218
 1408TIP3    H2 4231   6.107   2.951   1.155
 1409TIP3   OH2 4232   1.277   4.085   2.496
 1409TIP3    H1 4233   1.312   4.168   2.529
 1409TIP3    H2 4234   1.335   4.018   2.533
 1410TIP3   OH2 4235   5.486   2.289   4.612
 1410TIP3    H1 4236   5.407   2.319   4.656
 1410TIP3    H2 4237   5.474   2.315   4.521
 1411TIP3   OH2 4238   2.113   2.278   0.812
 1411TIP3    H1 4239   2.186   2.250   0.756
 1411TIP3    H2 4240   2.132   2.369   0.832
 1412TIP3   OH2 4241   1.005   1.483   1.954
 1412TIP3    H1 4242   1.034   1.476   1.862
 1412TIP3    H2 4243   1.082   1.457   2.005
 1413TIP3   OH2 4244   1.535   0.222   2.523
 1413TIP3    H1 4245   1.524   0.184   2.610
 1413TIP3    H2 4246   1.526   0.316   2.537
 1414TIP3   OH2 4247   2.495   2.594   0.929
 1414TIP3    H1 4248   2.428   2.636   0.983
 1414TIP3    H2 4249   2.578   2.627   0.962
 1415TIP3   OH2 4250   2.956   0.069   3.494
 1415TIP3    H1 4251   2.942   0.157   3.530
 1415TIP3    H2 4252   2.905   0.068   3.413
 1416TIP3   OH2 4253   1.185   1.049   3.866
 1416TIP3    H1 4254   1.270   1.072   3.828
 1416TIP3    H2 4255   1.123   1.058   3.793
 1417TIP3   OH2 4256   0.669   0.735   0.258
 1417TIP3    H1 4257   0.676   0.679   0.180
 1417TIP3    H2 4258   0.758   0.768   0.272
 1418TIP3   OH2 4259   0.281   4.447   4.313
 1418TIP3    H1 4260   0.377   4.444   4.311
 1418TIP3    H2 4261   0.255   4.438   4.221
 1419TIP3   OH2 4262   0.179   1.795   2.938
 1419TIP3    H1 4263   0.245   1.806   2.871
 1419TIP3    H2 4264   0.131   1.715   2.913
 1420TIP3   OH2 4265   3.234   4.566   4.138
 1420TIP3    H1 4266   3.179   4.512   4.194
 1420TIP3    H2 4267   3.213   4.538   4.049
 1421TIP3   OH2 4268   6.155   2.968   3.123
 1421TIP3    H1 4269   6.074   3.013   3.148
 1421TIP3    H2 4270   6.210   2.973   3.201
 1422TIP3   OH2 4271   1.740   0.588   2.570
 1422TIP3    H1 4272   1.647   0.567   2.562
 1422TIP3    H2 4273   1.756   0.592   2.664
 1423TIP3   OH2 4274   0.742   1.943   0.097
 1423TIP3    H1 4275   0.820   1.992   0.123
 1423TIP3    H2 4276   0.775   1.861   0.062
 1424TIP3   OH2 4277   4.451   3.399   3.075
 1424TIP3    H1 4278   4.361   3.405   3.107
 1424TIP3    H2 4279   4.446   3.338   3.001
 1425TIP3   OH2 4280   3.352   0.849   4.204
 1425TIP3    H1 4281   3.314   0.855   4.116
 1425TIP3    H2 4282   3.380   0.758   4.212
 1426TIP3   OH2 4283   3.185   0.206   1.195
 1426TIP3    H1 4284   3.277   0.185   1.175
 1426TIP3    H2 4285   3.186   0.301   1.207
 1427TIP3   OH2 4286   3.973   2.636   0.523
 1427TIP3    H1 4287   3.927   2.706   0.569
 1427TIP3    H2 4288   3.953   2.650   0.430
 1428TIP3   OH2 4289   6.127   1.224   4.239
 1428TIP3    H1 4290   6.195   1.280   4.276
 1428TIP3    H2 4291   6.175   1.166   4.179
 1429TIP3   OH2 4292   3.108   3.169   3.335
 1429TIP3    H1 4293   3.070   3.181   3.422
 1429TIP3    H2 4294   3.201   3.187   3.346
 1430TIP3   OH2 4295   4.581   0.622   2.424
 1430TIP3    H1 4296   4.499   0.605   2.377
 1430TIP3    H2 4297   4.556   0.620   2.517
 1431TIP3   OH2 4298   2.297   2.430   1.327
 1431TIP3    H1 4299   2.234   2.397   1.263
 1431TIP3    H2 4300   2.246   2.487   1.384
 1432TIP3   OH2 4301   1.327   5.984   1.634
 1432TIP3    H1 4302   1.354   6.063   1.681
 1432TIP3    H2 4303   1.387   5.917   1.666
 1433TIP3   OH2 4304   2.658   4.564   3.338
 1433TIP3    H1 4305   2.677   4.651   3.303
 1433TIP3    H2 4306   2.612   4.520   3.266
 1434TIP3   OH2 4307   4.511   5.154   4.276
 1434TIP3    H1 4308   4.561   5.177   4.355
 1434TIP3    H2 4309   4.531   5.061   4.262
 1435TIP3   OH2 4310   3.753   2.153   2.408
 1435TIP3    H1 4311   3.826   2.092   2.395
 1435TIP3    H2 4312   3.710   2.121   2.487
 1436TIP3   OH2 4313   1.924   1.926   4.948
 1436TIP3    H1 4314   1.882   2.012   4.941
 1436TIP3    H2 4315   1.851   1.864   4.945
 1437TIP3   OH2 4316   2.895   2.901   4.678
 1437TIP3    H1 4317   2.842   2.918   4.755
 1437TIP3    H2 4318   2.870   2.813   4.650
 1438TIP3   OH2 4319   0.268   5.593   2.189
 1438TIP3    H1 4320   0.227   5.664   2.140
 1438TIP3    H2 4321   0.198   5.530   2.204
 1439TIP3   OH2 4322   2.051   3.017   1.433
 1439TIP3    H1 4323   2.061   3.014   1.338
 1439TIP3    H2 4324   1.965   3.058   1.447
 1440TIP3   OH2 4325   0.300   5.751   1.006
 1440TIP3    H1 4326   0.317   5.696   0.929
 1440TIP3    H2 4327   0.227   5.807   0.980
 1441TIP3   OH2 4328   4.546   4.758   4.858
 1441TIP3    H1 4329   4.636   4.727   4.847
 1441TIP3    H2 4330   4.551   4.852   4.837
 1442TIP3   OH2 4331   0.517   1.064   2.759
 1442TIP3    H1 4332   0.486   1.152   2.740
 1442TIP3    H2 4333   0.573   1.041   2.685
 1443TIP3   OH2 4334   2.472   4.946   1.034
 1443TIP3    H1 4335   2.389   4.993   1.025
 1443TIP3    H2 4336   2.477   4.891   0.956
 1444TIP3   OH2 4337   1.368   1.824   4.722
 1444TIP3    H1 4338   1.274   1.836   4.737
 1444TIP3    H2 4339   1.384   1.865   4.637
 1445TIP3   OH2 4340   1.229   3.087   3.821
 1445TIP3    H1 4341   1.177   3.007   3.831
 1445TIP3    H2 4342   1.215   3.135   3.903
 1446TIP3   OH2 4343   2.308   5.817   1.942
 1446TIP3    H1 4344   2.388   5.814   1.994
 1446TIP3    H2 4345   2.265   5.733   1.959
 1447TIP3   OH2 4346   1.593   3.105   0.120
 1447TIP3    H1 4347   1.603   3.042   0.048
 1447TIP3    H2 4348   1.553   3.054   0.191
 1448TIP3   OH2 4349   5.595   0.482   2.679
 1448TIP3    H1 4350   5.603   0.503   2.773
 1448TIP3    H2 4351   5.683   0.458   2.652
 1449TIP3   OH2 4352   4.108   4.137   3.041
 1449TIP3    H1 4353   4.127   4.077   2.969
 1449TIP3    H2 4354   4.165   4.108   3.112
 1450TIP3   OH2 4355   0.693   0.237   3.645
 1450TIP3    H1 4356   0.647   0.294   3.707
 1450TIP3    H2 4357   0.714   0.294   3.571
 1451TIP3   OH2 4358   0.334   0.867   1.976
 1451TIP3    H1 4359   0.272   0.939   1.966
 1451TIP3    H2 4360   0.368   0.851   1.888
 1452TIP3   OH2 4361   1.787   0.907   4.352
 1452TIP3    H1 4362   1.724   0.834   4.351
 1452TIP3    H2 4363   1.750   0.970   4.290
 1453TIP3   OH2 4364   3.452   2.664   0.897
 1453TIP3    H1 4365   3.386   2.664   0.967
 1453TIP3    H2 4366   3.534   2.646   0.941
 1454TIP3   OH2 4367   1.136   0.063   1.799
 1454TIP3    H1 4368   1.072  -0.007   1.786
 1454TIP3    H2 4369   1.138   0.110   1.715
 1455TIP3   OH2 4370   2.819   3.260   3.268
 1455TIP3    H1 4371   2.892   3.199   3.261
 1455TIP3    H2 4372   2.770   3.231   3.345
 1456TIP3   OH2 4373   4.689   5.685   0.489
 1456TIP3    H1 4374   4.606   5.652   0.455
 1456TIP3    H2 4375   4.733   5.723   0.413
 1457TIP3   OH2 4376   0.773   4.611   4.764
 1457TIP3    H1 4377   0.717   4.673   4.717
 1457TIP3    H2 4378   0.769   4.531   4.713
 1458TIP3   OH2 4379   6.227   5.275   4.966
 1458TIP3    H1 4380   6.135   5.291   4.986
 1458TIP3    H2 4381   6.243   5.326   4.886
 1459TIP3   OH2 4382   1.974   2.358   1.916
 1459TIP3    H1 4383   1.998   2.394   1.831
 1459TIP3    H2 4384   1.934   2.274   1.895
 1460TIP3   OH2 4385   3.388   1.985   0.173
 1460TIP3    H1 4386   3.337   2.048   0.222
 1460TIP3    H2 4387   3.461   2.035   0.136
 1461TIP3   OH2 4388   4.337   1.471   4.033
 1461TIP3    H1 4389   4.432   1.481   4.031
 1461TIP3    H2 4390   4.321   1.402   4.097
 1462TIP3   OH2 4391   0.871   4.443   0.947
 1462TIP3    H1 4392   0.938   4.420   0.883
 1462TIP3    H2 4393   0.828   4.359   0.967
 1463TIP3   OH2 4394   5.081   4.105   2.155
 1463TIP3    H1 4395   5.097   4.141   2.068
 1463TIP3    H2 4396   4.999   4.145   2.183
 1464TIP3   OH2 4397   0.466   0.566   1.952
 1464TIP3    H1 4398   0.450   0.660   1.937
 1464TIP3    H2 4399   0.460   0.527   1.865
 1465TIP3   OH2 4400   3.991   5.764   3.016
 1465TIP3    H1 4401   4.036   5.764   3.100
 1465TIP3    H2 4402   3.913   5.818   3.030
 1466TIP3   OH2 4403   0.671   0.151   1.147
 1466TIP3    H1 4404   0.702   0.172   1.235
 1466TIP3    H2 4405   0.583   0.186   1.144
 1467TIP3   OH2 4406   5.373   0.892   3.727
 1467TIP3    H1 4407   5.315   0.818   3.711
 1467TIP3    H2 4408   5.436   0.859   3.792
 1468TIP3   OH2 4409   1.358   4.416   3.179
 1468TIP3    H1 4410   1.279   4.364   3.167
 1468TIP3    H2 4411   1.371   4.418   3.274
 1469TIP3   OH2 4412   5.048   2.362   4.459
 1469TIP3    H1 4413   5.120   2.418   4.429
 1469TIP3    H2 4414   5.070   2.340   4.549
 1470TIP3   OH2 4415   1.645   5.186   0.667
 1470TIP3    H1 4416   1.594   5.222   0.594
 1470TIP3    H2 4417   1.716   5.249   0.679
 1471TIP3   OH2 4418   3.808   5.791   2.755
 1471TIP3    H1 4419   3.867   5.716   2.760
 1471TIP3    H2 4420   3.786   5.810   2.846
 1472TIP3   OH2 4421   3.822   3.893   0.533
 1472TIP3    H1 4422   3.876   3.954   0.583
 1472TIP3    H2 4423   3.881   3.819   0.516
 1473TIP3   OH2 4424   4.789   1.872   1.096
 1473TIP3    H1 4425   4.751   1.788   1.122
 1473TIP3    H2 4426   4.817   1.912   1.178
 1474TIP3   OH2 4427   1.490   0.886   1.249
 1474TIP3    H1 4428   1.492   0.962   1.191
 1474TIP3    H2 4429   1.494   0.924   1.337
 1475TIP3   OH2 4430   2.119   5.803   3.885
 1475TIP3    H1 4431   2.196   5.778   3.834
 1475TIP3    H2 4432   2.155   5.849   3.961
 1476TIP3   OH2 4433   2.801   3.171   1.981
 1476TIP3    H1 4434   2.882   3.217   1.962
 1476TIP3    H2 4435   2.781   3.122   1.901
 1477TIP3   OH2 4436   2.693   3.813   1.059
 1477TIP3    H1 4437   2.733   3.771   1.135
 1477TIP3    H2 4438   2.756   3.880   1.033
 1478TIP3   OH2 4439   2.983   2.794   5.022
 1478TIP3    H1 4440   2.927   2.779   5.098
 1478TIP3    H2 4441   2.923   2.825   4.953
 1479TIP3   OH2 4442   2.141   5.511   4.061
 1479TIP3    H1 4443   2.190   5.521   3.980
 1479TIP3    H2 4444   2.049   5.504   4.034
 1480TIP3   OH2 4445   1.796   2.556   4.220
 1480TIP3    H1 4446   1.878   2.532   4.176
 1480TIP3    H2 4447   1.793   2.651   4.215
 1481TIP3   OH2 4448   5.041   0.198   2.761
 1481TIP3    H1 4449   5.117   0.191   2.703
 1481TIP3    H2 4450   5.025   0.291   2.769
 1482TIP3   OH2 4451   2.143   2.033   3.765
 1482TIP3    H1 4452   2.071   2.045   3.827
 1482TIP3    H2 4453   2.141   2.112   3.710
 1483TIP3   OH2 4454   4.610   4.898   0.146
 1483TIP3    H1 4455   4.684   4.840   0.162
 1483TIP3    H2 4456   4.596   4.896   0.052
 1484TIP3   OH2 4457   4.025   0.963   4.997
 1484TIP3    H1 4458   4.011   0.992   4.907
 1484TIP3    H2 4459   4.036   1.044   5.047
 1485TIP3   OH2 4460   0.670   1.136   0.865
 1485TIP3    H1 4461   0.697   1.114   0.776
 1485TIP3    H2 4462   0.738   1.099   0.920
 1486TIP3   OH2 4463   2.083   0.631   0.359
 1486TIP3    H1 4464   2.144   0.698   0.329
 1486TIP3    H2 4465   2.077   0.645   0.454
 1487TIP3   OH2 4466   6.346   5.114   5.151
 1487TIP3    H1 4467   6.320   5.168   5.076
 1487TIP3    H2 4468   6.267   5.065   5.173
 1488TIP3   OH2 4469   5.536   4.766   4.801
 1488TIP3    H1 4470   5.551   4.679   4.837
 1488TIP3    H2 4471   5.622   4.808   4.803
 1489TIP3   OH2 4472   3.606   1.809   2.906
 1489TIP3    H1 4473   3.577   1.771   2.989
 1489TIP3    H2 4474   3.677   1.752   2.878
 1490TIP3   OH2 4475   2.670   2.415   2.369
 1490TIP3    H1 4476   2.644   2.357   2.441
 1490TIP3    H2 4477   2.623   2.382   2.293
 1491TIP3   OH2 4478   3.720   1.156   0.021
 1491TIP3    H1 4479   3.777   1.197  -0.044
 1491TIP3    H2 4480   3.714   1.221   0.091
 1492TIP3   OH2 4481   3.084   3.395   2.241
 1492TIP3    H1 4482   3.070   3.317   2.295
 1492TIP3    H2 4483   3.179   3.402   2.233
 1493TIP3   OH2 4484   2.543   4.022   2.565
 1493TIP3    H1 4485   2.532   4.003   2.659
 1493TIP3    H2 4486   2.458   4.056   2.538
 1494TIP3   OH2 4487   5.690   1.636   1.694
 1494TIP3    H1 4488   5.597   1.629   1.718
 1494TIP3    H2 4489   5.731   1.562   1.739
 1495TIP3   OH2 4490   2.402   0.465   2.085
 1495TIP3    H1 4491   2.340   0.430   2.021
 1495TIP3    H2 4492   2.431   0.548   2.047
 1496TIP3   OH2 4493   2.807   2.771   1.669
 1496TIP3    H1 4494   2.751   2.697   1.645
 1496TIP3    H2 4495   2.880   2.767   1.607
 1497TIP3   OH2 4496   2.232   1.961   1.480
 1497TIP3    H1 4497   2.170   1.937   1.548
 1497TIP3    H2 4498   2.274   2.041   1.513
 1498TIP3   OH2 4499   0.515   2.856   4.043
 1498TIP3    H1 4500   0.420   2.844   4.045
 1498TIP3    H2 4501   0.546   2.821   4.126
 1499TIP3   OH2 4502   0.846   5.444   2.583
 1499TIP3    H1 4503   0.766   5.486   2.552
 1499TIP3    H2 4504   0.869   5.382   2.514
 1500TIP3   OH2 4505   5.111   3.987   2.745
 1500TIP3    H1 4506   5.097   4.026   2.831
 1500TIP3    H2 4507   5.052   4.035   2.687
 1501TIP3   OH2 4508   5.690   0.314   0.580
 1501TIP3    H1 4509   5.645   0.382   0.631
 1501TIP3    H2 4510   5.692   0.239   0.638
 1502TIP3   OH2 4511   1.435   1.618   1.462
 1502TIP3    H1 4512   1.383   1.571   1.396
 1502TIP3    H2 4513   1.442   1.707   1.428
 1503TIP3   OH2 4514   3.966   3.196   4.535
 1503TIP3    H1 4515   3.904   3.134   4.497
 1503TIP3    H2 4516   3.919   3.280   4.535
 1504TIP3   OH2 4517   2.589   0.873   2.842
 1504TIP3    H1 4518   2.504   0.884   2.884
 1504TIP3    H2 4519   2.575   0.808   2.774
 1505TIP3   OH2 4520   3.751   0.674   4.199
 1505TIP3    H1 4521   3.765   0.662   4.105
 1505TIP3    H2 4522   3.659   0.653   4.212
 1506TIP3   OH2 4523   4.530   3.143   3.515
 1506TIP3    H1 4524   4.545   3.109   3.603
 1506TIP3    H2 4525   4.543   3.237   3.523
 1507TIP3   OH2 4526   1.091   4.614   4.130
 1507TIP3    H1 4527   1.067   4.527   4.097
 1507TIP3    H2 4528   1.007   4.660   4.136
 1508TIP3   OH2 4529   1.367   3.837   2.845
 1508TIP3    H1 4530   1.298   3.901   2.862
 1508TIP3    H2 4531   1.319   3.756   2.823
 1509TIP3   OH2 4532   5.432   5.832   1.269
 1509TIP3    H1 4533   5.469   5.796   1.349
 1509TIP3    H2 4534   5.406   5.755   1.218
 1510TIP3   OH2 4535   5.277   2.710   0.132
 1510TIP3    H1 4536   5.350   2.711   0.070
 1510TIP3    H2 4537   5.296   2.782   0.193
 1511TIP3   OH2 4538   4.600   2.924   3.922
 1511TIP3    H1 4539   4.620   3.017   3.931
 1511TIP3    H2 4540   4.653   2.894   3.848
 1512TIP3   OH2 4541   2.540   5.317   4.913
 1512TIP3    H1 4542   2.506   5.397   4.952
 1512TIP3    H2 4543   2.621   5.299   4.962
 1513TIP3   OH2 4544   6.285   5.659   2.168
 1513TIP3    H1 4545   6.319   5.728   2.111
 1513TIP3    H2 4546   6.280   5.699   2.255
 1514TIP3   OH2 4547   4.054   1.103   4.168
 1514TIP3    H1 4548   4.039   1.045   4.094
 1514TIP3    H2 4549   4.019   1.056   4.244
 1515TIP3   OH2 4550   5.732   3.343   1.792
 1515TIP3    H1 4551   5.691   3.305   1.714
 1515TIP3    H2 4552   5.676   3.418   1.814
 1516TIP3   OH2 4553   5.603   5.157   3.823
 1516TIP3    H1 4554   5.689   5.162   3.864
 1516TIP3    H2 4555   5.562   5.242   3.842
 1517TIP3   OH2 4556   2.059   4.440   4.245
 1517TIP3    H1 4557   2.060   4.531   4.215
 1517TIP3    H2 4558   1.979   4.403   4.209
 1518TIP3   OH2 4559   2.685   4.228   3.184
 1518TIP3    H1 4560   2.777   4.251   3.198
 1518TIP3    H2 4561   2.652   4.210   3.272
 1519TIP3   OH2 4562   3.450   4.925   4.486
 1519TIP3    H1 4563   3.430   4.994   4.423
 1519TIP3    H2 4564   3.381   4.933   4.552
 1520TIP3   OH2 4565   2.674   4.491   0.200
 1520TIP3    H1 4566   2.598   4.436   0.217
 1520TIP3    H2 4567   2.735   4.472   0.271
 1521TIP3   OH2 4568   3.585   1.023   4.066
 1521TIP3    H1 4569   3.571   0.967   4.142
 1521TIP3    H2 4570   3.636   0.969   4.005
 1522TIP3   OH2 4571   0.317   4.451   1.396
 1522TIP3    H1 4572   0.399   4.432   1.350
 1522TIP3    H2 4573   0.342   4.515   1.463
 1523TIP3   OH2 4574   5.772   3.890   2.225
 1523TIP3    H1 4575   5.678   3.903   2.217
 1523TIP3    H2 4576   5.792   3.820   2.163
 1524TIP3   OH2 4577   4.567   1.758   1.314
 1524TIP3    H1 4578   4.479   1.761   1.278
 1524TIP3    H2 4579   4.588   1.849   1.335
 1525TIP3   OH2 4580   2.347   5.431   0.399
 1525TIP3    H1 4581   2.430   5.386   0.383
 1525TIP3    H2 4582   2.322   5.466   0.313
 1526TIP3   OH2 4583   0.552   2.702   2.275
 1526TIP3    H1 4584   0.500   2.626   2.248
 1526TIP3    H2 4585   0.491   2.776   2.271
 1527TIP3   OH2 4586   2.894   2.054   0.051
 1527TIP3    H1 4587   2.969   1.995   0.059
 1527TIP3    H2 4588   2.841   2.016  -0.019
 1528TIP3   OH2 4589   5.815   2.257   5.105
 1528TIP3    H1 4590   5.855   2.186   5.055
 1528TIP3    H2 4591   5.790   2.322   5.038
 1529TIP3   OH2 4592   1.157   2.076   4.537
 1529TIP3    H1 4593   1.250   2.053   4.538
 1529TIP3    H2 4594   1.120   2.029   4.612
 1530TIP3   OH2 4595   0.832   0.114   1.629
 1530TIP3    H1 4596   0.811   0.101   1.721
 1530TIP3    H2 4597   0.909   0.171   1.629
 1531TIP3   OH2 4598   5.749   2.691   4.953
 1531TIP3    H1 4599   5.741   2.730   5.040
 1531TIP3    H2 4600   5.669   2.639   4.942
 1532TIP3   OH2 4601   1.819   3.354   2.107
 1532TIP3    H1 4602   1.822   3.272   2.059
 1532TIP3    H2 4603   1.908   3.365   2.140
 1533TIP3   OH2 4604   3.716   4.787   2.890
 1533TIP3    H1 4605   3.704   4.713   2.831
 1533TIP3    H2 4606   3.645   4.846   2.870
 1534TIP3   OH2 4607   0.403   0.745   3.757
 1534TIP3    H1 4608   0.489   0.703   3.760
 1534TIP3    H2 4609   0.344   0.682   3.797
 1535TIP3   OH2 4610   6.297   5.729   0.508
 1535TIP3    H1 4611   6.298   5.672   0.431
 1535TIP3    H2 4612   6.348   5.680   0.574
 1536TIP3   OH2 4613   4.882   5.949   2.010
 1536TIP3    H1 4614   4.912   5.887   1.944
 1536TIP3    H2 4615   4.915   5.915   2.093
 1537TIP3   OH2 4616   2.319   0.848   4.176
 1537TIP3    H1 4617   2.349   0.831   4.087
 1537TIP3    H2 4618   2.380   0.914   4.210
 1538TIP3   OH2 4619   2.000   4.163   0.065
 1538TIP3    H1 4620   1.963   4.165   0.154
 1538TIP3    H2 4621   1.946   4.223   0.015
 1539TIP3   OH2 4622   0.352   2.060   0.653
 1539TIP3    H1 4623   0.276   2.028   0.701
 1539TIP3    H2 4624   0.389   1.982   0.611
 1540TIP3   OH2 4625   1.542   5.795   1.710
 1540TIP3    H1 4626   1.524   5.728   1.645
 1540TIP3    H2 4627   1.558   5.746   1.791
 1541TIP3   OH2 4628   2.653   1.688   0.620
 1541TIP3    H1 4629   2.590   1.622   0.591
 1541TIP3    H2 4630   2.610   1.771   0.602
 1542TIP3   OH2 4631   5.960   5.786   1.758
 1542TIP3    H1 4632   6.050   5.805   1.731
 1542TIP3    H2 4633   5.967   5.757   1.849
 1543TIP3   OH2 4634   6.333   3.422   1.214
 1543TIP3    H1 4635   6.355   3.441   1.305
 1543TIP3    H2 4636   6.359   3.331   1.201
 1544TIP3   OH2 4637   5.733   2.984   4.459
 1544TIP3    H1 4638   5.812   2.951   4.417
 1544TIP3    H2 4639   5.662   2.959   4.400
 1545TIP3   OH2 4640   2.204   3.306   3.918
 1545TIP3    H1 4641   2.271   3.371   3.899
 1545TIP3    H2 4642   2.149   3.304   3.840
 1546TIP3   OH2 4643   0.067   4.072   0.210
 1546TIP3    H1 4644   0.124   4.131   0.258
 1546TIP3    H2 4645  -0.006   4.055   0.269
 1547TIP3   OH2 4646   0.435   1.622   2.335
 1547TIP3    H1 4647   0.496   1.620   2.408
 1547TIP3    H2 4648   0.355   1.584   2.369
 1548TIP3   OH2 4649   2.331   3.728   2.002
 1548TIP3    H1 4650   2.339   3.734   1.907
 1548TIP3    H2 4651   2.335   3.634   2.020
 1549TIP3   OH2 4652   2.027   4.245   4.591
 1549TIP3    H1 4653   1.988   4.218   4.674
 1549TIP3    H2 4654   2.113   4.203   4.591
 1550TIP3   OH2 4655   4.013   0.171   4.377
 1550TIP3    H1 4656   4.025   0.077   4.374
 1550TIP3    H2 4657   4.027   0.195   4.469
 1551TIP3   OH2 4658   2.650   4.689   1.167
 1551TIP3    H1 4659   2.705   4.732   1.100
 1551TIP3    H2 4660   2.571   4.664   1.120
 1552TIP3   OH2 4661   4.203   3.018   3.522
 1552TIP3    H1 4662   4.229   2.950   3.460
 1552TIP3    H2 4663   4.267   3.012   3.593
 1553TIP3   OH2 4664   3.313   5.404   3.993
 1553TIP3    H1 4665   3.400   5.377   4.021
 1553TIP3    H2 4666   3.319   5.410   3.898
 1554TIP3   OH2 4667   4.066   2.780   1.949
 1554TIP3    H1 4668   3.974   2.802   1.943
 1554TIP3    H2 4669   4.079   2.756   2.041
 1555TIP3   OH2 4670   1.988   1.662   4.493
 1555TIP3    H1 4671   2.033   1.691   4.573
 1555TIP3    H2 4672   2.035   1.583   4.466
 1556TIP3   OH2 4673   0.440   1.830   0.551
 1556TIP3    H1 4674   0.502   1.853   0.481
 1556TIP3    H2 4675   0.474   1.748   0.586
 1557TIP3   OH2 4676   1.860   4.917   1.993
 1557TIP3    H1 4677   1.768   4.942   2.000
 1557TIP3    H2 4678   1.889   4.952   1.909
 1558TIP3   OH2 4679   0.950   4.962   4.518
 1558TIP3    H1 4680   0.912   4.945   4.432
 1558TIP3    H2 4681   0.875   4.983   4.573
 1559TIP3   OH2 4682   1.035   5.418   2.796
 1559TIP3    H1 4683   1.053   5.412   2.890
 1559TIP3    H2 4684   1.008   5.330   2.771
 1560TIP3   OH2 4685   4.807   2.552   2.215
 1560TIP3    H1 4686   4.778   2.594   2.134
 1560TIP3    H2 4687   4.901   2.541   2.205
 1561TIP3   OH2 4688   0.199   4.705   0.123
 1561TIP3    H1 4689   0.200   4.726   0.216
 1561TIP3    H2 4690   0.252   4.626   0.116
 1562TIP3   OH2 4691   4.787   3.539   1.929
 1562TIP3    H1 4692   4.816   3.585   2.008
 1562TIP3    H2 4693   4.746   3.459   1.962
 1563TIP3   OH2 4694   6.310   0.333   0.865
 1563TIP3    H1 4695   6.350   0.283   0.794
 1563TIP3    H2 4696   6.311   0.424   0.834
 1564TIP3   OH2 4697   0.155   0.752   1.707
 1564TIP3    H1 4698   0.249   0.767   1.715
 1564TIP3    H2 4699   0.116   0.808   1.774
 1565TIP3   OH2 4700   2.811   4.098   3.659
 1565TIP3    H1 4701   2.861   4.179   3.672
 1565TIP3    H2 4702   2.731   4.126   3.613
 1566TIP3   OH2 4703   1.241   1.126   4.346
 1566TIP3    H1 4704   1.179   1.054   4.359
 1566TIP3    H2 4705   1.264   1.154   4.434
 1567TIP3   OH2 4706   1.135   3.908   3.422
 1567TIP3    H1 4707   1.175   3.832   3.462
 1567TIP3    H2 4708   1.199   3.938   3.357
 1568TIP3   OH2 4709   4.017   3.973   0.739
 1568TIP3    H1 4710   3.941   3.998   0.791
 1568TIP3    H2 4711   4.065   4.055   0.726
 1569TIP3   OH2 4712   4.297   5.825   4.948
 1569TIP3    H1 4713   4.347   5.903   4.923
 1569TIP3    H2 4714   4.316   5.814   5.041
 1570TIP3   OH2 4715   4.833   3.773   1.008
 1570TIP3    H1 4716   4.812   3.680   1.012
 1570TIP3    H2 4717   4.914   3.782   1.058
 1571TIP3   OH2 4718   0.303   0.059   4.563
 1571TIP3    H1 4719   0.318  -0.036   4.562
 1571TIP3    H2 4720   0.246   0.073   4.638
 1572TIP3   OH2 4721   2.854   3.544   2.894
 1572TIP3    H1 4722   2.764   3.540   2.927
 1572TIP3    H2 4723   2.854   3.619   2.834
 1573TIP3   OH2 4724   6.169   0.670   2.701
 1573TIP3    H1 4725   6.113   0.673   2.624
 1573TIP3    H2 4726   6.255   0.647   2.666
 1574TIP3   OH2 4727   2.477   3.371   4.214
 1574TIP3    H1 4728   2.512   3.385   4.302
 1574TIP3    H2 4729   2.432   3.286   4.220
 1575TIP3   OH2 4730   5.219   3.271   2.018
 1575TIP3    H1 4731   5.210   3.200   1.954
 1575TIP3    H2 4732   5.195   3.350   1.970
 1576TIP3   OH2 4733   5.652   0.579   1.505
 1576TIP3    H1 4734   5.628   0.670   1.487
 1576TIP3    H2 4735   5.747   0.576   1.493
 1577TIP3   OH2 4736   2.102   3.377   2.300
 1577TIP3    H1 4737   2.113   3.471   2.287
 1577TIP3    H2 4738   2.137   3.360   2.387
 1578TIP3   OH2 4739   5.974   3.181   4.702
 1578TIP3    H1 4740   5.944   3.221   4.783
 1578TIP3    H2 4741   5.959   3.087   4.714
 1579TIP3   OH2 4742   3.920   5.939   2.531
 1579TIP3    H1 4743   3.885   5.895   2.609
 1579TIP3    H2 4744   3.844   5.951   2.474
 1580TIP3   OH2 4745   1.109   4.638   3.349
 1580TIP3    H1 4746   1.110   4.662   3.257
 1580TIP3    H2 4747   1.143   4.715   3.395
 1581TIP3   OH2 4748   5.109   0.543   4.380
 1581TIP3    H1 4749   5.166   0.469   4.358
 1581TIP3    H2 4750   5.162   0.621   4.363
 1582TIP3   OH2 4751   0.409   5.973   2.091
 1582TIP3    H1 4752   0.347   5.918   2.139
 1582TIP3    H2 4753   0.444   5.916   2.022
 1583TIP3   OH2 4754   6.276   5.654   4.042
 1583TIP3    H1 4755   6.263   5.594   4.115
 1583TIP3    H2 4756   6.188   5.678   4.015
 1584TIP3   OH2 4757   2.079   3.925   2.444
 1584TIP3    H1 4758   2.151   3.890   2.497
 1584TIP3    H2 4759   2.001   3.883   2.480
 1585TIP3   OH2 4760   5.605   1.981   3.578
 1585TIP3    H1 4761   5.595   2.066   3.535
 1585TIP3    H2 4762   5.610   2.002   3.671
 1586TIP3   OH2 4763   0.683   4.717   2.375
 1586TIP3    H1 4764   0.762   4.719   2.321
 1586TIP3    H2 4765   0.673   4.806   2.407
 1587TIP3   OH2 4766   3.177   2.371   3.886
 1587TIP3    H1 4767   3.199   2.406   3.800
 1587TIP3    H2 4768   3.148   2.282   3.870
 1588TIP3   OH2 4769   5.047   3.640   4.117
 1588TIP3    H1 4770   4.980   3.654   4.183
 1588TIP3    H2 4771   5.067   3.728   4.084
 1589TIP3   OH2 4772   6.273   2.272   4.023
 1589TIP3    H1 4773   6.321   2.230   4.095
 1589TIP3    H2 4774   6.247   2.200   3.966
 1590TIP3   OH2 4775   0.781   3.066   3.483
 1590TIP3    H1 4776   0.797   3.062   3.388
 1590TIP3    H2 4777   0.689   3.041   3.492
 1591TIP3   OH2 4778   2.977   2.192   2.038
 1591TIP3    H1 4779   2.909   2.168   2.101
 1591TIP3    H2 4780   2.941   2.269   1.992
 1592TIP3   OH2 4781   3.678   3.094   3.099
 1592TIP3    H1 4782   3.593   3.050   3.113
 1592TIP3    H2 4783   3.657   3.172   3.049
 1593TIP3   OH2 4784   3.718   2.050   3.155
 1593TIP3    H1 4785   3.786   1.989   3.125
 1593TIP3    H2 4786   3.664   1.999   3.215
 1594TIP3   OH2 4787   0.496   3.090   3.573
 1594TIP3    H1 4788   0.513   3.065   3.664
 1594TIP3    H2 4789   0.491   3.008   3.525
 1595TIP3   OH2 4790   1.060   2.517   0.713
 1595TIP3    H1 4791   1.078   2.611   0.713
 1595TIP3    H2 4792   1.016   2.500   0.796
 1596TIP3   OH2 4793   3.520   0.232   1.692
 1596TIP3    H1 4794   3.487   0.318   1.718
 1596TIP3    H2 4795   3.614   0.237   1.704
 1597TIP3   OH2 4796   4.298   0.082   1.970
 1597TIP3    H1 4797   4.371   0.074   1.908
 1597TIP3    H2 4798   4.319   0.021   2.040
 1598TIP3   OH2 4799   1.754   2.783   0.595
 1598TIP3    H1 4800   1.724   2.871   0.617
 1598TIP3    H2 4801   1.675   2.729   0.603
 1599TIP3   OH2 4802   4.041   1.389   4.461
 1599TIP3    H1 4803   3.967   1.329   4.472
 1599TIP3    H2 4804   4.063   1.416   4.550
 1600TIP3   OH2 4805   4.191   2.943   4.030
 1600TIP3    H1 4806   4.240   2.864   4.008
 1600TIP3    H2 4807   4.126   2.951   3.960
 1601TIP3   OH2 4808   5.651   3.613   5.027
 1601TIP3    H1 4809   5.584   3.647   5.086
 1601TIP3    H2 4810   5.732   3.654   5.057
 1602TIP3   OH2 4811   5.303   3.045   4.847
 1602TIP3    H1 4812   5.384   3.052   4.898
 1602TIP3    H2 4813   5.233   3.053   4.912
 1603TIP3   OH2 4814   2.767   3.708   4.694
 1603TIP3    H1 4815   2.685   3.754   4.680
 1603TIP3    H2 4816   2.825   3.773   4.735
 1604TIP3   OH2 4817   4.467   0.033   2.181
 1604TIP3    H1 4818   4.507   0.117   2.161
 1604TIP3    H2 4819   4.535  -0.032   2.162
 1605TIP3   OH2 4820   1.761   4.928   2.397
 1605TIP3    H1 4821   1.676   4.926   2.442
 1605TIP3    H2 4822   1.775   4.839   2.367
 1606TIP3   OH2 4823   6.094   0.133   5.037
 1606TIP3    H1 4824   6.026   0.065   5.041
 1606TIP3    H2 4825   6.128   0.127   4.948
 1607TIP3   OH2 4826   2.473   2.113   0.449
 1607TIP3    H1 4827   2.561   2.130   0.415
 1607TIP3    H2 4828   2.419   2.100   0.370
 1608TIP3   OH2 4829   4.983   2.660   1.605
 1608TIP3    H1 4830   4.993   2.566   1.591
 1608TIP3    H2 4831   5.026   2.701   1.529
 1609TIP3   OH2 4832   4.113   3.968   4.527
 1609TIP3    H1 4833   4.118   4.049   4.577
 1609TIP3    H2 4834   4.118   3.899   4.593
 1610TIP3   OH2 4835   6.199   3.457   1.496
 1610TIP3    H1 4836   6.153   3.503   1.566
 1610TIP3    H2 4837   6.283   3.501   1.490
 1611TIP3   OH2 4838   2.275   3.809   4.444
 1611TIP3    H1 4839   2.304   3.801   4.353
 1611TIP3    H2 4840   2.194   3.861   4.438
 1612TIP3   OH2 4841   4.174   4.355   3.904
 1612TIP3    H1 4842   4.083   4.372   3.928
 1612TIP3    H2 4843   4.200   4.280   3.957
 1613TIP3   OH2 4844   5.762   0.816   0.109
 1613TIP3    H1 4845   5.714   0.883   0.158
 1613TIP3    H2 4846   5.732   0.733   0.146
 1614TIP3   OH2 4847   1.365   2.359   1.130
 1614TIP3    H1 4848   1.407   2.357   1.044
 1614TIP3    H2 4849   1.350   2.267   1.151
 1615TIP3   OH2 4850   2.748   4.777   3.718
 1615TIP3    H1 4851   2.657   4.769   3.747
 1615TIP3    H2 4852   2.742   4.821   3.634
 1616TIP3   OH2 4853   1.846   3.063   2.032
 1616TIP3    H1 4854   1.886   3.042   1.947
 1616TIP3    H2 4855   1.918   3.097   2.085
 1617TIP3   OH2 4856   0.486   2.315   3.862
 1617TIP3    H1 4857   0.572   2.282   3.836
 1617TIP3    H2 4858   0.436   2.237   3.884
 1618TIP3   OH2 4859   4.988   3.322   2.876
 1618TIP3    H1 4860   5.066   3.372   2.852
 1618TIP3    H2 4861   4.917   3.386   2.877
 1619TIP3   OH2 4862   4.259   4.544   2.160
 1619TIP3    H1 4863   4.171   4.510   2.175
 1619TIP3    H2 4864   4.249   4.639   2.161
 1620TIP3   OH2 4865   3.499   3.024   4.313
 1620TIP3    H1 4866   3.543   2.956   4.365
 1620TIP3    H2 4867   3.411   3.030   4.352
 1621TIP3   OH2 4868   5.794   3.608   1.236
 1621TIP3    H1 4869   5.767   3.556   1.161
 1621TIP3    H2 4870   5.889   3.614   1.229
 1622TIP3   OH2 4871   5.913   0.292   4.669
 1622TIP3    H1 4872   5.883   0.215   4.716
 1622TIP3    H2 4873   5.927   0.358   4.737
 1623TIP3   OH2 4874   0.415   3.316   3.461
 1623TIP3    H1 4875   0.493   3.371   3.451
 1623TIP3    H2 4876   0.447   3.237   3.504
 1624TIP3   OH2 4877   1.967   0.702   3.133
 1624TIP3    H1 4878   2.052   0.658   3.131
 1624TIP3    H2 4879   1.974   0.763   3.207
 1625TIP3   OH2 4880   2.378   3.306   0.857
 1625TIP3    H1 4881   2.320   3.231   0.850
 1625TIP3    H2 4882   2.337   3.362   0.924
 1626TIP3   OH2 4883   0.525   3.370   4.549
 1626TIP3    H1 4884   0.466   3.394   4.478
 1626TIP3    H2 4885   0.534   3.449   4.602
 1627TIP3   OH2 4886   6.113   0.742   1.037
 1627TIP3    H1 4887   6.170   0.670   1.064
 1627TIP3    H2 4888   6.098   0.792   1.118
 1628TIP3   OH2 4889   0.187   0.583   3.356
 1628TIP3    H1 4890   0.262   0.529   3.384
 1628TIP3    H2 4891   0.181   0.652   3.422
 1629TIP3   OH2 4892   5.480   5.803   3.973
 1629TIP3    H1 4893   5.557   5.828   4.025
 1629TIP3    H2 4894   5.465   5.711   3.996
 1630TIP3   OH2 4895   0.890   3.701   5.029
 1630TIP3    H1 4896   0.808   3.703   5.078
 1630TIP3    H2 4897   0.956   3.672   5.093
 1631TIP3   OH2 4898   1.847   0.099   0.141
 1631TIP3    H1 4899   1.875   0.049   0.217
 1631TIP3    H2 4900   1.773   0.151   0.172
 1632TIP3   OH2 4901   4.473   2.449   0.996
 1632TIP3    H1 4902   4.414   2.518   0.966
 1632TIP3    H2 4903   4.439   2.423   1.082
 1633TIP3   OH2 4904   4.423   1.435   4.900
 1633TIP3    H1 4905   4.408   1.341   4.914
 1633TIP3    H2 4906   4.355   1.478   4.952
 1634TIP3   OH2 4907   0.107   0.259   0.626
 1634TIP3    H1 4908   0.176   0.291   0.567
 1634TIP3    H2 4909   0.087   0.171   0.595
 1635TIP3   OH2 4910   2.694   3.451   3.653
 1635TIP3    H1 4911   2.669   3.465   3.744
 1635TIP3    H2 4912   2.787   3.427   3.657
 1636TIP3   OH2 4913   2.122   2.385   2.168
 1636TIP3    H1 4914   2.099   2.392   2.075
 1636TIP3    H2 4915   2.208   2.426   2.174
 1637TIP3   OH2 4916   3.616   1.574   1.716
 1637TIP3    H1 4917   3.602   1.614   1.802
 1637TIP3    H2 4918   3.607   1.647   1.654
 1638TIP3   OH2 4919   3.998   1.913   3.911
 1638TIP3    H1 4920   3.936   1.927   3.982
 1638TIP3    H2 4921   4.053   1.841   3.941
 1639TIP3   OH2 4922   5.781   0.128   2.931
 1639TIP3    H1 4923   5.805   0.045   2.972
 1639TIP3    H2 4924   5.863   0.166   2.901
 1640TIP3   OH2 4925   4.969   2.909   0.262
 1640TIP3    H1 4926   4.988   2.975   0.194
 1640TIP3    H2 4927   5.053   2.865   0.276
 1641TIP3   OH2 4928   4.825   5.602   2.295
 1641TIP3    H1 4929   4.797   5.550   2.219
 1641TIP3    H2 4930   4.823   5.539   2.368
 1642TIP3   OH2 4931   5.965   4.464   0.668
 1642TIP3    H1 4932   6.040   4.480   0.610
 1642TIP3    H2 4933   5.998   4.400   0.732
 1643TIP3   OH2 4934   5.088   4.414   4.700
 1643TIP3    H1 4935   5.163   4.453   4.656
 1643TIP3    H2 4936   5.096   4.443   4.791
 1644TIP3   OH2 4937   4.380   1.907   3.414
 1644TIP3    H1 4938   4.365   1.941   3.325
 1644TIP3    H2 4939   4.423   1.979   3.459
 1645TIP3   OH2 4940   5.241   4.247   1.377
 1645TIP3    H1 4941   5.203   4.335   1.375
 1645TIP3    H2 4942   5.314   4.250   1.316
 1646TIP3   OH2 4943   0.920   4.409   4.346
 1646TIP3    H1 4944   0.949   4.390   4.257
 1646TIP3    H2 4945   0.838   4.456   4.335
 1647TIP3   OH2 4946   6.360   3.181   2.051
 1647TIP3    H1 4947   6.449   3.149   2.034
 1647TIP3    H2 4948   6.373   3.256   2.109
 1648TIP3   OH2 4949   4.126   0.091   1.334
 1648TIP3    H1 4950   4.145   0.005   1.371
 1648TIP3    H2 4951   4.058   0.075   1.269
 1649TIP3   OH2 4952   3.040   1.362   2.967
 1649TIP3    H1 4953   3.120   1.310   2.969
 1649TIP3    H2 4954   3.069   1.452   2.956
 1650TIP3   OH2 4955   5.090   0.247  -0.009
 1650TIP3    H1 4956   5.091   0.224   0.084
 1650TIP3    H2 4957   5.179   0.279  -0.026
 1651TIP3   OH2 4958   1.607   3.133   1.631
 1651TIP3    H1 4959   1.631   3.222   1.653
 1651TIP3    H2 4960   1.572   3.138   1.542
 1652TIP3   OH2 4961   3.511   2.954   1.184
 1652TIP3    H1 4962   3.530   2.867   1.220
 1652TIP3    H2 4963   3.419   2.969   1.204
 1653TIP3   OH2 4964   6.054   1.292   1.084
 1653TIP3    H1 4965   6.015   1.315   1.000
 1653TIP3    H2 4966   6.081   1.375   1.123
 1654TIP3   OH2 4967   5.709   4.460   3.080
 1654TIP3    H1 4968   5.747   4.460   2.992
 1654TIP3    H2 4969   5.722   4.371   3.112
 1655TIP3   OH2 4970   3.673   2.278   2.746
 1655TIP3    H1 4971   3.714   2.192   2.758
 1655TIP3    H2 4972   3.579   2.261   2.754
 1656TIP3   OH2 4973   3.228   2.664   3.399
 1656TIP3    H1 4974   3.301   2.621   3.445
 1656TIP3    H2 4975   3.184   2.593   3.352
 1657TIP3   OH2 4976   3.057   1.437   5.073
 1657TIP3    H1 4977   3.054   1.532   5.065
 1657TIP3    H2 4978   3.136   1.411   5.026
 1658TIP3   OH2 4979   4.579   0.452   2.910
 1658TIP3    H1 4980   4.665   0.482   2.939
 1658TIP3    H2 4981   4.597   0.396   2.834
 1659TIP3   OH2 4982   0.522   5.323   1.147
 1659TIP3    H1 4983   0.483   5.410   1.133
 1659TIP3    H2 4984   0.466   5.282   1.212
 1660TIP3   OH2 4985   3.804   0.519   1.432
 1660TIP3    H1 4986   3.744   0.463   1.382
 1660TIP3    H2 4987   3.748   0.588   1.468
 1661TIP3   OH2 4988   1.172   5.369   0.625
 1661TIP3    H1 4989   1.095   5.388   0.679
 1661TIP3    H2 4990   1.230   5.319   0.682
 1662TIP3   OH2 4991   2.531   3.036   4.146
 1662TIP3    H1 4992   2.537   2.941   4.134
 1662TIP3    H2 4993   2.444   3.050   4.184
 1663TIP3   OH2 4994   1.190   2.980   1.011
 1663TIP3    H1 4995   1.115   3.019   1.055
 1663TIP3    H2 4996   1.260   2.983   1.077
 1664TIP3   OH2 4997   1.224   2.899   2.393
 1664TIP3    H1 4998   1.248   2.942   2.311
 1664TIP3    H2 4999   1.306   2.891   2.442
 1665TIP3   OH2 5000   0.985   4.762   4.770
 1665TIP3    H1 5001   0.968   4.779   4.677
 1665TIP3    H2 5002   0.922   4.695   4.794
 1666TIP3   OH2 5003   5.130   3.767   3.003
 1666TIP3    H1 5004   5.163   3.760   2.914
 1666TIP3    H2 5005   5.161   3.852   3.033
 1667TIP3   OH2 5006   1.080   5.383   4.429
 1667TIP3    H1 5007   0.997   5.375   4.383
 1667TIP3    H2 5008   1.060   5.362   4.520
 1668TIP3   OH2 5009   3.351  -0.040   2.301
 1668TIP3    H1 5010   3.353   0.053   2.325
 1668TIP3    H2 5011   3.442  -0.061   2.282
 1669TIP3   OH2 5012   2.952   2.462   0.938
 1669TIP3    H1 5013   2.882   2.475   1.002
 1669TIP3    H2 5014   3.003   2.543   0.941
 1670TIP3   OH2 5015   3.265   3.229   0.070
 1670TIP3    H1 5016   3.192   3.251   0.128
 1670TIP3    H2 5017   3.230   3.240  -0.018
 1671TIP3   OH2 5018   0.371   5.684   2.424
 1671TIP3    H1 5019   0.348   5.638   2.343
 1671TIP3    H2 5020   0.339   5.773   2.411
 1672TIP3   OH2 5021   6.117   1.889   3.040
 1672TIP3    H1 5022   6.079   1.857   3.121
 1672TIP3    H2 5023   6.144   1.810   2.992
 1673TIP3   OH2 5024   5.907   3.150   1.353
 1673TIP3    H1 5025   5.977   3.166   1.291
 1673TIP3    H2 5026   5.884   3.058   1.340
 1674TIP3   OH2 5027   3.080   0.817   4.383
 1674TIP3    H1 5028   3.171   0.797   4.404
 1674TIP3    H2 5029   3.085   0.881   4.313
 1675TIP3   OH2 5030   4.901   3.650   0.430
 1675TIP3    H1 5031   4.873   3.696   0.510
 1675TIP3    H2 5032   4.975   3.702   0.398
 1676TIP3   OH2 5033   1.888   0.677   1.349
 1676TIP3    H1 5034   1.862   0.732   1.275
 1676TIP3    H2 5035   1.893   0.738   1.423
 1677TIP3   OH2 5036   0.178   3.259   1.411
 1677TIP3    H1 5037   0.113   3.272   1.480
 1677TIP3    H2 5038   0.229   3.340   1.410
 1678TIP3   OH2 5039   2.695   1.616   2.585
 1678TIP3    H1 5040   2.666   1.573   2.665
 1678TIP3    H2 5041   2.677   1.709   2.600
 1679TIP3   OH2 5042   5.085   2.456   1.377
 1679TIP3    H1 5043   5.059   2.445   1.469
 1679TIP3    H2 5044   5.010   2.424   1.327
 1680TIP3   OH2 5045   2.596   2.669   0.687
 1680TIP3    H1 5046   2.529   2.653   0.753
 1680TIP3    H2 5047   2.633   2.582   0.669
 1681TIP3   OH2 5048   1.259   4.085   0.203
 1681TIP3    H1 5049   1.189   4.023   0.221
 1681TIP3    H2 5050   1.329   4.060   0.263
 1682TIP3   OH2 5051   3.443   4.096   0.016
 1682TIP3    H1 5052   3.463   4.142   0.098
 1682TIP3    H2 5053   3.528   4.091  -0.029
 1683TIP3   OH2 5054   1.108   5.298   1.297
 1683TIP3    H1 5055   1.140   5.379   1.336
 1683TIP3    H2 5056   1.168   5.231   1.331
 1684TIP3   OH2 5057   3.935   0.532   2.516
 1684TIP3    H1 5058   3.884   0.473   2.571
 1684TIP3    H2 5059   3.989   0.582   2.578
 1685TIP3   OH2 5060   5.968   2.000   0.753
 1685TIP3    H1 5061   5.965   1.924   0.695
 1685TIP3    H2 5062   6.061   2.024   0.756
 1686TIP3   OH2 5063   3.853   4.530   1.848
 1686TIP3    H1 5064   3.879   4.590   1.918
 1686TIP3    H2 5065   3.829   4.450   1.893
 1687TIP3   OH2 5066   4.691   0.270   4.628
 1687TIP3    H1 5067   4.672   0.337   4.693
 1687TIP3    H2 5068   4.767   0.223   4.663
 1688TIP3   OH2 5069   6.160   2.882   2.668
 1688TIP3    H1 5070   6.173   2.974   2.645
 1688TIP3    H2 5071   6.242   2.856   2.711
 1689TIP3   OH2 5072   5.660   4.415   0.954
 1689TIP3    H1 5073   5.704   4.373   1.027
 1689TIP3    H2 5074   5.671   4.355   0.881
 1690TIP3   OH2 5075   4.588   4.893   4.296
 1690TIP3    H1 5076   4.683   4.900   4.296
 1690TIP3    H2 5077   4.570   4.804   4.267
 1691TIP3   OH2 5078   1.110   5.412   3.717
 1691TIP3    H1 5079   1.060   5.418   3.798
 1691TIP3    H2 5080   1.055   5.455   3.651
 1692TIP3   OH2 5081   1.278   1.432   0.874
 1692TIP3    H1 5082   1.234   1.355   0.837
 1692TIP3    H2 5083   1.241   1.506   0.827
 1693TIP3   OH2 5084   2.162   0.191   3.979
 1693TIP3    H1 5085   2.238   0.249   3.971
 1693TIP3    H2 5086   2.110   0.229   4.050
 1694TIP3   OH2 5087   6.200   3.675   4.165
 1694TIP3    H1 5088   6.216   3.717   4.081
 1694TIP3    H2 5089   6.117   3.712   4.194
 1695TIP3   OH2 5090   3.734   3.590   0.351
 1695TIP3    H1 5091   3.720   3.607   0.445
 1695TIP3    H2 5092   3.819   3.547   0.348
 1696TIP3   OH2 5093   0.203   5.854   2.264
 1696TIP3    H1 5094   0.190   5.930   2.320
 1696TIP3    H2 5095   0.124   5.800   2.279
 1697TIP3   OH2 5096   1.040   1.885   1.053
 1697TIP3    H1 5097   1.057   1.976   1.029
 1697TIP3    H2 5098   0.979   1.891   1.127
 1698TIP3   OH2 5099   1.723   4.967   1.189
 1698TIP3    H1 5100   1.674   4.986   1.269
 1698TIP3    H2 5101   1.691   4.880   1.163
 1699TIP3   OH2 5102   0.823   5.218   3.959
 1699TIP3    H1 5103   0.756   5.185   3.900
 1699TIP3    H2 5104   0.777   5.233   4.041
 1700TIP3   OH2 5105   5.471   2.666   1.616
 1700TIP3    H1 5106   5.543   2.611   1.648
 1700TIP3    H2 5107   5.499   2.756   1.636
 1701TIP3   OH2 5108   2.686   0.107   4.129
 1701TIP3    H1 5109   2.752   0.101   4.199
 1701TIP3    H2 5110   2.686   0.020   4.089
 1702TIP3   OH2 5111   3.225   5.079   0.273
 1702TIP3    H1 5112   3.186   5.092   0.187
 1702TIP3    H2 5113   3.198   4.991   0.298
 1703TIP3   OH2 5114   3.350   1.170   4.081
 1703TIP3    H1 5115   3.436   1.131   4.066
 1703TIP3    H2 5116   3.303   1.105   4.135
 1704TIP3   OH2 5117   2.973   5.378   4.171
 1704TIP3    H1 5118   2.972   5.346   4.261
 1704TIP3    H2 5119   2.961   5.473   4.180
 1705TIP3   OH2 5120   5.327   1.052   4.914
 1705TIP3    H1 5121   5.355   1.013   4.996
 1705TIP3    H2 5122   5.231   1.050   4.918
 1706TIP3   OH2 5123   4.362   2.994   2.410
 1706TIP3    H1 5124   4.282   3.022   2.455
 1706TIP3    H2 5125   4.333   2.929   2.346
 1707TIP3   OH2 5126   6.195   3.758   2.031
 1707TIP3    H1 5127   6.190   3.779   2.124
 1707TIP3    H2 5128   6.227   3.838   1.989
 1708TIP3   OH2 5129   0.963   1.465   3.190
 1708TIP3    H1 5130   1.002   1.388   3.232
 1708TIP3    H2 5131   1.038   1.514   3.157
 1709TIP3   OH2 5132   4.802   2.130   2.605
 1709TIP3    H1 5133   4.853   2.208   2.581
 1709TIP3    H2 5134   4.867   2.062   2.619
 1710TIP3   OH2 5135   1.285   0.799   1.025
 1710TIP3    H1 5136   1.246   0.835   0.944
 1710TIP3    H2 5137   1.367   0.759   0.996
 1711TIP3   OH2 5138   1.648   4.846   4.907
 1711TIP3    H1 5139   1.626   4.754   4.922
 1711TIP3    H2 5140   1.622   4.863   4.817
 1712TIP3   OH2 5141   3.635   1.519   2.455
 1712TIP3    H1 5142   3.543   1.492   2.460
 1712TIP3    H2 5143   3.673   1.488   2.537
 1713TIP3   OH2 5144   1.240   5.924   5.014
 1713TIP3    H1 5145   1.184   5.864   4.966
 1713TIP3    H2 5146   1.194   6.007   5.012
 1714TIP3   OH2 5147   2.763   1.095   3.128
 1714TIP3    H1 5148   2.832   1.159   3.147
 1714TIP3    H2 5149   2.682   1.138   3.152
 1715TIP3   OH2 5150   0.532   5.271   2.335
 1715TIP3    H1 5151   0.491   5.294   2.252
 1715TIP3    H2 5152   0.591   5.343   2.355
 1716TIP3   OH2 5153   1.025   4.163   2.107
 1716TIP3    H1 5154   1.101   4.212   2.139
 1716TIP3    H2 5155   0.989   4.121   2.185
 1717TIP3   OH2 5156   3.000   0.594   0.475
 1717TIP3    H1 5157   2.977   0.536   0.403
 1717TIP3    H2 5158   3.020   0.678   0.433
 1718TIP3   OH2 5159   3.140   0.843   1.794
 1718TIP3    H1 5160   3.161   0.904   1.724
 1718TIP3    H2 5161   3.098   0.897   1.861
 1719TIP3   OH2 5162   3.831   3.052   3.890
 1719TIP3    H1 5163   3.784   3.133   3.868
 1719TIP3    H2 5164   3.807   3.034   3.981
 1720TIP3   OH2 5165   0.700   0.441   2.079
 1720TIP3    H1 5166   0.645   0.503   2.031
 1720TIP3    H2 5167   0.790   0.469   2.062
 1721TIP3   OH2 5168   3.947   5.485   3.962
 1721TIP3    H1 5169   3.875   5.519   4.015
 1721TIP3    H2 5170   3.965   5.555   3.899
 1722TIP3   OH2 5171   5.530   3.145   3.779
 1722TIP3    H1 5172   5.580   3.087   3.837
 1722TIP3    H2 5173   5.448   3.160   3.826
 1723TIP3   OH2 5174   5.417   1.613   1.733
 1723TIP3    H1 5175   5.390   1.661   1.655
 1723TIP3    H2 5176   5.348   1.631   1.797
 1724TIP3   OH2 5177   5.170   1.082   1.368
 1724TIP3    H1 5178   5.079   1.082   1.398
 1724TIP3    H2 5179   5.217   1.132   1.435
 1725TIP3   OH2 5180   5.285   0.180   3.942
 1725TIP3    H1 5181   5.216   0.209   3.882
 1725TIP3    H2 5182   5.256   0.210   4.028
 1726TIP3   OH2 5183   2.096   1.685   4.748
 1726TIP3    H1 5184   2.094   1.605   4.800
 1726TIP3    H2 5185   2.066   1.754   4.808
 1727TIP3   OH2 5186   0.044   1.137   3.369
 1727TIP3    H1 5187   0.085   1.171   3.449
 1727TIP3    H2 5188  -0.013   1.209   3.340
 1728TIP3   OH2 5189   4.946   2.218   4.070
 1728TIP3    H1 5190   4.960   2.259   3.984
 1728TIP3    H2 5191   5.011   2.147   4.073
 1729TIP3   OH2 5192   3.877   2.840   3.529
 1729TIP3    H1 5193   3.875   2.933   3.553
 1729TIP3    H2 5194   3.913   2.839   3.441
 1730TIP3   OH2 5195   1.183   4.785   0.398
 1730TIP3    H1 5196   1.135   4.728   0.459
 1730TIP3    H2 5197   1.165   4.748   0.312
 1731TIP3   OH2 5198   0.018   4.134   2.767
 1731TIP3    H1 5199  -0.076   4.149   2.754
 1731TIP3    H2 5200   0.022   4.051   2.814
 1732TIP3   OH2 5201   6.083   5.106   0.430
 1732TIP3    H1 5202   6.148   5.039   0.451
 1732TIP3    H2 5203   6.080   5.161   0.508
 1733TIP3   OH2 5204   0.162   4.248   3.824
 1733TIP3    H1 5205   0.174   4.281   3.735
 1733TIP3    H2 5206   0.183   4.155   3.818
 1734TIP3   OH2 5207   2.867   4.414   3.283
 1734TIP3    H1 5208   2.937   4.459   3.330
 1734TIP3    H2 5209   2.792   4.472   3.291
 1735TIP3   OH2 5210   0.511   2.005   4.271
 1735TIP3    H1 5211   0.595   1.962   4.254
 1735TIP3    H2 5212   0.446   1.937   4.258
 1736TIP3   OH2 5213   6.111   0.762   5.132
 1736TIP3    H1 5214   6.110   0.857   5.143
 1736TIP3    H2 5215   6.079   0.729   5.216
 1737TIP3   OH2 5216   3.976   2.639   1.048
 1737TIP3    H1 5217   4.020   2.638   0.963
 1737TIP3    H2 5218   4.043   2.666   1.110
 1738TIP3   OH2 5219   5.097   2.234   0.975
 1738TIP3    H1 5220   5.075   2.174   0.904
 1738TIP3    H2 5221   5.140   2.308   0.931
 1739TIP3   OH2 5222   4.312   1.065   1.790
 1739TIP3    H1 5223   4.354   0.980   1.777
 1739TIP3    H2 5224   4.233   1.045   1.841
 1740TIP3   OH2 5225   2.017   0.619   5.202
 1740TIP3    H1 5226   1.961   0.542   5.210
 1740TIP3    H2 5227   2.098   0.586   5.162
 1741TIP3   OH2 5228   1.544   2.707   3.585
 1741TIP3    H1 5229   1.456   2.668   3.585
 1741TIP3    H2 5230   1.562   2.727   3.493
 1742TIP3   OH2 5231   2.630   4.715   0.057
 1742TIP3    H1 5232   2.618   4.636   0.110
 1742TIP3    H2 5233   2.681   4.773   0.113
 1743TIP3   OH2 5234   3.594   1.759   3.908
 1743TIP3    H1 5235   3.514   1.780   3.957
 1743TIP3    H2 5236   3.635   1.688   3.957
 1744TIP3   OH2 5237   5.007   0.783   1.748
 1744TIP3    H1 5238   5.099   0.758   1.737
 1744TIP3    H2 5239   5.010   0.879   1.757
 1745TIP3   OH2 5240   0.772   5.563   3.743
 1745TIP3    H1 5241   0.734   5.484   3.705
 1745TIP3    H2 5242   0.843   5.587   3.684
 1746TIP3   OH2 5243   4.035   0.315   5.113
 1746TIP3    H1 5244   4.106   0.318   5.049
 1746TIP3    H2 5245   4.078   0.328   5.198
 1747TIP3   OH2 5246   6.276   4.872   4.995
 1747TIP3    H1 5247   6.264   4.884   5.090
 1747TIP3    H2 5248   6.313   4.784   4.987
 1748TIP3   OH2 5249   5.363   5.650   1.094
 1748TIP3    H1 5250   5.411   5.636   1.013
 1748TIP3    H2 5251   5.287   5.703   1.069
 1749TIP3   OH2 5252   3.321   0.276   2.291
 1749TIP3    H1 5253   3.239   0.319   2.316
 1749TIP3    H2 5254   3.351   0.323   2.214
 1750TIP3   OH2 5255   5.301   5.780   0.148
 1750TIP3    H1 5256   5.219   5.743   0.180
 1750TIP3    H2 5257   5.291   5.875   0.159
 1751TIP3   OH2 5258   4.831   2.456   1.843
 1751TIP3    H1 5259   4.822   2.550   1.859
 1751TIP3    H2 5260   4.749   2.418   1.875
 1752TIP3   OH2 5261   1.193   1.011   2.710
 1752TIP3    H1 5262   1.209   0.979   2.798
 1752TIP3    H2 5263   1.223   0.941   2.653
 1753TIP3   OH2 5264   2.692   5.000   3.926
 1753TIP3    H1 5265   2.728   4.996   4.014
 1753TIP3    H2 5266   2.728   5.080   3.888
 1754TIP3   OH2 5267   4.416   5.020   2.757
 1754TIP3    H1 5268   4.366   4.994   2.834
 1754TIP3    H2 5269   4.483   4.952   2.748
 1755TIP3   OH2 5270   2.272   0.929   5.134
 1755TIP3    H1 5271   2.321   1.011   5.126
 1755TIP3    H2 5272   2.185   0.950   5.099
 1756TIP3   OH2 5273   4.558   5.546   2.029
 1756TIP3    H1 5274   4.555   5.604   2.105
 1756TIP3    H2 5275   4.489   5.482   2.045
 1757TIP3   OH2 5276   4.084   0.002   3.511
 1757TIP3    H1 5277   3.993  -0.027   3.519
 1757TIP3    H2 5278   4.079   0.098   3.510
 1758TIP3   OH2 5279   5.558   4.763   2.580
 1758TIP3    H1 5280   5.489   4.697   2.582
 1758TIP3    H2 5281   5.571   4.781   2.486
 1759TIP3   OH2 5282   0.221   5.388   2.937
 1759TIP3    H1 5283   0.300   5.432   2.906
 1759TIP3    H2 5284   0.149   5.441   2.902
 1760TIP3   OH2 5285   1.408   4.119   3.540
 1760TIP3    H1 5286   1.385   4.062   3.466
 1760TIP3    H2 5287   1.480   4.072   3.584
 1761TIP3   OH2 5288   5.370   0.310   2.633
 1761TIP3    H1 5289   5.439   0.376   2.644
 1761TIP3    H2 5290   5.389   0.246   2.701
 1762TIP3   OH2 5291   3.030   4.457   5.038
 1762TIP3    H1 5292   2.958   4.404   5.071
 1762TIP3    H2 5293   3.105   4.398   5.039
 1763TIP3   OH2 5294   2.184   3.986   5.102
 1763TIP3    H1 5295   2.106   3.934   5.081
 1763TIP3    H2 5296   2.163   4.074   5.072
 1764TIP3   OH2 5297   6.012   3.612   0.350
 1764TIP3    H1 5298   5.955   3.571   0.285
 1764TIP3    H2 5299   6.004   3.556   0.427
 1765TIP3   OH2 5300   4.165   4.707   0.332
 1765TIP3    H1 5301   4.184   4.787   0.382
 1765TIP3    H2 5302   4.244   4.692   0.280
 1766TIP3   OH2 5303   3.741   1.735   5.054
 1766TIP3    H1 5304   3.828   1.701   5.074
 1766TIP3    H2 5305   3.691   1.659   5.025
 1767TIP3   OH2 5306   5.882   5.938   3.379
 1767TIP3    H1 5307   5.836   5.880   3.439
 1767TIP3    H2 5308   5.972   5.938   3.409
 1768TIP3   OH2 5309   0.685   3.297   4.989
 1768TIP3    H1 5310   0.732   3.268   5.068
 1768TIP3    H2 5311   0.746   3.358   4.947
 1769TIP3   OH2 5312   1.747   2.255   4.055
 1769TIP3    H1 5313   1.746   2.200   4.134
 1769TIP3    H2 5314   1.719   2.341   4.085
 1770TIP3   OH2 5315   1.031   2.408   4.267
 1770TIP3    H1 5316   1.096   2.476   4.283
 1770TIP3    H2 5317   1.078   2.341   4.217
 1771TIP3   OH2 5318   3.642   1.239   1.341
 1771TIP3    H1 5319   3.603   1.281   1.418
 1771TIP3    H2 5320   3.735   1.234   1.361
 1772TIP3   OH2 5321   2.693   4.696   1.844
 1772TIP3    H1 5322   2.772   4.691   1.790
 1772TIP3    H2 5323   2.664   4.787   1.835
 1773TIP3   OH2 5324   1.127   5.644   4.277
 1773TIP3    H1 5325   1.092   5.664   4.190
 1773TIP3    H2 5326   1.161   5.555   4.270
 1774TIP3   OH2 5327   3.986   2.096   1.828
 1774TIP3    H1 5328   4.039   2.126   1.901
 1774TIP3    H2 5329   3.962   2.176   1.781
 1775TIP3   OH2 5330   4.498   0.810   3.457
 1775TIP3    H1 5331   4.587   0.808   3.492
 1775TIP3    H2 5332   4.448   0.858   3.524
 1776TIP3   OH2 5333   1.507   1.365   4.734
 1776TIP3    H1 5334   1.552   1.313   4.802
 1776TIP3    H2 5335   1.464   1.435   4.782
 1777TIP3   OH2 5336   3.535   2.387   1.668
 1777TIP3    H1 5337   3.584   2.466   1.645
 1777TIP3    H2 5338   3.504   2.402   1.757
 1778TIP3   OH2 5339   1.660   4.049   4.410
 1778TIP3    H1 5340   1.736   4.093   4.374
 1778TIP3    H2 5341   1.636   4.101   4.487
 1779TIP3   OH2 5342   0.949   2.099   0.268
 1779TIP3    H1 5343   0.882   2.147   0.316
 1779TIP3    H2 5344   0.965   2.020   0.321
 1780TIP3   OH2 5345   4.103   0.239   1.894
 1780TIP3    H1 5346   4.119   0.228   1.800
 1780TIP3    H2 5347   4.180   0.200   1.936
 1781TIP3   OH2 5348   1.785   3.709   3.816
 1781TIP3    H1 5349   1.857   3.751   3.770
 1781TIP3    H2 5350   1.740   3.780   3.862
 1782TIP3   OH2 5351   2.624   3.317   3.940
 1782TIP3    H1 5352   2.575   3.305   4.021
 1782TIP3    H2 5353   2.695   3.377   3.964
 1783TIP3   OH2 5354   5.021   5.848   0.626
 1783TIP3    H1 5355   5.105   5.860   0.670
 1783TIP3    H2 5356   5.031   5.891   0.541
 1784TIP3   OH2 5357   5.227   2.596   2.826
 1784TIP3    H1 5358   5.276   2.568   2.748
 1784TIP3    H2 5359   5.141   2.619   2.792
 1785TIP3   OH2 5360   6.313   4.889   4.312
 1785TIP3    H1 5361   6.273   4.920   4.394
 1785TIP3    H2 5362   6.347   4.968   4.271
 1786TIP3   OH2 5363   2.186   2.371   3.302
 1786TIP3    H1 5364   2.207   2.343   3.212
 1786TIP3    H2 5365   2.098   2.337   3.317
 1787TIP3   OH2 5366   4.821   4.305   0.483
 1787TIP3    H1 5367   4.774   4.262   0.554
 1787TIP3    H2 5368   4.883   4.239   0.451
 1788TIP3   OH2 5369   2.588   5.635   0.501
 1788TIP3    H1 5370   2.668   5.612   0.548
 1788TIP3    H2 5371   2.605   5.607   0.411
 1789TIP3   OH2 5372   5.507   3.132   1.981
 1789TIP3    H1 5373   5.568   3.070   2.020
 1789TIP3    H2 5374   5.461   3.170   2.056
 1790TIP3   OH2 5375   1.530   4.892   2.092
 1790TIP3    H1 5376   1.511   4.964   2.032
 1790TIP3    H2 5377   1.498   4.922   2.177
 1791TIP3   OH2 5378   2.770   3.488   1.117
 1791TIP3    H1 5379   2.838   3.512   1.180
 1791TIP3    H2 5380   2.801   3.524   1.034
 1792TIP3   OH2 5381   2.364   5.741   3.038
 1792TIP3    H1 5382   2.322   5.822   3.009
 1792TIP3    H2 5383   2.391   5.697   2.957
 1793TIP3   OH2 5384   5.469   0.859   4.634
 1793TIP3    H1 5385   5.556   0.862   4.673
 1793TIP3    H2 5386   5.411   0.833   4.705
 1794TIP3   OH2 5387   2.900   3.916   0.734
 1794TIP3    H1 5388   2.865   3.881   0.652
 1794TIP3    H2 5389   2.875   4.008   0.734
 1795TIP3   OH2 5390   0.705   1.264   1.459
 1795TIP3    H1 5391   0.659   1.247   1.542
 1795TIP3    H2 5392   0.730   1.356   1.464
 1796TIP3   OH2 5393   2.172   4.870   3.953
 1796TIP3    H1 5394   2.111   4.939   3.978
 1796TIP3    H2 5395   2.257   4.913   3.950
 1797TIP3   OH2 5396   1.747   1.439   1.460
 1797TIP3    H1 5397   1.741   1.421   1.366
 1797TIP3    H2 5398   1.703   1.365   1.502
 1798TIP3   OH2 5399   4.256   3.125   0.597
 1798TIP3    H1 5400   4.305   3.081   0.527
 1798TIP3    H2 5401   4.237   3.055   0.660
 1799TIP3   OH2 5402   1.600   5.686   4.087
 1799TIP3    H1 5403   1.585   5.593   4.070
 1799TIP3    H2 5404   1.512   5.724   4.090
 1800TIP3   OH2 5405   0.199   1.342   0.592
 1800TIP3    H1 5406   0.131   1.312   0.531
 1800TIP3    H2 5407   0.252   1.403   0.540
 1801TIP3   OH2 5408   2.858   0.264   4.767
 1801TIP3    H1 5409   2.923   0.334   4.769
 1801TIP3    H2 5410   2.908   0.184   4.787
 1802TIP3   OH2 5411   1.654   2.184   1.877
 1802TIP3    H1 5412   1.697   2.175   1.962
 1802TIP3    H2 5413   1.665   2.277   1.855
 1803TIP3   OH2 5414   0.898   3.307   2.563
 1803TIP3    H1 5415   0.853   3.376   2.514
 1803TIP3    H2 5416   0.975   3.287   2.509
 1804TIP3   OH2 5417   5.272   3.611   0.262
 1804TIP3    H1 5418   5.304   3.701   0.271
 1804TIP3    H2 5419   5.251   3.584   0.351
 1805TIP3   OH2 5420   2.440   1.615   3.562
 1805TIP3    H1 5421   2.365   1.637   3.618
 1805TIP3    H2 5422   2.413   1.537   3.515
 1806TIP3   OH2 5423   2.239   0.174   0.994
 1806TIP3    H1 5424   2.203   0.088   0.972
 1806TIP3    H2 5425   2.293   0.197   0.919
 1807TIP3   OH2 5426   1.171   4.670   2.298
 1807TIP3    H1 5427   1.208   4.594   2.343
 1807TIP3    H2 5428   1.209   4.745   2.344
 1808TIP3   OH2 5429   4.318   5.132   3.456
 1808TIP3    H1 5430   4.278   5.200   3.510
 1808TIP3    H2 5431   4.392   5.100   3.508
 1809TIP3   OH2 5432   3.945   3.096   0.976
 1809TIP3    H1 5433   3.886   3.023   0.991
 1809TIP3    H2 5434   3.968   3.126   1.064
 1810TIP3   OH2 5435   2.315   3.594   1.019
 1810TIP3    H1 5436   2.341   3.667   0.962
 1810TIP3    H2 5437   2.396   3.567   1.061
 1811TIP3   OH2 5438   5.559   1.163   3.188
 1811TIP3    H1 5439   5.597   1.077   3.168
 1811TIP3    H2 5440   5.523   1.193   3.104
 1812TIP3   OH2 5441   5.247   0.248   3.307
 1812TIP3    H1 5442   5.255   0.164   3.262
 1812TIP3    H2 5443   5.335   0.285   3.305
 1813TIP3   OH2 5444   5.942   3.330   5.168
 1813TIP3    H1 5445   5.859   3.308   5.126
 1813TIP3    H2 5446   5.996   3.366   5.098
 1814TIP3   OH2 5447   3.141   2.299   1.100
 1814TIP3    H1 5448   3.106   2.370   1.047
 1814TIP3    H2 5449   3.072   2.233   1.100
 1815TIP3   OH2 5450   0.028   1.876   3.294
 1815TIP3    H1 5451   0.108   1.928   3.289
 1815TIP3    H2 5452  -0.038   1.928   3.250
 1816TIP3   OH2 5453   6.328   3.278   1.649
 1816TIP3    H1 5454   6.269   3.248   1.718
 1816TIP3    H2 5455   6.277   3.344   1.601
 1817TIP3   OH2 5456   3.164   3.831   0.428
 1817TIP3    H1 5457   3.151   3.755   0.485
 1817TIP3    H2 5458   3.235   3.804   0.369
 1818TIP3   OH2 5459   5.001   2.072   2.247
 1818TIP3    H1 5460   4.932   2.130   2.277
 1818TIP3    H2 5461   4.958   2.011   2.187
 1819TIP3   OH2 5462   0.859   0.377   0.269
 1819TIP3    H1 5463   0.944   0.342   0.243
 1819TIP3    H2 5464   0.860   0.467   0.236
 1820TIP3   OH2 5465   5.187   5.062   0.814
 1820TIP3    H1 5466   5.278   5.060   0.786
 1820TIP3    H2 5467   5.137   5.037   0.737
 1821TIP3   OH2 5468   2.689   1.085   4.028
 1821TIP3    H1 5469   2.714   1.004   3.984
 1821TIP3    H2 5470   2.638   1.055   4.104
 1822TIP3   OH2 5471   3.622   5.526   4.825
 1822TIP3    H1 5472   3.692   5.592   4.822
 1822TIP3    H2 5473   3.558   5.563   4.887
 1823TIP3   OH2 5474   2.282   1.295   0.541
 1823TIP3    H1 5475   2.191   1.279   0.562
 1823TIP3    H2 5476   2.329   1.279   0.623
 1824TIP3   OH2 5477   1.367   0.211   0.650
 1824TIP3    H1 5478   1.391   0.302   0.665
 1824TIP3    H2 5479   1.316   0.187   0.728
 1825TIP3   OH2 5480   1.176   5.622   0.897
 1825TIP3    H1 5481   1.095   5.672   0.907
 1825TIP3    H2 5482   1.150   5.531   0.913
 1826TIP3   OH2 5483   0.496   0.598   4.881
 1826TIP3    H1 5484   0.475   0.522   4.935
 1826TIP3    H2 5485   0.457   0.672   4.927
 1827TIP3   OH2 5486   2.427   3.710   4.916
 1827TIP3    H1 5487   2.488   3.783   4.907
 1827TIP3    H2 5488   2.359   3.727   4.851
 1828TIP3   OH2 5489   3.748   1.482   2.195
 1828TIP3    H1 5490   3.734   1.475   2.289
 1828TIP3    H2 5491   3.838   1.513   2.186
 1829TIP3   OH2 5492   5.839   4.421   0.046
 1829TIP3    H1 5493   5.865   4.382  -0.038
 1829TIP3    H2 5494   5.755   4.464   0.027
 1830TIP3   OH2 5495   5.915   0.471   4.874
 1830TIP3    H1 5496   5.945   0.556   4.842
 1830TIP3    H2 5497   5.864   0.491   4.952
 1831TIP3   OH2 5498   6.188   0.244   1.091
 1831TIP3    H1 5499   6.214   0.231   1.000
 1831TIP3    H2 5500   6.263   0.211   1.142
 1832TIP3   OH2 5501   3.846   3.402   1.276
 1832TIP3    H1 5502   3.844   3.313   1.310
 1832TIP3    H2 5503   3.888   3.453   1.345
 1833TIP3   OH2 5504   0.054   5.499   3.409
 1833TIP3    H1 5505  -0.023   5.495   3.466
 1833TIP3    H2 5506   0.119   5.546   3.461
 1834TIP3   OH2 5507   6.245   1.079   1.385
 1834TIP3    H1 5508   6.270   1.134   1.311
 1834TIP3    H2 5509   6.326   1.066   1.434
 1835TIP3   OH2 5510   4.160   1.733   1.008
 1835TIP3    H1 5511   4.209   1.671   1.061
 1835TIP3    H2 5512   4.179   1.819   1.048
 1836TIP3   OH2 5513   5.666   3.620   4.272
 1836TIP3    H1 5514   5.740   3.680   4.263
 1836TIP3    H2 5515   5.682   3.575   4.355
 1837TIP3   OH2 5516   2.244   0.543   4.769
 1837TIP3    H1 5517   2.283   0.629   4.787
 1837TIP3    H2 5518   2.222   0.546   4.676
 1838TIP3   OH2 5519   2.975   4.703   5.103
 1838TIP3    H1 5520   3.016   4.625   5.067
 1838TIP3    H2 5521   2.881   4.685   5.098
 1839TIP3   OH2 5522   4.515   4.061   4.018
 1839TIP3    H1 5523   4.533   4.118   4.093
 1839TIP3    H2 5524   4.601   4.029   3.991
 1840TIP3   OH2 5525   3.097   1.609   2.341
 1840TIP3    H1 5526   3.057   1.680   2.391
 1840TIP3    H2 5527   3.033   1.587   2.274
 1841TIP3   OH2 5528   5.047   1.910   2.984
 1841TIP3    H1 5529   4.979   1.948   2.929
 1841TIP3    H2 5530   5.042   1.816   2.967
 1842TIP3   OH2 5531   0.158   4.619   4.532
 1842TIP3    H1 5532   0.215   4.545   4.554
 1842TIP3    H2 5533   0.189   4.648   4.446
 1843TIP3   OH2 5534   0.808   4.724   3.862
 1843TIP3    H1 5535   0.882   4.772   3.824
 1843TIP3    H2 5536   0.831   4.715   3.954
 1844TIP3   OH2 5537   2.578   5.135   2.071
 1844TIP3    H1 5538   2.624   5.162   1.991
 1844TIP3    H2 5539   2.560   5.042   2.058
 1845TIP3   OH2 5540   5.198   1.347   0.213
 1845TIP3    H1 5541   5.231   1.389   0.134
 1845TIP3    H2 5542   5.128   1.405   0.243
 1846TIP3   OH2 5543   3.440   0.162   4.750
 1846TIP3    H1 5544   3.479   0.245   4.723
 1846TIP3    H2 5545   3.515   0.105   4.768
 1847TIP3   OH2 5546   2.274   2.555   0.548
 1847TIP3    H1 5547   2.261   2.632   0.603
 1847TIP3    H2 5548   2.354   2.574   0.498
 1848TIP3   OH2 5549   5.657   5.416   1.295
 1848TIP3    H1 5550   5.580   5.435   1.347
 1848TIP3    H2 5551   5.628   5.350   1.232
 1849TIP3   OH2 5552   6.209   4.759   0.610
 1849TIP3    H1 5553   6.244   4.801   0.531
 1849TIP3    H2 5554   6.247   4.671   0.608
 1850TIP3   OH2 5555   5.894   1.909   0.286
 1850TIP3    H1 5556   5.917   1.949   0.370
 1850TIP3    H2 5557   5.921   1.974   0.221
 1851TIP3   OH2 5558   1.163   2.385   4.849
 1851TIP3    H1 5559   1.118   2.365   4.767
 1851TIP3    H2 5560   1.251   2.349   4.838
 1852TIP3   OH2 5561   5.966   0.937   2.449
 1852TIP3    H1 5562   6.043   0.881   2.445
 1852TIP3    H2 5563   5.900   0.885   2.494
 1853TIP3   OH2 5564   1.363   1.956   3.853
 1853TIP3    H1 5565   1.429   2.019   3.823
 1853TIP3    H2 5566   1.344   1.903   3.776
 1854TIP3   OH2 5567   6.279   0.025   2.685
 1854TIP3    H1 5568   6.297   0.088   2.615
 1854TIP3    H2 5569   6.203  -0.024   2.653
 1855TIP3   OH2 5570   1.125   1.483   4.978
 1855TIP3    H1 5571   1.113   1.458   5.069
 1855TIP3    H2 5572   1.193   1.424   4.946
 1856TIP3   OH2 5573   2.127   1.274   3.200
 1856TIP3    H1 5574   2.134   1.297   3.292
 1856TIP3    H2 5575   2.160   1.184   3.195
 1857TIP3   OH2 5576   6.276   4.473   4.456
 1857TIP3    H1 5577   6.203   4.488   4.517
 1857TIP3    H2 5578   6.347   4.526   4.491
 1858TIP3   OH2 5579   0.878   0.261   3.074
 1858TIP3    H1 5580   0.850   0.342   3.117
 1858TIP3    H2 5581   0.969   0.278   3.048
 1859TIP3   OH2 5582   1.906   4.813   5.049
 1859TIP3    H1 5583   1.833   4.847   4.998
 1859TIP3    H2 5584   1.963   4.770   4.985
 1860TIP3   OH2 5585   1.538   1.043   2.496
 1860TIP3    H1 5586   1.552   1.034   2.590
 1860TIP3    H2 5587   1.584   1.124   2.473
 1861TIP3   OH2 5588   3.311   4.812   2.430
 1861TIP3    H1 5589   3.269   4.797   2.346
 1861TIP3    H2 5590   3.402   4.786   2.416
 1862TIP3   OH2 5591   5.384   5.251  -0.043
 1862TIP3    H1 5592   5.351   5.335  -0.012
 1862TIP3    H2 5593   5.417   5.208   0.036
 1863TIP3   OH2 5594   3.250   4.325   5.061
 1863TIP3    H1 5595   3.307   4.254   5.090
 1863TIP3    H2 5596   3.264   4.330   4.966
 1864TIP3   OH2 5597   0.259   2.209   4.705
 1864TIP3    H1 5598   0.322   2.185   4.773
 1864TIP3    H2 5599   0.301   2.182   4.623
 1865TIP3   OH2 5600   4.537   3.099   2.620
 1865TIP3    H1 5601   4.467   3.085   2.556
 1865TIP3    H2 5602   4.589   3.019   2.617
 1866TIP3   OH2 5603   3.146   5.963   0.865
 1866TIP3    H1 5604   3.056   5.986   0.889
 1866TIP3    H2 5605   3.194   6.046   0.866
 1867TIP3   OH2 5606   1.819   1.579   4.888
 1867TIP3    H1 5607   1.763   1.657   4.887
 1867TIP3    H2 5608   1.802   1.536   4.804
 1868TIP3   OH2 5609   5.859   3.486   0.157
 1868TIP3    H1 5610   5.826   3.397   0.153
 1868TIP3    H2 5611   5.797   3.537   0.104
 1869TIP3   OH2 5612   2.657   3.747   5.134
 1869TIP3    H1 5613   2.689   3.769   5.047
 1869TIP3    H2 5614   2.584   3.807   5.149
 1870TIP3   OH2 5615   4.938   1.047   1.558
 1870TIP3    H1 5616   4.872   0.983   1.584
 1870TIP3    H2 5617   4.990   1.061   1.638
 1871TIP3   OH2 5618   0.239   4.689   0.786
 1871TIP3    H1 5619   0.282   4.617   0.832
 1871TIP3    H2 5620   0.285   4.767   0.817
 1872TIP3   OH2 5621   2.280   3.086   4.296
 1872TIP3    H1 5622   2.227   3.052   4.224
 1872TIP3    H2 5623   2.240   3.170   4.317
 1873TIP3   OH2 5624   4.108   3.347   2.430
 1873TIP3    H1 5625   4.036   3.330   2.370
 1873TIP3    H2 5626   4.112   3.270   2.487
 1874TIP3   OH2 5627   5.930   4.878   4.206
 1874TIP3    H1 5628   5.931   4.858   4.299
 1874TIP3    H2 5629   5.994   4.949   4.196
 1875TIP3   OH2 5630   4.697   1.285   3.414
 1875TIP3    H1 5631   4.706   1.339   3.493
 1875TIP3    H2 5632   4.786   1.257   3.393
 1876TIP3   OH2 5633   0.586   5.601   1.636
 1876TIP3    H1 5634   0.593   5.683   1.684
 1876TIP3    H2 5635   0.577   5.534   1.703
 1877TIP3   OH2 5636   1.110   0.661   2.182
 1877TIP3    H1 5637   1.194   0.615   2.175
 1877TIP3    H2 5638   1.112   0.724   2.110
 1878TIP3   OH2 5639   1.100   1.708   1.436
 1878TIP3    H1 5640   1.128   1.637   1.493
 1878TIP3    H2 5641   1.006   1.691   1.422
 1879TIP3   OH2 5642   1.889   0.284   0.514
 1879TIP3    H1 5643   1.877   0.271   0.420
 1879TIP3    H2 5644   1.862   0.201   0.553
 1880TIP3   OH2 5645   5.272   2.051   4.134
 1880TIP3    H1 5646   5.348   2.105   4.112
 1880TIP3    H2 5647   5.234   2.027   4.050
 1881TIP3   OH2 5648   5.762   4.251   3.264
 1881TIP3    H1 5649   5.713   4.319   3.311
 1881TIP3    H2 5650   5.713   4.171   3.281
 1882TIP3   OH2 5651   2.883   0.161   2.997
 1882TIP3    H1 5652   2.968   0.159   2.951
 1882TIP3    H2 5653   2.827   0.215   2.941
 1883TIP3   OH2 5654   2.029   5.626   5.045
 1883TIP3    H1 5655   1.994   5.552   5.095
 1883TIP3    H2 5656   1.992   5.615   4.957
 1884TIP3   OH2 5657   2.196   3.348   1.158
 1884TIP3    H1 5658   2.181   3.442   1.148
 1884TIP3    H2 5659   2.136   3.322   1.227
 1885TIP3   OH2 5660   3.767   4.080   0.843
 1885TIP3    H1 5661   3.699   4.143   0.819
 1885TIP3    H2 5662   3.835   4.132   0.885
 1886TIP3   OH2 5663   0.168   5.777   2.661
 1886TIP3    H1 5664   0.124   5.842   2.716
 1886TIP3    H2 5665   0.227   5.829   2.606
 1887TIP3   OH2 5666   5.788   4.906   4.719
 1887TIP3    H1 5667   5.857   4.875   4.778
 1887TIP3    H2 5668   5.754   4.984   4.762
 1888TIP3   OH2 5669   0.478   3.592   5.047
 1888TIP3    H1 5670   0.528   3.621   5.124
 1888TIP3    H2 5671   0.428   3.669   5.020
 1889TIP3   OH2 5672   1.838   2.941   3.277
 1889TIP3    H1 5673   1.902   2.889   3.326
 1889TIP3    H2 5674   1.886   3.019   3.250
 1890TIP3   OH2 5675   3.493   0.956   4.988
 1890TIP3    H1 5676   3.572   0.931   5.035
 1890TIP3    H2 5677   3.522   1.021   4.924
 1891TIP3   OH2 5678   0.403   5.189   4.031
 1891TIP3    H1 5679   0.369   5.200   4.120
 1891TIP3    H2 5680   0.336   5.227   3.974
 1892TIP3   OH2 5681   6.094   2.067   5.141
 1892TIP3    H1 5682   6.185   2.090   5.125
 1892TIP3    H2 5683   6.091   1.972   5.136
 1893TIP3   OH2 5684   6.258   1.302   4.625
 1893TIP3    H1 5685   6.344   1.343   4.619
 1893TIP3    H2 5686   6.277   1.209   4.641
 1894TIP3   OH2 5687   0.480   0.409   3.060
 1894TIP3    H1 5688   0.459   0.364   3.142
 1894TIP3    H2 5689   0.545   0.354   3.018
 1895TIP3   OH2 5690   3.080   1.461   1.651
 1895TIP3    H1 5691   3.157   1.506   1.617
 1895TIP3    H2 5692   3.110   1.371   1.666
 1896TIP3   OH2 5693   1.941   0.125   0.967
 1896TIP3    H1 5694   1.915   0.136   1.059
 1896TIP3    H2 5695   2.034   0.145   0.966
 1897TIP3   OH2 5696   2.641   5.059   5.162
 1897TIP3    H1 5697   2.711   5.032   5.222
 1897TIP3    H2 5698   2.680   5.130   5.110
 1898TIP3   OH2 5699   4.461   4.065   0.418
 1898TIP3    H1 5700   4.538   4.048   0.364
 1898TIP3    H2 5701   4.452   4.160   0.418
 1899TIP3   OH2 5702   0.435   0.604   0.448
 1899TIP3    H1 5703   0.470   0.537   0.507
 1899TIP3    H2 5704   0.500   0.610   0.378
 1900TIP3   OH2 5705   4.631   2.295   4.501
 1900TIP3    H1 5706   4.695   2.268   4.435
 1900TIP3    H2 5707   4.659   2.252   4.582
 1901TIP3   OH2 5708   4.885   2.831   4.473
 1901TIP3    H1 5709   4.804   2.780   4.475
 1901TIP3    H2 5710   4.896   2.854   4.380
 1902TIP3   OH2 5711   4.932   5.032   0.312
 1902TIP3    H1 5712   4.992   5.065   0.245
 1902TIP3    H2 5713   4.965   4.944   0.332
 1903TIP3   OH2 5714   1.548   1.567   0.573
 1903TIP3    H1 5715   1.488   1.616   0.629
 1903TIP3    H2 5716   1.496   1.543   0.496
 1904TIP3   OH2 5717   0.920   0.625   0.139
 1904TIP3    H1 5718   0.918   0.682   0.063
 1904TIP3    H2 5719   1.002   0.645   0.183
 1905TIP3   OH2 5720   2.425   3.519   1.806
 1905TIP3    H1 5721   2.466   3.437   1.780
 1905TIP3    H2 5722   2.346   3.493   1.853
 1906TIP3   OH2 5723   6.266   0.947   0.264
 1906TIP3    H1 5724   6.217   0.871   0.294
 1906TIP3    H2 5725   6.223   0.973   0.182
 1907TIP3   OH2 5726  -0.003  -0.034   0.264
 1907TIP3    H1 5727  -0.006  -0.025   0.359
 1907TIP3    H2 5728   0.056   0.037   0.235
 1908TIP3   OH2 5729   0.573   4.616   3.573
 1908TIP3    H1 5730   0.668   4.600   3.569
 1908TIP3    H2 5731   0.562   4.700   3.529
 1909TIP3   OH2 5732   2.787   4.745   1.538
 1909TIP3    H1 5733   2.691   4.746   1.535
 1909TIP3    H2 5734   2.813   4.819   1.483
 1910TIP3   OH2 5735   4.578   1.738   0.192
 1910TIP3    H1 5736   4.664   1.749   0.152
 1910TIP3    H2 5737   4.593   1.681   0.267
 1911TIP3   OH2 5738   5.498   3.517   0.762
 1911TIP3    H1 5739   5.428   3.507   0.826
 1911TIP3    H2 5740   5.504   3.611   0.747
 1912TIP3   OH2 5741   5.259   2.024   3.109
 1912TIP3    H1 5742   5.189   1.973   3.070
 1912TIP3    H2 5743   5.333   1.964   3.115
 1913TIP3   OH2 5744   0.248   0.780   2.234
 1913TIP3    H1 5745   0.279   0.690   2.245
 1913TIP3    H2 5746   0.265   0.800   2.143
 1914TIP3   OH2 5747   1.595   3.403   0.195
 1914TIP3    H1 5748   1.602   3.403   0.291
 1914TIP3    H2 5749   1.589   3.310   0.172
 1915TIP3   OH2 5750   4.126   5.070   1.042
 1915TIP3    H1 5751   4.090   5.032   1.122
 1915TIP3    H2 5752   4.090   5.159   1.038
 1916TIP3   OH2 5753   4.735   4.585   0.513
 1916TIP3    H1 5754   4.796   4.658   0.497
 1916TIP3    H2 5755   4.792   4.511   0.534
 1917TIP3   OH2 5756   5.002   0.374   3.952
 1917TIP3    H1 5757   5.061   0.450   3.947
 1917TIP3    H2 5758   4.969   0.376   4.042
 1918TIP3   OH2 5759   2.212   0.586   4.458
 1918TIP3    H1 5760   2.219   0.635   4.376
 1918TIP3    H2 5761   2.130   0.616   4.497
 1919TIP3   OH2 5762   3.270   2.041   3.812
 1919TIP3    H1 5763   3.194   2.052   3.868
 1919TIP3    H2 5764   3.344   2.064   3.868
 1920TIP3   OH2 5765   0.872   2.590   0.297
 1920TIP3    H1 5766   0.885   2.586   0.202
 1920TIP3    H2 5767   0.937   2.653   0.327
 1921TIP3   OH2 5768   3.090   5.477   1.518
 1921TIP3    H1 5769   3.102   5.395   1.567
 1921TIP3    H2 5770   3.045   5.450   1.437
 1922TIP3   OH2 5771   0.873   2.828   0.694
 1922TIP3    H1 5772   0.795   2.845   0.641
 1922TIP3    H2 5773   0.915   2.913   0.703
 1923TIP3   OH2 5774   2.696   2.291   1.171
 1923TIP3    H1 5775   2.636   2.217   1.162
 1923TIP3    H2 5776   2.675   2.329   1.257
 1924TIP3   OH2 5777   4.463   5.897   1.769
 1924TIP3    H1 5778   4.483   5.823   1.712
 1924TIP3    H2 5779   4.547   5.939   1.784
 1925TIP3   OH2 5780   1.720   2.693   1.846
 1925TIP3    H1 5781   1.713   2.778   1.802
 1925TIP3    H2 5782   1.639   2.684   1.895
 1926TIP3   OH2 5783   3.795   1.260   1.110
 1926TIP3    H1 5784   3.773   1.339   1.060
 1926TIP3    H2 5785   3.741   1.267   1.189
 1927TIP3   OH2 5786   5.773   1.286   4.855
 1927TIP3    H1 5787   5.705   1.218   4.858
 1927TIP3    H2 5788   5.855   1.239   4.871
 1928TIP3   OH2 5789   5.667   3.367   3.305
 1928TIP3    H1 5790   5.578   3.392   3.329
 1928TIP3    H2 5791   5.723   3.416   3.366
 1929TIP3   OH2 5792   5.415   5.785   4.752
 1929TIP3    H1 5793   5.510   5.789   4.763
 1929TIP3    H2 5794   5.402   5.770   4.659
 1930TIP3   OH2 5795   1.590   4.043   1.005
 1930TIP3    H1 5796   1.500   4.010   1.005
 1930TIP3    H2 5797   1.626   4.015   1.089
 1931TIP3   OH2 5798   3.691   0.516   2.885
 1931TIP3    H1 5799   3.651   0.478   2.807
 1931TIP3    H2 5800   3.622   0.513   2.952
 1932TIP3   OH2 5801   2.972   2.317   0.591
 1932TIP3    H1 5802   3.014   2.403   0.598
 1932TIP3    H2 5803   3.018   2.262   0.655
 1933TIP3   OH2 5804   0.670   4.091   2.405
 1933TIP3    H1 5805   0.660   3.996   2.404
 1933TIP3    H2 5806   0.591   4.123   2.448
 1934TIP3   OH2 5807   3.261   1.316   2.598
 1934TIP3    H1 5808   3.283   1.409   2.588
 1934TIP3    H2 5809   3.325   1.284   2.661
 1935TIP3   OH2 5810   5.973   5.956   4.907
 1935TIP3    H1 5811   6.014   6.037   4.877
 1935TIP3    H2 5812   5.886   5.983   4.936
 1936TIP3   OH2 5813   2.577   0.226   4.903
 1936TIP3    H1 5814   2.548   0.316   4.890
 1936TIP3    H2 5815   2.663   0.223   4.861
 1937TIP3   OH2 5816   6.175   5.888   1.633
 1937TIP3    H1 5817   6.169   5.979   1.662
 1937TIP3    H2 5818   6.137   5.888   1.545
 1938TIP3   OH2 5819   2.035   3.125   2.206
 1938TIP3    H1 5820   2.115   3.084   2.172
 1938TIP3    H2 5821   2.060   3.216   2.223
 1939TIP3   OH2 5822   2.106   2.581   2.569
 1939TIP3    H1 5823   2.077   2.567   2.660
 1939TIP3    H2 5824   2.136   2.495   2.541
 1940TIP3   OH2 5825   0.201   0.754   3.545
 1940TIP3    H1 5826   0.132   0.749   3.611
 1940TIP3    H2 5827   0.280   0.776   3.594
 1941TIP3   OH2 5828   2.535   0.835   1.272
 1941TIP3    H1 5829   2.523   0.881   1.189
 1941TIP3    H2 5830   2.449   0.839   1.314
 1942TIP3   OH2 5831   5.058   1.423   4.957
 1942TIP3    H1 5832   5.004   1.452   4.883
 1942TIP3    H2 5833   5.038   1.330   4.965
 1943TIP3   OH2 5834   1.062   0.979   0.469
 1943TIP3    H1 5835   1.034   1.069   0.455
 1943TIP3    H2 5836   1.009   0.949   0.543
 1944TIP3   OH2 5837   5.347   3.464   0.500
 1944TIP3    H1 5838   5.385   3.387   0.457
 1944TIP3    H2 5839   5.405   3.481   0.574
 1945TIP3   OH2 5840   2.666   5.656   1.244
 1945TIP3    H1 5841   2.663   5.703   1.161
 1945TIP3    H2 5842   2.651   5.564   1.220
 1946TIP3   OH2 5843   3.527   4.672   1.684
 1946TIP3    H1 5844   3.536   4.614   1.760
 1946TIP3    H2 5845   3.547   4.617   1.609
 1947TIP3   OH2 5846   2.921   5.541   4.765
 1947TIP3    H1 5847   2.867   5.618   4.779
 1947TIP3    H2 5848   2.991   5.548   4.830
 1948TIP3   OH2 5849   5.385   1.707   2.710
 1948TIP3    H1 5850   5.393   1.696   2.615
 1948TIP3    H2 5851   5.304   1.662   2.733
 1949TIP3   OH2 5852   4.457   4.245   0.173
 1949TIP3    H1 5853   4.535   4.190   0.180
 1949TIP3    H2 5854   4.384   4.185   0.194
 1950TIP3   OH2 5855   4.019   5.606   5.113
 1950TIP3    H1 5856   4.030   5.565   5.028
 1950TIP3    H2 5857   3.988   5.695   5.093
 1951TIP3   OH2 5858   3.656   2.004   3.754
 1951TIP3    H1 5859   3.651   1.934   3.819
 1951TIP3    H2 5860   3.750   2.016   3.739
 1952TIP3   OH2 5861   1.497   0.822   0.188
 1952TIP3    H1 5862   1.467   0.912   0.183
 1952TIP3    H2 5863   1.420   0.769   0.169
 1953TIP3   OH2 5864   5.871   3.857   4.690
 1953TIP3    H1 5865   5.908   3.945   4.682
 1953TIP3    H2 5866   5.920   3.805   4.626
 1954TIP3   OH2 5867   0.711   4.582   4.362
 1954TIP3    H1 5868   0.632   4.532   4.343
 1954TIP3    H2 5869   0.689   4.635   4.439
 1955TIP3   OH2 5870   4.633   2.013   1.335
 1955TIP3    H1 5871   4.722   2.048   1.347
 1955TIP3    H2 5872   4.588   2.034   1.416
 1956TIP3   OH2 5873   4.139   4.384   4.884
 1956TIP3    H1 5874   4.195   4.441   4.937
 1956TIP3    H2 5875   4.052   4.425   4.888
 1957TIP3   OH2 5876   5.744   0.763   2.501
 1957TIP3    H1 5877   5.792   0.681   2.495
 1957TIP3    H2 5878   5.655   0.742   2.473
 1958TIP3   OH2 5879   2.729   5.146   4.482
 1958TIP3    H1 5880   2.654   5.173   4.428
 1958TIP3    H2 5881   2.738   5.216   4.547
 1959TIP3   OH2 5882   6.300   5.438   0.689
 1959TIP3    H1 5883   6.217   5.485   0.685
 1959TIP3    H2 5884   6.331   5.450   0.779
 1960TIP3   OH2 5885   2.440   5.460   0.667
 1960TIP3    H1 5886   2.488   5.515   0.605
 1960TIP3    H2 5887   2.425   5.378   0.620
 1961TIP3   OH2 5888   2.963   5.896   4.328
 1961TIP3    H1 5889   2.946   5.961   4.396
 1961TIP3    H2 5890   3.057   5.903   4.310
 1962TIP3   OH2 5891   1.119   0.354   0.223
 1962TIP3    H1 5892   1.150   0.288   0.161
 1962TIP3    H2 5893   1.198   0.399   0.252
 1963TIP3   OH2 5894   1.194   0.117   4.724
 1963TIP3    H1 5895   1.199   0.210   4.748
 1963TIP3    H2 5896   1.173   0.072   4.806
 1964TIP3   OH2 5897   1.006   4.944   0.684
 1964TIP3    H1 5898   1.089   4.961   0.639
 1964TIP3    H2 5899   1.030   4.900   0.765
 1965TIP3   OH2 5900   3.481   0.593   4.015
 1965TIP3    H1 5901   3.543   0.521   4.027
 1965TIP3    H2 5902   3.499   0.626   3.927
 1966TIP3   OH2 5903   5.765   3.588   3.485
 1966TIP3    H1 5904   5.836   3.585   3.550
 1966TIP3    H2 5905   5.688   3.613   3.536
 1967TIP3   OH2 5906   4.022   5.670   1.823
 1967TIP3    H1 5907   3.952   5.634   1.768
 1967TIP3    H2 5908   4.052   5.747   1.775
 1968TIP3   OH2 5909   4.827   4.737   4.785
 1968TIP3    H1 5910   4.836   4.650   4.747
 1968TIP3    H2 5911   4.884   4.735   4.863
 1969TIP3   OH2 5912   1.329   1.224   2.165
 1969TIP3    H1 5913   1.278   1.145   2.183
 1969TIP3    H2 5914   1.387   1.199   2.093
 1970TIP3   OH2 5915   5.222   4.841   4.281
 1970TIP3    H1 5916   5.280   4.776   4.320
 1970TIP3    H2 5917   5.168   4.872   4.354
 1971TIP3   OH2 5918   5.008   2.389   1.626
 1971TIP3    H1 5919   4.959   2.405   1.707
 1971TIP3    H2 5920   5.024   2.295   1.626
 1972TIP3   OH2 5921   2.477   3.993   1.120
 1972TIP3    H1 5922   2.462   4.029   1.032
 1972TIP3    H2 5923   2.554   3.938   1.110
 1973TIP3   OH2 5924   4.077   2.455   4.027
 1973TIP3    H1 5925   4.127   2.493   4.100
 1973TIP3    H2 5926   4.109   2.500   3.949
 1974TIP3   OH2 5927   5.625   2.422   3.931
 1974TIP3    H1 5928   5.604   2.330   3.944
 1974TIP3    H2 5929   5.711   2.422   3.890
 1975TIP3   OH2 5930   0.992   3.821   4.798
 1975TIP3    H1 5931   0.952   3.793   4.881
 1975TIP3    H2 5932   0.933   3.889   4.765
 1976TIP3   OH2 5933   0.877   2.836   3.939
 1976TIP3    H1 5934   0.899   2.837   3.845
 1976TIP3    H2 5935   0.783   2.852   3.941
 1977TIP3   OH2 5936   2.217   3.837   0.268
 1977TIP3    H1 5937   2.173   3.805   0.346
 1977TIP3    H2 5938   2.286   3.772   0.251
 1978TIP3   OH2 5939   0.586   5.921   1.380
 1978TIP3    H1 5940   0.662   5.965   1.343
 1978TIP3    H2 5941   0.517   5.933   1.314
 1979TIP3   OH2 5942   2.786   5.714   3.549
 1979TIP3    H1 5943   2.735   5.647   3.504
 1979TIP3    H2 5944   2.814   5.774   3.480
 1980TIP3   OH2 5945   2.961   2.509   1.743
 1980TIP3    H1 5946   2.880   2.459   1.746
 1980TIP3    H2 5947   2.969   2.550   1.829
 1981TIP3   OH2 5948   5.547   2.786   1.070
 1981TIP3    H1 5949   5.607   2.729   1.118
 1981TIP3    H2 5950   5.461   2.768   1.108
 1982TIP3   OH2 5951   4.356   0.263   1.308
 1982TIP3    H1 5952   4.356   0.290   1.216
 1982TIP3    H2 5953   4.284   0.199   1.314
 1983TIP3   OH2 5954   1.772   3.390   1.502
 1983TIP3    H1 5955   1.846   3.450   1.509
 1983TIP3    H2 5956   1.727   3.418   1.422
 1984TIP3   OH2 5957   0.652   1.642   4.043
 1984TIP3    H1 5958   0.661   1.734   4.068
 1984TIP3    H2 5959   0.738   1.604   4.057
 1985TIP3   OH2 5960   4.624   4.681   2.324
 1985TIP3    H1 5961   4.543   4.716   2.360
 1985TIP3    H2 5962   4.612   4.685   2.229
 1986TIP3   OH2 5963   0.169   4.059   0.691
 1986TIP3    H1 5964   0.230   4.029   0.758
 1986TIP3    H2 5965   0.082   4.044   0.728
 1987TIP3   OH2 5966   0.441   0.154   2.899
 1987TIP3    H1 5967   0.392   0.180   2.821
 1987TIP3    H2 5968   0.376   0.153   2.970
 1988TIP3   OH2 5969   2.733   5.161   2.816
 1988TIP3    H1 5970   2.755   5.105   2.741
 1988TIP3    H2 5971   2.640   5.143   2.833
 1989TIP3   OH2 5972   3.171   0.721   0.840
 1989TIP3    H1 5973   3.121   0.791   0.797
 1989TIP3    H2 5974   3.144   0.641   0.795
 1990TIP3   OH2 5975   5.528   4.297   3.601
 1990TIP3    H1 5976   5.454   4.239   3.585
 1990TIP3    H2 5977   5.589   4.245   3.654
 1991TIP3   OH2 5978   1.212   4.213   4.741
 1991TIP3    H1 5979   1.219   4.134   4.687
 1991TIP3    H2 5980   1.118   4.222   4.758
 1992TIP3   OH2 5981   4.925   0.778   2.294
 1992TIP3    H1 5982   4.961   0.866   2.284
 1992TIP3    H2 5983   5.000   0.724   2.320
 1993TIP3   OH2 5984   0.689   0.403   0.887
 1993TIP3    H1 5985   0.653   0.487   0.917
 1993TIP3    H2 5986   0.781   0.405   0.914
 1994TIP3   OH2 5987   1.670   5.644   4.508
 1994TIP3    H1 5988   1.621   5.726   4.520
 1994TIP3    H2 5989   1.756   5.671   4.478
 1995TIP3   OH2 5990   3.775   5.752   4.785
 1995TIP3    H1 5991   3.853   5.802   4.810
 1995TIP3    H2 5992   3.706   5.818   4.780
 1996TIP3   OH2 5993   6.340   0.327   4.297
 1996TIP3    H1 5994   6.421   0.308   4.343
 1996TIP3    H2 5995   6.272   0.326   4.365
 1997TIP3   OH2 5996   2.022   3.944   4.374
 1997TIP3    H1 5997   1.971   3.925   4.296
 1997TIP3    H2 5998   1.985   4.025   4.408
 1998TIP3   OH2 5999   3.415   5.659   4.994
 1998TIP3    H1 6000   3.458   5.600   5.057
 1998TIP3    H2 6001   3.340   5.608   4.963
 1999TIP3   OH2 6002   1.061   5.025   0.311
 1999TIP3    H1 6003   1.076   5.033   0.217
 1999TIP3    H2 6004   1.115   4.951   0.338
 2000TIP3   OH2 6005   0.197   2.994   2.748
 2000TIP3    H1 6006   0.173   2.904   2.725
 2000TIP3    H2 6007   0.291   2.998   2.730
 2001TIP3   OH2 6008   1.951   3.421   0.264
 2001TIP3    H1 6009   1.916   3.349   0.211
 2001TIP3    H2 6010   1.907   3.413   0.348
 2002TIP3   OH2 6011   0.100   0.639   2.686
 2002TIP3    H1 6012   0.110   0.707   2.752
 2002TIP3    H2 6013   0.144   0.562   2.723
 2003TIP3   OH2 6014   3.529   1.852   1.679
 2003TIP3    H1 6015   3.466   1.924   1.683
 2003TIP3    H2 6016   3.612   1.892   1.706
 2004TIP3   OH2 6017   5.743   3.851   3.721
 2004TIP3    H1 6018   5.666   3.809   3.684
 2004TIP3    H2 6019   5.785   3.783   3.774
 2005TIP3   OH2 6020   4.501   0.211   0.319
 2005TIP3    H1 6021   4.443   0.272   0.272
 2005TIP3    H2 6022   4.441   0.149   0.361
 2006TIP3   OH2 6023   2.381   5.822   1.249
 2006TIP3    H1 6024   2.423   5.775   1.321
 2006TIP3    H2 6025   2.447   5.823   1.179
 2007TIP3   OH2 6026   1.273   3.692   4.809
 2007TIP3    H1 6027   1.183   3.724   4.796
 2007TIP3    H2 6028   1.295   3.719   4.898
 2008TIP3   OH2 6029   6.127   0.870   1.280
 2008TIP3    H1 6030   6.136   0.811   1.355
 2008TIP3    H2 6031   6.188   0.942   1.298
 2009TIP3   OH2 6032   5.554   4.157   4.279
 2009TIP3    H1 6033   5.569   4.102   4.202
 2009TIP3    H2 6034   5.605   4.236   4.262
 2010TIP3   OH2 6035   2.175   1.102   1.293
 2010TIP3    H1 6036   2.232   1.176   1.270
 2010TIP3    H2 6037   2.159   1.058   1.210
 2011TIP3   OH2 6038   5.588   0.558   4.871
 2011TIP3    H1 6039   5.503   0.595   4.896
 2011TIP3    H2 6040   5.647   0.585   4.942
 2012TIP3   OH2 6041   1.124   5.305   1.647
 2012TIP3    H1 6042   1.058   5.238   1.665
 2012TIP3    H2 6043   1.188   5.261   1.591
 2013TIP3   OH2 6044   3.969   0.380   0.515
 2013TIP3    H1 6045   3.927   0.417   0.437
 2013TIP3    H2 6046   4.031   0.316   0.481
 2014TIP3   OH2 6047   6.351   1.036   4.630
 2014TIP3    H1 6048   6.373   1.004   4.543
 2014TIP3    H2 6049   6.432   1.027   4.680
 2015TIP3   OH2 6050   2.494   4.986   4.174
 2015TIP3    H1 6051   2.509   5.078   4.196
 2015TIP3    H2 6052   2.470   4.987   4.081
 2016TIP3   OH2 6053   5.081   4.882   1.905
 2016TIP3    H1 6054   5.121   4.947   1.847
 2016TIP3    H2 6055   4.987   4.902   1.902
 2017TIP3   OH2 6056   5.369   4.614   2.823
 2017TIP3    H1 6057   5.352   4.520   2.809
 2017TIP3    H2 6058   5.412   4.618   2.909
 2018TIP3   OH2 6059   4.843   1.953   3.849
 2018TIP3    H1 6060   4.892   1.892   3.794
 2018TIP3    H2 6061   4.819   2.025   3.790
 2019TIP3   OH2 6062   1.345   0.694   2.859
 2019TIP3    H1 6063   1.393   0.648   2.929
 2019TIP3    H2 6064   1.282   0.749   2.905
 2020TIP3   OH2 6065   3.990   0.216   2.151
 2020TIP3    H1 6066   4.037   0.218   2.067
 2020TIP3    H2 6067   3.934   0.293   2.149
 2021TIP3   OH2 6068   2.223   2.617   3.916
 2021TIP3    H1 6069   2.272   2.683   3.965
 2021TIP3    H2 6070   2.174   2.667   3.850
 2022TIP3   OH2 6071   5.608   5.111   4.789
 2022TIP3    H1 6072   5.638   5.202   4.796
 2022TIP3    H2 6073   5.558   5.109   4.707
 2023TIP3   OH2 6074   2.410   4.051   4.908
 2023TIP3    H1 6075   2.354   3.990   4.957
 2023TIP3    H2 6076   2.393   4.136   4.948
 2024TIP3   OH2 6077   1.534   2.289   4.432
 2024TIP3    H1 6078   1.474   2.290   4.507
 2024TIP3    H2 6079   1.621   2.288   4.470
 2025TIP3   OH2 6080   1.563   0.587   4.127
 2025TIP3    H1 6081   1.482   0.625   4.095
 2025TIP3    H2 6082   1.605   0.658   4.176
 2026TIP3   OH2 6083   1.652   4.294   0.870
 2026TIP3    H1 6084   1.603   4.369   0.905
 2026TIP3    H2 6085   1.619   4.219   0.918
 2027TIP3   OH2 6086   4.918   1.557   4.722
 2027TIP3    H1 6087   4.901   1.590   4.633
 2027TIP3    H2 6088   4.910   1.635   4.777
 2028TIP3   OH2 6089   1.923   2.139   4.233
 2028TIP3    H1 6090   1.991   2.126   4.299
 2028TIP3    H2 6091   1.971   2.156   4.152
 2029TIP3   OH2 6092   0.625   1.550   2.561
 2029TIP3    H1 6093   0.699   1.516   2.511
 2029TIP3    H2 6094   0.643   1.643   2.571
 2030TIP3   OH2 6095   0.473   5.047   4.778
 2030TIP3    H1 6096   0.379   5.059   4.766
 2030TIP3    H2 6097   0.505   5.133   4.806
 2031TIP3   OH2 6098   2.000   5.567   0.969
 2031TIP3    H1 6099   1.926   5.558   1.029
 2031TIP3    H2 6100   2.075   5.584   1.026
 2032TIP3   OH2 6101   0.079   2.808   4.921
 2032TIP3    H1 6102   0.061   2.902   4.925
 2032TIP3    H2 6103   0.114   2.793   4.833
 2033TIP3   OH2 6104   5.310   1.936   1.880
 2033TIP3    H1 6105   5.304   2.031   1.872
 2033TIP3    H2 6106   5.219   1.906   1.877
 2034TIP3   OH2 6107   6.097   1.453   3.589
 2034TIP3    H1 6108   6.050   1.429   3.668
 2034TIP3    H2 6109   6.042   1.421   3.518
 2035TIP3   OH2 6110   1.390   4.388   2.545
 2035TIP3    H1 6111   1.302   4.401   2.508
 2035TIP3    H2 6112   1.447   4.442   2.490
 2036TIP3   OH2 6113   4.823   0.727   4.369
 2036TIP3    H1 6114   4.774   0.775   4.302
 2036TIP3    H2 6115   4.913   0.724   4.335
 2037TIP3   OH2 6116   6.008   1.839   1.185
 2037TIP3    H1 6117   6.012   1.758   1.236
 2037TIP3    H2 6118   5.915   1.848   1.163
 2038TIP3   OH2 6119   0.030   2.437   0.568
 2038TIP3    H1 6120   0.100   2.494   0.536
 2038TIP3    H2 6121  -0.037   2.498   0.600
 2039TIP3   OH2 6122   2.759   0.764   2.251
 2039TIP3    H1 6123   2.795   0.770   2.339
 2039TIP3    H2 6124   2.719   0.850   2.235
 2040TIP3   OH2 6125   2.782   5.588   1.921
 2040TIP3    H1 6126   2.743   5.588   2.008
 2040TIP3    H2 6127   2.833   5.507   1.917
 2041TIP3   OH2 6128   5.027   5.000   4.547
 2041TIP3    H1 6129   4.934   4.986   4.531
 2041TIP3    H2 6130   5.035   4.994   4.643
 2042TIP3   OH2 6131   6.157   1.334   0.099
 2042TIP3    H1 6132   6.192   1.395   0.034
 2042TIP3    H2 6133   6.161   1.249   0.055
 2043TIP3   OH2 6134   2.985   0.829   3.486
 2043TIP3    H1 6135   3.069   0.873   3.500
 2043TIP3    H2 6136   2.947   0.872   3.410
 2044TIP3   OH2 6137   4.977   2.802   0.642
 2044TIP3    H1 6138   4.887   2.811   0.613
 2044TIP3    H2 6139   5.006   2.719   0.604
 2045TIP3   OH2 6140   4.661   3.654   0.748
 2045TIP3    H1 6141   4.576   3.657   0.792
 2045TIP3    H2 6142   4.722   3.624   0.815
 2046TIP3   OH2 6143   3.052   3.971   1.968
 2046TIP3    H1 6144   3.122   4.022   1.927
 2046TIP3    H2 6145   3.096   3.920   2.036
 2047TIP3   OH2 6146   2.598   3.621   3.246
 2047TIP3    H1 6147   2.569   3.593   3.333
 2047TIP3    H2 6148   2.606   3.539   3.197
 2048TIP3   OH2 6149   2.136   3.413   3.568
 2048TIP3    H1 6150   2.182   3.335   3.538
 2048TIP3    H2 6151   2.205   3.471   3.600
 2049TIP3   OH2 6152   6.023   2.673   5.170
 2049TIP3    H1 6153   6.009   2.693   5.078
 2049TIP3    H2 6154   6.100   2.616   5.171
 2050TIP3   OH2 6155   6.033   4.256   5.042
 2050TIP3    H1 6156   5.961   4.266   4.980
 2050TIP3    H2 6157   6.111   4.275   4.991
 2051TIP3   OH2 6158   4.307   2.698   3.972
 2051TIP3    H1 6159   4.296   2.632   3.903
 2051TIP3    H2 6160   4.396   2.683   4.005
 2052TIP3   OH2 6161   2.038   4.686   2.962
 2052TIP3    H1 6162   2.043   4.610   3.020
 2052TIP3    H2 6163   2.102   4.668   2.893
 2053TIP3   OH2 6164   4.260   0.889   4.346
 2053TIP3    H1 6165   4.354   0.887   4.331
 2053TIP3    H2 6166   4.240   0.802   4.381
 2054TIP3   OH2 6167   0.233   2.382   1.940
 2054TIP3    H1 6168   0.270   2.412   1.858
 2054TIP3    H2 6169   0.279   2.300   1.959
 2055TIP3   OH2 6170   0.387   0.062   0.306
 2055TIP3    H1 6171   0.368   0.111   0.385
 2055TIP3    H2 6172   0.476   0.089   0.281
 2056TIP3   OH2 6173   4.140   0.694   0.319
 2056TIP3    H1 6174   4.075   0.739   0.372
 2056TIP3    H2 6175   4.089   0.635   0.263
 2057TIP3   OH2 6176   2.713   1.911   4.111
 2057TIP3    H1 6177   2.739   1.849   4.180
 2057TIP3    H2 6178   2.620   1.894   4.099
 2058TIP3   OH2 6179   2.713  -0.006   3.733
 2058TIP3    H1 6180   2.716  -0.080   3.673
 2058TIP3    H2 6181   2.781   0.053   3.702
 2059TIP3   OH2 6182   1.660   4.283   2.521
 2059TIP3    H1 6183   1.622   4.245   2.601
 2059TIP3    H2 6184   1.707   4.360   2.551
 2060TIP3   OH2 6185   5.196   0.971   0.350
 2060TIP3    H1 6186   5.243   0.975   0.433
 2060TIP3    H2 6187   5.242   1.033   0.293
 2061TIP3   OH2 6188   2.019   4.356   2.658
 2061TIP3    H1 6189   1.941   4.403   2.690
 2061TIP3    H2 6190   1.988   4.306   2.582
 2062TIP3   OH2 6191   5.317   0.488   3.600
 2062TIP3    H1 6192   5.265   0.553   3.553
 2062TIP3    H2 6193   5.407   0.519   3.592
 2063TIP3   OH2 6194   1.927   3.081   4.282
 2063TIP3    H1 6195   1.833   3.087   4.270
 2063TIP3    H2 6196   1.961   3.164   4.248
 2064TIP3   OH2 6197   3.002   0.927   0.740
 2064TIP3    H1 6198   3.055   1.001   0.710
 2064TIP3    H2 6199   2.952   0.962   0.814
 2065TIP3   OH2 6200   5.383   0.748   2.683
 2065TIP3    H1 6201   5.457   0.769   2.740
 2065TIP3    H2 6202   5.308   0.744   2.742
 2066TIP3   OH2 6203   3.328   0.313   0.401
 2066TIP3    H1 6204   3.357   0.233   0.444
 2066TIP3    H2 6205   3.254   0.286   0.346
 2067TIP3   OH2 6206   6.123   1.783   5.107
 2067TIP3    H1 6207   6.150   1.710   5.051
 2067TIP3    H2 6208   6.028   1.771   5.118
 2068TIP3   OH2 6209   4.423   4.027   2.604
 2068TIP3    H1 6210   4.409   4.079   2.684
 2068TIP3    H2 6211   4.404   4.087   2.533
 2069TIP3   OH2 6212   4.825   1.936   4.399
 2069TIP3    H1 6213   4.734   1.932   4.371
 2069TIP3    H2 6214   4.853   2.026   4.381
 2070TIP3   OH2 6215   4.059   4.496   0.600
 2070TIP3    H1 6216   4.034   4.487   0.508
 2070TIP3    H2 6217   3.981   4.532   0.642
 2071TIP3   OH2 6218   2.134   0.600   0.887
 2071TIP3    H1 6219   2.162   0.668   0.949
 2071TIP3    H2 6220   2.044   0.581   0.911
 2072TIP3   OH2 6221   2.315   5.663   4.854
 2072TIP3    H1 6222   2.324   5.569   4.873
 2072TIP3    H2 6223   2.360   5.675   4.771
 2073TIP3   OH2 6224   1.335   5.353   1.811
 2073TIP3    H1 6225   1.255   5.337   1.760
 2073TIP3    H2 6226   1.393   5.399   1.750
 2074TIP3   OH2 6227   1.021   4.468   0.026
 2074TIP3    H1 6228   1.059   4.386  -0.004
 2074TIP3    H2 6229   0.939   4.476  -0.023
 2075TIP3   OH2 6230   0.635   4.765   3.284
 2075TIP3    H1 6231   0.601   4.682   3.250
 2075TIP3    H2 6232   0.675   4.808   3.208
 2076TIP3   OH2 6233   3.831   5.749   1.357
 2076TIP3    H1 6234   3.921   5.768   1.330
 2076TIP3    H2 6235   3.780   5.755   1.277
 2077TIP3   OH2 6236   4.676   2.008   2.354
 2077TIP3    H1 6237   4.650   2.000   2.446
 2077TIP3    H2 6238   4.713   2.096   2.348
 2078TIP3   OH2 6239   2.218   3.508   2.513
 2078TIP3    H1 6240   2.308   3.478   2.503
 2078TIP3    H2 6241   2.224   3.604   2.518
 2079TIP3   OH2 6242   0.857   5.670   2.782
 2079TIP3    H1 6243   0.856   5.689   2.876
 2079TIP3    H2 6244   0.764   5.671   2.757
 2080TIP3   OH2 6245   3.330   2.141   1.244
 2080TIP3    H1 6246   3.351   2.208   1.310
 2080TIP3    H2 6247   3.254   2.177   1.198
 2081TIP3   OH2 6248   4.273   5.624   0.353
 2081TIP3    H1 6249   4.334   5.681   0.307
 2081TIP3    H2 6250   4.207   5.601   0.288
 2082TIP3   OH2 6251   3.134   1.519   0.778
 2082TIP3    H1 6252   3.171   1.501   0.864
 2082TIP3    H2 6253   3.129   1.615   0.773
 2083TIP3   OH2 6254   4.419   4.978   4.532
 2083TIP3    H1 6255   4.416   4.884   4.551
 2083TIP3    H2 6256   4.493   4.988   4.473
 2084TIP3   OH2 6257   0.792   0.321   0.524
 2084TIP3    H1 6258   0.859   0.294   0.587
 2084TIP3    H2 6259   0.836   0.320   0.440
 2085TIP3   OH2 6260   4.839   0.596   1.867
 2085TIP3    H1 6261   4.920   0.642   1.847
 2085TIP3    H2 6262   4.855   0.555   1.952
 2086TIP3   OH2 6263   1.346   0.551   2.234
 2086TIP3    H1 6264   1.390   0.490   2.175
 2086TIP3    H2 6265   1.308   0.495   2.302
 2087TIP3   OH2 6266   1.886   4.199   4.385
 2087TIP3    H1 6267   1.945   4.220   4.457
 2087TIP3    H2 6268   1.913   4.255   4.313
 2088TIP3   OH2 6269   4.739   2.172   0.770
 2088TIP3    H1 6270   4.669   2.134   0.716
 2088TIP3    H2 6271   4.789   2.096   0.801
 2089TIP3   OH2 6272   5.585   5.315   5.054
 2089TIP3    H1 6273   5.554   5.381   4.992
 2089TIP3    H2 6274   5.574   5.356   5.140
 2090TIP3   OH2 6275   1.117   5.082   3.975
 2090TIP3    H1 6276   1.178   5.075   3.902
 2090TIP3    H2 6277   1.161   5.038   4.048
 2091TIP3   OH2 6278   0.280   3.736   3.868
 2091TIP3    H1 6279   0.354   3.697   3.820
 2091TIP3    H2 6280   0.208   3.674   3.855
 2092TIP3   OH2 6281   5.982   5.329   2.074
 2092TIP3    H1 6282   6.046   5.372   2.017
 2092TIP3    H2 6283   5.897   5.364   2.045
 2093TIP3   OH2 6284   2.111   0.792   1.818
 2093TIP3    H1 6285   2.072   0.878   1.802
 2093TIP3    H2 6286   2.043   0.730   1.791
 2094TIP3   OH2 6287   0.580   4.598   2.100
 2094TIP3    H1 6288   0.671   4.572   2.090
 2094TIP3    H2 6289   0.560   4.580   2.192
 2095TIP3   OH2 6290   5.066   0.573   2.410
 2095TIP3    H1 6291   4.993   0.563   2.471
 2095TIP3    H2 6292   5.103   0.485   2.404
 2096TIP3   OH2 6293   2.819   1.223   4.988
 2096TIP3    H1 6294   2.896   1.271   4.958
 2096TIP3    H2 6295   2.765   1.288   5.033
 2097TIP3   OH2 6296   5.294   4.859   3.598
 2097TIP3    H1 6297   5.276   4.792   3.665
 2097TIP3    H2 6298   5.372   4.904   3.630
 2098TIP3   OH2 6299   5.824  -0.010   4.332
 2098TIP3    H1 6300   5.864   0.076   4.338
 2098TIP3    H2 6301   5.740  -0.001   4.378
 2099TIP3   OH2 6302   2.199   4.794   3.621
 2099TIP3    H1 6303   2.114   4.772   3.658
 2099TIP3    H2 6304   2.220   4.880   3.658
 2100TIP3   OH2 6305   6.157   0.691   0.330
 2100TIP3    H1 6306   6.085   0.629   0.323
 2100TIP3    H2 6307   6.233   0.643   0.297
 2101TIP3   OH2 6308   1.149   5.918   4.367
 2101TIP3    H1 6309   1.174   5.826   4.376
 2101TIP3    H2 6310   1.153   5.952   4.457
 2102TIP3   OH2 6311   6.357   5.191   0.602
 2102TIP3    H1 6312   6.321   5.273   0.634
 2102TIP3    H2 6313   6.337   5.127   0.670
 2103TIP3   OH2 6314   1.813   0.807   2.005
 2103TIP3    H1 6315   1.733   0.809   2.056
 2103TIP3    H2 6316   1.822   0.895   1.969
 2104TIP3   OH2 6317   4.195   5.864   1.723
 2104TIP3    H1 6318   4.287   5.861   1.749
 2104TIP3    H2 6319   4.170   5.956   1.733
 2105TIP3   OH2 6320   0.970   5.876   3.627
 2105TIP3    H1 6321   0.909   5.940   3.590
 2105TIP3    H2 6322   1.055   5.920   3.625
 2106TIP3   OH2 6323   1.579   0.699   4.980
 2106TIP3    H1 6324   1.598   0.686   4.887
 2106TIP3    H2 6325   1.566   0.610   5.013
 2107TIP3   OH2 6326   4.391   1.782   3.034
 2107TIP3    H1 6327   4.359   1.792   3.124
 2107TIP3    H2 6328   4.392   1.688   3.019
 2108TIP3   OH2 6329   0.536   0.190   2.432
 2108TIP3    H1 6330   0.524   0.266   2.489
 2108TIP3    H2 6331   0.538   0.115   2.491
 2109TIP3   OH2 6332   2.206   1.664   3.371
 2109TIP3    H1 6333   2.128   1.712   3.344
 2109TIP3    H2 6334   2.184   1.629   3.457
 2110TIP3   OH2 6335   3.232   4.820   4.284
 2110TIP3    H1 6336   3.216   4.768   4.363
 2110TIP3    H2 6337   3.253   4.755   4.216
 2111TIP3   OH2 6338   4.139   3.456   4.434
 2111TIP3    H1 6339   4.111   3.491   4.518
 2111TIP3    H2 6340   4.199   3.384   4.457
 2112TIP3   OH2 6341   5.596   4.296   3.977
 2112TIP3    H1 6342   5.635   4.367   3.926
 2112TIP3    H2 6343   5.671   4.254   4.020
 2113TIP3   OH2 6344   4.328   4.456   0.626
 2113TIP3    H1 6345   4.374   4.454   0.541
 2113TIP3    H2 6346   4.243   4.496   0.606
 2114TIP3   OH2 6347   3.163   3.104   0.695
 2114TIP3    H1 6348   3.258   3.097   0.697
 2114TIP3    H2 6349   3.137   3.110   0.788
 2115TIP3   OH2 6350   1.734   2.831   0.960
 2115TIP3    H1 6351   1.725   2.738   0.981
 2115TIP3    H2 6352   1.644   2.862   0.949
 2116TIP3   OH2 6353   5.034   3.961   0.751
 2116TIP3    H1 6354   4.993   4.040   0.787
 2116TIP3    H2 6355   4.966   3.921   0.696
 2117TIP3   OH2 6356   1.750   5.836   0.766
 2117TIP3    H1 6357   1.704   5.912   0.731
 2117TIP3    H2 6358   1.689   5.763   0.754
 2118TIP3   OH2 6359   4.263   4.145   5.198
 2118TIP3    H1 6360   4.275   4.077   5.264
 2118TIP3    H2 6361   4.350   4.186   5.191
 2119TIP3   OH2 6362   5.730   0.829   1.415
 2119TIP3    H1 6363   5.758   0.805   1.326
 2119TIP3    H2 6364   5.790   0.899   1.441
 2120TIP3   OH2 6365   1.417   5.076   4.132
 2120TIP3    H1 6366   1.406   5.074   4.228
 2120TIP3    H2 6367   1.396   5.166   4.107
 2121TIP3   OH2 6368   2.595   3.750   3.010
 2121TIP3    H1 6369   2.594   3.693   3.088
 2121TIP3    H2 6370   2.670   3.807   3.024
 2122TIP3   OH2 6371   5.094   5.490   3.375
 2122TIP3    H1 6372   5.074   5.554   3.444
 2122TIP3    H2 6373   5.180   5.516   3.342
 2123TIP3   OH2 6374   4.275   5.138   3.155
 2123TIP3    H1 6375   4.293   5.097   3.240
 2123TIP3    H2 6376   4.207   5.084   3.116
 2124TIP3   OH2 6377   4.105   3.190   3.217
 2124TIP3    H1 6378   4.033   3.129   3.233
 2124TIP3    H2 6379   4.179   3.134   3.194
 2125TIP3   OH2 6380   3.531   0.990   0.685
 2125TIP3    H1 6381   3.500   0.905   0.656
 2125TIP3    H2 6382   3.534   0.983   0.780
 2126TIP3   OH2 6383   2.114   5.876   1.085
 2126TIP3    H1 6384   2.145   5.810   1.023
 2126TIP3    H2 6385   2.185   5.885   1.149
 2127TIP3   OH2 6386   4.194   2.085   0.456
 2127TIP3    H1 6387   4.209   2.031   0.379
 2127TIP3    H2 6388   4.272   2.140   0.462
 2128TIP3   OH2 6389   2.596   3.484   4.987
 2128TIP3    H1 6390   2.691   3.490   4.983
 2128TIP3    H2 6391   2.565   3.571   4.961
 2129TIP3   OH2 6392   1.057   0.504   4.401
 2129TIP3    H1 6393   1.126   0.558   4.362
 2129TIP3    H2 6394   0.977   0.532   4.355
 2130TIP3   OH2 6395   4.509   3.485   3.515
 2130TIP3    H1 6396   4.428   3.484   3.465
 2130TIP3    H2 6397   4.545   3.573   3.502
 2131TIP3   OH2 6398   4.315   5.405   3.904
 2131TIP3    H1 6399   4.391   5.348   3.912
 2131TIP3    H2 6400   4.281   5.413   3.993
 2132TIP3   OH2 6401   3.641   5.492   0.835
 2132TIP3    H1 6402   3.687   5.573   0.816
 2132TIP3    H2 6403   3.679   5.461   0.917
 2133TIP3   OH2 6404   3.287   5.978   2.558
 2133TIP3    H1 6405   3.324   5.890   2.570
 2133TIP3    H2 6406   3.361   6.031   2.531
 2134TIP3   OH2 6407   1.698   0.351   3.124
 2134TIP3    H1 6408   1.728   0.400   3.201
 2134TIP3    H2 6409   1.762   0.371   3.056
 2135TIP3   OH2 6410   2.753   0.522   3.340
 2135TIP3    H1 6411   2.779   0.444   3.291
 2135TIP3    H2 6412   2.816   0.589   3.315
 2136TIP3   OH2 6413   5.844   4.017   2.471
 2136TIP3    H1 6414   5.808   3.974   2.394
 2136TIP3    H2 6415   5.910   3.957   2.504
 2137TIP3   OH2 6416   3.826   1.915   3.510
 2137TIP3    H1 6417   3.738   1.939   3.482
 2137TIP3    H2 6418   3.815   1.829   3.551
 2138TIP3   OH2 6419   5.905   5.492   4.744
 2138TIP3    H1 6420   5.928   5.410   4.789
 2138TIP3    H2 6421   5.929   5.560   4.807
 2139TIP3   OH2 6422   1.933   3.277   4.822
 2139TIP3    H1 6423   1.892   3.247   4.742
 2139TIP3    H2 6424   2.023   3.300   4.797
 2140TIP3   OH2 6425   6.249   5.743   5.024
 2140TIP3    H1 6426   6.278   5.764   4.936
 2140TIP3    H2 6427   6.226   5.827   5.063
 2141TIP3   OH2 6428   1.546   5.233   3.834
 2141TIP3    H1 6429   1.464   5.248   3.880
 2141TIP3    H2 6430   1.520   5.193   3.750
 2142TIP3   OH2 6431   3.253   5.455   2.577
 2142TIP3    H1 6432   3.211   5.375   2.608
 2142TIP3    H2 6433   3.345   5.446   2.601
 2143TIP3   OH2 6434   1.101   1.150   1.125
 2143TIP3    H1 6435   1.178   1.205   1.110
 2143TIP3    H2 6436   1.052   1.197   1.193
 2144TIP3   OH2 6437   1.110   4.991   3.136
 2144TIP3    H1 6438   1.055   5.067   3.156
 2144TIP3    H2 6439   1.195   5.011   3.175
 2145TIP3   OH2 6440   1.463   4.657   3.401
 2145TIP3    H1 6441   1.410   4.591   3.446
 2145TIP3    H2 6442   1.539   4.670   3.457
 2146TIP3   OH2 6443   2.470   3.958   0.062
 2146TIP3    H1 6444   2.502   4.047   0.076
 2146TIP3    H2 6445   2.377   3.969   0.041
 2147TIP3   OH2 6446   2.671   3.404   0.466
 2147TIP3    H1 6447   2.751   3.363   0.499
 2147TIP3    H2 6448   2.600   3.352   0.505
 2148TIP3   OH2 6449   1.278   0.596   3.744
 2148TIP3    H1 6450   1.351   0.585   3.684
 2148TIP3    H2 6451   1.219   0.657   3.699
 2149TIP3   OH2 6452   1.375   1.626   5.181
 2149TIP3    H1 6453   1.420   1.558   5.131
 2149TIP3    H2 6454   1.416   1.708   5.152
 2150TIP3   OH2 6455   2.632   5.231   4.250
 2150TIP3    H1 6456   2.669   5.317   4.233
 2150TIP3    H2 6457   2.702   5.170   4.229
 2151TIP3   OH2 6458   6.004   0.245   0.475
 2151TIP3    H1 6459   5.937   0.233   0.408
 2151TIP3    H2 6460   5.994   0.169   0.533
 2152TIP3   OH2 6461   6.102   3.885   2.589
 2152TIP3    H1 6462   6.160   3.901   2.664
 2152TIP3    H2 6463   6.019   3.858   2.629
 2153TIP3   OH2 6464   1.259   3.420   1.441
 2153TIP3    H1 6465   1.299   3.433   1.355
 2153TIP3    H2 6466   1.265   3.506   1.484
 2154TIP3   OH2 6467   6.057   2.918   4.737
 2154TIP3    H1 6468   6.055   2.830   4.773
 2154TIP3    H2 6469   6.046   2.905   4.642
 2155TIP3   OH2 6470   0.102   0.230   0.218
 2155TIP3    H1 6471   0.084   0.253   0.127
 2155TIP3    H2 6472   0.186   0.272   0.237
 2156TIP3   OH2 6473   4.844   0.042   1.149
 2156TIP3    H1 6474   4.856  -0.008   1.230
 2156TIP3    H2 6475   4.799   0.122   1.177
 2157TIP3   OH2 6476   0.055   1.686   2.055
 2157TIP3    H1 6477   0.100   1.743   2.116
 2157TIP3    H2 6478  -0.006   1.635   2.109
 2158TIP3   OH2 6479   4.552   5.432   3.355
 2158TIP3    H1 6480   4.567   5.366   3.423
 2158TIP3    H2 6481   4.634   5.481   3.350
 2159TIP3   OH2 6482   5.871   3.741   5.142
 2159TIP3    H1 6483   5.962   3.711   5.138
 2159TIP3    H2 6484   5.874   3.830   5.107
 2160TIP3   OH2 6485   3.220   3.940   1.466
 2160TIP3    H1 6486   3.237   4.027   1.502
 2160TIP3    H2 6487   3.286   3.928   1.398
 2161TIP3   OH2 6488   1.067   3.801   1.371
 2161TIP3    H1 6489   1.009   3.725   1.382
 2161TIP3    H2 6490   1.152   3.771   1.402
 2162TIP3   OH2 6491   3.068   1.894   0.421
 2162TIP3    H1 6492   3.020   1.962   0.468
 2162TIP3    H2 6493   3.035   1.812   0.457
 2163TIP3   OH2 6494   0.089   0.856   0.435
 2163TIP3    H1 6495   0.039   0.897   0.365
 2163TIP3    H2 6496   0.176   0.896   0.429
 2164TIP3   OH2 6497   0.307   4.288   1.049
 2164TIP3    H1 6498   0.318   4.207   1.098
 2164TIP3    H2 6499   0.218   4.284   1.014
 2165TIP3   OH2 6500   0.998   1.237   4.885
 2165TIP3    H1 6501   1.028   1.328   4.879
 2165TIP3    H2 6502   1.074   1.185   4.858
 2166TIP3   OH2 6503   1.681   0.786   4.746
 2166TIP3    H1 6504   1.751   0.847   4.770
 2166TIP3    H2 6505   1.724   0.719   4.694
 2167TIP3   OH2 6506   4.014   3.752   1.462
 2167TIP3    H1 6507   4.055   3.826   1.507
 2167TIP3    H2 6508   3.942   3.790   1.412
 2168TIP3   OH2 6509   3.174   0.930   3.974
 2168TIP3    H1 6510   3.143   0.990   4.042
 2168TIP3    H2 6511   3.187   0.986   3.897
 2169TIP3   OH2 6512   3.720   5.244   1.653
 2169TIP3    H1 6513   3.637   5.253   1.700
 2169TIP3    H2 6514   3.697   5.199   1.572
 2170TIP3   OH2 6515   4.537   1.622   2.193
 2170TIP3    H1 6516   4.523   1.555   2.260
 2170TIP3    H2 6517   4.472   1.689   2.213
 2171TIP3   OH2 6518   6.234   2.301   2.493
 2171TIP3    H1 6519   6.264   2.336   2.577
 2171TIP3    H2 6520   6.160   2.358   2.469
 2172TIP3   OH2 6521   1.666   2.485   3.129
 2172TIP3    H1 6522   1.756   2.463   3.108
 2172TIP3    H2 6523   1.622   2.491   3.044
 2173TIP3   OH2 6524   0.181   0.548   1.888
 2173TIP3    H1 6525   0.256   0.585   1.934
 2173TIP3    H2 6526   0.180   0.593   1.804
 2174TIP3   OH2 6527   1.754   3.001   4.668
 2174TIP3    H1 6528   1.797   3.079   4.631
 2174TIP3    H2 6529   1.820   2.932   4.661
 2175TIP3   OH2 6530   3.510   4.265   0.218
 2175TIP3    H1 6531   3.524   4.358   0.198
 2175TIP3    H2 6532   3.438   4.264   0.280
 2176TIP3   OH2 6533   0.914   2.997   2.245
 2176TIP3    H1 6534   0.935   3.018   2.336
 2176TIP3    H2 6535   0.968   3.057   2.193
 2177TIP3   OH2 6536   0.780   3.196   1.636
 2177TIP3    H1 6537   0.725   3.262   1.594
 2177TIP3    H2 6538   0.859   3.244   1.662
 2178TIP3   OH2 6539   4.774   1.487   2.160
 2178TIP3    H1 6540   4.685   1.523   2.150
 2178TIP3    H2 6541   4.778   1.461   2.252
 2179TIP3   OH2 6542   4.017   1.787   4.680
 2179TIP3    H1 6543   3.974   1.778   4.595
 2179TIP3    H2 6544   4.002   1.878   4.705
 2180TIP3   OH2 6545   1.817   4.849   0.244
 2180TIP3    H1 6546   1.763   4.816   0.316
 2180TIP3    H2 6547   1.865   4.922   0.282
 2181TIP3   OH2 6548   2.768   4.535   2.400
 2181TIP3    H1 6549   2.677   4.560   2.389
 2181TIP3    H2 6550   2.815   4.586   2.334
 2182TIP3   OH2 6551   0.963   2.044   1.758
 2182TIP3    H1 6552   1.014   1.970   1.790
 2182TIP3    H2 6553   0.879   2.006   1.732
 2183TIP3   OH2 6554   5.697   3.316   5.030
 2183TIP3    H1 6555   5.628   3.271   5.079
 2183TIP3    H2 6556   5.657   3.398   5.002
 2184TIP3   OH2 6557   0.095   1.753   3.678
 2184TIP3    H1 6558   0.058   1.664   3.679
 2184TIP3    H2 6559   0.018   1.810   3.669
 2185TIP3   OH2 6560   4.907   4.190   4.302
 2185TIP3    H1 6561   4.991   4.145   4.297
 2185TIP3    H2 6562   4.914   4.261   4.238
 2186TIP3   OH2 6563   4.346   0.842   3.706
 2186TIP3    H1 6564   4.399   0.828   3.784
 2186TIP3    H2 6565   4.298   0.923   3.722
 2187TIP3   OH2 6566   4.171   3.223   4.983
 2187TIP3    H1 6567   4.097   3.197   4.927
 2187TIP3    H2 6568   4.171   3.158   5.054
 2188TIP3   OH2 6569   4.945   3.223   3.162
 2188TIP3    H1 6570   4.981   3.265   3.083
 2188TIP3    H2 6571   4.850   3.233   3.153
 2189TIP3   OH2 6572   3.411   3.187   3.819
 2189TIP3    H1 6573   3.405   3.124   3.891
 2189TIP3    H2 6574   3.378   3.139   3.743
 2190TIP3   OH2 6575   2.229   5.589   0.143
 2190TIP3    H1 6576   2.271   5.674   0.156
 2190TIP3    H2 6577   2.288   5.541   0.084
 2191TIP3   OH2 6578   4.894   4.294   3.997
 2191TIP3    H1 6579   4.808   4.334   3.985
 2191TIP3    H2 6580   4.940   4.313   3.915
 2192TIP3   OH2 6581   3.798   0.190   5.071
 2192TIP3    H1 6582   3.884   0.231   5.084
 2192TIP3    H2 6583   3.818   0.098   5.051
 2193TIP3   OH2 6584   1.801   4.044   3.806
 2193TIP3    H1 6585   1.891   4.042   3.838
 2193TIP3    H2 6586   1.749   4.076   3.880
 2194TIP3   OH2 6587   0.536   0.018   3.789
 2194TIP3    H1 6588   0.592   0.077   3.738
 2194TIP3    H2 6589   0.560  -0.070   3.757
 2195TIP3   OH2 6590   5.066   3.031   3.546
 2195TIP3    H1 6591   5.084   2.995   3.459
 2195TIP3    H2 6592   5.127   2.984   3.603
 2196TIP3   OH2 6593   0.239   1.284   4.841
 2196TIP3    H1 6594   0.213   1.192   4.849
 2196TIP3    H2 6595   0.335   1.282   4.841
 2197TIP3   OH2 6596   4.573   3.480   3.805
 2197TIP3    H1 6597   4.602   3.571   3.808
 2197TIP3    H2 6598   4.535   3.470   3.718
 2198TIP3   OH2 6599   4.285   0.647   1.857
 2198TIP3    H1 6600   4.209   0.634   1.915
 2198TIP3    H2 6601   4.357   0.603   1.903
 2199TIP3   OH2 6602   3.370   4.780   2.997
 2199TIP3    H1 6603   3.365   4.796   2.903
 2199TIP3    H2 6604   3.392   4.865   3.035
 2200TIP3   OH2 6605   1.384   0.542   0.124
 2200TIP3    H1 6606   1.409   0.523   0.215
 2200TIP3    H2 6607   1.319   0.612   0.131
 2201TIP3   OH2 6608   4.072   0.226   0.050
 2201TIP3    H1 6609   4.058   0.157   0.115
 2201TIP3    H2 6610   3.990   0.230   0.001
 2202TIP3   OH2 6611   3.140   2.531   0.361
 2202TIP3    H1 6612   3.215   2.543   0.420
 2202TIP3    H2 6613   3.105   2.445   0.385
 2203TIP3   OH2 6614   5.141   3.873   1.803
 2203TIP3    H1 6615   5.088   3.952   1.810
 2203TIP3    H2 6616   5.085   3.811   1.755
 2204TIP3   OH2 6617   2.208   6.014   3.351
 2204TIP3    H1 6618   2.283   5.958   3.375
 2204TIP3    H2 6619   2.140   5.990   3.414
 2205TIP3   OH2 6620   5.350   0.750   1.722
 2205TIP3    H1 6621   5.369   0.783   1.809
 2205TIP3    H2 6622   5.398   0.808   1.663
 2206TIP3   OH2 6623   1.363   4.837   4.020
 2206TIP3    H1 6624   1.315   4.802   4.094
 2206TIP3    H2 6625   1.388   4.925   4.048
 2207TIP3   OH2 6626   2.963   3.836   0.051
 2207TIP3    H1 6627   3.055   3.860   0.041
 2207TIP3    H2 6628   2.931   3.890   0.123
 2208TIP3   OH2 6629   4.194   1.952   0.225
 2208TIP3    H1 6630   4.236   2.007   0.160
 2208TIP3    H2 6631   4.228   1.864   0.208
 2209TIP3   OH2 6632   3.268   0.473   2.051
 2209TIP3    H1 6633   3.183   0.451   2.090
 2209TIP3    H2 6634   3.276   0.568   2.061
 2210TIP3   OH2 6635   4.400   2.973   0.401
 2210TIP3    H1 6636   4.455   2.904   0.362
 2210TIP3    H2 6637   4.380   3.031   0.328
 2211TIP3   OH2 6638   0.480   1.216   1.065
 2211TIP3    H1 6639   0.404   1.181   1.019
 2211TIP3    H2 6640   0.555   1.176   1.021
 2212TIP3   OH2 6641   4.818   4.765   0.223
 2212TIP3    H1 6642   4.898   4.761   0.169
 2212TIP3    H2 6643   4.850   4.767   0.313
 2213TIP3   OH2 6644   1.481   2.673   2.000
 2213TIP3    H1 6645   1.546   2.729   2.042
 2213TIP3    H2 6646   1.397   2.711   2.024
 2214TIP3   OH2 6647   1.855   0.352   1.873
 2214TIP3    H1 6648   1.776   0.344   1.926
 2214TIP3    H2 6649   1.893   0.437   1.899
 2215TIP3   OH2 6650   4.418   3.022   4.442
 2215TIP3    H1 6651   4.464   2.943   4.413
 2215TIP3    H2 6652   4.359   3.043   4.370
 2216TIP3   OH2 6653   2.420   1.972   4.215
 2216TIP3    H1 6654   2.416   2.068   4.219
 2216TIP3    H2 6655   2.461   1.946   4.298
 2217TIP3   OH2 6656   1.906   0.009   3.512
 2217TIP3    H1 6657   1.960   0.029   3.588
 2217TIP3    H2 6658   1.827   0.061   3.523
 2218TIP3   OH2 6659   1.140   0.730   0.709
 2218TIP3    H1 6660   1.103   0.662   0.653
 2218TIP3    H2 6661   1.072   0.797   0.714
 2219TIP3   OH2 6662   0.893   2.816   1.919
 2219TIP3    H1 6663   0.865   2.902   1.951
 2219TIP3    H2 6664   0.913   2.830   1.826
 2220TIP3   OH2 6665   0.843   2.104   2.338
 2220TIP3    H1 6666   0.844   2.196   2.314
 2220TIP3    H2 6667   0.896   2.099   2.418
 2221TIP3   OH2 6668   1.069   5.460   2.317
 2221TIP3    H1 6669   1.053   5.527   2.251
 2221TIP3    H2 6670   1.067   5.378   2.268
 2222TIP3   OH2 6671   4.510   1.035   2.144
 2222TIP3    H1 6672   4.561   0.975   2.199
 2222TIP3    H2 6673   4.527   1.006   2.055
 2223TIP3   OH2 6674   1.723   5.682   2.620
 2223TIP3    H1 6675   1.764   5.597   2.607
 2223TIP3    H2 6676   1.763   5.738   2.553
 2224TIP3   OH2 6677   2.881   0.325   2.466
 2224TIP3    H1 6678   2.880   0.236   2.500
 2224TIP3    H2 6679   2.811   0.370   2.514
 2225TIP3   OH2 6680   1.721   0.988   3.421
 2225TIP3    H1 6681   1.690   0.964   3.333
 2225TIP3    H2 6682   1.810   0.954   3.425
 2226TIP3   OH2 6683   5.754   0.450   5.101
 2226TIP3    H1 6684   5.670   0.408   5.123
 2226TIP3    H2 6685   5.814   0.421   5.170
 2227TIP3   OH2 6686   1.814   0.485   3.337
 2227TIP3    H1 6687   1.852   0.458   3.421
 2227TIP3    H2 6688   1.798   0.579   3.347
 2228TIP3   OH2 6689   1.258   1.903   1.578
 2228TIP3    H1 6690   1.222   1.897   1.666
 2228TIP3    H2 6691   1.202   1.847   1.525
 2229TIP3   OH2 6692   1.553   5.148   1.016
 2229TIP3    H1 6693   1.559   5.062   1.058
 2229TIP3    H2 6694   1.583   5.133   0.926
 2230TIP3   OH2 6695   2.734   3.149   2.866
 2230TIP3    H1 6696   2.661   3.155   2.804
 2230TIP3    H2 6697   2.762   3.058   2.861
 2231TIP3   OH2 6698   4.519   0.780   3.946
 2231TIP3    H1 6699   4.595   0.768   3.889
 2231TIP3    H2 6700   4.474   0.695   3.944
 2232TIP3   OH2 6701   2.644   2.140   3.605
 2232TIP3    H1 6702   2.638   2.178   3.517
 2232TIP3    H2 6703   2.578   2.070   3.605
 2233TIP3   OH2 6704   0.537   4.246   4.478
 2233TIP3    H1 6705   0.449   4.212   4.495
 2233TIP3    H2 6706   0.570   4.195   4.404
 2234TIP3   OH2 6707   1.257   2.978   3.226
 2234TIP3    H1 6708   1.202   2.917   3.177
 2234TIP3    H2 6709   1.245   3.062   3.181
 2235TIP3   OH2 6710   4.050   0.864   1.380
 2235TIP3    H1 6711   4.093   0.829   1.458
 2235TIP3    H2 6712   3.959   0.875   1.405
 2236TIP3   OH2 6713   0.154   3.203   3.055
 2236TIP3    H1 6714   0.144   3.219   3.149
 2236TIP3    H2 6715   0.245   3.226   3.037
 2237TIP3   OH2 6716   5.119   4.502   4.349
 2237TIP3    H1 6717   5.140   4.418   4.308
 2237TIP3    H2 6718   5.202   4.533   4.385
 2238TIP3   OH2 6719   2.208   5.581   2.048
 2238TIP3    H1 6720   2.261   5.526   2.105
 2238TIP3    H2 6721   2.137   5.612   2.105
 2239TIP3   OH2 6722   5.612   1.236   1.392
 2239TIP3    H1 6723   5.680   1.197   1.337
 2239TIP3    H2 6724   5.603   1.325   1.359
 2240TIP3   OH2 6725   4.563   2.140   2.739
 2240TIP3    H1 6726   4.514   2.117   2.660
 2240TIP3    H2 6727   4.649   2.166   2.707
 2241TIP3   OH2 6728   3.034   4.180   0.944
 2241TIP3    H1 6729   2.960   4.222   0.987
 2241TIP3    H2 6730   3.020   4.086   0.959
 2242TIP3   OH2 6731   1.693   5.835   0.390
 2242TIP3    H1 6732   1.674   5.876   0.474
 2242TIP3    H2 6733   1.663   5.745   0.400
 2243TIP3   OH2 6734   3.668   5.955   3.802
 2243TIP3    H1 6735   3.673   6.022   3.870
 2243TIP3    H2 6736   3.717   5.881   3.838
 2244TIP3   OH2 6737   5.952   5.881   2.993
 2244TIP3    H1 6738   5.917   5.856   2.908
 2244TIP3    H2 6739   5.978   5.799   3.033
 2245TIP3   OH2 6740   0.071   3.848   2.661
 2245TIP3    H1 6741   0.154   3.852   2.709
 2245TIP3    H2 6742   0.005   3.839   2.729
 2246TIP3   OH2 6743   4.781   4.632   1.892
 2246TIP3    H1 6744   4.732   4.603   1.815
 2246TIP3    H2 6745   4.717   4.679   1.945
 2247TIP3   OH2 6746   5.795   4.691   0.719
 2247TIP3    H1 6747   5.848   4.633   0.665
 2247TIP3    H2 6748   5.727   4.723   0.660
 2248TIP3   OH2 6749   1.109   0.273   3.946
 2248TIP3    H1 6750   1.103   0.178   3.956
 2248TIP3    H2 6751   1.024   0.299   3.909
 2249TIP3   OH2 6752   6.019   5.507   1.887
 2249TIP3    H1 6753   6.107   5.512   1.849
 2249TIP3    H2 6754   6.000   5.597   1.916
 2250TIP3   OH2 6755   4.091   4.231   0.726
 2250TIP3    H1 6756   4.114   4.324   0.730
 2250TIP3    H2 6757   4.121   4.203   0.639
 2251TIP3   OH2 6758   3.726   4.909   2.268
 2251TIP3    H1 6759   3.687   4.955   2.342
 2251TIP3    H2 6760   3.748   4.822   2.302
 2252TIP3   OH2 6761   3.901   3.404   2.235
 2252TIP3    H1 6762   3.811   3.373   2.244
 2252TIP3    H2 6763   3.896   3.470   2.166
 2253TIP3   OH2 6764   1.866   4.683   4.514
 2253TIP3    H1 6765   1.800   4.632   4.467
 2253TIP3    H2 6766   1.948   4.636   4.497
 2254TIP3   OH2 6767   2.087   5.505   0.476
 2254TIP3    H1 6768   2.122   5.576   0.529
 2254TIP3    H2 6769   2.163   5.456   0.446
 2255TIP3   OH2 6770   4.752   1.292   1.731
 2255TIP3    H1 6771   4.802   1.216   1.760
 2255TIP3    H2 6772   4.665   1.281   1.769
 2256TIP3   OH2 6773   6.376   0.726   4.115
 2256TIP3    H1 6774   6.452   0.703   4.168
 2256TIP3    H2 6775   6.328   0.644   4.104
 2257TIP3   OH2 6776   3.493   1.283   5.091
 2257TIP3    H1 6777   3.492   1.200   5.138
 2257TIP3    H2 6778   3.577   1.285   5.046
 2258TIP3   OH2 6779   3.380   4.288   4.020
 2258TIP3    H1 6780   3.415   4.226   3.957
 2258TIP3    H2 6781   3.456   4.321   4.066
 2259TIP3   OH2 6782   4.156   4.669   1.378
 2259TIP3    H1 6783   4.168   4.762   1.394
 2259TIP3    H2 6784   4.071   4.648   1.417
 2260TIP3   OH2 6785   6.234   0.147   3.202
 2260TIP3    H1 6786   6.156   0.091   3.210
 2260TIP3    H2 6787   6.209   0.229   3.245
 2261TIP3   OH2 6788   2.961   1.323   2.465
 2261TIP3    H1 6789   2.940   1.409   2.500
 2261TIP3    H2 6790   3.040   1.296   2.512
 2262TIP3   OH2 6791   2.727   3.609   2.340
 2262TIP3    H1 6792   2.677   3.579   2.416
 2262TIP3    H2 6793   2.814   3.628   2.375
 2263TIP3   OH2 6794   4.458   4.883   3.271
 2263TIP3    H1 6795   4.509   4.857   3.347
 2263TIP3    H2 6796   4.447   4.802   3.220
 2264TIP3   OH2 6797   3.572   2.765   2.641
 2264TIP3    H1 6798   3.485   2.744   2.608
 2264TIP3    H2 6799   3.584   2.708   2.717
 2265TIP3   OH2 6800   5.109   5.950   1.391
 2265TIP3    H1 6801   5.087   5.981   1.479
 2265TIP3    H2 6802   5.189   5.997   1.367
 2266TIP3   OH2 6803   1.112   1.620   0.280
 2266TIP3    H1 6804   1.201   1.615   0.315
 2266TIP3    H2 6805   1.117   1.580   0.193
 2267TIP3   OH2 6806   4.008   1.293   3.416
 2267TIP3    H1 6807   3.980   1.260   3.331
 2267TIP3    H2 6808   4.103   1.297   3.410
 2268TIP3   OH2 6809   0.239   4.176   4.867
 2268TIP3    H1 6810   0.169   4.181   4.802
 2268TIP3    H2 6811   0.253   4.267   4.895
 2269TIP3   OH2 6812   0.439   3.140   0.866
 2269TIP3    H1 6813   0.447   3.056   0.912
 2269TIP3    H2 6814   0.346   3.161   0.870
 2270TIP3   OH2 6815   5.444   0.788   0.666
 2270TIP3    H1 6816   5.448   0.803   0.760
 2270TIP3    H2 6817   5.456   0.875   0.627
 2271TIP3   OH2 6818   2.186   3.398   2.818
 2271TIP3    H1 6819   2.250   3.431   2.756
 2271TIP3    H2 6820   2.123   3.349   2.765
 2272TIP3   OH2 6821   0.455   4.936   5.062
 2272TIP3    H1 6822   0.512   4.999   5.016
 2272TIP3    H2 6823   0.369   4.977   5.061
 2273TIP3   OH2 6824   1.552   5.249   4.929
 2273TIP3    H1 6825   1.642   5.244   4.897
 2273TIP3    H2 6826   1.546   5.180   4.995
 2274TIP3   OH2 6827   4.956   4.187   4.779
 2274TIP3    H1 6828   5.005   4.268   4.769
 2274TIP3    H2 6829   4.921   4.168   4.692
 2275TIP3   OH2 6830   1.223   3.593   3.223
 2275TIP3    H1 6831   1.212   3.658   3.292
 2275TIP3    H2 6832   1.235   3.511   3.270
 2276TIP3   OH2 6833   2.164   4.874   3.106
 2276TIP3    H1 6834   2.109   4.814   3.057
 2276TIP3    H2 6835   2.155   4.848   3.197
 2277TIP3   OH2 6836   3.149   0.620   2.641
 2277TIP3    H1 6837   3.169   0.681   2.712
 2277TIP3    H2 6838   3.094   0.671   2.581
 2278TIP3   OH2 6839   5.469   5.010   3.178
 2278TIP3    H1 6840   5.457   4.931   3.231
 2278TIP3    H2 6841   5.472   5.081   3.241
 2279TIP3   OH2 6842   0.267   0.338   0.893
 2279TIP3    H1 6843   0.189   0.364   0.943
 2279TIP3    H2 6844   0.244   0.357   0.802
 2280TIP3   OH2 6845   0.751   2.004   3.878
 2280TIP3    H1 6846   0.668   1.957   3.869
 2280TIP3    H2 6847   0.813   1.937   3.906
 2281TIP3   OH2 6848   4.571   4.263   4.195
 2281TIP3    H1 6849   4.636   4.332   4.205
 2281TIP3    H2 6850   4.502   4.286   4.257
 2282TIP3   OH2 6851   4.665   0.841   1.962
 2282TIP3    H1 6852   4.726   0.774   1.931
 2282TIP3    H2 6853   4.659   0.825   2.056
 2283TIP3   OH2 6854   5.705   5.514   2.090
 2283TIP3    H1 6855   5.622   5.492   2.131
 2283TIP3    H2 6856   5.683   5.576   2.020
 2284TIP3   OH2 6857   5.599   1.920   3.845
 2284TIP3    H1 6858   5.548   1.864   3.903
 2284TIP3    H2 6859   5.686   1.880   3.844
 2285TIP3   OH2 6860   3.734   5.028   3.511
 2285TIP3    H1 6861   3.652   4.986   3.488
 2285TIP3    H2 6862   3.782   4.962   3.561
 2286TIP3   OH2 6863   3.076   1.751   5.079
 2286TIP3    H1 6864   3.080   1.752   4.984
 2286TIP3    H2 6865   3.136   1.820   5.107
 2287TIP3   OH2 6866   3.546   4.667   5.110
 2287TIP3    H1 6867   3.582   4.741   5.061
 2287TIP3    H2 6868   3.596   4.666   5.192
 2288TIP3   OH2 6869   0.845   1.940   0.480
 2288TIP3    H1 6870   0.893   2.000   0.536
 2288TIP3    H2 6871   0.841   1.858   0.530
 2289TIP3   OH2 6872   1.039   2.341   4.592
 2289TIP3    H1 6873   1.059   2.255   4.554
 2289TIP3    H2 6874   0.944   2.343   4.599
 2290TIP3   OH2 6875   3.331   2.964   0.086
 2290TIP3    H1 6876   3.405   2.966   0.148
 2290TIP3    H2 6877   3.313   3.057   0.068
 2291TIP3   OH2 6878   3.485   5.468   0.053
 2291TIP3    H1 6879   3.516   5.474  -0.037
 2291TIP3    H2 6880   3.492   5.557   0.087
 2292TIP3   OH2 6881   0.760   1.921   2.030
 2292TIP3    H1 6882   0.725   1.932   1.941
 2292TIP3    H2 6883   0.773   1.827   2.039
 2293TIP3   OH2 6884   5.123   2.736   4.628
 2293TIP3    H1 6885   5.060   2.712   4.696
 2293TIP3    H2 6886   5.068   2.768   4.556
 2294TIP3   OH2 6887   2.000   2.137   5.153
 2294TIP3    H1 6888   1.998   2.063   5.213
 2294TIP3    H2 6889   1.908   2.161   5.141
 2295TIP3   OH2 6890   5.833   4.994   0.835
 2295TIP3    H1 6891   5.796   4.907   0.852
 2295TIP3    H2 6892   5.868   4.989   0.746
 2296TIP3   OH2 6893   4.064   4.843   1.609
 2296TIP3    H1 6894   4.101   4.926   1.639
 2296TIP3    H2 6895   4.109   4.777   1.662
 2297TIP3   OH2 6896   2.855   4.787   4.262
 2297TIP3    H1 6897   2.946   4.796   4.290
 2297TIP3    H2 6898   2.816   4.729   4.328
 2298TIP3   OH2 6899   0.369   3.845   2.388
 2298TIP3    H1 6900   0.277   3.818   2.393
 2298TIP3    H2 6901   0.384   3.858   2.294
 2299TIP3   OH2 6902   0.754   5.746   1.176
 2299TIP3    H1 6903   0.683   5.697   1.136
 2299TIP3    H2 6904   0.762   5.710   1.264
 2300TIP3   OH2 6905   5.070   1.849   3.713
 2300TIP3    H1 6906   5.126   1.875   3.641
 2300TIP3    H2 6907   5.130   1.820   3.782
 2301TIP3   OH2 6908   2.618   0.102   2.349
 2301TIP3    H1 6909   2.607   0.021   2.299
 2301TIP3    H2 6910   2.598   0.172   2.287
 2302TIP3   OH2 6911   4.558   0.338   4.909
 2302TIP3    H1 6912   4.555   0.430   4.883
 2302TIP3    H2 6913   4.506   0.334   4.989
 2303TIP3   OH2 6914   1.063   3.576   3.531
 2303TIP3    H1 6915   1.156   3.565   3.511
 2303TIP3    H2 6916   1.028   3.487   3.533
 2304TIP3   OH2 6917   4.121   1.426   4.713
 2304TIP3    H1 6918   4.165   1.347   4.745
 2304TIP3    H2 6919   4.045   1.436   4.772
 2305TIP3   OH2 6920   3.874   2.127   1.436
 2305TIP3    H1 6921   3.794   2.075   1.436
 2305TIP3    H2 6922   3.930   2.086   1.370
 2306TIP3   OH2 6923   4.539   5.796   0.266
 2306TIP3    H1 6924   4.561   5.878   0.310
 2306TIP3    H2 6925   4.616   5.776   0.213
 2307TIP3   OH2 6926   6.054   2.310   2.788
 2307TIP3    H1 6927   6.062   2.399   2.821
 2307TIP3    H2 6928   6.054   2.255   2.866
 2308TIP3   OH2 6929   3.687   2.617   0.105
 2308TIP3    H1 6930   3.612   2.662   0.066
 2308TIP3    H2 6931   3.702   2.663   0.188
 2309TIP3   OH2 6932   5.135   0.106   0.230
 2309TIP3    H1 6933   5.189   0.148   0.298
 2309TIP3    H2 6934   5.058   0.075   0.277
 2310TIP3   OH2 6935   0.358   0.949   0.984
 2310TIP3    H1 6936   0.366   1.005   0.907
 2310TIP3    H2 6937   0.401   0.867   0.959
 2311TIP3   OH2 6938   0.786   3.980   0.281
 2311TIP3    H1 6939   0.696   3.983   0.249
 2311TIP3    H2 6940   0.832   4.047   0.231
 2312TIP3   OH2 6941   4.399   2.722   4.373
 2312TIP3    H1 6942   4.466   2.759   4.315
 2312TIP3    H2 6943   4.349   2.663   4.317
 2313TIP3   OH2 6944   5.263   1.573   2.118
 2313TIP3    H1 6945   5.185   1.518   2.119
 2313TIP3    H2 6946   5.335   1.513   2.103
 2314TIP3   OH2 6947   0.365   0.905   4.647
 2314TIP3    H1 6948   0.394   0.914   4.737
 2314TIP3    H2 6949   0.431   0.952   4.596
 2315TIP3   OH2 6950   4.766   0.229   5.062
 2315TIP3    H1 6951   4.701   0.247   4.994
 2315TIP3    H2 6952   4.720   0.242   5.144
 2316TIP3   OH2 6953   4.485   2.192   5.110
 2316TIP3    H1 6954   4.389   2.198   5.106
 2316TIP3    H2 6955   4.502   2.106   5.148
 2317TIP3   OH2 6956   0.148   3.476   4.785
 2317TIP3    H1 6957   0.127   3.550   4.842
 2317TIP3    H2 6958   0.233   3.445   4.815
 2318TIP3   OH2 6959   5.246   5.894   0.768
 2318TIP3    H1 6960   5.193   5.942   0.832
 2318TIP3    H2 6961   5.284   5.821   0.816
 2319TIP3   OH2 6962   3.482   5.248   3.590
 2319TIP3    H1 6963   3.434   5.320   3.631
 2319TIP3    H2 6964   3.549   5.224   3.654
 2320TIP3   OH2 6965   4.964   2.111   1.886
 2320TIP3    H1 6966   5.034   2.164   1.923
 2320TIP3    H2 6967   4.983   2.108   1.792
 2321TIP3   OH2 6968   5.212   0.568   3.850
 2321TIP3    H1 6969   5.259   0.540   3.771
 2321TIP3    H2 6970   5.273   0.548   3.921
 2322TIP3   OH2 6971   1.788   0.451   5.174
 2322TIP3    H1 6972   1.826   0.366   5.153
 2322TIP3    H2 6973   1.707   0.454   5.123
 2323TIP3   OH2 6974   4.666   2.066   0.518
 2323TIP3    H1 6975   4.722   2.033   0.449
 2323TIP3    H2 6976   4.589   2.009   0.517
 2324TIP3   OH2 6977   1.644   3.348   2.613
 2324TIP3    H1 6978   1.622   3.396   2.533
 2324TIP3    H2 6979   1.691   3.412   2.667
 2325TIP3   OH2 6980   3.953   1.848   2.167
 2325TIP3    H1 6981   3.923   1.788   2.236
 2325TIP3    H2 6982   4.000   1.792   2.106
 2326TIP3   OH2 6983   4.644   1.593   4.338
 2326TIP3    H1 6984   4.578   1.660   4.357
 2326TIP3    H2 6985   4.616   1.556   4.254
 2327TIP3   OH2 6986   3.779   0.396   0.334
 2327TIP3    H1 6987   3.709   0.344   0.294
 2327TIP3    H2 6988   3.830   0.428   0.260
 2328TIP3   OH2 6989   5.905   4.739   3.965
 2328TIP3    H1 6990   5.973   4.743   3.898
 2328TIP3    H2 6991   5.944   4.781   4.042
 2329TIP3   OH2 6992   3.275   0.322   3.892
 2329TIP3    H1 6993   3.282   0.369   3.809
 2329TIP3    H2 6994   3.365   0.311   3.921
 2330TIP3   OH2 6995   1.008   0.470   4.661
 2330TIP3    H1 6996   1.026   0.483   4.568
 2330TIP3    H2 6997   0.964   0.385   4.664
 2331TIP3   OH2 6998   3.213   4.845   5.079
 2331TIP3    H1 6999   3.158   4.884   5.011
 2331TIP3    H2 7000   3.158   4.777   5.118
 2332TIP3   OH2 7001   2.904   0.395   4.477
 2332TIP3    H1 7002   2.903   0.456   4.551
 2332TIP3    H2 7003   2.983   0.343   4.490
 2333TIP3   OH2 7004   4.796   0.781   4.854
 2333TIP3    H1 7005   4.824   0.738   4.773
 2333TIP3    H2 7006   4.855   0.748   4.921
 2334TIP3   OH2 7007   4.839   3.768   0.064
 2334TIP3    H1 7008   4.833   3.751  -0.030
 2334TIP3    H2 7009   4.766   3.719   0.102
 2335TIP3   OH2 7010   4.679   5.294   4.816
 2335TIP3    H1 7011   4.626   5.369   4.792
 2335TIP3    H2 7012   4.620   5.219   4.809
 2336TIP3   OH2 7013   1.857   4.805   0.829
 2336TIP3    H1 7014   1.907   4.875   0.871
 2336TIP3    H2 7015   1.779   4.848   0.794
 2337TIP3   OH2 7016   0.189   4.451   3.292
 2337TIP3    H1 7017   0.125   4.385   3.318
 2337TIP3    H2 7018   0.170   4.526   3.349
 2338TIP3   OH2 7019   5.230   5.023   2.586
 2338TIP3    H1 7020   5.209   4.981   2.503
 2338TIP3    H2 7021   5.153   5.076   2.606
 2339TIP3   OH2 7022   0.524   0.394   4.080
 2339TIP3    H1 7023   0.435   0.364   4.094
 2339TIP3    H2 7024   0.579   0.328   4.123
 2340TIP3   OH2 7025   6.014   5.811   3.984
 2340TIP3    H1 7026   5.990   5.903   3.975
 2340TIP3    H2 7027   5.956   5.778   4.053
 2341TIP3   OH2 7028   5.007   3.163   0.471
 2341TIP3    H1 7029   4.946   3.125   0.409
 2341TIP3    H2 7030   5.086   3.182   0.420
 2342TIP3   OH2 7031   1.212   0.115   2.963
 2342TIP3    H1 7032   1.300   0.149   2.952
 2342TIP3    H2 7033   1.189   0.080   2.877
 2343TIP3   OH2 7034   3.775   1.590   3.140
 2343TIP3    H1 7035   3.805   1.586   3.231
 2343TIP3    H2 7036   3.683   1.614   3.147
 2344TIP3   OH2 7037   2.956   3.586   1.274
 2344TIP3    H1 7038   3.025   3.632   1.226
 2344TIP3    H2 7039   2.973   3.606   1.366
 2345TIP3   OH2 7040   2.293   4.130   2.383
 2345TIP3    H1 7041   2.265   4.219   2.361
 2345TIP3    H2 7042   2.284   4.080   2.302
 2346TIP3   OH2 7043   3.945   2.234   4.126
 2346TIP3    H1 7044   3.882   2.209   4.059
 2346TIP3    H2 7045   3.983   2.316   4.094
 2347TIP3   OH2 7046   6.362   3.505   1.997
 2347TIP3    H1 7047   6.294   3.497   2.064
 2347TIP3    H2 7048   6.350   3.593   1.962
 2348TIP3   OH2 7049   2.790   4.486   4.677
 2348TIP3    H1 7050   2.789   4.416   4.612
 2348TIP3    H2 7051   2.882   4.494   4.703
 2349TIP3   OH2 7052   1.087   5.896   2.774
 2349TIP3    H1 7053   1.123   5.816   2.812
 2349TIP3    H2 7054   0.997   5.872   2.748
 2350TIP3   OH2 7055   3.163   0.481   0.168
 2350TIP3    H1 7056   3.151   0.388   0.189
 2350TIP3    H2 7057   3.079   0.521   0.190
 2351TIP3   OH2 7058   6.151   5.541   3.544
 2351TIP3    H1 7059   6.124   5.586   3.624
 2351TIP3    H2 7060   6.077   5.485   3.521
 2352TIP3   OH2 7061   0.947   0.085   2.803
 2352TIP3    H1 7062   0.996   0.024   2.858
 2352TIP3    H2 7063   0.861   0.045   2.795
 2353TIP3   OH2 7064   5.803   5.000   5.047
 2353TIP3    H1 7065   5.764   5.029   5.130
 2353TIP3    H2 7066   5.728   4.971   4.994
 2354TIP3   OH2 7067   5.656   5.373   4.778
 2354TIP3    H1 7068   5.587   5.438   4.789
 2354TIP3    H2 7069   5.738   5.422   4.784
 2355TIP3   OH2 7070   6.106   1.420   2.026
 2355TIP3    H1 7071   6.088   1.502   1.981
 2355TIP3    H2 7072   6.179   1.440   2.086
 2356TIP3   OH2 7073   3.964   4.551   0.341
 2356TIP3    H1 7074   3.916   4.589   0.267
 2356TIP3    H2 7075   4.038   4.611   0.355
 2357TIP3   OH2 7076   1.311   0.877   4.950
 2357TIP3    H1 7077   1.302   0.784   4.966
 2357TIP3    H2 7078   1.365   0.910   5.022
 2358TIP3   OH2 7079   4.807   2.409   2.518
 2358TIP3    H1 7080   4.744   2.476   2.491
 2358TIP3    H2 7081   4.854   2.448   2.592
 2359TIP3   OH2 7082   2.465   1.908   0.641
 2359TIP3    H1 7083   2.446   1.943   0.728
 2359TIP3    H2 7084   2.469   1.985   0.584
 2360TIP3   OH2 7085   2.479   5.073   4.790
 2360TIP3    H1 7086   2.401   5.101   4.741
 2360TIP3    H2 7087   2.522   5.155   4.815
 2361TIP3   OH2 7088   2.807   5.238   4.978
 2361TIP3    H1 7089   2.856   5.280   5.048
 2361TIP3    H2 7090   2.869   5.175   4.940
 2362TIP3   OH2 7091   4.419   0.188   4.558
 2362TIP3    H1 7092   4.400   0.265   4.505
 2362TIP3    H2 7093   4.513   0.194   4.576
 2363TIP3   OH2 7094   0.989   3.831   4.080
 2363TIP3    H1 7095   0.969   3.741   4.106
 2363TIP3    H2 7096   1.069   3.853   4.127
 2364TIP3   OH2 7097   4.945   0.629   0.473
 2364TIP3    H1 7098   4.988   0.607   0.391
 2364TIP3    H2 7099   4.942   0.724   0.476
 2365TIP3   OH2 7100   2.033   1.161   3.424
 2365TIP3    H1 7101   1.946   1.190   3.397
 2365TIP3    H2 7102   2.023   1.134   3.515
 2366TIP3   OH2 7103   5.950   3.091   0.535
 2366TIP3    H1 7104   6.032   3.126   0.501
 2366TIP3    H2 7105   5.960   3.093   0.630
 2367TIP3   OH2 7106   5.235   4.079   3.137
 2367TIP3    H1 7107   5.274   4.166   3.146
 2367TIP3    H2 7108   5.277   4.027   3.207
 2368TIP3   OH2 7109   0.293   5.176   2.400
 2368TIP3    H1 7110   0.290   5.242   2.469
 2368TIP3    H2 7111   0.384   5.174   2.372
 2369TIP3   OH2 7112   1.789   0.818   1.601
 2369TIP3    H1 7113   1.695   0.838   1.605
 2369TIP3    H2 7114   1.827   0.894   1.555
 2370TIP3   OH2 7115   5.839   2.115   1.180
 2370TIP3    H1 7116   5.832   2.027   1.218
 2370TIP3    H2 7117   5.806   2.173   1.249
 2371TIP3   OH2 7118   4.806   2.510   3.632
 2371TIP3    H1 7119   4.894   2.545   3.621
 2371TIP3    H2 7120   4.748   2.580   3.604
 2372TIP3   OH2 7121   4.860   1.707   3.551
 2372TIP3    H1 7122   4.947   1.700   3.512
 2372TIP3    H2 7123   4.845   1.801   3.559
 2373TIP3   OH2 7124   1.088   2.178   1.006
 2373TIP3    H1 7125   1.113   2.176   1.099
 2373TIP3    H2 7126   1.164   2.143   0.961
 2374TIP3   OH2 7127   6.358   5.348   0.120
 2374TIP3    H1 7128   6.412   5.396   0.058
 2374TIP3    H2 7129   6.326   5.272   0.071
 2375TIP3   OH2 7130   2.342   1.459   2.125
 2375TIP3    H1 7131   2.306   1.413   2.201
 2375TIP3    H2 7132   2.278   1.444   2.056
 2376TIP3   OH2 7133   1.152   2.271   0.229
 2376TIP3    H1 7134   1.126   2.321   0.307
 2376TIP3    H2 7135   1.083   2.206   0.218
 2377TIP3   OH2 7136   0.312   4.999   3.533
 2377TIP3    H1 7137   0.403   5.030   3.526
 2377TIP3    H2 7138   0.321   4.904   3.539
 2378TIP3   OH2 7139   5.511   4.827   5.152
 2378TIP3    H1 7140   5.523   4.857   5.242
 2378TIP3    H2 7141   5.474   4.903   5.107
 2379TIP3   OH2 7142   5.048   5.873   4.182
 2379TIP3    H1 7143   5.067   5.780   4.196
 2379TIP3    H2 7144   5.011   5.901   4.266
 2380TIP3   OH2 7145   1.386   5.129   1.256
 2380TIP3    H1 7146   1.333   5.050   1.245
 2380TIP3    H2 7147   1.447   5.127   1.182
 2381TIP3   OH2 7148   0.807   4.010   1.214
 2381TIP3    H1 7149   0.746   3.947   1.251
 2381TIP3    H2 7150   0.814   4.079   1.280
 2382TIP3   OH2 7151   4.880   3.055   1.423
 2382TIP3    H1 7152   4.887   3.035   1.329
 2382TIP3    H2 7153   4.948   3.120   1.439
 2383TIP3   OH2 7154   4.991   1.010   3.603
 2383TIP3    H1 7155   4.991   1.049   3.516
 2383TIP3    H2 7156   5.077   1.032   3.640
 2384TIP3   OH2 7157   2.420   5.366   2.125
 2384TIP3    H1 7158   2.481   5.295   2.143
 2384TIP3    H2 7159   2.416   5.371   2.030
 2385TIP3   OH2 7160   5.530   1.149   2.902
 2385TIP3    H1 7161   5.512   1.205   2.827
 2385TIP3    H2 7162   5.615   1.110   2.883
 2386TIP3   OH2 7163   2.742   2.925   4.923
 2386TIP3    H1 7164   2.658   2.935   4.880
 2386TIP3    H2 7165   2.724   2.939   5.016
 2387TIP3   OH2 7166   4.430   0.667   5.077
 2387TIP3    H1 7167   4.355   0.673   5.018
 2387TIP3    H2 7168   4.454   0.758   5.094
 2388TIP3   OH2 7169   5.147   2.577   0.544
 2388TIP3    H1 7170   5.152   2.510   0.476
 2388TIP3    H2 7171   5.122   2.529   0.623
 2389TIP3   OH2 7172   1.568   4.995   2.771
 2389TIP3    H1 7173   1.560   4.997   2.866
 2389TIP3    H2 7174   1.517   5.071   2.742
 2390TIP3   OH2 7175   4.951   0.477   5.063
 2390TIP3    H1 7176   4.898   0.399   5.043
 2390TIP3    H2 7177   4.910   0.513   5.142
 2391TIP3   OH2 7178   0.855   1.009   4.825
 2391TIP3    H1 7179   0.909   1.085   4.849
 2391TIP3    H2 7180   0.802   1.039   4.751
 2392TIP3   OH2 7181   2.629   1.161   2.547
 2392TIP3    H1 7182   2.598   1.183   2.635
 2392TIP3    H2 7183   2.688   1.087   2.560
 2393TIP3   OH2 7184   4.476   4.749   0.476
 2393TIP3    H1 7185   4.549   4.687   0.482
 2393TIP3    H2 7186   4.456   4.751   0.382
 2394TIP3   OH2 7187   5.501   0.025   0.602
 2394TIP3    H1 7188   5.476   0.080   0.528
 2394TIP3    H2 7189   5.459   0.066   0.678
 2395TIP3   OH2 7190   6.320   0.604   4.463
 2395TIP3    H1 7191   6.286   0.562   4.542
 2395TIP3    H2 7192   6.249   0.663   4.435
 2396TIP3   OH2 7193   1.329   2.942   3.479
 2396TIP3    H1 7194   1.421   2.923   3.494
 2396TIP3    H2 7195   1.319   2.938   3.384
 2397TIP3   OH2 7196   5.973   4.800   3.680
 2397TIP3    H1 7197   6.008   4.758   3.602
 2397TIP3    H2 7198   5.890   4.755   3.697
 2398TIP3   OH2 7199   3.269   4.839   3.370
 2398TIP3    H1 7200   3.234   4.783   3.300
 2398TIP3    H2 7201   3.212   4.821   3.445
 2399TIP3   OH2 7202   2.275   4.002   2.116
 2399TIP3    H1 7203   2.341   4.038   2.057
 2399TIP3    H2 7204   2.228   3.937   2.063
 2400TIP3   OH2 7205   0.031   2.412   2.107
 2400TIP3    H1 7206   0.109   2.407   2.051
 2400TIP3    H2 7207  -0.034   2.358   2.062
 2401TIP3   OH2 7208   4.022   4.152   0.986
 2401TIP3    H1 7209   4.069   4.196   0.915
 2401TIP3    H2 7210   3.970   4.221   1.026
 2402TIP3   OH2 7211   0.526   4.182   1.478
 2402TIP3    H1 7212   0.435   4.206   1.495
 2402TIP3    H2 7213   0.539   4.204   1.385
 2403TIP3   OH2 7214   4.399   2.082   0.736
 2403TIP3    H1 7215   4.316   2.066   0.692
 2403TIP3    H2 7216   4.448   2.000   0.726
 2404TIP3   OH2 7217   5.398   1.892   0.154
 2404TIP3    H1 7218   5.315   1.850   0.178
 2404TIP3    H2 7219   5.462   1.820   0.154
 2405TIP3   OH2 7220   4.042   5.169   2.696
 2405TIP3    H1 7221   3.969   5.122   2.655
 2405TIP3    H2 7222   4.095   5.199   2.622
 2406TIP3   OH2 7223   3.839   5.416   2.114
 2406TIP3    H1 7224   3.839   5.324   2.141
 2406TIP3    H2 7225   3.930   5.434   2.089
 2407TIP3   OH2 7226   1.387   0.117   2.252
 2407TIP3    H1 7227   1.351   0.132   2.165
 2407TIP3    H2 7228   1.473   0.161   2.251
 2408TIP3   OH2 7229   1.716   4.659   3.143
 2408TIP3    H1 7230   1.767   4.736   3.167
 2408TIP3    H2 7231   1.755   4.587   3.192
 2409TIP3   OH2 7232   2.125   1.774   4.219
 2409TIP3    H1 7233   2.039   1.808   4.192
 2409TIP3    H2 7234   2.107   1.722   4.297
 2410TIP3   OH2 7235   0.153   5.620   4.923
 2410TIP3    H1 7236   0.089   5.550   4.914
 2410TIP3    H2 7237   0.125   5.687   4.860
 2411TIP3   OH2 7238   5.412   5.356   3.879
 2411TIP3    H1 7239   5.432   5.401   3.962
 2411TIP3    H2 7240   5.327   5.316   3.894
 2412TIP3   OH2 7241   0.779   1.636   2.085
 2412TIP3    H1 7242   0.827   1.599   2.012
 2412TIP3    H2 7243   0.690   1.602   2.076
 2413TIP3   OH2 7244   1.802   4.318   4.948
 2413TIP3    H1 7245   1.858   4.255   4.902
 2413TIP3    H2 7246   1.860   4.392   4.966
 2414TIP3   OH2 7247   0.831   4.357   2.161
 2414TIP3    H1 7248   0.894   4.293   2.128
 2414TIP3    H2 7249   0.840   4.432   2.103
 2415TIP3   OH2 7250   3.720   4.580   3.094
 2415TIP3    H1 7251   3.764   4.594   3.178
 2415TIP3    H2 7252   3.720   4.666   3.053
 2416TIP3   OH2 7253   4.090   5.503   2.051
 2416TIP3    H1 7254   4.086   5.554   2.132
 2416TIP3    H2 7255   4.076   5.568   1.982
 2417TIP3   OH2 7256   0.522   3.782   4.406
 2417TIP3    H1 7257   0.604   3.740   4.380
 2417TIP3    H2 7258   0.545   3.833   4.484
 2418TIP3   OH2 7259   3.766   1.609   0.515
 2418TIP3    H1 7260   3.716   1.610   0.433
 2418TIP3    H2 7261   3.849   1.652   0.493
 2419TIP3   OH2 7262   4.339   1.326   3.037
 2419TIP3    H1 7263   4.385   1.363   2.962
 2419TIP3    H2 7264   4.395   1.347   3.112
 2420TIP3   OH2 7265   5.555   3.271   3.067
 2420TIP3    H1 7266   5.576   3.361   3.040
 2420TIP3    H2 7267   5.624   3.218   3.028
 2421TIP3   OH2 7268   4.804   0.549   2.157
 2421TIP3    H1 7269   4.811   0.475   2.217
 2421TIP3    H2 7270   4.776   0.622   2.213
 2422TIP3   OH2 7271   3.258   1.047   4.573
 2422TIP3    H1 7272   3.210   0.964   4.574
 2422TIP3    H2 7273   3.190   1.113   4.589
 2423TIP3   OH2 7274   5.251   2.178   0.061
 2423TIP3    H1 7275   5.169   2.132   0.045
 2423TIP3    H2 7276   5.274   2.156   0.151
 2424TIP3   OH2 7277   0.285   3.581   2.092
 2424TIP3    H1 7278   0.257   3.640   2.022
 2424TIP3    H2 7279   0.219   3.511   2.092
 2425TIP3   OH2 7280   4.095   3.308   0.826
 2425TIP3    H1 7281   4.089   3.382   0.887
 2425TIP3    H2 7282   4.042   3.239   0.866
 2426TIP3   OH2 7283   2.104   4.241   0.722
 2426TIP3    H1 7284   2.142   4.185   0.654
 2426TIP3    H2 7285   2.057   4.309   0.673
 2427TIP3   OH2 7286   4.648   2.761   3.561
 2427TIP3    H1 7287   4.682   2.838   3.607
 2427TIP3    H2 7288   4.676   2.773   3.470
 2428TIP3   OH2 7289   5.805   4.969   2.157
 2428TIP3    H1 7290   5.772   5.052   2.124
 2428TIP3    H2 7291   5.879   4.993   2.213
 2429TIP3   OH2 7292   2.787   5.819   3.814
 2429TIP3    H1 7293   2.766   5.766   3.737
 2429TIP3    H2 7294   2.816   5.903   3.778
 2430TIP3   OH2 7295   6.342   1.404   3.325
 2430TIP3    H1 7296   6.285   1.477   3.350
 2430TIP3    H2 7297   6.393   1.386   3.404
 2431TIP3   OH2 7298   3.932   0.762   4.668
 2431TIP3    H1 7299   3.994   0.703   4.711
 2431TIP3    H2 7300   3.962   0.849   4.692
 2432TIP3   OH2 7301   4.962   4.893   1.352
 2432TIP3    H1 7302   5.053   4.919   1.338
 2432TIP3    H2 7303   4.958   4.802   1.322
 2433TIP3   OH2 7304   4.645   1.633   5.008
 2433TIP3    H1 7305   4.606   1.697   4.949
 2433TIP3    H2 7306   4.573   1.575   5.032
 2434TIP3   OH2 7307   2.556   4.509   2.664
 2434TIP3    H1 7308   2.567   4.422   2.626
 2434TIP3    H2 7309   2.514   4.560   2.594
 2435TIP3   OH2 7310   2.580   1.034   4.276
 2435TIP3    H1 7311   2.546   1.095   4.341
 2435TIP3    H2 7312   2.575   0.948   4.318
 2436TIP3   OH2 7313   2.715   2.344   4.007
 2436TIP3    H1 7314   2.732   2.389   3.924
 2436TIP3    H2 7315   2.655   2.273   3.983
 2437TIP3   OH2 7316   1.025   3.658   4.545
 2437TIP3    H1 7317   1.013   3.698   4.631
 2437TIP3    H2 7318   0.983   3.572   4.553
 2438TIP3   OH2 7319   4.141   1.084   4.496
 2438TIP3    H1 7320   4.199   1.046   4.430
 2438TIP3    H2 7321   4.071   1.125   4.446
 2439TIP3   OH2 7322   0.043   0.362   1.427
 2439TIP3    H1 7323   0.034   0.457   1.421
 2439TIP3    H2 7324   0.129   0.349   1.468
 2440TIP3   OH2 7325   0.871   5.215   3.493
 2440TIP3    H1 7326   0.807   5.254   3.552
 2440TIP3    H2 7327   0.886   5.128   3.529
 2441TIP3   OH2 7328   2.997   4.883   2.515
 2441TIP3    H1 7329   3.007   4.831   2.435
 2441TIP3    H2 7330   3.063   4.849   2.575
 2442TIP3   OH2 7331   6.139   4.337   4.731
 2442TIP3    H1 7332   6.124   4.402   4.799
 2442TIP3    H2 7333   6.231   4.311   4.742
 2443TIP3   OH2 7334   6.165   1.231   0.744
 2443TIP3    H1 7335   6.138   1.215   0.653
 2443TIP3    H2 7336   6.159   1.145   0.786
 2444TIP3   OH2 7337   5.459   2.397   4.335
 2444TIP3    H1 7338   5.443   2.408   4.241
 2444TIP3    H2 7339   5.392   2.451   4.377
 2445TIP3   OH2 7340   0.767   1.548   0.899
 2445TIP3    H1 7341   0.859   1.556   0.927
 2445TIP3    H2 7342   0.723   1.621   0.943
 2446TIP3   OH2 7343   2.074   2.819   1.615
 2446TIP3    H1 7344   2.073   2.879   1.541
 2446TIP3    H2 7345   2.158   2.773   1.608
 2447TIP3   OH2 7346   3.282   1.871   1.012
 2447TIP3    H1 7347   3.375   1.852   1.006
 2447TIP3    H2 7348   3.278   1.961   1.044
 2448TIP3   OH2 7349   1.493   1.135   1.958
 2448TIP3    H1 7350   1.426   1.179   1.905
 2448TIP3    H2 7351   1.466   1.043   1.958
 2449TIP3   OH2 7352   3.334   1.508   4.577
 2449TIP3    H1 7353   3.239   1.519   4.582
 2449TIP3    H2 7354   3.358   1.537   4.489
 2450TIP3   OH2 7355   2.422   1.985   2.127
 2450TIP3    H1 7356   2.391   1.896   2.143
 2450TIP3    H2 7357   2.518   1.978   2.133
 2451TIP3   OH2 7358   5.250   5.224   4.900
 2451TIP3    H1 7359   5.191   5.249   4.971
 2451TIP3    H2 7360   5.332   5.201   4.943
 2452TIP3   OH2 7361   2.917   4.645   3.888
 2452TIP3    H1 7362   2.860   4.685   3.821
 2452TIP3    H2 7363   3.003   4.683   3.871
 2453TIP3   OH2 7364   0.939   3.644   1.654
 2453TIP3    H1 7365   0.916   3.737   1.647
 2453TIP3    H2 7366   0.856   3.598   1.646
 2454TIP3   OH2 7367   4.722   0.446   1.216
 2454TIP3    H1 7368   4.814   0.437   1.238
 2454TIP3    H2 7369   4.722   0.476   1.125
 2455TIP3   OH2 7370   5.509   5.786   1.517
 2455TIP3    H1 7371   5.592   5.766   1.561
 2455TIP3    H2 7372   5.442   5.749   1.574
 2456TIP3   OH2 7373   6.257   2.575   4.625
 2456TIP3    H1 7374   6.197   2.535   4.688
 2456TIP3    H2 7375   6.281   2.658   4.665
 2457TIP3   OH2 7376   1.320   3.221   3.067
 2457TIP3    H1 7377   1.244   3.250   3.018
 2457TIP3    H2 7378   1.381   3.190   2.999
 2458TIP3   OH2 7379   2.200   5.134   0.153
 2458TIP3    H1 7380   2.285   5.090   0.150
 2458TIP3    H2 7381   2.185   5.165   0.064
 2459TIP3   OH2 7382   6.074   3.332   0.998
 2459TIP3    H1 7383   6.156   3.351   0.954
 2459TIP3    H2 7384   6.071   3.394   1.071
 2460TIP3   OH2 7385   5.798   1.964   1.874
 2460TIP3    H1 7386   5.844   1.966   1.790
 2460TIP3    H2 7387   5.712   2.001   1.854
 2461TIP3   OH2 7388   0.448   4.227   2.527
 2461TIP3    H1 7389   0.454   4.193   2.616
 2461TIP3    H2 7390   0.354   4.228   2.508
 2462TIP3   OH2 7391   0.518   1.599   2.940
 2462TIP3    H1 7392   0.459   1.580   2.867
 2462TIP3    H2 7393   0.519   1.695   2.946
 2463TIP3   OH2 7394   3.582   4.557   1.032
 2463TIP3    H1 7395   3.586   4.573   0.938
 2463TIP3    H2 7396   3.605   4.465   1.042
 2464TIP3   OH2 7397   4.902   4.187   0.819
 2464TIP3    H1 7398   4.862   4.212   0.902
 2464TIP3    H2 7399   4.836   4.211   0.753
 2465TIP3   OH2 7400   1.495   0.566   4.449
 2465TIP3    H1 7401   1.489   0.471   4.450
 2465TIP3    H2 7402   1.578   0.584   4.405
 2466TIP3   OH2 7403   2.901   4.536   1.187
 2466TIP3    H1 7404   2.866   4.625   1.190
 2466TIP3    H2 7405   2.945   4.525   1.271
 2467TIP3   OH2 7406   1.065   3.586   0.611
 2467TIP3    H1 7407   1.094   3.671   0.643
 2467TIP3    H2 7408   1.066   3.529   0.688
 2468TIP3   OH2 7409   5.618   2.588   4.175
 2468TIP3    H1 7410   5.641   2.527   4.105
 2468TIP3    H2 7411   5.628   2.675   4.136
 2469TIP3   OH2 7412   3.105   4.690   0.895
 2469TIP3    H1 7413   3.192   4.695   0.936
 2469TIP3    H2 7414   3.096   4.597   0.871
 2470TIP3   OH2 7415   5.565   5.091   1.478
 2470TIP3    H1 7416   5.560   5.173   1.526
 2470TIP3    H2 7417   5.557   5.116   1.386
 2471TIP3   OH2 7418   5.342   5.873   2.025
 2471TIP3    H1 7419   5.425   5.919   2.017
 2471TIP3    H2 7420   5.306   5.872   1.936
 2472TIP3   OH2 7421   2.111   2.318   3.829
 2472TIP3    H1 7422   2.074   2.395   3.785
 2472TIP3    H2 7423   2.198   2.308   3.790
 2473TIP3   OH2 7424   3.276   1.244   2.917
 2473TIP3    H1 7425   3.242   1.157   2.939
 2473TIP3    H2 7426   3.357   1.227   2.869
 2474TIP3   OH2 7427   4.723   5.344   3.887
 2474TIP3    H1 7428   4.775   5.268   3.911
 2474TIP3    H2 7429   4.644   5.337   3.942
 2475TIP3   OH2 7430   4.157   2.417   0.569
 2475TIP3    H1 7431   4.248   2.387   0.582
 2475TIP3    H2 7432   4.104   2.344   0.601
 2476TIP3   OH2 7433   2.395   1.159   1.997
 2476TIP3    H1 7434   2.409   1.103   2.073
 2476TIP3    H2 7435   2.312   1.204   2.015
 2477TIP3   OH2 7436   3.302   1.622   1.529
 2477TIP3    H1 7437   3.331   1.664   1.610
 2477TIP3    H2 7438   3.375   1.634   1.468
 2478TIP3   OH2 7439   2.763   4.268   2.004
 2478TIP3    H1 7440   2.797   4.208   1.937
 2478TIP3    H2 7441   2.701   4.324   1.958
 2479TIP3   OH2 7442   4.754   1.642   2.910
 2479TIP3    H1 7443   4.717   1.728   2.929
 2479TIP3    H2 7444   4.721   1.620   2.823
 2480TIP3   OH2 7445   1.817   3.379   0.804
 2480TIP3    H1 7446   1.786   3.378   0.895
 2480TIP3    H2 7447   1.899   3.429   0.807
 2481TIP3   OH2 7448   3.409   1.149   0.490
 2481TIP3    H1 7449   3.452   1.069   0.521
 2481TIP3    H2 7450   3.438   1.217   0.550
 2482TIP3   OH2 7451   5.460   3.010   4.259
 2482TIP3    H1 7452   5.368   3.014   4.231
 2482TIP3    H2 7453   5.489   3.101   4.260
 2483TIP3   OH2 7454   4.101   5.485   3.349
 2483TIP3    H1 7455   4.183   5.482   3.299
 2483TIP3    H2 7456   4.069   5.395   3.347
 2484TIP3   OH2 7457   3.043   3.770   3.219
 2484TIP3    H1 7458   3.056   3.718   3.140
 2484TIP3    H2 7459   3.073   3.714   3.290
 2485TIP3   OH2 7460   2.076   5.323   3.035
 2485TIP3    H1 7461   2.161   5.349   3.071
 2485TIP3    H2 7462   2.027   5.289   3.109
 2486TIP3   OH2 7463   6.188   1.153   2.232
 2486TIP3    H1 7464   6.214   1.125   2.319
 2486TIP3    H2 7465   6.138   1.234   2.247
 2487TIP3   OH2 7466   5.500   4.821   3.384
 2487TIP3    H1 7467   5.522   4.854   3.471
 2487TIP3    H2 7468   5.474   4.730   3.399
 2488TIP3   OH2 7469   2.356   5.179   0.499
 2488TIP3    H1 7470   2.319   5.232   0.428
 2488TIP3    H2 7471   2.429   5.132   0.458
 2489TIP3   OH2 7472   5.797   4.875   3.390
 2489TIP3    H1 7473   5.710   4.887   3.354
 2489TIP3    H2 7474   5.844   4.824   3.324
 2490TIP3   OH2 7475   1.622   2.563   3.866
 2490TIP3    H1 7476   1.554   2.575   3.932
 2490TIP3    H2 7477   1.578   2.578   3.783
 2491TIP3   OH2 7478   4.811   1.747   0.057
 2491TIP3    H1 7479   4.906   1.735   0.064
 2491TIP3    H2 7480   4.800   1.826   0.004
 2492TIP3   OH2 7481   5.278   1.315   3.021
 2492TIP3    H1 7482   5.272   1.250   3.091
 2492TIP3    H2 7483   5.262   1.399   3.065
 2493TIP3   OH2 7484   3.383   3.604   4.565
 2493TIP3    H1 7485   3.326   3.531   4.539
 2493TIP3    H2 7486   3.458   3.562   4.606
 2494TIP3   OH2 7487   0.188   5.013   0.540
 2494TIP3    H1 7488   0.256   5.056   0.592
 2494TIP3    H2 7489   0.120   5.079   0.530
 2495TIP3   OH2 7490   1.471   4.582   2.381
 2495TIP3    H1 7491   1.478   4.560   2.288
 2495TIP3    H2 7492   1.495   4.675   2.386
 2496TIP3   OH2 7493   3.332   4.373   4.771
 2496TIP3    H1 7494   3.337   4.425   4.691
 2496TIP3    H2 7495   3.420   4.338   4.782
 2497TIP3   OH2 7496   2.216   0.180   1.594
 2497TIP3    H1 7497   2.296   0.129   1.581
 2497TIP3    H2 7498   2.245   0.258   1.642
 2498TIP3   OH2 7499   2.878   4.072   0.169
 2498TIP3    H1 7500   2.852   4.020   0.245
 2498TIP3    H2 7501   2.809   4.138   0.161
 2499TIP3   OH2 7502   0.449   2.685   4.969
 2499TIP3    H1 7503   0.519   2.639   5.016
 2499TIP3    H2 7504   0.475   2.777   4.969
 2500TIP3   OH2 7505   4.064   5.635   3.572
 2500TIP3    H1 7506   4.080   5.556   3.520
 2500TIP3    H2 7507   4.143   5.645   3.626
 2501TIP3   OH2 7508   0.077   2.177   0.540
 2501TIP3    H1 7509   0.096   2.270   0.534
 2501TIP3    H2 7510   0.071   2.148   0.449
 2502TIP3   OH2 7511   5.827   1.997   4.915
 2502TIP3    H1 7512   5.916   1.965   4.900
 2502TIP3    H2 7513   5.787   1.999   4.828
 2503TIP3   OH2 7514   2.780   4.389   0.994
 2503TIP3    H1 7515   2.844   4.440   1.045
 2503TIP3    H2 7516   2.719   4.355   1.059
 2504TIP3   OH2 7517   5.500   2.156   0.522
 2504TIP3    H1 7518   5.512   2.172   0.428
 2504TIP3    H2 7519   5.462   2.069   0.527
 2505TIP3   OH2 7520   3.128   5.875   2.194
 2505TIP3    H1 7521   3.213   5.887   2.236
 2505TIP3    H2 7522   3.071   5.843   2.264
 2506TIP3   OH2 7523   3.459   4.999   0.170
 2506TIP3    H1 7524   3.500   5.084   0.153
 2506TIP3    H2 7525   3.396   5.017   0.240
 2507TIP3   OH2 7526   1.616   4.097   2.915
 2507TIP3    H1 7527   1.669   4.025   2.948
 2507TIP3    H2 7528   1.590   4.070   2.827
 2508TIP3   OH2 7529   2.449   5.808   4.119
 2508TIP3    H1 7530   2.442   5.761   4.037
 2508TIP3    H2 7531   2.543   5.821   4.131
 2509TIP3   OH2 7532   3.660   5.883   1.780
 2509TIP3    H1 7533   3.705   5.954   1.825
 2509TIP3    H2 7534   3.634   5.920   1.696
 2510TIP3   OH2 7535   2.214   5.050   0.701
 2510TIP3    H1 7536   2.263   5.103   0.639
 2510TIP3    H2 7537   2.122   5.061   0.675
 2511TIP3   OH2 7538   1.930   4.737   4.770
 2511TIP3    H1 7539   1.926   4.718   4.677
 2511TIP3    H2 7540   1.846   4.708   4.804
 2512TIP3   OH2 7541   2.828   4.926   1.321
 2512TIP3    H1 7542   2.807   4.920   1.227
 2512TIP3    H2 7543   2.906   4.982   1.324
 2513TIP3   OH2 7544   0.786   1.980   4.663
 2513TIP3    H1 7545   0.868   1.996   4.617
 2513TIP3    H2 7546   0.811   1.972   4.755
 2514TIP3   OH2 7547   3.913   4.121   1.772
 2514TIP3    H1 7548   3.990   4.176   1.787
 2514TIP3    H2 7549   3.945   4.049   1.718
 2515TIP3   OH2 7550   5.521   2.468   1.294
 2515TIP3    H1 7551   5.445   2.423   1.256
 2515TIP3    H2 7552   5.494   2.559   1.304
 2516TIP3   OH2 7553   1.191   3.423   3.803
 2516TIP3    H1 7554   1.279   3.416   3.766
 2516TIP3    H2 7555   1.192   3.365   3.879
 2517TIP3   OH2 7556   6.163   2.282   0.232
 2517TIP3    H1 7557   6.217   2.204   0.227
 2517TIP3    H2 7558   6.073   2.250   0.227
 2518TIP3   OH2 7559   1.146   0.146   0.055
 2518TIP3    H1 7560   1.084   0.122   0.123
 2518TIP3    H2 7561   1.104   0.119  -0.027
 2519TIP3   OH2 7562   4.413   0.686   2.918
 2519TIP3    H1 7563   4.487   0.627   2.927
 2519TIP3    H2 7564   4.395   0.716   3.008
 2520TIP3   OH2 7565   6.164   4.417   1.618
 2520TIP3    H1 7566   6.110   4.494   1.636
 2520TIP3    H2 7567   6.247   4.453   1.586
 2521TIP3   OH2 7568   5.445   3.801   0.740
 2521TIP3    H1 7569   5.467   3.872   0.679
 2521TIP3    H2 7570   5.349   3.800   0.742
 2522TIP3   OH2 7571   5.706   5.677   1.650
 2522TIP3    H1 7572   5.779   5.728   1.684
 2522TIP3    H2 7573   5.732   5.586   1.664
 2523TIP3   OH2 7574   4.541   1.521   3.665
 2523TIP3    H1 7575   4.487   1.476   3.731
 2523TIP3    H2 7576   4.626   1.478   3.671
 2524TIP3   OH2 7577   1.594   0.941   5.102
 2524TIP3    H1 7578   1.582   0.859   5.054
 2524TIP3    H2 7579   1.636   0.915   5.184
 2525TIP3   OH2 7580   2.762   0.254   1.575
 2525TIP3    H1 7581   2.726   0.284   1.658
 2525TIP3    H2 7582   2.841   0.205   1.599
 2526TIP3   OH2 7583   5.797   1.135   2.290
 2526TIP3    H1 7584   5.750   1.111   2.370
 2526TIP3    H2 7585   5.870   1.189   2.320
 2527TIP3   OH2 7586   2.539   2.238   2.564
 2527TIP3    H1 7587   2.492   2.194   2.492
 2527TIP3    H2 7588   2.484   2.223   2.641
 2528TIP3   OH2 7589   1.782   5.540   1.123
 2528TIP3    H1 7590   1.694   5.561   1.154
 2528TIP3    H2 7591   1.810   5.466   1.178
 2529TIP3   OH2 7592   2.388   0.508   0.136
 2529TIP3    H1 7593   2.301   0.479   0.108
 2529TIP3    H2 7594   2.371   0.577   0.200
 2530TIP3   OH2 7595   2.208   3.285   4.750
 2530TIP3    H1 7596   2.263   3.280   4.828
 2530TIP3    H2 7597   2.259   3.240   4.683
 2531TIP3   OH2 7598   4.516   1.898   2.105
 2531TIP3    H1 7599   4.568   1.821   2.086
 2531TIP3    H2 7600   4.558   1.937   2.182
 2532TIP3   OH2 7601   0.006   0.484   2.239
 2532TIP3    H1 7602   0.087   0.468   2.190
 2532TIP3    H2 7603   0.036   0.513   2.325
 2533TIP3   OH2 7604   5.905   1.617   2.951
 2533TIP3    H1 7605   5.990   1.642   2.914
 2533TIP3    H2 7606   5.894   1.526   2.926
 2534TIP3   OH2 7607   1.419   4.180   1.585
 2534TIP3    H1 7608   1.510   4.153   1.595
 2534TIP3    H2 7609   1.421   4.275   1.589
 2535TIP3   OH2 7610   3.169   3.662   1.140
 2535TIP3    H1 7611   3.263   3.659   1.152
 2535TIP3    H2 7612   3.152   3.744   1.094
 2536TIP3   OH2 7613   3.857   1.207   4.494
 2536TIP3    H1 7614   3.814   1.155   4.561
 2536TIP3    H2 7615   3.797   1.205   4.419
 2537TIP3   OH2 7616   1.419   5.169   0.435
 2537TIP3    H1 7617   1.485   5.150   0.369
 2537TIP3    H2 7618   1.401   5.263   0.425
 2538TIP3   OH2 7619   2.198   5.292   3.451
 2538TIP3    H1 7620   2.221   5.236   3.377
 2538TIP3    H2 7621   2.254   5.369   3.442
 2539TIP3   OH2 7622   3.163   1.711   1.204
 2539TIP3    H1 7623   3.218   1.717   1.282
 2539TIP3    H2 7624   3.206   1.768   1.140
 2540TIP3   OH2 7625   3.442   1.881   5.065
 2540TIP3    H1 7626   3.535   1.904   5.070
 2540TIP3    H2 7627   3.422   1.886   4.972
 2541TIP3   OH2 7628   5.382   4.173   0.891
 2541TIP3    H1 7629   5.438   4.132   0.958
 2541TIP3    H2 7630   5.294   4.170   0.928
 2542TIP3   OH2 7631   1.914   2.454   5.146
 2542TIP3    H1 7632   1.854   2.502   5.088
 2542TIP3    H2 7633   1.885   2.363   5.140
 2543TIP3   OH2 7634   0.237   1.502   2.480
 2543TIP3    H1 7635   0.216   1.447   2.556
 2543TIP3    H2 7636   0.154   1.544   2.457
 2544TIP3   OH2 7637   3.669   1.957   2.066
 2544TIP3    H1 7638   3.738   1.917   2.119
 2544TIP3    H2 7639   3.701   1.952   1.976
 2545TIP3   OH2 7640   5.978   4.698   0.436
 2545TIP3    H1 7641   6.045   4.690   0.504
 2545TIP3    H2 7642   5.993   4.623   0.378
 2546TIP3   OH2 7643   1.370   1.693   0.719
 2546TIP3    H1 7644   1.407   1.682   0.807
 2546TIP3    H2 7645   1.342   1.784   0.715
 2547TIP3   OH2 7646   1.170   0.915   4.093
 2547TIP3    H1 7647   1.236   0.960   4.145
 2547TIP3    H2 7648   1.183   0.946   4.004
 2548TIP3   OH2 7649   4.676   3.203   1.680
 2548TIP3    H1 7650   4.710   3.288   1.649
 2548TIP3    H2 7651   4.748   3.167   1.732
 2549TIP3   OH2 7652   3.274   2.158   4.528
 2549TIP3    H1 7653   3.349   2.172   4.586
 2549TIP3    H2 7654   3.212   2.227   4.553
 2550TIP3   OH2 7655   4.016   1.910   3.305
 2550TIP3    H1 7656   4.033   2.002   3.287
 2550TIP3    H2 7657   3.961   1.911   3.384
 2551TIP3   OH2 7658   6.391   5.990   1.904
 2551TIP3    H1 7659   6.334   6.033   1.840
 2551TIP3    H2 7660   6.333   5.965   1.976
 2552TIP3   OH2 7661   6.067   3.764   3.164
 2552TIP3    H1 7662   6.083   3.857   3.147
 2552TIP3    H2 7663   6.141   3.736   3.219
 2553TIP3   OH2 7664   6.057   4.170   3.892
 2553TIP3    H1 7665   5.994   4.110   3.933
 2553TIP3    H2 7666   6.096   4.218   3.966
 2554TIP3   OH2 7667   5.946   5.830   0.230
 2554TIP3    H1 7668   5.914   5.787   0.151
 2554TIP3    H2 7669   6.010   5.894   0.199
 2555TIP3   OH2 7670   2.753   1.799   4.376
 2555TIP3    H1 7671   2.795   1.807   4.462
 2555TIP3    H2 7672   2.668   1.844   4.387
 2556TIP3   OH2 7673   3.311   1.558   2.509
 2556TIP3    H1 7674   3.310   1.609   2.590
 2556TIP3    H2 7675   3.240   1.594   2.456
 2557TIP3   OH2 7676   3.441   3.574   0.811
 2557TIP3    H1 7677   3.388   3.654   0.811
 2557TIP3    H2 7678   3.399   3.518   0.746
 2558TIP3   OH2 7679   2.748   0.432   1.909
 2558TIP3    H1 7680   2.722   0.479   1.988
 2558TIP3    H2 7681   2.665   0.403   1.871
 2559TIP3   OH2 7682   5.812   2.253   3.144
 2559TIP3    H1 7683   5.784   2.266   3.053
 2559TIP3    H2 7684   5.744   2.295   3.196
 2560TIP3   OH2 7685   4.292   3.530   1.976
 2560TIP3    H1 7686   4.288   3.436   1.993
 2560TIP3    H2 7687   4.296   3.538   1.881
 2561TIP3   OH2 7688   4.917   4.687   1.172
 2561TIP3    H1 7689   4.971   4.663   1.097
 2561TIP3    H2 7690   4.858   4.755   1.138
 2562TIP3   OH2 7691   2.616   0.338   4.425
 2562TIP3    H1 7692   2.697   0.359   4.472
 2562TIP3    H2 7693   2.611   0.243   4.428
 2563TIP3   OH2 7694   4.653   3.245   0.421
 2563TIP3    H1 7695   4.647   3.225   0.514
 2563TIP3    H2 7696   4.645   3.160   0.378
 2564TIP3   OH2 7697   1.102   3.375   1.929
 2564TIP3    H1 7698   1.066   3.352   1.843
 2564TIP3    H2 7699   1.196   3.363   1.919
 2565TIP3   OH2 7700   1.723   4.278   3.646
 2565TIP3    H1 7701   1.732   4.236   3.560
 2565TIP3    H2 7702   1.761   4.216   3.708
 2566TIP3   OH2 7703   6.283   0.524   1.086
 2566TIP3    H1 7704   6.365   0.546   1.040
 2566TIP3    H2 7705   6.261   0.436   1.055
 2567TIP3   OH2 7706   4.795   5.197   2.554
 2567TIP3    H1 7707   4.746   5.152   2.622
 2567TIP3    H2 7708   4.884   5.204   2.589
 2568TIP3   OH2 7709   3.183   2.034   4.924
 2568TIP3    H1 7710   3.183   2.069   5.013
 2568TIP3    H2 7711   3.175   2.111   4.867
 2569TIP3   OH2 7712   4.235   2.197   4.090
 2569TIP3    H1 7713   4.144   2.201   4.120
 2569TIP3    H2 7714   4.260   2.105   4.101
 2570TIP3   OH2 7715   5.658   4.825   3.889
 2570TIP3    H1 7716   5.737   4.774   3.907
 2570TIP3    H2 7717   5.640   4.871   3.971
 2571TIP3   OH2 7718   2.026   1.645   1.931
 2571TIP3    H1 7719   2.080   1.709   1.886
 2571TIP3    H2 7720   1.936   1.670   1.910
 2572TIP3   OH2 7721   4.224   0.509   2.842
 2572TIP3    H1 7722   4.271   0.581   2.885
 2572TIP3    H2 7723   4.132   0.531   2.851
 2573TIP3   OH2 7724   3.298   5.817   0.418
 2573TIP3    H1 7725   3.323   5.899   0.461
 2573TIP3    H2 7726   3.204   5.810   0.432
 2574TIP3   OH2 7727   3.463   5.927   2.261
 2574TIP3    H1 7728   3.463   5.846   2.312
 2574TIP3    H2 7729   3.464   5.898   2.170
 2575TIP3   OH2 7730   2.933   4.340   3.682
 2575TIP3    H1 7731   3.012   4.380   3.645
 2575TIP3    H2 7732   2.871   4.413   3.690
 2576TIP3   OH2 7733   3.007   1.181   3.695
 2576TIP3    H1 7734   3.088   1.159   3.742
 2576TIP3    H2 7735   3.026   1.157   3.604
 2577TIP3   OH2 7736   2.261   5.391   4.864
 2577TIP3    H1 7737   2.331   5.338   4.827
 2577TIP3    H2 7738   2.183   5.364   4.817
 2578TIP3   OH2 7739   0.537   5.906   0.345
 2578TIP3    H1 7740   0.505   5.831   0.395
 2578TIP3    H2 7741   0.458   5.950   0.315
 2579TIP3   OH2 7742   5.011   1.835   4.070
 2579TIP3    H1 7743   4.998   1.921   4.109
 2579TIP3    H2 7744   4.959   1.836   3.990
 2580TIP3   OH2 7745   0.118   4.787   5.201
 2580TIP3    H1 7746   0.169   4.844   5.143
 2580TIP3    H2 7747   0.184   4.735   5.247
 2581TIP3   OH2 7748   0.654   0.333   5.147
 2581TIP3    H1 7749   0.684   0.423   5.158
 2581TIP3    H2 7750   0.608   0.312   5.228
 2582TIP3   OH2 7751   2.348   0.845   0.172
 2582TIP3    H1 7752   2.327   0.820   0.082
 2582TIP3    H2 7753   2.328   0.939   0.177
 2583TIP3   OH2 7754   1.553   3.274   4.654
 2583TIP3    H1 7755   1.486   3.322   4.703
 2583TIP3    H2 7756   1.591   3.215   4.719
 2584TIP3   OH2 7757   2.190   5.951   4.460
 2584TIP3    H1 7758   2.099   5.936   4.488
 2584TIP3    H2 7759   2.220   6.023   4.514
 2585TIP3   OH2 7760   5.784   1.020   1.066
 2585TIP3    H1 7761   5.831   1.050   0.988
 2585TIP3    H2 7762   5.744   0.937   1.040
 2586TIP3   OH2 7763   1.315   5.072   3.302
 2586TIP3    H1 7764   1.255   5.120   3.359
 2586TIP3    H2 7765   1.383   5.136   3.279
 2587TIP3   OH2 7766   3.044   1.895   3.430
 2587TIP3    H1 7767   3.105   1.952   3.476
 2587TIP3    H2 7768   2.962   1.944   3.428
 2588TIP3   OH2 7769   2.856   4.823   3.463
 2588TIP3    H1 7770   2.886   4.911   3.485
 2588TIP3    H2 7771   2.802   4.835   3.385
 2589TIP3   OH2 7772   5.966   2.448   3.204
 2589TIP3    H1 7773   5.914   2.368   3.208
 2589TIP3    H2 7774   5.904   2.516   3.177
 2590TIP3   OH2 7775   1.091   1.821   1.842
 2590TIP3    H1 7776   1.119   1.815   1.934
 2590TIP3    H2 7777   1.147   1.757   1.796
 2591TIP3   OH2 7778   5.187   3.864   5.152
 2591TIP3    H1 7779   5.170   3.955   5.127
 2591TIP3    H2 7780   5.142   3.812   5.085
 2592TIP3   OH2 7781   5.771   4.629   1.581
 2592TIP3    H1 7782   5.851   4.627   1.634
 2592TIP3    H2 7783   5.759   4.721   1.560
 2593TIP3   OH2 7784   3.525   0.595   5.228
 2593TIP3    H1 7785   3.514   0.665   5.163
 2593TIP3    H2 7786   3.482   0.519   5.190
 2594TIP3   OH2 7787   0.139   0.058   0.866
 2594TIP3    H1 7788   0.185   0.135   0.832
 2594TIP3    H2 7789   0.157   0.058   0.960
 2595TIP3   OH2 7790   0.379   0.744   2.551
 2595TIP3    H1 7791   0.447   0.763   2.615
 2595TIP3    H2 7792   0.322   0.821   2.554
 2596TIP3   OH2 7793   4.058   5.462   0.797
 2596TIP3    H1 7794   4.093   5.521   0.730
 2596TIP3    H2 7795   4.031   5.384   0.749
 2597TIP3   OH2 7796   4.821   4.520   4.623
 2597TIP3    H1 7797   4.758   4.451   4.605
 2597TIP3    H2 7798   4.902   4.473   4.646
 2598TIP3   OH2 7799   4.027   2.128   2.136
 2598TIP3    H1 7800   3.996   2.039   2.151
 2598TIP3    H2 7801   4.121   2.125   2.156
 2599TIP3   OH2 7802   2.400   1.715   2.203
 2599TIP3    H1 7803   2.486   1.693   2.239
 2599TIP3    H2 7804   2.362   1.631   2.178
 2600TIP3   OH2 7805   1.181   1.061   4.786
 2600TIP3    H1 7806   1.210   1.009   4.860
 2600TIP3    H2 7807   1.195   1.005   4.710
 2601TIP3   OH2 7808   5.415   4.143   1.987
 2601TIP3    H1 7809   5.448   4.069   1.935
 2601TIP3    H2 7810   5.365   4.195   1.925
 2602TIP3   OH2 7811   5.401   5.973   4.972
 2602TIP3    H1 7812   5.409   5.889   4.928
 2602TIP3    H2 7813   5.416   5.953   5.065
 2603TIP3   OH2 7814   5.730   1.608   0.759
 2603TIP3    H1 7815   5.662   1.597   0.824
 2603TIP3    H2 7816   5.806   1.638   0.808
 2604TIP3   OH2 7817   1.580   5.697   3.144
 2604TIP3    H1 7818   1.612   5.742   3.222
 2604TIP3    H2 7819   1.542   5.767   3.090
 2605TIP3   OH2 7820   2.146   5.293   4.273
 2605TIP3    H1 7821   2.230   5.310   4.317
 2605TIP3    H2 7822   2.145   5.355   4.200
 2606TIP3   OH2 7823   0.266   5.653   3.255
 2606TIP3    H1 7824   0.291   5.712   3.327
 2606TIP3    H2 7825   0.270   5.708   3.177
 2607TIP3   OH2 7826   3.657   3.091   0.046
 2607TIP3    H1 7827   3.615   3.041   0.116
 2607TIP3    H2 7828   3.660   3.181   0.080
 2608TIP3   OH2 7829   4.339   2.303   3.695
 2608TIP3    H1 7830   4.244   2.291   3.701
 2608TIP3    H2 7831   4.371   2.219   3.663
 2609TIP3   OH2 7832   3.791   1.407   0.196
 2609TIP3    H1 7833   3.752   1.490   0.224
 2609TIP3    H2 7834   3.768   1.345   0.265
 2610TIP3   OH2 7835   4.590   4.023   3.168
 2610TIP3    H1 7836   4.552   3.938   3.186
 2610TIP3    H2 7837   4.533   4.086   3.212
 2611TIP3   OH2 7838   2.777   2.142   2.227
 2611TIP3    H1 7839   2.788   2.160   2.320
 2611TIP3    H2 7840   2.722   2.213   2.195
 2612TIP3   OH2 7841   3.911   1.700   1.772
 2612TIP3    H1 7842   3.947   1.615   1.745
 2612TIP3    H2 7843   3.961   1.723   1.850
 2613TIP3   OH2 7844   2.889   0.064   1.068
 2613TIP3    H1 7845   2.928   0.045   1.153
 2613TIP3    H2 7846   2.813   0.005   1.063
 2614TIP3   OH2 7847   5.359   2.300   1.534
 2614TIP3    H1 7848   5.389   2.391   1.534
 2614TIP3    H2 7849   5.379   2.268   1.446
 2615TIP3   OH2 7850   5.010   1.518   2.052
 2615TIP3    H1 7851   5.018   1.577   1.977
 2615TIP3    H2 7852   4.916   1.501   2.060
 2616TIP3   OH2 7853   4.612   2.544   0.181
 2616TIP3    H1 7854   4.590   2.483   0.110
 2616TIP3    H2 7855   4.635   2.487   0.255
 2617TIP3   OH2 7856   4.327   1.295   1.015
 2617TIP3    H1 7857   4.239   1.305   1.051
 2617TIP3    H2 7858   4.316   1.304   0.921
 2618TIP3   OH2 7859   5.313   5.405   1.802
 2618TIP3    H1 7860   5.326   5.369   1.890
 2618TIP3    H2 7861   5.219   5.398   1.787
 2619TIP3   OH2 7862   5.453   0.734   0.945
 2619TIP3    H1 7863   5.407   0.650   0.942
 2619TIP3    H2 7864   5.526   0.720   1.006
 2620TIP3   OH2 7865   3.976   2.062   4.399
 2620TIP3    H1 7866   4.026   1.985   4.421
 2620TIP3    H2 7867   3.966   2.058   4.304
 2621TIP3   OH2 7868   5.867   1.234   5.139
 2621TIP3    H1 7869   5.918   1.157   5.111
 2621TIP3    H2 7870   5.929   1.306   5.134
 2622TIP3   OH2 7871   3.006   1.392   3.483
 2622TIP3    H1 7872   3.041   1.459   3.541
 2622TIP3    H2 7873   2.956   1.440   3.417
 2623TIP3   OH2 7874   2.239   3.487   2.032
 2623TIP3    H1 7875   2.165   3.437   1.999
 2623TIP3    H2 7876   2.306   3.420   2.051
 2624TIP3   OH2 7877   4.332   1.370   0.019
 2624TIP3    H1 7878   4.242   1.366   0.052
 2624TIP3    H2 7879   4.377   1.297   0.063
 2625TIP3   OH2 7880   4.436   4.312   4.891
 2625TIP3    H1 7881   4.463   4.389   4.842
 2625TIP3    H2 7882   4.347   4.332   4.921
 2626TIP3   OH2 7883   5.060   1.921   5.031
 2626TIP3    H1 7884   5.062   2.011   5.063
 2626TIP3    H2 7885   5.089   1.869   5.106
 2627TIP3   OH2 7886   0.994   5.093   4.243
 2627TIP3    H1 7887   0.985   5.069   4.151
 2627TIP3    H2 7888   1.088   5.094   4.258
 2628TIP3   OH2 7889   3.149   3.698   3.471
 2628TIP3    H1 7890   3.099   3.778   3.488
 2628TIP3    H2 7891   3.212   3.693   3.543
 2629TIP3   OH2 7892   1.969   1.331   1.000
 2629TIP3    H1 7893   1.919   1.375   0.932
 2629TIP3    H2 7894   1.923   1.249   1.015
 2630TIP3   OH2 7895   6.183   0.443   1.768
 2630TIP3    H1 7896   6.259   0.415   1.819
 2630TIP3    H2 7897   6.186   0.539   1.770
 2631TIP3   OH2 7898   2.828   1.478   1.047
 2631TIP3    H1 7899   2.883   1.452   1.121
 2631TIP3    H2 7900   2.852   1.570   1.032
 2632TIP3   OH2 7901   0.255   3.230   4.413
 2632TIP3    H1 7902   0.239   3.192   4.326
 2632TIP3    H2 7903   0.256   3.324   4.398
 2633TIP3   OH2 7904   1.753   4.211   3.379
 2633TIP3    H1 7905   1.814   4.138   3.366
 2633TIP3    H2 7906   1.667   4.175   3.359
 2634TIP3   OH2 7907   2.237   3.364   4.396
 2634TIP3    H1 7908   2.173   3.399   4.334
 2634TIP3    H2 7909   2.274   3.442   4.439
 2635TIP3   OH2 7910   1.385   0.579   1.850
 2635TIP3    H1 7911   1.417   0.541   1.932
 2635TIP3    H2 7912   1.291   0.559   1.850
 2636TIP3   OH2 7913   2.364   2.424   4.967
 2636TIP3    H1 7914   2.292   2.468   5.012
 2636TIP3    H2 7915   2.440   2.480   4.984
 2637TIP3   OH2 7916   0.624   0.177   4.933
 2637TIP3    H1 7917   0.628   0.229   5.013
 2637TIP3    H2 7918   0.666   0.094   4.956
 2638TIP3   OH2 7919   3.095   4.508   2.715
 2638TIP3    H1 7920   3.062   4.596   2.735
 2638TIP3    H2 7921   3.190   4.514   2.724
 2639TIP3   OH2 7922   1.973   1.995   0.209
 2639TIP3    H1 7923   1.996   2.058   0.278
 2639TIP3    H2 7924   1.964   1.911   0.255
 2640TIP3   OH2 7925   0.420   3.263   5.176
 2640TIP3    H1 7926   0.350   3.214   5.132
 2640TIP3    H2 7927   0.496   3.206   5.170
 2641TIP3   OH2 7928   1.692   3.904   1.219
 2641TIP3    H1 7929   1.744   3.973   1.260
 2641TIP3    H2 7930   1.719   3.824   1.263
 2642TIP3   OH2 7931   3.119   1.510   1.999
 2642TIP3    H1 7932   3.185   1.441   1.997
 2642TIP3    H2 7933   3.039   1.466   1.969
 2643TIP3   OH2 7934   3.142   1.237   1.823
 2643TIP3    H1 7935   3.060   1.221   1.868
 2643TIP3    H2 7936   3.206   1.251   1.893
 2644TIP3   OH2 7937   3.691   4.065   4.689
 2644TIP3    H1 7938   3.776   4.055   4.733
 2644TIP3    H2 7939   3.700   4.018   4.607
 2645TIP3   OH2 7940   3.864   5.224   0.358
 2645TIP3    H1 7941   3.850   5.257   0.270
 2645TIP3    H2 7942   3.825   5.289   0.416
 2646TIP3   OH2 7943   0.842   1.369   4.371
 2646TIP3    H1 7944   0.921   1.333   4.330
 2646TIP3    H2 7945   0.810   1.433   4.307
 2647TIP3   OH2 7946   3.387   3.908   3.189
 2647TIP3    H1 7947   3.354   3.955   3.265
 2647TIP3    H2 7948   3.421   3.977   3.131
 2648TIP3   OH2 7949   5.178   2.044   1.399
 2648TIP3    H1 7950   5.253   2.098   1.375
 2648TIP3    H2 7951   5.215   1.971   1.449
 2649TIP3   OH2 7952   3.545   5.665   2.808
 2649TIP3    H1 7953   3.537   5.624   2.722
 2649TIP3    H2 7954   3.616   5.616   2.851
 2650TIP3   OH2 7955   6.289   4.773   0.128
 2650TIP3    H1 7956   6.256   4.740   0.045
 2650TIP3    H2 7957   6.384   4.772   0.119
 2651TIP3   OH2 7958   1.598   3.683   4.830
 2651TIP3    H1 7959   1.647   3.608   4.865
 2651TIP3    H2 7960   1.536   3.706   4.899
 2652TIP3   OH2 7961   5.687   4.582   1.940
 2652TIP3    H1 7962   5.749   4.637   1.892
 2652TIP3    H2 7963   5.709   4.493   1.913
 2653TIP3   OH2 7964   1.402   4.643   4.520
 2653TIP3    H1 7965   1.419   4.555   4.553
 2653TIP3    H2 7966   1.409   4.700   4.597
 2654TIP3   OH2 7967   0.033   3.506   2.776
 2654TIP3    H1 7968   0.067   3.417   2.785
 2654TIP3    H2 7969   0.109   3.563   2.790
 2655TIP3   OH2 7970   6.115   4.162   2.701
 2655TIP3    H1 7971   6.092   4.249   2.669
 2655TIP3    H2 7972   6.129   4.110   2.622
 2656TIP3   OH2 7973   1.325   0.693   4.015
 2656TIP3    H1 7974   1.337   0.688   3.920
 2656TIP3    H2 7975   1.272   0.771   4.028
 2657TIP3   OH2 7976   5.877   1.669   5.161
 2657TIP3    H1 7977   5.862   1.589   5.110
 2657TIP3    H2 7978   5.794   1.716   5.156
 2658TIP3   OH2 7979   4.216   6.014   4.541
 2658TIP3    H1 7980   4.152   6.021   4.612
 2658TIP3    H2 7981   4.271   5.940   4.567
 2659TIP3   OH2 7982   4.175   3.777   3.374
 2659TIP3    H1 7983   4.094   3.776   3.425
 2659TIP3    H2 7984   4.147   3.753   3.286
 2660TIP3   OH2 7985   5.475   3.195   5.168
 2660TIP3    H1 7986   5.489   3.120   5.110
 2660TIP3    H2 7987   5.391   3.177   5.210
 2661TIP3   OH2 7988   1.011   4.569   1.493
 2661TIP3    H1 7989   1.057   4.645   1.457
 2661TIP3    H2 7990   0.942   4.551   1.429
 2662TIP3   OH2 7991   2.901   1.898   1.193
 2662TIP3    H1 7992   2.991   1.897   1.228
 2662TIP3    H2 7993   2.897   1.822   1.136
 2663TIP3   OH2 7994   2.496   0.560   1.532
 2663TIP3    H1 7995   2.550   0.520   1.600
 2663TIP3    H2 7996   2.558   0.586   1.465
 2664TIP3   OH2 7997   3.897   5.082   3.958
 2664TIP3    H1 7998   3.983   5.042   3.959
 2664TIP3    H2 7999   3.892   5.132   4.040
 2665TIP3   OH2 8000   3.506   1.676   3.186
 2665TIP3    H1 8001   3.469   1.711   3.267
 2665TIP3    H2 8002   3.461   1.593   3.172
 2666TIP3   OH2 8003   0.704   2.592   5.032
 2666TIP3    H1 8004   0.779   2.597   4.973
 2666TIP3    H2 8005   0.682   2.499   5.035
 2667TIP3   OH2 8006   5.801   0.783   2.175
 2667TIP3    H1 8007   5.722   0.797   2.123
 2667TIP3    H2 8008   5.816   0.866   2.220
 2668TIP3   OH2 8009   2.387   1.633   2.491
 2668TIP3    H1 8010   2.368   1.557   2.547
 2668TIP3    H2 8011   2.444   1.598   2.422
 2669TIP3   OH2 8012   2.427   1.731   3.200
 2669TIP3    H1 8013   2.365   1.734   3.273
 2669TIP3    H2 8014   2.373   1.715   3.123
 2670TIP3   OH2 8015   3.148   5.704   2.492
 2670TIP3    H1 8016   3.181   5.712   2.581
 2670TIP3    H2 8017   3.152   5.610   2.473
 2671TIP3   OH2 8018   1.718   1.076   1.327
 2671TIP3    H1 8019   1.667   1.080   1.408
 2671TIP3    H2 8020   1.809   1.071   1.356
 2672TIP3   OH2 8021   5.229   3.318   3.382
 2672TIP3    H1 8022   5.158   3.374   3.351
 2672TIP3    H2 8023   5.208   3.300   3.473
 2673TIP3   OH2 8024   4.512   0.281   3.120
 2673TIP3    H1 8025   4.537   0.330   3.042
 2673TIP3    H2 8026   4.545   0.334   3.193
 2674TIP3   OH2 8027   5.284   6.007   4.498
 2674TIP3    H1 8028   5.351   6.052   4.550
 2674TIP3    H2 8029   5.249   5.940   4.557
 2675TIP3   OH2 8030   2.287   4.669   1.765
 2675TIP3    H1 8031   2.327   4.625   1.841
 2675TIP3    H2 8032   2.228   4.604   1.728
 2676TIP3   OH2 8033   1.889   3.460   4.502
 2676TIP3    H1 8034   1.943   3.477   4.579
 2676TIP3    H2 8035   1.893   3.542   4.452
 2677TIP3   OH2 8036   1.629   3.072   2.606
 2677TIP3    H1 8037   1.702   3.020   2.572
 2677TIP3    H2 8038   1.588   3.109   2.528
 2678TIP3   OH2 8039   4.667   4.817   3.816
 2678TIP3    H1 8040   4.680   4.740   3.761
 2678TIP3    H2 8041   4.754   4.857   3.821
 2679TIP3   OH2 8042   0.827   0.982   2.943
 2679TIP3    H1 8043   0.746   1.012   2.983
 2679TIP3    H2 8044   0.896   1.013   3.003
 2680TIP3   OH2 8045   5.513   1.525   0.944
 2680TIP3    H1 8046   5.591   1.474   0.968
 2680TIP3    H2 8047   5.448   1.502   1.011
 2681TIP3   OH2 8048   4.528   1.826   0.684
 2681TIP3    H1 8049   4.621   1.814   0.705
 2681TIP3    H2 8050   4.496   1.739   0.665
 2682TIP3   OH2 8051   0.259   4.094   5.106
 2682TIP3    H1 8052   0.281   4.001   5.118
 2682TIP3    H2 8053   0.252   4.105   5.011
 2683TIP3   OH2 8054   5.377   5.549   4.145
 2683TIP3    H1 8055   5.420   5.490   4.206
 2683TIP3    H2 8056   5.377   5.634   4.190
 2684TIP3   OH2 8057   3.319   0.369   4.370
 2684TIP3    H1 8058   3.289   0.405   4.287
 2684TIP3    H2 8059   3.384   0.303   4.346
 2685TIP3   OH2 8060   1.790   5.352   0.064
 2685TIP3    H1 8061   1.819   5.276   0.014
 2685TIP3    H2 8062   1.867   5.408   0.072
 2686TIP3   OH2 8063   4.086   5.286   1.809
 2686TIP3    H1 8064   4.130   5.369   1.826
 2686TIP3    H2 8065   4.067   5.287   1.716
 2687TIP3   OH2 8066   3.933   4.614   3.736
 2687TIP3    H1 8067   3.910   4.680   3.801
 2687TIP3    H2 8068   3.919   4.531   3.780
 2688TIP3   OH2 8069   1.110   2.149   2.513
 2688TIP3    H1 8070   1.071   2.142   2.600
 2688TIP3    H2 8071   1.086   2.067   2.469
 2689TIP3   OH2 8072   4.561   3.930   0.718
 2689TIP3    H1 8073   4.597   3.950   0.804
 2689TIP3    H2 8074   4.473   3.896   0.735
 2690TIP3   OH2 8075   2.741   1.572   3.530
 2690TIP3    H1 8076   2.707   1.629   3.461
 2690TIP3    H2 8077   2.772   1.632   3.597
 2691TIP3   OH2 8078   0.041   1.257   0.843
 2691TIP3    H1 8079   0.103   1.258   0.771
 2691TIP3    H2 8080  -0.044   1.243   0.802
 2692TIP3   OH2 8081   3.306   0.294   0.694
 2692TIP3    H1 8082   3.269   0.381   0.681
 2692TIP3    H2 8083   3.401   0.307   0.691
 2693TIP3   OH2 8084   2.148   1.554   1.025
 2693TIP3    H1 8085   2.081   1.486   1.015
 2693TIP3    H2 8086   2.215   1.513   1.080
 2694TIP3   OH2 8087   5.357   4.069   3.607
 2694TIP3    H1 8088   5.363   4.071   3.512
 2694TIP3    H2 8089   5.327   3.981   3.628
 2695TIP3   OH2 8090   3.532   0.140   0.457
 2695TIP3    H1 8091   3.518   0.071   0.393
 2695TIP3    H2 8092   3.574   0.210   0.408
 2696TIP3   OH2 8093   1.636   4.491   5.136
 2696TIP3    H1 8094   1.663   4.476   5.227
 2696TIP3    H2 8095   1.685   4.427   5.085
 2697TIP3   OH2 8096   4.378   4.123   0.979
 2697TIP3    H1 8097   4.401   4.213   0.958
 2697TIP3    H2 8098   4.459   4.073   0.965
 2698TIP3   OH2 8099   4.371   2.908   1.407
 2698TIP3    H1 8100   4.322   2.990   1.408
 2698TIP3    H2 8101   4.358   2.874   1.318
 2699TIP3   OH2 8102   4.951   2.523   0.797
 2699TIP3    H1 8103   4.880   2.459   0.793
 2699TIP3    H2 8104   4.912   2.604   0.762
 2700TIP3   OH2 8105   2.868   2.755   1.966
 2700TIP3    H1 8106   2.924   2.830   1.984
 2700TIP3    H2 8107   2.852   2.759   1.872
 2701TIP3   OH2 8108   5.146   0.043   2.488
 2701TIP3    H1 8109   5.234   0.012   2.513
 2701TIP3    H2 8110   5.162   0.124   2.440
 2702TIP3   OH2 8111   5.002   4.591   0.928
 2702TIP3    H1 8112   5.088   4.632   0.916
 2702TIP3    H2 8113   5.022   4.504   0.964
 2703TIP3   OH2 8114   3.879   2.684   4.525
 2703TIP3    H1 8115   3.933   2.747   4.475
 2703TIP3    H2 8116   3.849   2.622   4.459
 2704TIP3   OH2 8117   4.882   1.678   4.474
 2704TIP3    H1 8118   4.870   1.773   4.465
 2704TIP3    H2 8119   4.802   1.640   4.438
 2705TIP3   OH2 8120   2.434   1.393   2.917
 2705TIP3    H1 8121   2.472   1.333   2.981
 2705TIP3    H2 8122   2.510   1.431   2.872
 2706TIP3   OH2 8123   4.385   5.708   4.505
 2706TIP3    H1 8124   4.372   5.613   4.500
 2706TIP3    H2 8125   4.304   5.745   4.468
 2707TIP3   OH2 8126   1.950   0.418   0.749
 2707TIP3    H1 8127   1.917   0.390   0.664
 2707TIP3    H2 8128   1.901   0.365   0.812
 2708TIP3   OH2 8129   5.327   5.962   2.334
 2708TIP3    H1 8130   5.309   5.868   2.342
 2708TIP3    H2 8131   5.241   6.004   2.346
 2709TIP3   OH2 8132   5.667   1.694   1.432
 2709TIP3    H1 8133   5.665   1.668   1.524
 2709TIP3    H2 8134   5.611   1.631   1.387
 2710TIP3   OH2 8135   4.715   3.985   4.402
 2710TIP3    H1 8136   4.624   3.998   4.428
 2710TIP3    H2 8137   4.749   4.073   4.389
 2711TIP3   OH2 8138   4.548   4.695   2.062
 2711TIP3    H1 8139   4.462   4.656   2.075
 2711TIP3    H2 8140   4.531   4.785   2.036
 2712TIP3   OH2 8141   5.950   4.246   0.833
 2712TIP3    H1 8142   5.872   4.195   0.856
 2712TIP3    H2 8143   5.975   4.289   0.914
 2713TIP3   OH2 8144   1.921   1.164   4.976
 2713TIP3    H1 8145   1.928   1.073   4.946
 2713TIP3    H2 8146   1.947   1.216   4.900
 2714TIP3   OH2 8147   3.335   2.125   3.351
 2714TIP3    H1 8148   3.268   2.097   3.413
 2714TIP3    H2 8149   3.291   2.127   3.266
 2715TIP3   OH2 8150   4.011   1.581   2.040
 2715TIP3    H1 8151   4.092   1.625   2.066
 2715TIP3    H2 8152   4.036   1.488   2.034
 2716TIP3   OH2 8153   0.106   1.032   1.525
 2716TIP3    H1 8154   0.146   0.986   1.599
 2716TIP3    H2 8155   0.173   1.094   1.497
 2717TIP3   OH2 8156   3.360   0.587   0.393
 2717TIP3    H1 8157   3.296   0.615   0.327
 2717TIP3    H2 8158   3.345   0.493   0.402
 2718TIP3   OH2 8159   0.465   4.957   1.411
 2718TIP3    H1 8160   0.380   4.976   1.370
 2718TIP3    H2 8161   0.510   5.041   1.413
 2719TIP3   OH2 8162   2.717   1.761   1.958
 2719TIP3    H1 8163   2.760   1.740   1.874
 2719TIP3    H2 8164   2.647   1.697   1.965
 2720TIP3   OH2 8165  -0.007   4.157   1.839
 2720TIP3    H1 8166  -0.083   4.208   1.867
 2720TIP3    H2 8167   0.068   4.205   1.872
 2721TIP3   OH2 8168   3.174   5.117   2.152
 2721TIP3    H1 8169   3.209   5.067   2.079
 2721TIP3    H2 8170   3.225   5.198   2.153
 2722TIP3   OH2 8171   1.459   0.347   1.090
 2722TIP3    H1 8172   1.405   0.383   1.160
 2722TIP3    H2 8173   1.485   0.260   1.121
 2723TIP3   OH2 8174   2.324   0.639   3.462
 2723TIP3    H1 8175   2.410   0.666   3.430
 2723TIP3    H2 8176   2.269   0.716   3.450
 2724TIP3   OH2 8177   2.664   5.436   4.056
 2724TIP3    H1 8178   2.585   5.480   4.027
 2724TIP3    H2 8179   2.732   5.503   4.052
 2725TIP3   OH2 8180   4.262   1.660   4.741
 2725TIP3    H1 8181   4.243   1.571   4.711
 2725TIP3    H2 8182   4.176   1.704   4.740
 2726TIP3   OH2 8183   6.055   3.314   3.387
 2726TIP3    H1 8184   6.098   3.312   3.301
 2726TIP3    H2 8185   5.966   3.285   3.370
 2727TIP3   OH2 8186   3.972   3.693   4.145
 2727TIP3    H1 8187   4.061   3.675   4.114
 2727TIP3    H2 8188   3.959   3.787   4.129
 2728TIP3   OH2 8189   1.508   4.610   0.585
 2728TIP3    H1 8190   1.558   4.528   0.591
 2728TIP3    H2 8191   1.416   4.582   0.585
 2729TIP3   OH2 8192   3.522   4.549   4.208
 2729TIP3    H1 8193   3.429   4.541   4.186
 2729TIP3    H2 8194   3.522   4.592   4.293
 2730TIP3   OH2 8195   2.987   0.007   1.328
 2730TIP3    H1 8196   3.023   0.087   1.366
 2730TIP3    H2 8197   3.061  -0.054   1.327
 2731TIP3   OH2 8198   4.780   1.002   0.050
 2731TIP3    H1 8199   4.766   0.941   0.123
 2731TIP3    H2 8200   4.768   0.949  -0.028
 2732TIP3   OH2 8201   5.143   3.444   1.603
 2732TIP3    H1 8202   5.203   3.493   1.547
 2732TIP3    H2 8203   5.112   3.373   1.548
 2733TIP3   OH2 8204   1.404   3.619   0.161
 2733TIP3    H1 8205   1.389   3.650   0.072
 2733TIP3    H2 8206   1.468   3.549   0.151
 2734TIP3   OH2 8207   0.434   2.302   0.151
 2734TIP3    H1 8208   0.516   2.264   0.121
 2734TIP3    H2 8209   0.406   2.245   0.223
 2735TIP3   OH2 8210   5.571   0.778   1.935
 2735TIP3    H1 8211   5.550   0.870   1.918
 2735TIP3    H2 8212   5.492   0.743   1.977
 2736TIP3   OH2 8213   2.829   1.298   4.148
 2736TIP3    H1 8214   2.859   1.304   4.058
 2736TIP3    H2 8215   2.775   1.219   4.150
 2737TIP3   OH2 8216   4.241   5.615   4.794
 2737TIP3    H1 8217   4.294   5.689   4.826
 2737TIP3    H2 8218   4.286   5.538   4.828
 2738TIP3   OH2 8219   0.403   4.694   4.947
 2738TIP3    H1 8220   0.435   4.772   4.993
 2738TIP3    H2 8221   0.412   4.716   4.854
 2739TIP3   OH2 8222   3.956   0.348   3.299
 2739TIP3    H1 8223   4.024   0.376   3.238
 2739TIP3    H2 8224   3.891   0.418   3.296
 2740TIP3   OH2 8225   5.755   3.239   0.124
 2740TIP3    H1 8226   5.760   3.215   0.032
 2740TIP3    H2 8227   5.666   3.215   0.150
 2741TIP3   OH2 8228   5.093   4.643   0.386
 2741TIP3    H1 8229   5.113   4.719   0.440
 2741TIP3    H2 8230   5.149   4.574   0.420
 2742TIP3   OH2 8231   0.484   5.628   0.394
 2742TIP3    H1 8232   0.430   5.605   0.318
 2742TIP3    H2 8233   0.465   5.559   0.458
 2743TIP3   OH2 8234   3.427   2.407   3.964
 2743TIP3    H1 8235   3.484   2.382   3.891
 2743TIP3    H2 8236   3.339   2.386   3.934
 2744TIP3   OH2 8237   4.410   5.896   4.237
 2744TIP3    H1 8238   4.341   5.830   4.229
 2744TIP3    H2 8239   4.468   5.879   4.163
 2745TIP3   OH2 8240   1.261   1.367   1.152
 2745TIP3    H1 8241   1.262   1.416   1.069
 2745TIP3    H2 8242   1.255   1.434   1.220
 2746TIP3   OH2 8243   1.775   0.578   2.841
 2746TIP3    H1 8244   1.705   0.581   2.907
 2746TIP3    H2 8245   1.843   0.637   2.876
 2747TIP3   OH2 8246   1.072   0.871   2.015
 2747TIP3    H1 8247   1.016   0.947   1.999
 2747TIP3    H2 8248   1.097   0.842   1.927
 2748TIP3   OH2 8249   0.020   2.122   2.355
 2748TIP3    H1 8250   0.043   2.173   2.277
 2748TIP3    H2 8251  -0.039   2.179   2.404
 2749TIP3   OH2 8252   1.541   3.923   0.715
 2749TIP3    H1 8253   1.600   3.870   0.768
 2749TIP3    H2 8254   1.521   3.999   0.770
 2750TIP3   OH2 8255   3.283   2.738   2.746
 2750TIP3    H1 8256   3.256   2.761   2.657
 2750TIP3    H2 8257   3.317   2.649   2.739
 2751TIP3   OH2 8258   5.603   1.635   4.807
 2751TIP3    H1 8259   5.604   1.635   4.712
 2751TIP3    H2 8260   5.537   1.701   4.831
 2752TIP3   OH2 8261   2.200   4.339   3.882
 2752TIP3    H1 8262   2.148   4.414   3.908
 2752TIP3    H2 8263   2.283   4.376   3.850
 2753TIP3   OH2 8264   2.208   1.872   4.576
 2753TIP3    H1 8265   2.220   1.805   4.508
 2753TIP3    H2 8266   2.173   1.823   4.651
 2754TIP3   OH2 8267   4.688   3.297   3.134
 2754TIP3    H1 8268   4.615   3.359   3.140
 2754TIP3    H2 8269   4.651   3.214   3.166
 2755TIP3   OH2 8270   3.072   0.044   3.218
 2755TIP3    H1 8271   3.087   0.138   3.220
 2755TIP3    H2 8272   3.021   0.029   3.138
 2756TIP3   OH2 8273   6.273   4.279   3.034
 2756TIP3    H1 8274   6.188   4.246   3.005
 2756TIP3    H2 8275   6.289   4.233   3.117
 2757TIP3   OH2 8276   3.075   5.613   4.006
 2757TIP3    H1 8277   3.083   5.700   3.966
 2757TIP3    H2 8278   3.151   5.566   3.972
 2758TIP3   OH2 8279   5.719   5.337   4.468
 2758TIP3    H1 8280   5.770   5.415   4.444
 2758TIP3    H2 8281   5.763   5.302   4.545
 2759TIP3   OH2 8282   2.206   0.037   2.430
 2759TIP3    H1 8283   2.130   0.049   2.487
 2759TIP3    H2 8284   2.229   0.126   2.401
 2760TIP3   OH2 8285   5.138   0.753   3.601
 2760TIP3    H1 8286   5.073   0.714   3.542
 2760TIP3    H2 8287   5.087   0.783   3.676
 2761TIP3   OH2 8288   6.112   3.127   1.163
 2761TIP3    H1 8289   6.103   3.202   1.104
 2761TIP3    H2 8290   6.203   3.129   1.191
 2762TIP3   OH2 8291   1.901   2.377   0.459
 2762TIP3    H1 8292   1.823   2.407   0.413
 2762TIP3    H2 8293   1.878   2.380   0.552
 2763TIP3   OH2 8294   4.082   4.311   2.502
 2763TIP3    H1 8295   4.031   4.230   2.502
 2763TIP3    H2 8296   4.088   4.336   2.410
 2764TIP3   OH2 8297   3.134   2.127   3.567
 2764TIP3    H1 8298   3.051   2.156   3.605
 2764TIP3    H2 8299   3.193   2.117   3.641
 2765TIP3   OH2 8300   5.796   4.738   1.225
 2765TIP3    H1 8301   5.715   4.688   1.229
 2765TIP3    H2 8302   5.835   4.716   1.141
 2766TIP3   OH2 8303   0.412   1.381   1.265
 2766TIP3    H1 8304   0.328   1.342   1.242
 2766TIP3    H2 8305   0.467   1.366   1.188
 2767TIP3   OH2 8306   1.931   0.483   1.151
 2767TIP3    H1 8307   1.919   0.534   1.231
 2767TIP3    H2 8308   2.024   0.492   1.130
 2768TIP3   OH2 8309   1.640   4.411   1.252
 2768TIP3    H1 8310   1.557   4.457   1.237
 2768TIP3    H2 8311   1.698   4.443   1.183
 2769TIP3   OH2 8312   2.026   5.842   0.507
 2769TIP3    H1 8313   2.008   5.780   0.577
 2769TIP3    H2 8314   2.002   5.795   0.427
 2770TIP3   OH2 8315   1.366   5.244   1.515
 2770TIP3    H1 8316   1.386   5.206   1.429
 2770TIP3    H2 8317   1.412   5.328   1.515
 2771TIP3   OH2 8318   5.508   2.693   2.376
 2771TIP3    H1 8319   5.596   2.711   2.343
 2771TIP3    H2 8320   5.522   2.644   2.457
 2772TIP3   OH2 8321   1.437   0.357   2.070
 2772TIP3    H1 8322   1.368   0.298   2.039
 2772TIP3    H2 8323   1.518   0.309   2.056
 2773TIP3   OH2 8324   3.084   4.246   0.169
 2773TIP3    H1 8325   3.016   4.178   0.165
 2773TIP3    H2 8326   3.041   4.319   0.215
 2774TIP3   OH2 8327   4.224   4.384   3.011
 2774TIP3    H1 8328   4.314   4.366   3.040
 2774TIP3    H2 8329   4.175   4.307   3.038
 2775TIP3   OH2 8330   2.281   5.208   2.349
 2775TIP3    H1 8331   2.220   5.141   2.317
 2775TIP3    H2 8332   2.315   5.250   2.269
 2776TIP3   OH2 8333   0.982   5.399   0.843
 2776TIP3    H1 8334   1.033   5.342   0.899
 2776TIP3    H2 8335   0.892   5.392   0.877
 2777TIP3   OH2 8336   2.508   5.118   2.977
 2777TIP3    H1 8337   2.429   5.111   2.923
 2777TIP3    H2 8338   2.491   5.061   3.052
 2778TIP3   OH2 8339   6.104   3.278   2.676
 2778TIP3    H1 8340   6.147   3.342   2.731
 2778TIP3    H2 8341   6.075   3.210   2.736
 2779TIP3   OH2 8342   0.376   4.048   1.167
 2779TIP3    H1 8343   0.439   4.104   1.214
 2779TIP3    H2 8344   0.366   3.972   1.225
 2780TIP3   OH2 8345   1.807   4.338   4.137
 2780TIP3    H1 8346   1.729   4.393   4.142
 2780TIP3    H2 8347   1.822   4.327   4.043
 2781TIP3   OH2 8348   4.206   4.877   2.902
 2781TIP3    H1 8349   4.239   4.823   2.974
 2781TIP3    H2 8350   4.215   4.821   2.825
 2782TIP3   OH2 8351   6.016   5.546   0.292
 2782TIP3    H1 8352   6.102   5.557   0.333
 2782TIP3    H2 8353   5.990   5.634   0.266
 2783TIP3   OH2 8354   3.267   3.186   2.887
 2783TIP3    H1 8355   3.325   3.129   2.937
 2783TIP3    H2 8356   3.192   3.200   2.944
 2784TIP3   OH2 8357   1.654   0.369   0.715
 2784TIP3    H1 8358   1.651   0.388   0.809
 2784TIP3    H2 8359   1.687   0.280   0.710
 2785TIP3   OH2 8360   5.365   5.785   4.285
 2785TIP3    H1 8361   5.303   5.855   4.309
 2785TIP3    H2 8362   5.367   5.728   4.362
 2786TIP3   OH2 8363   3.496   5.702   0.206
 2786TIP3    H1 8364   3.575   5.727   0.254
 2786TIP3    H2 8365   3.424   5.735   0.260
 2787TIP3   OH2 8366   3.710   2.092   1.152
 2787TIP3    H1 8367   3.737   2.165   1.208
 2787TIP3    H2 8368   3.698   2.019   1.213
 2788TIP3   OH2 8369   1.337   2.858   4.131
 2788TIP3    H1 8370   1.372   2.855   4.221
 2788TIP3    H2 8371   1.391   2.923   4.087
 2789TIP3   OH2 8372   4.955   3.755   2.612
 2789TIP3    H1 8373   4.897   3.710   2.672
 2789TIP3    H2 8374   4.997   3.823   2.665
 2790TIP3   OH2 8375   1.451   4.832   0.931
 2790TIP3    H1 8376   1.365   4.795   0.912
 2790TIP3    H2 8377   1.496   4.833   0.847
 2791TIP3   OH2 8378   0.634   3.003   1.523
 2791TIP3    H1 8379   0.560   3.048   1.562
 2791TIP3    H2 8380   0.710   3.057   1.547
 2792TIP3   OH2 8381   5.088   0.024   2.985
 2792TIP3    H1 8382   5.048  -0.058   2.955
 2792TIP3    H2 8383   5.085   0.081   2.909
 2793TIP3   OH2 8384   4.833   1.077   1.863
 2793TIP3    H1 8385   4.902   1.021   1.899
 2793TIP3    H2 8386   4.754   1.023   1.865
 2794TIP3   OH2 8387   4.293   3.252   3.786
 2794TIP3    H1 8388   4.311   3.300   3.867
 2794TIP3    H2 8389   4.263   3.319   3.724
 2795TIP3   OH2 8390   0.876   0.933   0.239
 2795TIP3    H1 8391   0.913   0.948   0.326
 2795TIP3    H2 8392   0.909   1.005   0.186
 2796TIP3   OH2 8393   1.706   5.421   0.892
 2796TIP3    H1 8394   1.710   5.467   0.976
 2796TIP3    H2 8395   1.616   5.387   0.888
 2797TIP3   OH2 8396   0.482   1.844   3.848
 2797TIP3    H1 8397   0.534   1.820   3.772
 2797TIP3    H2 8398   0.434   1.765   3.871
 2798TIP3   OH2 8399   0.468   2.216   2.752
 2798TIP3    H1 8400   0.525   2.160   2.698
 2798TIP3    H2 8401   0.519   2.231   2.832
 2799TIP3   OH2 8402   5.197   2.405   2.534
 2799TIP3    H1 8403   5.246   2.384   2.613
 2799TIP3    H2 8404   5.242   2.358   2.464
 2800TIP3   OH2 8405   6.058   1.282   4.803
 2800TIP3    H1 8406   6.127   1.291   4.738
 2800TIP3    H2 8407   6.018   1.369   4.808
 2801TIP3   OH2 8408   1.513   4.775   1.567
 2801TIP3    H1 8409   1.451   4.754   1.636
 2801TIP3    H2 8410   1.580   4.707   1.572
 2802TIP3   OH2 8411   3.774   1.352   2.651
 2802TIP3    H1 8412   3.740   1.290   2.587
 2802TIP3    H2 8413   3.856   1.312   2.682
 2803TIP3   OH2 8414   1.160   4.060   1.655
 2803TIP3    H1 8415   1.241   4.110   1.669
 2803TIP3    H2 8416   1.146   4.015   1.739
 2804TIP3   OH2 8417   0.892   0.845   1.285
 2804TIP3    H1 8418   0.893   0.789   1.363
 2804TIP3    H2 8419   0.985   0.860   1.266
 2805TIP3   OH2 8420   6.249   3.253   3.783
 2805TIP3    H1 8421   6.159   3.225   3.803
 2805TIP3    H2 8422   6.297   3.171   3.772
 2806TIP3   OH2 8423   5.465   1.379   2.092
 2806TIP3    H1 8424   5.512   1.303   2.125
 2806TIP3    H2 8425   5.532   1.433   2.050
 2807TIP3   OH2 8426   5.756   3.704   2.034
 2807TIP3    H1 8427   5.731   3.718   1.943
 2807TIP3    H2 8428   5.677   3.672   2.076
 2808TIP3   OH2 8429   4.485   1.176   0.587
 2808TIP3    H1 8430   4.519   1.225   0.512
 2808TIP3    H2 8431   4.563   1.140   0.629
 2809TIP3   OH2 8432   0.460   5.425   3.482
 2809TIP3    H1 8433   0.369   5.445   3.503
 2809TIP3    H2 8434   0.468   5.446   3.389
 2810TIP3   OH2 8435   1.004   3.683   2.539
 2810TIP3    H1 8436   0.918   3.652   2.567
 2810TIP3    H2 8437   1.008   3.774   2.569
 2811TIP3   OH2 8438   3.364   2.519   2.637
 2811TIP3    H1 8439   3.285   2.482   2.599
 2811TIP3    H2 8440   3.434   2.496   2.575
 2812TIP3   OH2 8441   3.295   4.090   3.378
 2812TIP3    H1 8442   3.229   4.067   3.443
 2812TIP3    H2 8443   3.337   4.168   3.414
 2813TIP3   OH2 8444   6.330   1.097   2.475
 2813TIP3    H1 8445   6.347   1.005   2.497
 2813TIP3    H2 8446   6.301   1.136   2.558
 2814TIP3   OH2 8447   4.497   2.058   4.770
 2814TIP3    H1 8448   4.498   2.040   4.676
 2814TIP3    H2 8449   4.453   2.143   4.777
 2815TIP3   OH2 8450  -0.030   0.294   2.837
 2815TIP3    H1 8451  -0.036   0.323   2.746
 2815TIP3    H2 8452   0.013   0.208   2.833
 2816TIP3   OH2 8453   1.499   2.234   0.104
 2816TIP3    H1 8454   1.491   2.221   0.199
 2816TIP3    H2 8455   1.429   2.180   0.067
 2817TIP3   OH2 8456   3.659   4.946   3.983
 2817TIP3    H1 8457   3.728   4.990   3.934
 2817TIP3    H2 8458   3.704   4.897   4.051
 2818TIP3   OH2 8459   2.982   3.608   2.415
 2818TIP3    H1 8460   3.029   3.588   2.334
 2818TIP3    H2 8461   3.039   3.576   2.485
 2819TIP3   OH2 8462   5.912   0.084   4.048
 2819TIP3    H1 8463   5.950   0.084   4.136
 2819TIP3    H2 8464   5.865   0.166   4.042
 2820TIP3   OH2 8465   1.962   0.995   2.580
 2820TIP3    H1 8466   1.932   1.026   2.666
 2820TIP3    H2 8467   1.882   0.973   2.534
 2821TIP3   OH2 8468   2.006   0.561   3.576
 2821TIP3    H1 8469   2.066   0.513   3.518
 2821TIP3    H2 8470   2.016   0.518   3.661
 2822TIP3   OH2 8471   1.211   2.794   3.892
 2822TIP3    H1 8472   1.282   2.811   3.954
 2822TIP3    H2 8473   1.132   2.820   3.938
 2823TIP3   OH2 8474   4.452   5.985   2.510
 2823TIP3    H1 8475   4.395   5.925   2.557
 2823TIP3    H2 8476   4.518   5.929   2.469
 2824TIP3   OH2 8477   6.205   5.624   1.243
 2824TIP3    H1 8478   6.164   5.711   1.251
 2824TIP3    H2 8479   6.299   5.643   1.241
 2825TIP3   OH2 8480   0.619   1.735   1.500
 2825TIP3    H1 8481   0.535   1.763   1.462
 2825TIP3    H2 8482   0.596   1.663   1.558
 2826TIP3   OH2 8483   4.035   5.727   0.902
 2826TIP3    H1 8484   4.032   5.644   0.853
 2826TIP3    H2 8485   4.091   5.707   0.977
 2827TIP3   OH2 8486   1.241   0.212   4.284
 2827TIP3    H1 8487   1.214   0.291   4.238
 2827TIP3    H2 8488   1.256   0.241   4.375
 2828TIP3   OH2 8489   6.169   3.440   2.893
 2828TIP3    H1 8490   6.250   3.474   2.857
 2828TIP3    H2 8491   6.195   3.395   2.974
 2829TIP3   OH2 8492   0.656   1.183   4.220
 2829TIP3    H1 8493   0.745   1.188   4.253
 2829TIP3    H2 8494   0.666   1.173   4.125
 2830TIP3   OH2 8495   4.478   4.081   1.507
 2830TIP3    H1 8496   4.413   4.054   1.572
 2830TIP3    H2 8497   4.443   4.048   1.424
 2831TIP3   OH2 8498   5.845   4.498   5.126
 2831TIP3    H1 8499   5.895   4.441   5.184
 2831TIP3    H2 8500   5.848   4.584   5.168
 2832TIP3   OH2 8501   5.885   1.860   1.641
 2832TIP3    H1 8502   5.861   1.905   1.560
 2832TIP3    H2 8503   5.825   1.785   1.645
 2833TIP3   OH2 8504   6.282   3.100   2.541
 2833TIP3    H1 8505   6.231   3.177   2.564
 2833TIP3    H2 8506   6.256   3.080   2.451
 2834TIP3   OH2 8507   4.085   5.768   3.266
 2834TIP3    H1 8508   4.165   5.801   3.307
 2834TIP3    H2 8509   4.072   5.682   3.307
 2835TIP3   OH2 8510   1.992   2.431   1.656
 2835TIP3    H1 8511   2.005   2.344   1.620
 2835TIP3    H2 8512   2.012   2.490   1.583
 2836TIP3   OH2 8513   1.017   0.052   0.289
 2836TIP3    H1 8514   1.072   0.078   0.364
 2836TIP3    H2 8515   0.933   0.029   0.328
 2837TIP3   OH2 8516   1.322   2.065   1.185
 2837TIP3    H1 8517   1.243   2.104   1.222
 2837TIP3    H2 8518   1.291   2.015   1.109
 2838TIP3   OH2 8519   3.443   3.351   1.412
 2838TIP3    H1 8520   3.519   3.306   1.377
 2838TIP3    H2 8521   3.378   3.346   1.341
 2839TIP3   OH2 8522   5.354   5.539   3.304
 2839TIP3    H1 8523   5.396   5.622   3.280
 2839TIP3    H2 8524   5.423   5.488   3.345
 2840TIP3   OH2 8525   4.573   4.347   1.500
 2840TIP3    H1 8526   4.484   4.383   1.502
 2840TIP3    H2 8527   4.561   4.253   1.494
 2841TIP3   OH2 8528   5.020   1.030   1.020
 2841TIP3    H1 8529   4.940   0.988   1.052
 2841TIP3    H2 8530   5.023   1.115   1.063
 2842TIP3   OH2 8531   2.842   0.162   0.247
 2842TIP3    H1 8532   2.855   0.071   0.223
 2842TIP3    H2 8533   2.824   0.159   0.341
 2843TIP3   OH2 8534   0.844   3.139   3.852
 2843TIP3    H1 8535   0.832   3.128   3.946
 2843TIP3    H2 8536   0.875   3.229   3.841
 2844TIP3   OH2 8537   2.078   5.823   4.789
 2844TIP3    H1 8538   2.140   5.870   4.734
 2844TIP3    H2 8539   2.132   5.776   4.853
 2845TIP3   OH2 8540   5.395   2.156   2.548
 2845TIP3    H1 8541   5.399   2.171   2.454
 2845TIP3    H2 8542   5.481   2.120   2.571
 2846TIP3   OH2 8543   0.918   4.072   3.988
 2846TIP3    H1 8544   0.935   4.004   4.054
 2846TIP3    H2 8545   0.924   4.025   3.904
 2847TIP3   OH2 8546   0.467   4.036   0.479
 2847TIP3    H1 8547   0.433   4.119   0.445
 2847TIP3    H2 8548   0.404   3.971   0.450
 2848TIP3   OH2 8549   5.087   4.455   4.967
 2848TIP3    H1 8550   5.105   4.402   5.045
 2848TIP3    H2 8551   5.121   4.542   4.989
 2849TIP3   OH2 8552   1.872   1.977   1.174
 2849TIP3    H1 8553   1.849   2.069   1.190
 2849TIP3    H2 8554   1.966   1.972   1.192
 2850TIP3   OH2 8555   2.785   1.698   0.108
 2850TIP3    H1 8556   2.874   1.727   0.130
 2850TIP3    H2 8557   2.789   1.603   0.113
 2851TIP3   OH2 8558   1.724   1.298   0.109
 2851TIP3    H1 8559   1.774   1.365   0.062
 2851TIP3    H2 8560   1.775   1.280   0.188
 2852TIP3   OH2 8561   5.191   0.039   1.713
 2852TIP3    H1 8562   5.239  -0.036   1.676
 2852TIP3    H2 8563   5.232   0.053   1.798
 2853TIP3   OH2 8564   3.466   5.831   2.014
 2853TIP3    H1 8565   3.528   5.769   1.975
 2853TIP3    H2 8566   3.387   5.822   1.960
 2854TIP3   OH2 8567   2.240   1.331   2.351
 2854TIP3    H1 8568   2.175   1.368   2.412
 2854TIP3    H2 8569   2.230   1.236   2.361
 2855TIP3   OH2 8570   6.113   1.685   1.951
 2855TIP3    H1 8571   6.150   1.756   1.898
 2855TIP3    H2 8572   6.022   1.711   1.964
 2856TIP3   OH2 8573   5.181   0.277   1.060
 2856TIP3    H1 8574   5.132   0.219   1.001
 2856TIP3    H2 8575   5.184   0.229   1.143
 2857TIP3   OH2 8576   5.084   3.043   0.689
 2857TIP3    H1 8577   5.065   3.107   0.620
 2857TIP3    H2 8578   5.032   2.967   0.664
 2858TIP3   OH2 8579   4.300   1.973   1.420
 2858TIP3    H1 8580   4.368   2.010   1.476
 2858TIP3    H2 8581   4.231   1.946   1.480
 2859TIP3   OH2 8582   2.582   1.958   1.819
 2859TIP3    H1 8583   2.655   1.970   1.758
 2859TIP3    H2 8584   2.616   1.895   1.883
 2860TIP3   OH2 8585   3.718   2.702   1.264
 2860TIP3    H1 8586   3.656   2.725   1.334
 2860TIP3    H2 8587   3.793   2.758   1.280
 2861TIP3   OH2 8588   1.539   1.394   3.783
 2861TIP3    H1 8589   1.485   1.473   3.778
 2861TIP3    H2 8590   1.600   1.412   3.855
 2862TIP3   OH2 8591   1.408   3.952   1.411
 2862TIP3    H1 8592   1.383   4.032   1.459
 2862TIP3    H2 8593   1.484   3.978   1.360
 2863TIP3   OH2 8594   6.120   3.273   4.266
 2863TIP3    H1 8595   6.181   3.345   4.287
 2863TIP3    H2 8596   6.088   3.244   4.351
 2864TIP3   OH2 8597   1.440   3.046   0.352
 2864TIP3    H1 8598   1.478   2.996   0.424
 2864TIP3    H2 8599   1.401   3.123   0.394
 2865TIP3   OH2 8600   6.143   5.759   3.392
 2865TIP3    H1 8601   6.148   5.687   3.455
 2865TIP3    H2 8602   6.158   5.837   3.444
 2866TIP3   OH2 8603   1.564   3.780   1.800
 2866TIP3    H1 8604   1.559   3.698   1.751
 2866TIP3    H2 8605   1.534   3.757   1.888
 2867TIP3   OH2 8606   2.917   3.359   4.391
 2867TIP3    H1 8607   2.920   3.424   4.321
 2867TIP3    H2 8608   2.886   3.279   4.350
 2868TIP3   OH2 8609   1.818   4.487   3.344
 2868TIP3    H1 8610   1.814   4.392   3.333
 2868TIP3    H2 8611   1.779   4.503   3.430
 2869TIP3   OH2 8612   2.156   0.698   2.229
 2869TIP3    H1 8613   2.132   0.635   2.160
 2869TIP3    H2 8614   2.113   0.779   2.202
 2870TIP3   OH2 8615   0.107   3.829   1.589
 2870TIP3    H1 8616   0.157   3.829   1.507
 2870TIP3    H2 8617   0.155   3.887   1.647
 2871TIP3   OH2 8618   6.278   0.082   4.197
 2871TIP3    H1 8619   6.297   0.174   4.213
 2871TIP3    H2 8620   6.346   0.034   4.245
 2872TIP3   OH2 8621   1.826   4.673   3.937
 2872TIP3    H1 8622   1.748   4.648   3.888
 2872TIP3    H2 8623   1.794   4.727   4.009
 2873TIP3   OH2 8624   6.241   2.530   5.215
 2873TIP3    H1 8625   6.302   2.568   5.279
 2873TIP3    H2 8626   6.289   2.534   5.132
 2874TIP3   OH2 8627   0.864   2.625   4.150
 2874TIP3    H1 8628   0.834   2.599   4.063
 2874TIP3    H2 8629   0.922   2.554   4.178
 2875TIP3   OH2 8630   6.013   4.465   3.878
 2875TIP3    H1 8631   5.920   4.487   3.882
 2875TIP3    H2 8632   6.016   4.385   3.825
 2876TIP3   OH2 8633   5.329   0.734   4.845
 2876TIP3    H1 8634   5.249   0.786   4.849
 2876TIP3    H2 8635   5.302   0.646   4.873
 2877TIP3   OH2 8636   1.854   0.070   3.980
 2877TIP3    H1 8637   1.837   0.141   3.917
 2877TIP3    H2 8638   1.949   0.058   3.977
 2878TIP3   OH2 8639   4.785   3.245   4.912
 2878TIP3    H1 8640   4.790   3.150   4.899
 2878TIP3    H2 8641   4.733   3.256   4.991
 2879TIP3   OH2 8642   1.694   1.328   2.808
 2879TIP3    H1 8643   1.684   1.370   2.894
 2879TIP3    H2 8644   1.788   1.313   2.800
 2880TIP3   OH2 8645   3.957   4.069   2.160
 2880TIP3    H1 8646   3.904   4.037   2.233
 2880TIP3    H2 8647   4.044   4.082   2.197
 2881TIP3   OH2 8648   4.002   3.702   0.486
 2881TIP3    H1 8649   4.064   3.629   0.479
 2881TIP3    H2 8650   4.053   3.779   0.458
 2882TIP3   OH2 8651   3.293   0.101   3.649
 2882TIP3    H1 8652   3.293   0.190   3.684
 2882TIP3    H2 8653   3.243   0.108   3.568
 2883TIP3   OH2 8654   1.543   3.214   2.037
 2883TIP3    H1 8655   1.605   3.283   2.016
 2883TIP3    H2 8656   1.597   3.138   2.059
 2884TIP3   OH2 8657   2.709   2.694   0.413
 2884TIP3    H1 8658   2.658   2.682   0.493
 2884TIP3    H2 8659   2.797   2.662   0.435
 2885TIP3   OH2 8660   3.055   2.117   3.974
 2885TIP3    H1 8661   3.046   2.024   3.993
 2885TIP3    H2 8662   3.019   2.160   4.051
 2886TIP3   OH2 8663   3.383   2.089   1.990
 2886TIP3    H1 8664   3.464   2.047   2.017
 2886TIP3    H2 8665   3.327   2.017   1.960
 2887TIP3   OH2 8666   5.507   2.135   0.222
 2887TIP3    H1 8667   5.500   2.040   0.218
 2887TIP3    H2 8668   5.565   2.158   0.150
 2888TIP3   OH2 8669   4.277   1.994   3.769
 2888TIP3    H1 8670   4.248   2.058   3.835
 2888TIP3    H2 8671   4.203   1.989   3.708
 2889TIP3   OH2 8672   0.670   4.122   2.118
 2889TIP3    H1 8673   0.646   4.079   2.200
 2889TIP3    H2 8674   0.681   4.214   2.141
 2890TIP3   OH2 8675   3.719   3.241   0.859
 2890TIP3    H1 8676   3.713   3.282   0.945
 2890TIP3    H2 8677   3.774   3.163   0.874
 2891TIP3   OH2 8678   5.147   0.687   0.755
 2891TIP3    H1 8679   5.185   0.772   0.776
 2891TIP3    H2 8680   5.075   0.677   0.816
 2892TIP3   OH2 8681   3.613  -0.026   2.253
 2892TIP3    H1 8682   3.630   0.001   2.163
 2892TIP3    H2 8683   3.674   0.026   2.305
 2893TIP3   OH2 8684   1.246   5.266   5.159
 2893TIP3    H1 8685   1.160   5.235   5.187
 2893TIP3    H2 8686   1.285   5.191   5.115
 2894TIP3   OH2 8687   3.346   5.385   2.094
 2894TIP3    H1 8688   3.297   5.460   2.129
 2894TIP3    H2 8689   3.326   5.386   2.000
 2895TIP3   OH2 8690   5.041   4.390   3.220
 2895TIP3    H1 8691   5.036   4.455   3.291
 2895TIP3    H2 8692   5.131   4.396   3.188
 2896TIP3   OH2 8693   2.093   3.072   4.941
 2896TIP3    H1 8694   2.097   3.104   5.032
 2896TIP3    H2 8695   2.108   3.150   4.888
 2897TIP3   OH2 8696   0.558   2.216   2.382
 2897TIP3    H1 8697   0.563   2.121   2.375
 2897TIP3    H2 8698   0.467   2.234   2.408
 2898TIP3   OH2 8699   2.799   0.715   1.556
 2898TIP3    H1 8700   2.825   0.798   1.516
 2898TIP3    H2 8701   2.728   0.739   1.616
 2899TIP3   OH2 8702   0.387   0.185   1.197
 2899TIP3    H1 8703   0.338   0.215   1.274
 2899TIP3    H2 8704   0.337   0.109   1.165
 2900TIP3   OH2 8705   4.323   2.657   0.911
 2900TIP3    H1 8706   4.237   2.641   0.872
 2900TIP3    H2 8707   4.369   2.710   0.846
 2901TIP3   OH2 8708   4.266   2.788   4.757
 2901TIP3    H1 8709   4.325   2.754   4.690
 2901TIP3    H2 8710   4.325   2.822   4.825
 2902TIP3   OH2 8711   0.621   1.409   3.646
 2902TIP3    H1 8712   0.656   1.323   3.623
 2902TIP3    H2 8713   0.688   1.448   3.702
 2903TIP3   OH2 8714   4.726   2.345   1.428
 2903TIP3    H1 8715   4.774   2.301   1.357
 2903TIP3    H2 8716   4.749   2.438   1.418
 2904TIP3   OH2 8717   0.845   3.100   0.176
 2904TIP3    H1 8718   0.869   3.192   0.164
 2904TIP3    H2 8719   0.861   3.059   0.091
 2905TIP3   OH2 8720   4.618   1.282   1.983
 2905TIP3    H1 8721   4.699   1.327   2.007
 2905TIP3    H2 8722   4.590   1.238   2.064
 2906TIP3   OH2 8723   2.723   5.722   4.829
 2906TIP3    H1 8724   2.652   5.746   4.888
 2906TIP3    H2 8725   2.711   5.779   4.753
 2907TIP3   OH2 8726   0.110   2.858   1.279
 2907TIP3    H1 8727   0.138   2.853   1.371
 2907TIP3    H2 8728   0.187   2.828   1.230
 2908TIP3   OH2 8729   2.072   3.493   0.868
 2908TIP3    H1 8730   2.099   3.556   0.936
 2908TIP3    H2 8731   2.121   3.414   0.888
 2909TIP3   OH2 8732   0.323   1.525   1.485
 2909TIP3    H1 8733   0.230   1.527   1.466
 2909TIP3    H2 8734   0.364   1.501   1.402
 2910TIP3   OH2 8735   2.565   1.516   1.106
 2910TIP3    H1 8736   2.526   1.488   1.023
 2910TIP3    H2 8737   2.659   1.501   1.094
 2911TIP3   OH2 8738   2.840   3.467   1.728
 2911TIP3    H1 8739   2.771   3.512   1.777
 2911TIP3    H2 8740   2.811   3.472   1.637
 2912TIP3   OH2 8741   0.711   4.982   4.358
 2912TIP3    H1 8742   0.650   4.957   4.288
 2912TIP3    H2 8743   0.763   5.053   4.320
 2913TIP3   OH2 8744   3.511   0.193   4.298
 2913TIP3    H1 8745   3.595   0.230   4.325
 2913TIP3    H2 8746   3.531   0.103   4.273
 2914TIP3   OH2 8747   2.279   5.010   2.881
 2914TIP3    H1 8748   2.222   4.951   2.930
 2914TIP3    H2 8749   2.222   5.082   2.853
 2915TIP3   OH2 8750   5.682   3.553   4.541
 2915TIP3    H1 8751   5.669   3.475   4.594
 2915TIP3    H2 8752   5.671   3.626   4.603
 2916TIP3   OH2 8753   0.642   1.609   4.742
 2916TIP3    H1 8754   0.705   1.542   4.768
 2916TIP3    H2 8755   0.634   1.665   4.819
 2917TIP3   OH2 8756   3.100   5.814   4.927
 2917TIP3    H1 8757   3.144   5.729   4.922
 2917TIP3    H2 8758   3.062   5.827   4.841
 2918TIP3   OH2 8759   4.871   4.339   1.778
 2918TIP3    H1 8760   4.808   4.271   1.754
 2918TIP3    H2 8761   4.862   4.348   1.873
 2919TIP3   OH2 8762   3.327   5.277   4.529
 2919TIP3    H1 8763   3.281   5.263   4.446
 2919TIP3    H2 8764   3.388   5.348   4.510
 2920TIP3   OH2 8765   4.464   3.952   2.921
 2920TIP3    H1 8766   4.526   4.025   2.918
 2920TIP3    H2 8767   4.499   3.894   2.988
 2921TIP3   OH2 8768   0.119   2.924   0.203
 2921TIP3    H1 8769   0.046   2.871   0.236
 2921TIP3    H2 8770   0.107   2.925   0.108
 2922TIP3   OH2 8771   5.883   2.911   2.783
 2922TIP3    H1 8772   5.973   2.879   2.778
 2922TIP3    H2 8773   5.849   2.900   2.694
 2923TIP3   OH2 8774   4.529   1.191   5.126
 2923TIP3    H1 8775   4.566   1.103   5.126
 2923TIP3    H2 8776   4.437   1.177   5.100
 2924TIP3   OH2 8777   0.297   3.919   2.823
 2924TIP3    H1 8778   0.305   3.995   2.880
 2924TIP3    H2 8779   0.387   3.902   2.794
 2925TIP3   OH2 8780   1.077   1.902   2.411
 2925TIP3    H1 8781   1.168   1.875   2.397
 2925TIP3    H2 8782   1.025   1.830   2.376
 2926TIP3   OH2 8783   3.041   2.517   4.659
 2926TIP3    H1 8784   3.071   2.543   4.746
 2926TIP3    H2 8785   3.122   2.497   4.611
 2927TIP3   OH2 8786   3.040   3.109   3.876
 2927TIP3    H1 8787   3.036   3.197   3.913
 2927TIP3    H2 8788   2.953   3.072   3.891
 2928TIP3   OH2 8789   6.137   5.837   0.939
 2928TIP3    H1 8790   6.051   5.864   0.973
 2928TIP3    H2 8791   6.186   5.919   0.932
 2929TIP3   OH2 8792   4.177   5.003   3.888
 2929TIP3    H1 8793   4.128   4.980   3.810
 2929TIP3    H2 8794   4.252   5.053   3.856
 2930TIP3   OH2 8795   5.012   1.031   2.263
 2930TIP3    H1 8796   4.972   1.116   2.283
 2930TIP3    H2 8797   5.098   1.035   2.305
 2931TIP3   OH2 8798   3.810   5.762   3.951
 2931TIP3    H1 8799   3.738   5.780   4.012
 2931TIP3    H2 8800   3.889   5.783   4.001
 2932TIP3   OH2 8801   2.481   4.308   0.300
 2932TIP3    H1 8802   2.386   4.297   0.290
 2932TIP3    H2 8803   2.490   4.379   0.364
 2933TIP3   OH2 8804   2.523   1.267   3.817
 2933TIP3    H1 8805   2.473   1.186   3.805
 2933TIP3    H2 8806   2.561   1.259   3.904
 2934TIP3   OH2 8807   0.556   2.285   4.528
 2934TIP3    H1 8808   0.494   2.355   4.509
 2934TIP3    H2 8809   0.642   2.323   4.508
 2935TIP3   OH2 8810   2.064   1.593   1.329
 2935TIP3    H1 8811   2.049   1.561   1.418
 2935TIP3    H2 8812   2.111   1.522   1.285
 2936TIP3   OH2 8813   5.601   2.063   1.082
 2936TIP3    H1 8814   5.692   2.085   1.103
 2936TIP3    H2 8815   5.562   2.145   1.052
 2937TIP3   OH2 8816   4.265   5.641   3.018
 2937TIP3    H1 8817   4.285   5.573   3.082
 2937TIP3    H2 8818   4.301   5.721   3.056
 2938TIP3   OH2 8819   1.214   4.394   4.977
 2938TIP3    H1 8820   1.191   4.348   4.896
 2938TIP3    H2 8821   1.310   4.391   4.980
 2939TIP3   OH2 8822   5.883   0.226   3.640
 2939TIP3    H1 8823   5.836   0.204   3.559
 2939TIP3    H2 8824   5.880   0.145   3.692
 2940TIP3   OH2 8825   2.200   5.172   2.013
 2940TIP3    H1 8826   2.224   5.081   1.996
 2940TIP3    H2 8827   2.262   5.224   1.962
 2941TIP3   OH2 8828   4.735   0.157   4.256
 2941TIP3    H1 8829   4.651   0.192   4.229
 2941TIP3    H2 8830   4.767   0.108   4.180
 2942TIP3   OH2 8831   2.003   2.758   3.420
 2942TIP3    H1 8832   2.085   2.799   3.446
 2942TIP3    H2 8833   1.945   2.769   3.496
 2943TIP3   OH2 8834   1.314   4.360   0.329
 2943TIP3    H1 8835   1.247   4.297   0.302
 2943TIP3    H2 8836   1.353   4.390   0.247
 2944TIP3   OH2 8837   3.001   1.848   3.970
 2944TIP3    H1 8838   2.929   1.891   3.924
 2944TIP3    H2 8839   2.969   1.759   3.987
 2945TIP3   OH2 8840   4.468   4.262   3.340
 2945TIP3    H1 8841   4.392   4.208   3.361
 2945TIP3    H2 8842   4.515   4.271   3.423
 2946TIP3   OH2 8843   0.142   0.684   4.682
 2946TIP3    H1 8844   0.078   0.755   4.677
 2946TIP3    H2 8845   0.224   0.723   4.653
 2947TIP3   OH2 8846   4.390   0.428   1.677
 2947TIP3    H1 8847   4.322   0.487   1.709
 2947TIP3    H2 8848   4.466   0.484   1.661
 2948TIP3   OH2 8849   3.044   1.300   4.340
 2948TIP3    H1 8850   2.953   1.292   4.312
 2948TIP3    H2 8851   3.081   1.367   4.282
 2949TIP3   OH2 8852   5.410   0.148   0.362
 2949TIP3    H1 8853   5.415   0.242   0.344
 2949TIP3    H2 8854   5.474   0.109   0.302
 2950TIP3   OH2 8855   5.922   1.968   3.250
 2950TIP3    H1 8856   5.861   1.983   3.178
 2950TIP3    H2 8857   5.930   1.873   3.255
 2951TIP3   OH2 8858   2.544   1.800   4.840
 2951TIP3    H1 8859   2.471   1.795   4.902
 2951TIP3    H2 8860   2.620   1.772   4.891
 2952TIP3   OH2 8861   5.354   0.859   3.273
 2952TIP3    H1 8862   5.285   0.805   3.313
 2952TIP3    H2 8863   5.429   0.850   3.332
 2953TIP3   OH2 8864   6.203   4.252   0.395
 2953TIP3    H1 8865   6.259   4.186   0.438
 2953TIP3    H2 8866   6.237   4.258   0.306
 2954TIP3   OH2 8867   6.165   2.541   1.846
 2954TIP3    H1 8868   6.238   2.483   1.823
 2954TIP3    H2 8869   6.207   2.617   1.886
 2955TIP3   OH2 8870   2.941   1.258   3.209
 2955TIP3    H1 8871   2.982   1.264   3.123
 2955TIP3    H2 8872   2.915   1.348   3.229
 2956TIP3   OH2 8873   1.244   0.053   0.472
 2956TIP3    H1 8874   1.301   0.005   0.412
 2956TIP3    H2 8875   1.304   0.095   0.533
 2957TIP3   OH2 8876   4.434   3.814   3.198
 2957TIP3    H1 8877   4.364   3.773   3.148
 2957TIP3    H2 8878   4.432   3.769   3.282
 2958TIP3   OH2 8879   6.328   2.340   1.696
 2958TIP3    H1 8880   6.353   2.329   1.604
 2958TIP3    H2 8881   6.410   2.327   1.744
 2959TIP3   OH2 8882   1.075   2.873   4.745
 2959TIP3    H1 8883   1.124   2.940   4.793
 2959TIP3    H2 8884   1.140   2.835   4.685
 2960TIP3   OH2 8885   4.565   5.911   2.800
 2960TIP3    H1 8886   4.549   5.935   2.709
 2960TIP3    H2 8887   4.643   5.961   2.825
 2961TIP3   OH2 8888   5.491   3.512   3.817
 2961TIP3    H1 8889   5.405   3.472   3.835
 2961TIP3    H2 8890   5.545   3.486   3.892
 2962TIP3   OH2 8891   5.018   4.432   2.504
 2962TIP3    H1 8892   4.944   4.442   2.445
 2962TIP3    H2 8893   5.007   4.501   2.569
 2963TIP3   OH2 8894   3.123   0.785   5.167
 2963TIP3    H1 8895   3.125   0.786   5.263
 2963TIP3    H2 8896   3.101   0.874   5.142
 2964TIP3   OH2 8897   3.686   2.898   2.316
 2964TIP3    H1 8898   3.620   2.865   2.255
 2964TIP3    H2 8899   3.761   2.840   2.304
 2965TIP3   OH2 8900   3.054   4.576   3.394
 2965TIP3    H1 8901   3.082   4.615   3.312
 2965TIP3    H2 8902   3.014   4.648   3.443
 2966TIP3   OH2 8903   1.287   5.241   2.266
 2966TIP3    H1 8904   1.276   5.292   2.346
 2966TIP3    H2 8905   1.283   5.306   2.195
 2967TIP3   OH2 8906   1.400   3.525   1.921
 2967TIP3    H1 8907   1.323   3.567   1.882
 2967TIP3    H2 8908   1.414   3.572   2.003
 2968TIP3   OH2 8909   3.943   4.749   2.736
 2968TIP3    H1 8910   3.894   4.780   2.811
 2968TIP3    H2 8911   3.978   4.664   2.763
 2969TIP3   OH2 8912   1.642   5.410   2.922
 2969TIP3    H1 8913   1.695   5.334   2.895
 2969TIP3    H2 8914   1.706   5.475   2.950
 2970TIP3   OH2 8915   3.567   1.377   4.629
 2970TIP3    H1 8916   3.499   1.440   4.608
 2970TIP3    H2 8917   3.520   1.294   4.642
 2971TIP3   OH2 8918   4.229   4.973   0.788
 2971TIP3    H1 8919   4.280   4.892   0.784
 2971TIP3    H2 8920   4.183   4.968   0.871
 2972TIP3   OH2 8921   2.057   5.099   4.016
 2972TIP3    H1 8922   1.965   5.125   4.023
 2972TIP3    H2 8923   2.103   5.156   4.078
 2973TIP3   OH2 8924   5.657   2.813   1.759
 2973TIP3    H1 8925   5.679   2.904   1.776
 2973TIP3    H2 8926   5.733   2.777   1.713
 2974TIP3   OH2 8927   0.422   4.895   3.088
 2974TIP3    H1 8928   0.427   4.800   3.078
 2974TIP3    H2 8929   0.346   4.920   3.035
 2975TIP3   OH2 8930   4.525   0.161   2.869
 2975TIP3    H1 8931   4.608   0.117   2.850
 2975TIP3    H2 8932   4.525   0.172   2.964
 2976TIP3   OH2 8933   2.548   0.334   1.740
 2976TIP3    H1 8934   2.523   0.270   1.673
 2976TIP3    H2 8935   2.484   0.320   1.810
 2977TIP3   OH2 8936   5.839   1.726   4.127
 2977TIP3    H1 8937   5.894   1.667   4.179
 2977TIP3    H2 8938   5.750   1.703   4.152
 2978TIP3   OH2 8939   3.551   5.461   1.218
 2978TIP3    H1 8940   3.517   5.386   1.169
 2978TIP3    H2 8941   3.495   5.534   1.192
 2979TIP3   OH2 8942   3.295   2.842   2.504
 2979TIP3    H1 8943   3.237   2.824   2.430
 2979TIP3    H2 8944   3.357   2.908   2.471
 2980TIP3   OH2 8945   2.175   0.258   4.539
 2980TIP3    H1 8946   2.225   0.322   4.489
 2980TIP3    H2 8947   2.240   0.208   4.589
 2981TIP3   OH2 8948   5.867   5.892   0.718
 2981TIP3    H1 8949   5.843   5.823   0.656
 2981TIP3    H2 8950   5.866   5.848   0.804
 2982TIP3   OH2 8951   1.497   0.387   1.662
 2982TIP3    H1 8952   1.471   0.443   1.735
 2982TIP3    H2 8953   1.439   0.411   1.590
 2983TIP3   OH2 8954   4.695   0.546   0.978
 2983TIP3    H1 8955   4.627   0.502   0.927
 2983TIP3    H2 8956   4.759   0.575   0.913
 2984TIP3   OH2 8957   3.293   3.018   0.950
 2984TIP3    H1 8958   3.291   2.980   1.038
 2984TIP3    H2 8959   3.284   3.112   0.965
 2985TIP3   OH2 8960   5.250   0.584   3.262
 2985TIP3    H1 8961   5.182   0.522   3.234
 2985TIP3    H2 8962   5.333   0.538   3.244
 2986TIP3   OH2 8963   2.350   1.840   0.113
 2986TIP3    H1 8964   2.424   1.841   0.173
 2986TIP3    H2 8965   2.335   1.748   0.094
 2987TIP3   OH2 8966   1.244   1.478   2.106
 2987TIP3    H1 8967   1.291   1.396   2.118
 2987TIP3    H2 8968   1.287   1.520   2.031
 2988TIP3   OH2 8969   5.936   4.276   1.730
 2988TIP3    H1 8970   5.926   4.292   1.824
 2988TIP3    H2 8971   6.018   4.319   1.706
 2989TIP3   OH2 8972   0.625   5.921   2.927
 2989TIP3    H1 8973   0.659   6.010   2.942
 2989TIP3    H2 8974   0.530   5.933   2.923
 2990TIP3   OH2 8975   4.536   5.155   0.251
 2990TIP3    H1 8976   4.554   5.106   0.171
 2990TIP3    H2 8977   4.608   5.218   0.257
 2991TIP3   OH2 8978   4.323   0.260   0.720
 2991TIP3    H1 8979   4.400   0.204   0.734
 2991TIP3    H2 8980   4.252   0.199   0.702
 2992TIP3   OH2 8981   2.467   2.830   1.323
 2992TIP3    H1 8982   2.562   2.838   1.327
 2992TIP3    H2 8983   2.436   2.920   1.309
 2993TIP3   OH2 8984   0.151   4.889   3.885
 2993TIP3    H1 8985   0.128   4.951   3.815
 2993TIP3    H2 8986   0.186   4.813   3.839
 2994TIP3   OH2 8987   2.400   1.883   5.081
 2994TIP3    H1 8988   2.400   1.970   5.041
 2994TIP3    H2 8989   2.310   1.871   5.112
 2995TIP3   OH2 8990   1.351   0.390   2.974
 2995TIP3    H1 8991   1.378   0.447   3.046
 2995TIP3    H2 8992   1.421   0.324   2.969
 2996TIP3   OH2 8993   2.871   3.523   4.997
 2996TIP3    H1 8994   2.938   3.456   4.988
 2996TIP3    H2 8995   2.920   3.604   5.009
 2997TIP3   OH2 8996   1.997   1.377   2.799
 2997TIP3    H1 8997   2.010   1.449   2.861
 2997TIP3    H2 8998   2.042   1.303   2.839
 2998TIP3   OH2 8999   0.955   4.057   0.482
 2998TIP3    H1 9000   0.916   4.027   0.400
 2998TIP3    H2 9001   0.882   4.059   0.544
 2999TIP3   OH2 9002   2.590   3.111   5.108
 2999TIP3    H1 9003   2.677   3.150   5.109
 2999TIP3    H2 9004   2.588   3.056   5.187
 3000TIP3   OH2 9005   3.778   1.951   1.757
 3000TIP3    H1 9006   3.830   1.870   1.760
 3000TIP3    H2 9007   3.838   2.019   1.787
 3001TIP3   OH2 9008   3.513   0.575   4.346
 3001TIP3    H1 9009   3.591   0.567   4.400
 3001TIP3    H2 9010   3.459   0.500   4.370
 3002TIP3   OH2 9011   2.073   3.230   2.615
 3002TIP3    H1 9012   2.006   3.165   2.635
 3002TIP3    H2 9013   2.156   3.185   2.628
 3003TIP3   OH2 9014   0.839   2.907   4.920
 3003TIP3    H1 9015   0.878   2.878   5.003
 3003TIP3    H2 9016   0.898   2.872   4.853
 3004TIP3   OH2 9017   4.665   2.321   0.439
 3004TIP3    H1 9018   4.612   2.270   0.377
 3004TIP3    H2 9019   4.680   2.261   0.512
 3005TIP3   OH2 9020   0.993   3.545   0.366
 3005TIP3    H1 9021   1.015   3.561   0.458
 3005TIP3    H2 9022   0.921   3.605   0.348
 3006TIP3   OH2 9023   6.051   5.459   4.023
 3006TIP3    H1 9024   5.985   5.441   3.956
 3006TIP3    H2 9025   6.124   5.402   4.000
 3007TIP3   OH2 9026   4.754   5.325   5.077
 3007TIP3    H1 9027   4.721   5.324   4.987
 3007TIP3    H2 9028   4.676   5.329   5.132
 3008TIP3   OH2 9029   3.398   5.068   3.906
 3008TIP3    H1 9030   3.466   5.013   3.944
 3008TIP3    H2 9031   3.434   5.157   3.909
 3009TIP3   OH2 9032   4.004   5.242   1.546
 3009TIP3    H1 9033   4.035   5.257   1.456
 3009TIP3    H2 9034   3.913   5.270   1.544
 3010TIP3   OH2 9035   4.388   4.568   3.379
 3010TIP3    H1 9036   4.407   4.475   3.390
 3010TIP3    H2 9037   4.305   4.570   3.332
 3011TIP3   OH2 9038   0.177   1.796   0.523
 3011TIP3    H1 9039   0.266   1.784   0.556
 3011TIP3    H2 9040   0.123   1.805   0.602
 3012TIP3   OH2 9041   3.749   2.280   4.763
 3012TIP3    H1 9042   3.807   2.246   4.831
 3012TIP3    H2 9043   3.802   2.344   4.715
 3013TIP3   OH2 9044   1.040   5.626   2.097
 3013TIP3    H1 9045   0.947   5.620   2.075
 3013TIP3    H2 9046   1.086   5.600   2.017
 3014TIP3   OH2 9047   1.271   4.023   3.225
 3014TIP3    H1 9048   1.282   4.010   3.131
 3014TIP3    H2 9049   1.223   4.105   3.233
 3015TIP3   OH2 9050   2.590   1.109   1.479
 3015TIP3    H1 9051   2.653   1.037   1.486
 3015TIP3    H2 9052   2.517   1.082   1.535
 3016TIP3   OH2 9053   0.093   5.685   1.247
 3016TIP3    H1 9054   0.128   5.714   1.331
 3016TIP3    H2 9055   0.165   5.698   1.185
 3017TIP3   OH2 9056   3.515   0.689   3.747
 3017TIP3    H1 9057   3.548   0.671   3.659
 3017TIP3    H2 9058   3.466   0.771   3.738
 3018TIP3   OH2 9059   5.961   2.066   4.640
 3018TIP3    H1 9060   6.000   2.095   4.557
 3018TIP3    H2 9061   5.882   2.120   4.649
 3019TIP3   OH2 9062   0.060   5.907   0.908
 3019TIP3    H1 9063   0.030   5.945   0.826
 3019TIP3    H2 9064   0.015   5.822   0.913
 3020TIP3   OH2 9065   4.199   5.699   4.272
 3020TIP3    H1 9066   4.136   5.756   4.227
 3020TIP3    H2 9067   4.155   5.673   4.353
 3021TIP3   OH2 9068   1.725   1.041   1.837
 3021TIP3    H1 9069   1.662   1.094   1.885
 3021TIP3    H2 9070   1.677   0.962   1.813
 3022TIP3   OH2 9071   3.664   4.816   0.276
 3022TIP3    H1 9072   3.702   4.874   0.341
 3022TIP3    H2 9073   3.606   4.872   0.224
 3023TIP3   OH2 9074   0.264   1.419   0.186
 3023TIP3    H1 9075   0.307   1.427   0.271
 3023TIP3    H2 9076   0.193   1.357   0.200
 3024TIP3   OH2 9077   2.542   0.828   4.457
 3024TIP3    H1 9078   2.636   0.813   4.466
 3024TIP3    H2 9079   2.503   0.741   4.463
 3025TIP3   OH2 9080   0.195   0.629   1.043
 3025TIP3    H1 9081   0.211   0.641   1.137
 3025TIP3    H2 9082   0.148   0.708   1.017
 3026TIP3   OH2 9083   3.343   2.733   4.212
 3026TIP3    H1 9084   3.397   2.713   4.135
 3026TIP3    H2 9085   3.406   2.741   4.284
 3027TIP3   OH2 9086   3.056   1.245   1.431
 3027TIP3    H1 9087   3.137   1.293   1.411
 3027TIP3    H2 9088   2.986   1.300   1.395
 3028TIP3   OH2 9089   4.764   2.198   4.723
 3028TIP3    H1 9090   4.781   2.107   4.746
 3028TIP3    H2 9091   4.713   2.233   4.796
 3029TIP3   OH2 9092   0.740   2.263   3.773
 3029TIP3    H1 9093   0.752   2.174   3.805
 3029TIP3    H2 9094   0.781   2.263   3.686
 3030TIP3   OH2 9095   0.873   2.289   2.752
 3030TIP3    H1 9096   0.868   2.376   2.791
 3030TIP3    H2 9097   0.842   2.301   2.662
 3031TIP3   OH2 9098   3.439   3.956   4.101
 3031TIP3    H1 9099   3.469   3.992   4.018
 3031TIP3    H2 9100   3.510   3.973   4.162
 3032TIP3   OH2 9101   3.935   0.587   5.101
 3032TIP3    H1 9102   3.966   0.498   5.089
 3032TIP3    H2 9103   3.873   0.581   5.174
 3033TIP3   OH2 9104   0.314   4.741   1.204
 3033TIP3    H1 9105   0.238   4.701   1.160
 3033TIP3    H2 9106   0.385   4.732   1.140
 3034TIP3   OH2 9107   4.800   5.512   3.302
 3034TIP3    H1 9108   4.773   5.604   3.297
 3034TIP3    H2 9109   4.894   5.515   3.321
 3035TIP3   OH2 9110   2.800   4.474   4.068
 3035TIP3    H1 9111   2.755   4.415   4.009
 3035TIP3    H2 9112   2.833   4.544   4.012
 3036TIP3   OH2 9113   2.244   0.421   1.132
 3036TIP3    H1 9114   2.233   0.333   1.097
 3036TIP3    H2 9115   2.224   0.413   1.225
 3037TIP3   OH2 9116   1.589   1.664   0.134
 3037TIP3    H1 9117   1.677   1.684   0.101
 3037TIP3    H2 9118   1.559   1.746   0.174
 3038TIP3   OH2 9119   3.522   4.413   1.762
 3038TIP3    H1 9120   3.559   4.357   1.693
 3038TIP3    H2 9121   3.529   4.360   1.842
 3039TIP3   OH2 9122   4.968   0.702   3.844
 3039TIP3    H1 9123   5.048   0.650   3.836
 3039TIP3    H2 9124   4.965   0.725   3.937
 3040TIP3   OH2 9125   0.170   1.004   3.122
 3040TIP3    H1 9126   0.116   1.034   3.196
 3040TIP3    H2 9127   0.259   0.998   3.159
 3041TIP3   OH2 9128   5.691   0.680   0.645
 3041TIP3    H1 9129   5.726   0.714   0.727
 3041TIP3    H2 9130   5.602   0.715   0.640
 3042TIP3   OH2 9131   1.676   4.558   1.542
 3042TIP3    H1 9132   1.734   4.562   1.618
 3042TIP3    H2 9133   1.714   4.491   1.485
 3043TIP3   OH2 9134   6.112   5.909   2.650
 3043TIP3    H1 9135   6.134   6.002   2.652
 3043TIP3    H2 9136   6.017   5.906   2.652
 3044TIP3   OH2 9137   2.677   2.934   1.479
 3044TIP3    H1 9138   2.698   2.889   1.561
 3044TIP3    H2 9139   2.590   2.971   1.493
 3045TIP3   OH2 9140   2.563   2.761   4.233
 3045TIP3    H1 9141   2.603   2.817   4.299
 3045TIP3    H2 9142   2.561   2.674   4.272
 3046TIP3   OH2 9143   4.402   1.364   1.293
 3046TIP3    H1 9144   4.373   1.356   1.202
 3046TIP3    H2 9145   4.438   1.277   1.314
 3047TIP3   OH2 9146   3.953   2.723   3.297
 3047TIP3    H1 9147   4.021   2.657   3.296
 3047TIP3    H2 9148   3.871   2.674   3.307
 3048TIP3   OH2 9149   0.866   5.012   2.201
 3048TIP3    H1 9150   0.916   4.932   2.214
 3048TIP3    H2 9151   0.804   4.990   2.131
 3049TIP3   OH2 9152   5.309   5.628   1.630
 3049TIP3    H1 9153   5.328   5.536   1.648
 3049TIP3    H2 9154   5.222   5.627   1.591
 3050TIP3   OH2 9155   0.959   0.698   2.432
 3050TIP3    H1 9156   0.991   0.678   2.344
 3050TIP3    H2 9157   0.973   0.792   2.443
 3051TIP3   OH2 9158   3.528   1.544   3.752
 3051TIP3    H1 9159   3.518   1.626   3.801
 3051TIP3    H2 9160   3.448   1.539   3.699
 3052TIP3   OH2 9161   2.082   0.042   0.671
 3052TIP3    H1 9162   2.035  -0.022   0.617
 3052TIP3    H2 9163   2.113   0.108   0.608
 3053TIP3   OH2 9164   4.022   1.312   1.974
 3053TIP3    H1 9165   3.986   1.321   1.886
 3053TIP3    H2 9166   3.968   1.245   2.015
 3054TIP3   OH2 9167   3.284   1.495   3.611
 3054TIP3    H1 9168   3.306   1.407   3.579
 3054TIP3    H2 9169   3.232   1.479   3.689
 3055TIP3   OH2 9170   5.251   1.545   0.840
 3055TIP3    H1 9171   5.345   1.534   0.856
 3055TIP3    H2 9172   5.210   1.513   0.921
 3056TIP3   OH2 9173   2.143   2.699   3.170
 3056TIP3    H1 9174   2.066   2.651   3.201
 3056TIP3    H2 9175   2.182   2.736   3.249
 3057TIP3   OH2 9176   1.797   2.228   4.821
 3057TIP3    H1 9177   1.889   2.243   4.842
 3057TIP3    H2 9178   1.752   2.230   4.906
 3058TIP3   OH2 9179   2.703   1.163   4.740
 3058TIP3    H1 9180   2.775   1.109   4.707
 3058TIP3    H2 9181   2.729   1.187   4.829
 3059TIP3   OH2 9182   4.960   4.653   2.686
 3059TIP3    H1 9183   4.917   4.691   2.609
 3059TIP3    H2 9184   5.033   4.712   2.704
 3060TIP3   OH2 9185   1.903   2.149   1.513
 3060TIP3    H1 9186   1.912   2.057   1.540
 3060TIP3    H2 9187   1.808   2.163   1.508
 3061TIP3   OH2 9188   0.379   1.839   1.390
 3061TIP3    H1 9189   0.324   1.848   1.312
 3061TIP3    H2 9190   0.317   1.827   1.462
 3062TIP3   OH2 9191   5.502   1.508   1.328
 3062TIP3    H1 9192   5.484   1.458   1.248
 3062TIP3    H2 9193   5.428   1.488   1.385
 3063TIP3   OH2 9194   1.396   0.821   2.399
 3063TIP3    H1 9195   1.327   0.799   2.462
 3063TIP3    H2 9196   1.456   0.878   2.447
 3064TIP3   OH2 9197   4.906   0.824   5.126
 3064TIP3    H1 9198   4.864   0.756   5.178
 3064TIP3    H2 9199   4.970   0.863   5.185
 3065TIP3   OH2 9200   5.974   2.625   3.439
 3065TIP3    H1 9201   6.013   2.578   3.366
 3065TIP3    H2 9202   6.011   2.583   3.517
 3066TIP3   OH2 9203   1.601   5.887   0.016
 3066TIP3    H1 9204   1.667   5.819   0.003
 3066TIP3    H2 9205   1.517   5.840   0.012
 3067TIP3   OH2 9206   4.966   3.152   2.654
 3067TIP3    H1 9207   4.884   3.198   2.639
 3067TIP3    H2 9208   4.961   3.123   2.745
 3068TIP3   OH2 9209   3.072   1.539   3.778
 3068TIP3    H1 9210   3.024   1.619   3.758
 3068TIP3    H2 9211   3.003   1.472   3.784
 3069TIP3   OH2 9212   4.135   4.989   1.318
 3069TIP3    H1 9213   4.120   5.083   1.329
 3069TIP3    H2 9214   4.228   4.977   1.336
 3070TIP3   OH2 9215   3.279   4.176   0.351
 3070TIP3    H1 9216   3.229   4.099   0.379
 3070TIP3    H2 9217   3.224   4.216   0.283
 3071TIP3   OH2 9218   4.546   5.130   3.182
 3071TIP3    H1 9219   4.458   5.154   3.153
 3071TIP3    H2 9220   4.535   5.044   3.222
 3072TIP3   OH2 9221   0.680   2.778   4.269
 3072TIP3    H1 9222   0.709   2.791   4.359
 3072TIP3    H2 9223   0.752   2.730   4.227
 3073TIP3   OH2 9224   4.925   0.716   0.049
 3073TIP3    H1 9225   5.011   0.739   0.085
 3073TIP3    H2 9226   4.866   0.720   0.124
 3074TIP3   OH2 9227   1.837   0.055   1.974
 3074TIP3    H1 9228   1.896   0.108   1.919
 3074TIP3    H2 9229   1.870   0.066   2.063
 3075TIP3   OH2 9230   2.177   2.822   0.289
 3075TIP3    H1 9231   2.098   2.784   0.328
 3075TIP3    H2 9232   2.205   2.889   0.351
 3076TIP3   OH2 9233   4.570   2.752   0.324
 3076TIP3    H1 9234   4.603   2.692   0.257
 3076TIP3    H2 9235   4.517   2.696   0.381
 3077TIP3   OH2 9236   3.666   3.637   2.526
 3077TIP3    H1 9237   3.708   3.584   2.593
 3077TIP3    H2 9238   3.643   3.575   2.457
 3078TIP3   OH2 9239   1.480   5.824   1.396
 3078TIP3    H1 9240   1.403   5.864   1.437
 3078TIP3    H2 9241   1.476   5.732   1.423
 3079TIP3   OH2 9242   2.693   1.941   1.366
 3079TIP3    H1 9243   2.669   1.863   1.416
 3079TIP3    H2 9244   2.761   1.911   1.306
 3080TIP3   OH2 9245   3.704   4.913   3.196
 3080TIP3    H1 9246   3.777   4.852   3.204
 3080TIP3    H2 9247   3.687   4.942   3.285
 3081TIP3   OH2 9248   3.396   1.133   3.331
 3081TIP3    H1 9249   3.419   1.166   3.244
 3081TIP3    H2 9250   3.471   1.079   3.357
 3082TIP3   OH2 9251   5.412   3.151   2.830
 3082TIP3    H1 9252   5.410   3.186   2.741
 3082TIP3    H2 9253   5.445   3.224   2.883
 3083TIP3   OH2 9254   0.774   3.649   3.918
 3083TIP3    H1 9255   0.858   3.654   3.872
 3083TIP3    H2 9256   0.767   3.732   3.965
 3084TIP3   OH2 9257   5.471   0.916   1.544
 3084TIP3    H1 9258   5.444   1.007   1.559
 3084TIP3    H2 9259   5.564   0.923   1.520
 3085TIP3   OH2 9260   5.490   4.739   0.570
 3085TIP3    H1 9261   5.541   4.709   0.494
 3085TIP3    H2 9262   5.425   4.670   0.583
 3086TIP3   OH2 9263   1.226   5.657   2.855
 3086TIP3    H1 9264   1.302   5.605   2.828
 3086TIP3    H2 9265   1.181   5.602   2.919
 3087TIP3   OH2 9266   1.598   5.212   2.530
 3087TIP3    H1 9267   1.565   5.146   2.469
 3087TIP3    H2 9268   1.523   5.235   2.584
 3088TIP3   OH2 9269   1.959   0.040   2.939
 3088TIP3    H1 9270   1.876   0.005   2.970
 3088TIP3    H2 9271   1.958   0.132   2.967
 3089TIP3   OH2 9272   2.549   2.304   2.165
 3089TIP3    H1 9273   2.480   2.239   2.153
 3089TIP3    H2 9274   2.537   2.365   2.093
 3090TIP3   OH2 9275  -0.016   1.752   4.803
 3090TIP3    H1 9276   0.021   1.835   4.835
 3090TIP3    H2 9277   0.060   1.702   4.773
 3091TIP3   OH2 9278   4.336   1.944   4.137
 3091TIP3    H1 9279   4.415   1.922   4.088
 3091TIP3    H2 9280   4.275   1.872   4.117
 3092TIP3   OH2 9281   0.220   5.272   3.843
 3092TIP3    H1 9282   0.159   5.216   3.795
 3092TIP3    H2 9283   0.196   5.361   3.816
 3093TIP3   OH2 9284   4.215   5.577   2.311
 3093TIP3    H1 9285   4.224   5.485   2.337
 3093TIP3    H2 9286   4.139   5.609   2.360
 3094TIP3   OH2 9287   0.721   2.249   0.340
 3094TIP3    H1 9288   0.761   2.335   0.349
 3094TIP3    H2 9289   0.676   2.234   0.423
 3095TIP3   OH2 9290   5.380   1.349   4.842
 3095TIP3    H1 9291   5.333   1.274   4.878
 3095TIP3    H2 9292   5.398   1.405   4.918
 3096TIP3   OH2 9293   0.045   4.787   2.164
 3096TIP3    H1 9294   0.106   4.779   2.238
 3096TIP3    H2 9295   0.100   4.772   2.087
 3097TIP3   OH2 9296   5.835   2.104   4.049
 3097TIP3    H1 9297   5.795   2.096   4.136
 3097TIP3    H2 9298   5.904   2.038   4.049
 3098TIP3   OH2 9299   5.043   5.749   3.546
 3098TIP3    H1 9300   5.065   5.831   3.502
 3098TIP3    H2 9301   5.127   5.717   3.579
 3099TIP3   OH2 9302   1.579   3.783   4.037
 3099TIP3    H1 9303   1.526   3.858   4.063
 3099TIP3    H2 9304   1.583   3.729   4.115
 3100TIP3   OH2 9305   3.783   1.760  -0.011
 3100TIP3    H1 9306   3.720   1.823  -0.046
 3100TIP3    H2 9307   3.804   1.793   0.076
 3101TIP3   OH2 9308   0.227   0.535   2.434
 3101TIP3    H1 9309   0.292   0.596   2.468
 3101TIP3    H2 9310   0.268   0.499   2.354
 3102TIP3   OH2 9311   1.569   0.858   0.957
 3102TIP3    H1 9312   1.544   0.947   0.982
 3102TIP3    H2 9313   1.612   0.868   0.872
 3103TIP3   OH2 9314   0.665   3.562   0.639
 3103TIP3    H1 9315   0.576   3.596   0.633
 3103TIP3    H2 9316   0.669   3.519   0.725
 3104TIP3   OH2 9317   3.479   1.383   0.324
 3104TIP3    H1 9318   3.541   1.326   0.369
 3104TIP3    H2 9319   3.393   1.346   0.343
 3105TIP3   OH2 9320   2.636   3.305   0.214
 3105TIP3    H1 9321   2.640   3.353   0.297
 3105TIP3    H2 9322   2.546   3.317   0.184
 3106TIP3   OH2 9323   5.428   3.646   4.404
 3106TIP3    H1 9324   5.385   3.561   4.390
 3106TIP3    H2 9325   5.516   3.634   4.370
 3107TIP3   OH2 9326   1.816   1.054   2.218
 3107TIP3    H1 9327   1.734   1.100   2.237
 3107TIP3    H2 9328   1.803   0.967   2.255
 3108TIP3   OH2 9329   0.739   3.715   2.130
 3108TIP3    H1 9330   0.690   3.711   2.047
 3108TIP3    H2 9331   0.816   3.661   2.114
 3109TIP3   OH2 9332   1.753   5.920   1.867
 3109TIP3    H1 9333   1.833   5.940   1.818
 3109TIP3    H2 9334   1.688   5.897   1.801
 3110TIP3   OH2 9335   0.776   5.600   1.403
 3110TIP3    H1 9336   0.685   5.612   1.432
 3110TIP3    H2 9337   0.790   5.506   1.408
 3111TIP3   OH2 9338   4.712   0.717   3.756
 3111TIP3    H1 9339   4.802   0.691   3.774
 3111TIP3    H2 9340   4.702   0.707   3.662
 3112TIP3   OH2 9341   1.864   2.001   0.577
 3112TIP3    H1 9342   1.957   2.023   0.575
 3112TIP3    H2 9343   1.858   1.930   0.641
 3113TIP3   OH2 9344   0.258   1.965   2.622
 3113TIP3    H1 9345   0.231   2.057   2.626
 3113TIP3    H2 9346   0.180   1.919   2.591
 3114TIP3   OH2 9347   0.297   5.879   3.873
 3114TIP3    H1 9348   0.279   5.929   3.794
 3114TIP3    H2 9349   0.390   5.893   3.890
 3115TIP3   OH2 9350   0.004   2.203   4.313
 3115TIP3    H1 9351   0.095   2.179   4.334
 3115TIP3    H2 9352  -0.009   2.287   4.357
 3116TIP3   OH2 9353  -0.002   0.143   1.262
 3116TIP3    H1 9354   0.008   0.060   1.309
 3116TIP3    H2 9355   0.019   0.210   1.327
 3117TIP3   OH2 9356   5.263   2.001   1.054
 3117TIP3    H1 9357   5.351   2.038   1.048
 3117TIP3    H2 9358   5.206   2.078   1.064
 3118TIP3   OH2 9359   4.647   4.883   1.764
 3118TIP3    H1 9360   4.596   4.960   1.740
 3118TIP3    H2 9361   4.604   4.810   1.719
 3119TIP3   OH2 9362   2.864   3.780   1.975
 3119TIP3    H1 9363   2.870   3.701   2.029
 3119TIP3    H2 9364   2.936   3.835   2.005
 3120TIP3   OH2 9365   2.730   0.077   4.533
 3120TIP3    H1 9366   2.791   0.004   4.523
 3120TIP3    H2 9367   2.760   0.122   4.612
 3121TIP3   OH2 9368   4.128   4.275   1.775
 3121TIP3    H1 9369   4.210   4.317   1.800
 3121TIP3    H2 9370   4.103   4.317   1.693
 3122TIP3   OH2 9371   3.047   2.542   2.541
 3122TIP3    H1 9372   3.065   2.475   2.607
 3122TIP3    H2 9373   3.034   2.622   2.592
 3123TIP3   OH2 9374   0.207   2.710   1.796
 3123TIP3    H1 9375   0.285   2.746   1.838
 3123TIP3    H2 9376   0.139   2.713   1.863
 3124TIP3   OH2 9377   0.055   2.448   2.750
 3124TIP3    H1 9378   0.022   2.463   2.838
 3124TIP3    H2 9379   0.021   2.521   2.699
 3125TIP3   OH2 9380   5.098   3.504   1.879
 3125TIP3    H1 9381   5.007   3.488   1.904
 3125TIP3    H2 9382   5.103   3.471   1.789
 3126TIP3   OH2 9383   5.705   1.983   1.449
 3126TIP3    H1 9384   5.712   1.894   1.416
 3126TIP3    H2 9385   5.644   1.978   1.522
 3127TIP3   OH2 9386   5.474   3.392   1.550
 3127TIP3    H1 9387   5.407   3.459   1.535
 3127TIP3    H2 9388   5.556   3.431   1.520
 3128TIP3   OH2 9389   0.241   4.630   1.652
 3128TIP3    H1 9390   0.205   4.673   1.730
 3128TIP3    H2 9391   0.279   4.549   1.685
 3129TIP3   OH2 9392   2.495   0.466   1.000
 3129TIP3    H1 9393   2.546   0.434   1.074
 3129TIP3    H2 9394   2.409   0.424   1.011
 3130TIP3   OH2 9395   6.002   5.122   2.287
 3130TIP3    H1 9396   6.073   5.061   2.266
 3130TIP3    H2 9397   6.005   5.187   2.217
 3131TIP3   OH2 9398   2.032   0.616   4.099
 3131TIP3    H1 9399   2.051   0.522   4.101
 3131TIP3    H2 9400   1.952   0.623   4.046
 3132TIP3   OH2 9401   4.452   5.659   3.787
 3132TIP3    H1 9402   4.383   5.615   3.837
 3132TIP3    H2 9403   4.507   5.700   3.853
 3133TIP3   OH2 9404   0.779   1.346   4.735
 3133TIP3    H1 9405   0.851   1.293   4.768
 3133TIP3    H2 9406   0.755   1.304   4.652
 3134TIP3   OH2 9407   4.271   1.786   2.182
 3134TIP3    H1 9408   4.310   1.851   2.239
 3134TIP3    H2 9409   4.289   1.818   2.093
 3135TIP3   OH2 9410   6.256   1.691   1.536
 3135TIP3    H1 9411   6.306   1.698   1.617
 3135TIP3    H2 9412   6.321   1.669   1.470
 3136TIP3   OH2 9413   3.989   4.383   1.136
 3136TIP3    H1 9414   4.072   4.392   1.090
 3136TIP3    H2 9415   4.013   4.369   1.228
 3137TIP3   OH2 9416   1.382   2.890   2.859
 3137TIP3    H1 9417   1.298   2.845   2.850
 3137TIP3    H2 9418   1.427   2.843   2.929
 3138TIP3   OH2 9419   2.628   2.037   4.740
 3138TIP3    H1 9420   2.598   1.956   4.780
 3138TIP3    H2 9421   2.567   2.053   4.668
 3139TIP3   OH2 9422   5.114   5.450   0.301
 3139TIP3    H1 9423   5.101   5.369   0.252
 3139TIP3    H2 9424   5.162   5.423   0.380
 3140TIP3   OH2 9425   2.074   0.395   0.247
 3140TIP3    H1 9426   1.984   0.398   0.214
 3140TIP3    H2 9427   2.082   0.473   0.302
 3141TIP3   OH2 9428   1.602   3.248   3.152
 3141TIP3    H1 9429   1.639   3.254   3.064
 3141TIP3    H2 9430   1.515   3.211   3.138
 3142TIP3   OH2 9431   5.327   5.935   3.788
 3142TIP3    H1 9432   5.239   5.918   3.823
 3142TIP3    H2 9433   5.386   5.890   3.848
 3143TIP3   OH2 9434   5.743   1.784   1.185
 3143TIP3    H1 9435   5.654   1.774   1.150
 3143TIP3    H2 9436   5.744   1.729   1.263
 3144TIP3   OH2 9437   0.018   3.993   4.009
 3144TIP3    H1 9438   0.107   3.958   4.013
 3144TIP3    H2 9439  -0.031   3.928   3.957
 3145TIP3   OH2 9440   1.513   5.285   3.337
 3145TIP3    H1 9441   1.608   5.291   3.326
 3145TIP3    H2 9442   1.478   5.354   3.280
 3146TIP3   OH2 9443   3.216   3.426   4.449
 3146TIP3    H1 9444   3.132   3.380   4.451
 3146TIP3    H2 9445   3.249   3.412   4.360
 3147TIP3   OH2 9446   1.477   3.844   4.391
 3147TIP3    H1 9447   1.560   3.892   4.383
 3147TIP3    H2 9448   1.446   3.865   4.479
 3148TIP3   OH2 9449   3.158   2.171   0.739
 3148TIP3    H1 9450   3.245   2.211   0.737
 3148TIP3    H2 9451   3.143   2.152   0.832
 3149TIP3   OH2 9452   6.155   3.232   1.864
 3149TIP3    H1 9453   6.207   3.213   1.942
 3149TIP3    H2 9454   6.068   3.253   1.898
 3150TIP3   OH2 9455   0.746   4.213   1.042
 3150TIP3    H1 9456   0.787   4.146   1.096
 3150TIP3    H2 9457   0.699   4.164   0.975
 3151TIP3   OH2 9458   2.304   1.291   3.655
 3151TIP3    H1 9459   2.234   1.356   3.663
 3151TIP3    H2 9460   2.377   1.329   3.704
 3152TIP3   OH2 9461   5.750   4.371   1.236
 3152TIP3    H1 9462   5.811   4.443   1.252
 3152TIP3    H2 9463   5.805   4.300   1.204
 3153TIP3   OH2 9464   5.855   5.894   2.729
 3153TIP3    H1 9465   5.767   5.927   2.709
 3153TIP3    H2 9466   5.843   5.800   2.742
 3154TIP3   OH2 9467   0.392   2.850   3.141
 3154TIP3    H1 9468   0.425   2.938   3.159
 3154TIP3    H2 9469   0.323   2.837   3.207
 3155TIP3   OH2 9470   5.104   2.652   2.457
 3155TIP3    H1 9471   5.162   2.700   2.397
 3155TIP3    H2 9472   5.155   2.576   2.484
 3156TIP3   OH2 9473   5.802   2.362   2.673
 3156TIP3    H1 9474   5.881   2.353   2.726
 3156TIP3    H2 9475   5.834   2.376   2.584
 3157TIP3   OH2 9476   2.306   1.016   4.572
 3157TIP3    H1 9477   2.402   1.008   4.568
 3157TIP3    H2 9478   2.290   1.084   4.636
 3158TIP3   OH2 9479   1.540   1.116   1.077
 3158TIP3    H1 9480   1.578   1.157   1.000
 3158TIP3    H2 9481   1.594   1.146   1.150
 3159TIP3   OH2 9482   6.276   2.669   3.843
 3159TIP3    H1 9483   6.211   2.599   3.850
 3159TIP3    H2 9484   6.339   2.637   3.780
 3160TIP3   OH2 9485   2.267   1.287   4.667
 3160TIP3    H1 9486   2.204   1.327   4.608
 3160TIP3    H2 9487   2.273   1.348   4.741
 3161TIP3   OH2 9488   4.929   4.615   3.368
 3161TIP3    H1 9489   4.836   4.595   3.378
 3161TIP3    H2 9490   4.961   4.627   3.457
 3162TIP3   OH2 9491   4.258   0.142   3.123
 3162TIP3    H1 9492   4.278   0.106   3.209
 3162TIP3    H2 9493   4.339   0.184   3.094
 3163TIP3   OH2 9494   4.736   1.460   2.483
 3163TIP3    H1 9495   4.731   1.395   2.553
 3163TIP3    H2 9496   4.650   1.457   2.442
 3164TIP3   OH2 9497   4.266   1.111   3.662
 3164TIP3    H1 9498   4.351   1.146   3.637
 3164TIP3    H2 9499   4.234   1.173   3.729
 3165TIP3   OH2 9500   1.238   0.184   2.020
 3165TIP3    H1 9501   1.162   0.219   2.067
 3165TIP3    H2 9502   1.201   0.151   1.938
 3166TIP3   OH2 9503   6.058   2.867   0.798
 3166TIP3    H1 9504   6.032   2.951   0.836
 3166TIP3    H2 9505   6.026   2.801   0.859
 3167TIP3   OH2 9506   4.159   1.720   3.485
 3167TIP3    H1 9507   4.206   1.801   3.470
 3167TIP3    H2 9508   4.069   1.739   3.459
 3168TIP3   OH2 9509   4.798   2.022   0.275
 3168TIP3    H1 9510   4.842   2.078   0.211
 3168TIP3    H2 9511   4.854   1.944   0.282
 3169TIP3   OH2 9512   2.129   0.448   2.500
 3169TIP3    H1 9513   2.204   0.408   2.456
 3169TIP3    H2 9514   2.164   0.527   2.541
 3170TIP3   OH2 9515   3.698   5.314   3.776
 3170TIP3    H1 9516   3.706   5.407   3.796
 3170TIP3    H2 9517   3.784   5.290   3.740
 3171TIP3   OH2 9518   0.520   5.470   3.197
 3171TIP3    H1 9519   0.513   5.427   3.111
 3171TIP3    H2 9520   0.498   5.562   3.179
 3172TIP3   OH2 9521   5.289   0.611   2.214
 3172TIP3    H1 9522   5.321   0.538   2.160
 3172TIP3    H2 9523   5.205   0.579   2.249
 3173TIP3   OH2 9524   1.155   2.575   0.190
 3173TIP3    H1 9525   1.155   2.539   0.278
 3173TIP3    H2 9526   1.114   2.507   0.136
 3174TIP3   OH2 9527   1.243   0.738   2.620
 3174TIP3    H1 9528   1.258   0.732   2.714
 3174TIP3    H2 9529   1.161   0.690   2.606
 3175TIP3   OH2 9530   0.815   1.242   5.097
 3175TIP3    H1 9531   0.877   1.241   5.024
 3175TIP3    H2 9532   0.867   1.266   5.173
 3176TIP3   OH2 9533   4.591   1.889   4.016
 3176TIP3    H1 9534   4.676   1.911   3.978
 3176TIP3    H2 9535   4.537   1.862   3.942
 3177TIP3   OH2 9536   1.947   4.420   0.541
 3177TIP3    H1 9537   1.860   4.403   0.504
 3177TIP3    H2 9538   1.978   4.498   0.496
 3178TIP3   OH2 9539   1.477   0.570   3.545
 3178TIP3    H1 9540   1.565   0.606   3.558
 3178TIP3    H2 9541   1.491   0.476   3.533
 3179TIP3   OH2 9542   6.165   0.938   0.831
 3179TIP3    H1 9543   6.157   0.898   0.917
 3179TIP3    H2 9544   6.167   0.864   0.770
 3180TIP3   OH2 9545   4.682   4.860   1.077
 3180TIP3    H1 9546   4.724   4.918   1.014
 3180TIP3    H2 9547   4.591   4.891   1.082
 3181TIP3   OH2 9548   0.852   0.970   1.007
 3181TIP3    H1 9549   0.887   0.955   1.095
 3181TIP3    H2 9550   0.866   0.886   0.961
 3182TIP3   OH2 9551   0.233   3.382   3.678
 3182TIP3    H1 9552   0.308   3.377   3.618
 3182TIP3    H2 9553   0.257   3.325   3.751
 3183TIP3   OH2 9554   0.301   3.509   1.352
 3183TIP3    H1 9555   0.329   3.595   1.320
 3183TIP3    H2 9556   0.345   3.446   1.294
 3184TIP3   OH2 9557   2.253   3.064   0.734
 3184TIP3    H1 9558   2.172   3.038   0.779
 3184TIP3    H2 9559   2.226   3.082   0.644
 3185TIP3   OH2 9560   1.440   0.275   3.228
 3185TIP3    H1 9561   1.408   0.194   3.189
 3185TIP3    H2 9562   1.526   0.289   3.188
 3186TIP3   OH2 9563   3.754   2.626   4.856
 3186TIP3    H1 9564   3.813   2.581   4.796
 3186TIP3    H2 9565   3.704   2.555   4.898
 3187TIP3   OH2 9566   5.082   4.824   4.931
 3187TIP3    H1 9567   5.142   4.859   4.865
 3187TIP3    H2 9568   5.023   4.897   4.950
 3188TIP3   OH2 9569   6.010   3.195   0.230
 3188TIP3    H1 9570   5.953   3.241   0.169
 3188TIP3    H2 9571   6.089   3.249   0.234
 3189TIP3   OH2 9572   1.211   0.754   0.208
 3189TIP3    H1 9573   1.240   0.792   0.291
 3189TIP3    H2 9574   1.202   0.829   0.149
 3190TIP3   OH2 9575   5.283   0.364   4.509
 3190TIP3    H1 9576   5.209   0.396   4.560
 3190TIP3    H2 9577   5.356   0.420   4.536
 3191TIP3   OH2 9578   3.952   5.827   0.537
 3191TIP3    H1 9579   4.034   5.800   0.577
 3191TIP3    H2 9580   3.965   5.812   0.443
 3192TIP3   OH2 9581   5.557   0.590   3.638
 3192TIP3    H1 9582   5.636   0.538   3.648
 3192TIP3    H2 9583   5.539   0.625   3.725
 3193TIP3   OH2 9584   3.259   2.996   4.455
 3193TIP3    H1 9585   3.179   3.003   4.508
 3193TIP3    H2 9586   3.228   3.001   4.365
 3194TIP3   OH2 9587   2.257   0.168   3.108
 3194TIP3    H1 9588   2.193   0.113   3.062
 3194TIP3    H2 9589   2.324   0.186   3.043
 3195TIP3   OH2 9590   1.045   4.464   1.768
 3195TIP3    H1 9591   0.982   4.393   1.755
 3195TIP3    H2 9592   1.048   4.510   1.683
 3196TIP3   OH2 9593   4.617   4.351   4.621
 3196TIP3    H1 9594   4.563   4.422   4.656
 3196TIP3    H2 9595   4.556   4.297   4.570
 3197TIP3   OH2 9596   1.338   2.774   0.401
 3197TIP3    H1 9597   1.245   2.798   0.398
 3197TIP3    H2 9598   1.376   2.820   0.326
 3198TIP3   OH2 9599   1.177   2.888   1.973
 3198TIP3    H1 9600   1.086   2.860   1.976
 3198TIP3    H2 9601   1.215   2.857   2.055
 3199TIP3   OH2 9602   4.528   5.026   3.645
 3199TIP3    H1 9603   4.538   4.945   3.594
 3199TIP3    H2 9604   4.527   4.997   3.736
 3200TIP3   OH2 9605   3.915   1.598   3.884
 3200TIP3    H1 9606   3.860   1.602   3.962
 3200TIP3    H2 9607   3.950   1.509   3.883
 3201TIP3   OH2 9608   0.335   2.130   3.673
 3201TIP3    H1 9609   0.332   2.047   3.625
 3201TIP3    H2 9610   0.342   2.103   3.765
 3202TIP3   OH2 9611   5.351   5.441   1.268
 3202TIP3    H1 9612   5.360   5.510   1.202
 3202TIP3    H2 9613   5.333   5.362   1.217
 3203TIP3   OH2 9614   5.430   0.367   1.438
 3203TIP3    H1 9615   5.397   0.457   1.442
 3203TIP3    H2 9616   5.356   0.314   1.470
 3204TIP3   OH2 9617   5.508   0.768   4.145
 3204TIP3    H1 9618   5.437   0.747   4.205
 3204TIP3    H2 9619   5.584   0.780   4.202
 3205TIP3   OH2 9620   0.381   1.614   5.028
 3205TIP3    H1 9621   0.389   1.676   5.101
 3205TIP3    H2 9622   0.468   1.575   5.020
 3206TIP3   OH2 9623   5.343   4.343   2.792
 3206TIP3    H1 9624   5.349   4.317   2.700
 3206TIP3    H2 9625   5.402   4.283   2.837
 3207TIP3   OH2 9626   4.196   3.932   2.876
 3207TIP3    H1 9627   4.177   3.884   2.796
 3207TIP3    H2 9628   4.289   3.952   2.871
 3208TIP3   OH2 9629   3.421   5.703   1.605
 3208TIP3    H1 9630   3.484   5.666   1.668
 3208TIP3    H2 9631   3.414   5.637   1.537
 3209TIP3   OH2 9632   3.873   3.822   2.401
 3209TIP3    H1 9633   3.949   3.765   2.400
 3209TIP3    H2 9634   3.805   3.770   2.445
 3210TIP3   OH2 9635   5.507   0.938   1.241
 3210TIP3    H1 9636   5.568   0.895   1.183
 3210TIP3    H2 9637   5.557   0.957   1.321
 3211TIP3   OH2 9638   3.212   2.321   4.885
 3211TIP3    H1 9639   3.216   2.412   4.857
 3211TIP3    H2 9640   3.225   2.324   4.979
 3212TIP3   OH2 9641   0.723   1.784   0.683
 3212TIP3    H1 9642   0.793   1.727   0.716
 3212TIP3    H2 9643   0.737   1.868   0.726
 3213TIP3   OH2 9644   6.178   3.829   4.778
 3213TIP3    H1 9645   6.196   3.740   4.748
 3213TIP3    H2 9646   6.209   3.885   4.707
 3214TIP3   OH2 9647   5.764   2.258   4.657
 3214TIP3    H1 9648   5.669   2.260   4.650
 3214TIP3    H2 9649   5.784   2.299   4.741
 3215TIP3   OH2 9650   3.356   2.058   4.078
 3215TIP3    H1 9651   3.430   2.029   4.131
 3215TIP3    H2 9652   3.309   2.120   4.135
 3216TIP3   OH2 9653   0.558   1.403   5.115
 3216TIP3    H1 9654   0.570   1.449   5.198
 3216TIP3    H2 9655   0.640   1.357   5.100
 3217TIP3   OH2 9656   5.973   1.350   3.824
 3217TIP3    H1 9657   5.885   1.354   3.862
 3217TIP3    H2 9658   6.030   1.390   3.890
 3218TIP3   OH2 9659   5.039   0.054   0.963
 3218TIP3    H1 9660   4.982   0.001   0.908
 3218TIP3    H2 9661   4.989   0.068   1.043
 3219TIP3   OH2 9662   1.001   1.764   4.241
 3219TIP3    H1 9663   1.049   1.750   4.323
 3219TIP3    H2 9664   1.065   1.802   4.182
 3220TIP3   OH2 9665   5.394   1.323   2.751
 3220TIP3    H1 9666   5.345   1.317   2.833
 3220TIP3    H2 9667   5.327   1.328   2.684
 3221TIP3   OH2 9668   3.436   2.443   0.181
 3221TIP3    H1 9669   3.530   2.456   0.167
 3221TIP3    H2 9670   3.424   2.459   0.275
 3222TIP3   OH2 9671   4.348   5.340   2.406
 3222TIP3    H1 9672   4.321   5.250   2.422
 3222TIP3    H2 9673   4.383   5.370   2.490
 3223TIP3   OH2 9674   1.769   0.299   2.785
 3223TIP3    H1 9675   1.773   0.261   2.697
 3223TIP3    H2 9676   1.785   0.393   2.771
 3224TIP3   OH2 9677   3.388   5.596   4.677
 3224TIP3    H1 9678   3.467   5.571   4.724
 3224TIP3    H2 9679   3.316   5.572   4.736
 3225TIP3   OH2 9680   4.021   4.442   2.238
 3225TIP3    H1 9681   3.942   4.467   2.286
 3225TIP3    H2 9682   3.992   4.374   2.177
 3226TIP3   OH2 9683   4.429   5.667   1.600
 3226TIP3    H1 9684   4.417   5.711   1.516
 3226TIP3    H2 9685   4.508   5.613   1.587
 3227TIP3   OH2 9686   3.519   4.203   0.833
 3227TIP3    H1 9687   3.482   4.171   0.916
 3227TIP3    H2 9688   3.461   4.167   0.766
 3228TIP3   OH2 9689   1.865   3.742   2.103
 3228TIP3    H1 9690   1.832   3.832   2.093
 3228TIP3    H2 9691   1.840   3.717   2.192
 3229TIP3   OH2 9692   1.785   0.197   4.297
 3229TIP3    H1 9693   1.847   0.132   4.263
 3229TIP3    H2 9694   1.840   0.272   4.322
 3230TIP3   OH2 9695   1.978   3.902   1.415
 3230TIP3    H1 9696   1.952   3.941   1.499
 3230TIP3    H2 9697   1.951   3.967   1.350
 3231TIP3   OH2 9698   2.649   3.239   2.576
 3231TIP3    H1 9699   2.741   3.220   2.557
 3231TIP3    H2 9700   2.600   3.189   2.510
 3232TIP3   OH2 9701   0.942   5.924   2.288
 3232TIP3    H1 9702   0.921   6.009   2.250
 3232TIP3    H2 9703   1.037   5.916   2.278
 3233TIP3   OH2 9704   1.648   5.079   0.136
 3233TIP3    H1 9705   1.711   5.065   0.065
 3233TIP3    H2 9706   1.636   4.992   0.175
 3234TIP3   OH2 9707   6.301   4.307   0.749
 3234TIP3    H1 9708   6.215   4.350   0.751
 3234TIP3    H2 9709   6.302   4.253   0.828
 3235TIP3   OH2 9710   1.007   5.971   0.007
 3235TIP3    H1 9711   1.049   5.962   0.092
 3235TIP3    H2 9712   1.038   5.896  -0.043
 3236TIP3   OH2 9713   2.023   1.672   2.689
 3236TIP3    H1 9714   2.033   1.600   2.627
 3236TIP3    H2 9715   1.929   1.693   2.686
 3237TIP3   OH2 9716   2.222   0.259   0.036
 3237TIP3    H1 9717   2.171   0.295   0.108
 3237TIP3    H2 9718   2.168   0.188   0.001
 3238TIP3   OH2 9719   3.298   3.533   0.502
 3238TIP3    H1 9720   3.333   3.445   0.489
 3238TIP3    H2 9721   3.309   3.576   0.418
 3239TIP3   OH2 9722   0.463  -0.024   4.823
 3239TIP3    H1 9723   0.376   0.016   4.821
 3239TIP3    H2 9724   0.522   0.046   4.850
 3240TIP3   OH2 9725   1.956   3.433   3.341
 3240TIP3    H1 9726   1.863   3.429   3.367
 3240TIP3    H2 9727   2.003   3.431   3.424
 3241TIP3   OH2 9728   1.934   1.063   1.487
 3241TIP3    H1 9729   1.920   1.138   1.544
 3241TIP3    H2 9730   2.029   1.059   1.474
 3242TIP3   OH2 9731   4.148   4.910   3.351
 3242TIP3    H1 9732   4.213   4.853   3.310
 3242TIP3    H2 9733   4.194   4.954   3.421
 3243TIP3   OH2 9734   6.108   4.613   2.712
 3243TIP3    H1 9735   6.125   4.706   2.699
 3243TIP3    H2 9736   6.195   4.572   2.710
 3244TIP3   OH2 9737   1.258   4.253   2.229
 3244TIP3    H1 9738   1.245   4.332   2.177
 3244TIP3    H2 9739   1.243   4.282   2.320
 3245TIP3   OH2 9740   3.507   2.853   2.102
 3245TIP3    H1 9741   3.591   2.839   2.058
 3245TIP3    H2 9742   3.467   2.766   2.106
 3246TIP3   OH2 9743   3.589   3.329   3.481
 3246TIP3    H1 9744   3.654   3.309   3.414
 3246TIP3    H2 9745   3.625   3.406   3.527
 3247TIP3   OH2 9746   1.399   2.286   0.387
 3247TIP3    H1 9747   1.324   2.278   0.327
 3247TIP3    H2 9748   1.377   2.228   0.460
 3248TIP3   OH2 9749   0.213   4.825   4.351
 3248TIP3    H1 9750   0.124   4.847   4.321
 3248TIP3    H2 9751   0.271   4.873   4.292
 3249TIP3   OH2 9752   3.914   2.412   2.087
 3249TIP3    H1 9753   4.005   2.439   2.077
 3249TIP3    H2 9754   3.918   2.317   2.094
 3250TIP3   OH2 9755   4.380   2.757   3.605
 3250TIP3    H1 9756   4.359   2.839   3.649
 3250TIP3    H2 9757   4.475   2.761   3.591
 3251TIP3   OH2 9758   6.336   3.990   4.571
 3251TIP3    H1 9759   6.285   3.995   4.490
 3251TIP3    H2 9760   6.424   3.967   4.542
 3252TIP3   OH2 9761   3.698   2.021   5.061
 3252TIP3    H1 9762   3.778   2.067   5.036
 3252TIP3    H2 9763   3.724   1.929   5.066
 3253TIP3   OH2 9764   6.139   2.313   0.502
 3253TIP3    H1 9765   6.216   2.346   0.549
 3253TIP3    H2 9766   6.161   2.323   0.410
 3254TIP3   OH2 9767   3.634   4.773   3.787
 3254TIP3    H1 9768   3.539   4.768   3.793
 3254TIP3    H2 9769   3.662   4.818   3.866
 3255TIP3   OH2 9770   4.513   1.090   0.984
 3255TIP3    H1 9771   4.525   1.046   1.069
 3255TIP3    H2 9772   4.457   1.165   1.005
 3256TIP3   OH2 9773   2.886   1.736   0.997
 3256TIP3    H1 9774   2.926   1.755   0.912
 3256TIP3    H2 9775   2.794   1.764   0.988
 3257TIP3   OH2 9776   2.263   1.621   4.470
 3257TIP3    H1 9777   2.335   1.614   4.532
 3257TIP3    H2 9778   2.228   1.532   4.464
 3258TIP3   OH2 9779   2.352   0.850   1.736
 3258TIP3    H1 9780   2.328   0.858   1.644
 3258TIP3    H2 9781   2.271   0.821   1.779
 3259TIP3   OH2 9782   1.969   0.840   4.876
 3259TIP3    H1 9783   1.966   0.788   4.796
 3259TIP3    H2 9784   2.025   0.790   4.935
 3260TIP3   OH2 9785   2.549   2.851   0.227
 3260TIP3    H1 9786   2.616   2.801   0.273
 3260TIP3    H2 9787   2.595   2.928   0.193
 3261TIP3   OH2 9788   1.006   3.267   1.387
 3261TIP3    H1 9789   1.098   3.294   1.382
 3261TIP3    H2 9790   1.008   3.172   1.387
 3262TIP3   OH2 9791   2.503   1.880   3.640
 3262TIP3    H1 9792   2.517   1.788   3.620
 3262TIP3    H2 9793   2.421   1.902   3.596
 3263TIP3   OH2 9794   3.169   2.592   4.893
 3263TIP3    H1 9795   3.119   2.632   4.964
 3263TIP3    H2 9796   3.260   2.617   4.909
 3264TIP3   OH2 9797   2.762   5.425   0.889
 3264TIP3    H1 9798   2.748   5.463   0.802
 3264TIP3    H2 9799   2.835   5.475   0.925
 3265TIP3   OH2 9800   0.016   0.317   1.902
 3265TIP3    H1 9801   0.087   0.262   1.936
 3265TIP3    H2 9802   0.056   0.403   1.889
 3266TIP3   OH2 9803   1.920   3.443   3.748
 3266TIP3    H1 9804   1.949   3.527   3.784
 3266TIP3    H2 9805   1.994   3.411   3.697
 3267TIP3   OH2 9806   2.516   2.644   2.400
 3267TIP3    H1 9807   2.563   2.725   2.420
 3267TIP3    H2 9808   2.585   2.579   2.390
 3268TIP3   OH2 9809   2.509   4.055   2.001
 3268TIP3    H1 9810   2.582   4.114   2.018
 3268TIP3    H2 9811   2.542   3.968   2.022
 3269TIP3   OH2 9812   5.745   2.483   4.384
 3269TIP3    H1 9813   5.696   2.406   4.415
 3269TIP3    H2 9814   5.684   2.528   4.326
 3270TIP3   OH2 9815   5.210   0.994   4.577
 3270TIP3    H1 9816   5.251   0.962   4.658
 3270TIP3    H2 9817   5.248   1.080   4.563
 3271TIP3   OH2 9818   5.305   2.371   4.835
 3271TIP3    H1 9819   5.222   2.358   4.789
 3271TIP3    H2 9820   5.294   2.323   4.918
 3272TIP3   OH2 9821   2.424   0.452   2.671
 3272TIP3    H1 9822   2.516   0.465   2.649
 3272TIP3    H2 9823   2.377   0.516   2.618
 3273TIP3   OH2 9824   2.386   0.756   4.751
 3273TIP3    H1 9825   2.409   0.844   4.780
 3273TIP3    H2 9826   2.417   0.752   4.661
 3274TIP3   OH2 9827   3.251   1.103   5.171
 3274TIP3    H1 9828   3.207   1.093   5.087
 3274TIP3    H2 9829   3.213   1.183   5.209
 3275TIP3   OH2 9830   0.772   3.633   0.164
 3275TIP3    H1 9831   0.784   3.663   0.254
 3275TIP3    H2 9832   0.679   3.612   0.158
 3276TIP3   OH2 9833   3.047   3.950   1.113
 3276TIP3    H1 9834   3.124   3.974   1.166
 3276TIP3    H2 9835   2.973   3.991   1.158
 3277TIP3   OH2 9836   4.734   0.097   0.231
 3277TIP3    H1 9837   4.649   0.124   0.265
 3277TIP3    H2 9838   4.797   0.131   0.294
 3278TIP3   OH2 9839   3.222   3.388   1.231
 3278TIP3    H1 9840   3.182   3.475   1.230
 3278TIP3    H2 9841   3.154   3.331   1.266
 3279TIP3   OH2 9842   4.969   1.846   1.916
 3279TIP3    H1 9843   4.974   1.941   1.929
 3279TIP3    H2 9844   4.905   1.817   1.981
 3280TIP3   OH2 9845   4.870   4.271   2.749
 3280TIP3    H1 9846   4.922   4.202   2.790
 3280TIP3    H2 9847   4.922   4.350   2.761
 3281TIP3   OH2 9848   5.811   3.940   4.961
 3281TIP3    H1 9849   5.808   3.899   4.875
 3281TIP3    H2 9850   5.842   4.029   4.945
 3282TIP3   OH2 9851   2.430   1.368   4.317
 3282TIP3    H1 9852   2.413   1.330   4.403
 3282TIP3    H2 9853   2.355   1.425   4.300
 3283TIP3   OH2 9854   5.971   0.918   0.479
 3283TIP3    H1 9855   6.004   0.833   0.448
 3283TIP3    H2 9856   5.890   0.897   0.525
 3284TIP3   OH2 9857   0.450   1.023   4.880
 3284TIP3    H1 9858   0.515   0.985   4.939
 3284TIP3    H2 9859   0.488   1.106   4.851
 3285TIP3   OH2 9860   3.408   3.330   1.681
 3285TIP3    H1 9861   3.496   3.296   1.698
 3285TIP3    H2 9862   3.388   3.303   1.592
 3286TIP3   OH2 9863   5.534   4.372   0.325
 3286TIP3    H1 9864   5.579   4.290   0.303
 3286TIP3    H2 9865   5.605   4.431   0.352
 3287TIP3   OH2 9866   1.901   3.108   3.561
 3287TIP3    H1 9867   1.957   3.123   3.484
 3287TIP3    H2 9868   1.833   3.048   3.529
 3288TIP3   OH2 9869   2.380   3.235   3.476
 3288TIP3    H1 9870   2.408   3.240   3.567
 3288TIP3    H2 9871   2.433   3.165   3.438
 3289TIP3   OH2 9872   0.483   5.827   1.844
 3289TIP3    H1 9873   0.545   5.849   1.774
 3289TIP3    H2 9874   0.408   5.790   1.799
 3290TIP3   OH2 9875   6.031   0.165   4.296
 3290TIP3    H1 9876   6.102   0.105   4.274
 3290TIP3    H2 9877   6.068   0.222   4.363
 3291TIP3   OH2 9878   2.440   5.011   0.122
 3291TIP3    H1 9879   2.491   4.936   0.092
 3291TIP3    H2 9880   2.496   5.087   0.107
 3292TIP3   OH2 9881   3.271   0.379   2.712
 3292TIP3    H1 9882   3.205   0.309   2.715
 3292TIP3    H2 9883   3.219   0.459   2.712
 3293TIP3   OH2 9884   4.570   2.879   1.746
 3293TIP3    H1 9885   4.571   2.973   1.761
 3293TIP3    H2 9886   4.646   2.861   1.691
 3294TIP3   OH2 9887   6.230   1.679   3.372
 3294TIP3    H1 9888   6.304   1.739   3.360
 3294TIP3    H2 9889   6.184   1.712   3.449
 3295TIP3   OH2 9890   1.243   5.197   0.805
 3295TIP3    H1 9891   1.275   5.136   0.739
 3295TIP3    H2 9892   1.274   5.161   0.889
 3296TIP3   OH2 9893   5.768   3.452   3.069
 3296TIP3    H1 9894   5.739   3.402   3.145
 3296TIP3    H2 9895   5.768   3.543   3.098
 3297TIP3   OH2 9896   0.980   3.010   2.500
 3297TIP3    H1 9897   0.995   3.049   2.586
 3297TIP3    H2 9898   1.067   2.988   2.468
 3298TIP3   OH2 9899   2.317   4.348   0.529
 3298TIP3    H1 9900   2.276   4.337   0.615
 3298TIP3    H2 9901   2.277   4.280   0.474
 3299TIP3   OH2 9902   2.086   5.536   1.516
 3299TIP3    H1 9903   2.125   5.507   1.598
 3299TIP3    H2 9904   2.014   5.592   1.542
 3300TIP3   OH2 9905   0.177   1.838   0.257
 3300TIP3    H1 9906   0.181   1.825   0.352
 3300TIP3    H2 9907   0.124   1.916   0.246
 3301TIP3   OH2 9908   4.469   1.769   4.860
 3301TIP3    H1 9909   4.476   1.853   4.815
 3301TIP3    H2 9910   4.386   1.732   4.828
 3302TIP3   OH2 9911   0.028   5.124   4.160
 3302TIP3    H1 9912   0.098   5.139   4.223
 3302TIP3    H2 9913   0.011   5.210   4.120
 3303TIP3   OH2 9914   0.596   2.541   0.415
 3303TIP3    H1 9915   0.676   2.578   0.380
 3303TIP3    H2 9916   0.539   2.530   0.339
 3304TIP3   OH2 9917   1.526   4.581   4.839
 3304TIP3    H1 9918   1.518   4.533   4.921
 3304TIP3    H2 9919   1.509   4.516   4.771
 3305TIP3   OH2 9920   1.212   5.700   3.193
 3305TIP3    H1 9921   1.265   5.663   3.264
 3305TIP3    H2 9922   1.161   5.769   3.235
 3306TIP3   OH2 9923   3.851   4.864   4.240
 3306TIP3    H1 9924   3.799   4.798   4.195
 3306TIP3    H2 9925   3.788   4.933   4.262
 3307TIP3   OH2 9926   4.700   3.515   0.997
 3307TIP3    H1 9927   4.657   3.497   1.081
 3307TIP3    H2 9928   4.772   3.453   0.993
 3308TIP3   OH2 9929   4.875   5.791   2.672
 3308TIP3    H1 9930   4.945   5.744   2.628
 3308TIP3    H2 9931   4.852   5.735   2.746
 3309TIP3   OH2 9932   5.476   2.982   1.452
 3309TIP3    H1 9933   5.498   3.055   1.510
 3309TIP3    H2 9934   5.556   2.968   1.401
 3310TIP3   OH2 9935   2.231   1.729   0.731
 3310TIP3    H1 9936   2.192   1.747   0.817
 3310TIP3    H2 9937   2.266   1.814   0.703
 3311TIP3   OH2 9938   6.001   3.121   4.036
 3311TIP3    H1 9939   6.037   3.039   4.001
 3311TIP3    H2 9940   6.066   3.150   4.100
 3312TIP3   OH2 9941   1.607   2.017   0.819
 3312TIP3    H1 9942   1.659   1.938   0.806
 3312TIP3    H2 9943   1.521   1.984   0.846
 3313TIP3   OH2 9944   3.866   0.747   0.478
 3313TIP3    H1 9945   3.877   0.709   0.565
 3313TIP3    H2 9946   3.793   0.698   0.440
 3314TIP3   OH2 9947   1.212   4.659   0.164
 3314TIP3    H1 9948   1.145   4.638   0.099
 3314TIP3    H2 9949   1.288   4.607   0.138
 3315TIP3   OH2 9950   4.745   2.519   5.138
 3315TIP3    H1 9951   4.837   2.536   5.156
 3315TIP3    H2 9952   4.705   2.607   5.134
 3316TIP3   OH2 9953   5.796   5.631   2.346
 3316TIP3    H1 9954   5.750   5.592   2.271
 3316TIP3    H2 9955   5.769   5.723   2.345
 3317TIP3   OH2 9956   5.222   1.750   4.225
 3317TIP3    H1 9957   5.148   1.778   4.172
 3317TIP3    H2 9958   5.224   1.813   4.298
 3318TIP3   OH2 9959   0.729   3.583   3.210
 3318TIP3    H1 9960   0.815   3.543   3.224
 3318TIP3    H2 9961   0.674   3.544   3.278
 3319TIP3   OH2 9962   4.446   5.426   2.665
 3319TIP3    H1 9963   4.498   5.497   2.701
 3319TIP3    H2 9964   4.494   5.346   2.686
 3320TIP3   OH2 9965   6.091   2.935   0.114
 3320TIP3    H1 9966   6.136   2.881   0.178
 3320TIP3    H2 9967   6.103   3.025   0.145
 3321TIP3   OH2 9968   1.859   0.209   1.215
 3321TIP3    H1 9969   1.773   0.241   1.241
 3321TIP3    H2 9970   1.916   0.286   1.222
 3322TIP3   OH2 9971   1.146   3.279   4.023
 3322TIP3    H1 9972   1.091   3.208   4.057
 3322TIP3    H2 9973   1.174   3.327   4.101
 3323TIP3   OH2 9974   0.663   3.140   0.615
 3323TIP3    H1 9975   0.712   3.187   0.547
 3323TIP3    H2 9976   0.655   3.203   0.686
 3324TIP3   OH2 9977   4.491   4.679   2.956
 3324TIP3    H1 9978   4.430   4.703   2.886
 3324TIP3    H2 9979   4.537   4.602   2.922
 3325TIP3   OH2 9980   5.703   3.379   0.655
 3325TIP3    H1 9981   5.642   3.443   0.691
 3325TIP3    H2 9982   5.709   3.311   0.722
 3326TIP3   OH2 9983   6.323   5.499   5.135
 3326TIP3    H1 9984   6.311   5.441   5.060
 3326TIP3    H2 9985   6.324   5.587   5.097
 3327TIP3   OH2 9986   0.098   2.715   2.042
 3327TIP3    H1 9987   0.114   2.798   2.085
 3327TIP3    H2 9988   0.050   2.663   2.106
 3328TIP3   OH2 9989   5.376   2.338   2.735
 3328TIP3    H1 9990   5.386   2.259   2.681
 3328TIP3    H2 9991   5.295   2.324   2.784
 3329TIP3   OH2 9992   1.995   4.886   2.739
 3329TIP3    H1 9993   1.921   4.831   2.765
 3329TIP3    H2 9994   1.955   4.965   2.703
 3330TIP3   OH2 9995   6.144   0.372   3.658
 3330TIP3    H1 9996   6.117   0.431   3.728
 3330TIP3    H2 9997   6.073   0.309   3.650
 3331TIP3   OH2 9998   1.185   3.830   0.676
 3331TIP3    H1 9999   1.115   3.893   0.695
 3331TIP3    H210000   1.266   3.880   0.684
 3332TIP3   OH210001   1.439   1.920   2.111
 3332TIP3    H110002   1.511   1.862   2.136
 3332TIP3    H210003   1.402   1.950   2.193
 3333TIP3   OH210004   3.260   2.855   4.802
 3333TIP3    H110005   3.211   2.934   4.781
 3333TIP3    H210006   3.214   2.785   4.754
 3334TIP3   OH210007   5.202   5.212   1.082
 3334TIP3    H110008   5.180   5.296   1.043
 3334TIP3    H210009   5.184   5.148   1.012
 3335TIP3   OH210010   5.926   2.759   1.041
 3335TIP3    H110011   5.878   2.703   1.102
 3335TIP3    H210012   6.017   2.735   1.054
 3336TIP3   OH210013   5.318   1.108   1.142
 3336TIP3    H110014   5.381   1.043   1.174
 3336TIP3    H210015   5.249   1.108   1.209
 3337TIP3   OH210016   4.479   3.494   2.652
 3337TIP3    H110017   4.489   3.585   2.680
 3337TIP3    H210018   4.408   3.496   2.588
 3338TIP3   OH210019   6.165   1.555   1.149
 3338TIP3    H110020   6.145   1.603   1.229
 3338TIP3    H210021   6.241   1.599   1.112
 3339TIP3   OH210022   0.762   5.782   3.335
 3339TIP3    H110023   0.800   5.695   3.338
 3339TIP3    H210024   0.837   5.842   3.339
 3340TIP3   OH210025   6.086   1.865   4.766
 3340TIP3    H110026   6.180   1.849   4.778
 3340TIP3    H210027   6.082   1.947   4.717
 3341TIP3   OH210028   1.797   1.802   0.841
 3341TIP3    H110029   1.799   1.787   0.936
 3341TIP3    H210030   1.806   1.715   0.803
 3342TIP3   OH210031   4.563   5.664   0.951
 3342TIP3    H110032   4.556   5.601   0.880
 3342TIP3    H210033   4.657   5.678   0.962
 3343TIP3   OH210034   4.050   4.938   0.125
 3343TIP3    H110035   4.025   4.902   0.210
 3343TIP3    H210036   3.969   4.934   0.073
 3344TIP3   OH210037   5.101   2.132   0.708
 3344TIP3    H110038   5.038   2.069   0.743
 3344TIP3    H210039   5.097   2.120   0.613
 3345TIP3   OH210040   0.649   4.237   3.899
 3345TIP3    H110041   0.617   4.324   3.923
 3345TIP3    H210042   0.702   4.252   3.820
 3346TIP3   OH210043   4.798   2.242   2.286
 3346TIP3    H110044   4.747   2.306   2.237
 3346TIP3    H210045   4.830   2.291   2.362
 3347TIP3   OH210046   6.106   1.814   4.326
 3347TIP3    H110047   6.197   1.790   4.310
 3347TIP3    H210048   6.079   1.758   4.399
 3348TIP3   OH210049   1.657   4.330   4.516
 3348TIP3    H110050   1.723   4.274   4.475
 3348TIP3    H210051   1.675   4.417   4.480
 3349TIP3   OH210052   5.602   4.609   5.017
 3349TIP3    H110053   5.683   4.586   5.062
 3349TIP3    H210054   5.567   4.683   5.067
 3350TIP3   OH210055   4.045   5.799   4.842
 3350TIP3    H110056   4.097   5.848   4.905
 3350TIP3    H210057   4.105   5.733   4.807
 3351TIP3   OH210058   5.436   2.016   0.814
 3351TIP3    H110059   5.373   2.075   0.855
 3351TIP3    H210060   5.505   2.073   0.781
 3352TIP3   OH210061   2.680   1.755   3.258
 3352TIP3    H110062   2.706   1.836   3.215
 3352TIP3    H210063   2.585   1.751   3.248
 3353TIP3   OH210064   2.145   2.596   4.245
 3353TIP3    H110065   2.183   2.533   4.306
 3353TIP3    H210066   2.126   2.544   4.166
 3354TIP3   OH210067   3.814   1.058   2.310
 3354TIP3    H110068   3.768   0.976   2.328
 3354TIP3    H210069   3.785   1.117   2.380
 3355TIP3   OH210070   5.477   5.154   4.153
 3355TIP3    H110071   5.514   5.067   4.167
 3355TIP3    H210072   5.522   5.187   4.075
 3356TIP3   OH210073   3.958   1.366   4.141
 3356TIP3    H110074   3.998   1.280   4.156
 3356TIP3    H210075   4.017   1.428   4.184
 3357TIP3   OH210076   2.804   0.677   3.675
 3357TIP3    H110077   2.861   0.729   3.618
 3357TIP3    H210078   2.826   0.706   3.764
 3358TIP3   OH210079   1.022   3.655   3.813
 3358TIP3    H110080   1.093   3.664   3.877
 3358TIP3    H210081   1.059   3.600   3.744
 3359TIP3   OH210082   1.827   2.787   3.631
 3359TIP3    H110083   1.752   2.727   3.622
 3359TIP3    H210084   1.835   2.800   3.725
 3360TIP3   OH210085   2.311   4.063   0.473
 3360TIP3    H110086   2.216   4.066   0.488
 3360TIP3    H210087   2.320   4.007   0.396
 3361TIP3   OH210088   1.340   5.769   1.178
 3361TIP3    H110089   1.390   5.801   1.253
 3361TIP3    H210090   1.342   5.841   1.115
 3362TIP3   OH210091   0.581   5.182   0.321
 3362TIP3    H110092   0.640   5.257   0.313
 3362TIP3    H210093   0.518   5.194   0.251
 3363TIP3   OH210094   2.616   1.016   1.954
 3363TIP3    H110095   2.533   1.064   1.949
 3363TIP3    H210096   2.644   1.027   2.044
 3364TIP3   OH210097   2.540   0.268   3.786
 3364TIP3    H110098   2.586   0.325   3.724
 3364TIP3    H210099   2.602   0.198   3.806
 3365TIP3   OH210100   2.233   3.736   4.700
 3365TIP3    H110101   2.153   3.757   4.746
 3365TIP3    H210102   2.218   3.767   4.610
 3366TIP3   OH210103   0.128   5.417   4.290
 3366TIP3    H110104   0.163   5.502   4.265
 3366TIP3    H210105   0.072   5.391   4.217
 3367TIP3   OH210106   5.762   3.226   3.625
 3367TIP3    H110107   5.672   3.204   3.649
 3367TIP3    H210108   5.772   3.318   3.651
 3368TIP3   OH210109   1.890   0.613   1.755
 3368TIP3    H110110   1.834   0.667   1.810
 3368TIP3    H210111   1.872   0.642   1.666
 3369TIP3   OH210112   5.432   3.189   2.571
 3369TIP3    H110113   5.355   3.133   2.559
 3369TIP3    H210114   5.454   3.219   2.483
 3370TIP3   OH210115   6.324   0.087   3.550
 3370TIP3    H110116   6.374   0.017   3.508
 3370TIP3    H210117   6.242   0.046   3.576
 3371TIP3   OH210118   3.163   5.312   0.714
 3371TIP3    H110119   3.185   5.232   0.761
 3371TIP3    H210120   3.237   5.371   0.729
 3372TIP3   OH210121   1.369   3.401   2.697
 3372TIP3    H110122   1.347   3.348   2.620
 3372TIP3    H210123   1.443   3.355   2.737
 3373TIP3   OH210124   0.325   1.864   3.571
 3373TIP3    H110125   0.364   1.801   3.511
 3373TIP3    H210126   0.250   1.818   3.609
 3374TIP3   OH210127   3.407   4.128   3.007
 3374TIP3    H110128   3.457   4.208   3.022
 3374TIP3    H210129   3.330   4.157   2.957
 3375TIP3   OH210130   4.688   2.393   3.341
 3375TIP3    H110131   4.723   2.306   3.322
 3375TIP3    H210132   4.676   2.393   3.436
 3376TIP3   OH210133   0.263   4.863   2.619
 3376TIP3    H110134   0.267   4.817   2.703
 3376TIP3    H210135   0.316   4.941   2.632
 3377TIP3   OH210136   1.493   4.720   5.170
 3377TIP3    H110137   1.422   4.693   5.112
 3377TIP3    H210138   1.555   4.647   5.166
 3378TIP3   OH210139   3.842   1.747   1.090
 3378TIP3    H110140   3.770   1.800   1.055
 3378TIP3    H210141   3.919   1.776   1.041
 3379TIP3   OH210142   1.646   1.166   3.973
 3379TIP3    H110143   1.632   1.261   3.974
 3379TIP3    H210144   1.722   1.154   3.916
 3380TIP3   OH210145   3.686   3.238   0.501
 3380TIP3    H110146   3.683   3.292   0.422
 3380TIP3    H210147   3.753   3.278   0.556
 3381TIP3   OH210148   2.358   4.600   4.561
 3381TIP3    H110149   2.274   4.581   4.520
 3381TIP3    H210150   2.423   4.564   4.500
 3382TIP3   OH210151   5.041   0.052   3.715
 3382TIP3    H110152   5.119   0.004   3.687
 3382TIP3    H210153   5.056   0.142   3.685
 3383TIP3   OH210154   1.179   4.657   3.743
 3383TIP3    H110155   1.229   4.696   3.815
 3383TIP3    H210156   1.121   4.728   3.713
 3384TIP3   OH210157   1.394   4.211   4.170
 3384TIP3    H110158   1.330   4.223   4.240
 3384TIP3    H210159   1.341   4.195   4.092
 3385TIP3   OH210160   3.770   5.678   0.667
 3385TIP3    H110161   3.839   5.732   0.629
 3385TIP3    H210162   3.693   5.735   0.669
 3386TIP3   OH210163   0.041   3.532   0.325
 3386TIP3    H110164   0.000   3.486   0.398
 3386TIP3    H210165   0.013   3.623   0.335
 3387TIP3   OH210166   2.006   2.908   5.214
 3387TIP3    H110167   1.989   2.854   5.137
 3387TIP3    H210168   2.089   2.876   5.249
 3388TIP3   OH210169   1.104   4.318   0.821
 3388TIP3    H110170   1.098   4.232   0.862
 3388TIP3    H210171   1.091   4.300   0.728
 3389TIP3   OH210172   3.203   4.080   4.218
 3389TIP3    H110173   3.275   4.018   4.232
 3389TIP3    H210174   3.179   4.069   4.127
 3390TIP3   OH210175   1.584   3.927   3.678
 3390TIP3    H110176   1.627   3.882   3.604
 3390TIP3    H210177   1.655   3.970   3.724
 3391TIP3   OH210178   2.642   5.814   2.361
 3391TIP3    H110179   2.728   5.774   2.371
 3391TIP3    H210180   2.597   5.796   2.443
 3392TIP3   OH210181   3.985   5.288   3.620
 3392TIP3    H110182   3.983   5.256   3.530
 3392TIP3    H210183   4.074   5.319   3.633
 3393TIP3   OH210184   3.785   2.732   5.167
 3393TIP3    H110185   3.766   2.820   5.136
 3393TIP3    H210186   3.737   2.675   5.108
 3394TIP3   OH210187   6.349   1.884   2.533
 3394TIP3    H110188   6.370   1.940   2.458
 3394TIP3    H210189   6.263   1.915   2.563
 3395TIP3   OH210190   3.306   0.759   4.551
 3395TIP3    H110191   3.338   0.679   4.508
 3395TIP3    H210192   3.368   0.773   4.624
 3396TIP3   OH210193   5.627   0.396   2.388
 3396TIP3    H110194   5.704   0.369   2.438
 3396TIP3    H210195   5.596   0.475   2.434
 3397TIP3   OH210196   2.351   5.247   4.619
 3397TIP3    H110197   2.262   5.222   4.592
 3397TIP3    H210198   2.391   5.282   4.540
 3398TIP3   OH210199   2.302   2.864   4.949
 3398TIP3    H110200   2.230   2.927   4.953
 3398TIP3    H210201   2.269   2.793   4.894
 3399TIP3   OH210202   6.023   2.540   2.435
 3399TIP3    H110203   5.991   2.630   2.441
 3399TIP3    H210204   6.005   2.514   2.345
 3400TIP3   OH210205   0.493   5.985   0.759
 3400TIP3    H110206   0.478   6.060   0.701
 3400TIP3    H210207   0.425   5.922   0.735
 3401TIP3   OH210208   1.729   1.198   4.237
 3401TIP3    H110209   1.685   1.255   4.301
 3401TIP3    H210210   1.672   1.200   4.160
 3402TIP3   OH210211   4.196   1.078   3.122
 3402TIP3    H110212   4.276   1.058   3.171
 3402TIP3    H210213   4.210   1.167   3.088
 3403TIP3   OH210214   2.853   0.267   3.695
 3403TIP3    H110215   2.779   0.312   3.655
 3403TIP3    H210216   2.857   0.301   3.784
 3404TIP3   OH210217   4.392   5.372   4.408
 3404TIP3    H110218   4.394   5.366   4.503
 3404TIP3    H210219   4.421   5.286   4.378
 3405TIP3   OH210220   2.516   3.566   1.183
 3405TIP3    H110221   2.603   3.537   1.157
 3405TIP3    H210222   2.531   3.622   1.259
 3406TIP3   OH210223   5.725   4.341   0.633
 3406TIP3    H110224   5.738   4.398   0.557
 3406TIP3    H210225   5.803   4.355   0.687
 3407TIP3   OH210226   3.548   5.327   2.297
 3407TIP3    H110227   3.465   5.323   2.249
 3407TIP3    H210228   3.600   5.391   2.248
 3408TIP3   OH210229   0.068   3.573   1.503
 3408TIP3    H110230   0.062   3.665   1.531
 3408TIP3    H210231   0.150   3.570   1.453
 3409TIP3   OH210232   2.324   4.561   3.669
 3409TIP3    H110233   2.284   4.635   3.624
 3409TIP3    H210234   2.362   4.598   3.748
 3410TIP3   OH210235   5.749   4.755   0.118
 3410TIP3    H110236   5.827   4.785   0.165
 3410TIP3    H210237   5.783   4.715   0.038
 3411TIP3   OH210238   0.230   4.441   4.986
 3411TIP3    H110239   0.282   4.521   4.981
 3411TIP3    H210240   0.193   4.442   5.075
 3412TIP3   OH210241   0.419   3.672   3.387
 3412TIP3    H110242   0.470   3.596   3.417
 3412TIP3    H210243   0.453   3.746   3.437
 3413TIP3   OH210244   2.221   5.086   5.082
 3413TIP3    H110245   2.310   5.055   5.066
 3413TIP3    H210246   2.178   5.079   4.997
 3414TIP3   OH210247   4.803   5.767   3.695
 3414TIP3    H110248   4.826   5.690   3.748
 3414TIP3    H210249   4.870   5.769   3.626
 3415TIP3   OH210250   5.289   1.930   3.519
 3415TIP3    H110251   5.352   2.002   3.529
 3415TIP3    H210252   5.328   1.874   3.451
 3416TIP3   OH210253   1.059   1.923   2.101
 3416TIP3    H110254   1.060   1.850   2.163
 3416TIP3    H210255   0.966   1.937   2.084
 3417TIP3   OH210256   4.362   1.629   1.154
 3417TIP3    H110257   4.435   1.660   1.101
 3417TIP3    H210258   4.403   1.571   1.219
 3418TIP3   OH210259   2.936   5.360   1.983
 3418TIP3    H110260   3.022   5.372   1.942
 3418TIP3    H210261   2.913   5.269   1.963
 3419TIP3   OH210262   1.843   2.991   2.371
 3419TIP3    H110263   1.909   3.046   2.330
 3419TIP3    H210264   1.888   2.908   2.389
 3420TIP3   OH210265   2.134   1.087   2.384
 3420TIP3    H110266   2.090   1.028   2.323
 3420TIP3    H210267   2.080   1.084   2.463
 3421TIP3   OH210268   1.842   3.093   1.021
 3421TIP3    H110269   1.779   3.163   1.038
 3421TIP3    H210270   1.789   3.013   1.021
 3422TIP3   OH210271   5.272   3.356   1.244
 3422TIP3    H110272   5.298   3.430   1.299
 3422TIP3    H210273   5.353   3.328   1.201
 3423TIP3   OH210274   2.419   3.324   0.039
 3423TIP3    H110275   2.339   3.279   0.010
 3423TIP3    H210276   2.466   3.343  -0.042
 3424TIP3   OH210277   5.275   4.176   4.522
 3424TIP3    H110278   5.360   4.200   4.486
 3424TIP3    H210279   5.261   4.237   4.594
 3425TIP3   OH210280   1.210   3.620   2.784
 3425TIP3    H110281   1.282   3.557   2.786
 3425TIP3    H210282   1.170   3.607   2.698
 3426TIP3   OH210283   2.885   1.943   0.783
 3426TIP3    H110284   2.897   1.998   0.706
 3426TIP3    H210285   2.910   1.998   0.857
 3427TIP3   OH210286   4.889   3.336   1.001
 3427TIP3    H110287   4.952   3.351   0.930
 3427TIP3    H210288   4.864   3.244   0.991
 3428TIP3   OH210289   1.754   2.080   2.097
 3428TIP3    H110290   1.745   2.132   2.177
 3428TIP3    H210291   1.847   2.057   2.094
 3429TIP3   OH210292   1.588   0.410   5.008
 3429TIP3    H110293   1.569   0.319   5.032
 3429TIP3    H210294   1.608   0.407   4.914
 3430TIP3   OH210295   3.909   0.707   3.172
 3430TIP3    H110296   3.849   0.634   3.187
 3430TIP3    H210297   3.889   0.769   3.241
 3431TIP3   OH210298   5.718   1.830   0.603
 3431TIP3    H110299   5.698   1.758   0.662
 3431TIP3    H210300   5.805   1.810   0.569
 3432TIP3   OH210301   1.801   5.187   2.959
 3432TIP3    H110302   1.845   5.103   2.967
 3432TIP3    H210303   1.817   5.230   3.043
 3433TIP3   OH210304   0.365   0.504   2.198
 3433TIP3    H110305   0.427   0.506   2.125
 3433TIP3    H210306   0.309   0.428   2.180
 3434TIP3   OH210307   3.242   3.961   3.697
 3434TIP3    H110308   3.335   3.938   3.704
 3434TIP3    H210309   3.214   3.972   3.788
 3435TIP3   OH210310   2.434   5.403   1.604
 3435TIP3    H110311   2.395   5.374   1.522
 3435TIP3    H210312   2.527   5.417   1.583
 3436TIP3   OH210313   5.978   3.438   0.554
 3436TIP3    H110314   5.886   3.427   0.528
 3436TIP3    H210315   5.973   3.461   0.647
 3437TIP3   OH210316   2.001   5.526   3.370
 3437TIP3    H110317   2.003   5.438   3.409
 3437TIP3    H210318   1.910   5.538   3.344
 3438TIP3   OH210319   4.476   5.830   0.723
 3438TIP3    H110320   4.429   5.900   0.768
 3438TIP3    H210321   4.560   5.825   0.769
 3439TIP3   OH210322   4.618   5.399   2.293
 3439TIP3    H110323   4.660   5.442   2.368
 3439TIP3    H210324   4.526   5.389   2.320
 3440TIP3   OH210325   5.013   2.333   2.727
 3440TIP3    H110326   5.062   2.337   2.645
 3440TIP3    H210327   5.052   2.259   2.775
 3441TIP3   OH210328   0.235   5.388   4.640
 3441TIP3    H110329   0.309   5.386   4.580
 3441TIP3    H210330   0.163   5.426   4.589
 3442TIP3   OH210331   4.932   3.755   3.730
 3442TIP3    H110332   4.957   3.694   3.800
 3442TIP3    H210333   4.943   3.705   3.649
 3443TIP3   OH210334   4.128   3.586   2.873
 3443TIP3    H110335   4.123   3.492   2.887
 3443TIP3    H210336   4.097   3.599   2.783
 3444TIP3   OH210337   0.305   3.620   4.573
 3444TIP3    H110338   0.399   3.623   4.593
 3444TIP3    H210339   0.265   3.584   4.652
 3445TIP3   OH210340   3.668   5.904   0.005
 3445TIP3    H110341   3.593   5.917  -0.054
 3445TIP3    H210342   3.636   5.931   0.091
 3446TIP3   OH210343   5.081   0.322   4.749
 3446TIP3    H110344   5.154   0.271   4.783
 3446TIP3    H210345   5.003   0.275   4.778
 3447TIP3   OH210346   2.986   2.753   1.075
 3447TIP3    H110347   3.031   2.785   0.996
 3447TIP3    H210348   2.924   2.822   1.096
 3448TIP3   OH210349   1.976   3.722   3.259
 3448TIP3    H110350   2.069   3.733   3.238
 3448TIP3    H210351   1.964   3.628   3.269
 3449TIP3   OH210352   0.002   5.399   2.244
 3449TIP3    H110353   0.026   5.448   2.323
 3449TIP3    H210354  -0.055   5.459   2.195
 3450TIP3   OH210355   5.279   1.443   1.504
 3450TIP3    H110356   5.197   1.395   1.512
 3450TIP3    H210357   5.314   1.446   1.593
 3451TIP3   OH210358   6.250   3.318   0.172
 3451TIP3    H110359   6.317   3.261   0.136
 3451TIP3    H210360   6.298   3.386   0.219
 3452TIP3   OH210361   0.773   5.838   4.581
 3452TIP3    H110362   0.841   5.772   4.572
 3452TIP3    H210363   0.692   5.793   4.555
 3453TIP3   OH210364   2.727   2.914   2.344
 3453TIP3    H110365   2.792   2.923   2.414
 3453TIP3    H210366   2.720   3.002   2.307
 3454TIP3   OH210367   6.163   0.665   2.146
 3454TIP3    H110368   6.251   0.627   2.156
 3454TIP3    H210369   6.110   0.594   2.110
 3455TIP3   OH210370   3.717   3.604   0.827
 3455TIP3    H110371   3.727   3.697   0.850
 3455TIP3    H210372   3.623   3.587   0.837
 3456TIP3   OH210373   5.888   3.961   3.961
 3456TIP3    H110374   5.923   3.920   4.040
 3456TIP3    H210375   5.884   3.890   3.897
 3457TIP3   OH210376   5.392   1.511   4.313
 3457TIP3    H110377   5.403   1.539   4.404
 3457TIP3    H210378   5.316   1.560   4.282
 3458TIP3   OH210379   4.196   1.958   1.143
 3458TIP3    H110380   4.238   1.969   1.228
 3458TIP3    H210381   4.246   2.016   1.085
 3459TIP3   OH210382   5.460   1.807   2.974
 3459TIP3    H110383   5.482   1.899   2.959
 3459TIP3    H210384   5.413   1.780   2.896
 3460TIP3   OH210385   1.270   3.321   4.476
 3460TIP3    H110386   1.305   3.382   4.540
 3460TIP3    H210387   1.180   3.350   4.461
 3461TIP3   OH210388   3.800   3.466   2.699
 3461TIP3    H110389   3.795   3.373   2.723
 3461TIP3    H210390   3.819   3.511   2.781
 3462TIP3   OH210391   2.970   3.890   4.682
 3462TIP3    H110392   3.017   3.955   4.734
 3462TIP3    H210393   2.980   3.920   4.591
 3463TIP3   OH210394   4.251   1.335   2.511
 3463TIP3    H110395   4.240   1.242   2.531
 3463TIP3    H210396   4.195   1.350   2.435
 3464TIP3   OH210397   1.238   2.671   3.141
 3464TIP3    H110398   1.167   2.735   3.151
 3464TIP3    H210399   1.214   2.620   3.064
 3465TIP3   OH210400   0.465   1.630   4.375
 3465TIP3    H110401   0.433   1.596   4.459
 3465TIP3    H210402   0.537   1.688   4.400
 3466TIP3   OH210403   3.652   5.943   5.088
 3466TIP3    H110404   3.668   5.851   5.112
 3466TIP3    H210405   3.566   5.942   5.046
 3467TIP3   OH210406   2.573   0.779   3.499
 3467TIP3    H110407   2.626   0.851   3.463
 3467TIP3    H210408   2.630   0.738   3.564
 3468TIP3   OH210409   2.635   5.195   0.008
 3468TIP3    H110410   2.730   5.188  -0.001
 3468TIP3    H210411   2.623   5.242   0.091
 3469TIP3   OH210412   2.316   4.167   3.525
 3469TIP3    H110413   2.354   4.138   3.443
 3469TIP3    H210414   2.362   4.248   3.546
 3470TIP3   OH210415   2.530   1.244   4.552
 3470TIP3    H110416   2.577   1.200   4.623
 3470TIP3    H210417   2.440   1.250   4.584
 3471TIP3   OH210418   3.497   2.699   3.999
 3471TIP3    H110419   3.498   2.604   4.009
 3471TIP3    H210420   3.574   2.718   3.945
 3472TIP3   OH210421   5.357   1.658   4.536
 3472TIP3    H110422   5.361   1.733   4.595
 3472TIP3    H210423   5.310   1.591   4.585
 3473TIP3   OH210424   1.385   3.499   4.659
 3473TIP3    H110425   1.357   3.580   4.703
 3473TIP3    H210426   1.474   3.519   4.627
 3474TIP3   OH210427   5.495   2.037   2.842
 3474TIP3    H110428   5.557   1.979   2.797
 3474TIP3    H210429   5.551   2.093   2.897
 3475TIP3   OH210430   6.311   5.625   0.934
 3475TIP3    H110431   6.243   5.685   0.965
 3475TIP3    H210432   6.348   5.588   1.013
 3476TIP3   OH210433   3.712   0.917   3.020
 3476TIP3    H110434   3.702   0.854   2.948
 3476TIP3    H210435   3.805   0.940   3.018
 3477TIP3   OH210436   3.633   0.636   0.367
 3477TIP3    H110437   3.676   0.551   0.356
 3477TIP3    H210438   3.541   0.614   0.383
 3478TIP3   OH210439   4.252   4.151   4.039
 3478TIP3    H110440   4.341   4.118   4.027
 3478TIP3    H210441   4.244   4.162   4.134
 3479TIP3   OH210442   1.342   2.383   2.693
 3479TIP3    H110443   1.389   2.370   2.610
 3479TIP3    H210444   1.362   2.304   2.743
 3480TIP3   OH210445   2.301   0.973   2.980
 3480TIP3    H110446   2.209   0.948   2.988
 3480TIP3    H210447   2.327   1.000   3.068
 3481TIP3   OH210448   4.164   3.503   5.096
 3481TIP3    H110449   4.204   3.418   5.076
 3481TIP3    H210450   4.083   3.480   5.142
 3482TIP3   OH210451   2.165   0.416   1.953
 3482TIP3    H110452   2.095   0.477   1.975
 3482TIP3    H210453   2.194   0.444   1.866
 3483TIP3   OH210454   2.428   5.670   4.618
 3483TIP3    H110455   2.511   5.630   4.592
 3483TIP3    H210456   2.405   5.726   4.543
 3484TIP3   OH210457   4.705   5.598   1.775
 3484TIP3    H110458   4.709   5.508   1.743
 3484TIP3    H210459   4.661   5.592   1.860
 3485TIP3   OH210460   4.851   0.591   2.687
 3485TIP3    H110461   4.785   0.524   2.669
 3485TIP3    H210462   4.814   0.672   2.650
 3486TIP3   OH210463   0.524   4.304   0.754
 3486TIP3    H110464   0.565   4.339   0.675
 3486TIP3    H210465   0.579   4.229   0.778
 3487TIP3   OH210466   1.754   3.097   0.736
 3487TIP3    H110467   1.710   3.175   0.769
 3487TIP3    H210468   1.811   3.069   0.808
 3488TIP3   OH210469   4.298   1.570   1.752
 3488TIP3    H110470   4.326   1.498   1.809
 3488TIP3    H210471   4.297   1.532   1.664
 3489TIP3   OH210472   2.364   2.292   3.705
 3489TIP3    H110473   2.411   2.351   3.646
 3489TIP3    H210474   2.327   2.225   3.647
 3490TIP3   OH210475   0.696   2.325   0.599
 3490TIP3    H110476   0.651   2.292   0.676
 3490TIP3    H210477   0.642   2.398   0.570
 3491TIP3   OH210478   1.128   2.756   0.823
 3491TIP3    H110479   1.148   2.798   0.739
 3491TIP3    H210480   1.124   2.828   0.886
 3492TIP3   OH210481   4.467   5.394   0.604
 3492TIP3    H110482   4.382   5.356   0.626
 3492TIP3    H210483   4.445   5.480   0.567
 3493TIP3   OH210484   1.787   4.492   2.742
 3493TIP3    H110485   1.818   4.448   2.821
 3493TIP3    H210486   1.757   4.578   2.772
 3494TIP3   OH210487   4.443   2.348   4.707
 3494TIP3    H110488   4.468   2.411   4.774
 3494TIP3    H210489   4.505   2.362   4.635
 3495TIP3   OH210490   2.095   2.166   4.442
 3495TIP3    H110491   2.071   2.219   4.517
 3495TIP3    H210492   2.177   2.123   4.468
 3496TIP3   OH210493   3.566   2.999   1.841
 3496TIP3    H110494   3.554   2.904   1.833
 3496TIP3    H210495   3.605   3.011   1.927
 3497TIP3   OH210496   1.223   2.740   3.636
 3497TIP3    H110497   1.264   2.822   3.610
 3497TIP3    H210498   1.227   2.740   3.732
 3498TIP3   OH210499   1.267   2.450   1.986
 3498TIP3    H110500   1.225   2.493   1.912
 3498TIP3    H210501   1.292   2.521   2.044
 3499TIP3   OH210502   6.338   0.577   0.774
 3499TIP3    H110503   6.378   0.654   0.735
 3499TIP3    H210504   6.292   0.534   0.701
 3500TIP3   OH210505   4.120   3.845   3.120
 3500TIP3    H110506   4.144   3.843   3.027
 3500TIP3    H210507   4.024   3.846   3.120
 3501TIP3   OH210508   3.085   4.521   1.418
 3501TIP3    H110509   3.180   4.537   1.418
 3501TIP3    H210510   3.064   4.502   1.509
 3502TIP3   OH210511   4.217   1.889   4.394
 3502TIP3    H110512   4.280   1.836   4.442
 3502TIP3    H210513   4.259   1.905   4.309
 3503TIP3   OH210514   4.096   0.572   4.770
 3503TIP3    H110515   4.119   0.629   4.842
 3503TIP3    H210516   4.153   0.496   4.780
 3504TIP3   OH210517   5.034   5.377   2.406
 3504TIP3    H110518   4.942   5.360   2.421
 3504TIP3    H210519   5.080   5.310   2.456
 3505TIP3   OH210520   1.874   5.570   3.014
 3505TIP3    H110521   1.912   5.636   3.072
 3505TIP3    H210522   1.926   5.491   3.028
 3506TIP3   OH210523   5.823   5.663   0.541
 3506TIP3    H110524   5.883   5.653   0.466
 3506TIP3    H210525   5.736   5.669   0.501
 3507TIP3   OH210526   2.719   4.612   5.006
 3507TIP3    H110527   2.701   4.554   4.931
 3507TIP3    H210528   2.647   4.596   5.066
 3508TIP3   OH210529   4.362   1.326   1.884
 3508TIP3    H110530   4.450   1.288   1.883
 3508TIP3    H210531   4.304   1.252   1.867
 3509TIP3   OH210532   4.649   4.533   3.172
 3509TIP3    H110533   4.555   4.547   3.184
 3509TIP3    H210534   4.678   4.610   3.123
 3510TIP3   OH210535   5.367   4.591   1.908
 3510TIP3    H110536   5.285   4.544   1.921
 3510TIP3    H210537   5.378   4.643   1.988
 3511TIP3   OH210538   6.057   3.441   3.952
 3511TIP3    H110539   6.040   3.353   3.921
 3511TIP3    H210540   6.057   3.433   4.048
 3512TIP3   OH210541   3.864   5.312   2.900
 3512TIP3    H110542   3.850   5.276   2.988
 3512TIP3    H210543   3.918   5.246   2.855
 3513TIP3   OH210544   3.335   0.240   1.481
 3513TIP3    H110545   3.272   0.173   1.508
 3513TIP3    H210546   3.419   0.210   1.517
 3514TIP3   OH210547   3.844   2.379   3.016
 3514TIP3    H110548   3.852   2.422   3.101
 3514TIP3    H210549   3.837   2.451   2.953
 3515TIP3   OH210550   2.395   4.677   2.521
 3515TIP3    H110551   2.357   4.758   2.557
 3515TIP3    H210552   2.331   4.610   2.542
 3516TIP3   OH210553   2.752   5.261   3.847
 3516TIP3    H110554   2.842   5.292   3.841
 3516TIP3    H210555   2.716   5.306   3.923
 3517TIP3   OH210556   2.503   0.563   5.174
 3517TIP3    H110557   2.585   0.516   5.166
 3517TIP3    H210558   2.491   0.575   5.268
 3518TIP3   OH210559   0.137   1.248   2.292
 3518TIP3    H110560   0.227   1.265   2.322
 3518TIP3    H210561   0.098   1.197   2.363
 3519TIP3   OH210562   1.745   5.114   4.570
 3519TIP3    H110563   1.713   5.202   4.554
 3519TIP3    H210564   1.668   5.065   4.600
 3520TIP3   OH210565   2.828   1.740   1.722
 3520TIP3    H110566   2.896   1.805   1.701
 3520TIP3    H210567   2.874   1.656   1.720
 3521TIP3   OH210568   1.898   1.302   0.323
 3521TIP3    H110569   1.853   1.229   0.364
 3521TIP3    H210570   1.873   1.378   0.375
 3522TIP3   OH210571   1.882   4.721   0.552
 3522TIP3    H110572   1.814   4.768   0.503
 3522TIP3    H210573   1.889   4.769   0.635
 3523TIP3   OH210574   2.516   3.812   4.548
 3523TIP3    H110575   2.572   3.866   4.493
 3523TIP3    H210576   2.428   3.826   4.513
 3524TIP3   OH210577   2.431   0.237   0.807
 3524TIP3    H110578   2.446   0.222   0.714
 3524TIP3    H210579   2.502   0.295   0.834
 3525TIP3   OH210580   2.551   2.507   3.630
 3525TIP3    H110581   2.573   2.508   3.537
 3525TIP3    H210582   2.631   2.477   3.673
 3526TIP3   OH210583   0.849   4.275   1.345
 3526TIP3    H110584   0.930   4.254   1.392
 3526TIP3    H210585   0.865   4.363   1.310
 3527TIP3   OH210586   0.021   3.112   1.171
 3527TIP3    H110587   0.080   3.128   1.097
 3527TIP3    H210588   0.056   3.032   1.211
 3528TIP3   OH210589   0.332   2.788   0.309
 3528TIP3    H110590   0.423   2.815   0.292
 3528TIP3    H210591   0.279   2.849   0.257
 3529TIP3   OH210592   1.841   5.809   3.863
 3529TIP3    H110593   1.817   5.825   3.955
 3529TIP3    H210594   1.934   5.828   3.859
 3530TIP3   OH210595   4.579   2.853   4.231
 3530TIP3    H110596   4.575   2.798   4.152
 3530TIP3    H210597   4.634   2.927   4.206
 3531TIP3   OH210598   5.947   2.926   3.368
 3531TIP3    H110599   5.878   2.983   3.335
 3531TIP3    H210600   5.908   2.839   3.370
 3532TIP3   OH210601   2.446   2.137   5.032
 3532TIP3    H110602   2.525   2.143   5.086
 3532TIP3    H210603   2.439   2.222   4.990
 3533TIP3   OH210604   2.203   0.262   0.463
 3533TIP3    H110605   2.212   0.319   0.539
 3533TIP3    H210606   2.149   0.312   0.402
 3534TIP3   OH210607   0.466   4.512   1.807
 3534TIP3    H110608   0.498   4.537   1.894
 3534TIP3    H210609   0.537   4.534   1.747
 3535TIP3   OH210610   1.912   1.947   4.531
 3535TIP3    H110611   1.949   1.862   4.508
 3535TIP3    H210612   1.987   2.000   4.559
 3536TIP3   OH210613   2.300   2.193   0.239
 3536TIP3    H110614   2.285   2.286   0.256
 3536TIP3    H210615   2.235   2.148   0.293
 3537TIP3   OH210616   1.173   4.184   3.660
 3537TIP3    H110617   1.128   4.132   3.594
 3537TIP3    H210618   1.263   4.191   3.627
 3538TIP3   OH210619   0.632   4.621   1.612
 3538TIP3    H110620   0.603   4.642   1.523
 3538TIP3    H210621   0.676   4.536   1.604
 3539TIP3   OH210622   2.879   2.482   5.129
 3539TIP3    H110623   2.957   2.514   5.173
 3539TIP3    H210624   2.910   2.415   5.068
 3540TIP3   OH210625   2.435   3.299   0.570
 3540TIP3    H110626   2.425   3.316   0.663
 3540TIP3    H210627   2.363   3.239   0.549
 3541TIP3   OH210628   3.574   5.280   0.235
 3541TIP3    H110629   3.532   5.307   0.154
 3541TIP3    H210630   3.531   5.332   0.303
 3542TIP3   OH210631   4.315   0.414   1.080
 3542TIP3    H110632   4.230   0.458   1.083
 3542TIP3    H210633   4.299   0.335   1.028
 3543TIP3   OH210634   3.779   2.357   0.046
 3543TIP3    H110635   3.857   2.329   0.093
 3543TIP3    H210636   3.768   2.449   0.070
 3544TIP3   OH210637   6.363   1.609   0.455
 3544TIP3    H110638   6.437   1.667   0.472
 3544TIP3    H210639   6.297   1.665   0.415
 3545TIP3   OH210640   4.971   3.878   4.450
 3545TIP3    H110641   4.879   3.901   4.444
 3545TIP3    H210642   4.973   3.802   4.509
 3546TIP3   OH210643   4.312   4.655   4.963
 3546TIP3    H110644   4.393   4.701   4.940
 3546TIP3    H210645   4.287   4.692   5.048
 3547TIP3   OH210646   3.838   2.419   1.202
 3547TIP3    H110647   3.836   2.506   1.162
 3547TIP3    H210648   3.908   2.373   1.156
 3548TIP3   OH210649   0.541   2.823   3.545
 3548TIP3    H110650   0.484   2.748   3.562
 3548TIP3    H210651   0.605   2.822   3.615
 3549TIP3   OH210652   4.026   4.744   1.970
 3549TIP3    H110653   3.989   4.793   1.897
 3549TIP3    H210654   4.115   4.722   1.942
 3550TIP3   OH210655   2.533   4.137   0.626
 3550TIP3    H110656   2.481   4.169   0.553
 3550TIP3    H210657   2.549   4.045   0.606
 3551TIP3   OH210658   1.851   0.169   4.705
 3551TIP3    H110659   1.910   0.243   4.717
 3551TIP3    H210660   1.906   0.100   4.668
 3552TIP3   OH210661   1.100   0.734   4.710
 3552TIP3    H110662   1.102   0.751   4.804
 3552TIP3    H210663   1.047   0.655   4.701
 3553TIP3   OH210664   4.181   0.736   1.584
 3553TIP3    H110665   4.198   0.716   1.676
 3553TIP3    H210666   4.130   0.661   1.552
 3554TIP3   OH210667   3.768   2.985   5.045
 3554TIP3    H110668   3.720   3.043   5.104
 3554TIP3    H210669   3.797   3.043   4.974
 3555TIP3   OH210670   3.514   0.752   4.726
 3555TIP3    H110671   3.515   0.735   4.820
 3555TIP3    H210672   3.603   0.734   4.697
 3556TIP3   OH210673   1.998   2.061   1.842
 3556TIP3    H110674   2.028   2.036   1.929
 3556TIP3    H210675   1.938   1.990   1.816
 3557TIP3   OH210676   2.232   4.757   2.149
 3557TIP3    H110677   2.217   4.792   2.237
 3557TIP3    H210678   2.320   4.787   2.126
 3558TIP3   OH210679   3.096   5.019   0.587
 3558TIP3    H110680   3.137   4.961   0.522
 3558TIP3    H210681   3.053   5.087   0.534
 3559TIP3   OH210682   3.814   2.877   1.696
 3559TIP3    H110683   3.869   2.942   1.740
 3559TIP3    H210684   3.732   2.877   1.746
 3560TIP3   OH210685   4.511   3.205   1.028
 3560TIP3    H110686   4.543   3.118   1.006
 3560TIP3    H210687   4.546   3.262   0.959
 3561TIP3   OH210688   5.423   3.495   3.346
 3561TIP3    H110689   5.359   3.427   3.366
 3561TIP3    H210690   5.417   3.557   3.418
 3562TIP3   OH210691   0.520   2.551   1.171
 3562TIP3    H110692   0.461   2.491   1.125
 3562TIP3    H210693   0.601   2.547   1.120
 3563TIP3   OH210694   2.727   0.992   3.412
 3563TIP3    H110695   2.792   0.984   3.343
 3563TIP3    H210696   2.716   1.086   3.423
 3564TIP3   OH210697   3.414   2.265   0.780
 3564TIP3    H110698   3.457   2.260   0.866
 3564TIP3    H210699   3.446   2.348   0.743
 3565TIP3   OH210700   6.189   2.530   4.154
 3565TIP3    H110701   6.283   2.532   4.169
 3565TIP3    H210702   6.172   2.443   4.117
 3566TIP3   OH210703   1.359   3.952   2.247
 3566TIP3    H110704   1.304   4.024   2.278
 3566TIP3    H210705   1.377   3.972   2.155
 3567TIP3   OH210706   4.121   1.027   0.585
 3567TIP3    H110707   4.079   1.071   0.511
 3567TIP3    H210708   4.198   0.985   0.547
 3568TIP3   OH210709   2.839   1.000   1.537
 3568TIP3    H110710   2.839   1.072   1.599
 3568TIP3    H210711   2.900   1.026   1.469
 3569TIP3   OH210712   1.694   3.861   5.076
 3569TIP3    H110713   1.645   3.875   4.996
 3569TIP3    H210714   1.628   3.840   5.142
 3570TIP3   OH210715   3.183   0.660   3.890
 3570TIP3    H110716   3.210   0.746   3.923
 3570TIP3    H210717   3.209   0.660   3.798
 3571TIP3   OH210718   6.276   3.271   0.833
 3571TIP3    H110719   6.263   3.176   0.825
 3571TIP3    H210720   6.233   3.308   0.756
 3572TIP3   OH210721   1.001   5.310   0.362
 3572TIP3    H110722   1.068   5.333   0.426
 3572TIP3    H210723   1.014   5.217   0.345
 3573TIP3   OH210724   2.368   3.869   3.269
 3573TIP3    H110725   2.365   3.782   3.230
 3573TIP3    H210726   2.304   3.920   3.219
 3574TIP3   OH210727   2.813   0.740   0.881
 3574TIP3    H110728   2.812   0.645   0.888
 3574TIP3    H210729   2.818   0.758   0.787
 3575TIP3   OH210730   3.932   2.189   4.950
 3575TIP3    H110731   4.009   2.135   4.933
 3575TIP3    H210732   3.967   2.276   4.969
 3576TIP3   OH210733   3.336   4.965   1.450
 3576TIP3    H110734   3.338   4.994   1.359
 3576TIP3    H210735   3.415   4.912   1.459
 3577TIP3   OH210736   2.957   4.964   0.080
 3577TIP3    H110737   3.005   4.881   0.078
 3577TIP3    H210738   2.871   4.941   0.117
 3578TIP3   OH210739   4.931   2.557   4.033
 3578TIP3    H110740   4.860   2.496   4.051
 3578TIP3    H210741   4.999   2.504   3.992
 3579TIP3   OH210742   1.967   2.236   3.364
 3579TIP3    H110743   1.924   2.241   3.449
 3579TIP3    H210744   1.900   2.201   3.305
 3580TIP3   OH210745   4.201   1.079   1.519
 3580TIP3    H110746   4.235   1.028   1.592
 3580TIP3    H210747   4.196   1.016   1.447
 3581TIP3   OH210748   3.906   6.000   3.272
 3581TIP3    H110749   3.864   6.000   3.358
 3581TIP3    H210750   3.967   5.927   3.275
 3582TIP3   OH210751   4.818   3.949   4.930
 3582TIP3    H110752   4.800   3.888   5.001
 3582TIP3    H210753   4.733   3.963   4.887
 3583TIP3   OH210754   1.712   2.242   0.965
 3583TIP3    H110755   1.696   2.171   0.902
 3583TIP3    H210756   1.695   2.202   1.050
 3584TIP3   OH210757   5.588   2.948   2.601
 3584TIP3    H110758   5.608   2.900   2.681
 3584TIP3    H210759   5.573   3.038   2.630
 3585TIP3   OH210760   2.366   0.066   3.660
 3585TIP3    H110761   2.367   0.060   3.564
 3585TIP3    H210762   2.405   0.152   3.678
 3586TIP3   OH210763   5.858   5.949   1.562
 3586TIP3    H110764   5.771   5.978   1.590
 3586TIP3    H210765   5.882   5.882   1.627
 3587TIP3   OH210766   0.512   0.885   0.627
 3587TIP3    H110767   0.491   0.825   0.699
 3587TIP3    H210768   0.463   0.850   0.552
 3588TIP3   OH210769   3.656   3.114   2.099
 3588TIP3    H110770   3.655   3.049   2.169
 3588TIP3    H210771   3.581   3.170   2.117
 3589TIP3   OH210772   4.852   3.072   0.913
 3589TIP3    H110773   4.781   3.014   0.941
 3589TIP3    H210774   4.932   3.020   0.926
 3590TIP3   OH210775   5.803   0.655   4.055
 3590TIP3    H110776   5.826   0.644   4.148
 3590TIP3    H210777   5.887   0.674   4.013
 3591TIP3   OH210778   1.905   5.352   0.322
 3591TIP3    H110779   1.977   5.365   0.385
 3591TIP3    H210780   1.943   5.378   0.238
 3592TIP3   OH210781   3.603   3.292   4.411
 3592TIP3    H110782   3.575   3.202   4.425
 3592TIP3    H210783   3.569   3.315   4.324
 3593TIP3   OH210784   5.939   3.242   2.418
 3593TIP3    H110785   5.881   3.312   2.446
 3593TIP3    H210786   6.012   3.246   2.480
 3594TIP3   OH210787   3.739   4.673   4.076
 3594TIP3    H110788   3.664   4.623   4.108
 3594TIP3    H210789   3.805   4.607   4.057
 3595TIP3   OH210790   1.524   4.629   3.870
 3595TIP3    H110791   1.518   4.572   3.947
 3595TIP3    H210792   1.504   4.716   3.904
 3596TIP3   OH210793   5.626   4.021   0.645
 3596TIP3    H110794   5.689   3.966   0.599
 3596TIP3    H210795   5.638   4.109   0.607
 3597TIP3   OH210796   5.078   3.103   5.008
 3597TIP3    H110797   5.106   3.078   5.096
 3597TIP3    H210798   4.986   3.077   5.003
 3598TIP3   OH210799   4.552   0.412   0.753
 3598TIP3    H110800   4.473   0.366   0.723
 3598TIP3    H210801   4.562   0.484   0.690
 3599TIP3   OH210802   5.934   3.690   3.852
 3599TIP3    H110803   5.969   3.693   3.763
 3599TIP3    H210804   6.003   3.648   3.904
 3600TIP3   OH210805   1.297   2.572   4.120
 3600TIP3    H110806   1.302   2.663   4.148
 3600TIP3    H210807   1.379   2.533   4.151
 3601TIP3   OH210808   0.536   1.483   1.644
 3601TIP3    H110809   0.546   1.393   1.675
 3601TIP3    H210810   0.449   1.485   1.604
 3602TIP3   OH210811   5.090   5.269   4.044
 3602TIP3    H110812   5.013   5.212   4.043
 3602TIP3    H210813   5.124   5.261   4.133
 3603TIP3   OH210814   0.150   3.000   0.967
 3603TIP3    H110815   0.146   3.082   0.919
 3603TIP3    H210816   0.077   2.948   0.931
 3604TIP3   OH210817   0.630   3.828   2.428
 3604TIP3    H110818   0.536   3.827   2.410
 3604TIP3    H210819   0.652   3.736   2.447
 3605TIP3   OH210820   1.264   3.742   0.354
 3605TIP3    H110821   1.322   3.736   0.430
 3605TIP3    H210822   1.303   3.685   0.289
 3606TIP3   OH210823   5.578   0.170   1.634
 3606TIP3    H110824   5.616   0.099   1.581
 3606TIP3    H210825   5.557   0.129   1.718
 3607TIP3   OH210826   0.703   0.151   0.186
 3607TIP3    H110827   0.752   0.228   0.213
 3607TIP3    H210828   0.723   0.141   0.093
 3608TIP3   OH210829   0.388   1.340   4.276
 3608TIP3    H110830   0.445   1.267   4.299
 3608TIP3    H210831   0.442   1.418   4.286
 3609TIP3   OH210832   0.807   4.214   2.669
 3609TIP3    H110833   0.852   4.274   2.610
 3609TIP3    H210834   0.724   4.194   2.626
 3610TIP3   OH210835   3.251   5.861   1.461
 3610TIP3    H110836   3.331   5.838   1.508
 3610TIP3    H210837   3.228   5.948   1.496
 3611TIP3   OH210838   6.033   3.683   1.150
 3611TIP3    H110839   6.072   3.730   1.225
 3611TIP3    H210840   6.105   3.631   1.115
 3612TIP3   OH210841   5.434   5.505   4.876
 3612TIP3    H110842   5.412   5.583   4.825
 3612TIP3    H210843   5.364   5.498   4.941
 3613TIP3   OH210844   0.355   3.835   0.110
 3613TIP3    H110845   0.338   3.813   0.202
 3613TIP3    H210846   0.269   3.855   0.074
 3614TIP3   OH210847   0.918   4.731   0.278
 3614TIP3    H110848   0.890   4.772   0.360
 3614TIP3    H210849   0.907   4.637   0.293
 3615TIP3   OH210850   5.394   1.353   3.298
 3615TIP3    H110851   5.444   1.276   3.273
 3615TIP3    H210852   5.350   1.329   3.379
 3616TIP3   OH210853   1.285   5.315   3.930
 3616TIP3    H110854   1.253   5.353   3.848
 3616TIP3    H210855   1.219   5.337   3.995
 3617TIP3   OH210856   5.362   5.979   3.179
 3617TIP3    H110857   5.441   5.932   3.209
 3617TIP3    H210858   5.391   6.026   3.101
 3618TIP3   OH210859   4.693   5.373   1.594
 3618TIP3    H110860   4.601   5.356   1.578
 3618TIP3    H210861   4.737   5.292   1.568
 3619TIP3   OH210862   5.572   3.611   2.204
 3619TIP3    H110863   5.570   3.622   2.299
 3619TIP3    H210864   5.500   3.550   2.185
 3620TIP3   OH210865   4.216   3.577   1.712
 3620TIP3    H110866   4.204   3.491   1.671
 3620TIP3    H210867   4.128   3.607   1.732
 3621TIP3   OH210868   3.462   4.506   0.485
 3621TIP3    H110869   3.501   4.538   0.403
 3621TIP3    H210870   3.531   4.454   0.526
 3622TIP3   OH210871   1.817   4.134   0.662
 3622TIP3    H110872   1.763   4.201   0.704
 3622TIP3    H210873   1.781   4.051   0.694
 3623TIP3   OH210874   5.567   0.335   4.362
 3623TIP3    H110875   5.497   0.334   4.428
 3623TIP3    H210876   5.645   0.363   4.410
 3624TIP3   OH210877   2.009   5.852   1.820
 3624TIP3    H110878   1.947   5.804   1.874
 3624TIP3    H210879   2.079   5.877   1.881
 3625TIP3   OH210880   4.210   4.931   2.183
 3625TIP3    H110881   4.148   4.866   2.215
 3625TIP3    H210882   4.168   4.968   2.105
 3626TIP3   OH210883   3.432   1.727   0.709
 3626TIP3    H110884   3.378   1.709   0.632
 3626TIP3    H210885   3.444   1.822   0.708
 3627TIP3   OH210886   2.837   0.623   2.948
 3627TIP3    H110887   2.861   0.652   3.036
 3627TIP3    H210888   2.876   0.688   2.890
 3628TIP3   OH210889   3.210   1.107   0.727
 3628TIP3    H110890   3.207   1.072   0.816
 3628TIP3    H210891   3.303   1.127   0.713
 3629TIP3   OH210892   2.835   4.320   5.163
 3629TIP3    H110893   2.764   4.377   5.191
 3629TIP3    H210894   2.791   4.242   5.128
 3630TIP3   OH210895   5.636   4.872   2.965
 3630TIP3    H110896   5.625   4.887   2.871
 3630TIP3    H210897   5.580   4.937   3.007
 3631TIP3   OH210898   0.523   1.672   1.832
 3631TIP3    H110899   0.524   1.597   1.774
 3631TIP3    H210900   0.514   1.635   1.920
 3632TIP3   OH210901   2.073   1.346   0.721
 3632TIP3    H110902   2.123   1.362   0.801
 3632TIP3    H210903   2.069   1.250   0.714
 3633TIP3   OH210904   5.205   0.287   2.405
 3633TIP3    H110905   5.261   0.271   2.329
 3633TIP3    H210906   5.266   0.320   2.472
 3634TIP3   OH210907   5.293   0.772   1.382
 3634TIP3    H110908   5.369   0.802   1.432
 3634TIP3    H210909   5.280   0.838   1.314
 3635TIP3   OH210910   0.580   2.033   3.326
 3635TIP3    H110911   0.638   2.100   3.291
 3635TIP3    H210912   0.627   1.999   3.403
 3636TIP3   OH210913   3.670   2.001   2.714
 3636TIP3    H110914   3.629   1.960   2.790
 3636TIP3    H210915   3.662   1.936   2.644
 3637TIP3   OH210916   1.531   2.744   3.028
 3637TIP3    H110917   1.457   2.724   3.087
 3637TIP3    H210918   1.532   2.671   2.966
 3638TIP3   OH210919   1.592   5.303   2.161
 3638TIP3    H110920   1.647   5.374   2.195
 3638TIP3    H210921   1.510   5.311   2.210
 3639TIP3   OH210922   6.107   0.344   4.476
 3639TIP3    H110923   6.170   0.383   4.536
 3639TIP3    H210924   6.023   0.349   4.523
 3640TIP3   OH210925   6.309   1.071   4.070
 3640TIP3    H110926   6.270   0.988   4.046
 3640TIP3    H210927   6.403   1.053   4.076
 3641TIP3   OH210928   1.292   4.273   2.781
 3641TIP3    H110929   1.381   4.242   2.798
 3641TIP3    H210930   1.302   4.336   2.710
 3642TIP3   OH210931   5.299   0.918   5.162
 3642TIP3    H110932   5.304   0.923   5.257
 3642TIP3    H210933   5.279   0.827   5.143
 3643TIP3   OH210934   4.791   1.820   2.161
 3643TIP3    H110935   4.774   1.738   2.207
 3643TIP3    H210936   4.758   1.888   2.219
 3644TIP3   OH210937   2.255   3.048   3.989
 3644TIP3    H110938   2.161   3.028   3.982
 3644TIP3    H210939   2.261   3.141   3.966
 3645TIP3   OH210940   0.546   4.058   0.129
 3645TIP3    H110941   0.477   3.995   0.107
 3645TIP3    H210942   0.508   4.143   0.106
 3646TIP3   OH210943   5.100   4.910   4.015
 3646TIP3    H110944   5.180   4.949   3.981
 3646TIP3    H210945   5.126   4.869   4.097
 3647TIP3   OH210946   0.071   1.515   0.886
 3647TIP3    H110947   0.075   1.421   0.905
 3647TIP3    H210948  -0.009   1.525   0.834
 3648TIP3   OH210949   1.851   1.819   4.153
 3648TIP3    H110950   1.773   1.875   4.148
 3648TIP3    H210951   1.818   1.736   4.189
 3649TIP3   OH210952   2.513   2.834   5.114
 3649TIP3    H110953   2.437   2.843   5.056
 3649TIP3    H210954   2.494   2.755   5.166
 3650TIP3   OH210955   4.160   4.124   0.166
 3650TIP3    H110956   4.096   4.164   0.107
 3650TIP3    H210957   4.114   4.049   0.204
 3651TIP3   OH210958   1.017   1.590   0.999
 3651TIP3    H110959   1.027   1.685   1.009
 3651TIP3    H210960   1.068   1.553   1.071
 3652TIP3   OH210961   6.320   1.385   2.906
 3652TIP3    H110962   6.396   1.336   2.937
 3652TIP3    H210963   6.311   1.457   2.968
 3653TIP3   OH210964   3.635   2.877   4.757
 3653TIP3    H110965   3.679   2.878   4.842
 3653TIP3    H210966   3.637   2.785   4.730
 3654TIP3   OH210967   4.992   0.094   3.351
 3654TIP3    H110968   4.965   0.002   3.346
 3654TIP3    H210969   4.958   0.133   3.271
 3655TIP3   OH210970   0.420   2.780   0.635
 3655TIP3    H110971   0.500   2.797   0.585
 3655TIP3    H210972   0.370   2.719   0.580
 3656TIP3   OH210973   6.096   5.111   1.694
 3656TIP3    H110974   6.002   5.116   1.706
 3656TIP3    H210975   6.109   5.042   1.629
 3657TIP3   OH210976   3.653   2.454   5.034
 3657TIP3    H110977   3.583   2.388   5.044
 3657TIP3    H210978   3.716   2.433   5.103
 3658TIP3   OH210979   5.225   0.045   1.989
 3658TIP3    H110980   5.132   0.029   1.970
 3658TIP3    H210981   5.248  -0.021   2.054
 3659TIP3   OH210982   5.033   5.252   2.675
 3659TIP3    H110983   5.014   5.234   2.767
 3659TIP3    H210984   5.088   5.331   2.677
 3660TIP3   OH210985   0.055   2.026   1.083
 3660TIP3    H110986   0.058   2.096   1.147
 3660TIP3    H210987  -0.035   2.026   1.050
 3661TIP3   OH210988   1.896   1.075   1.063
 3661TIP3    H110989   1.860   1.061   1.151
 3661TIP3    H210990   1.873   0.997   1.014
 3662TIP3   OH210991   0.600   1.075   3.021
 3662TIP3    H110992   0.580   1.055   2.930
 3662TIP3    H210993   0.592   1.170   3.027
 3663TIP3   OH210994   2.127   0.298   4.882
 3663TIP3    H110995   2.200   0.345   4.841
 3663TIP3    H210996   2.049   0.344   4.850
 3664TIP3   OH210997   4.703   3.705   4.516
 3664TIP3    H110998   4.651   3.679   4.440
 3664TIP3    H210999   4.721   3.798   4.502
 3665TIP3   OH211000   4.885   1.536   1.740
 3665TIP3    H111001   4.823   1.590   1.692
 3665TIP3    H211002   4.840   1.451   1.750
 3666TIP3   OH211003   5.304   1.216   0.446
 3666TIP3    H111004   5.283   1.261   0.364
 3666TIP3    H211005   5.342   1.285   0.501
 3667TIP3   OH211006   2.893   4.128   4.896
 3667TIP3    H111007   2.823   4.193   4.898
 3667TIP3    H211008   2.964   4.170   4.848
 3668TIP3   OH211009   0.235   1.467   1.964
 3668TIP3    H111010   0.139   1.461   1.963
 3668TIP3    H211011   0.253   1.554   1.999
 3669TIP3   OH211012   4.649   2.327   4.927
 3669TIP3    H111013   4.669   2.401   4.984
 3669TIP3    H211014   4.573   2.286   4.969
 3670TIP3   OH211015   4.884   1.780   4.864
 3670TIP3    H111016   4.936   1.812   4.937
 3670TIP3    H211017   4.830   1.855   4.838
 3671TIP3   OH211018   4.994   0.921   2.004
 3671TIP3    H111019   4.989   0.826   2.017
 3671TIP3    H211020   5.011   0.956   2.091
 3672TIP3   OH211021   5.714   0.682   4.643
 3672TIP3    H111022   5.808   0.675   4.658
 3672TIP3    H211023   5.674   0.652   4.725
 3673TIP3   OH211024   1.281   4.984   0.568
 3673TIP3    H111025   1.251   4.923   0.501
 3673TIP3    H211026   1.326   5.053   0.519
 3674TIP3   OH211027   2.613   5.558   2.156
 3674TIP3    H111028   2.550   5.487   2.163
 3674TIP3    H211029   2.645   5.570   2.246
 3675TIP3   OH211030   3.537   1.023   1.246
 3675TIP3    H111031   3.467   1.011   1.311
 3675TIP3    H211032   3.571   1.110   1.263
 3676TIP3   OH211033   5.432   3.965   3.334
 3676TIP3    H111034   5.408   3.888   3.282
 3676TIP3    H211035   5.523   3.950   3.359
 3677TIP3   OH211036   5.154   4.364   2.040
 3677TIP3    H111037   5.081   4.425   2.045
 3677TIP3    H211038   5.134   4.308   1.965
 3678TIP3   OH211039   0.034   4.865   2.495
 3678TIP3    H111040   0.028   4.958   2.474
 3678TIP3    H211041   0.119   4.855   2.538
 3679TIP3   OH211042   4.106   2.617   1.449
 3679TIP3    H111043   4.160   2.625   1.528
 3679TIP3    H211044   4.102   2.523   1.433
 3680TIP3   OH211045   3.572   4.546   0.223
 3680TIP3    H111046   3.643   4.602   0.256
 3680TIP3    H211047   3.549   4.585   0.139
 3681TIP3   OH211048   1.906   5.931   4.539
 3681TIP3    H111049   1.862   5.913   4.623
 3681TIP3    H211050   1.900   5.848   4.492
 3682TIP3   OH211051   2.499   5.805   2.121
 3682TIP3    H111052   2.501   5.711   2.104
 3682TIP3    H211053   2.538   5.815   2.208
 3683TIP3   OH211054   1.243   4.839   2.536
 3683TIP3    H111055   1.318   4.822   2.592
 3683TIP3    H211056   1.167   4.824   2.593
 3684TIP3   OH211057   1.542   0.928   2.797
 3684TIP3    H111058   1.487   0.991   2.844
 3684TIP3    H211059   1.497   0.844   2.808
 3685TIP3   OH211060   5.838   3.688   1.613
 3685TIP3    H111061   5.933   3.681   1.614
 3685TIP3    H211062   5.820   3.767   1.561
 3686TIP3   OH211063   3.328   4.995   1.167
 3686TIP3    H111064   3.321   4.904   1.139
 3686TIP3    H211065   3.254   5.039   1.124
 3687TIP3   OH211066   1.205   4.696   2.836
 3687TIP3    H111067   1.181   4.693   2.929
 3687TIP3    H211068   1.301   4.689   2.836
 3688TIP3   OH211069   2.521   0.783   0.863
 3688TIP3    H111070   2.484   0.727   0.932
 3688TIP3    H211071   2.614   0.760   0.861
 3689TIP3   OH211072   0.711   2.410   2.027
 3689TIP3    H111073   0.655   2.379   2.098
 3689TIP3    H211074   0.761   2.482   2.065
 3690TIP3   OH211075   2.760   2.330   1.822
 3690TIP3    H111076   2.757   2.240   1.791
 3690TIP3    H211077   2.682   2.372   1.785
 3691TIP3   OH211078   5.034   4.041   3.935
 3691TIP3    H111079   5.127   4.019   3.944
 3691TIP3    H211080   5.031   4.136   3.947
 3692TIP3   OH211081   6.232   1.255   1.791
 3692TIP3    H111082   6.328   1.254   1.789
 3692TIP3    H211083   6.210   1.274   1.882
 3693TIP3   OH211084   2.583   5.668   0.810
 3693TIP3    H111085   2.630   5.700   0.734
 3693TIP3    H211086   2.514   5.612   0.775
 3694TIP3   OH211087   5.534   4.458   4.789
 3694TIP3    H111088   5.535   4.367   4.758
 3694TIP3    H211089   5.530   4.451   4.884
 3695TIP3   OH211090   1.921   1.304   4.692
 3695TIP3    H111091   1.958   1.353   4.618
 3695TIP3    H211092   1.872   1.233   4.651
 3696TIP3   OH211093   3.768   0.123   2.905
 3696TIP3    H111094   3.684   0.078   2.911
 3696TIP3    H211095   3.762   0.193   2.970
 3697TIP3   OH211096   4.174   2.732   3.073
 3697TIP3    H111097   4.115   2.784   3.127
 3697TIP3    H211098   4.257   2.732   3.121
 3698TIP3   OH211099   3.578   5.945   1.522
 3698TIP3    H111100   3.669   5.973   1.520
 3698TIP3    H211101   3.574   5.870   1.463
 3699TIP3   OH211102   3.485   1.187   2.744
 3699TIP3    H111103   3.553   1.174   2.677
 3699TIP3    H211104   3.437   1.104   2.746
 3700TIP3   OH211105   4.784   4.017   4.046
 3700TIP3    H111106   4.816   4.103   4.072
 3700TIP3    H211107   4.857   3.978   3.997
 3701TIP3   OH211108   0.700   4.344   1.651
 3701TIP3    H111109   0.639   4.286   1.604
 3701TIP3    H211110   0.787   4.311   1.626
 3702TIP3   OH211111   5.702   2.507   1.670
 3702TIP3    H111112   5.786   2.545   1.645
 3702TIP3    H211113   5.702   2.420   1.632
 3703TIP3   OH211114   1.021   4.434   3.695
 3703TIP3    H111115   1.081   4.504   3.722
 3703TIP3    H211116   1.053   4.356   3.741
 3704TIP3   OH211117   5.578   2.496   0.157
 3704TIP3    H111118   5.560   2.427   0.094
 3704TIP3    H211119   5.536   2.574   0.120
 3705TIP3   OH211120   3.514   2.381   2.446
 3705TIP3    H111121   3.460   2.311   2.408
 3705TIP3    H211122   3.591   2.336   2.481
 3706TIP3   OH211123   5.381   0.751   3.008
 3706TIP3    H111124   5.365   0.763   3.102
 3706TIP3    H211125   5.347   0.831   2.968
 3707TIP3   OH211126   5.218   5.142   4.266
 3707TIP3    H111127   5.287   5.152   4.200
 3707TIP3    H211128   5.224   5.051   4.294
 3708TIP3   OH211129   0.408   5.127   0.666
 3708TIP3    H111130   0.451   5.146   0.748
 3708TIP3    H211131   0.473   5.079   0.615
 3709TIP3   OH211132   4.258   5.396   5.027
 3709TIP3    H111133   4.228   5.378   5.116
 3709TIP3    H211134   4.342   5.440   5.037
 3710TIP3   OH211135   3.728   5.248   3.352
 3710TIP3    H111136   3.774   5.203   3.281
 3710TIP3    H211137   3.733   5.186   3.426
 3711TIP3   OH211138   2.461   1.781   1.106
 3711TIP3    H111139   2.378   1.824   1.089
 3711TIP3    H211140   2.518   1.809   1.035
 3712TIP3   OH211141   2.854   4.410   2.634
 3712TIP3    H111142   2.937   4.456   2.646
 3712TIP3    H211143   2.823   4.439   2.549
 3713TIP3   OH211144   0.924   0.896   0.699
 3713TIP3    H111145   0.883   0.821   0.742
 3713TIP3    H211146   0.852   0.955   0.679
 3714TIP3   OH211147   2.587   4.753   2.332
 3714TIP3    H111148   2.571   4.698   2.255
 3714TIP3    H211149   2.516   4.731   2.393
 3715TIP3   OH211150   0.571   2.556   2.909
 3715TIP3    H111151   0.590   2.480   2.964
 3715TIP3    H211152   0.654   2.573   2.863
 3716TIP3   OH211153   3.106   0.875   0.422
 3716TIP3    H111154   3.100   0.918   0.507
 3716TIP3    H211155   3.148   0.939   0.365
 3717TIP3   OH211156   1.177   1.211   0.668
 3717TIP3    H111157   1.094   1.214   0.621
 3717TIP3    H211158   1.190   1.118   0.689
 3718TIP3   OH211159   0.517   1.469   0.100
 3718TIP3    H111160   0.431   1.449   0.138
 3718TIP3    H211161   0.565   1.511   0.171
 3719TIP3   OH211162   0.305   2.196   1.473
 3719TIP3    H111163   0.391   2.174   1.436
 3719TIP3    H211164   0.311   2.166   1.564
 3720TIP3   OH211165   4.022   3.704   4.944
 3720TIP3    H111166   3.964   3.635   4.913
 3720TIP3    H211167   4.070   3.664   5.016
 3721TIP3   OH211168   1.055   1.272   3.367
 3721TIP3    H111169   0.973   1.243   3.407
 3721TIP3    H211170   1.116   1.280   3.440
 3722TIP3   OH211171   1.784   2.865   3.000
 3722TIP3    H111172   1.824   2.873   3.087
 3722TIP3    H211173   1.692   2.845   3.018
 3723TIP3   OH211174   2.519   2.852   2.124
 3723TIP3    H111175   2.572   2.907   2.181
 3723TIP3    H211176   2.566   2.769   2.119
 3724TIP3   OH211177   3.230   5.322   0.114
 3724TIP3    H111178   3.183   5.337   0.197
 3724TIP3    H211179   3.298   5.389   0.113
 3725TIP3   OH211180   4.258   0.340   4.782
 3725TIP3    H111181   4.309   0.318   4.860
 3725TIP3    H211182   4.322   0.340   4.711
 3726TIP3   OH211183   5.397   4.472   0.925
 3726TIP3    H111184   5.401   4.448   0.833
 3726TIP3    H211185   5.488   4.468   0.955
 3727TIP3   OH211186   3.056   0.706   1.418
 3727TIP3    H111187   2.976   0.680   1.463
 3727TIP3    H211188   3.124   0.700   1.485
 3728TIP3   OH211189   0.988   0.271   0.716
 3728TIP3    H111190   0.960   0.251   0.805
 3728TIP3    H211191   1.075   0.233   0.709
 3729TIP3   OH211192   0.463   4.198   1.809
 3729TIP3    H111193   0.523   4.264   1.773
 3729TIP3    H211194   0.379   4.243   1.813
 3730TIP3   OH211195   0.043   5.417   1.735
 3730TIP3    H111196  -0.018   5.487   1.712
 3730TIP3    H211197   0.022   5.396   1.826
 3731TIP3   OH211198   0.275   0.094   3.888
 3731TIP3    H111199   0.363   0.064   3.865
 3731TIP3    H211200   0.233   0.111   3.803
 3732TIP3   OH211201   4.149   3.021   5.155
 3732TIP3    H111202   4.113   2.937   5.127
 3732TIP3    H211203   4.094   3.047   5.229
 3733TIP3   OH211204   2.319   1.408   2.644
 3733TIP3    H111205   2.353   1.401   2.733
 3733TIP3    H211206   2.227   1.380   2.651
 3734TIP3   OH211207   0.144   0.071   1.958
 3734TIP3    H111208   0.154   0.026   1.874
 3734TIP3    H211209   0.204   0.024   2.016
 3735TIP3   OH211210   6.328   3.298   4.724
 3735TIP3    H111211   6.278   3.379   4.728
 3735TIP3    H211212   6.415   3.323   4.756
 3736TIP3   OH211213   4.216   3.879   1.021
 3736TIP3    H111214   4.271   3.949   0.987
 3736TIP3    H211215   4.138   3.880   0.964
 3737TIP3   OH211216   0.464   5.946   4.885
 3737TIP3    H111217   0.413   5.897   4.950
 3737TIP3    H211218   0.454   6.037   4.912
 3738TIP3   OH211219   4.251   0.530   0.783
 3738TIP3    H111220   4.292   0.446   0.802
 3738TIP3    H211221   4.174   0.507   0.730
 3739TIP3   OH211222   3.393   2.994   3.079
 3739TIP3    H111223   3.335   2.926   3.045
 3739TIP3    H211224   3.423   2.959   3.163
 3740TIP3   OH211225   4.056   2.292   3.721
 3740TIP3    H111226   4.044   2.198   3.708
 3740TIP3    H211227   4.035   2.307   3.813
 3741TIP3   OH211228   0.905   0.318   3.431
 3741TIP3    H111229   0.895   0.234   3.385
 3741TIP3    H211230   0.993   0.315   3.468
 3742TIP3   OH211231   0.096   4.901   0.972
 3742TIP3    H111232   0.172   4.895   0.915
 3742TIP3    H211233   0.025   4.932   0.915
 3743TIP3   OH211234   1.777   3.071   5.148
 3743TIP3    H111235   1.710   3.013   5.185
 3743TIP3    H211236   1.860   3.034   5.178
 3744TIP3   OH211237   4.803   4.342   2.066
 3744TIP3    H111238   4.755   4.418   2.033
 3744TIP3    H211239   4.742   4.300   2.126
 3745TIP3   OH211240   2.804   1.690   2.990
 3745TIP3    H111241   2.806   1.774   3.036
 3745TIP3    H211242   2.821   1.625   3.059
 3746TIP3   OH211243   2.600   1.435   1.538
 3746TIP3    H111244   2.506   1.417   1.529
 3746TIP3    H211245   2.635   1.422   1.450
 3747TIP3   OH211246   3.828   0.803   2.548
 3747TIP3    H111247   3.904   0.792   2.605
 3747TIP3    H211248   3.857   0.768   2.463
 3748TIP3   OH211249   1.308   0.158   3.723
 3748TIP3    H111250   1.218   0.138   3.749
 3748TIP3    H211251   1.331   0.235   3.775
 3749TIP3   OH211252   1.194   3.310   1.082
 3749TIP3    H111253   1.234   3.266   1.157
 3749TIP3    H211254   1.262   3.370   1.050
 3750TIP3   OH211255   1.633   0.915   0.693
 3750TIP3    H111256   1.655   0.872   0.610
 3750TIP3    H211257   1.547   0.952   0.678
 3751TIP3   OH211258   0.286   4.858   2.289
 3751TIP3    H111259   0.277   4.914   2.366
 3751TIP3    H211260   0.353   4.902   2.236
 3752TIP3   OH211261   3.167   5.822   3.327
 3752TIP3    H111262   3.170   5.845   3.234
 3752TIP3    H211263   3.259   5.818   3.353
 3753TIP3   OH211264   0.805   4.669   2.752
 3753TIP3    H111265   0.742   4.739   2.767
 3753TIP3    H211266   0.757   4.604   2.700
 3754TIP3   OH211267   5.442   2.111   2.208
 3754TIP3    H111268   5.432   2.016   2.196
 3754TIP3    H211269   5.536   2.122   2.221
 3755TIP3   OH211270   3.916   1.895   3.023
 3755TIP3    H111271   3.895   1.819   2.970
 3755TIP3    H211272   3.943   1.859   3.108
 3756TIP3   OH211273   6.235   3.851   2.860
 3756TIP3    H111274   6.197   3.765   2.880
 3756TIP3    H211275   6.245   3.893   2.946
 3757TIP3   OH211276   3.493   3.613   1.509
 3757TIP3    H111277   3.424   3.581   1.567
 3757TIP3    H211278   3.504   3.543   1.444
 3758TIP3   OH211279   5.488   4.631   3.087
 3758TIP3    H111280   5.520   4.716   3.057
 3758TIP3    H211281   5.564   4.573   3.083
 3759TIP3   OH211282   2.829   2.500   0.113
 3759TIP3    H111283   2.842   2.457   0.028
 3759TIP3    H211284   2.794   2.586   0.091
 3760TIP3   OH211285   5.112   2.252   3.610
 3760TIP3    H111286   5.079   2.290   3.529
 3760TIP3    H211287   5.206   2.238   3.594
 3761TIP3   OH211288   2.615   1.035   2.236
 3761TIP3    H111289   2.638   1.082   2.316
 3761TIP3    H211290   2.522   1.013   2.247
 3762TIP3   OH211291   2.709   5.896   0.106
 3762TIP3    H111292   2.706   5.945   0.023
 3762TIP3    H211293   2.696   5.963   0.173
 3763TIP3   OH211294   1.601   4.955   3.042
 3763TIP3    H111295   1.531   4.907   3.085
 3763TIP3    H211296   1.669   4.962   3.108
 3764TIP3   OH211297   2.017   0.754   2.835
 3764TIP3    H111298   1.992   0.846   2.834
 3764TIP3    H211299   2.031   0.734   2.928
 3765TIP3   OH211300   1.124   0.829   3.583
 3765TIP3    H111301   1.028   0.823   3.579
 3765TIP3    H211302   1.154   0.774   3.511
 3766TIP3   OH211303   4.613   3.638   4.800
 3766TIP3    H111304   4.621   3.714   4.741
 3766TIP3    H211305   4.526   3.602   4.780
 3767TIP3   OH211306   4.325   2.475   1.229
 3767TIP3    H111307   4.282   2.401   1.272
 3767TIP3    H211308   4.393   2.503   1.291
 3768TIP3   OH211309   2.960   1.669   0.534
 3768TIP3    H111310   2.956   1.588   0.484
 3768TIP3    H211311   2.889   1.661   0.598
 3769TIP3   OH211312   0.578   0.428   0.628
 3769TIP3    H111313   0.633   0.370   0.576
 3769TIP3    H211314   0.597   0.405   0.719
 3770TIP3   OH211315   0.899   0.718   0.908
 3770TIP3    H111316   0.949   0.637   0.901
 3770TIP3    H211317   0.809   0.690   0.920
 3771TIP3   OH211318   4.743   0.807   0.238
 3771TIP3    H111319   4.767   0.857   0.316
 3771TIP3    H211320   4.667   0.755   0.264
 3772TIP3   OH211321   0.174   5.744   1.973
 3772TIP3    H111322   0.201   5.726   1.883
 3772TIP3    H211323   0.139   5.833   1.970
 3773TIP3   OH211324   4.965   4.516   0.062
 3773TIP3    H111325   5.046   4.538   0.109
 3773TIP3    H211326   4.907   4.482   0.129
 3774TIP3   OH211327   6.322   2.107   3.807
 3774TIP3    H111328   6.382   2.068   3.870
 3774TIP3    H211329   6.372   2.178   3.767
 3775TIP3   OH211330   3.022   1.163   4.589
 3775TIP3    H111331   2.991   1.247   4.623
 3775TIP3    H211332   3.034   1.177   4.495
 3776TIP3   OH211333   6.351   3.048   3.304
 3776TIP3    H111334   6.305   3.020   3.383
 3776TIP3    H211335   6.403   3.124   3.331
 3777TIP3   OH211336   1.030   4.290   2.912
 3777TIP3    H111337   1.110   4.291   2.860
 3777TIP3    H211338   0.965   4.248   2.856
 3778TIP3   OH211339   4.156   1.112   0.336
 3778TIP3    H111340   4.108   1.055   0.276
 3778TIP3    H211341   4.244   1.117   0.299
 3779TIP3   OH211342   4.863   5.334   4.596
 3779TIP3    H111343   4.829   5.305   4.680
 3779TIP3    H211344   4.958   5.339   4.608
 3780TIP3   OH211345   1.782   2.247   4.512
 3780TIP3    H111346   1.834   2.300   4.573
 3780TIP3    H211347   1.834   2.245   4.432
 3781TIP3   OH211348   4.041   3.768   3.759
 3781TIP3    H111349   4.057   3.692   3.816
 3781TIP3    H211350   4.085   3.841   3.803
 3782TIP3   OH211351   4.115   4.544   3.333
 3782TIP3    H111352   4.054   4.514   3.265
 3782TIP3    H211353   4.074   4.518   3.416
 3783TIP3   OH211354   3.967   0.494   0.145
 3783TIP3    H111355   3.954   0.546   0.066
 3783TIP3    H211356   3.965   0.403   0.116
 3784TIP3   OH211357   1.552   0.760   3.851
 3784TIP3    H111358   1.559   0.808   3.768
 3784TIP3    H211359   1.557   0.828   3.918
 3785TIP3   OH211360   5.293   2.450   1.171
 3785TIP3    H111361   5.238   2.457   1.250
 3785TIP3    H211362   5.255   2.514   1.110
 3786TIP3   OH211363   6.020   4.851   0.208
 3786TIP3    H111364   6.006   4.828   0.300
 3786TIP3    H211365   6.113   4.830   0.193
 3787TIP3   OH211366   2.815   5.583   0.649
 3787TIP3    H111367   2.886   5.541   0.599
 3787TIP3    H211368   2.860   5.635   0.715
 3788TIP3   OH211369   5.326   0.462   4.942
 3788TIP3    H111370   5.308   0.373   4.913
 3788TIP3    H211371   5.351   0.453   5.034
 3789TIP3   OH211372   1.387   2.285   2.998
 3789TIP3    H111373   1.447   2.299   3.071
 3789TIP3    H211374   1.425   2.213   2.949
 3790TIP3   OH211375   6.267   3.764   3.887
 3790TIP3    H111376   6.203   3.791   3.822
 3790TIP3    H211377   6.305   3.683   3.850
 3791TIP3   OH211378   2.691   2.368   0.336
 3791TIP3    H111379   2.729   2.424   0.267
 3791TIP3    H211380   2.702   2.279   0.302
 3792TIP3   OH211381   6.212   0.130   4.794
 3792TIP3    H111382   6.294   0.091   4.823
 3792TIP3    H211383   6.238   0.214   4.755
 3793TIP3   OH211384   5.462   2.330   0.744
 3793TIP3    H111385   5.488   2.273   0.672
 3793TIP3    H211386   5.532   2.395   0.750
 3794TIP3   OH211387   3.261   0.653   3.017
 3794TIP3    H111388   3.248   0.747   3.008
 3794TIP3    H211389   3.235   0.633   3.107
 3795TIP3   OH211390   5.245   0.998   0.638
 3795TIP3    H111391   5.232   0.970   0.728
 3795TIP3    H211392   5.174   1.061   0.622
 3796TIP3   OH211393   2.022   3.344   4.144
 3796TIP3    H111394   2.074   3.307   4.073
 3796TIP3    H211395   2.002   3.433   4.116
 3797TIP3   OH211396   1.920   2.860   4.881
 3797TIP3    H111397   1.957   2.833   4.796
 3797TIP3    H211398   1.951   2.950   4.893
 3798TIP3   OH211399   2.367   4.525   1.996
 3798TIP3    H111400   2.320   4.455   1.951
 3798TIP3    H211401   2.306   4.556   2.063
 3799TIP3   OH211402   0.484   0.832   3.137
 3799TIP3    H111403   0.511   0.904   3.080
 3799TIP3    H211404   0.559   0.772   3.136
 3800TIP3   OH211405   0.752   5.878   0.197
 3800TIP3    H111406   0.679   5.880   0.259
 3800TIP3    H211407   0.820   5.828   0.242
 3801TIP3   OH211408   3.433   1.144   4.751
 3801TIP3    H111409   3.374   1.215   4.779
 3801TIP3    H211410   3.394   1.111   4.670
 3802TIP3   OH211411   0.386   2.342   0.629
 3802TIP3    H111412   0.361   2.356   0.537
 3802TIP3    H211413   0.364   2.250   0.645
 3803TIP3   OH211414   4.402   0.535   3.812
 3803TIP3    H111415   4.336   0.522   3.744
 3803TIP3    H211416   4.482   0.496   3.775
 3804TIP3   OH211417   4.255   1.363   1.545
 3804TIP3    H111418   4.289   1.387   1.458
 3804TIP3    H211419   4.259   1.267   1.545
 3805TIP3   OH211420   3.132   0.215   4.463
 3805TIP3    H111421   3.193   0.279   4.427
 3805TIP3    H211422   3.187   0.144   4.495
 3806TIP3   OH211423   2.159   2.211   1.695
 3806TIP3    H111424   2.085   2.164   1.733
 3806TIP3    H211425   2.229   2.202   1.760
 3807TIP3   OH211426   3.910   4.749   3.252
 3807TIP3    H111427   3.891   4.712   3.339
 3807TIP3    H211428   3.998   4.785   3.261
 3808TIP3   OH211429   0.220   4.341   3.576
 3808TIP3    H111430   0.233   4.434   3.559
 3808TIP3    H211431   0.303   4.300   3.550
 3809TIP3   OH211432   2.782   5.029   4.165
 3809TIP3    H111433   2.721   4.964   4.200
 3809TIP3    H211434   2.869   4.993   4.185
 3810TIP3   OH211435   3.395   5.319   3.010
 3810TIP3    H111436   3.436   5.320   3.096
 3810TIP3    H211437   3.301   5.328   3.028
 3811TIP3   OH211438   2.915   5.354   1.360
 3811TIP3    H111439   2.851   5.374   1.292
 3811TIP3    H211440   2.922   5.258   1.358
 3812TIP3   OH211441   4.663   0.852   2.297
 3812TIP3    H111442   4.753   0.843   2.329
 3812TIP3    H211443   4.611   0.798   2.357
 3813TIP3   OH211444   1.147   4.208   0.570
 3813TIP3    H111445   1.230   4.162   0.554
 3813TIP3    H211446   1.080   4.150   0.534
 3814TIP3   OH211447   6.104   0.980   4.764
 3814TIP3    H111448   6.038   1.038   4.726
 3814TIP3    H211449   6.186   1.007   4.723
 3815TIP3   OH211450   0.205   0.704   0.616
 3815TIP3    H111451   0.146   0.747   0.555
 3815TIP3    H211452   0.256   0.643   0.562
 3816TIP3   OH211453   2.776   0.544   2.636
 3816TIP3    H111454   2.815   0.595   2.565
 3816TIP3    H211455   2.784   0.599   2.713
 3817TIP3   OH211456   0.018   5.841   4.794
 3817TIP3    H111457  -0.034   5.903   4.846
 3817TIP3    H211458   0.046   5.892   4.718
 3818TIP3   OH211459   3.902   0.054   0.174
 3818TIP3    H111460   3.933  -0.016   0.231
 3818TIP3    H211461   3.834   0.013   0.121
 3819TIP3   OH211462   1.413   5.593   5.039
 3819TIP3    H111463   1.341   5.631   5.090
 3819TIP3    H211464   1.371   5.534   4.977
 3820TIP3   OH211465   3.366   0.992   2.392
 3820TIP3    H111466   3.447   0.940   2.396
 3820TIP3    H211467   3.395   1.081   2.377
 3821TIP3   OH211468   2.504   3.755   0.877
 3821TIP3    H111469   2.541   3.809   0.806
 3821TIP3    H211470   2.567   3.765   0.949
 3822TIP3   OH211471   5.369   2.738   0.524
 3822TIP3    H111472   5.362   2.780   0.609
 3822TIP3    H211473   5.292   2.682   0.518
 3823TIP3   OH211474   0.879   3.332   2.840
 3823TIP3    H111475   0.885   3.324   2.745
 3823TIP3    H211476   0.801   3.386   2.854
 3824TIP3   OH211477   0.697   3.553   1.560
 3824TIP3    H111478   0.660   3.475   1.518
 3824TIP3    H211479   0.623   3.613   1.570
 3825TIP3   OH211480   3.830   4.445   1.592
 3825TIP3    H111481   3.859   4.472   1.680
 3825TIP3    H211482   3.772   4.370   1.609
 3826TIP3   OH211483   6.048   5.221   0.686
 3826TIP3    H111484   6.098   5.266   0.754
 3826TIP3    H211485   5.978   5.282   0.664
 3827TIP3   OH211486   1.342   2.518   0.759
 3827TIP3    H111487   1.365   2.438   0.805
 3827TIP3    H211488   1.247   2.513   0.747
 3828TIP3   OH211489   5.186   3.547   3.606
 3828TIP3    H111490   5.217   3.464   3.642
 3828TIP3    H211491   5.093   3.534   3.590
 3829TIP3   OH211492   2.919   4.745   2.261
 3829TIP3    H111493   3.010   4.766   2.240
 3829TIP3    H211494   2.870   4.824   2.235
 3830TIP3   OH211495   3.672   1.538   4.356
 3830TIP3    H111496   3.676   1.444   4.335
 3830TIP3    H211497   3.578   1.556   4.363
 3831TIP3   OH211498   2.924   5.626   2.730
 3831TIP3    H111499   2.906   5.637   2.637
 3831TIP3    H211500   2.901   5.534   2.748
 3832TIP3   OH211501   1.757   3.931   0.335
 3832TIP3    H111502   1.777   4.022   0.314
 3832TIP3    H211503   1.811   3.912   0.412
 3833TIP3   OH211504   2.186   2.805   4.464
 3833TIP3    H111505   2.171   2.746   4.390
 3833TIP3    H211506   2.248   2.870   4.430
 3834TIP3   OH211507   5.225   3.420   4.024
 3834TIP3    H111508   5.159   3.487   4.039
 3834TIP3    H211509   5.266   3.407   4.109
 3835TIP3   OH211510   5.132   4.051   4.285
 3835TIP3    H111511   5.160   3.995   4.213
 3835TIP3    H211512   5.068   3.998   4.334
 3836TIP3   OH211513   4.954   0.874   2.815
 3836TIP3    H111514   5.013   0.801   2.834
 3836TIP3    H211515   4.958   0.883   2.720
 3837TIP3   OH211516   0.112   2.309   3.654
 3837TIP3    H111517   0.112   2.362   3.574
 3837TIP3    H211518   0.186   2.249   3.642
 3838TIP3   OH211519   4.105   3.530   1.001
 3838TIP3    H111520   4.051   3.555   1.076
 3838TIP3    H211521   4.137   3.613   0.966
 3839TIP3   OH211522   0.497   0.208   0.877
 3839TIP3    H111523   0.564   0.277   0.877
 3839TIP3    H211524   0.422   0.248   0.920
 3840TIP3   OH211525   2.603   3.776   4.203
 3840TIP3    H111526   2.526   3.719   4.206
 3840TIP3    H211527   2.603   3.821   4.287
 3841TIP3   OH211528   0.166   4.323   0.612
 3841TIP3    H111529   0.228   4.254   0.637
 3841TIP3    H211530   0.092   4.312   0.672
 3842TIP3   OH211531   1.949   2.672   0.368
 3842TIP3    H111532   1.956   2.632   0.455
 3842TIP3    H211533   1.933   2.599   0.309
 3843TIP3   OH211534   4.887   2.636   1.086
 3843TIP3    H111535   4.839   2.569   1.037
 3843TIP3    H211536   4.923   2.694   1.019
 3844TIP3   OH211537   6.335   1.600   3.102
 3844TIP3    H111538   6.401   1.546   3.146
 3844TIP3    H211539   6.283   1.638   3.173
 3845TIP3   OH211540   6.197   3.549   4.675
 3845TIP3    H111541   6.261   3.567   4.606
 3845TIP3    H211542   6.114   3.577   4.638
 3846TIP3   OH211543   4.820   5.132   4.026
 3846TIP3    H111544   4.881   5.081   3.972
 3846TIP3    H211545   4.754   5.069   4.053
 3847TIP3   OH211546   1.103   2.262   3.750
 3847TIP3    H111547   1.130   2.295   3.836
 3847TIP3    H211548   1.041   2.328   3.718
 3848TIP3   OH211549   1.033   2.618   4.472
 3848TIP3    H111550   0.944   2.650   4.484
 3848TIP3    H211551   1.039   2.540   4.527
 3849TIP3   OH211552   4.210   1.379   0.445
 3849TIP3    H111553   4.176   1.324   0.374
 3849TIP3    H211554   4.147   1.367   0.517
 3850TIP3   OH211555   3.951   3.705   3.488
 3850TIP3    H111556   3.962   3.739   3.577
 3850TIP3    H211557   3.857   3.693   3.477
 3851TIP3   OH211558   1.265   4.991   5.137
 3851TIP3    H111559   1.218   4.954   5.212
 3851TIP3    H211560   1.233   4.942   5.062
 3852TIP3   OH211561   5.475   3.464   1.830
 3852TIP3    H111562   5.425   3.540   1.858
 3852TIP3    H211563   5.476   3.470   1.735
 3853TIP3   OH211564   5.363   3.382   4.854
 3853TIP3    H111565   5.370   3.421   4.942
 3853TIP3    H211566   5.271   3.359   4.845
 3854TIP3   OH211567   6.260   0.487   4.059
 3854TIP3    H111568   6.296   0.444   4.137
 3854TIP3    H211569   6.231   0.414   4.004
 3855TIP3   OH211570   3.907   2.348   0.421
 3855TIP3    H111571   3.947   2.327   0.336
 3855TIP3    H211572   3.972   2.402   0.465
 3856TIP3   OH211573   0.787   2.429   4.671
 3856TIP3    H111574   0.724   2.498   4.650
 3856TIP3    H211575   0.740   2.370   4.730
 3857TIP3   OH211576   0.505   5.950   1.038
 3857TIP3    H111577   0.456   5.868   1.042
 3857TIP3    H211578   0.506   5.973   0.945
 3858TIP3   OH211579   1.333   5.419   0.400
 3858TIP3    H111580   1.340   5.512   0.378
 3858TIP3    H211581   1.281   5.418   0.481
 3859TIP3   OH211582   0.351   5.271   2.068
 3859TIP3    H111583   0.301   5.310   2.140
 3859TIP3    H211584   0.289   5.266   1.995
 3860TIP3   OH211585   4.429   2.222   0.336
 3860TIP3    H111586   4.449   2.172   0.257
 3860TIP3    H211587   4.354   2.276   0.312
 3861TIP3   OH211588   2.115   4.620   3.885
 3861TIP3    H111589   2.145   4.709   3.901
 3861TIP3    H211590   2.019   4.625   3.888
 3862TIP3   OH211591   1.551   5.503   0.084
 3862TIP3    H111592   1.628   5.548   0.050
 3862TIP3    H211593   1.480   5.567   0.076
 3863TIP3   OH211594   5.809   1.031   4.340
 3863TIP3    H111595   5.727   1.075   4.364
 3863TIP3    H211596   5.788   0.938   4.346
 3864TIP3   OH211597   1.619   3.428   4.108
 3864TIP3    H111598   1.618   3.340   4.144
 3864TIP3    H211599   1.554   3.476   4.158
 3865TIP3   OH211600   1.645   1.822   1.134
 3865TIP3    H111601   1.694   1.741   1.143
 3865TIP3    H211602   1.710   1.891   1.143
 3866TIP3   OH211603   5.168   2.099   3.875
 3866TIP3    H111604   5.138   2.162   3.811
 3866TIP3    H211605   5.165   2.015   3.829
 3867TIP3   OH211606   6.270   4.906   0.387
 3867TIP3    H111607   6.271   4.847   0.313
 3867TIP3    H211608   6.359   4.942   0.390
 3868TIP3   OH211609   1.712   1.983   0.141
 3868TIP3    H111610   1.672   2.015   0.222
 3868TIP3    H211611   1.803   2.011   0.147
 3869TIP3   OH211612   0.463   3.035   2.705
 3869TIP3    H111613   0.554   3.023   2.680
 3869TIP3    H211614   0.454   3.130   2.719
 3870TIP3   OH211615   0.206   4.452   4.023
 3870TIP3    H111616   0.125   4.501   4.033
 3870TIP3    H211617   0.180   4.370   3.981
 3871TIP3   OH211618   2.347   3.840   3.749
 3871TIP3    H111619   2.323   3.817   3.659
 3871TIP3    H211620   2.429   3.794   3.765
 3872TIP3   OH211621   2.667   1.509   2.834
 3872TIP3    H111622   2.724   1.433   2.843
 3872TIP3    H211623   2.706   1.574   2.892
 3873TIP3   OH211624   3.024   2.372   2.922
 3873TIP3    H111625   3.068   2.452   2.953
 3873TIP3    H211626   3.040   2.308   2.992
 3874TIP3   OH211627   4.568   3.271   4.418
 3874TIP3    H111628   4.538   3.183   4.394
 3874TIP3    H211629   4.644   3.257   4.475
 3875TIP3   OH211630   0.000   1.812   4.353
 3875TIP3    H111631   0.072   1.863   4.391
 3875TIP3    H211632  -0.024   1.749   4.420
 3876TIP3   OH211633   1.481   3.602   0.969
 3876TIP3    H111634   1.499   3.570   1.057
 3876TIP3    H211635   1.555   3.659   0.948
 3877TIP3   OH211636   0.179   0.229   3.636
 3877TIP3    H111637   0.096   0.189   3.609
 3877TIP3    H211638   0.160   0.266   3.723
 3878TIP3   OH211639   3.986   2.506   2.589
 3878TIP3    H111640   3.956   2.461   2.510
 3878TIP3    H211641   3.970   2.599   2.573
 3879TIP3   OH211642   3.700   5.940   0.342
 3879TIP3    H111643   3.708   5.949   0.437
 3879TIP3    H211644   3.790   5.932   0.311
 3880TIP3   OH211645   4.443   3.419   4.641
 3880TIP3    H111646   4.444   3.393   4.549
 3880TIP3    H211647   4.392   3.351   4.684
 3881TIP3   OH211648   1.419   2.889   1.164
 3881TIP3    H111649   1.428   2.856   1.075
 3881TIP3    H211650   1.388   2.814   1.215
 3882TIP3   OH211651   0.971   0.712   2.860
 3882TIP3    H111652   1.023   0.689   2.937
 3882TIP3    H211653   0.972   0.808   2.859
 3883TIP3   OH211654   0.186   4.328   1.968
 3883TIP3    H111655   0.131   4.367   2.036
 3883TIP3    H211656   0.264   4.299   2.014
 3884TIP3   OH211657   0.429   2.807   1.938
 3884TIP3    H111658   0.470   2.875   1.991
 3884TIP3    H211659   0.503   2.757   1.901
 3885TIP3   OH211660   0.410   3.604   0.669
 3885TIP3    H111661   0.380   3.588   0.579
 3885TIP3    H211662   0.349   3.554   0.724
 3886TIP3   OH211663   2.778   4.284   2.281
 3886TIP3    H111664   2.765   4.372   2.314
 3886TIP3    H211665   2.743   4.286   2.191
 3887TIP3   OH211666   4.124   3.361   1.553
 3887TIP3    H111667   4.210   3.336   1.519
 3887TIP3    H211668   4.091   3.281   1.595
 3888TIP3   OH211669   4.500   4.398   0.416
 3888TIP3    H111670   4.592   4.419   0.400
 3888TIP3    H211671   4.469   4.364   0.332
 3889TIP3   OH211672   3.255   0.030   4.622
 3889TIP3    H111673   3.171   0.031   4.670
 3889TIP3    H211674   3.316   0.073   4.682
 3890TIP3   OH211675   5.030   4.966   3.561
 3890TIP3    H111676   5.117   4.930   3.581
 3890TIP3    H211677   5.043   5.061   3.561
 3891TIP3   OH211678   3.730   1.277   4.940
 3891TIP3    H111679   3.745   1.329   4.861
 3891TIP3    H211680   3.814   1.279   4.986
 3892TIP3   OH211681   0.890   5.567   4.880
 3892TIP3    H111682   0.804   5.560   4.922
 3892TIP3    H211683   0.908   5.479   4.847
 3893TIP3   OH211684   6.372   3.110   4.917
 3893TIP3    H111685   6.352   3.164   4.840
 3893TIP3    H211686   6.287   3.091   4.956
 3894TIP3   OH211687   0.554   3.344   1.483
 3894TIP3    H111688   0.542   3.336   1.388
 3894TIP3    H211689   0.490   3.283   1.520
 3895TIP3   OH211690   0.999   1.491   4.586
 3895TIP3    H111691   0.942   1.457   4.655
 3895TIP3    H211692   0.948   1.481   4.506
 3896TIP3   OH211693   4.515   5.050   4.792
 3896TIP3    H111694   4.436   5.063   4.845
 3896TIP3    H211695   4.483   5.044   4.702
 3897TIP3   OH211696   3.270   3.743   4.126
 3897TIP3    H111697   3.281   3.739   4.221
 3897TIP3    H211698   3.315   3.823   4.100
 3898TIP3   OH211699   2.034   0.468   3.829
 3898TIP3    H111700   1.958   0.411   3.830
 3898TIP3    H211701   2.093   0.431   3.894
 3899TIP3   OH211702   4.732   4.268   4.931
 3899TIP3    H111703   4.666   4.264   4.862
 3899TIP3    H211704   4.809   4.228   4.891
 3900TIP3   OH211705   5.988   5.395   1.045
 3900TIP3    H111706   5.899   5.363   1.054
 3900TIP3    H211707   5.979   5.481   1.004
 3901TIP3   OH211708   4.060   2.219   0.749
 3901TIP3    H111709   4.009   2.206   0.828
 3901TIP3    H211710   4.033   2.148   0.690
 3902TIP3   OH211711   3.722   1.261   0.422
 3902TIP3    H111712   3.757   1.172   0.424
 3902TIP3    H211713   3.686   1.274   0.510
 3903TIP3   OH211714   3.246   0.514   4.131
 3903TIP3    H111715   3.339   0.527   4.116
 3903TIP3    H211716   3.203   0.563   4.061
 3904TIP3   OH211717   3.787   0.288   0.711
 3904TIP3    H111718   3.699   0.323   0.700
 3904TIP3    H211719   3.831   0.304   0.627
 3905TIP3   OH211720   4.026   0.259   2.718
 3905TIP3    H111721   4.040   0.259   2.812
 3905TIP3    H211722   3.935   0.288   2.707
 3906TIP3   OH211723   4.819   1.928   1.634
 3906TIP3    H111724   4.780   1.866   1.572
 3906TIP3    H211725   4.870   1.874   1.694
 3907TIP3   OH211726   2.051   4.419   3.655
 3907TIP3    H111727   2.098   4.498   3.683
 3907TIP3    H211728   2.104   4.346   3.689
 3908TIP3   OH211729   1.107   4.823   1.645
 3908TIP3    H111730   1.050   4.837   1.570
 3908TIP3    H211731   1.177   4.887   1.635
 3909TIP3   OH211732   0.206   1.415   5.084
 3909TIP3    H111733   0.209   1.367   5.001
 3909TIP3    H211734   0.285   1.470   5.081
 3910TIP3   OH211735   3.775   1.580   4.096
 3910TIP3    H111736   3.846   1.523   4.123
 3910TIP3    H211737   3.716   1.581   4.171
 3911TIP3   OH211738   3.038   3.779   5.100
 3911TIP3    H111739   3.039   3.874   5.111
 3911TIP3    H211740   3.118   3.759   5.051
 3912TIP3   OH211741   3.545   0.352   5.017
 3912TIP3    H111742   3.552   0.406   4.938
 3912TIP3    H211743   3.626   0.301   5.019
 3913TIP3   OH211744   4.464   1.966   1.812
 3913TIP3    H111745   4.536   2.005   1.764
 3913TIP3    H211746   4.506   1.915   1.882
 3914TIP3   OH211747   0.452   1.454   4.612
 3914TIP3    H111748   0.438   1.384   4.676
 3914TIP3    H211749   0.510   1.516   4.657
 3915TIP3   OH211750   4.111   1.080   2.248
 3915TIP3    H111751   4.149   1.042   2.169
 3915TIP3    H211752   4.021   1.049   2.248
 3916TIP3   OH211753   5.053   2.480   2.207
 3916TIP3    H111754   5.076   2.553   2.264
 3916TIP3    H211755   5.124   2.417   2.220
 3917TIP3   OH211756   5.936   4.639   2.435
 3917TIP3    H111757   5.911   4.659   2.525
 3917TIP3    H211758   6.030   4.655   2.432
 3918TIP3   OH211759   0.380   5.399   0.547
 3918TIP3    H111760   0.354   5.315   0.511
 3918TIP3    H211761   0.307   5.426   0.603
 3919TIP3   OH211762   0.440   0.738   5.116
 3919TIP3    H111763   0.436   0.819   5.166
 3919TIP3    H211764   0.348   0.715   5.101
 3920TIP3   OH211765   2.580   5.038   1.273
 3920TIP3    H111766   2.640   4.970   1.304
 3920TIP3    H211767   2.541   5.001   1.193
 3921TIP3   OH211768   1.535   2.510   2.882
 3921TIP3    H111769   1.579   2.473   2.805
 3921TIP3    H211770   1.466   2.447   2.902
 3922TIP3   OH211771   2.348   1.123   0.207
 3922TIP3    H111772   2.377   1.197   0.153
 3922TIP3    H211773   2.320   1.162   0.290
 3923TIP3   OH211774   1.743   3.416   1.060
 3923TIP3    H111775   1.812   3.472   1.096
 3923TIP3    H211776   1.671   3.424   1.123
 3924TIP3   OH211777   3.763   4.507   3.357
 3924TIP3    H111778   3.771   4.443   3.427
 3924TIP3    H211779   3.697   4.569   3.389
 3925TIP3   OH211780   3.098   2.791   4.001
 3925TIP3    H111781   3.157   2.795   3.926
 3925TIP3    H211782   3.014   2.822   3.968
 3926TIP3   OH211783   5.960   4.567   1.364
 3926TIP3    H111784   6.027   4.627   1.331
 3926TIP3    H211785   5.885   4.624   1.384
 3927TIP3   OH211786   5.513   4.202   2.957
 3927TIP3    H111787   5.511   4.108   2.973
 3927TIP3    H211788   5.606   4.224   2.954
 3928TIP3   OH211789   4.646   2.920   0.974
 3928TIP3    H111790   4.646   2.852   0.908
 3928TIP3    H211791   4.586   2.888   1.042
 3929TIP3   OH211792   2.175   4.255   4.938
 3929TIP3    H111793   2.259   4.272   4.980
 3929TIP3    H211794   2.157   4.334   4.887
 3930TIP3   OH211795   3.202   4.282   2.863
 3930TIP3    H111796   3.117   4.264   2.824
 3930TIP3    H211797   3.184   4.295   2.956
 3931TIP3   OH211798   3.454   1.204   1.067
 3931TIP3    H111799   3.486   1.279   1.117
 3931TIP3    H211800   3.453   1.132   1.130
 3932TIP3   OH211801   0.633   5.249   4.524
 3932TIP3    H111802   0.703   5.291   4.473
 3932TIP3    H211803   0.565   5.315   4.531
 3933TIP3   OH211804   1.385   1.153   3.339
 3933TIP3    H111805   1.318   1.186   3.279
 3933TIP3    H211806   1.410   1.230   3.391
 3934TIP3   OH211807   4.222   2.556   3.749
 3934TIP3    H111808   4.266   2.617   3.690
 3934TIP3    H211809   4.265   2.472   3.734
 3935TIP3   OH211810   3.385   5.610   4.198
 3935TIP3    H111811   3.398   5.542   4.263
 3935TIP3    H211812   3.343   5.565   4.124
 3936TIP3   OH211813   1.308   1.181   1.396
 3936TIP3    H111814   1.367   1.119   1.440
 3936TIP3    H211815   1.325   1.168   1.302
 3937TIP3   OH211816   5.123   2.745   1.392
 3937TIP3    H111817   5.181   2.780   1.325
 3937TIP3    H211818   5.120   2.651   1.374
 3938TIP3   OH211819   3.767   1.069   3.551
 3938TIP3    H111820   3.713   1.140   3.587
 3938TIP3    H211821   3.854   1.085   3.589
 3939TIP3   OH211822   0.573   3.863   2.702
 3939TIP3    H111823   0.652   3.822   2.739
 3939TIP3    H211824   0.595   3.879   2.610
 3940TIP3   OH211825   6.064   0.751   4.474
 3940TIP3    H111826   6.060   0.846   4.474
 3940TIP3    H211827   6.038   0.725   4.562
 3941TIP3   OH211828   2.387   2.110   4.569
 3941TIP3    H111829   2.362   2.176   4.634
 3941TIP3    H211830   2.344   2.030   4.598
 3942TIP3   OH211831   5.334   1.215   1.884
 3942TIP3    H111832   5.329   1.253   1.972
 3942TIP3    H211833   5.408   1.259   1.843
 3943TIP3   OH211834   2.821   0.751   4.478
 3943TIP3    H111835   2.798   0.660   4.497
 3943TIP3    H211836   2.916   0.753   4.482
 3944TIP3   OH211837   4.030   0.741   2.732
 3944TIP3    H111838   4.093   0.791   2.784
 3944TIP3    H211839   3.986   0.684   2.795
 3945TIP3   OH211840   1.288   3.155   1.394
 3945TIP3    H111841   1.374   3.136   1.358
 3945TIP3    H211842   1.298   3.237   1.442
 3946TIP3   OH211843   5.328   1.045   2.134
 3946TIP3    H111844   5.418   1.078   2.130
 3946TIP3    H211845   5.273   1.123   2.127
 3947TIP3   OH211846   1.798   1.798   3.780
 3947TIP3    H111847   1.773   1.827   3.868
 3947TIP3    H211848   1.730   1.834   3.723
 3948TIP3   OH211849   3.049   3.623   4.737
 3948TIP3    H111850   2.958   3.596   4.720
 3948TIP3    H211851   3.051   3.716   4.716
 3949TIP3   OH211852   0.469   0.003   1.804
 3949TIP3    H111853   0.470   0.098   1.799
 3949TIP3    H211854   0.522  -0.018   1.881
 3950TIP3   OH211855   0.793   3.135   4.772
 3950TIP3    H111856   0.819   3.058   4.822
 3950TIP3    H211857   0.743   3.188   4.834
 3951TIP3   OH211858   1.612   1.641   2.568
 3951TIP3    H111859   1.632   1.588   2.491
 3951TIP3    H211860   1.517   1.645   2.571
 3952TIP3   OH211861   4.739   3.388   2.234
 3952TIP3    H111862   4.744   3.362   2.327
 3952TIP3    H211863   4.764   3.480   2.233
 3953TIP3   OH211864   4.139   3.996   3.856
 3953TIP3    H111865   4.051   4.032   3.852
 3953TIP3    H211866   4.179   4.038   3.932
 3954TIP3   OH211867   0.087   3.555   4.082
 3954TIP3    H111868   0.070   3.560   3.988
 3954TIP3    H211869   0.007   3.591   4.122
 3955TIP3   OH211870   3.248   4.327   4.297
 3955TIP3    H111871   3.290   4.347   4.214
 3955TIP3    H211872   3.219   4.236   4.289
 3956TIP3   OH211873   5.679   3.175   1.534
 3956TIP3    H111874   5.764   3.170   1.490
 3956TIP3    H211875   5.646   3.262   1.512
 3957TIP3   OH211876   4.586   0.381   4.142
 3957TIP3    H111877   4.620   0.437   4.212
 3957TIP3    H211878   4.514   0.431   4.103
 3958TIP3   OH211879   5.065   2.295   4.724
 3958TIP3    H111880   5.009   2.320   4.798
 3958TIP3    H211881   5.073   2.200   4.732
 3959TIP3   OH211882   0.317   1.888   4.747
 3959TIP3    H111883   0.316   1.879   4.842
 3959TIP3    H211884   0.394   1.944   4.729
 3960TIP3   OH211885   2.227   0.671   2.643
 3960TIP3    H111886   2.136   0.692   2.667
 3960TIP3    H211887   2.268   0.757   2.631
 3961TIP3   OH211888   2.801   5.763   1.447
 3961TIP3    H111889   2.765   5.711   1.375
 3961TIP3    H211890   2.760   5.728   1.526
 3962TIP3   OH211891   1.887   3.921   4.145
 3962TIP3    H111892   1.796   3.922   4.115
 3962TIP3    H211893   1.935   3.973   4.080
 3963TIP3   OH211894   0.802   2.217   5.233
 3963TIP3    H111895   0.822   2.125   5.251
 3963TIP3    H211896   0.861   2.242   5.162
 3964TIP3   OH211897   0.610   2.916   2.937
 3964TIP3    H111898   0.546   2.852   2.907
 3964TIP3    H211899   0.573   3.001   2.912
 3965TIP3   OH211900   5.537   1.055   0.598
 3965TIP3    H111901   5.562   1.130   0.652
 3965TIP3    H211902   5.441   1.055   0.599
 3966TIP3   OH211903   4.980   1.816   0.362
 3966TIP3    H111904   4.974   1.830   0.457
 3966TIP3    H211905   5.003   1.724   0.353
 3967TIP3   OH211906   4.294   1.177   4.765
 3967TIP3    H111907   4.342   1.207   4.687
 3967TIP3    H211908   4.286   1.082   4.752
 3968TIP3   OH211909   4.474   4.550   4.689
 3968TIP3    H111910   4.437   4.610   4.624
 3968TIP3    H211911   4.492   4.605   4.765
 3969TIP3   OH211912   0.205   4.463   2.565
 3969TIP3    H111913   0.185   4.373   2.541
 3969TIP3    H211914   0.218   4.508   2.482
 3970TIP3   OH211915   6.056   5.669   3.760
 3970TIP3    H111916   6.047   5.708   3.847
 3970TIP3    H211917   5.966   5.656   3.729
 3971TIP3   OH211918   1.674   1.444   5.118
 3971TIP3    H111919   1.679   1.510   5.187
 3971TIP3    H211920   1.734   1.476   5.050
 3972TIP3   OH211921   0.747   0.385   4.400
 3972TIP3    H111922   0.790   0.304   4.371
 3972TIP3    H211923   0.662   0.356   4.432
 3973TIP3   OH211924   5.019   5.301   5.112
 3973TIP3    H111925   4.929   5.316   5.083
 3973TIP3    H211926   5.011   5.231   5.177
 3974TIP3   OH211927   3.200   4.449   3.884
 3974TIP3    H111928   3.185   4.425   3.792
 3974TIP3    H211929   3.263   4.384   3.915
 3975TIP3   OH211930   3.377   3.229   3.334
 3975TIP3    H111931   3.447   3.269   3.385
 3975TIP3    H211932   3.352   3.295   3.270
 3976TIP3   OH211933   3.322   0.987   1.407
 3976TIP3    H111934   3.246   0.978   1.349
 3976TIP3    H211935   3.285   1.021   1.489
 3977TIP3   OH211936   4.416   3.655   0.851
 3977TIP3    H111937   4.355   3.716   0.810
 3977TIP3    H211938   4.392   3.656   0.944
 3978TIP3   OH211939   5.888   2.677   0.256
 3978TIP3    H111940   5.968   2.651   0.211
 3978TIP3    H211941   5.899   2.646   0.346
 3979TIP3   OH211942   2.144   1.058   3.991
 3979TIP3    H111943   2.135   0.964   4.005
 3979TIP3    H211944   2.080   1.097   4.050
 3980TIP3   OH211945   0.586   4.650   0.430
 3980TIP3    H111946   0.524   4.668   0.359
 3980TIP3    H211947   0.611   4.737   0.462
 3981TIP3   OH211948   1.578   2.087   4.686
 3981TIP3    H111949   1.668   2.112   4.707
 3981TIP3    H211950   1.584   2.047   4.599
 3982TIP3   OH211951   2.955   1.154   0.906
 3982TIP3    H111952   2.988   1.206   0.834
 3982TIP3    H211953   3.025   1.156   0.972
 3983TIP3   OH211954   1.628   4.562   3.626
 3983TIP3    H111955   1.578   4.583   3.706
 3983TIP3    H211956   1.638   4.467   3.628
 3984TIP3   OH211957   2.372   0.929   2.214
 3984TIP3    H111958   2.386   0.842   2.177
 3984TIP3    H211959   2.276   0.937   2.221
 3985TIP3   OH211960   1.696   5.343   1.416
 3985TIP3    H111961   1.617   5.394   1.432
 3985TIP3    H211962   1.718   5.306   1.502
 3986TIP3   OH211963   5.412   2.737   1.342
 3986TIP3    H111964   5.383   2.715   1.431
 3986TIP3    H211965   5.417   2.833   1.342
 3987TIP3   OH211966   5.072   2.385   3.888
 3987TIP3    H111967   5.079   2.387   3.793
 3987TIP3    H211968   5.162   2.373   3.919
 3988TIP3   OH211969   4.012   1.581   1.324
 3988TIP3    H111970   3.981   1.611   1.239
 3988TIP3    H211971   4.100   1.548   1.307
 3989TIP3   OH211972   4.015   0.461   1.589
 3989TIP3    H111973   3.937   0.476   1.536
 3989TIP3    H211974   4.085   0.447   1.525
 3990TIP3   OH211975   4.463   3.793   3.930
 3990TIP3    H111976   4.461   3.873   3.982
 3990TIP3    H211977   4.556   3.776   3.915
 3991TIP3   OH211978   3.502   5.542   0.604
 3991TIP3    H111979   3.570   5.515   0.666
 3991TIP3    H211980   3.525   5.632   0.581
 3992TIP3   OH211981   5.318   3.595   1.457
 3992TIP3    H111982   5.377   3.654   1.503
 3992TIP3    H211983   5.274   3.650   1.392
 3993TIP3   OH211984   1.807   5.638   3.527
 3993TIP3    H111985   1.763   5.620   3.610
 3993TIP3    H211986   1.899   5.647   3.551
 3994TIP3   OH211987   2.545   2.145   3.890
 3994TIP3    H111988   2.558   2.183   3.803
 3994TIP3    H211989   2.452   2.123   3.893
 3995TIP3   OH211990   1.574   4.897   4.371
 3995TIP3    H111991   1.661   4.912   4.335
 3995TIP3    H211992   1.515   4.942   4.311
 3996TIP3   OH211993   0.764   0.004   0.392
 3996TIP3    H111994   0.698   0.045   0.448
 3996TIP3    H211995   0.734   0.023   0.303
 3997TIP3   OH211996   4.436   5.290   1.873
 3997TIP3    H111997   4.385   5.307   1.952
 3997TIP3    H211998   4.393   5.340   1.805
 3998TIP3   OH211999   2.579   2.659   3.040
 3998TIP3    H112000   2.613   2.596   2.978
 3998TIP3    H212001   2.488   2.674   3.013
 3999TIP3   OH212002   1.945   5.036   2.210
 3999TIP3    H112003   1.887   5.028   2.286
 3999TIP3    H212004   1.903   4.984   2.142
 4000TIP3   OH212005   4.238   4.772   4.058
 4000TIP3    H112006   4.198   4.835   3.999
 4000TIP3    H212007   4.205   4.795   4.145
 4001TIP3   OH212008   3.954   2.040  -0.004
 4001TIP3    H112009   3.893   2.041  -0.078
 4001TIP3    H212010   3.907   1.993   0.065
 4002TIP3   OH212011   4.890   2.516   2.895
 4002TIP3    H112012   4.940   2.447   2.852
 4002TIP3    H212013   4.798   2.492   2.879
 4003TIP3   OH212014   1.798   5.854   4.137
 4003TIP3    H112015   1.738   5.783   4.115
 4003TIP3    H212016   1.878   5.810   4.166
 4004TIP3   OH212017   2.960   4.470   0.299
 4004TIP3    H112018   2.891   4.477   0.365
 4004TIP3    H212019   3.029   4.529   0.329
 4005TIP3   OH212020   5.141   4.436   1.088
 4005TIP3    H112021   5.130   4.463   1.179
 4005TIP3    H212022   5.232   4.459   1.068
 4006TIP3   OH212023   2.198  -0.029   2.829
 4006TIP3    H112024   2.227   0.051   2.786
 4006TIP3    H212025   2.106  -0.015   2.847
 4007TIP3   OH212026   5.393   1.585   3.131
 4007TIP3    H112027   5.456   1.531   3.179
 4007TIP3    H212028   5.447   1.640   3.075
 4008TIP3   OH212029   2.698   6.037   1.683
 4008TIP3    H112030   2.638   5.964   1.693
 4008TIP3    H212031   2.759   6.029   1.756
 4009TIP3   OH212032   2.976   0.815   2.807
 4009TIP3    H112033   2.968   0.885   2.742
 4009TIP3    H212034   3.004   0.859   2.887
 4010TIP3   OH212035   5.258   2.343   0.402
 4010TIP3    H112036   5.246   2.249   0.404
 4010TIP3    H212037   5.350   2.356   0.427
 4011TIP3   OH212038   3.606   3.838   2.034
 4011TIP3    H112039   3.573   3.748   2.025
 4011TIP3    H212040   3.671   3.846   1.965
 4012TIP3   OH212041   3.279   5.819   4.347
 4012TIP3    H112042   3.343   5.772   4.294
 4012TIP3    H212043   3.242   5.752   4.404
 4013TIP3   OH212044   0.709   2.326   0.074
 4013TIP3    H112045   0.710   2.310   0.168
 4013TIP3    H212046   0.801   2.325   0.049
 4014TIP3   OH212047   4.056   5.831   3.842
 4014TIP3    H112048   4.150   5.840   3.855
 4014TIP3    H212049   4.042   5.858   3.752
 4015TIP3   OH212050   0.118   4.038   2.227
 4015TIP3    H112051   0.038   4.073   2.189
 4015TIP3    H212052   0.101   3.945   2.239
 4016TIP3   OH212053   6.244   1.907   3.633
 4016TIP3    H112054   6.189   1.950   3.567
 4016TIP3    H212055   6.264   1.975   3.696
 4017TIP3   OH212056   3.231   3.529   2.531
 4017TIP3    H112057   3.299   3.464   2.550
 4017TIP3    H212058   3.217   3.574   2.614
 4018TIP3   OH212059   3.912   0.889   4.287
 4018TIP3    H112060   3.938   0.816   4.231
 4018TIP3    H212061   3.830   0.860   4.328
 4019TIP3   OH212062   5.549   2.546   2.621
 4019TIP3    H112063   5.504   2.471   2.659
 4019TIP3    H212064   5.635   2.513   2.596
 4020TIP3   OH212065   6.349   2.663   3.381
 4020TIP3    H112066   6.443   2.650   3.370
 4020TIP3    H212067   6.309   2.585   3.342
 4021TIP3   OH212068   5.721   2.899   0.569
 4021TIP3    H112069   5.736   2.879   0.661
 4021TIP3    H212070   5.691   2.817   0.531
 4022TIP3   OH212071   0.419   3.156   1.636
 4022TIP3    H112072   0.422   3.202   1.720
 4022TIP3    H212073   0.326   3.150   1.615
 4023TIP3   OH212074   0.665   0.035   3.468
 4023TIP3    H112075   0.667   0.110   3.527
 4023TIP3    H212076   0.756   0.024   3.440
 4024TIP3   OH212077   0.842   1.231   3.617
 4024TIP3    H112078   0.927   1.260   3.651
 4024TIP3    H212079   0.817   1.157   3.673
 4025TIP3   OH212080   4.525   4.100   2.253
 4025TIP3    H112081   4.526   4.074   2.345
 4025TIP3    H212082   4.615   4.088   2.224
 4026TIP3   OH212083   1.270   4.739   2.060
 4026TIP3    H112084   1.317   4.813   2.099
 4026TIP3    H212085   1.212   4.708   2.129
 4027TIP3   OH212086   0.400   3.127   0.527
 4027TIP3    H112087   0.490   3.118   0.559
 4027TIP3    H212088   0.357   3.045   0.554
 4028TIP3   OH212089   5.998   2.385   1.585
 4028TIP3    H112090   5.958   2.321   1.526
 4028TIP3    H212091   6.059   2.434   1.530
 4029TIP3   OH212092   2.556   2.805   3.501
 4029TIP3    H112093   2.611   2.774   3.573
 4029TIP3    H212094   2.551   2.731   3.441
 4030TIP3   OH212095   1.556   1.420   4.427
 4030TIP3    H112096   1.618   1.428   4.500
 4030TIP3    H212097   1.472   1.448   4.465
 4031TIP3   OH212098   3.072   0.431   2.967
 4031TIP3    H112099   2.991   0.479   2.948
 4031TIP3    H212100   3.142   0.492   2.944
 4032TIP3   OH212101   5.394   4.245   2.546
 4032TIP3    H112102   5.414   4.275   2.457
 4032TIP3    H212103   5.479   4.224   2.584
 4033TIP3   OH212104   4.446   2.098   4.510
 4033TIP3    H112105   4.449   2.190   4.484
 4033TIP3    H212106   4.500   2.053   4.445
 4034TIP3   OH212107   5.926   0.601   4.292
 4034TIP3    H112108   5.968   0.654   4.360
 4034TIP3    H212109   5.989   0.530   4.275
 4035TIP3   OH212110   3.799   5.279   2.498
 4035TIP3    H112111   3.838   5.236   2.422
 4035TIP3    H212112   3.807   5.215   2.569
 4036TIP3   OH212113   2.531   3.825   2.166
 4036TIP3    H112114   2.494   3.811   2.253
 4036TIP3    H212115   2.455   3.829   2.108
 4037TIP3   OH212116   2.290   4.428   2.565
 4037TIP3    H112117   2.351   4.364   2.601
 4037TIP3    H212118   2.203   4.392   2.585
 4038TIP3   OH212119   4.883   1.307   0.451
 4038TIP3    H112120   4.978   1.302   0.464
 4038TIP3    H212121   4.847   1.302   0.540
 4039TIP3   OH212122   5.543   4.087   1.091
 4039TIP3    H112123   5.550   4.017   1.155
 4039TIP3    H212124   5.528   4.166   1.144
 4040TIP3   OH212125   0.543   5.792   2.651
 4040TIP3    H112126   0.581   5.811   2.737
 4040TIP3    H212127   0.472   5.856   2.642
 4041TIP3   OH212128   6.222   4.139   0.979
 4041TIP3    H112129   6.143   4.188   1.002
 4041TIP3    H212130   6.190   4.056   0.944
 4042TIP3   OH212131   1.303   1.298   1.858
 4042TIP3    H112132   1.349   1.355   1.796
 4042TIP3    H212133   1.210   1.310   1.836
 4043TIP3   OH212134   0.615   2.519   3.518
 4043TIP3    H112135   0.626   2.435   3.563
 4043TIP3    H212136   0.566   2.497   3.438
 4044TIP3   OH212137   2.816   2.054   2.649
 4044TIP3    H112138   2.894   2.061   2.595
 4044TIP3    H212139   2.752   2.111   2.605
 4045TIP3   OH212140   3.311   4.131   1.875
 4045TIP3    H112141   3.377   4.192   1.908
 4045TIP3    H212142   3.362   4.065   1.827
 4046TIP3   OH212143   4.302   4.465   1.537
 4046TIP3    H112144   4.319   4.551   1.575
 4046TIP3    H212145   4.282   4.483   1.445
 4047TIP3   OH212146   4.452   2.174   2.504
 4047TIP3    H112147   4.360   2.196   2.523
 4047TIP3    H212148   4.498   2.258   2.508
 4048TIP3   OH212149   0.408   2.306   3.083
 4048TIP3    H112150   0.501   2.303   3.062
 4048TIP3    H212151   0.375   2.220   3.059
 4049TIP3   OH212152   5.156   0.774   0.143
 4049TIP3    H112153   5.249   0.753   0.135
 4049TIP3    H212154   5.151   0.832   0.219
 4050TIP3   OH212155   1.996   5.521   3.745
 4050TIP3    H112156   1.988   5.609   3.782
 4050TIP3    H212157   2.059   5.531   3.674
 4051TIP3   OH212158   2.695   2.539   1.563
 4051TIP3    H112159   2.638   2.560   1.489
 4051TIP3    H212160   2.689   2.444   1.573
 4052TIP3   OH212161   0.882   1.529   4.124
 4052TIP3    H112162   0.956   1.501   4.071
 4052TIP3    H212163   0.912   1.609   4.167
 4053TIP3   OH212164   0.713   5.016   4.647
 4053TIP3    H112165   0.701   5.094   4.593
 4053TIP3    H212166   0.644   5.023   4.714
 4054TIP3   OH212167   4.001   0.043   1.613
 4054TIP3    H112168   4.012  -0.034   1.558
 4054TIP3    H212169   4.090   0.077   1.624
 4055TIP3   OH212170   4.739   3.261   2.002
 4055TIP3    H112171   4.813   3.203   2.019
 4055TIP3    H212172   4.720   3.301   2.087
 4056TIP3   OH212173   2.531   0.886   0.625
 4056TIP3    H112174   2.522   0.855   0.715
 4056TIP3    H212175   2.623   0.869   0.603
 4057TIP3   OH212176   1.442   3.120   4.451
 4057TIP3    H112177   1.490   3.160   4.524
 4057TIP3    H212178   1.375   3.184   4.428
 4058TIP3   OH212179   1.988   2.651   1.074
 4058TIP3    H112180   2.042   2.596   1.016
 4058TIP3    H212181   1.913   2.595   1.096
 4059TIP3   OH212182   0.332   2.527   3.949
 4059TIP3    H112183   0.250   2.483   3.925
 4059TIP3    H212184   0.398   2.458   3.943
 4060TIP3   OH212185   4.066   2.178   3.216
 4060TIP3    H112186   4.115   2.251   3.178
 4060TIP3    H212187   3.978   2.214   3.232
 4061TIP3   OH212188   0.115   2.920   3.052
 4061TIP3    H112189   0.166   2.996   3.024
 4061TIP3    H212190   0.081   2.943   3.138
 4062TIP3   OH212191   3.884   1.540   3.392
 4062TIP3    H112192   3.926   1.454   3.392
 4062TIP3    H212193   3.873   1.561   3.485
 4063TIP3   OH212194   3.408   0.762   1.572
 4063TIP3    H112195   3.369   0.679   1.546
 4063TIP3    H212196   3.364   0.828   1.518
 4064TIP3   OH212197   2.423   5.361   2.707
 4064TIP3    H112198   2.418   5.404   2.621
 4064TIP3    H212199   2.416   5.268   2.687
 4065TIP3   OH212200   1.338   1.271   0.376
 4065TIP3    H112201   1.295   1.349   0.411
 4065TIP3    H212202   1.348   1.289   0.283
 4066TIP3   OH212203   3.634   3.380   2.347
 4066TIP3    H112204   3.553   3.405   2.301
 4066TIP3    H212205   3.605   3.357   2.435
 4067TIP3   OH212206   3.719   5.011   4.541
 4067TIP3    H112207   3.680   5.039   4.458
 4067TIP3    H212208   3.683   4.924   4.557
 4068TIP3   OH212209   0.377   3.284   1.874
 4068TIP3    H112210   0.342   3.226   1.941
 4068TIP3    H212211   0.300   3.332   1.842
 4069TIP3   OH212212   4.398   3.255   1.745
 4069TIP3    H112213   4.335   3.226   1.811
 4069TIP3    H212214   4.476   3.201   1.762
 4070TIP3   OH212215   0.838   0.515   1.279
 4070TIP3    H112216   0.763   0.511   1.337
 4070TIP3    H212217   0.832   0.602   1.238
 4071TIP3   OH212218   0.813   5.343   0.162
 4071TIP3    H112219   0.830   5.430   0.126
 4071TIP3    H212220   0.863   5.341   0.244
 4072TIP3   OH212221   2.785   3.548   3.937
 4072TIP3    H112222   2.799   3.574   4.027
 4072TIP3    H212223   2.869   3.561   3.894
 4073TIP3   OH212224   3.586   5.093   1.194
 4073TIP3    H112225   3.501   5.050   1.187
 4073TIP3    H212226   3.650   5.025   1.170
 4074TIP3   OH212227   5.964   1.385   0.837
 4074TIP3    H112228   5.982   1.478   0.823
 4074TIP3    H212229   6.043   1.340   0.804
 4075TIP3   OH212230   0.469   3.363   1.188
 4075TIP3    H112231   0.560   3.374   1.163
 4075TIP3    H212232   0.443   3.280   1.147
 4076TIP3   OH212233   2.350   5.076   1.587
 4076TIP3    H112234   2.413   5.141   1.557
 4076TIP3    H212235   2.265   5.115   1.569
 4077TIP3   OH212236   4.181   3.294   2.896
 4077TIP3    H112237   4.089   3.284   2.869
 4077TIP3    H212238   4.224   3.215   2.863
 4078TIP3   OH212239   3.405   1.903   3.635
 4078TIP3    H112240   3.486   1.930   3.678
 4078TIP3    H212241   3.335   1.935   3.692
 4079TIP3   OH212242   6.288   4.769   1.653
 4079TIP3    H112243   6.286   4.859   1.622
 4079TIP3    H212244   6.304   4.716   1.575
 4080TIP3   OH212245   3.876   3.633   2.060
 4080TIP3    H112246   3.918   3.700   2.006
 4080TIP3    H212247   3.799   3.607   2.010
 4081TIP3   OH212248   1.356   5.586   3.378
 4081TIP3    H112249   1.352   5.502   3.422
 4081TIP3    H212250   1.441   5.622   3.402
 4082TIP3   OH212251   3.153   1.681   3.305
 4082TIP3    H112252   3.129   1.743   3.374
 4082TIP3    H212253   3.227   1.632   3.341
 4083TIP3   OH212254   0.672   4.061   1.853
 4083TIP3    H112255   0.591   4.111   1.853
 4083TIP3    H212256   0.705   4.070   1.942
 4084TIP3   OH212257   3.791   1.186   1.702
 4084TIP3    H112258   3.803   1.271   1.743
 4084TIP3    H212259   3.731   1.139   1.760
 4085TIP3   OH212260   5.491   3.247   0.076
 4085TIP3    H112261   5.457   3.197   0.002
 4085TIP3    H212262   5.442   3.329   0.075
 4086TIP3   OH212263   2.506   0.841   5.032
 4086TIP3    H112264   2.497   0.895   4.953
 4086TIP3    H212265   2.420   0.845   5.074
 4087TIP3   OH212266   1.092   1.335   4.246
 4087TIP3    H112267   1.061   1.295   4.165
 4087TIP3    H212268   1.156   1.272   4.280
 4088TIP3   OH212269   3.656   4.473   3.781
 4088TIP3    H112270   3.693   4.472   3.870
 4088TIP3    H212271   3.642   4.566   3.762
 4089TIP3   OH212272   5.212   2.675   4.090
 4089TIP3    H112273   5.123   2.645   4.110
 4089TIP3    H212274   5.247   2.609   4.031
 4090TIP3   OH212275   3.849   3.084   4.778
 4090TIP3    H112276   3.890   3.004   4.745
 4090TIP3    H212277   3.813   3.126   4.700
 4091TIP3   OH212278   2.939   0.756   3.931
 4091TIP3    H112279   3.011   0.697   3.907
 4091TIP3    H212280   2.982   0.837   3.957
 4092TIP3   OH212281   2.120   4.818   0.033
 4092TIP3    H112282   2.106   4.745  -0.027
 4092TIP3    H212283   2.039   4.822   0.084
 4093TIP3   OH212284   1.267   5.799   2.011
 4093TIP3    H112285   1.229   5.883   2.037
 4093TIP3    H212286   1.192   5.748   1.981
 4094TIP3   OH212287   3.420   0.600   2.399
 4094TIP3    H112288   3.409   0.505   2.401
 4094TIP3    H212289   3.336   0.633   2.366
 4095TIP3   OH212290   1.699   0.518   0.507
 4095TIP3    H112291   1.646   0.484   0.579
 4095TIP3    H212292   1.781   0.469   0.513
 4096TIP3   OH212293   5.233   2.727   2.241
 4096TIP3    H112294   5.320   2.754   2.270
 4096TIP3    H212295   5.195   2.805   2.203
 4097TIP3   OH212296   1.114   2.546   1.769
 4097TIP3    H112297   1.058   2.613   1.728
 4097TIP3    H212298   1.054   2.475   1.790
 4098TIP3   OH212299   3.019   5.212   4.438
 4098TIP3    H112300   3.033   5.260   4.520
 4098TIP3    H212301   2.934   5.170   4.449
 4099TIP3   OH212302   2.785   5.825   3.290
 4099TIP3    H112303   2.799   5.737   3.255
 4099TIP3    H212304   2.705   5.856   3.249
 4100TIP3   OH212305   3.398   3.465   3.859
 4100TIP3    H112306   3.460   3.487   3.929
 4100TIP3    H212307   3.404   3.370   3.852
 4101TIP3   OH212308   0.847   1.614   1.382
 4101TIP3    H112309   0.768   1.659   1.413
 4101TIP3    H212310   0.817   1.561   1.309
 4102TIP3   OH212311   5.603   1.468   0.243
 4102TIP3    H112312   5.619   1.561   0.230
 4102TIP3    H212313   5.689   1.427   0.233
 4103TIP3   OH212314   5.655   3.186   0.473
 4103TIP3    H112315   5.578   3.208   0.421
 4103TIP3    H212316   5.678   3.267   0.517
 4104TIP3   OH212317   6.341   5.747   3.707
 4104TIP3    H112318   6.335   5.843   3.704
 4104TIP3    H212319   6.259   5.720   3.748
 4105TIP3   OH212320   5.410   2.045   4.721
 4105TIP3    H112321   5.439   2.129   4.685
 4105TIP3    H212322   5.462   1.980   4.674
 4106TIP3   OH212323   1.492   3.604   4.257
 4106TIP3    H112324   1.455   3.675   4.309
 4106TIP3    H212325   1.523   3.541   4.322
 4107TIP3   OH212326   1.425   0.855   1.904
 4107TIP3    H112327   1.466   0.844   1.819
 4107TIP3    H212328   1.331   0.844   1.887
 4108TIP3   OH212329   0.354   1.933   2.184
 4108TIP3    H112330   0.303   1.866   2.230
 4108TIP3    H212331   0.443   1.924   2.219
 4109TIP3   OH212332   1.524   0.929   3.596
 4109TIP3    H112333   1.594   0.955   3.536
 4109TIP3    H212334   1.461   0.882   3.541
 4110TIP3   OH212335   1.166   1.303   3.633
 4110TIP3    H112336   1.243   1.267   3.676
 4110TIP3    H212337   1.163   1.395   3.661
 4111TIP3   OH212338   5.798   5.540   3.325
 4111TIP3    H112339   5.885   5.547   3.285
 4111TIP3    H212340   5.775   5.630   3.347
 4112TIP3   OH212341   1.703   0.206   1.585
 4112TIP3    H112342   1.682   0.112   1.584
 4112TIP3    H212343   1.631   0.246   1.635
 4113TIP3   OH212344   2.854   0.288   3.233
 4113TIP3    H112345   2.946   0.313   3.246
 4113TIP3    H212346   2.855   0.235   3.153
 4114TIP3   OH212347   5.166   4.506   1.372
 4114TIP3    H112348   5.109   4.500   1.449
 4114TIP3    H212349   5.178   4.600   1.358
 4115TIP3   OH212350   4.860   1.466   4.136
 4115TIP3    H112351   4.909   1.470   4.053
 4115TIP3    H212352   4.923   1.496   4.202
 4116TIP3   OH212353   4.783   5.117   1.454
 4116TIP3    H112354   4.784   5.021   1.454
 4116TIP3    H212355   4.876   5.142   1.449
 4117TIP3   OH212356   4.268   1.180   5.027
 4117TIP3    H112357   4.179   1.214   5.031
 4117TIP3    H212358   4.282   1.162   4.934
 4118TIP3   OH212359   6.279   5.323   2.605
 4118TIP3    H112360   6.327   5.241   2.602
 4118TIP3    H212361   6.337   5.387   2.564
 4119TIP3   OH212362   5.818   4.235   4.127
 4119TIP3    H112363   5.840   4.327   4.115
 4119TIP3    H212364   5.898   4.195   4.160
 4120TIP3   OH212365   1.678   4.981   1.490
 4120TIP3    H112366   1.700   5.038   1.564
 4120TIP3    H212367   1.607   4.925   1.524
 4121TIP3   OH212368   3.673   5.276   4.726
 4121TIP3    H112369   3.600   5.270   4.787
 4121TIP3    H212370   3.704   5.366   4.734
 4122TIP3   OH212371   4.168   2.513   3.270
 4122TIP3    H112372   4.172   2.492   3.177
 4122TIP3    H212373   4.192   2.432   3.314
 4123TIP3   OH212374   5.329   3.890   0.267
 4123TIP3    H112375   5.345   3.982   0.247
 4123TIP3    H212376   5.416   3.854   0.284
 4124TIP3   OH212377   4.926   1.208   0.184
 4124TIP3    H112378   5.018   1.191   0.204
 4124TIP3    H212379   4.896   1.127   0.144
 4125TIP3   OH212380   1.744   1.036  -0.005
 4125TIP3    H112381   1.734   1.124   0.032
 4125TIP3    H212382   1.780   1.052  -0.093
 4126TIP3   OH212383   2.669   5.481   4.471
 4126TIP3    H112384   2.715   5.447   4.547
 4126TIP3    H212385   2.737   5.523   4.418
 4127TIP3   OH212386   2.736   2.419   4.805
 4127TIP3    H112387   2.763   2.343   4.856
 4127TIP3    H212388   2.706   2.482   4.869
 4128TIP3   OH212389   4.298   2.143   2.211
 4128TIP3    H112390   4.331   2.059   2.245
 4128TIP3    H212391   4.304   2.203   2.285
 4129TIP3   OH212392   4.048   5.219   3.380
 4129TIP3    H112393   4.126   5.164   3.387
 4129TIP3    H212394   3.999   5.183   3.306
 4130TIP3   OH212395   3.545   4.620   2.453
 4130TIP3    H112396   3.518   4.622   2.545
 4130TIP3    H212397   3.508   4.539   2.419
 4131TIP3   OH212398   1.493   5.677   2.079
 4131TIP3    H112399   1.530   5.701   2.164
 4131TIP3    H212400   1.422   5.739   2.065
 4132TIP3   OH212401   6.149   0.464   0.599
 4132TIP3    H112402   6.073   0.511   0.564
 4132TIP3    H212403   6.138   0.375   0.568
 4133TIP3   OH212404   1.934   2.462   3.044
 4133TIP3    H112405   1.973   2.379   3.070
 4133TIP3    H212406   1.992   2.494   2.975
 4134TIP3   OH212407   3.543   1.128   1.814
 4134TIP3    H112408   3.544   1.184   1.891
 4134TIP3    H212409   3.517   1.042   1.848
 4135TIP3   OH212410   2.312   4.179   0.916
 4135TIP3    H112411   2.380   4.220   0.863
 4135TIP3    H212412   2.237   4.238   0.909
 4136TIP3   OH212413   3.106   3.393   5.026
 4136TIP3    H112414   3.172   3.383   4.956
 4136TIP3    H212415   3.157   3.394   5.107
 4137TIP3   OH212416   3.973   1.163   2.696
 4137TIP3    H112417   4.039   1.131   2.634
 4137TIP3    H212418   3.988   1.111   2.775
 4138TIP3   OH212419   4.785   2.199   2.937
 4138TIP3    H112420   4.721   2.137   2.903
 4138TIP3    H212421   4.772   2.278   2.883
 4139TIP3   OH212422   3.775   2.528   2.796
 4139TIP3    H112423   3.736   2.440   2.797
 4139TIP3    H212424   3.840   2.524   2.725
 4140TIP3   OH212425   3.655   4.571   2.738
 4140TIP3    H112426   3.572   4.525   2.739
 4140TIP3    H212427   3.721   4.502   2.729
 4141TIP3   OH212428   4.402   4.674   0.169
 4141TIP3    H112429   4.416   4.732   0.094
 4141TIP3    H212430   4.375   4.591   0.130
 4142TIP3   OH212431   2.087   3.285   1.948
 4142TIP3    H112432   2.142   3.212   1.918
 4142TIP3    H212433   2.035   3.308   1.872
 4143TIP3   OH212434   1.686   0.694   3.113
 4143TIP3    H112435   1.670   0.789   3.108
 4143TIP3    H212436   1.779   0.687   3.132
 4144TIP3   OH212437   1.788   3.551   1.905
 4144TIP3    H112438   1.811   3.610   1.977
 4144TIP3    H212439   1.814   3.464   1.935
 4145TIP3   OH212440   1.526   4.871   2.531
 4145TIP3    H112441   1.544   4.913   2.616
 4145TIP3    H212442   1.532   4.777   2.549
 4146TIP3   OH212443   0.467   4.293   0.367
 4146TIP3    H112444   0.529   4.256   0.304
 4146TIP3    H212445   0.522   4.335   0.433
 4147TIP3   OH212446   2.005   1.347   3.657
 4147TIP3    H112447   2.035   1.256   3.663
 4147TIP3    H212448   1.910   1.342   3.662
 4148TIP3   OH212449   0.692   0.658   3.754
 4148TIP3    H112450   0.730   0.682   3.838
 4148TIP3    H212451   0.729   0.721   3.692
 4149TIP3   OH212452   0.159   3.257   0.471
 4149TIP3    H112453   0.238   3.209   0.494
 4149TIP3    H212454   0.132   3.300   0.552
 4150TIP3   OH212455   2.886   2.074   0.535
 4150TIP3    H112456   2.833   2.074   0.455
 4150TIP3    H212457   2.925   2.161   0.538
 4151TIP3   OH212458   1.032   2.702   1.198
 4151TIP3    H112459   0.966   2.768   1.175
 4151TIP3    H212460   1.013   2.628   1.141
 4152TIP3   OH212461   4.881   4.895   3.206
 4152TIP3    H112462   4.846   4.854   3.127
 4152TIP3    H212463   4.870   4.828   3.274
 4153TIP3   OH212464   2.780   2.659   4.654
 4153TIP3    H112465   2.852   2.638   4.596
 4153TIP3    H212466   2.783   2.592   4.722
 4154TIP3   OH212467   3.879   5.151   3.137
 4154TIP3    H112468   3.943   5.104   3.083
 4154TIP3    H212469   3.807   5.089   3.149
 4155TIP3   OH212470   3.205   2.585   1.408
 4155TIP3    H112471   3.124   2.628   1.436
 4155TIP3    H212472   3.238   2.542   1.487
 4156TIP3   OH212473   1.867   2.287   2.297
 4156TIP3    H112474   1.908   2.230   2.362
 4156TIP3    H212475   1.938   2.313   2.239
 4157TIP3   OH212476   5.072   4.140   0.455
 4157TIP3    H112477   5.106   4.152   0.544
 4157TIP3    H212478   5.143   4.169   0.398
 4158TIP3   OH212479   3.923   0.591   0.764
 4158TIP3    H112480   3.837   0.572   0.801
 4158TIP3    H212481   3.941   0.517   0.706
 4159TIP3   OH212482   4.718   1.445   1.242
 4159TIP3    H112483   4.694   1.396   1.321
 4159TIP3    H212484   4.694   1.535   1.262
 4160TIP3   OH212485   0.961   4.815   3.648
 4160TIP3    H112486   0.898   4.885   3.666
 4160TIP3    H212487   0.919   4.762   3.580
 4161TIP3   OH212488   5.449   3.779   5.143
 4161TIP3    H112489   5.358   3.810   5.141
 4161TIP3    H212490   5.498   3.851   5.182
 4162TIP3   OH212491   0.787   5.515   3.323
 4162TIP3    H112492   0.773   5.488   3.233
 4162TIP3    H212493   0.759   5.439   3.375
 4163TIP3   OH212494   0.636   4.982   2.422
 4163TIP3    H112495   0.721   5.021   2.401
 4163TIP3    H212496   0.583   4.995   2.344
 4164TIP3   OH212497   4.522   5.748   2.215
 4164TIP3    H112498   4.434   5.749   2.252
 4164TIP3    H212499   4.532   5.835   2.175
 4165TIP3   OH212500   5.887   3.797   2.707
 4165TIP3    H112501   5.800   3.826   2.735
 4165TIP3    H212502   5.903   3.718   2.757
 4166TIP3   OH212503   0.688   4.209   4.182
 4166TIP3    H112504   0.718   4.206   4.091
 4166TIP3    H212505   0.707   4.122   4.217
 4167TIP3   OH212506   5.696   5.649   2.616
 4167TIP3    H112507   5.729   5.648   2.526
 4167TIP3    H212508   5.603   5.670   2.608
 4168TIP3   OH212509   4.596   5.581  -0.002
 4168TIP3    H112510   4.657   5.514  -0.032
 4168TIP3    H212511   4.554   5.542   0.075
 4169TIP3   OH212512   0.267   3.795   5.082
 4169TIP3    H112513   0.220   3.776   5.001
 4169TIP3    H212514   0.199   3.793   5.150
 4170TIP3   OH212515   5.487   2.097   4.995
 4170TIP3    H112516   5.456   2.093   4.905
 4170TIP3    H212517   5.507   2.190   5.009
 4171TIP3   OH212518   0.548   2.239   3.554
 4171TIP3    H112519   0.469   2.215   3.603
 4171TIP3    H212520   0.620   2.198   3.601
 4172TIP3   OH212521   2.158   4.045   3.730
 4172TIP3    H112522   2.192   4.107   3.665
 4172TIP3    H212523   2.227   3.980   3.739
 4173TIP3   OH212524   4.350   2.748   1.633
 4173TIP3    H112525   4.434   2.760   1.677
 4173TIP3    H212526   4.352   2.809   1.559
 4174TIP3   OH212527   2.292   1.141   2.779
 4174TIP3    H112528   2.366   1.202   2.780
 4174TIP3    H212529   2.312   1.077   2.847
 4175TIP3   OH212530   4.284   4.636   2.729
 4175TIP3    H112531   4.343   4.577   2.683
 4175TIP3    H212532   4.211   4.579   2.756
 4176TIP3   OH212533   3.147   2.556   0.662
 4176TIP3    H112534   3.183   2.508   0.736
 4176TIP3    H212535   3.108   2.634   0.700
 4177TIP3   OH212536   2.681   5.643   1.676
 4177TIP3    H112537   2.709   5.618   1.764
 4177TIP3    H212538   2.616   5.712   1.690
 4178TIP3   OH212539   3.781   5.057   1.903
 4178TIP3    H112540   3.798   4.976   1.854
 4178TIP3    H212541   3.757   5.121   1.836
 4179TIP3   OH212542   5.033   0.657   1.460
 4179TIP3    H112543   5.020   0.699   1.545
 4179TIP3    H212544   5.123   0.679   1.436
 4180TIP3   OH212545   4.509   3.072   4.692
 4180TIP3    H112546   4.582   3.011   4.685
 4180TIP3    H212547   4.466   3.067   4.607
 4181TIP3   OH212548   3.359   2.547   2.230
 4181TIP3    H112549   3.342   2.475   2.169
 4181TIP3    H212550   3.448   2.531   2.262
 4182TIP3   OH212551   3.970   0.967   3.306
 4182TIP3    H112552   4.019   0.967   3.224
 4182TIP3    H212553   3.905   1.036   3.295
 4183TIP3   OH212554   1.440   4.472   0.111
 4183TIP3    H112555   1.520   4.512   0.146
 4183TIP3    H212556   1.457   4.461   0.018
 4184TIP3   OH212557   1.056   2.109   2.837
 4184TIP3    H112558   0.980   2.158   2.805
 4184TIP3    H212559   1.053   2.120   2.932
 4185TIP3   OH212560   4.491   5.078   1.646
 4185TIP3    H112561   4.503   5.173   1.647
 4185TIP3    H212562   4.406   5.064   1.689
 4186TIP3   OH212563   3.070   2.931   2.046
 4186TIP3    H112564   3.068   2.894   2.134
 4186TIP3    H212565   3.147   2.988   2.046
 4187TIP3   OH212566   3.152   2.887   3.732
 4187TIP3    H112567   3.098   2.952   3.777
 4187TIP3    H212568   3.206   2.939   3.672
 4188TIP3   OH212569   2.339   4.542   4.227
 4188TIP3    H112570   2.387   4.515   4.148
 4188TIP3    H212571   2.251   4.508   4.214
 4189TIP3   OH212572   3.198   0.655   3.625
 4189TIP3    H112573   3.178   0.734   3.573
 4189TIP3    H212574   3.129   0.593   3.601
 4190TIP3   OH212575   5.393   1.398   3.919
 4190TIP3    H112576   5.388   1.330   3.986
 4190TIP3    H212577   5.313   1.448   3.930
 4191TIP3   OH212578   0.881   2.402   1.576
 4191TIP3    H112579   0.802   2.439   1.537
 4191TIP3    H212580   0.951   2.462   1.550
 4192TIP3   OH212581   0.917   3.451   4.913
 4192TIP3    H112582   0.877   3.528   4.954
 4192TIP3    H212583   1.002   3.443   4.956
 4193TIP3   OH212584   4.983   2.109   0.063
 4193TIP3    H112585   4.980   2.205   0.065
 4193TIP3    H212586   4.965   2.086  -0.028
 4194TIP3   OH212587   3.105   2.435   3.282
 4194TIP3    H112588   3.080   2.471   3.198
 4194TIP3    H212589   3.121   2.342   3.265
 4195TIP3   OH212590   3.402   2.338   1.400
 4195TIP3    H112591   3.443   2.365   1.482
 4195TIP3    H212592   3.450   2.385   1.333
 4196TIP3   OH212593   3.237   2.799   1.832
 4196TIP3    H112594   3.279   2.874   1.790
 4196TIP3    H212595   3.178   2.838   1.897
 4197TIP3   OH212596   0.421   4.940   1.714
 4197TIP3    H112597   0.454   4.850   1.715
 4197TIP3    H212598   0.423   4.965   1.621
 4198TIP3   OH212599   3.335   0.419   3.642
 4198TIP3    H112600   3.335   0.392   3.550
 4198TIP3    H212601   3.283   0.500   3.643
 4199TIP3   OH212602   6.067   2.415   0.869
 4199TIP3    H112603   6.110   2.427   0.954
 4199TIP3    H212604   6.031   2.327   0.873
 4200TIP3   OH212605   2.948   5.424   2.260
 4200TIP3    H112606   2.925   5.398   2.171
 4200TIP3    H212607   2.970   5.342   2.304
 4201TIP3   OH212608   1.269   5.884   3.480
 4201TIP3    H112609   1.322   5.814   3.439
 4201TIP3    H212610   1.333   5.952   3.501
 4202TIP3   OH212611   6.163   4.299   1.963
 4202TIP3    H112612   6.205   4.384   1.972
 4202TIP3    H212613   6.089   4.302   2.023
 4203TIP3   OH212614   5.525   3.280   2.335
 4203TIP3    H112615   5.477   3.328   2.268
 4203TIP3    H212616   5.603   3.246   2.290
 4204TIP3   OH212617   5.807   0.685   1.803
 4204TIP3    H112618   5.737   0.722   1.858
 4204TIP3    H212619   5.797   0.729   1.719
 4205TIP3   OH212620   2.056   1.069   4.461
 4205TIP3    H112621   2.040   1.163   4.450
 4205TIP3    H212622   2.137   1.065   4.511
 4206TIP3   OH212623   1.052   6.014   1.588
 4206TIP3    H112624   1.141   6.016   1.624
 4206TIP3    H212625   1.029   5.921   1.584
 4207TIP3   OH212626   0.519   2.051   4.645
 4207TIP3    H112627   0.605   2.013   4.660
 4207TIP3    H212628   0.535   2.129   4.593
 4208TIP3   OH212629   0.637   3.492   3.472
 4208TIP3    H112630   0.694   3.567   3.489
 4208TIP3    H212631   0.668   3.424   3.531
 4209TIP3   OH212632   2.447   0.812   3.927
 4209TIP3    H112633   2.415   0.724   3.904
 4209TIP3    H212634   2.530   0.797   3.972
 4210TIP3   OH212635   3.332   3.635   0.263
 4210TIP3    H112636   3.340   3.716   0.212
 4210TIP3    H212637   3.358   3.566   0.202
 4211TIP3   OH212638   1.669   2.442   0.307
 4211TIP3    H112639   1.661   2.511   0.240
 4211TIP3    H212640   1.579   2.414   0.323
 4212TIP3   OH212641   5.799   5.784   3.609
 4212TIP3    H112642   5.835   5.851   3.667
 4212TIP3    H212643   5.763   5.718   3.668
 4213TIP3   OH212644   3.042   0.213   4.004
 4213TIP3    H112645   3.104   0.273   3.964
 4213TIP3    H212646   2.958   0.260   4.001
 4214TIP3   OH212647   3.607   5.781   4.174
 4214TIP3    H112648   3.523   5.736   4.182
 4214TIP3    H212649   3.584   5.873   4.159
 4215TIP3   OH212650   3.477   2.243   4.729
 4215TIP3    H112651   3.571   2.259   4.735
 4215TIP3    H212652   3.448   2.236   4.820
 4216TIP3   OH212653   4.967   5.524   1.192
 4216TIP3    H112654   5.013   5.495   1.271
 4216TIP3    H212655   5.035   5.526   1.125
 4217TIP3   OH212656   4.355   2.698   5.014
 4217TIP3    H112657   4.375   2.685   5.107
 4217TIP3    H212658   4.262   2.720   5.013
 4218TIP3   OH212659   2.015   1.988   2.113
 4218TIP3    H112660   2.018   1.893   2.126
 4218TIP3    H212661   2.094   2.021   2.154
 4219TIP3   OH212662   4.275   3.801   0.159
 4219TIP3    H112663   4.240   3.726   0.110
 4219TIP3    H212664   4.337   3.842   0.099
 4220TIP3   OH212665   5.929   4.185   1.152
 4220TIP3    H112666   6.004   4.192   1.212
 4220TIP3    H212667   5.911   4.091   1.147
 4221TIP3   OH212668   4.216   0.206   1.641
 4221TIP3    H112669   4.280   0.260   1.687
 4221TIP3    H212670   4.244   0.207   1.550
 4222TIP3   OH212671   0.898   3.403   3.920
 4222TIP3    H112672   0.993   3.398   3.911
 4222TIP3    H212673   0.882   3.494   3.946
 4223TIP3   OH212674   0.413   1.294   2.101
 4223TIP3    H112675   0.462   1.233   2.046
 4223TIP3    H212676   0.350   1.336   2.041
 4224TIP3   OH212677   6.001   0.105   0.885
 4224TIP3    H112678   6.011   0.147   0.970
 4224TIP3    H212679   6.090   0.081   0.859
 4225TIP3   OH212680   6.257   5.138   3.180
 4225TIP3    H112681   6.173   5.096   3.164
 4225TIP3    H212682   6.298   5.143   3.094
 4226TIP3   OH212683   2.426   3.063   1.526
 4226TIP3    H112684   2.363   2.998   1.557
 4226TIP3    H212685   2.397   3.083   1.437
 4227TIP3   OH212686   5.152   3.649   4.943
 4227TIP3    H112687   5.207   3.592   4.996
 4227TIP3    H212688   5.068   3.604   4.936
 4228TIP3   OH212689   0.599   4.357   0.073
 4228TIP3    H112690   0.595   4.453   0.069
 4228TIP3    H212691   0.581   4.328  -0.016
 4229TIP3   OH212692   2.620   0.443   0.763
 4229TIP3    H112693   2.568   0.489   0.829
 4229TIP3    H212694   2.601   0.490   0.682
 4230TIP3   OH212695   5.041   5.465   1.852
 4230TIP3    H112696   4.968   5.434   1.906
 4230TIP3    H212697   5.002   5.478   1.765
 4231TIP3   OH212698   1.698   1.253   2.456
 4231TIP3    H112699   1.680   1.291   2.542
 4231TIP3    H212700   1.755   1.316   2.414
 4232TIP3   OH212701   5.807   3.434   2.586
 4232TIP3    H112702   5.793   3.405   2.676
 4232TIP3    H212703   5.730   3.485   2.565
 4233TIP3   OH212704   4.687   5.227   0.585
 4233TIP3    H112705   4.604   5.273   0.576
 4233TIP3    H212706   4.681   5.154   0.523
 4234TIP3   OH212707   2.466  -0.001   2.584
 4234TIP3    H112708   2.479   0.047   2.502
 4234TIP3    H212709   2.390   0.041   2.625
 4235TIP3   OH212710   4.893   0.396   3.705
 4235TIP3    H112711   4.970   0.382   3.650
 4235TIP3    H212712   4.927   0.391   3.795
 4236TIP3   OH212713   4.515   1.118   2.864
 4236TIP3    H112714   4.575   1.076   2.926
 4236TIP3    H212715   4.439   1.143   2.916
 4237TIP3   OH212716   2.517   5.670   3.875
 4237TIP3    H112717   2.483   5.648   3.788
 4237TIP3    H212718   2.593   5.725   3.858
 4238TIP3   OH212719   3.590   1.387   3.181
 4238TIP3    H112720   3.499   1.416   3.185
 4238TIP3    H212721   3.601   1.356   3.091
 4239TIP3   OH212722   5.757   1.535   3.518
 4239TIP3    H112723   5.689   1.574   3.573
 4239TIP3    H212724   5.816   1.607   3.498
 4240TIP3   OH212725   2.325   0.949   2.587
 4240TIP3    H112726   2.312   1.017   2.653
 4240TIP3    H212727   2.282   0.983   2.508
 4241TIP3   OH212728   0.893   4.292   2.401
 4241TIP3    H112729   0.880   4.318   2.310
 4241TIP3    H212730   0.832   4.219   2.415
 4242TIP3   OH212731   4.984   0.442   0.926
 4242TIP3    H112732   5.073   0.407   0.921
 4242TIP3    H212733   4.982   0.491   1.008
 4243TIP3   OH212734   2.717   0.673   4.929
 4243TIP3    H112735   2.639   0.711   4.971
 4243TIP3    H212736   2.683   0.600   4.877
 4244TIP3   OH212737   5.813   0.493   3.711
 4244TIP3    H112738   5.885   0.556   3.710
 4244TIP3    H212739   5.841   0.422   3.654
 4245TIP3   OH212740   3.361   2.268   2.963
 4245TIP3    H112741   3.366   2.206   2.891
 4245TIP3    H212742   3.294   2.233   3.021
 4246TIP3   OH212743   5.643   4.547   4.550
 4246TIP3    H112744   5.734   4.537   4.577
 4246TIP3    H212745   5.592   4.529   4.629
 4247TIP3   OH212746   0.584   2.812   4.587
 4247TIP3    H112747   0.678   2.820   4.576
 4247TIP3    H212748   0.549   2.891   4.544
 4248TIP3   OH212749   5.791   5.176   1.944
 4248TIP3    H112750   5.803   5.131   1.861
 4248TIP3    H212751   5.875   5.220   1.961
 4249TIP3   OH212752   5.781   0.781   3.005
 4249TIP3    H112753   5.863   0.742   2.974
 4249TIP3    H212754   5.712   0.727   2.966
 4250TIP3   OH212755   2.147   3.218   1.616
 4250TIP3    H112756   2.188   3.280   1.556
 4250TIP3    H212757   2.139   3.137   1.566
 4251TIP3   OH212758   5.153   3.912   1.343
 4251TIP3    H112759   5.146   3.901   1.249
 4251TIP3    H212760   5.086   3.855   1.380
 4252TIP3   OH212761   0.523   0.446   2.586
 4252TIP3    H112762   0.595   0.466   2.646
 4252TIP3    H212763   0.520   0.521   2.526
 4253TIP3   OH212764   4.915   3.534   3.877
 4253TIP3    H112765   4.906   3.460   3.817
 4253TIP3    H212766   4.932   3.494   3.962
 4254TIP3   OH212767   0.063   2.302   1.411
 4254TIP3    H112768   0.086   2.293   1.319
 4254TIP3    H212769   0.144   2.286   1.459
 4255TIP3   OH212770   0.707   3.826   0.885
 4255TIP3    H112771   0.707   3.792   0.974
 4255TIP3    H212772   0.690   3.750   0.829
 4256TIP3   OH212773   2.036   2.432   4.872
 4256TIP3    H112774   2.069   2.508   4.919
 4256TIP3    H212775   2.087   2.358   4.905
 4257TIP3   OH212776   4.967   5.198   0.539
 4257TIP3    H112777   4.881   5.198   0.581
 4257TIP3    H212778   4.953   5.155   0.454
 4258TIP3   OH212779   1.173   3.183   3.577
 4258TIP3    H112780   1.225   3.105   3.556
 4258TIP3    H212781   1.198   3.204   3.667
 4259TIP3   OH212782   0.481   5.678   1.393
 4259TIP3    H112783   0.493   5.636   1.478
 4259TIP3    H212784   0.522   5.765   1.403
 4260TIP3   OH212785   5.315   0.636   0.486
 4260TIP3    H112786   5.219   0.645   0.487
 4260TIP3    H212787   5.345   0.687   0.561
 4261TIP3   OH212788   5.529   5.501   3.651
 4261TIP3    H112789   5.612   5.525   3.691
 4261TIP3    H212790   5.483   5.451   3.719
 4262TIP3   OH212791   1.129   2.749   2.867
 4262TIP3    H112792   1.033   2.744   2.864
 4262TIP3    H212793   1.158   2.658   2.869
 4263TIP3   OH212794   5.484   5.383   0.944
 4263TIP3    H112795   5.569   5.339   0.942
 4263TIP3    H212796   5.435   5.345   0.871
 4264TIP3   OH212797   3.555   2.954   0.272
 4264TIP3    H112798   3.536   2.996   0.356
 4264TIP3    H212799   3.530   2.862   0.285
 4265TIP3   OH212800   6.332   5.354   1.272
 4265TIP3    H112801   6.301   5.331   1.359
 4265TIP3    H212802   6.282   5.431   1.247
 4266TIP3   OH212803   4.115   1.761   5.016
 4266TIP3    H112804   4.047   1.699   4.988
 4266TIP3    H212805   4.187   1.706   5.046
 4267TIP3   OH212806   1.919   3.323   1.727
 4267TIP3    H112807   1.985   3.275   1.677
 4267TIP3    H212808   1.840   3.319   1.674
 4268TIP3   OH212809   2.234   4.311   0.137
 4268TIP3    H112810   2.176   4.238   0.115
 4268TIP3    H212811   2.250   4.356   0.055
 4269TIP3   OH212812   5.543   5.533   0.187
 4269TIP3    H112813   5.508   5.555   0.274
 4269TIP3    H212814   5.569   5.617   0.150
 4270TIP3   OH212815   0.306   1.978   3.330
 4270TIP3    H112816   0.402   1.982   3.338
 4270TIP3    H212817   0.278   1.926   3.405
 4271TIP3   OH212818   2.019   3.769   3.641
 4271TIP3    H112819   2.092   3.800   3.587
 4271TIP3    H212820   1.947   3.754   3.580
 4272TIP3   OH212821   2.642   1.596   4.209
 4272TIP3    H112822   2.596   1.540   4.272
 4272TIP3    H212823   2.691   1.657   4.263
 4273TIP3   OH212824   0.617   4.861   2.804
 4273TIP3    H112825   0.587   4.939   2.757
 4273TIP3    H212826   0.537   4.822   2.839
 4274TIP3   OH212827   4.768   5.822   1.609
 4274TIP3    H112828   4.773   5.744   1.664
 4274TIP3    H212829   4.758   5.894   1.670
 4275TIP3   OH212830   3.148   3.908   2.740
 4275TIP3    H112831   3.230   3.885   2.784
 4275TIP3    H212832   3.139   4.002   2.751
 4276TIP3   OH212833   0.781   5.701   1.961
 4276TIP3    H112834   0.698   5.742   1.935
 4276TIP3    H212835   0.848   5.765   1.935
 4277TIP3   OH212836   5.029   2.650   3.634
 4277TIP3    H112837   5.020   2.655   3.539
 4277TIP3    H212838   5.089   2.721   3.657
 4278TIP3   OH212839   3.365   0.725   1.908
 4278TIP3    H112840   3.289   0.760   1.862
 4278TIP3    H212841   3.345   0.741   2.001
 4279TIP3   OH212842   2.433   1.003   1.056
 4279TIP3    H112843   2.342   1.021   1.030
 4279TIP3    H212844   2.457   0.925   1.006
 4280TIP3   OH212845   3.573   5.004   2.069
 4280TIP3    H112846   3.639   5.034   2.007
 4280TIP3    H212847   3.620   4.947   2.129
 4281TIP3   OH212848   4.927   0.021   1.929
 4281TIP3    H112849   4.913   0.115   1.937
 4281TIP3    H212850   4.877  -0.018   2.001
 4282TIP3   OH212851   1.930   3.531   2.517
 4282TIP3    H112852   1.890   3.453   2.480
 4282TIP3    H212853   2.024   3.521   2.498
 4283TIP3   OH212854   4.690   1.846   3.292
 4283TIP3    H112855   4.759   1.859   3.357
 4283TIP3    H212856   4.651   1.761   3.314
 4284TIP3   OH212857   2.757   0.491   2.189
 4284TIP3    H112858   2.734   0.570   2.238
 4284TIP3    H212859   2.850   0.501   2.170
 4285TIP3   OH212860   4.576   5.256   1.332
 4285TIP3    H112861   4.628   5.199   1.388
 4285TIP3    H212862   4.633   5.275   1.257
 4286TIP3   OH212863   1.484   0.275   3.526
 4286TIP3    H112864   1.430   0.222   3.585
 4286TIP3    H212865   1.450   0.255   3.439
 4287TIP3   OH212866   1.330   1.226   4.575
 4287TIP3    H112867   1.396   1.274   4.624
 4287TIP3    H212868   1.271   1.190   4.642
 4288TIP3   OH212869   2.033   1.821   1.643
 4288TIP3    H112870   1.938   1.827   1.629
 4288TIP3    H212871   2.052   1.728   1.642
 4289TIP3   OH212872   1.145   4.387   2.448
 4289TIP3    H112873   1.061   4.345   2.432
 4289TIP3    H212874   1.125   4.457   2.511
 4290TIP3   OH212875   3.113   4.778   3.606
 4290TIP3    H112876   3.029   4.817   3.628
 4290TIP3    H212877   3.178   4.842   3.635
 4291TIP3   OH212878   4.344   0.556   4.089
 4291TIP3    H112879   4.341   0.531   3.997
 4291TIP3    H212880   4.299   0.486   4.135
 4292TIP3   OH212881   5.869   1.290   2.033
 4292TIP3    H112882   5.955   1.329   2.018
 4292TIP3    H212883   5.884   1.223   2.099
 4293TIP3   OH212884   4.722   3.377   4.666
 4293TIP3    H112885   4.632   3.406   4.656
 4293TIP3    H212886   4.723   3.330   4.749
 4294TIP3   OH212887   5.961   3.639   2.921
 4294TIP3    H112888   5.976   3.675   3.009
 4294TIP3    H212889   6.018   3.562   2.917
 4295TIP3   OH212890   0.328   0.254   2.685
 4295TIP3    H112891   0.370   0.306   2.617
 4295TIP3    H212892   0.235   0.278   2.679
 4296TIP3   OH212893   1.497   5.600   1.040
 4296TIP3    H112894   1.446   5.519   1.040
 4296TIP3    H212895   1.441   5.664   1.084
 4297TIP3   OH212896   4.329   3.007   3.137
 4297TIP3    H112897   4.413   3.028   3.177
 4297TIP3    H212898   4.351   2.969   3.052
 4298TIP3   OH212899   5.711   1.017   2.627
 4298TIP3    H112900   5.728   0.935   2.581
 4298TIP3    H212901   5.782   1.024   2.691
 4299TIP3   OH212902   5.426   5.168   4.588
 4299TIP3    H112903   5.337   5.203   4.587
 4299TIP3    H212904   5.481   5.241   4.561
 4300TIP3   OH212905   5.059   3.978   3.504
 4300TIP3    H112906   5.062   3.970   3.600
 4300TIP3    H212907   4.965   3.985   3.484
 4301TIP3   OH212908   5.627   1.012   0.305
 4301TIP3    H112909   5.574   1.004   0.385
 4301TIP3    H212910   5.591   1.088   0.260
 4302TIP3   OH212911   0.084   2.683   1.046
 4302TIP3    H112912   0.071   2.771   1.081
 4302TIP3    H212913   0.172   2.684   1.008
 4303TIP3   OH212914   3.705  -0.016   0.604
 4303TIP3    H112915   3.634  -0.009   0.539
 4303TIP3    H212916   3.708   0.070   0.646
 4304TIP3   OH212917   1.463   3.539   3.908
 4304TIP3    H112918   1.527   3.553   3.978
 4304TIP3    H212919   1.503   3.471   3.853
 4305TIP3   OH212920   4.022   5.596   0.221
 4305TIP3    H112921   3.945   5.561   0.264
 4305TIP3    H212922   4.017   5.565   0.131
 4306TIP3   OH212923   0.487   3.878   3.523
 4306TIP3    H112924   0.457   3.968   3.530
 4306TIP3    H212925   0.510   3.852   3.612
 4307TIP3   OH212926   1.507   4.615   2.687
 4307TIP3    H112927   1.469   4.528   2.699
 4307TIP3    H212928   1.517   4.649   2.776
 4308TIP3   OH212929   4.908   4.951   3.811
 4308TIP3    H112930   4.928   4.954   3.718
 4308TIP3    H212931   4.986   4.913   3.851
 4309TIP3   OH212932   3.687   3.601   1.151
 4309TIP3    H112933   3.733   3.617   1.068
 4309TIP3    H212934   3.742   3.539   1.198
 4310TIP3   OH212935   0.994   4.797   0.018
 4310TIP3    H112936   1.045   4.879   0.020
 4310TIP3    H212937   0.996   4.766   0.109
 4311TIP3   OH212938   4.445   1.310   4.536
 4311TIP3    H112939   4.387   1.376   4.498
 4311TIP3    H212940   4.490   1.357   4.606
 4312TIP3   OH212941   4.821   2.225   4.336
 4312TIP3    H112942   4.859   2.218   4.249
 4312TIP3    H212943   4.896   2.236   4.394
 4313TIP3   OH212944   3.838   2.746   2.577
 4313TIP3    H112945   3.743   2.731   2.569
 4313TIP3    H212946   3.847   2.804   2.652
 4314TIP3   OH212947   6.004   0.657   2.906
 4314TIP3    H112948   6.027   0.574   2.948
 4314TIP3    H212949   6.073   0.671   2.841
 4315TIP3   OH212950   3.273   5.545   0.874
 4315TIP3    H112951   3.289   5.584   0.960
 4315TIP3    H212952   3.356   5.553   0.827
 4316TIP3   OH212953   3.363   1.415   0.632
 4316TIP3    H112954   3.300   1.421   0.703
 4316TIP3    H212955   3.349   1.495   0.581
 4317TIP3   OH212956   4.225   0.955   1.139
 4317TIP3    H112957   4.255   0.952   1.230
 4317TIP3    H212958   4.137   0.919   1.142
 4318TIP3   OH212959   4.585   3.706   2.440
 4318TIP3    H112960   4.555   3.623   2.403
 4318TIP3    H212961   4.577   3.695   2.535
 4319TIP3   OH212962   1.714   4.706   1.044
 4319TIP3    H112963   1.780   4.644   1.076
 4319TIP3    H212964   1.751   4.741   0.963
 4320TIP3   OH212965   2.976   0.936   3.228
 4320TIP3    H112966   3.066   0.939   3.195
 4320TIP3    H212967   2.936   1.015   3.193
 4321TIP3   OH212968   6.265   4.435   3.578
 4321TIP3    H112969   6.181   4.389   3.573
 4321TIP3    H212970   6.242   4.528   3.565
 4322TIP3   OH212971   5.465   4.946   0.751
 4322TIP3    H112972   5.505   5.019   0.703
 4322TIP3    H212973   5.476   4.870   0.695
 4323TIP3   OH212974   2.101   2.855   1.935
 4323TIP3    H112975   2.142   2.937   1.909
 4323TIP3    H212976   2.048   2.829   1.860
 4324TIP3   OH212977   1.303   3.921   4.025
 4324TIP3    H112978   1.289   3.839   3.977
 4324TIP3    H212979   1.283   3.899   4.116
 4325TIP3   OH212980   4.808   0.285   1.588
 4325TIP3    H112981   4.717   0.305   1.568
 4325TIP3    H212982   4.804   0.201   1.634
 4326TIP3   OH212983   0.501   3.583   0.112
 4326TIP3    H112984   0.424   3.637   0.094
 4326TIP3    H212985   0.465   3.495   0.126
 4327TIP3   OH212986   2.562   1.844   2.629
 4327TIP3    H112987   2.545   1.853   2.723
 4327TIP3    H212988   2.485   1.798   2.595
 4328TIP3   OH212989   0.456   0.478   1.168
 4328TIP3    H112990   0.445   0.386   1.142
 4328TIP3    H212991   0.398   0.527   1.111
 4329TIP3   OH212992   2.941   4.146   1.763
 4329TIP3    H112993   2.967   4.093   1.838
 4329TIP3    H212994   2.878   4.092   1.715
 4330TIP3   OH212995   4.557   2.059   1.091
 4330TIP3    H112996   4.572   2.068   1.185
 4330TIP3    H212997   4.623   1.997   1.062
 4331TIP3   OH212998   4.367   0.881   1.375
 4331TIP3    H112999   4.345   0.852   1.464
 4331TIP3    H213000   4.409   0.804   1.335
 4332TIP3   OH213001   5.762   5.799   4.505
 4332TIP3    H113002   5.732   5.799   4.596
 4332TIP3    H213003   5.731   5.883   4.470
 4333TIP3   OH213004   1.994   1.039   1.806
 4333TIP3    H113005   2.014   1.093   1.729
 4333TIP3    H213006   1.903   1.059   1.827
 4334TIP3   OH213007   4.278   5.601   1.057
 4334TIP3    H113008   4.359   5.635   1.019
 4334TIP3    H213009   4.302   5.573   1.145
 4335TIP3   OH213010   4.893   2.632   4.827
 4335TIP3    H113011   4.926   2.559   4.880
 4335TIP3    H213012   4.805   2.648   4.860
 4336TIP3   OH213013   3.900   4.531   4.973
 4336TIP3    H113014   3.841   4.589   4.925
 4336TIP3    H213015   3.942   4.587   5.038
 4337TIP3   OH213016   0.163   4.352   2.898
 4337TIP3    H113017   0.104   4.334   2.972
 4337TIP3    H213018   0.150   4.279   2.838
 4338TIP3   OH213019   4.569   3.531   4.352
 4338TIP3    H113020   4.566   3.437   4.371
 4338TIP3    H213021   4.546   3.538   4.259
 4339TIP3   OH213022   4.791   1.374   4.494
 4339TIP3    H113023   4.748   1.434   4.434
 4339TIP3    H213024   4.760   1.400   4.581
 4340TIP3   OH213025   5.637   4.215   5.022
 4340TIP3    H113026   5.697   4.243   5.091
 4340TIP3    H213027   5.682   4.237   4.940
 4341TIP3   OH213028   6.230   5.987   0.374
 4341TIP3    H113029   6.222   5.900   0.413
 4341TIP3    H213030   6.322   6.011   0.387
 4342TIP3   OH213031   1.416   2.545   3.291
 4342TIP3    H113032   1.355   2.601   3.243
 4342TIP3    H213033   1.495   2.543   3.237
 4343TIP3   OH213034   5.854   3.450   3.725
 4343TIP3    H113035   5.806   3.496   3.794
 4343TIP3    H213036   5.946   3.469   3.744
 4344TIP3   OH213037   2.987   1.317   0.664
 4344TIP3    H113038   3.053   1.265   0.619
 4344TIP3    H213039   3.035   1.392   0.700
 4345TIP3   OH213040   5.680   4.145   2.655
 4345TIP3    H113041   5.635   4.078   2.707
 4345TIP3    H213042   5.733   4.095   2.593
 4346TIP3   OH213043   2.770   5.336   4.691
 4346TIP3    H113044   2.727   5.345   4.777
 4346TIP3    H213045   2.854   5.379   4.703
 4347TIP3   OH213046   4.231   2.336   3.072
 4347TIP3    H113047   4.189   2.358   2.989
 4347TIP3    H213048   4.323   2.321   3.049
 4348TIP3   OH213049   6.006   1.508   4.240
 4348TIP3    H113050   6.037   1.503   4.150
 4348TIP3    H213051   6.049   1.435   4.285
 4349TIP3   OH213052   0.059   3.702   4.938
 4349TIP3    H113053  -0.023   3.735   4.902
 4349TIP3    H213054   0.032   3.647   5.012
 4350TIP3   OH213055   0.688   0.464   1.546
 4350TIP3    H113056   0.707   0.488   1.637
 4350TIP3    H213057   0.671   0.547   1.503
 4351TIP3   OH213058   0.530   4.468   4.861
 4351TIP3    H113059   0.507   4.556   4.892
 4351TIP3    H213060   0.551   4.420   4.941
 4352TIP3   OH213061   4.866   5.008   5.001
 4352TIP3    H113062   4.837   4.922   5.031
 4352TIP3    H213063   4.798   5.068   5.030
 4353TIP3   OH213064   0.125   1.359   3.548
 4353TIP3    H113065   0.209   1.403   3.533
 4353TIP3    H213066   0.085   1.406   3.620
 4354TIP3   OH213067   2.714   1.230   0.524
 4354TIP3    H113068   2.721   1.242   0.618
 4354TIP3    H213069   2.745   1.141   0.508
 4355TIP3   OH213070   1.023   2.500   3.623
 4355TIP3    H113071   1.069   2.574   3.583
 4355TIP3    H213072   0.976   2.538   3.697
 4356TIP3   OH213073   5.688   1.864   2.745
 4356TIP3    H113074   5.702   1.775   2.775
 4356TIP3    H213075   5.773   1.892   2.712
 4357TIP3   OH213076   0.387   2.815   1.182
 4357TIP3    H113077   0.395   2.742   1.120
 4357TIP3    H213078   0.422   2.780   1.264
 4358TIP3   OH213079   0.852   4.941   0.469
 4358TIP3    H113080   0.877   4.956   0.560
 4358TIP3    H213081   0.927   4.974   0.418
 4359TIP3   OH213082   0.154   5.171   1.410
 4359TIP3    H113083   0.085   5.200   1.350
 4359TIP3    H213084   0.186   5.089   1.371
 4360TIP3   OH213085   1.594   3.833   2.985
 4360TIP3    H113086   1.569   3.797   3.070
 4360TIP3    H213087   1.524   3.805   2.925
 4361TIP3   OH213088   0.932   4.216   1.731
 4361TIP3    H113089   0.870   4.148   1.759
 4361TIP3    H213090   1.009   4.167   1.702
 4362TIP3   OH213091   1.994   1.281   1.634
 4362TIP3    H113092   1.953   1.330   1.705
 4362TIP3    H213093   2.070   1.334   1.609
 4363TIP3   OH213094   6.013   2.568   3.687
 4363TIP3    H113095   5.989   2.661   3.683
 4363TIP3    H213096   5.967   2.535   3.765
 4364TIP3   OH213097   0.500   1.620   0.706
 4364TIP3    H113098   0.520   1.527   0.696
 4364TIP3    H213099   0.585   1.663   0.710
 4365TIP3   OH213100   0.338   2.475   2.736
 4365TIP3    H113101   0.380   2.390   2.741
 4365TIP3    H213102   0.244   2.456   2.733
 4366TIP3   OH213103   3.346   3.241   4.941
 4366TIP3    H113104   3.395   3.233   4.859
 4366TIP3    H213105   3.375   3.324   4.978
 4367TIP3   OH213106   0.969   3.418   4.642
 4367TIP3    H113107   0.948   3.441   4.732
 4367TIP3    H213108   0.923   3.336   4.626
 4368TIP3   OH213109   2.320   4.677   4.980
 4368TIP3    H113110   2.314   4.657   5.073
 4368TIP3    H213111   2.348   4.769   4.977
 4369TIP3   OH213112   4.359   4.704   4.491
 4369TIP3    H113113   4.270   4.678   4.470
 4369TIP3    H213114   4.410   4.683   4.412
 4370TIP3   OH213115   1.222   4.984   3.713
 4370TIP3    H113116   1.234   5.056   3.651
 4370TIP3    H213117   1.222   4.905   3.659
 4371TIP3   OH213118   0.640   1.380   0.720
 4371TIP3    H113119   0.702   1.445   0.754
 4371TIP3    H213120   0.639   1.311   0.787
 4372TIP3   OH213121   0.165   3.131   2.378
 4372TIP3    H113122   0.101   3.123   2.450
 4372TIP3    H213123   0.238   3.180   2.417
 4373TIP3   OH213124   2.686   3.023   3.112
 4373TIP3    H113125   2.670   3.094   3.049
 4373TIP3    H213126   2.733   2.957   3.062
 4374TIP3   OH213127   6.163   1.474   2.596
 4374TIP3    H113128   6.187   1.382   2.588
 4374TIP3    H213129   6.107   1.477   2.675
 4375TIP3   OH213130   1.070   0.389   2.906
 4375TIP3    H113131   1.163   0.403   2.921
 4375TIP3    H213132   1.060   0.396   2.811
 4376TIP3   OH213133   5.061   3.884   4.776
 4376TIP3    H113134   5.018   3.816   4.724
 4376TIP3    H213135   4.991   3.922   4.828
 4377TIP3   OH213136   1.086   2.179   1.284
 4377TIP3    H113137   1.132   2.187   1.368
 4377TIP3    H213138   1.006   2.132   1.305
 4378TIP3   OH213139   3.740   2.490   4.036
 4378TIP3    H113140   3.793   2.525   3.964
 4378TIP3    H213141   3.749   2.395   4.030
 4379TIP3   OH213142   1.832   2.521   4.478
 4379TIP3    H113143   1.839   2.534   4.384
 4379TIP3    H213144   1.738   2.518   4.496
 4380TIP3   OH213145   0.826   5.143   0.825
 4380TIP3    H113146   0.870   5.077   0.879
 4380TIP3    H213147   0.890   5.165   0.758
 4381TIP3   OH213148   0.851   0.804   3.559
 4381TIP3    H113149   0.837   0.737   3.492
 4381TIP3    H213150   0.843   0.887   3.512
 4382TIP3   OH213151   4.646   4.863   2.707
 4382TIP3    H113152   4.649   4.767   2.710
 4382TIP3    H213153   4.707   4.887   2.637
 4383TIP3   OH213154   3.694   2.771   3.825
 4383TIP3    H113155   3.750   2.710   3.871
 4383TIP3    H213156   3.736   2.784   3.740
 4384TIP3   OH213157   5.020   1.221   3.943
 4384TIP3    H113158   5.002   1.307   3.905
 4384TIP3    H213159   5.092   1.186   3.891
 4385TIP3   OH213160   4.139   1.386   2.272
 4385TIP3    H113161   4.122   1.295   2.250
 4385TIP3    H213162   4.198   1.417   2.203
 4386TIP3   OH213163   5.476   0.955   0.021
 4386TIP3    H113164   5.532   1.032   0.033
 4386TIP3    H213165   5.388   0.991   0.012
 4387TIP3   OH213166   3.477   0.397   1.273
 4387TIP3    H113167   3.425   0.329   1.316
 4387TIP3    H213168   3.475   0.374   1.180
 4388TIP3   OH213169   5.158   3.021   1.516
 4388TIP3    H113170   5.208   3.023   1.597
 4388TIP3    H213171   5.117   2.934   1.515
 4389TIP3   OH213172   3.139   4.214   1.261
 4389TIP3    H113173   3.065   4.207   1.321
 4389TIP3    H213174   3.123   4.296   1.212
 4390TIP3   OH213175   3.753   3.847   1.793
 4390TIP3    H113176   3.831   3.902   1.799
 4390TIP3    H213177   3.786   3.763   1.761
 4391TIP3   OH213178   2.109   0.713   0.612
 4391TIP3    H113179   2.123   0.693   0.705
 4391TIP3    H213180   2.188   0.759   0.584
 4392TIP3   OH213181   0.749   4.895   3.060
 4392TIP3    H113182   0.681   4.874   2.996
 4392TIP3    H213183   0.803   4.962   3.017
 4393TIP3   OH213184   4.262   1.480   4.372
 4393TIP3    H113185   4.177   1.464   4.413
 4393TIP3    H213186   4.270   1.410   4.306
 4394TIP3   OH213187   0.585   4.989   0.511
 4394TIP3    H113188   0.585   5.048   0.436
 4394TIP3    H213189   0.670   4.945   0.508
 4395TIP3   OH213190   0.079   4.116   1.137
 4395TIP3    H113191  -0.006   4.121   1.095
 4395TIP3    H213192   0.115   4.033   1.107
 4396TIP3   OH213193   1.632   4.348   3.138
 4396TIP3    H113194   1.599   4.293   3.068
 4396TIP3    H213195   1.554   4.387   3.177
 4397TIP3   OH213196   0.263   5.356   0.823
 4397TIP3    H113197   0.181   5.331   0.864
 4397TIP3    H213198   0.325   5.288   0.848
 4398TIP3   OH213199   4.971   1.077   2.986
 4398TIP3    H113200   4.970   0.999   2.930
 4398TIP3    H213201   5.052   1.068   3.037
 4399TIP3   OH213202   3.095   3.665   1.781
 4399TIP3    H113203   3.015   3.666   1.833
 4399TIP3    H213204   3.146   3.591   1.814
 4400TIP3   OH213205   6.227   3.009   2.210
 4400TIP3    H113206   6.305   2.984   2.261
 4400TIP3    H213207   6.260   3.074   2.148
 4401TIP3   OH213208   3.389   2.155   2.340
 4401TIP3    H113209   3.335   2.089   2.383
 4401TIP3    H213210   3.376   2.140   2.246
 4402TIP3   OH213211   2.691   1.251   1.775
 4402TIP3    H113212   2.663   1.160   1.783
 4402TIP3    H213213   2.661   1.278   1.688
 4403TIP3   OH213214   1.518   3.541   1.572
 4403TIP3    H113215   1.541   3.481   1.643
 4403TIP3    H213216   1.494   3.484   1.499
 4404TIP3   OH213217   1.558   2.675   0.217
 4404TIP3    H113218   1.610   2.739   0.266
 4404TIP3    H213219   1.478   2.663   0.269
 4405TIP3   OH213220   3.514   4.836   4.861
 4405TIP3    H113221   3.500   4.915   4.809
 4405TIP3    H213222   3.441   4.778   4.836
 4406TIP3   OH213223   1.421   1.878   5.112
 4406TIP3    H113224   1.398   1.927   5.191
 4406TIP3    H213225   1.398   1.936   5.040
 4407TIP3   OH213226   4.836   4.501   2.321
 4407TIP3    H113227   4.837   4.448   2.242
 4407TIP3    H213228   4.744   4.526   2.333
 4408TIP3   OH213229   3.460   6.004   0.190
 4408TIP3    H113230   3.376   5.971   0.156
 4408TIP3    H213231   3.485   5.941   0.258
 4409TIP3   OH213232   3.908   1.694   4.446
 4409TIP3    H113233   3.826   1.645   4.437
 4409TIP3    H213234   3.963   1.662   4.375
 4410TIP3   OH213235   4.718   0.841   2.677
 4410TIP3    H113236   4.769   0.857   2.757
 4410TIP3    H213237   4.694   0.928   2.646
 4411TIP3   OH213238   0.949   5.744   0.952
 4411TIP3    H113239   0.868   5.714   0.995
 4411TIP3    H213240   0.920   5.814   0.893
 4412TIP3   OH213241   5.311   1.011   2.885
 4412TIP3    H113242   5.309   1.007   2.790
 4412TIP3    H213243   5.388   1.063   2.905
 4413TIP3   OH213244   2.378   2.914   3.685
 4413TIP3    H113245   2.411   2.992   3.729
 4413TIP3    H213246   2.452   2.882   3.633
 4414TIP3   OH213247   3.440   5.278   3.274
 4414TIP3    H113248   3.505   5.261   3.342
 4414TIP3    H213249   3.383   5.346   3.312
 4415TIP3   OH213250   0.988   3.602   4.278
 4415TIP3    H113251   1.079   3.593   4.250
 4415TIP3    H213252   0.994   3.623   4.372
 4416TIP3   OH213253   3.416   5.265   4.888
 4416TIP3    H113254   3.343   5.326   4.898
 4416TIP3    H213255   3.422   5.221   4.973
 4417TIP3   OH213256   4.923   4.156   3.280
 4417TIP3    H113257   4.991   4.118   3.336
 4417TIP3    H213258   4.941   4.250   3.282
 4418TIP3   OH213259   1.724   0.382   2.136
 4418TIP3    H113260   1.783   0.422   2.200
 4418TIP3    H213261   1.639   0.423   2.153
 4419TIP3   OH213262   3.603   0.958   3.360
 4419TIP3    H113263   3.660   1.027   3.393
 4419TIP3    H213264   3.655   0.878   3.370
 4420TIP3   OH213265   5.857   4.792   2.648
 4420TIP3    H113266   5.886   4.882   2.635
 4420TIP3    H213267   5.770   4.789   2.608
 4421TIP3   OH213268   5.201   5.863   1.759
 4421TIP3    H113269   5.123   5.820   1.794
 4421TIP3    H213270   5.245   5.797   1.706
 4422TIP3   OH213271   3.980   1.369   3.678
 4422TIP3    H113272   3.887   1.383   3.698
 4422TIP3    H213273   3.981   1.333   3.590
 4423TIP3   OH213274   1.792   1.670   2.948
 4423TIP3    H113275   1.793   1.747   2.891
 4423TIP3    H213276   1.714   1.621   2.922
 4424TIP3   OH213277   5.104   0.348   2.981
 4424TIP3    H113278   5.069   0.259   2.987
 4424TIP3    H213279   5.197   0.338   3.003
 4425TIP3   OH213280   5.033   1.710   0.733
 4425TIP3    H113281   5.074   1.659   0.803
 4425TIP3    H213282   5.106   1.751   0.687
 4426TIP3   OH213283   0.229   1.402   4.057
 4426TIP3    H113284   0.283   1.450   3.994
 4426TIP3    H213285   0.289   1.376   4.127
 4427TIP3   OH213286   2.576   0.025   3.130
 4427TIP3    H113287   2.498   0.003   3.180
 4427TIP3    H213288   2.545   0.084   3.061
 4428TIP3   OH213289   5.080   1.825  -0.013
 4428TIP3    H113290   5.028   1.898  -0.046
 4428TIP3    H213291   5.169   1.858  -0.009
 4429TIP3   OH213292   4.069   5.856   1.245
 4429TIP3    H113293   4.122   5.813   1.178
 4429TIP3    H213294   4.126   5.860   1.322
 4430TIP3   OH213295   2.951   3.005   4.294
 4430TIP3    H113296   3.044   3.024   4.280
 4430TIP3    H213297   2.905   3.069   4.240
 4431TIP3   OH213298   3.756   2.953   0.519
 4431TIP3    H113299   3.687   3.018   0.535
 4431TIP3    H213300   3.781   2.967   0.428
 4432TIP3   OH213301   4.266   2.438   0.201
 4432TIP3    H113302   4.265   2.516   0.256
 4432TIP3    H213303   4.245   2.469   0.113
 4433TIP3   OH213304   2.816   5.573   5.055
 4433TIP3    H113305   2.804   5.649   4.999
 4433TIP3    H213306   2.728   5.543   5.076
 4434TIP3   OH213307   2.685   3.042   0.512
 4434TIP3    H113308   2.707   2.990   0.590
 4434TIP3    H213309   2.609   2.998   0.474
 4435TIP3   OH213310   3.248   2.402   1.982
 4435TIP3    H113311   3.224   2.311   1.962
 4435TIP3    H213312   3.164   2.448   1.987
 4436TIP3   OH213313   5.448   3.255   1.054
 4436TIP3    H113314   5.457   3.169   1.012
 4436TIP3    H213315   5.400   3.308   0.990
 4437TIP3   OH213316   1.423   3.919   4.667
 4437TIP3    H113317   1.426   3.848   4.730
 4437TIP3    H213318   1.505   3.968   4.681
 4438TIP3   OH213319   1.704   3.794   3.469
 4438TIP3    H113320   1.783   3.845   3.450
 4438TIP3    H213321   1.660   3.786   3.384
 4439TIP3   OH213322   3.573   5.273   4.009
 4439TIP3    H113323   3.631   5.310   4.075
 4439TIP3    H213324   3.627   5.266   3.930
 4440TIP3   OH213325   2.121   5.500   1.795
 4440TIP3    H113326   2.133   5.537   1.882
 4440TIP3    H213327   2.033   5.462   1.797
 4441TIP3   OH213328   0.529   5.033   0.007
 4441TIP3    H113329   0.566   4.948   0.030
 4441TIP3    H213330   0.454   5.044   0.065
 4442TIP3   OH213331   4.892   0.124   4.762
 4442TIP3    H113332   4.902   0.073   4.842
 4442TIP3    H213333   4.926   0.067   4.693
 4443TIP3   OH213334   1.492   5.955   4.222
 4443TIP3    H113335   1.577   5.936   4.182
 4443TIP3    H213336   1.433   5.888   4.187
 4444TIP3   OH213337   3.445   4.974   5.180
 4444TIP3    H113338   3.372   4.941   5.127
 4444TIP3    H213339   3.432   4.934   5.266
 4445TIP3   OH213340   6.320   2.088   2.062
 4445TIP3    H113341   6.242   2.143   2.066
 4445TIP3    H213342   6.296   2.017   2.003
 4446TIP3   OH213343   5.558   5.694   1.912
 4446TIP3    H113344   5.475   5.648   1.924
 4446TIP3    H213345   5.579   5.682   1.820
 4447TIP3   OH213346   0.922   3.298   3.513
 4447TIP3    H113347   1.001   3.250   3.537
 4447TIP3    H213348   0.863   3.230   3.480
 4448TIP3   OH213349   1.811   2.835   4.203
 4448TIP3    H113350   1.868   2.911   4.219
 4448TIP3    H213351   1.734   2.852   4.257
 4449TIP3   OH213352   0.498   2.705   2.624
 4449TIP3    H113353   0.543   2.784   2.594
 4449TIP3    H213354   0.467   2.663   2.544
 4450TIP3   OH213355   3.789   0.435   2.109
 4450TIP3    H113356   3.699   0.406   2.122
 4450TIP3    H213357   3.800   0.441   2.014
 4451TIP3   OH213358   0.611   2.697   3.212
 4451TIP3    H113359   0.634   2.710   3.304
 4451TIP3    H213360   0.528   2.744   3.201
 4452TIP3   OH213361   2.013   5.429   4.702
 4452TIP3    H113362   2.058   5.503   4.661
 4452TIP3    H213363   2.013   5.361   4.635
 4453TIP3   OH213364   3.398   3.855   0.733
 4453TIP3    H113365   3.332   3.925   0.733
 4453TIP3    H213366   3.433   3.855   0.644
 4454TIP3   OH213367   2.797   0.863   1.137
 4454TIP3    H113368   2.726   0.810   1.174
 4454TIP3    H213369   2.790   0.848   1.043
 4455TIP3   OH213370   0.564   0.090   0.590
 4455TIP3    H113371   0.534  -0.001   0.588
 4455TIP3    H213372   0.580   0.108   0.683
 4456TIP3   OH213373   5.301   5.680   2.692
 4456TIP3    H113374   5.227   5.661   2.634
 4456TIP3    H213375   5.330   5.593   2.722
 4457TIP3   OH213376   3.426   4.068   4.514
 4457TIP3    H113377   3.407   4.161   4.526
 4457TIP3    H213378   3.431   4.033   4.602
 4458TIP3   OH213379   3.414   0.363   0.991
 4458TIP3    H113380   3.352   0.342   0.922
 4458TIP3    H213381   3.500   0.357   0.950
 4459TIP3   OH213382   1.611   2.332   2.226
 4459TIP3    H113383   1.600   2.427   2.221
 4459TIP3    H213384   1.699   2.320   2.260
 4460TIP3   OH213385   2.226   3.088   0.455
 4460TIP3    H113386   2.136   3.101   0.486
 4460TIP3    H213387   2.228   3.128   0.368
 4461TIP3   OH213388   2.006   2.543   3.728
 4461TIP3    H113389   2.077   2.574   3.673
 4461TIP3    H213390   1.963   2.622   3.760
 4462TIP3   OH213391   4.948   3.717   1.382
 4462TIP3    H113392   4.945   3.643   1.321
 4462TIP3    H213393   4.861   3.756   1.377
 4463TIP3   OH213394   4.265   0.260   3.698
 4463TIP3    H113395   4.248   0.241   3.790
 4463TIP3    H213396   4.179   0.257   3.656
 4464TIP3   OH213397   4.203   0.644   3.602
 4464TIP3    H113398   4.268   0.712   3.621
 4464TIP3    H213399   4.161   0.627   3.686
 4465TIP3   OH213400   0.667   5.584   4.699
 4465TIP3    H113401   0.713   5.612   4.778
 4465TIP3    H213402   0.584   5.548   4.731
 4466TIP3   OH213403   5.352   3.739   3.175
 4466TIP3    H113404   5.381   3.650   3.195
 4466TIP3    H213405   5.259   3.729   3.154
 4467TIP3   OH213406   1.030   1.092   3.130
 4467TIP3    H113407   1.102   1.153   3.145
 4467TIP3    H213408   0.993   1.076   3.216
 4468TIP3   OH213409   6.041   5.760   2.013
 4468TIP3    H113410   6.065   5.852   2.000
 4468TIP3    H213411   6.099   5.730   2.083
 4469TIP3   OH213412   5.666   4.359   2.453
 4469TIP3    H113413   5.704   4.389   2.535
 4469TIP3    H213414   5.738   4.316   2.407
 4470TIP3   OH213415   1.423   5.939   0.263
 4470TIP3    H113416   1.513   5.921   0.237
 4470TIP3    H213417   1.369   5.899   0.196
 4471TIP3   OH213418   2.605   4.589   2.138
 4471TIP3    H113419   2.545   4.525   2.101
 4471TIP3    H213420   2.689   4.572   2.095
 4472TIP3   OH213421   4.631   1.223   0.353
 4472TIP3    H113422   4.648   1.131   0.376
 4472TIP3    H213423   4.717   1.257   0.327
 4473TIP3   OH213424   5.773   3.047   1.820
 4473TIP3    H113425   5.834   3.087   1.758
 4473TIP3    H213426   5.723   3.120   1.855
 4474TIP3   OH213427   1.398   5.217   2.728
 4474TIP3    H113428   1.330   5.206   2.662
 4474TIP3    H213429   1.380   5.302   2.768
 4475TIP3   OH213430   3.190   5.317   0.386
 4475TIP3    H113431   3.250   5.319   0.460
 4475TIP3    H213432   3.214   5.237   0.338
 4476TIP3   OH213433   0.025   5.116   3.694
 4476TIP3    H113434  -0.049   5.059   3.675
 4476TIP3    H213435   0.032   5.173   3.617
 4477TIP3   OH213436   5.715   1.077   3.920
 4477TIP3    H113437   5.742   1.148   3.978
 4477TIP3    H213438   5.620   1.088   3.912
 4478TIP3   OH213439   1.415   0.629   3.125
 4478TIP3    H113440   1.342   0.648   3.184
 4478TIP3    H213441   1.486   0.685   3.157
 4479TIP3   OH213442   2.552   0.171   0.563
 4479TIP3    H113443   2.624   0.234   0.556
 4479TIP3    H213444   2.560   0.115   0.486
 4480TIP3   OH213445   1.777   0.606   4.340
 4480TIP3    H113446   1.830   0.530   4.315
 4480TIP3    H213447   1.817   0.636   4.421
 4481TIP3   OH213448   5.903   5.376   1.432
 4481TIP3    H113449   5.953   5.298   1.405
 4481TIP3    H213450   5.825   5.375   1.377
 4482TIP3   OH213451   2.349   0.315   4.307
 4482TIP3    H113452   2.378   0.224   4.293
 4482TIP3    H213453   2.430   0.363   4.325
 4483TIP3   OH213454   6.044   4.544   4.887
 4483TIP3    H113455   6.054   4.632   4.850
 4483TIP3    H213456   5.999   4.559   4.971
 4484TIP3   OH213457   4.732   5.740   4.692
 4484TIP3    H113458   4.825   5.726   4.708
 4484TIP3    H213459   4.715   5.829   4.722
 4485TIP3   OH213460   5.200   4.912   3.331
 4485TIP3    H113461   5.191   4.820   3.305
 4485TIP3    H213462   5.274   4.912   3.393
 4486TIP3   OH213463   4.580   4.359   3.651
 4486TIP3    H113464   4.663   4.362   3.602
 4486TIP3    H213465   4.607   4.344   3.742
 4487TIP3   OH213466   2.332   3.794   1.738
 4487TIP3    H113467   2.396   3.726   1.715
 4487TIP3    H213468   2.270   3.794   1.665
 4488TIP3   OH213469   0.890   5.785   0.415
 4488TIP3    H113470   0.815   5.794   0.474
 4488TIP3    H213471   0.967   5.794   0.472
 4489TIP3   OH213472   4.009   2.047   3.679
 4489TIP3    H113473   3.989   1.993   3.755
 4489TIP3    H213474   3.945   2.020   3.613
 4490TIP3   OH213475   5.058   3.848   2.056
 4490TIP3    H113476   5.098   3.840   1.969
 4490TIP3    H213477   5.074   3.939   2.081
 4491TIP3   OH213478   5.430   2.892   2.981
 4491TIP3    H113479   5.474   2.841   2.913
 4491TIP3    H213480   5.442   2.984   2.954
 4492TIP3   OH213481   2.247   4.855   1.298
 4492TIP3    H113482   2.175   4.841   1.236
 4492TIP3    H213483   2.280   4.943   1.277
 4493TIP3   OH213484   4.578   1.267   3.859
 4493TIP3    H113485   4.520   1.207   3.906
 4493TIP3    H213486   4.634   1.209   3.807
 4494TIP3   OH213487   1.058   1.632   0.727
 4494TIP3    H113488   1.040   1.726   0.716
 4494TIP3    H213489   1.042   1.616   0.820
 4495TIP3   OH213490   1.764   0.124   0.750
 4495TIP3    H113491   1.734   0.034   0.739
 4495TIP3    H213492   1.817   0.122   0.830
 4496TIP3   OH213493   3.041   5.717   0.751
 4496TIP3    H113494   3.097   5.665   0.808
 4496TIP3    H213495   3.063   5.808   0.772
 4497TIP3   OH213496   4.165   1.290   3.857
 4497TIP3    H113497   4.217   1.366   3.881
 4497TIP3    H213498   4.100   1.324   3.796
 4498TIP3   OH213499   5.289   3.683   1.028
 4498TIP3    H113500   5.337   3.719   1.102
 4498TIP3    H213501   5.228   3.753   1.003
 4499TIP3   OH213502   3.457   5.022   3.081
 4499TIP3    H113503   3.429   5.104   3.123
 4499TIP3    H213504   3.521   4.985   3.141
 4500TIP3   OH213505   3.596   5.652   3.527
 4500TIP3    H113506   3.640   5.632   3.610
 4500TIP3    H213507   3.634   5.590   3.465
 4501TIP3   OH213508   0.942   3.063   1.110
 4501TIP3    H113509   0.848   3.068   1.097
 4501TIP3    H213510   0.953   3.058   1.205
 4502TIP3   OH213511   4.467   3.961   4.554
 4502TIP3    H113512   4.501   3.985   4.640
 4502TIP3    H213513   4.439   3.870   4.564
 4503TIP3   OH213514   5.963   1.626   1.357
 4503TIP3    H113515   5.876   1.603   1.391
 4503TIP3    H213516   6.020   1.556   1.389
 4504TIP3   OH213517   0.385   0.698   0.856
 4504TIP3    H113518   0.317   0.661   0.913
 4504TIP3    H213519   0.347   0.692   0.768
 4505TIP3   OH213520   1.214   3.624   4.015
 4505TIP3    H113521   1.208   3.539   4.058
 4505TIP3    H213522   1.290   3.616   3.958
 4506TIP3   OH213523   1.497   5.832   4.950
 4506TIP3    H113524   1.411   5.869   4.971
 4506TIP3    H213525   1.484   5.738   4.954
 4507TIP3   OH213526   5.678   3.455   4.020
 4507TIP3    H113527   5.655   3.522   4.084
 4507TIP3    H213528   5.721   3.387   4.071
 4508TIP3   OH213529   5.780   4.656   3.565
 4508TIP3    H113530   5.802   4.599   3.492
 4508TIP3    H213531   5.788   4.745   3.530
 4509TIP3   OH213532   5.113   5.445   1.413
 4509TIP3    H113533   5.205   5.439   1.385
 4509TIP3    H213534   5.089   5.355   1.436
 4510TIP3   OH213535   3.813   0.976   1.548
 4510TIP3    H113536   3.823   1.009   1.458
 4510TIP3    H213537   3.790   1.054   1.599
 4511TIP3   OH213538   3.658   1.145   0.896
 4511TIP3    H113539   3.722   1.160   0.965
 4511TIP3    H213540   3.573   1.148   0.940
 4512TIP3   OH213541   6.214   2.688   1.577
 4512TIP3    H113542   6.280   2.624   1.550
 4512TIP3    H213543   6.193   2.664   1.667
 4513TIP3   OH213544   0.917   1.569   0.461
 4513TIP3    H113545   0.966   1.569   0.543
 4513TIP3    H213546   0.983   1.589   0.394
 4514TIP3   OH213547   4.615   0.418   3.701
 4514TIP3    H113548   4.707   0.406   3.726
 4514TIP3    H213549   4.604   0.362   3.624
 4515TIP3   OH213550   3.183   3.932   2.453
 4515TIP3    H113551   3.270   3.896   2.474
 4515TIP3    H213552   3.142   3.945   2.538
 4516TIP3   OH213553   3.662   3.337   0.219
 4516TIP3    H113554   3.709   3.420   0.225
 4516TIP3    H213555   3.574   3.361   0.190
 4517TIP3   OH213556   3.535   2.320   3.445
 4517TIP3    H113557   3.547   2.323   3.351
 4517TIP3    H213558   3.465   2.255   3.458
 4518TIP3   OH213559   2.838   3.910   1.426
 4518TIP3    H113560   2.834   3.956   1.510
 4518TIP3    H213561   2.897   3.836   1.441
 4519TIP3   OH213562   5.855   1.825   3.574
 4519TIP3    H113563   5.863   1.883   3.650
 4519TIP3    H213564   5.823   1.883   3.504
 4520TIP3   OH213565   3.864   3.454   0.610
 4520TIP3    H113566   3.802   3.461   0.682
 4520TIP3    H213567   3.924   3.528   0.622
 4521TIP3   OH213568   1.266   3.364   3.375
 4521TIP3    H113569   1.335   3.313   3.332
 4521TIP3    H213570   1.250   3.317   3.457
 4522TIP3   OH213571   3.546   0.425   0.635
 4522TIP3    H113572   3.533   0.408   0.541
 4522TIP3    H213573   3.573   0.517   0.639
 4523TIP3   OH213574   0.348   2.105   1.755
 4523TIP3    H113575   0.310   2.091   1.842
 4523TIP3    H213576   0.434   2.143   1.772
 4524TIP3   OH213577   4.198   3.810   2.375
 4524TIP3    H113578   4.275   3.807   2.319
 4524TIP3    H213579   4.171   3.718   2.383
 4525TIP3   OH213580   6.015   5.157   0.151
 4525TIP3    H113581   6.060   5.141   0.234
 4525TIP3    H213582   6.013   5.071   0.109
 4526TIP3   OH213583   6.032   4.215   3.229
 4526TIP3    H113584   6.020   4.186   3.139
 4526TIP3    H213585   5.943   4.228   3.262
 4527TIP3   OH213586   5.619   4.056   0.056
 4527TIP3    H113587   5.538   4.045   0.007
 4527TIP3    H213588   5.618   3.986   0.121
 4528TIP3   OH213589   3.212   0.531   0.623
 4528TIP3    H113590   3.128   0.543   0.578
 4528TIP3    H213591   3.273   0.587   0.576
 4529TIP3   OH213592   0.396   1.120   0.782
 4529TIP3    H113593   0.463   1.081   0.726
 4529TIP3    H213594   0.361   1.193   0.731
 4530TIP3   OH213595   1.484   0.009   4.991
 4530TIP3    H113596   1.415   0.073   4.974
 4530TIP3    H213597   1.510   0.025   5.081
 4531TIP3   OH213598   2.412   1.473   3.289
 4531TIP3    H113599   2.325   1.514   3.292
 4531TIP3    H213600   2.469   1.542   3.255
 4532TIP3   OH213601   2.593   4.434   1.851
 4532TIP3    H113602   2.640   4.517   1.853
 4532TIP3    H213603   2.513   4.450   1.902
 4533TIP3   OH213604   5.405   4.706   4.414
 4533TIP3    H113605   5.489   4.748   4.432
 4533TIP3    H213606   5.424   4.643   4.344
 4534TIP3   OH213607   4.953   2.363   4.979
 4534TIP3    H113608   4.991   2.308   5.048
 4534TIP3    H213609   4.870   2.321   4.957
 4535TIP3   OH213610   6.021   0.000   4.586
 4535TIP3    H113611   5.986   0.080   4.548
 4535TIP3    H213612   6.067   0.030   4.665
 4536TIP3   OH213613   3.827   4.140   3.867
 4536TIP3    H113614   3.847   4.218   3.918
 4536TIP3    H213615   3.839   4.167   3.776
 4537TIP3   OH213616   5.424   2.523   3.682
 4537TIP3    H113617   5.515   2.549   3.696
 4537TIP3    H213618   5.390   2.588   3.620
 4538TIP3   OH213619   1.951   5.054   0.618
 4538TIP3    H113620   1.940   5.043   0.524
 4538TIP3    H213621   1.928   5.145   0.635
 4539TIP3   OH213622   4.816   2.595   1.357
 4539TIP3    H113623   4.778   2.682   1.366
 4539TIP3    H213624   4.865   2.599   1.274
 4540TIP3   OH213625   3.667   3.832   0.245
 4540TIP3    H113626   3.720   3.904   0.277
 4540TIP3    H213627   3.697   3.756   0.294
 4541TIP3   OH213628   2.735   4.509   0.487
 4541TIP3    H113629   2.646   4.530   0.459
 4541TIP3    H213630   2.727   4.484   0.579
 4542TIP3   OH213631   0.608   4.516   3.916
 4542TIP3    H113632   0.677   4.581   3.901
 4542TIP3    H213633   0.539   4.564   3.961
 4543TIP3   OH213634   5.261   5.179   1.936
 4543TIP3    H113635   5.295   5.104   1.984
 4543TIP3    H213636   5.187   5.209   1.989
 4544TIP3   OH213637   2.417   5.572   3.649
 4544TIP3    H113638   2.337   5.586   3.599
 4544TIP3    H213639   2.482   5.545   3.584
 4545TIP3   OH213640   0.912   3.432   1.060
 4545TIP3    H113641   0.941   3.364   1.120
 4545TIP3    H213642   0.989   3.486   1.045
 4546TIP3   OH213643   5.055   1.299   4.497
 4546TIP3    H113644   4.960   1.293   4.498
 4546TIP3    H213645   5.075   1.371   4.437
 4547TIP3   OH213646   1.428   2.831   2.559
 4547TIP3    H113647   1.521   2.834   2.583
 4547TIP3    H213648   1.383   2.845   2.642
 4548TIP3   OH213649   1.634   2.873   2.091
 4548TIP3    H113650   1.696   2.912   2.029
 4548TIP3    H213651   1.688   2.850   2.167
 4549TIP3   OH213652   6.132   5.634   2.774
 4549TIP3    H113653   6.102   5.618   2.685
 4549TIP3    H213654   6.101   5.723   2.794
 4550TIP3   OH213655   0.653   5.569   0.738
 4550TIP3    H113656   0.710   5.514   0.685
 4550TIP3    H213657   0.657   5.532   0.826
 4551TIP3   OH213658   0.402   1.186   2.378
 4551TIP3    H113659   0.427   1.224   2.294
 4551TIP3    H213660   0.484   1.184   2.428
 4552TIP3   OH213661   3.456   5.681   1.083
 4552TIP3    H113662   3.505   5.728   1.016
 4552TIP3    H213663   3.441   5.746   1.152
 4553TIP3   OH213664   4.946   0.683   1.198
 4553TIP3    H113665   4.872   0.742   1.183
 4553TIP3    H213666   4.951   0.674   1.293
 4554TIP3   OH213667   4.066   2.829   0.284
 4554TIP3    H113668   4.111   2.777   0.350
 4554TIP3    H213669   4.043   2.767   0.215
 4555TIP3   OH213670   5.705   2.162   2.257
 4555TIP3    H113671   5.766   2.114   2.200
 4555TIP3    H213672   5.761   2.228   2.300
 4556TIP3   OH213673   6.020   5.004   1.069
 4556TIP3    H113674   6.032   4.917   1.031
 4556TIP3    H213675   5.957   5.046   1.010
 4557TIP3   OH213676   3.656   5.067   4.271
 4557TIP3    H113677   3.564   5.049   4.253
 4557TIP3    H213678   3.672   5.152   4.229
 4558TIP3   OH213679   1.607   3.445   4.437
 4558TIP3    H113680   1.566   3.387   4.501
 4558TIP3    H213681   1.699   3.447   4.462
 4559TIP3   OH213682   6.309   5.402   4.490
 4559TIP3    H113683   6.367   5.407   4.414
 4559TIP3    H213684   6.233   5.455   4.466
 4560TIP3   OH213685   0.125   5.183   3.432
 4560TIP3    H113686   0.098   5.123   3.362
 4560TIP3    H213687   0.187   5.133   3.484
 4561TIP3   OH213688   4.880   0.129   2.414
 4561TIP3    H113689   4.828   0.058   2.378
 4561TIP3    H213690   4.960   0.087   2.446
 4562TIP3   OH213691   3.799   2.585   3.575
 4562TIP3    H113692   3.869   2.586   3.639
 4562TIP3    H213693   3.802   2.671   3.534
 4563TIP3   OH213694   3.036   4.059   3.223
 4563TIP3    H113695   3.047   3.968   3.196
 4563TIP3    H213696   3.085   4.065   3.306
 4564TIP3   OH213697   2.208   4.370   3.332
 4564TIP3    H113698   2.216   4.327   3.417
 4564TIP3    H213699   2.234   4.303   3.269
 4565TIP3   OH213700   0.333   1.277   3.300
 4565TIP3    H113701   0.238   1.283   3.313
 4565TIP3    H213702   0.365   1.363   3.327
 4566TIP3   OH213703   5.088   5.648   2.502
 4566TIP3    H113704   5.095   5.558   2.471
 4566TIP3    H213705   5.096   5.701   2.423
 4567TIP3   OH213706   0.398   0.357   3.530
 4567TIP3    H113707   0.345   0.290   3.573
 4567TIP3    H213708   0.445   0.400   3.602
 4568TIP3   OH213709   3.445   2.893   0.752
 4568TIP3    H113710   3.459   2.809   0.797
 4568TIP3    H213711   3.391   2.944   0.812
 4569TIP3   OH213712   3.555   2.484   0.686
 4569TIP3    H113713   3.513   2.558   0.729
 4569TIP3    H213714   3.640   2.476   0.728
 4570TIP3   OH213715   4.533   5.951   1.096
 4570TIP3    H113716   4.529   5.866   1.139
 4570TIP3    H213717   4.588   5.937   1.019
 4571TIP3   OH213718   4.991   1.189   2.603
 4571TIP3    H113719   4.910   1.154   2.566
 4571TIP3    H213720   4.965   1.224   2.688
 4572TIP3   OH213721   0.884   0.149   4.329
 4572TIP3    H113722   0.887   0.082   4.398
 4572TIP3    H213723   0.970   0.145   4.288
 4573TIP3   OH213724   1.498   3.658   3.195
 4573TIP3    H113725   1.545   3.575   3.185
 4573TIP3    H213726   1.407   3.633   3.210
 4574TIP3   OH213727   4.704   1.270   2.695
 4574TIP3    H113728   4.660   1.194   2.732
 4574TIP3    H213729   4.765   1.298   2.763
 4575TIP3   OH213730   1.230   3.848   4.259
 4575TIP3    H113731   1.312   3.881   4.295
 4575TIP3    H213732   1.173   3.836   4.335
 4576TIP3   OH213733   0.242   0.023   1.441
 4576TIP3    H113734   0.302  -0.039   1.399
 4576TIP3    H213735   0.296   0.076   1.498
 4577TIP3   OH213736   6.353   1.621   2.481
 4577TIP3    H113737   6.343   1.716   2.487
 4577TIP3    H213738   6.284   1.586   2.537
 4578TIP3   OH213739   0.943   3.359   0.164
 4578TIP3    H113740   1.037   3.374   0.152
 4578TIP3    H213741   0.903   3.446   0.152
 4579TIP3   OH213742   2.926   4.223   4.300
 4579TIP3    H113743   2.834   4.213   4.275
 4579TIP3    H213744   2.973   4.224   4.217
 4580TIP3   OH213745   2.630   4.015   3.388
 4580TIP3    H113746   2.558   3.956   3.364
 4580TIP3    H213747   2.709   3.963   3.373
 4581TIP3   OH213748   0.562   2.363   4.867
 4581TIP3    H113749   0.500   2.292   4.849
 4581TIP3    H213750   0.538   2.432   4.804
 4582TIP3   OH213751   4.236   3.600   1.380
 4582TIP3    H113752   4.190   3.648   1.450
 4582TIP3    H213753   4.259   3.517   1.421
 4583TIP3   OH213754   5.490   5.377   4.333
 4583TIP3    H113755   5.575   5.372   4.375
 4583TIP3    H213756   5.482   5.295   4.283
 4584TIP3   OH213757   1.349   1.785   4.257
 4584TIP3    H113758   1.381   1.745   4.176
 4584TIP3    H213759   1.318   1.711   4.309
 4585TIP3   OH213760   2.912   2.008   5.150
 4585TIP3    H113761   2.913   1.921   5.190
 4585TIP3    H213762   2.906   1.991   5.056
 4586TIP3   OH213763   5.204   2.389   0.747
 4586TIP3    H113764   5.154   2.316   0.710
 4586TIP3    H213765   5.296   2.364   0.731
 4587TIP3   OH213766   5.694   0.771   1.137
 4587TIP3    H113767   5.667   0.679   1.140
 4587TIP3    H213768   5.753   0.777   1.062
 4588TIP3   OH213769   6.190   4.896   2.657
 4588TIP3    H113770   6.262   4.895   2.594
 4588TIP3    H213771   6.111   4.902   2.603
 4589TIP3   OH213772   1.631   1.891   3.975
 4589TIP3    H113773   1.569   1.824   4.003
 4589TIP3    H213774   1.585   1.974   3.988
 4590TIP3   OH213775   4.404   2.753   2.248
 4590TIP3    H113776   4.488   2.731   2.287
 4590TIP3    H213777   4.425   2.783   2.160
 4591TIP3   OH213778   3.036   5.626   0.285
 4591TIP3    H113779   3.045   5.699   0.346
 4591TIP3    H213780   2.977   5.659   0.217
 4592TIP3   OH213781   2.833   4.086   1.197
 4592TIP3    H113782   2.759   4.144   1.182
 4592TIP3    H213783   2.841   4.081   1.292
 4593TIP3   OH213784   0.434   1.517   3.887
 4593TIP3    H113785   0.485   1.561   3.954
 4593TIP3    H213786   0.495   1.501   3.816
 4594TIP3   OH213787   0.331   4.174   2.139
 4594TIP3    H113788   0.371   4.088   2.126
 4594TIP3    H213789   0.248   4.156   2.184
 4595TIP3   OH213790   3.114   0.450   2.367
 4595TIP3    H113791   3.038   0.402   2.400
 4595TIP3    H213792   3.108   0.537   2.406
 4596TIP3   OH213793   4.587   0.523   0.238
 4596TIP3    H113794   4.556   0.433   0.242
 4596TIP3    H213795   4.510   0.576   0.259
 4597TIP3   OH213796   0.923   4.016   2.802
 4597TIP3    H113797   0.963   3.989   2.719
 4597TIP3    H213798   0.857   4.081   2.777
 4598TIP3   OH213799   0.482   4.286   3.176
 4598TIP3    H113800   0.572   4.319   3.175
 4598TIP3    H213801   0.437   4.342   3.239
 4599TIP3   OH213802   1.956   4.967   1.428
 4599TIP3    H113803   1.968   4.951   1.334
 4599TIP3    H213804   1.862   4.984   1.438
 4600TIP3   OH213805   5.139   2.337   1.948
 4600TIP3    H113806   5.186   2.381   2.018
 4600TIP3    H213807   5.054   2.381   1.945
 4601TIP3   OH213808   1.729   4.809   3.510
 4601TIP3    H113809   1.709   4.861   3.588
 4601TIP3    H213810   1.729   4.718   3.542
 4602TIP3   OH213811   5.422   3.898   1.714
 4602TIP3    H113812   5.327   3.898   1.727
 4602TIP3    H213813   5.458   3.877   1.800
 4603TIP3   OH213814   2.717   0.839   3.084
 4603TIP3    H113815   2.748   0.927   3.106
 4603TIP3    H213816   2.692   0.845   2.991
 4604TIP3   OH213817   3.998   1.900   1.354
 4604TIP3    H113818   3.946   1.821   1.363
 4604TIP3    H213819   4.044   1.890   1.270
 4605TIP3   OH213820   0.408   2.372   3.355
 4605TIP3    H113821   0.424   2.335   3.269
 4605TIP3    H213822   0.445   2.308   3.416
 4606TIP3   OH213823   1.642   0.564   1.442
 4606TIP3    H113824   1.670   0.561   1.533
 4606TIP3    H213825   1.723   0.576   1.392
 4607TIP3   OH213826   4.120   4.205   4.669
 4607TIP3    H113827   4.036   4.236   4.634
 4607TIP3    H213828   4.150   4.277   4.725
 4608TIP3   OH213829   2.732   3.572   4.441
 4608TIP3    H113830   2.812   3.527   4.468
 4608TIP3    H213831   2.724   3.646   4.501
 4609TIP3   OH213832   2.469   4.478   4.852
 4609TIP3    H113833   2.429   4.558   4.884
 4609TIP3    H213834   2.491   4.497   4.761
 4610TIP3   OH213835   3.534   1.812   2.255
 4610TIP3    H113836   3.507   1.727   2.220
 4610TIP3    H213837   3.571   1.858   2.180
 4611TIP3   OH213838   2.704   2.683   1.065
 4611TIP3    H113839   2.793   2.659   1.093
 4611TIP3    H213840   2.717   2.748   0.996
 4612TIP3   OH213841   5.053   5.968   3.043
 4612TIP3    H113842   5.091   6.055   3.051
 4612TIP3    H213843   5.128   5.909   3.044
 4613TIP3   OH213844   0.242   3.097   2.094
 4613TIP3    H113845   0.221   3.098   2.187
 4613TIP3    H213846   0.281   3.010   2.079
 4614TIP3   OH213847   2.598   4.740   4.113
 4614TIP3    H113848   2.687   4.731   4.147
 4614TIP3    H213849   2.563   4.818   4.157
 4615TIP3   OH213850   2.994   4.293   4.041
 4615TIP3    H113851   3.058   4.328   3.980
 4615TIP3    H213852   2.941   4.369   4.066
 4616TIP3   OH213853   0.951   1.259   1.318
 4616TIP3    H113854   0.890   1.302   1.259
 4616TIP3    H213855   0.896   1.226   1.390
 4617TIP3   OH213856   5.693   4.756   2.303
 4617TIP3    H113857   5.764   4.717   2.355
 4617TIP3    H213858   5.737   4.820   2.248
 4618TIP3   OH213859   2.266   3.733   3.501
 4618TIP3    H113860   2.274   3.778   3.417
 4618TIP3    H213861   2.323   3.657   3.493
 4619TIP3   OH213862   2.884   4.259   4.566
 4619TIP3    H113863   2.936   4.240   4.644
 4619TIP3    H213864   2.935   4.222   4.494
 4620TIP3   OH213865   5.570   0.707   3.384
 4620TIP3    H113866   5.565   0.689   3.477
 4620TIP3    H213867   5.547   0.624   3.342
 4621TIP3   OH213868   3.995   5.301   1.003
 4621TIP3    H113869   4.024   5.355   0.930
 4621TIP3    H213870   3.939   5.359   1.055
 4622TIP3   OH213871   4.268   5.246   0.691
 4622TIP3    H113872   4.224   5.234   0.607
 4622TIP3    H213873   4.270   5.159   0.730
 4623TIP3   OH213874   4.127   3.084   2.546
 4623TIP3    H113875   4.036   3.086   2.519
 4623TIP3    H213876   4.125   3.054   2.638
 4624TIP3   OH213877   4.569   3.405   1.211
 4624TIP3    H113878   4.625   3.403   1.288
 4624TIP3    H213879   4.542   3.314   1.199
 4625TIP3   OH213880   6.040   4.680   1.726
 4625TIP3    H113881   6.006   4.747   1.786
 4625TIP3    H213882   6.115   4.722   1.684
 4626TIP3   OH213883   3.500   3.538   2.953
 4626TIP3    H113884   3.528   3.447   2.966
 4626TIP3    H213885   3.487   3.572   3.041
 4627TIP3   OH213886   5.653   1.573   3.191
 4627TIP3    H113887   5.699   1.579   3.275
 4627TIP3    H213888   5.692   1.497   3.147
 4628TIP3   OH213889   1.210   5.571   1.351
 4628TIP3    H113890   1.296   5.569   1.393
 4628TIP3    H213891   1.214   5.646   1.291
 4629TIP3   OH213892   3.061   5.009   0.990
 4629TIP3    H113893   2.980   5.060   0.985
 4629TIP3    H213894   3.034   4.922   1.018
 4630TIP3   OH213895   3.097   3.842   2.202
 4630TIP3    H113896   3.089   3.876   2.291
 4630TIP3    H213897   3.164   3.775   2.207
 4631TIP3   OH213898   5.498   4.872   1.293
 4631TIP3    H113899   5.532   4.880   1.204
 4631TIP3    H213900   5.517   4.781   1.318
 4632TIP3   OH213901   3.865   3.245   2.839
 4632TIP3    H113902   3.820   3.284   2.914
 4632TIP3    H213903   3.805   3.177   2.807
 4633TIP3   OH213904   0.535   0.233   2.163
 4633TIP3    H113905   0.579   0.313   2.135
 4633TIP3    H213906   0.541   0.234   2.258
 4634TIP3   OH213907   1.276   3.962   1.086
 4634TIP3    H113908   1.307   3.892   1.143
 4634TIP3    H213909   1.181   3.952   1.084
 4635TIP3   OH213910   1.669   2.547   0.975
 4635TIP3    H113911   1.606   2.520   1.042
 4635TIP3    H213912   1.682   2.469   0.921
 4636TIP3   OH213913   5.710   5.605   4.969
 4636TIP3    H113914   5.798   5.629   4.999
 4636TIP3    H213915   5.653   5.623   5.044
 4637TIP3   OH213916   1.017   4.572   0.592
 4637TIP3    H113917   0.976   4.581   0.678
 4637TIP3    H213918   1.104   4.538   0.610
 4638TIP3   OH213919   1.837   5.485   4.025
 4638TIP3    H113920   1.802   5.543   3.957
 4638TIP3    H213921   1.759   5.448   4.067
 4639TIP3   OH213922   0.973   0.294   5.009
 4639TIP3    H113923   0.928   0.234   4.950
 4639TIP3    H213924   0.964   0.379   4.967
 4640TIP3   OH213925   3.977   0.582   3.452
 4640TIP3    H113926   4.019   0.586   3.366
 4640TIP3    H213927   4.050   0.581   3.514
 4641TIP3   OH213928   1.028   0.552   2.649
 4641TIP3    H113929   0.999   0.599   2.571
 4641TIP3    H213930   1.001   0.607   2.722
 4642TIP3   OH213931   6.312   4.157   3.297
 4642TIP3    H113932   6.334   4.162   3.390
 4642TIP3    H213933   6.217   4.171   3.294
 4643TIP3   OH213934   0.241   0.658   3.054
 4643TIP3    H113935   0.280   0.627   2.972
 4643TIP3    H213936   0.315   0.688   3.106
 4644TIP3   OH213937   0.659   2.954   1.053
 4644TIP3    H113938   0.584   2.894   1.047
 4644TIP3    H213939   0.646   3.000   1.136
 4645TIP3   OH213940   3.027   4.522   4.770
 4645TIP3    H113941   3.035   4.504   4.864
 4645TIP3    H213942   3.032   4.617   4.763
 4646TIP3   OH213943   1.653   2.051   0.399
 4646TIP3    H113944   1.728   2.018   0.448
 4646TIP3    H213945   1.622   2.126   0.450
 4647TIP3   OH213946   5.273   4.020   0.635
 4647TIP3    H113947   5.331   4.093   0.660
 4647TIP3    H213948   5.211   4.012   0.708
 4648TIP3   OH213949   6.330   3.453   5.069
 4648TIP3    H113950   6.423   3.451   5.092
 4648TIP3    H213951   6.294   3.374   5.109
 4649TIP3   OH213952   6.079   1.036   1.751
 4649TIP3    H113953   6.072   1.006   1.842
 4649TIP3    H213954   6.147   1.104   1.753
 4650TIP3   OH213955   3.493   2.589   4.671
 4650TIP3    H113956   3.498   2.495   4.688
 4650TIP3    H213957   3.487   2.630   4.757
 4651TIP3   OH213958   1.339   4.403   3.460
 4651TIP3    H113959   1.382   4.331   3.505
 4651TIP3    H213960   1.256   4.414   3.506
 4652TIP3   OH213961   1.849   4.528   1.765
 4652TIP3    H113962   1.862   4.587   1.839
 4652TIP3    H213963   1.881   4.443   1.795
 4653TIP3   OH213964   6.203   4.697   2.386
 4653TIP3    H113965   6.233   4.608   2.405
 4653TIP3    H213966   6.281   4.751   2.392
 4654TIP3   OH213967   3.458   2.616   4.953
 4654TIP3    H113968   3.531   2.559   4.977
 4654TIP3    H213969   3.486   2.704   4.980
 4655TIP3   OH213970   4.698   0.143   0.570
 4655TIP3    H113971   4.708   0.224   0.520
 4655TIP3    H213972   4.714   0.167   0.661
 4656TIP3   OH213973   3.494   0.527   1.743
 4656TIP3    H113974   3.429   0.554   1.809
 4656TIP3    H213975   3.491   0.597   1.678
 4657TIP3   OH213976   0.585   5.312   4.943
 4657TIP3    H113977   0.651   5.381   4.944
 4657TIP3    H213978   0.504   5.357   4.917
 4658TIP3   OH213979   6.162   1.644   2.863
 4658TIP3    H113980   6.190   1.569   2.916
 4658TIP3    H213981   6.229   1.651   2.795
 4659TIP3   OH213982   2.009   2.759   2.391
 4659TIP3    H113983   2.046   2.764   2.303
 4659TIP3    H213984   2.067   2.701   2.438
 4660TIP3   OH213985   4.190   3.549   2.258
 4660TIP3    H113986   4.196   3.547   2.162
 4660TIP3    H213987   4.129   3.478   2.279
 4661TIP3   OH213988   4.538   3.768   3.458
 4661TIP3    H113989   4.590   3.838   3.497
 4661TIP3    H213990   4.452   3.776   3.498
 4662TIP3   OH213991   0.755   3.322   2.115
 4662TIP3    H113992   0.736   3.331   2.022
 4662TIP3    H213993   0.824   3.387   2.131
 4663TIP3   OH213994   6.215   0.223   3.964
 4663TIP3    H113995   6.132   0.222   3.915
 4663TIP3    H213996   6.218   0.138   4.008
 4664TIP3   OH213997   4.429   0.741   0.310
 4664TIP3    H113998   4.341   0.706   0.294
 4664TIP3    H213999   4.413   0.825   0.354
 4665TIP3   OH214000   5.304   3.482   0.012
 4665TIP3    H114001   5.272   3.554  -0.043
 4665TIP3    H214002   5.308   3.520   0.100
 4666TIP3   OH214003   4.449   1.466   0.325
 4666TIP3    H114004   4.380   1.415   0.366
 4666TIP3    H214005   4.499   1.402   0.274
 4667TIP3   OH214006   3.016   5.302   3.886
 4667TIP3    H114007   3.012   5.339   3.974
 4667TIP3    H214008   3.059   5.218   3.897
 4668TIP3   OH214009   2.836   3.181   1.464
 4668TIP3    H114010   2.781   3.110   1.498
 4668TIP3    H214011   2.778   3.257   1.463
 4669TIP3   OH214012   5.214   2.274   2.277
 4669TIP3    H114013   5.298   2.232   2.260
 4669TIP3    H214014   5.149   2.204   2.265
 4670TIP3   OH214015   5.244   5.429   4.658
 4670TIP3    H114016   5.289   5.389   4.733
 4670TIP3    H214017   5.225   5.356   4.599
 4671TIP3   OH214018   5.498   2.741   1.974
 4671TIP3    H114019   5.545   2.762   1.894
 4671TIP3    H214020   5.530   2.804   2.039
 4672TIP3   OH214021   6.054   2.488   1.300
 4672TIP3    H114022   6.061   2.393   1.295
 4672TIP3    H214023   6.102   2.520   1.223
 4673TIP3   OH214024   1.997   4.668   2.026
 4673TIP3    H114025   2.078   4.690   2.071
 4673TIP3    H214026   1.948   4.749   2.023
 4674TIP3   OH214027   5.233   3.855   4.100
 4674TIP3    H114028   5.271   3.876   4.015
 4674TIP3    H214029   5.292   3.789   4.137
 4675TIP3   OH214030   2.347   3.530   3.731
 4675TIP3    H114031   2.274   3.556   3.788
 4675TIP3    H214032   2.424   3.569   3.772
 4676TIP3   OH214033   3.251   3.460   1.870
 4676TIP3    H114034   3.297   3.437   1.950
 4676TIP3    H214035   3.309   3.430   1.800
 4677TIP3   OH214036   5.208   0.636   5.160
 4677TIP3    H114037   5.166   0.573   5.101
 4677TIP3    H214038   5.147   0.646   5.233
 4678TIP3   OH214039   2.354   2.360   4.674
 4678TIP3    H114040   2.320   2.365   4.763
 4678TIP3    H214041   2.418   2.431   4.668
 4679TIP3   OH214042   2.994   0.628   4.983
 4679TIP3    H114043   2.901   0.624   4.959
 4679TIP3    H214044   2.996   0.685   5.060
 4680TIP3   OH214045   2.155   4.048   3.159
 4680TIP3    H114046   2.209   4.116   3.118
 4680TIP3    H214047   2.121   3.997   3.085
 4681TIP3   OH214048   1.204   1.920   0.407
 4681TIP3    H114049   1.155   1.864   0.466
 4681TIP3    H214050   1.223   1.999   0.458
 4682TIP3   OH214051   3.478   3.075   0.525
 4682TIP3    H114052   3.471   3.059   0.619
 4682TIP3    H214053   3.547   3.141   0.517
 4683TIP3   OH214054   1.613   2.513   1.436
 4683TIP3    H114055   1.677   2.582   1.451
 4683TIP3    H214056   1.566   2.504   1.519
 4684TIP3   OH214057   4.389   0.769   0.747
 4684TIP3    H114058   4.351   0.683   0.763
 4684TIP3    H214059   4.341   0.828   0.805
 4685TIP3   OH214060   3.616   5.960   0.889
 4685TIP3    H114061   3.636   6.044   0.849
 4685TIP3    H214062   3.530   5.971   0.928
 4686TIP3   OH214063   2.161   5.557   4.502
 4686TIP3    H114064   2.201   5.470   4.494
 4686TIP3    H214065   2.223   5.615   4.457
 4687TIP3   OH214066   0.664   3.316   3.134
 4687TIP3    H114067   0.629   3.350   3.051
 4687TIP3    H214068   0.709   3.391   3.174
 4688TIP3   OH214069   6.113   0.690   2.421
 4688TIP3    H114070   6.091   0.703   2.329
 4688TIP3    H214071   6.207   0.705   2.426
 4689TIP3   OH214072   0.418   1.804   2.766
 4689TIP3    H114073   0.492   1.832   2.712
 4689TIP3    H214074   0.343   1.853   2.732
 4690TIP3   OH214075   1.010   2.856   3.152
 4690TIP3    H114076   0.948   2.783   3.158
 4690TIP3    H214077   0.957   2.934   3.168
 4691TIP3   OH214078   6.057   2.174   3.033
 4691TIP3    H114079   6.127   2.122   3.071
 4691TIP3    H214080   6.003   2.200   3.108
 4692TIP3   OH214081   1.909   5.255   3.761
 4692TIP3    H114082   1.919   5.350   3.764
 4692TIP3    H214083   1.879   5.232   3.849
 4693TIP3   OH214084   4.925   2.783   0.007
 4693TIP3    H114085   4.908   2.800   0.100
 4693TIP3    H214086   4.925   2.870  -0.033
 4694TIP3   OH214087   3.259   1.333   4.904
 4694TIP3    H114088   3.203   1.262   4.872
 4694TIP3    H214089   3.317   1.290   4.968
 4695TIP3   OH214090   3.234   1.348   2.311
 4695TIP3    H114091   3.199   1.435   2.292
 4695TIP3    H214092   3.237   1.344   2.407
 4696TIP3   OH214093   5.060   5.191   1.475
 4696TIP3    H114094   5.095   5.177   1.564
 4696TIP3    H214095   5.113   5.133   1.420
 4697TIP3   OH214096   1.159   0.370   3.528
 4697TIP3    H114097   1.169   0.420   3.609
 4697TIP3    H214098   1.159   0.279   3.557
 4698TIP3   OH214099   1.624   2.225   1.483
 4698TIP3    H114100   1.558   2.210   1.550
 4698TIP3    H214101   1.604   2.313   1.449
 4699TIP3   OH214102   2.346  -0.022   1.263
 4699TIP3    H114103   2.428   0.026   1.252
 4699TIP3    H214104   2.283   0.027   1.210
 4700TIP3   OH214105   5.178   3.075   4.284
 4700TIP3    H114106   5.125   3.152   4.305
 4700TIP3    H214107   5.215   3.048   4.368
 4701TIP3   OH214108   1.151   1.014   0.859
 4701TIP3    H114109   1.068   0.975   0.831
 4701TIP3    H214110   1.127   1.074   0.930
 4702TIP3   OH214111   1.330   1.692   2.525
 4702TIP3    H114112   1.317   1.716   2.433
 4702TIP3    H214113   1.242   1.678   2.559
 4703TIP3   OH214114   6.382   0.659   1.508
 4703TIP3    H114115   6.443   0.671   1.581
 4703TIP3    H214116   6.312   0.722   1.524
 4704TIP3   OH214117   2.844   0.128   0.521
 4704TIP3    H114118   2.900   0.171   0.586
 4704TIP3    H214119   2.838   0.037   0.550
 4705TIP3   OH214120   4.169   2.379   2.791
 4705TIP3    H114121   4.182   2.286   2.772
 4705TIP3    H214122   4.104   2.408   2.727
 4706TIP3   OH214123   3.889   2.372   3.419
 4706TIP3    H114124   3.847   2.415   3.493
 4706TIP3    H214125   3.955   2.315   3.459
 4707TIP3   OH214126   0.436   3.672   3.094
 4707TIP3    H114127   0.410   3.648   3.183
 4707TIP3    H214128   0.526   3.702   3.102
 4708TIP3   OH214129   0.981   2.762   5.100
 4708TIP3    H114130   0.953   2.690   5.158
 4708TIP3    H214131   1.059   2.728   5.057
 4709TIP3   OH214132   0.309   0.349   1.492
 4709TIP3    H114133   0.344   0.436   1.478
 4709TIP3    H214134   0.380   0.300   1.533
 4710TIP3   OH214135   0.001   0.869   3.410
 4710TIP3    H114136   0.083   0.831   3.441
 4710TIP3    H214137   0.007   0.962   3.430
 4711TIP3   OH214138   1.399   3.756   5.045
 4711TIP3    H114139   1.414   3.680   5.101
 4711TIP3    H214140   1.366   3.823   5.104
 4712TIP3   OH214141   2.427   4.999   3.856
 4712TIP3    H114142   2.390   5.062   3.794
 4712TIP3    H214143   2.517   5.029   3.870
 4713TIP3   OH214144   2.116   1.485   3.971
 4713TIP3    H114145   2.063   1.405   3.980
 4713TIP3    H214146   2.109   1.528   4.055
 4714TIP3   OH214147   0.730   1.871   4.240
 4714TIP3    H114148   0.694   1.815   4.309
 4714TIP3    H214149   0.820   1.841   4.230
 4715TIP3   OH214150   6.131   4.646   4.283
 4715TIP3    H114151   6.189   4.570   4.289
 4715TIP3    H214152   6.191   4.721   4.277
 4716TIP3   OH214153   1.026   3.882   1.119
 4716TIP3    H114154   0.954   3.943   1.137
 4716TIP3    H214155   1.039   3.835   1.201
 4717TIP3   OH214156   5.348   2.728   3.490
 4717TIP3    H114157   5.299   2.745   3.409
 4717TIP3    H214158   5.406   2.804   3.499
 4718TIP3   OH214159   0.300   2.265   2.456
 4718TIP3    H114160   0.225   2.223   2.413
 4718TIP3    H214161   0.297   2.234   2.546
 4719TIP3   OH214162   1.171   5.067   4.630
 4719TIP3    H114163   1.210   4.999   4.685
 4719TIP3    H214164   1.092   5.026   4.593
 4720TIP3   OH214165   3.686   0.044   4.761
 4720TIP3    H114166   3.777   0.049   4.732
 4720TIP3    H214167   3.676  -0.044   4.797
 4721TIP3   OH214168   4.765   2.681   1.994
 4721TIP3    H114169   4.705   2.746   2.032
 4721TIP3    H214170   4.835   2.734   1.955
 4722TIP3   OH214171   3.052   0.060   5.241
 4722TIP3    H114172   3.095  -0.003   5.183
 4722TIP3    H214173   2.996   0.111   5.182
 4723TIP3   OH214174   2.129   1.376   1.952
 4723TIP3    H114175   2.113   1.466   1.923
 4723TIP3    H214176   2.050   1.352   2.000
 4724TIP3   OH214177   3.071   5.266   5.129
 4724TIP3    H114178   3.082   5.325   5.054
 4724TIP3    H214179   3.133   5.195   5.113
 4725TIP3   OH214180   0.295   2.557   2.417
 4725TIP3    H114181   0.288   2.464   2.439
 4725TIP3    H214182   0.328   2.558   2.327
 4726TIP3   OH214183   0.347   1.820   4.149
 4726TIP3    H114184   0.352   1.746   4.210
 4726TIP3    H214185   0.325   1.781   4.065
 4727TIP3   OH214186   0.707   3.069   4.071
 4727TIP3    H114187   0.651   3.146   4.061
 4727TIP3    H214188   0.649   3.002   4.106
 4728TIP3   OH214189   5.649   1.254   2.521
 4728TIP3    H114190   5.645   1.176   2.576
 4728TIP3    H214191   5.580   1.310   2.554
 4729TIP3   OH214192   1.375   2.481   0.001
 4729TIP3    H114193   1.437   2.427   0.050
 4729TIP3    H214194   1.326   2.529   0.068
 4730TIP3   OH214195   5.314   1.414   2.402
 4730TIP3    H114196   5.293   1.330   2.442
 4730TIP3    H214197   5.298   1.401   2.309
 4731TIP3   OH214198   5.647   1.758   0.225
 4731TIP3    H114199   5.727   1.797   0.262
 4731TIP3    H214200   5.671   1.737   0.134
 4732TIP3   OH214201   5.596   2.581   0.784
 4732TIP3    H114202   5.640   2.666   0.780
 4732TIP3    H214203   5.667   2.517   0.777
 4733TIP3   OH214204   5.698   4.686   0.974
 4733TIP3    H114205   5.745   4.691   0.891
 4733TIP3    H214206   5.670   4.594   0.980
 4734TIP3   OH214207   1.589   2.092   4.241
 4734TIP3    H114208   1.568   2.161   4.303
 4734TIP3    H214209   1.507   2.076   4.195
 4735TIP3   OH214210   2.484   4.519   4.008
 4735TIP3    H114211   2.468   4.565   3.925
 4735TIP3    H214212   2.553   4.568   4.050
 4736TIP3   OH214213   5.149   4.823   2.755
 4736TIP3    H114214   5.224   4.768   2.778
 4736TIP3    H214215   5.189   4.905   2.726
 4737TIP3   OH214216   3.166   2.510   4.122
 4737TIP3    H114217   3.237   2.449   4.141
 4737TIP3    H214218   3.123   2.472   4.045
 4738TIP3   OH214219   6.085   4.321   4.161
 4738TIP3    H114220   6.060   4.412   4.146
 4738TIP3    H214221   6.178   4.317   4.140
 4739TIP3   OH214222   1.008   2.053   3.133
 4739TIP3    H114223   1.095   2.015   3.127
 4739TIP3    H214224   1.009   2.104   3.215
 4740TIP3   OH214225   6.270   2.628   2.602
 4740TIP3    H114226   6.197   2.661   2.654
 4740TIP3    H214227   6.239   2.630   2.512
 4741TIP3   OH214228   2.929   0.659   1.818
 4741TIP3    H114229   3.000   0.715   1.787
 4741TIP3    H214230   2.871   0.649   1.743
 4742TIP3   OH214231   4.273   0.896   4.693
 4742TIP3    H114232   4.347   0.846   4.660
 4742TIP3    H214233   4.215   0.906   4.618
 4743TIP3   OH214234   5.269   2.304   5.121
 4743TIP3    H114235   5.358   2.336   5.112
 4743TIP3    H214236   5.232   2.356   5.193
 4744TIP3   OH214237   1.656   4.156   1.879
 4744TIP3    H114238   1.735   4.204   1.855
 4744TIP3    H214239   1.649   4.087   1.812
 4745TIP3   OH214240   1.972   5.688   0.721
 4745TIP3    H114241   1.899   5.749   0.729
 4745TIP3    H214242   1.967   5.633   0.799
 4746TIP3   OH214243   0.630   1.922   2.292
 4746TIP3    H114244   0.661   1.885   2.210
 4746TIP3    H214245   0.697   1.985   2.317
 4747TIP3   OH214246   0.624   4.714   1.351
 4747TIP3    H114247   0.686   4.738   1.282
 4747TIP3    H214248   0.569   4.791   1.362
 4748TIP3   OH214249   3.525   4.961   2.812
 4748TIP3    H114250   3.470   4.995   2.742
 4748TIP3    H214251   3.505   5.017   2.888
 4749TIP3   OH214252   6.127   0.432   2.992
 4749TIP3    H114253   6.196   0.435   2.925
 4749TIP3    H214254   6.130   0.342   3.025
 4750TIP3   OH214255   5.209   5.622   3.725
 4750TIP3    H114256   5.169   5.543   3.759
 4750TIP3    H214257   5.293   5.628   3.770
 4751TIP3   OH214258   4.182   1.691   3.984
 4751TIP3    H114259   4.165   1.681   3.891
 4751TIP3    H214260   4.249   1.626   4.004
 4752TIP3   OH214261   4.421   2.468   2.355
 4752TIP3    H114262   4.429   2.561   2.375
 4752TIP3    H214263   4.497   2.448   2.301
 4753TIP3   OH214264   1.204   5.149   2.547
 4753TIP3    H114265   1.196   5.054   2.557
 4753TIP3    H214266   1.137   5.172   2.484
 4754TIP3   OH214267   1.767   1.397   3.072
 4754TIP3    H114268   1.677   1.412   3.100
 4754TIP3    H214269   1.791   1.478   3.026
 4755TIP3   OH214270   1.314   5.442   2.460
 4755TIP3    H114271   1.233   5.470   2.417
 4755TIP3    H214272   1.291   5.437   2.553
 4756TIP3   OH214273   0.984   3.055   4.149
 4756TIP3    H114274   0.998   2.972   4.195
 4756TIP3    H214275   0.899   3.045   4.106
 4757TIP3   OH214276   1.624   2.162   1.219
 4757TIP3    H114277   1.550   2.102   1.226
 4757TIP3    H214278   1.649   2.179   1.310
 4758TIP3   OH214279   1.677   4.993   3.718
 4758TIP3    H114280   1.718   5.058   3.776
 4758TIP3    H214281   1.610   5.043   3.671
 4759TIP3   OH214282   0.807   4.554   5.028
 4759TIP3    H114283   0.818   4.645   5.058
 4759TIP3    H214284   0.781   4.562   4.936
 4760TIP3   OH214285   0.492   1.317   2.982
 4760TIP3    H114286   0.512   1.410   2.990
 4760TIP3    H214287   0.489   1.301   2.888
 4761TIP3   OH214288   4.698   4.024   0.253
 4761TIP3    H114289   4.779   4.062   0.217
 4761TIP3    H214290   4.696   3.935   0.220
 4762TIP3   OH214291   2.891   1.443   1.851
 4762TIP3    H114292   2.942   1.441   1.770
 4762TIP3    H214293   2.822   1.379   1.838
 4763TIP3   OH214294   2.391   1.174   5.062
 4763TIP3    H114295   2.327   1.244   5.074
 4763TIP3    H214296   2.467   1.201   5.114
 4764TIP3   OH214297   2.733   4.018   1.652
 4764TIP3    H114298   2.657   4.075   1.645
 4764TIP3    H214299   2.703   3.944   1.705
 4765TIP3   OH214300   3.366   4.110   2.581
 4765TIP3    H114301   3.372   4.111   2.676
 4765TIP3    H214302   3.396   4.023   2.556
 4766TIP3   OH214303   2.640   1.553   3.800
 4766TIP3    H114304   2.569   1.530   3.860
 4766TIP3    H214305   2.596   1.574   3.717
 4767TIP3   OH214306   2.198   4.436   1.578
 4767TIP3    H114307   2.287   4.466   1.560
 4767TIP3    H214308   2.142   4.501   1.535
 4768TIP3   OH214309   4.249   3.914   4.905
 4768TIP3    H114310   4.185   3.972   4.945
 4768TIP3    H214311   4.265   3.846   4.972
 4769TIP3   OH214312   2.629   5.563   0.230
 4769TIP3    H114313   2.589   5.611   0.157
 4769TIP3    H214314   2.720   5.549   0.203
 4770TIP3   OH214315   3.768   5.774   1.010
 4770TIP3    H114316   3.713   5.849   0.986
 4770TIP3    H214317   3.851   5.791   0.966
 4771TIP3   OH214318   3.120   3.254   1.455
 4771TIP3    H114319   3.135   3.341   1.493
 4771TIP3    H214320   3.026   3.251   1.437
 4772TIP3   OH214321   1.806   5.006   4.287
 4772TIP3    H114322   1.776   5.067   4.354
 4772TIP3    H214323   1.902   5.013   4.289
 4773TIP3   OH214324   4.214   1.080   2.569
 4773TIP3    H114325   4.278   1.031   2.620
 4773TIP3    H214326   4.214   1.037   2.483
 4774TIP3   OH214327   2.898   3.193   5.112
 4774TIP3    H114328   2.958   3.267   5.104
 4774TIP3    H214329   2.928   3.130   5.046
 4775TIP3   OH214330   2.712   4.485   2.913
 4775TIP3    H114331   2.723   4.536   2.832
 4775TIP3    H214332   2.772   4.525   2.975
 4776TIP3   OH214333   0.350   2.725   5.243
 4776TIP3    H114334   0.372   2.729   5.151
 4776TIP3    H214335   0.374   2.811   5.277
 4777TIP3   OH214336   2.035   0.044   4.965
 4777TIP3    H114337   2.085   0.121   4.939
 4777TIP3    H214338   1.978   0.075   5.036
 4778TIP3   OH214339   2.346   4.567   2.865
 4778TIP3    H114340   2.413   4.564   2.796
 4778TIP3    H214341   2.306   4.480   2.862
 4779TIP3   OH214342   3.363   4.901   1.708
 4779TIP3    H114343   3.340   4.926   1.619
 4779TIP3    H214344   3.440   4.846   1.698
 4780TIP3   OH214345   2.956   3.271   2.569
 4780TIP3    H114346   3.029   3.219   2.602
 4780TIP3    H214347   2.919   3.313   2.646
 4781TIP3   OH214348   3.634   0.866   0.168
 4781TIP3    H114349   3.641   0.845   0.075
 4781TIP3    H214350   3.624   0.782   0.212
 4782TIP3   OH214351   2.762   3.206   4.229
 4782TIP3    H114352   2.731   3.243   4.312
 4782TIP3    H214353   2.684   3.167   4.190
 4783TIP3   OH214354   2.648   5.223   1.794
 4783TIP3    H114355   2.703   5.302   1.792
 4783TIP3    H214356   2.609   5.219   1.707
 4784TIP3   OH214357   5.785   5.665   2.874
 4784TIP3    H114358   5.754   5.626   2.792
 4784TIP3    H214359   5.721   5.636   2.939
 4785TIP3   OH214360   5.169   5.539   5.020
 4785TIP3    H114361   5.214   5.561   5.101
 4785TIP3    H214362   5.132   5.452   5.036
 4786TIP3   OH214363   0.489   3.500   2.271
 4786TIP3    H114364   0.431   3.550   2.213
 4786TIP3    H214365   0.538   3.442   2.213
 4787TIP3   OH214366   1.031   5.770   1.228
 4787TIP3    H114367   1.106   5.781   1.170
 4787TIP3    H214368   0.955   5.792   1.174
 4788TIP3   OH214369   6.286   1.161   1.121
 4788TIP3    H114370   6.206   1.209   1.103
 4788TIP3    H214371   6.313   1.126   1.035
 4789TIP3   OH214372   0.871   5.947   2.569
 4789TIP3    H114373   0.794   5.891   2.561
 4789TIP3    H214374   0.907   5.951   2.480
 4790TIP3   OH214375   3.696   0.700   1.891
 4790TIP3    H114376   3.703   0.674   1.799
 4790TIP3    H214377   3.602   0.709   1.906
 4791TIP3   OH214378   6.132   1.341   5.056
 4791TIP3    H114379   6.128   1.311   4.966
 4791TIP3    H214380   6.196   1.413   5.055
 4792TIP3   OH214381   1.858   5.926   2.185
 4792TIP3    H114382   1.827   6.010   2.151
 4792TIP3    H214383   1.847   5.865   2.112
 4793TIP3   OH214384   2.767   0.485   4.203
 4793TIP3    H114385   2.746   0.423   4.273
 4793TIP3    H214386   2.850   0.524   4.231
 4794TIP3   OH214387   0.939   5.070   3.739
 4794TIP3    H114388   1.029   5.038   3.734
 4794TIP3    H214389   0.923   5.083   3.832
 4795TIP3   OH214390   3.981   2.528   1.770
 4795TIP3    H114391   3.950   2.442   1.742
 4795TIP3    H214392   3.904   2.570   1.809
 4796TIP3   OH214393   0.870   2.833   4.515
 4796TIP3    H114394   0.916   2.836   4.599
 4796TIP3    H214395   0.908   2.905   4.464
 4797TIP3   OH214396   0.213   5.161   4.787
 4797TIP3    H114397   0.163   5.113   4.721
 4797TIP3    H214398   0.211   5.252   4.757
 4798TIP3   OH214399   6.220   2.119   0.734
 4798TIP3    H114400   6.223   2.214   0.744
 4798TIP3    H214401   6.306   2.089   0.763
 4799TIP3   OH214402   1.838   0.979   0.484
 4799TIP3    H114403   1.799   0.908   0.433
 4799TIP3    H214404   1.776   1.052   0.474
 4800TIP3   OH214405   1.756   5.861   1.345
 4800TIP3    H114406   1.718   5.829   1.263
 4800TIP3    H214407   1.683   5.860   1.407
 4801TIP3   OH214408   2.428   0.039   4.264
 4801TIP3    H114409   2.494   0.059   4.198
 4801TIP3    H214410   2.366  -0.019   4.219
 4802TIP3   OH214411   2.183   1.813   2.431
 4802TIP3    H114412   2.137   1.784   2.352
 4802TIP3    H214413   2.261   1.757   2.435
 4803TIP3   OH214414   4.363   4.732   0.789
 4803TIP3    H114415   4.424   4.684   0.845
 4803TIP3    H214416   4.358   4.681   0.708
 4804TIP3   OH214417   1.562   3.137   3.505
 4804TIP3    H114418   1.610   3.086   3.440
 4804TIP3    H214419   1.569   3.086   3.586
 4805TIP3   OH214420   2.830   2.469   3.794
 4805TIP3    H114421   2.889   2.530   3.749
 4805TIP3    H214422   2.879   2.387   3.800
 4806TIP3   OH214423   1.079   1.750   4.650
 4806TIP3    H114424   1.092   1.732   4.743
 4806TIP3    H214425   1.044   1.668   4.614
 4807TIP3   OH214426   4.649   4.204   2.894
 4807TIP3    H114427   4.702   4.147   2.950
 4807TIP3    H214428   4.712   4.249   2.839
 4808TIP3   OH214429   3.984   5.370   4.942
 4808TIP3    H114430   3.950   5.335   5.024
 4808TIP3    H214431   4.078   5.353   4.945
 4809TIP3   OH214432   3.719   0.098   3.832
 4809TIP3    H114433   3.655   0.158   3.793
 4809TIP3    H214434   3.667   0.039   3.886
 4810TIP3   OH214435   5.473   4.678   0.120
 4810TIP3    H114436   5.422   4.748   0.080
 4810TIP3    H214437   5.564   4.709   0.116
 4811TIP3   OH214438   5.069   3.240   1.409
 4811TIP3    H114439   5.114   3.167   1.451
 4811TIP3    H214440   5.127   3.267   1.338
 4812TIP3   OH214441   2.058   5.224   4.531
 4812TIP3    H114442   2.051   5.245   4.438
 4812TIP3    H214443   2.028   5.133   4.537
 4813TIP3   OH214444   4.656   5.841   1.365
 4813TIP3    H114445   4.730   5.830   1.305
 4813TIP3    H214446   4.695   5.839   1.452
 4814TIP3   OH214447   5.012   3.537   1.164
 4814TIP3    H114448   5.104   3.525   1.143
 4814TIP3    H214449   4.971   3.454   1.139
 4815TIP3   OH214450   3.560   0.374   4.654
 4815TIP3    H114451   3.626   0.432   4.690
 4815TIP3    H214452   3.605   0.325   4.585
 4816TIP3   OH214453   5.414   0.718   0.119
 4816TIP3    H114454   5.420   0.682   0.031
 4816TIP3    H214455   5.454   0.805   0.113
 4817TIP3   OH214456   4.619   2.794   1.352
 4817TIP3    H114457   4.616   2.817   1.259
 4817TIP3    H214458   4.538   2.831   1.388
 4818TIP3   OH214459   0.470   1.366   2.720
 4818TIP3    H114460   0.399   1.352   2.657
 4818TIP3    H214461   0.520   1.439   2.684
 4819TIP3   OH214462   2.106   2.076   2.500
 4819TIP3    H114463   2.015   2.070   2.527
 4819TIP3    H214464   2.135   1.985   2.492
 4820TIP3   OH214465   0.869   0.229   4.742
 4820TIP3    H114466   0.775   0.220   4.760
 4820TIP3    H214467   0.892   0.147   4.698
 4821TIP3   OH214468   2.954   4.176   2.743
 4821TIP3    H114469   2.950   4.265   2.710
 4821TIP3    H214470   2.892   4.174   2.816
 4822TIP3   OH214471   3.669   4.206   1.676
 4822TIP3    H114472   3.606   4.136   1.688
 4822TIP3    H214473   3.744   4.182   1.731
 4823TIP3   OH214474   4.985   5.635   4.466
 4823TIP3    H114475   4.901   5.630   4.420
 4823TIP3    H214476   5.051   5.614   4.400
 4824TIP3   OH214477   5.671   6.006   1.275
 4824TIP3    H114478   5.737   5.936   1.280
 4824TIP3    H214479   5.592   5.967   1.311
 4825TIP3   OH214480   4.358   3.547   0.352
 4825TIP3    H114481   4.340   3.617   0.290
 4825TIP3    H214482   4.423   3.584   0.412
 4826TIP3   OH214483   3.245   3.074   1.746
 4826TIP3    H114484   3.303   3.071   1.822
 4826TIP3    H214485   3.187   3.148   1.763
 4827TIP3   OH214486   2.010   1.796   3.612
 4827TIP3    H114487   1.928   1.789   3.660
 4827TIP3    H214488   2.035   1.888   3.621
 4828TIP3   OH214489   1.989   0.317   3.144
 4828TIP3    H114490   1.932   0.369   3.201
 4828TIP3    H214491   2.067   0.300   3.198
 4829TIP3   OH214492   0.700   1.751   1.065
 4829TIP3    H114493   0.756   1.813   1.113
 4829TIP3    H214494   0.620   1.801   1.047
 4830TIP3   OH214495   3.626   3.186   1.289
 4830TIP3    H114496   3.697   3.142   1.336
 4830TIP3    H214497   3.591   3.119   1.230
 4831TIP3   OH214498   2.475   4.920   5.005
 4831TIP3    H114499   2.539   4.960   5.064
 4831TIP3    H214500   2.482   4.969   4.924
 4832TIP3   OH214501   1.875   0.816   3.801
 4832TIP3    H114502   1.839   0.904   3.813
 4832TIP3    H214503   1.968   0.825   3.820
 4833TIP3   OH214504   2.674   1.166   0.245
 4833TIP3    H114505   2.654   1.072   0.241
 4833TIP3    H214506   2.689   1.183   0.338
 4834TIP3   OH214507   1.611   1.411   1.194
 4834TIP3    H114508   1.638   1.493   1.237
 4834TIP3    H214509   1.591   1.437   1.104
 4835TIP3   OH214510   4.163   1.776   0.717
 4835TIP3    H114511   4.188   1.802   0.806
 4835TIP3    H214512   4.201   1.688   0.706
 4836TIP3   OH214513   4.600   1.462   4.694
 4836TIP3    H114514   4.653   1.537   4.720
 4836TIP3    H214515   4.547   1.442   4.771
 4837TIP3   OH214516   3.585   2.347   4.423
 4837TIP3    H114517   3.649   2.409   4.388
 4837TIP3    H214518   3.639   2.275   4.457
 4838TIP3   OH214519   0.511   1.298   4.847
 4838TIP3    H114520   0.587   1.344   4.812
 4838TIP3    H214521   0.521   1.302   4.942
 4839TIP3   OH214522   2.349   2.280   0.638
 4839TIP3    H114523   2.367   2.205   0.582
 4839TIP3    H214524   2.334   2.352   0.577
 4840TIP3   OH214525   2.232   0.556   5.062
 4840TIP3    H114526   2.222   0.565   4.968
 4840TIP3    H214527   2.323   0.580   5.080
 4841TIP3   OH214528   0.923   4.049   3.526
 4841TIP3    H114529   0.847   4.030   3.473
 4841TIP3    H214530   0.994   3.998   3.487
 4842TIP3   OH214531   3.311   2.005   0.566
 4842TIP3    H114532   3.256   1.999   0.488
 4842TIP3    H214533   3.256   2.048   0.631
 4843TIP3   OH214534   5.085   3.512   2.693
 4843TIP3    H114535   5.112   3.473   2.610
 4843TIP3    H214536   4.990   3.512   2.690
 4844TIP3   OH214537   5.372   1.374   1.127
 4844TIP3    H114538   5.278   1.389   1.136
 4844TIP3    H214539   5.381   1.279   1.117
 4845TIP3   OH214540   0.341   4.728   2.841
 4845TIP3    H114541   0.307   4.690   2.922
 4845TIP3    H214542   0.403   4.663   2.808
 4846TIP3   OH214543   5.949   5.104   3.411
 4846TIP3    H114544   5.884   5.040   3.439
 4846TIP3    H214545   5.957   5.090   3.317
 4847TIP3   OH214546   3.394   5.940   5.024
 4847TIP3    H114547   3.379   5.845   5.020
 4847TIP3    H214548   3.326   5.972   5.084
 4848TIP3   OH214549   2.313   5.395   3.147
 4848TIP3    H114550   2.300   5.303   3.173
 4848TIP3    H214551   2.400   5.397   3.109
 4849TIP3   OH214552   2.314   4.942   1.844
 4849TIP3    H114553   2.275   4.855   1.847
 4849TIP3    H214554   2.335   4.956   1.752
 4850TIP3   OH214555   1.234   4.165   3.947
 4850TIP3    H114556   1.202   4.160   3.857
 4850TIP3    H214557   1.257   4.075   3.970
 4851TIP3   OH214558   1.723   2.651   2.578
 4851TIP3    H114559   1.716   2.592   2.653
 4851TIP3    H214560   1.782   2.721   2.607
 4852TIP3   OH214561   3.676   3.453   4.600
 4852TIP3    H114562   3.625   3.408   4.667
 4852TIP3    H214563   3.655   3.406   4.519
 4853TIP3   OH214564   2.249   4.784   0.766
 4853TIP3    H114565   2.250   4.878   0.748
 4853TIP3    H214566   2.206   4.745   0.690
 4854TIP3   OH214567   3.819   5.504   1.718
 4854TIP3    H114568   3.765   5.525   1.642
 4854TIP3    H214569   3.817   5.408   1.723
 4855TIP3   OH214570   3.015   2.794   0.798
 4855TIP3    H114571   2.929   2.836   0.793
 4855TIP3    H214572   3.066   2.835   0.728
 4856TIP3   OH214573   2.988   4.505   4.311
 4856TIP3    H114574   3.008   4.412   4.321
 4856TIP3    H214575   2.898   4.506   4.279
 4857TIP3   OH214576   2.928   0.196   2.204
 4857TIP3    H114577   2.946   0.248   2.125
 4857TIP3    H214578   2.894   0.260   2.267
 4858TIP3   OH214579   4.800   3.922   2.986
 4858TIP3    H114580   4.760   3.951   3.068
 4858TIP3    H214581   4.874   3.981   2.972
 4859TIP3   OH214582   3.540   1.009   3.693
 4859TIP3    H114583   3.560   1.101   3.709
 4859TIP3    H214584   3.624   0.970   3.670
 4860TIP3   OH214585   0.053   4.424   2.222
 4860TIP3    H114586   0.140   4.453   2.252
 4860TIP3    H214587   0.002   4.413   2.302
 4861TIP3   OH214588   3.680   3.532   5.092
 4861TIP3    H114589   3.609   3.522   5.156
 4861TIP3    H214590   3.720   3.616   5.113
 4862TIP3   OH214591   3.135   4.009   5.013
 4862TIP3    H114592   3.080   4.075   4.971
 4862TIP3    H214593   3.221   4.019   4.971
 4863TIP3   OH214594   5.666   4.177   1.675
 4863TIP3    H114595   5.756   4.199   1.699
 4863TIP3    H214596   5.656   4.085   1.700
 4864TIP3   OH214597   0.860   1.911   1.272
 4864TIP3    H114598   0.904   1.924   1.356
 4864TIP3    H214599   0.768   1.933   1.289
 4865TIP3   OH214600   2.969   0.656   2.082
 4865TIP3    H114601   2.957   0.652   1.987
 4865TIP3    H214602   2.888   0.694   2.116
 4866TIP3   OH214603   0.752   4.349   3.202
 4866TIP3    H114604   0.823   4.392   3.250
 4866TIP3    H214605   0.764   4.256   3.219
 4867TIP3   OH214606   2.618   3.708   1.413
 4867TIP3    H114607   2.677   3.783   1.405
 4867TIP3    H214608   2.530   3.746   1.405
 4868TIP3   OH214609   3.638   0.773   2.791
 4868TIP3    H114610   3.680   0.763   2.706
 4868TIP3    H214611   3.666   0.696   2.841
 4869TIP3   OH214612   2.301   2.202   1.109
 4869TIP3    H114613   2.347   2.253   1.042
 4869TIP3    H214614   2.370   2.181   1.173
 4870TIP3   OH214615   0.681   5.897   1.665
 4870TIP3    H114616   0.668   5.908   1.571
 4870TIP3    H214617   0.697   5.985   1.698
 4871TIP3   OH214618   3.288   0.043   4.129
 4871TIP3    H114619   3.282   0.138   4.136
 4871TIP3    H214620   3.268   0.010   4.216
 4872TIP3   OH214621   0.354   2.680   1.464
 4872TIP3    H114622   0.284   2.643   1.411
 4872TIP3    H214623   0.325   2.769   1.484
 4873TIP3   OH214624   2.505   4.737   3.855
 4873TIP3    H114625   2.538   4.742   3.945
 4873TIP3    H214626   2.498   4.828   3.827
 4874TIP3   OH214627   5.113   4.165   1.834
 4874TIP3    H114628   5.140   4.137   1.747
 4874TIP3    H214629   5.021   4.187   1.825
 4875TIP3   OH214630   6.156   0.822   1.549
 4875TIP3    H114631   6.108   0.905   1.550
 4875TIP3    H214632   6.177   0.805   1.641
 4876TIP3   OH214633   1.308   0.449   1.466
 4876TIP3    H114634   1.356   0.518   1.421
 4876TIP3    H214635   1.220   0.486   1.481
 4877TIP3   OH214636   1.227   1.516   4.395
 4877TIP3    H114637   1.178   1.457   4.338
 4877TIP3    H214638   1.179   1.517   4.477
 4878TIP3   OH214639   6.201   3.970   5.045
 4878TIP3    H114640   6.213   3.925   4.962
 4878TIP3    H214641   6.167   4.056   5.021
 4879TIP3   OH214642   3.207   5.288   1.206
 4879TIP3    H114643   3.202   5.370   1.257
 4879TIP3    H214644   3.282   5.301   1.148
 4880TIP3   OH214645   4.033   2.881   3.805
 4880TIP3    H114646   3.950   2.929   3.811
 4880TIP3    H214647   4.079   2.922   3.732
 4881TIP3   OH214648   4.714   1.065   3.056
 4881TIP3    H114649   4.801   1.099   3.036
 4881TIP3    H214650   4.727   0.971   3.070
 4882TIP3   OH214651   1.963   1.552   1.604
 4882TIP3    H114652   1.896   1.547   1.536
 4882TIP3    H214653   1.923   1.511   1.681
 4883TIP3   OH214654   3.116   4.053   3.954
 4883TIP3    H114655   3.083   4.142   3.954
 4883TIP3    H214656   3.038   3.998   3.958
 4884TIP3   OH214657   0.298   0.974   1.251
 4884TIP3    H114658   0.310   0.940   1.162
 4884TIP3    H214659   0.267   0.899   1.301
 4885TIP3   OH214660   2.858   2.990   1.204
 4885TIP3    H114661   2.790   2.960   1.264
 4885TIP3    H214662   2.834   3.081   1.185
 4886TIP3   OH214663   3.336   1.783   4.017
 4886TIP3    H114664   3.260   1.746   4.062
 4886TIP3    H214665   3.331   1.877   4.034
 4887TIP3   OH214666   3.051   1.889   1.669
 4887TIP3    H114667   3.085   1.900   1.758
 4887TIP3    H214668   3.091   1.961   1.620
 4888TIP3   OH214669   3.917   2.994   3.170
 4888TIP3    H114670   3.838   3.009   3.117
 4888TIP3    H214671   3.925   2.899   3.173
 4889TIP3   OH214672   5.089   5.574   4.161
 4889TIP3    H114673   5.178   5.543   4.147
 4889TIP3    H214674   5.034   5.498   4.145
 4890TIP3   OH214675   1.388   5.255   0.131
 4890TIP3    H114676   1.360   5.299   0.211
 4890TIP3    H214677   1.341   5.171   0.132
 4891TIP3   OH214678   0.968   3.001   1.400
 4891TIP3    H114679   1.044   2.971   1.451
 4891TIP3    H214680   0.911   2.925   1.395
 4892TIP3   OH214681   0.236   2.107   2.010
 4892TIP3    H114682   0.145   2.107   2.041
 4892TIP3    H214683   0.281   2.045   2.069
 4893TIP3   OH214684   4.245   3.159   1.368
 4893TIP3    H114685   4.199   3.207   1.300
 4893TIP3    H214686   4.315   3.218   1.397
 4894TIP3   OH214687   3.385   1.253   3.591
 4894TIP3    H114688   3.476   1.270   3.615
 4894TIP3    H214689   3.390   1.202   3.510
 4895TIP3   OH214690   2.346   2.805   1.576
 4895TIP3    H114691   2.380   2.789   1.488
 4895TIP3    H214692   2.391   2.739   1.631
 4896TIP3   OH214693   1.911   3.045   2.821
 4896TIP3    H114694   1.876   2.996   2.895
 4896TIP3    H214695   1.837   3.093   2.785
 4897TIP3   OH214696   5.794   4.306   2.844
 4897TIP3    H114697   5.877   4.333   2.805
 4897TIP3    H214698   5.750   4.257   2.774
 4898TIP3   OH214699   1.728   0.195   3.615
 4898TIP3    H114700   1.651   0.239   3.578
 4898TIP3    H214701   1.772   0.263   3.667
 4899TIP3   OH214702   0.914   2.534   0.008
 4899TIP3    H114703   0.974   2.505  -0.060
 4899TIP3    H214704   0.827   2.524  -0.030
 4900TIP3   OH214705   0.487   0.205   3.291
 4900TIP3    H114706   0.462   0.254   3.369
 4900TIP3    H214707   0.546   0.137   3.323
 4901TIP3   OH214708   5.646   3.963   4.096
 4901TIP3    H114709   5.666   3.870   4.089
 4901TIP3    H214710   5.725   4.007   4.065
 4902TIP3   OH214711   4.807   1.401   3.622
 4902TIP3    H114712   4.825   1.377   3.713
 4902TIP3    H214713   4.842   1.490   3.614
 4903TIP3   OH214714   3.515   4.319   2.010
 4903TIP3    H114715   3.610   4.328   2.019
 4903TIP3    H214716   3.489   4.266   2.085
 4904TIP3   OH214717   5.714   2.231   1.645
 4904TIP3    H114718   5.741   2.281   1.722
 4904TIP3    H214719   5.643   2.175   1.676
 4905TIP3   OH214720   3.933   5.234   0.709
 4905TIP3    H114721   3.952   5.210   0.799
 4905TIP3    H214722   3.916   5.151   0.664
 4906TIP3   OH214723   4.495   2.479   1.452
 4906TIP3    H114724   4.563   2.412   1.457
 4906TIP3    H214725   4.539   2.560   1.480
 4907TIP3   OH214726   4.168   0.222   0.418
 4907TIP3    H114727   4.215   0.253   0.340
 4907TIP3    H214728   4.208   0.138   0.438
 4908TIP3   OH214729   5.026   4.629   3.039
 4908TIP3    H114730   5.031   4.535   3.052
 4908TIP3    H214731   4.935   4.645   3.011
 4909TIP3   OH214732   3.622   3.840   0.908
 4909TIP3    H114733   3.538   3.844   0.861
 4909TIP3    H214734   3.659   3.927   0.898
 4910TIP3   OH214735   3.204   4.037   0.747
 4910TIP3    H114736   3.155   4.078   0.819
 4910TIP3    H214737   3.153   4.059   0.668
 4911TIP3   OH214738   4.569   2.681   2.628
 4911TIP3    H114739   4.588   2.691   2.535
 4911TIP3    H214740   4.628   2.742   2.672
 4912TIP3   OH214741   2.894   3.527   2.127
 4912TIP3    H114742   2.833   3.538   2.200
 4912TIP3    H214743   2.966   3.475   2.162
 4913TIP3   OH214744   3.480   3.064   4.635
 4913TIP3    H114745   3.497   2.983   4.683
 4913TIP3    H214746   3.398   3.047   4.588
 4914TIP3   OH214747   3.221   2.530   1.677
 4914TIP3    H114748   3.130   2.500   1.686
 4914TIP3    H214749   3.225   2.607   1.734
 4915TIP3   OH214750   3.431   3.943   1.227
 4915TIP3    H114751   3.427   3.859   1.182
 4915TIP3    H214752   3.486   3.926   1.304
 4916TIP3   OH214753   2.553   4.463   4.385
 4916TIP3    H114754   2.615   4.531   4.358
 4916TIP3    H214755   2.475   4.479   4.332
 4917TIP3   OH214756   5.575   0.249   4.831
 4917TIP3    H114757   5.661   0.207   4.834
 4917TIP3    H214758   5.592   0.341   4.849
 4918TIP3   OH214759   0.456   3.129   3.199
 4918TIP3    H114760   0.520   3.192   3.168
 4918TIP3    H214761   0.380   3.182   3.224
 4919TIP3   OH214762   4.755   4.468   0.246
 4919TIP3    H114763   4.742   4.563   0.253
 4919TIP3    H214764   4.773   4.440   0.336
 4920TIP3   OH214765   6.301   2.999   0.769
 4920TIP3    H114766   6.223   2.945   0.779
 4920TIP3    H214767   6.354   2.952   0.704
 4921TIP3   OH214768   1.941   4.095   1.202
 4921TIP3    H114769   2.023   4.123   1.243
 4921TIP3    H214770   1.957   4.100   1.108
 4922TIP3   OH214771   4.249   4.440   0.071
 4922TIP3    H114772   4.162   4.408   0.097
 4922TIP3    H214773   4.309   4.375   0.107
 4923TIP3   OH214774   0.038   3.884   1.882
 4923TIP3    H114775   0.040   3.977   1.859
 4923TIP3    H214776   0.103   3.844   1.825
 4924TIP3   OH214777   1.773   1.860   1.889
 4924TIP3    H114778   1.760   1.942   1.936
 4924TIP3    H214779   1.710   1.863   1.817
 4925TIP3   OH214780   3.549   5.812   0.674
 4925TIP3    H114781   3.471   5.858   0.643
 4925TIP3    H214782   3.572   5.856   0.756
 4926TIP3   OH214783   1.829   3.852   2.671
 4926TIP3    H114784   1.865   3.865   2.759
 4926TIP3    H214785   1.811   3.758   2.666
 4927TIP3   OH214786   0.208   2.870   3.377
 4927TIP3    H114787   0.243   2.922   3.450
 4927TIP3    H214788   0.118   2.903   3.365
 4928TIP3   OH214789   1.912   5.068   0.983
 4928TIP3    H114790   1.863   5.042   1.060
 4928TIP3    H214791   1.949   5.154   1.005
 4929TIP3   OH214792   6.087   2.928   1.500
 4929TIP3    H114793   6.069   2.919   1.406
 4929TIP3    H214794   6.131   2.846   1.524
 4930TIP3   OH214795   4.242   0.144   4.050
 4930TIP3    H114796   4.237   0.215   4.115
 4930TIP3    H214797   4.275   0.069   4.100
 4931TIP3   OH214798   5.626   1.760   2.293
 4931TIP3    H114799   5.558   1.786   2.231
 4931TIP3    H214800   5.706   1.798   2.259
 4932TIP3   OH214801   5.099   0.829   2.565
 4932TIP3    H114802   5.091   0.735   2.545
 4932TIP3    H214803   5.152   0.863   2.493
 4933TIP3   OH214804   4.491   1.657   2.611
 4933TIP3    H114805   4.524   1.737   2.650
 4933TIP3    H214806   4.396   1.662   2.623
 4934TIP3   OH214807   3.440   3.428   0.115
 4934TIP3    H114808   3.451   3.445   0.022
 4934TIP3    H214809   3.388   3.348   0.119
 4935TIP3   OH214810   3.000   5.966   5.130
 4935TIP3    H114811   3.049   5.897   5.085
 4935TIP3    H214812   2.920   5.975   5.080
 4936TIP3   OH214813   2.157   2.782   2.193
 4936TIP3    H114814   2.138   2.789   2.100
 4936TIP3    H214815   2.199   2.865   2.215
 4937TIP3   OH214816   6.254   1.640   4.507
 4937TIP3    H114817   6.205   1.679   4.580
 4937TIP3    H214818   6.275   1.552   4.538
 4938TIP3   OH214819   2.399   3.123   4.610
 4938TIP3    H114820   2.405   3.102   4.517
 4938TIP3    H214821   2.468   3.072   4.651
 4939TIP3   OH214822   4.669   2.716   2.376
 4939TIP3    H114823   4.707   2.652   2.315
 4939TIP3    H214824   4.738   2.782   2.387
 4940TIP3   OH214825   0.277   5.045   1.171
 4940TIP3    H114826   0.208   5.065   1.108
 4940TIP3    H214827   0.314   4.962   1.141
 4941TIP3   OH214828   5.769   3.855   0.470
 4941TIP3    H114829   5.758   3.811   0.385
 4941TIP3    H214830   5.841   3.916   0.456
 4942TIP3   OH214831   0.867   4.576   1.997
 4942TIP3    H114832   0.866   4.665   1.961
 4942TIP3    H214833   0.912   4.524   1.929
 4943TIP3   OH214834   5.075   3.330   2.477
 4943TIP3    H114835   5.010   3.262   2.492
 4943TIP3    H214836   5.150   3.284   2.440
 4944TIP3   OH214837   3.831   1.705   1.445
 4944TIP3    H114838   3.868   1.725   1.532
 4944TIP3    H214839   3.888   1.636   1.411
 4945TIP3   OH214840   1.402   5.760   2.540
 4945TIP3    H114841   1.366   5.738   2.454
 4945TIP3    H214842   1.496   5.748   2.531
 4946TIP3   OH214843   5.178   1.262   3.489
 4946TIP3    H114844   5.230   1.186   3.515
 4946TIP3    H214845   5.122   1.230   3.418
 4947TIP3   OH214846   1.624   1.935   3.619
 4947TIP3    H114847   1.614   2.030   3.624
 4947TIP3    H214848   1.535   1.901   3.619
 4948TIP3   OH214849   3.649   3.128   3.650
 4948TIP3    H114850   3.648   3.170   3.736
 4948TIP3    H214851   3.615   3.194   3.590
 4949TIP3   OH214852   4.644   4.983   0.475
 4949TIP3    H114853   4.617   5.023   0.392
 4949TIP3    H214854   4.579   4.915   0.492
 4950TIP3   OH214855   3.528   0.492   2.654
 4950TIP3    H114856   3.519   0.566   2.593
 4950TIP3    H214857   3.438   0.465   2.672
 4951TIP3   OH214858   0.203   5.853   3.057
 4951TIP3    H114859   0.153   5.885   2.983
 4951TIP3    H214860   0.140   5.847   3.129
 4952TIP3   OH214861   3.120   4.850   0.370
 4952TIP3    H114862   3.194   4.790   0.377
 4952TIP3    H214863   3.043   4.793   0.365
 4953TIP3   OH214864   5.623   2.682   0.439
 4953TIP3    H114865   5.641   2.649   0.351
 4953TIP3    H214866   5.529   2.699   0.440
 4954TIP3   OH214867   0.100   5.508   3.779
 4954TIP3    H114868   0.033   5.575   3.792
 4954TIP3    H214869   0.150   5.537   3.702
 4955TIP3   OH214870   4.009   1.709   0.439
 4955TIP3    H114871   4.054   1.679   0.360
 4955TIP3    H214872   4.076   1.756   0.489
 4956TIP3   OH214873   3.794   3.258   3.333
 4956TIP3    H114874   3.857   3.219   3.394
 4956TIP3    H214875   3.791   3.197   3.260
 4957TIP3   OH214876   4.160   0.475   1.375
 4957TIP3    H114877   4.123   0.514   1.296
 4957TIP3    H214878   4.204   0.396   1.344
 4958TIP3   OH214879   6.371   4.167   3.580
 4958TIP3    H114880   6.330   4.253   3.588
 4958TIP3    H214881   6.463   4.182   3.603
 4959TIP3   OH214882   5.321   2.556   4.521
 4959TIP3    H114883   5.259   2.603   4.576
 4959TIP3    H214884   5.386   2.622   4.496
 4960TIP3   OH214885   2.406   3.550   4.534
 4960TIP3    H114886   2.390   3.643   4.522
 4960TIP3    H214887   2.501   3.542   4.532
 4961TIP3   OH214888   5.333   3.642   4.728
 4961TIP3    H114889   5.360   3.551   4.741
 4961TIP3    H214890   5.249   3.649   4.774
 4962TIP3   OH214891   0.376   3.513   4.064
 4962TIP3    H114892   0.285   3.484   4.058
 4962TIP3    H214893   0.385   3.579   3.996
 4963TIP3   OH214894   5.962   4.401   2.628
 4963TIP3    H114895   5.950   4.410   2.534
 4963TIP3    H214896   5.993   4.487   2.657
 4964TIP3   OH214897   6.129   2.091   4.421
 4964TIP3    H114898   6.105   2.007   4.384
 4964TIP3    H214899   6.210   2.115   4.375
 4965TIP3   OH214900   4.402   0.931   0.497
 4965TIP3    H114901   4.430   0.886   0.577
 4965TIP3    H214902   4.425   1.022   0.511
 4966TIP3   OH214903   2.476   0.191   2.936
 4966TIP3    H114904   2.451   0.185   2.844
 4966TIP3    H214905   2.521   0.275   2.943
 4967TIP3   OH214906   5.827   1.820   4.623
 4967TIP3    H114907   5.873   1.768   4.558
 4967TIP3    H214908   5.888   1.891   4.643
 4968TIP3   OH214909   3.728   2.926   0.903
 4968TIP3    H114910   3.730   2.868   0.979
 4968TIP3    H214911   3.639   2.919   0.870
 4969TIP3   OH214912   6.000   1.764   0.547
 4969TIP3    H114913   6.029   1.784   0.458
 4969TIP3    H214914   6.057   1.692   0.575
 4970TIP3   OH214915   2.798   3.924   3.073
 4970TIP3    H114916   2.860   3.871   3.124
 4970TIP3    H214917   2.828   4.014   3.087
 4971TIP3   OH214918   5.100   3.886   1.013
 4971TIP3    H114919   5.126   3.978   1.023
 4971TIP3    H214920   5.075   3.878   0.921
 4972TIP3   OH214921   6.064   1.329   3.135
 4972TIP3    H114922   6.111   1.323   3.218
 4972TIP3    H214923   6.082   1.246   3.091
 4973TIP3   OH214924   0.800   2.671   3.692
 4973TIP3    H114925   0.766   2.607   3.629
 4973TIP3    H214926   0.856   2.728   3.640
 4974TIP3   OH214927   1.577   2.913   3.335
 4974TIP3    H114928   1.529   2.947   3.260
 4974TIP3    H214929   1.668   2.906   3.305
 4975TIP3   OH214930   3.800   4.731   4.834
 4975TIP3    H114931   3.857   4.803   4.860
 4975TIP3    H214932   3.712   4.767   4.838
 4976TIP3   OH214933   2.716   4.726   2.738
 4976TIP3    H114934   2.688   4.804   2.690
 4976TIP3    H214935   2.661   4.655   2.704
 4977TIP3   OH214936   2.358   5.659   1.523
 4977TIP3    H114937   2.278   5.633   1.478
 4977TIP3    H214938   2.387   5.580   1.568
 4978TIP3   OH214939   6.118   5.546   4.270
 4978TIP3    H114940   6.071   5.508   4.195
 4978TIP3    H214941   6.056   5.539   4.343
 4979TIP3   OH214942   0.647   1.996   2.731
 4979TIP3    H114943   0.716   1.977   2.796
 4979TIP3    H214944   0.676   1.951   2.652
 4980TIP3   OH214945   2.144   4.757   0.508
 4980TIP3    H114946   2.153   4.763   0.413
 4980TIP3    H214947   2.053   4.780   0.525
 4981TIP3   OH214948   0.114   4.604   0.554
 4981TIP3    H114949   0.156   4.657   0.623
 4981TIP3    H214950   0.132   4.514   0.579
 4982TIP3   OH214951   6.063   3.255   3.085
 4982TIP3    H114952   5.975   3.222   3.104
 4982TIP3    H214953   6.098   3.195   3.019
 4983TIP3   OH214954   2.197   4.316   2.915
 4983TIP3    H114955   2.108   4.352   2.907
 4983TIP3    H214956   2.207   4.261   2.837
 4984TIP3   OH214957   5.787   3.127   3.264
 4984TIP3    H114958   5.740   3.194   3.314
 4984TIP3    H214959   5.747   3.129   3.178
 4985TIP3   OH214960   3.050   3.206   3.628
 4985TIP3    H114961   3.065   3.175   3.717
 4985TIP3    H214962   3.060   3.301   3.633
 4986TIP3   OH214963   4.198   4.193   1.483
 4986TIP3    H114964   4.189   4.187   1.388
 4986TIP3    H214965   4.205   4.287   1.501
 4987TIP3   OH214966   1.652   1.718   2.121
 4987TIP3    H114967   1.734   1.754   2.086
 4987TIP3    H214968   1.680   1.654   2.187
 4988TIP3   OH214969   5.609   1.544   4.145
 4988TIP3    H114970   5.563   1.582   4.071
 4988TIP3    H214971   5.544   1.488   4.188
 4989TIP3   OH214972   4.268   5.015   1.801
 4989TIP3    H114973   4.315   5.056   1.873
 4989TIP3    H214974   4.208   5.083   1.769
 4990TIP3   OH214975   3.275   2.637   1.104
 4990TIP3    H114976   3.186   2.649   1.135
 4990TIP3    H214977   3.305   2.556   1.146
 4991TIP3   OH214978   5.670   5.867   0.360
 4991TIP3    H114979   5.636   5.831   0.278
 4991TIP3    H214980   5.763   5.880   0.345
 4992TIP3   OH214981   6.362   1.379   0.313
 4992TIP3    H114982   6.360   1.459   0.364
 4992TIP3    H214983   6.289   1.389   0.251
 4993TIP3   OH214984   4.035   0.514   1.059
 4993TIP3    H114985   3.995   0.553   0.981
 4993TIP3    H214986   4.030   0.419   1.044
 4994TIP3   OH214987   4.748   1.339   5.000
 4994TIP3    H114988   4.665   1.298   5.024
 4994TIP3    H214989   4.724   1.411   4.942
 4995TIP3   OH214990   1.599   3.528   0.722
 4995TIP3    H114991   1.584   3.529   0.816
 4995TIP3    H214992   1.680   3.478   0.711
 4996TIP3   OH214993   0.026   0.367   3.822
 4996TIP3    H114994  -0.053   0.385   3.770
 4996TIP3    H214995   0.001   0.293   3.877
 4997TIP3   OH214996   0.489   3.065   4.516
 4997TIP3    H114997   0.435   3.096   4.443
 4997TIP3    H214998   0.520   3.145   4.558
 4998TIP3   OH214999   3.393   0.053   1.109
 4998TIP3    H115000   3.484   0.039   1.081
 4998TIP3    H215001   3.341   0.037   1.031
 4999TIP3   OH215002   4.901   0.209   3.101
 4999TIP3    H115003   4.899   0.158   3.021
 4999TIP3    H215004   4.809   0.222   3.125
 5000TIP3   OH215005   0.631   5.599   4.974
 5000TIP3    H115006   0.542   5.609   4.941
 5000TIP3    H215007   0.645   5.676   5.029
 5001TIP3   OH215008   5.011   0.358   0.558
 5001TIP3    H115009   4.916   0.370   0.552
 5001TIP3    H215010   5.046   0.403   0.481
 5002TIP3   OH215011   1.454   3.716   0.551
 5002TIP3    H115012   1.510   3.640   0.569
 5002TIP3    H215013   1.495   3.788   0.600
 5003TIP3   OH215014   0.318   4.412   4.651
 5003TIP3    H115015   0.334   4.325   4.616
 5003TIP3    H215016   0.389   4.426   4.714
 5004TIP3   OH215017   6.207   2.879   3.466
 5004TIP3    H115018   6.126   2.890   3.416
 5004TIP3    H215019   6.238   2.792   3.443
 5005TIP3   OH215020   0.831   2.632   3.057
 5005TIP3    H115021   0.825   2.632   2.961
 5005TIP3    H215022   0.741   2.634   3.087
 5006TIP3   OH215023   5.808   2.403   0.731
 5006TIP3    H115024   5.787   2.310   0.726
 5006TIP3    H215025   5.879   2.408   0.796
 5007TIP3   OH215026   6.323   2.521   0.309
 5007TIP3    H115027   6.395   2.467   0.278
 5007TIP3    H215028   6.251   2.502   0.249
 5008TIP3   OH215029   5.041   0.637   4.851
 5008TIP3    H115030   5.036   0.590   4.768
 5008TIP3    H215031   5.029   0.569   4.918
 5009TIP3   OH215032   4.202   1.593   2.625
 5009TIP3    H115033   4.171   1.556   2.707
 5009TIP3    H215034   4.206   1.518   2.565
 5010TIP3   OH215035   5.137   4.095   1.567
 5010TIP3    H115036   5.168   4.169   1.515
 5010TIP3    H215037   5.121   4.026   1.503
 5011TIP3   OH215038   4.696   2.140   3.262
 5011TIP3    H115039   4.626   2.163   3.200
 5011TIP3    H215040   4.705   2.045   3.254
 5012TIP3   OH215041   1.979   3.575   1.475
 5012TIP3    H115042   2.067   3.543   1.496
 5012TIP3    H215043   1.961   3.641   1.541
 5013TIP3   OH215044   3.119   2.293   2.683
 5013TIP3    H115045   3.100   2.327   2.770
 5013TIP3    H215046   3.143   2.201   2.698
 5014TIP3   OH215047   5.824   1.717   2.002
 5014TIP3    H115048   5.834   1.800   1.954
 5014TIP3    H215049   5.793   1.743   2.089
 5015TIP3   OH215050   0.106   0.982   1.847
 5015TIP3    H115051   0.054   1.048   1.893
 5015TIP3    H215052   0.159   1.032   1.785
 5016TIP3   OH215053   0.634   1.751   4.972
 5016TIP3    H115054   0.693   1.826   4.965
 5016TIP3    H215055   0.596   1.758   5.060
 5017TIP3   OH215056   6.236   4.082   2.138
 5017TIP3    H115057   6.145   4.079   2.167
 5017TIP3    H215058   6.232   4.125   2.052
 5018TIP3   OH215059   0.437   4.143   3.402
 5018TIP3    H115060   0.443   4.164   3.309
 5018TIP3    H215061   0.468   4.222   3.446
 5019TIP3   OH215062   2.754   5.311   0.478
 5019TIP3    H115063   2.773   5.301   0.384
 5019TIP3    H215064   2.834   5.348   0.515
 5020TIP3   OH215065   1.877   2.966   1.749
 5020TIP3    H115066   1.824   3.024   1.694
 5020TIP3    H215067   1.940   2.927   1.688
 5021TIP3   OH215068   1.431   4.917   0.269
 5021TIP3    H115069   1.344   4.881   0.283
 5021TIP3    H215070   1.438   4.927   0.174
 5022TIP3   OH215071   3.814   4.633   1.386
 5022TIP3    H115072   3.821   4.585   1.469
 5022TIP3    H215073   3.731   4.605   1.348
 5023TIP3   OH215074   4.070   4.399   3.568
 5023TIP3    H115075   4.162   4.387   3.590
 5023TIP3    H215076   4.042   4.474   3.620
 5024TIP3   OH215077   3.961   0.516   2.918
 5024TIP3    H115078   3.867   0.530   2.934
 5024TIP3    H215079   3.984   0.443   2.976
 5025TIP3   OH215080   2.967   3.356   0.513
 5025TIP3    H115081   2.979   3.334   0.605
 5025TIP3    H215082   2.982   3.450   0.508
 5026TIP3   OH215083   5.357   4.886   0.385
 5026TIP3    H115084   5.423   4.834   0.431
 5026TIP3    H215085   5.281   4.885   0.444
 5027TIP3   OH215086   3.034   2.625   3.066
 5027TIP3    H115087   2.949   2.655   3.098
 5027TIP3    H215088   3.070   2.701   3.020
 5028TIP3   OH215089   1.364   0.614   4.672
 5028TIP3    H115090   1.305   0.689   4.674
 5028TIP3    H215091   1.383   0.601   4.579
 5029TIP3   OH215092   3.840   1.039   0.708
 5029TIP3    H115093   3.783   1.048   0.784
 5029TIP3    H215094   3.781   1.012   0.637
 5030TIP3   OH215095   2.336   2.773   0.748
 5030TIP3    H115096   2.380   2.802   0.668
 5030TIP3    H215097   2.289   2.851   0.778
 5031TIP3   OH215098   4.068   2.975   1.250
 5031TIP3    H115099   4.044   2.888   1.281
 5031TIP3    H215100   4.123   3.011   1.319
 5032TIP3   OH215101   0.610   2.740   1.619
 5032TIP3    H115102   0.645   2.736   1.708
 5032TIP3    H215103   0.608   2.833   1.598
 5033TIP3   OH215104   2.522   1.547   5.053
 5033TIP3    H115105   2.597   1.607   5.054
 5033TIP3    H215106   2.491   1.545   5.143
 5034TIP3   OH215107   5.320   5.414   2.609
 5034TIP3    H115108   5.372   5.359   2.550
 5034TIP3    H215109   5.338   5.378   2.696
 5035TIP3   OH215110   4.289   1.489   2.078
 5035TIP3    H115111   4.367   1.545   2.076
 5035TIP3    H215112   4.299   1.430   2.004
 5036TIP3   OH215113   5.962   1.627   4.507
 5036TIP3    H115114   5.975   1.574   4.428
 5036TIP3    H215115   5.909   1.573   4.564
 5037TIP3   OH215116   4.631   5.286   3.565
 5037TIP3    H115117   4.608   5.196   3.589
 5037TIP3    H215118   4.677   5.320   3.642
 5038TIP3   OH215119   3.104   4.419   0.843
 5038TIP3    H115120   3.159   4.419   0.765
 5038TIP3    H215121   3.087   4.326   0.861
 5039TIP3   OH215122   1.916   0.392   1.579
 5039TIP3    H115123   1.843   0.332   1.566
 5039TIP3    H215124   1.919   0.406   1.674
 5040TIP3   OH215125   0.266   3.832   0.357
 5040TIP3    H115126   0.291   3.743   0.382
 5040TIP3    H215127   0.172   3.837   0.377
 5041TIP3   OH215128   4.244   0.152   1.007
 5041TIP3    H115129   4.219   0.144   0.915
 5041TIP3    H215130   4.194   0.084   1.052
 5042TIP3   OH215131   1.069   3.068   0.360
 5042TIP3    H115132   0.983   3.082   0.321
 5042TIP3    H215133   1.130   3.074   0.287
 5043TIP3   OH215134   3.333   3.764   5.030
 5043TIP3    H115135   3.365   3.802   4.948
 5043TIP3    H215136   3.341   3.835   5.094
 5044TIP3   OH215137   3.794   2.230   0.654
 5044TIP3    H115138   3.814   2.136   0.657
 5044TIP3    H215139   3.834   2.260   0.573
 5045TIP3   OH215140   3.897   2.709   2.290
 5045TIP3    H115141   3.989   2.685   2.279
 5045TIP3    H215142   3.877   2.687   2.381
 5046TIP3   OH215143   5.508   4.566   3.988
 5046TIP3    H115144   5.592   4.563   3.941
 5046TIP3    H215145   5.532   4.576   4.080
 5047TIP3   OH215146   4.807   0.049   2.836
 5047TIP3    H115147   4.845  -0.031   2.873
 5047TIP3    H215148   4.881   0.094   2.796
 5048TIP3   OH215149   5.731   5.543   3.844
 5048TIP3    H115150   5.775   5.458   3.843
 5048TIP3    H215151   5.714   5.561   3.937
 5049TIP3   OH215152   5.819   3.007   2.455
 5049TIP3    H115153   5.859   3.093   2.468
 5049TIP3    H215154   5.726   3.020   2.476
 5050TIP3   OH215155   0.625   0.985   0.177
 5050TIP3    H115156   0.607   0.903   0.222
 5050TIP3    H215157   0.721   0.988   0.170
 5051TIP3   OH215158   1.996   0.883   0.125
 5051TIP3    H115159   1.975   0.873   0.218
 5051TIP3    H215160   1.927   0.940   0.091
 5052TIP3   OH215161   3.649   0.273   3.185
 5052TIP3    H115162   3.695   0.193   3.208
 5052TIP3    H215163   3.556   0.252   3.196
 5053TIP3   OH215164   2.851   4.483   1.609
 5053TIP3    H115165   2.819   4.556   1.555
 5053TIP3    H215166   2.879   4.525   1.691
 5054TIP3   OH215167   5.142   0.121   0.566
 5054TIP3    H115168   5.109   0.210   0.566
 5054TIP3    H215169   5.214   0.122   0.629
 5055TIP3   OH215170   4.370   4.837   2.371
 5055TIP3    H115171   4.315   4.836   2.449
 5055TIP3    H215172   4.311   4.866   2.301
 5056TIP3   OH215173   0.861   5.083   3.246
 5056TIP3    H115174   0.842   5.096   3.339
 5056TIP3    H215175   0.789   5.029   3.214
 5057TIP3   OH215176   1.836   1.609   1.173
 5057TIP3    H115177   1.854   1.549   1.101
 5057TIP3    H215178   1.917   1.610   1.225
 5058TIP3   OH215179   4.432   5.911   3.037
 5058TIP3    H115180   4.452   5.910   2.944
 5058TIP3    H215181   4.455   5.999   3.066
 5059TIP3   OH215182   4.791   3.932   1.638
 5059TIP3    H115183   4.836   3.854   1.669
 5059TIP3    H215184   4.745   3.904   1.559
 5060TIP3   OH215185   5.795   4.281   2.003
 5060TIP3    H115186   5.725   4.253   2.062
 5060TIP3    H215187   5.841   4.350   2.050
 5061TIP3   OH215188   2.804   2.214   1.480
 5061TIP3    H115189   2.793   2.128   1.438
 5061TIP3    H215190   2.888   2.245   1.447
 5062TIP3   OH215191   0.248   1.730   0.809
 5062TIP3    H115192   0.336   1.710   0.777
 5062TIP3    H215193   0.214   1.646   0.839
 5063TIP3   OH215194   3.669   3.048   2.785
 5063TIP3    H115195   3.654   2.970   2.838
 5063TIP3    H215196   3.613   3.036   2.708
 5064TIP3   OH215197   4.643   4.593   1.645
 5064TIP3    H115198   4.615   4.505   1.622
 5064TIP3    H215199   4.712   4.614   1.583
 5065TIP3   OH215200   4.588   1.920   4.282
 5065TIP3    H115201   4.504   1.885   4.311
 5065TIP3    H215202   4.583   1.921   4.187
 5066TIP3   OH215203   5.062   5.618   4.779
 5066TIP3    H115204   5.080   5.596   4.871
 5066TIP3    H215205   5.084   5.538   4.731
 5067TIP3   OH215206   0.849   2.612   2.115
 5067TIP3    H115207   0.895   2.659   2.045
 5067TIP3    H215208   0.902   2.627   2.193
 5068TIP3   OH215209   5.240   0.912   0.899
 5068TIP3    H115210   5.197   0.959   0.970
 5068TIP3    H215211   5.304   0.856   0.942
 5069TIP3   OH215212   5.479   2.991   3.522
 5069TIP3    H115213   5.439   3.024   3.602
 5069TIP3    H215214   5.453   3.055   3.455
 5070TIP3   OH215215   3.169   5.579   2.117
 5070TIP3    H115216   3.076   5.557   2.121
 5070TIP3    H215217   3.171   5.674   2.117
 5071TIP3   OH215218   2.874   5.159   0.836
 5071TIP3    H115219   2.847   5.241   0.877
 5071TIP3    H215220   2.956   5.181   0.792
 5072TIP3   OH215221   2.964   2.726   2.732
 5072TIP3    H115222   2.925   2.790   2.672
 5072TIP3    H215223   2.932   2.750   2.818
 5073TIP3   OH215224   1.030   2.270   5.052
 5073TIP3    H115225   1.072   2.332   4.993
 5073TIP3    H215226   1.061   2.295   5.140
 5074TIP3   OH215227   4.435   5.659   1.297
 5074TIP3    H115228   4.523   5.623   1.289
 5074TIP3    H215229   4.448   5.753   1.311
 5075TIP3   OH215230   5.976   1.603   4.818
 5075TIP3    H115231   5.882   1.616   4.809
 5075TIP3    H215232   6.014   1.689   4.797
 5076TIP3   OH215233   3.404   4.801   0.435
 5076TIP3    H115234   3.462   4.877   0.431
 5076TIP3    H215235   3.455   4.733   0.478
 5077TIP3   OH215236   3.708   2.160   0.307
 5077TIP3    H115237   3.633   2.176   0.364
 5077TIP3    H215238   3.778   2.216   0.342
 5078TIP3   OH215239   6.222   0.284   2.159
 5078TIP3    H115240   6.236   0.268   2.066
 5078TIP3    H215241   6.285   0.352   2.182
 5079TIP3   OH215242   4.237   5.764   2.775
 5079TIP3    H115243   4.248   5.744   2.682
 5079TIP3    H215244   4.241   5.859   2.780
 5080TIP3   OH215245   3.475   3.751   0.051
 5080TIP3    H115246   3.540   3.794   0.107
 5080TIP3    H215247   3.527   3.701  -0.012
 5081TIP3   OH215248   3.117   5.900   3.957
 5081TIP3    H115249   3.212   5.899   3.945
 5081TIP3    H215250   3.094   5.993   3.956
 5082TIP3   OH215251   4.795   5.114   0.068
 5082TIP3    H115252   4.871   5.082   0.020
 5082TIP3    H215253   4.800   5.069   0.153
 5083TIP3   OH215254   2.536   1.340   2.369
 5083TIP3    H115255   2.441   1.338   2.377
 5083TIP3    H215256   2.568   1.283   2.439
 5084TIP3   OH215257   3.883   5.805   4.398
 5084TIP3    H115258   3.909   5.859   4.472
 5084TIP3    H215259   3.798   5.841   4.371
 5085TIP3   OH215260   1.303   2.691   1.318
 5085TIP3    H115261   1.215   2.676   1.284
 5085TIP3    H215262   1.328   2.607   1.356
 5086TIP3   OH215263   3.955   2.493   4.706
 5086TIP3    H115264   4.020   2.436   4.665
 5086TIP3    H215265   3.938   2.561   4.640
 5087TIP3   OH215266   5.133   4.163   0.969
 5087TIP3    H115267   5.050   4.167   0.923
 5087TIP3    H215268   5.134   4.241   1.024
 5088TIP3   OH215269   5.572   2.382   2.109
 5088TIP3    H115270   5.599   2.312   2.169
 5088TIP3    H215271   5.478   2.390   2.122
 5089TIP3   OH215272   0.377   0.744   4.306
 5089TIP3    H115273   0.299   0.692   4.285
 5089TIP3    H215274   0.351   0.834   4.284
 5090TIP3   OH215275   4.643   3.589   3.016
 5090TIP3    H115276   4.560   3.634   3.001
 5090TIP3    H215277   4.622   3.496   3.007
 5091TIP3   OH215278   2.884   4.719   0.438
 5091TIP3    H115279   2.925   4.758   0.515
 5091TIP3    H215280   2.831   4.647   0.472
 5092TIP3   OH215281   2.870   2.669   3.412
 5092TIP3    H115282   2.909   2.737   3.357
 5092TIP3    H215283   2.916   2.676   3.496
 5093TIP3   OH215284   3.327   4.982   1.946
 5093TIP3    H115285   3.415   4.992   1.983
 5093TIP3    H215286   3.342   4.960   1.854
 5094TIP3   OH215287   3.947   3.631   1.698
 5094TIP3    H115288   3.961   3.685   1.621
 5094TIP3    H215289   3.884   3.565   1.670
 5095TIP3   OH215290   2.561   4.006   2.844
 5095TIP3    H115291   2.574   3.943   2.914
 5095TIP3    H215292   2.627   4.074   2.861
 5096TIP3   OH215293   4.819   0.423   0.179
 5096TIP3    H115294   4.729   0.444   0.203
 5096TIP3    H215295   4.812   0.380   0.093
 5097TIP3   OH215296   4.343   5.730   2.511
 5097TIP3    H115297   4.299   5.684   2.439
 5097TIP3    H215298   4.429   5.690   2.516
 5098TIP3   OH215299   0.203   0.695   1.312
 5098TIP3    H115300   0.268   0.654   1.370
 5098TIP3    H215301   0.120   0.683   1.358
 5099TIP3   OH215302   3.786   5.504   1.085
 5099TIP3    H115303   3.712   5.497   1.147
 5099TIP3    H215304   3.797   5.598   1.072
 5100TIP3   OH215305   3.872   4.666   0.819
 5100TIP3    H115306   3.957   4.688   0.857
 5100TIP3    H215307   3.844   4.587   0.866
 5101TIP3   OH215308   3.011   5.807   0.492
 5101TIP3    H115309   3.029   5.745   0.562
 5101TIP3    H215310   2.920   5.835   0.506
 5102TIP3   OH215311   2.294   4.771   0.251
 5102TIP3    H115312   2.242   4.795   0.174
 5102TIP3    H215313   2.364   4.836   0.253
 5103TIP3   OH215314   0.713   3.623   4.258
 5103TIP3    H115315   0.668   3.554   4.210
 5103TIP3    H215316   0.803   3.592   4.266
 5104TIP3   OH215317   2.489   0.626   1.885
 5104TIP3    H115318   2.418   0.616   1.823
 5104TIP3    H215319   2.544   0.695   1.848
 5105TIP3   OH215320   2.279   3.057   1.826
 5105TIP3    H115321   2.356   3.001   1.827
 5105TIP3    H215322   2.282   3.101   1.740
 5106TIP3   OH215323   1.112   5.676   2.587
 5106TIP3    H115324   1.167   5.730   2.643
 5106TIP3    H215325   1.154   5.679   2.501
 5107TIP3   OH215326   2.273   2.388   3.011
 5107TIP3    H115327   2.229   2.373   2.927
 5107TIP3    H215328   2.311   2.475   3.003
 5108TIP3   OH215329   3.024   1.807   2.531
 5108TIP3    H115330   2.943   1.810   2.480
 5108TIP3    H215331   2.995   1.806   2.622
 5109TIP3   OH215332   3.567   5.029   0.438
 5109TIP3    H115333   3.527   5.090   0.377
 5109TIP3    H215334   3.603   5.084   0.508
 5110TIP3   OH215335   3.007   3.378   0.781
 5110TIP3    H115336   2.961   3.445   0.831
 5110TIP3    H215337   3.095   3.376   0.820
 5111TIP3   OH215338   0.462   5.493   4.166
 5111TIP3    H115339   0.536   5.457   4.116
 5111TIP3    H215340   0.402   5.525   4.100
 5112TIP3   OH215341   4.988   1.018   0.747
 5112TIP3    H115342   5.021   1.020   0.837
 5112TIP3    H215343   4.915   1.079   0.747
 5113TIP3   OH215344   5.873   4.545   4.181
 5113TIP3    H115345   5.948   4.568   4.236
 5113TIP3    H215346   5.864   4.619   4.121
 5114TIP3   OH215347   1.444   2.784   0.898
 5114TIP3    H115348   1.452   2.694   0.865
 5114TIP3    H215349   1.425   2.837   0.821
 5115TIP3   OH215350   3.475   4.182   0.535
 5115TIP3    H115351   3.500   4.090   0.536
 5115TIP3    H215352   3.402   4.187   0.474
 5116TIP3   OH215353   3.408   5.901   3.872
 5116TIP3    H115354   3.478   5.936   3.816
 5116TIP3    H215355   3.431   5.930   3.960
 5117TIP3   OH215356   3.747   3.475   1.561
 5117TIP3    H115357   3.713   3.394   1.600
 5117TIP3    H215358   3.679   3.540   1.577
 5118TIP3   OH215359   3.410   1.688   3.479
 5118TIP3    H115360   3.401   1.756   3.546
 5118TIP3    H215361   3.363   1.613   3.516
 5119TIP3   OH215362   2.692   5.359   1.188
 5119TIP3    H115363   2.700   5.385   1.096
 5119TIP3    H215364   2.625   5.291   1.187
 5120TIP3   OH215365   2.071   2.182   0.385
 5120TIP3    H115366   2.077   2.135   0.469
 5120TIP3    H215367   2.024   2.262   0.406
 5121TIP3   OH215368   6.185   0.856   3.914
 5121TIP3    H115369   6.211   0.795   3.983
 5121TIP3    H215370   6.093   0.877   3.933
 5122TIP3   OH215371   5.884   3.334   2.844
 5122TIP3    H115372   5.842   3.389   2.910
 5122TIP3    H215373   5.973   3.322   2.876
 5123TIP3   OH215374   0.607   3.909   4.628
 5123TIP3    H115375   0.694   3.941   4.650
 5123TIP3    H215376   0.557   3.917   4.710
 5124TIP3   OH215377   2.675   1.900   2.189
 5124TIP3    H115378   2.694   1.845   2.113
 5124TIP3    H215379   2.742   1.969   2.186
 5125TIP3   OH215380   1.460   2.052   4.923
 5125TIP3    H115381   1.482   2.035   4.831
 5125TIP3    H215382   1.535   2.101   4.957
 5126TIP3   OH215383   1.637   4.013   1.655
 5126TIP3    H115384   1.602   3.930   1.687
 5126TIP3    H215385   1.663   3.995   1.565
 5127TIP3   OH215386   3.909   3.456   3.616
 5127TIP3    H115387   3.980   3.393   3.604
 5127TIP3    H215388   3.928   3.526   3.554
 5128TIP3   OH215389   3.940   0.229   0.929
 5128TIP3    H115390   3.938   0.134   0.944
 5128TIP3    H215391   3.903   0.240   0.841
 5129TIP3   OH215392   0.627   3.855   1.335
 5129TIP3    H115393   0.533   3.844   1.317
 5129TIP3    H215394   0.630   3.885   1.425
 5130TIP3   OH215395   0.186   1.235   1.196
 5130TIP3    H115396   0.104   1.212   1.153
 5130TIP3    H215397   0.227   1.151   1.216
 5131TIP3   OH215398   1.487   1.263   0.667
 5131TIP3    H115399   1.394   1.242   0.665
 5131TIP3    H215400   1.490   1.357   0.687
 5132TIP3   OH215401   5.983   0.497   0.248
 5132TIP3    H115402   6.050   0.475   0.184
 5132TIP3    H215403   5.927   0.419   0.252
 5133TIP3   OH215404   3.736   1.308   3.980
 5133TIP3    H115405   3.795   1.364   4.031
 5133TIP3    H215406   3.772   1.220   3.989
 5134TIP3   OH215407   4.002   2.365   4.397
 5134TIP3    H115408   4.070   2.342   4.460
 5134TIP3    H215409   3.975   2.281   4.360
 5135TIP3   OH215410   4.927   3.517   0.052
 5135TIP3    H115411   4.940   3.610   0.070
 5135TIP3    H215412   4.896   3.481   0.135
 5136TIP3   OH215413   2.389   1.136   1.731
 5136TIP3    H115414   2.374   1.041   1.735
 5136TIP3    H215415   2.396   1.163   1.822
 5137TIP3   OH215416   0.928   0.026   3.411
 5137TIP3    H115417   0.974   0.021   3.327
 5137TIP3    H215418   0.996   0.011   3.476
 5138TIP3   OH215419   0.541   2.514   0.783
 5138TIP3    H115420   0.543   2.577   0.711
 5138TIP3    H215421   0.496   2.438   0.747
 5139TIP3   OH215422   0.737   1.627   3.191
 5139TIP3    H115423   0.806   1.561   3.181
 5139TIP3    H215424   0.689   1.625   3.108
 5140TIP3   OH215425   1.824   0.178   5.180
 5140TIP3    H115426   1.740   0.131   5.184
 5140TIP3    H215427   1.886   0.120   5.223
 5141TIP3   OH215428   3.516   4.951   0.833
 5141TIP3    H115429   3.584   4.913   0.888
 5141TIP3    H215430   3.562   5.018   0.782
 5142TIP3   OH215431   3.972   4.464   4.645
 5142TIP3    H115432   4.012   4.534   4.594
 5142TIP3    H215433   3.915   4.509   4.707
 5143TIP3   OH215434   0.373   0.026   2.095
 5143TIP3    H115435   0.434  -0.048   2.091
 5143TIP3    H215436   0.430   0.103   2.091
 5144TIP3   OH215437   3.052   5.761   1.286
 5144TIP3    H115438   2.965   5.743   1.320
 5144TIP3    H215439   3.083   5.836   1.337
 5145TIP3   OH215440   4.317   4.384   3.663
 5145TIP3    H115441   4.412   4.391   3.656
 5145TIP3    H215442   4.299   4.385   3.757
 5146TIP3   OH215443   5.314   4.082   2.314
 5146TIP3    H115444   5.234   4.069   2.263
 5146TIP3    H215445   5.321   4.177   2.324
 5147TIP3   OH215446   1.385   6.033   2.903
 5147TIP3    H115447   1.403   5.961   2.842
 5147TIP3    H215448   1.293   6.056   2.885
 5148TIP3   OH215449   2.278   1.300   0.894
 5148TIP3    H115450   2.338   1.374   0.879
 5148TIP3    H215451   2.317   1.227   0.846
 5149TIP3   OH215452   5.256   3.434   0.941
 5149TIP3    H115453   5.273   3.502   1.006
 5149TIP3    H215454   5.181   3.467   0.891
 5150TIP3   OH215455   5.096   5.730   0.358
 5150TIP3    H115456   5.174   5.744   0.412
 5150TIP3    H215457   5.096   5.636   0.340
 5151TIP3   OH215458   2.027   2.424   0.080
 5151TIP3    H115459   1.944   2.378   0.079
 5151TIP3    H215460   2.010   2.507   0.034
 5152TIP3   OH215461   5.830   3.282   4.161
 5152TIP3    H115462   5.875   3.204   4.128
 5152TIP3    H215463   5.888   3.315   4.230
 5153TIP3   OH215464   5.569   2.022   3.260
 5153TIP3    H115465   5.619   2.096   3.294
 5153TIP3    H215466   5.633   1.969   3.213
 5154TIP3   OH215467   4.931   2.729   5.179
 5154TIP3    H115468   5.010   2.675   5.175
 5154TIP3    H215469   4.934   2.768   5.266
 5155TIP3   OH215470   4.012   4.742   2.253
 5155TIP3    H115471   3.938   4.710   2.304
 5155TIP3    H215472   3.989   4.722   2.162
 5156TIP3   OH215473   6.305   5.572   0.286
 5156TIP3    H115474   6.262   5.577   0.201
 5156TIP3    H215475   6.374   5.507   0.275
 5157TIP3   OH215476   5.296   1.677   3.747
 5157TIP3    H115477   5.250   1.604   3.706
 5157TIP3    H215478   5.378   1.685   3.699
 5158TIP3   OH215479   6.150   1.971   1.408
 5158TIP3    H115480   6.150   1.912   1.484
 5158TIP3    H215481   6.115   1.919   1.336
 5159TIP3   OH215482   6.375   5.142   4.556
 5159TIP3    H115483   6.366   5.232   4.525
 5159TIP3    H215484   6.298   5.097   4.523
 5160TIP3   OH215485   1.506   1.920   2.376
 5160TIP3    H115486   1.501   1.973   2.455
 5160TIP3    H215487   1.598   1.924   2.349
 5161TIP3   OH215488   6.319   3.607   0.999
 5161TIP3    H115489   6.317   3.536   1.063
 5161TIP3    H215490   6.356   3.682   1.047
 5162TIP3   OH215491   1.276   1.269   2.838
 5162TIP3    H115492   1.299   1.345   2.785
 5162TIP3    H215493   1.220   1.216   2.782
 5163TIP3   OH215494   1.507   3.232   0.813
 5163TIP3    H115495   1.436   3.284   0.774
 5163TIP3    H215496   1.479   3.219   0.903
 5164TIP3   OH215497   5.603   2.342   3.282
 5164TIP3    H115498   5.519   2.330   3.239
 5164TIP3    H215499   5.580   2.361   3.373
 5165TIP3   OH215500   2.721   3.021   1.740
 5165TIP3    H115501   2.774   2.942   1.734
 5165TIP3    H215502   2.635   2.990   1.769
 5166TIP3   OH215503   3.444   1.480   1.167
 5166TIP3    H115504   3.502   1.522   1.103
 5166TIP3    H215505   3.460   1.527   1.249
 5167TIP3   OH215506   1.180   2.958   0.644
 5167TIP3    H115507   1.144   3.003   0.720
 5167TIP3    H215508   1.168   3.019   0.571
 5168TIP3   OH215509   6.202   0.307   0.274
 5168TIP3    H115510   6.295   0.301   0.295
 5168TIP3    H215511   6.158   0.267   0.350
 5169TIP3   OH215512   0.038   4.674   4.044
 5169TIP3    H115513  -0.024   4.700   3.976
 5169TIP3    H215514   0.070   4.756   4.080
 5170TIP3   OH215515   1.063   2.443   0.444
 5170TIP3    H115516   0.981   2.473   0.404
 5170TIP3    H215517   1.062   2.481   0.532
 5171TIP3   OH215518   5.655   0.909   3.209
 5171TIP3    H115519   5.713   0.873   3.142
 5171TIP3    H215520   5.626   0.834   3.260
 5172TIP3   OH215521   3.647   3.969   3.331
 5172TIP3    H115522   3.555   3.991   3.321
 5172TIP3    H215523   3.693   4.053   3.328
 5173TIP3   OH215524   1.670   4.832   4.620
 5173TIP3    H115525   1.631   4.836   4.532
 5173TIP3    H215526   1.753   4.786   4.607
 5174TIP3   OH215527   1.051   2.522   1.000
 5174TIP3    H115528   1.091   2.592   0.949
 5174TIP3    H215529   1.125   2.467   1.027
 5175TIP3   OH215530   1.064   3.325   3.040
 5175TIP3    H115531   1.066   3.420   3.046
 5175TIP3    H215532   0.999   3.306   2.973
 5176TIP3   OH215533   3.229   5.274   4.242
 5176TIP3    H115534   3.136   5.250   4.239
 5176TIP3    H215535   3.239   5.337   4.170
 5177TIP3   OH215536   0.551   5.161   0.893
 5177TIP3    H115537   0.563   5.201   0.980
 5177TIP3    H215538   0.631   5.183   0.846
 5178TIP3   OH215539   2.411   2.448   3.971
 5178TIP3    H115540   2.414   2.401   3.888
 5178TIP3    H215541   2.337   2.508   3.962
 5179TIP3   OH215542   4.064   4.154   5.001
 5179TIP3    H115543   4.090   4.222   4.939
 5179TIP3    H215544   4.130   4.157   5.070
 5180TIP3   OH215545   4.367   3.660   2.995
 5180TIP3    H115546   4.278   3.652   2.962
 5180TIP3    H215547   4.378   3.587   3.055
 5181TIP3   OH215548   0.750   3.388   0.427
 5181TIP3    H115549   0.727   3.453   0.494
 5181TIP3    H215550   0.840   3.409   0.403
 5182TIP3   OH215551   0.577   3.676   1.897
 5182TIP3    H115552   0.577   3.740   1.826
 5182TIP3    H215553   0.484   3.657   1.912
 5183TIP3   OH215554   3.419   3.019   4.052
 5183TIP3    H115555   3.404   2.928   4.026
 5183TIP3    H215556   3.465   3.013   4.136
 5184TIP3   OH215557   0.755   0.322   2.743
 5184TIP3    H115558   0.823   0.282   2.798
 5184TIP3    H215559   0.714   0.248   2.698
 5185TIP3   OH215560   6.186   5.242   0.982
 5185TIP3    H115561   6.156   5.163   1.028
 5185TIP3    H215562   6.145   5.314   1.030
 5186TIP3   OH215563   0.267   3.085   5.044
 5186TIP3    H115564   0.318   3.039   4.977
 5186TIP3    H215565   0.178   3.087   5.009
 5187TIP3   OH215566   5.383   1.805   3.304
 5187TIP3    H115567   5.451   1.859   3.263
 5187TIP3    H215568   5.381   1.725   3.251
 5188TIP3   OH215569   1.332   0.226   5.002
 5188TIP3    H115570   1.247   0.182   5.008
 5188TIP3    H215571   1.323   0.286   4.927
 5189TIP3   OH215572   1.412   1.930   4.479
 5189TIP3    H115573   1.506   1.911   4.474
 5189TIP3    H215574   1.380   1.915   4.390
 5190TIP3   OH215575   4.062   4.678   4.474
 5190TIP3    H115576   4.054   4.611   4.406
 5190TIP3    H215577   4.085   4.758   4.426
 5191TIP3   OH215578   4.486   4.043   4.816
 5191TIP3    H115579   4.398   4.007   4.828
 5191TIP3    H215580   4.480   4.131   4.852
 5192TIP3   OH215581   5.976   4.835   4.883
 5192TIP3    H115582   6.068   4.852   4.861
 5192TIP3    H215583   5.964   4.875   4.969
 5193TIP3   OH215584   3.890   4.865   1.264
 5193TIP3    H115585   3.892   4.769   1.268
 5193TIP3    H215586   3.976   4.891   1.296
 5194TIP3   OH215587   4.992   5.149   4.790
 5194TIP3    H115588   5.080   5.144   4.827
 5194TIP3    H215589   4.937   5.101   4.853
 5195TIP3   OH215590   5.627   1.525   2.694
 5195TIP3    H115591   5.568   1.473   2.748
 5195TIP3    H215592   5.569   1.583   2.644
 5196TIP3   OH215593   5.611   3.896   2.726
 5196TIP3    H115594   5.588   3.839   2.800
 5196TIP3    H215595   5.530   3.902   2.675
 5197TIP3   OH215596   3.868   5.534   2.584
 5197TIP3    H115597   3.848   5.442   2.566
 5197TIP3    H215598   3.901   5.567   2.500
 5198TIP3   OH215599   5.289   2.717   5.058
 5198TIP3    H115600   5.382   2.697   5.060
 5198TIP3    H215601   5.270   2.733   4.965
 5199TIP3   OH215602   2.604   2.746   3.778
 5199TIP3    H115603   2.557   2.671   3.742
 5199TIP3    H215604   2.549   2.776   3.850
 5200TIP3   OH215605   3.117   2.038   2.813
 5200TIP3    H115606   3.064   1.959   2.797
 5200TIP3    H215607   3.093   2.066   2.901
 5201TIP3   OH215608   0.544   0.423   3.813
 5201TIP3    H115609   0.539   0.424   3.908
 5201TIP3    H215610   0.571   0.511   3.789
 5202TIP3   OH215611   6.043   2.302   3.520
 5202TIP3    H115612   5.958   2.334   3.551
 5202TIP3    H215613   6.105   2.370   3.547
 5203TIP3   OH215614   2.736   5.862   4.188
 5203TIP3    H115615   2.809   5.879   4.246
 5203TIP3    H215616   2.758   5.780   4.144
 5204TIP3   OH215617   0.718   3.606   1.129
 5204TIP3    H115618   0.789   3.558   1.086
 5204TIP3    H215619   0.746   3.615   1.220
 5205TIP3   OH215620   3.816   2.459   0.811
 5205TIP3    H115621   3.827   2.370   0.778
 5205TIP3    H215622   3.905   2.493   0.819
 5206TIP3   OH215623   2.768   0.309   2.786
 5206TIP3    H115624   2.731   0.384   2.739
 5206TIP3    H215625   2.764   0.237   2.723
 5207TIP3   OH215626   5.550   4.913   3.650
 5207TIP3    H115627   5.596   4.994   3.672
 5207TIP3    H215628   5.580   4.850   3.715
 5208TIP3   OH215629   3.343   1.638   2.173
 5208TIP3    H115630   3.284   1.592   2.113
 5208TIP3    H215631   3.300   1.631   2.258
 5209TIP3   OH215632   5.817   0.179   1.882
 5209TIP3    H115633   5.752   0.204   1.948
 5209TIP3    H215634   5.802   0.240   1.810
 5210TIP3   OH215635   4.934   3.585   3.056
 5210TIP3    H115636   4.843   3.599   3.028
 5210TIP3    H215637   4.978   3.668   3.038
 5211TIP3   OH215638   3.997   2.277   0.174
 5211TIP3    H115639   4.082   2.320   0.166
 5211TIP3    H215640   4.013   2.187   0.146
 5212TIP3   OH215641   3.724   2.226   3.972
 5212TIP3    H115642   3.676   2.247   3.892
 5212TIP3    H215643   3.678   2.151   4.009
 5213TIP3   OH215644   2.746   3.181   3.518
 5213TIP3    H115645   2.825   3.177   3.572
 5213TIP3    H215646   2.673   3.177   3.580
 5214TIP3   OH215647   2.807   6.033   1.428
 5214TIP3    H115648   2.823   5.939   1.431
 5214TIP3    H215649   2.790   6.058   1.519
 5215TIP3   OH215650   3.303   0.017   0.820
 5215TIP3    H115651   3.211  -0.006   0.836
 5215TIP3    H215652   3.301   0.106   0.787
 5216TIP3   OH215653   0.452   5.454   4.480
 5216TIP3    H115654   0.449   5.460   4.384
 5216TIP3    H215655   0.456   5.545   4.510
 5217TIP3   OH215656   1.088   1.481   3.933
 5217TIP3    H115657   1.150   1.539   3.889
 5217TIP3    H215658   1.144   1.427   3.990
 5218TIP3   OH215659   0.143   3.262   3.341
 5218TIP3    H115660   0.074   3.311   3.386
 5218TIP3    H215661   0.222   3.277   3.393
 5219TIP3   OH215662   0.591   4.902   4.136
 5219TIP3    H115663   0.500   4.908   4.165
 5219TIP3    H215664   0.591   4.939   4.048
 5220TIP3   OH215665   1.248   2.461   1.481
 5220TIP3    H115666   1.244   2.367   1.499
 5220TIP3    H215667   1.318   2.493   1.538
 5221TIP3   OH215668   4.802   3.874   2.414
 5221TIP3    H115669   4.866   3.834   2.473
 5221TIP3    H215670   4.723   3.819   2.423
 5222TIP3   OH215671   0.598   5.790   3.578
 5222TIP3    H115672   0.634   5.715   3.626
 5222TIP3    H215673   0.664   5.812   3.513
 5223TIP3   OH215674   6.050   1.886   4.056
 5223TIP3    H115675   5.973   1.829   4.052
 5223TIP3    H215676   6.079   1.882   4.147
 5224TIP3   OH215677   4.933   3.640   4.643
 5224TIP3    H115678   4.854   3.621   4.593
 5224TIP3    H215679   4.949   3.560   4.693
 5225TIP3   OH215680   2.960   0.551   4.690
 5225TIP3    H115681   2.986   0.644   4.689
 5225TIP3    H215682   3.014   0.511   4.757
 5226TIP3   OH215683   4.128   3.298   3.547
 5226TIP3    H115684   4.167   3.217   3.517
 5226TIP3    H215685   4.182   3.367   3.509
 5227TIP3   OH215686   0.107   0.409   3.081
 5227TIP3    H115687   0.058   0.376   3.005
 5227TIP3    H215688   0.146   0.330   3.120
 5228TIP3   OH215689   0.346   0.429   0.040
 5228TIP3    H115690   0.357   0.407  -0.053
 5228TIP3    H215691   0.435   0.439   0.073
 5229TIP3   OH215692   4.419   2.916   2.896
 5229TIP3    H115693   4.513   2.900   2.887
 5229TIP3    H215694   4.378   2.844   2.848
 5230TIP3   OH215695   1.220   3.384   4.879
 5230TIP3    H115696   1.313   3.358   4.882
 5230TIP3    H215697   1.203   3.402   4.786
 5231TIP3   OH215698   1.045   0.549   1.475
 5231TIP3    H115699   0.977   0.615   1.483
 5231TIP3    H215700   1.076   0.556   1.385
 5232TIP3   OH215701   2.422   3.258   2.043
 5232TIP3    H115702   2.459   3.334   2.088
 5232TIP3    H215703   2.468   3.256   1.959
 5233TIP3   OH215704   0.234   3.979   3.781
 5233TIP3    H115705   0.254   3.890   3.811
 5233TIP3    H215706   0.320   4.018   3.764
 5234TIP3   OH215707   4.116   3.871   2.614
 5234TIP3    H115708   4.075   3.784   2.618
 5234TIP3    H215709   4.166   3.869   2.532
 5235TIP3   OH215710   6.011   1.344   2.364
 5235TIP3    H115711   5.941   1.406   2.343
 5235TIP3    H215712   6.071   1.394   2.420
 5236TIP3   OH215713   4.831   3.449   1.682
 5236TIP3    H115714   4.877   3.365   1.685
 5236TIP3    H215715   4.811   3.469   1.773
 5237TIP3   OH215716   3.533   3.963   1.715
 5237TIP3    H115717   3.604   3.905   1.743
 5237TIP3    H215718   3.453   3.917   1.739
 5238TIP3   OH215719   0.770   4.772   1.800
 5238TIP3    H115720   0.707   4.747   1.732
 5238TIP3    H215721   0.851   4.790   1.752
 5239TIP3   OH215722   5.194   0.279   4.186
 5239TIP3    H115723   5.255   0.211   4.215
 5239TIP3    H215724   5.108   0.250   4.218
 5240TIP3   OH215725   0.911   5.569   0.018
 5240TIP3    H115726   0.937   5.618   0.097
 5240TIP3    H215727   0.957   5.613  -0.053
 5241TIP3   OH215728   4.982   5.204   2.943
 5241TIP3    H115729   4.894   5.198   2.977
 5241TIP3    H215730   5.036   5.154   3.004
 5242TIP3   OH215731   0.807   4.697   4.141
 5242TIP3    H115732   0.795   4.659   4.228
 5242TIP3    H215733   0.727   4.748   4.127
 5243TIP3   OH215734   5.529   3.839   1.952
 5243TIP3    H115735   5.472   3.762   1.960
 5243TIP3    H215736   5.539   3.871   2.042
 5244TIP3   OH215737   1.078   5.362   4.708
 5244TIP3    H115738   1.137   5.394   4.777
 5244TIP3    H215739   1.084   5.266   4.713
 5245TIP3   OH215740   0.658   2.926   0.293
 5245TIP3    H115741   0.676   2.851   0.236
 5245TIP3    H215742   0.721   2.993   0.265
 5246TIP3   OH215743   1.427   1.373   0.105
 5246TIP3    H115744   1.520   1.352   0.099
 5246TIP3    H215745   1.425   1.467   0.122
 5247TIP3   OH215746   1.602   0.625   2.284
 5247TIP3    H115747   1.509   0.607   2.294
 5247TIP3    H215748   1.606   0.712   2.245
 5248TIP3   OH215749   5.786   0.208   2.549
 5248TIP3    H115750   5.729   0.161   2.610
 5248TIP3    H215751   5.794   0.150   2.474
 5249TIP3   OH215752   3.619   3.765   2.765
 5249TIP3    H115753   3.625   3.693   2.827
 5249TIP3    H215754   3.596   3.724   2.682
 5250TIP3   OH215755   5.414   4.637   1.644
 5250TIP3    H115756   5.447   4.548   1.638
 5250TIP3    H215757   5.407   4.655   1.738
 5251TIP3   OH215758   1.923   0.469   4.700
 5251TIP3    H115759   1.838   0.471   4.745
 5251TIP3    H215760   1.939   0.560   4.675
 5252TIP3   OH215761   5.693   3.920   4.411
 5252TIP3    H115762   5.767   3.897   4.355
 5252TIP3    H215763   5.622   3.937   4.349
 5253TIP3   OH215764   3.910   4.747   5.149
 5253TIP3    H115765   3.973   4.804   5.191
 5253TIP3    H215766   3.847   4.807   5.108
 5254TIP3   OH215767   1.052   0.522   0.571
 5254TIP3    H115768   0.981   0.548   0.513
 5254TIP3    H215769   1.027   0.434   0.601
 5255TIP3   OH215770   5.673   1.884   5.139
 5255TIP3    H115771   5.594   1.865   5.087
 5255TIP3    H215772   5.725   1.942   5.084
 5256TIP3   OH215773   1.834   3.667   0.183
 5256TIP3    H115774   1.868   3.594   0.234
 5256TIP3    H215775   1.813   3.734   0.249
 5257TIP3   OH215776   6.057   3.677   3.610
 5257TIP3    H115777   6.080   3.585   3.597
 5257TIP3    H215778   6.105   3.724   3.543
 5258TIP3   OH215779   1.416   4.027   1.989
 5258TIP3    H115780   1.468   4.106   1.974
 5258TIP3    H215781   1.432   3.972   1.913
 5259TIP3   OH215782   3.824   0.468   4.724
 5259TIP3    H115783   3.902   0.523   4.714
 5259TIP3    H215784   3.858   0.378   4.723
 5260TIP3   OH215785   2.204   3.753   1.513
 5260TIP3    H115786   2.273   3.788   1.456
 5260TIP3    H215787   2.122   3.782   1.473
 5261TIP3   OH215788   3.054   4.780   1.589
 5261TIP3    H115789   3.083   4.724   1.516
 5261TIP3    H215790   2.961   4.760   1.598
 5262TIP3   OH215791   0.371   3.286   2.406
 5262TIP3    H115792   0.404   3.338   2.333
 5262TIP3    H215793   0.449   3.268   2.460
 5263TIP3   OH215794   2.088   0.301   2.886
 5263TIP3    H115795   2.164   0.356   2.904
 5263TIP3    H215796   2.028   0.320   2.958
 5264TIP3   OH215797   3.020   0.262   0.721
 5264TIP3    H115798   2.990   0.337   0.772
 5264TIP3    H215799   3.115   0.274   0.715
 5265TIP3   OH215800   0.753   1.926   3.515
 5265TIP3    H115801   0.816   1.959   3.579
 5265TIP3    H215802   0.806   1.905   3.438
 5266TIP3   OH215803   5.926   3.318   1.989
 5266TIP3    H115804   5.847   3.331   1.937
 5266TIP3    H215805   5.937   3.400   2.038
 5267TIP3   OH215806   0.630   3.846   4.080
 5267TIP3    H115807   0.669   3.785   4.142
 5267TIP3    H215808   0.546   3.870   4.120
 5268TIP3   OH215809   2.339   0.379   3.944
 5268TIP3    H115810   2.406   0.330   3.895
 5268TIP3    H215811   2.350   0.469   3.914
 5269TIP3   OH215812   5.758   5.277   0.882
 5269TIP3    H115813   5.778   5.184   0.881
 5269TIP3    H215814   5.795   5.311   0.800
 5270TIP3   OH215815   1.162   0.914   1.254
 5270TIP3    H115816   1.123   0.990   1.212
 5270TIP3    H215817   1.237   0.892   1.199
 5271TIP3   OH215818   5.541   2.765   0.035
 5271TIP3    H115819   5.632   2.787   0.053
 5271TIP3    H215820   5.507   2.841  -0.012
 5272TIP3   OH215821   1.768   1.101   4.591
 5272TIP3    H115822   1.675   1.110   4.571
 5272TIP3    H215823   1.787   1.009   4.576
 5273TIP3   OH215824   5.457   0.181   2.268
 5273TIP3    H115825   5.527   0.245   2.279
 5273TIP3    H215826   5.502   0.097   2.265
 5274TIP3   OH215827   0.496   1.016   3.370
 5274TIP3    H115828   0.453   1.092   3.331
 5274TIP3    H215829   0.488   0.947   3.304
 5275TIP3   OH215830   0.583   2.969   5.013
 5275TIP3    H115831   0.532   2.997   4.937
 5275TIP3    H215832   0.670   2.949   4.978
 5276TIP3   OH215833   2.152   2.885   2.814
 5276TIP3    H115834   2.214   2.930   2.756
 5276TIP3    H215835   2.102   2.955   2.854
 5277TIP3   OH215836   4.238   3.679   4.055
 5277TIP3    H115837   4.280   3.661   4.139
 5277TIP3    H215838   4.308   3.712   3.999
 5278TIP3   OH215839   2.351   4.050   4.036
 5278TIP3    H115840   2.429   4.008   4.000
 5278TIP3    H215841   2.339   4.128   3.983
 5279TIP3   OH215842   0.624   0.866   1.167
 5279TIP3    H115843   0.718   0.883   1.177
 5279TIP3    H215844   0.582   0.939   1.213
 5280TIP3   OH215845   0.812   4.203   0.072
 5280TIP3    H115846   0.803   4.298   0.068
 5280TIP3    H215847   0.723   4.172   0.086
 5281TIP3   OH215848   1.005   0.179   1.343
 5281TIP3    H115849   1.027   0.211   1.431
 5281TIP3    H215850   0.955   0.250   1.304
 5282TIP3   OH215851   1.819   1.936   3.411
 5282TIP3    H115852   1.807   2.015   3.359
 5282TIP3    H215853   1.748   1.938   3.475
 5283TIP3   OH215854   4.139   4.673   0.920
 5283TIP3    H115855   4.164   4.584   0.946
 5283TIP3    H215856   4.208   4.701   0.860
 5284TIP3   OH215857   0.151   5.059   2.929
 5284TIP3    H115858   0.073   5.005   2.914
 5284TIP3    H215859   0.117   5.145   2.952
 5285TIP3   OH215860   2.802   0.004   2.023
 5285TIP3    H115861   2.836   0.072   2.081
 5285TIP3    H215862   2.710  -0.004   2.047
 5286TIP3   OH215863   2.152   1.800   5.170
 5286TIP3    H115864   2.115   1.806   5.258
 5286TIP3    H215865   2.078   1.779   5.114
 5287TIP3   OH215866   2.455   1.518   0.847
 5287TIP3    H115867   2.410   1.584   0.795
 5287TIP3    H215868   2.540   1.507   0.805
 5288TIP3   OH215869   1.814   3.387   0.494
 5288TIP3    H115870   1.831   3.357   0.583
 5288TIP3    H215871   1.724   3.360   0.476
 5289TIP3   OH215872   5.604   5.084   0.552
 5289TIP3    H115873   5.598   5.141   0.476
 5289TIP3    H215874   5.690   5.044   0.546
 5290TIP3   OH215875   5.466   2.807   3.955
 5290TIP3    H115876   5.391   2.839   4.004
 5290TIP3    H215877   5.542   2.847   3.998
 5291TIP3   OH215878   5.133   1.749   1.157
 5291TIP3    H115879   5.153   1.817   1.093
 5291TIP3    H215880   5.208   1.750   1.216
 5292TIP3   OH215881   2.177   2.515   5.132
 5292TIP3    H115882   2.084   2.532   5.145
 5292TIP3    H215883   2.200   2.450   5.199
 5293TIP3   OH215884   1.582   1.204   4.960
 5293TIP3    H115885   1.643   1.254   5.013
 5293TIP3    H215886   1.611   1.113   4.970
 5294TIP3   OH215887   3.547   3.909   0.492
 5294TIP3    H115888   3.537   3.870   0.405
 5294TIP3    H215889   3.639   3.896   0.514
 5295TIP3   OH215890   3.416   2.908   5.022
 5295TIP3    H115891   3.363   2.878   4.948
 5295TIP3    H215892   3.398   3.002   5.028
 5296TIP3   OH215893   5.651   3.823   0.937
 5296TIP3    H115894   5.591   3.757   0.972
 5296TIP3    H215895   5.612   3.849   0.853
 5297TIP3   OH215896   1.940   3.828   0.537
 5297TIP3    H115897   1.975   3.746   0.501
 5297TIP3    H215898   1.934   3.811   0.631
 5298TIP3   OH215899   1.420   4.388   4.663
 5298TIP3    H115900   1.482   4.362   4.595
 5298TIP3    H215901   1.350   4.323   4.659
 5299TIP3   OH215902   4.509   3.281   2.832
 5299TIP3    H115903   4.464   3.347   2.779
 5299TIP3    H215904   4.494   3.199   2.786
 5300TIP3   OH215905   0.228   3.455   5.154
 5300TIP3    H115906   0.286   3.529   5.173
 5300TIP3    H215907   0.282   3.378   5.170
 5301TIP3   OH215908   1.850   1.003   2.850
 5301TIP3    H115909   1.761   0.974   2.831
 5301TIP3    H215910   1.849   1.027   2.942
 5302TIP3   OH215911   2.415   3.882   5.184
 5302TIP3    H115912   2.384   3.791   5.191
 5302TIP3    H215913   2.336   3.933   5.168
 5303TIP3   OH215914   1.238   0.962   2.201
 5303TIP3    H115915   1.180   0.918   2.139
 5303TIP3    H215916   1.281   0.890   2.248
 5304TIP3   OH215917   0.272   3.997   1.777
 5304TIP3    H115918   0.344   4.043   1.819
 5304TIP3    H215919   0.227   4.063   1.724
 5305TIP3   OH215920   5.133   5.202   0.168
 5305TIP3    H115921   5.218   5.172   0.202
 5305TIP3    H215922   5.121   5.153   0.087
 5306TIP3   OH215923   1.598   3.160   2.333
 5306TIP3    H115924   1.622   3.242   2.375
 5306TIP3    H215925   1.681   3.117   2.313
 5307TIP3   OH215926   5.663   0.344   3.055
 5307TIP3    H115927   5.675   0.262   3.008
 5307TIP3    H215928   5.729   0.342   3.124
 5308TIP3   OH215929   0.672   0.599   3.131
 5308TIP3    H115930   0.749   0.599   3.074
 5308TIP3    H215931   0.606   0.550   3.082
 5309TIP3   OH215932   5.160   3.255   0.232
 5309TIP3    H115933   5.084   3.308   0.207
 5309TIP3    H215934   5.156   3.179   0.173
 5310TIP3   OH215935   0.045   3.678   4.478
 5310TIP3    H115936   0.138   3.674   4.499
 5310TIP3    H215937   0.035   3.761   4.430
 5311TIP3   OH215938   0.816   4.680   3.454
 5311TIP3    H115939   0.871   4.617   3.407
 5311TIP3    H215940   0.743   4.698   3.395
 5312TIP3   OH215941   5.915   4.814   1.934
 5312TIP3    H115942   5.865   4.861   2.001
 5312TIP3    H215943   5.988   4.774   1.981
 5313TIP3   OH215944   3.508   2.370   1.944
 5313TIP3    H115945   3.542   2.302   2.001
 5313TIP3    H215946   3.413   2.360   1.948
 5314TIP3   OH215947   4.225   5.515   1.756
 5314TIP3    H115948   4.156   5.572   1.789
 5314TIP3    H215949   4.297   5.574   1.734
 5315TIP3   OH215950   1.835   5.498   2.212
 5315TIP3    H115951   1.888   5.423   2.186
 5315TIP3    H215952   1.833   5.494   2.308
 5316TIP3   OH215953   1.030   3.967   2.541
 5316TIP3    H115954   1.107   4.016   2.510
 5316TIP3    H215955   0.986   3.939   2.461
 5317TIP3   OH215956   5.019   5.198   2.085
 5317TIP3    H115957   4.990   5.132   2.023
 5317TIP3    H215958   4.958   5.191   2.159
 5318TIP3   OH215959   1.439   0.324   3.874
 5318TIP3    H115960   1.431   0.419   3.882
 5318TIP3    H215961   1.481   0.297   3.955
 5319TIP3   OH215962   1.152   0.044   1.099
 5319TIP3    H115963   1.161   0.125   1.148
 5319TIP3    H215964   1.142  -0.024   1.165
 5320TIP3   OH215965   5.075   5.402   3.803
 5320TIP3    H115966   4.991   5.447   3.810
 5320TIP3    H215967   5.086   5.357   3.887
 5321TIP3   OH215968   1.435   1.623   1.945
 5321TIP3    H115969   1.494   1.668   2.005
 5321TIP3    H215970   1.494   1.581   1.881
 5322TIP3   OH215971   4.734   4.234   0.033
 5322TIP3    H115972   4.759   4.301   0.097
 5322TIP3    H215973   4.794   4.161   0.051
 5323TIP3   OH215974  -0.002   2.077   0.168
 5323TIP3    H115975   0.033   2.111   0.086
 5323TIP3    H215976  -0.074   2.020   0.141
 5324TIP3   OH215977   2.111   4.705   4.174
 5324TIP3    H115978   2.158   4.760   4.237
 5324TIP3    H215979   2.137   4.738   4.088
 5325TIP3   OH215980   3.724   2.532   1.945
 5325TIP3    H115981   3.642   2.483   1.945
 5325TIP3    H215982   3.787   2.473   1.986
 5326TIP3   OH215983   1.503   3.199   1.066
 5326TIP3    H115984   1.503   3.266   1.134
 5326TIP3    H215985   1.527   3.118   1.111
 5327TIP3   OH215986   5.115   4.093   5.010
 5327TIP3    H115987   5.166   4.060   4.936
 5327TIP3    H215988   5.026   4.100   4.976
 5328TIP3   OH215989   2.900   1.557   3.256
 5328TIP3    H115990   2.989   1.590   3.269
 5328TIP3    H215991   2.844   1.625   3.293
 5329TIP3   OH215992   2.720   2.109   0.279
 5329TIP3    H115993   2.791   2.092   0.218
 5329TIP3    H215994   2.648   2.052   0.249
 5330TIP3   OH215995   4.154   3.019   2.815
 5330TIP3    H115996   4.131   2.973   2.896
 5330TIP3    H215997   4.238   2.981   2.789
 5331TIP3   OH215998   3.916   2.145   2.846
 5331TIP3    H115999   3.916   2.060   2.890
 5331TIP3    H216000   3.914   2.209   2.917
 5332TIP3   OH216001   0.997   0.291   2.477
 5332TIP3    H116002   0.931   0.229   2.508
 5332TIP3    H216003   0.989   0.366   2.536
 5333TIP3   OH216004   2.564   3.174   3.711
 5333TIP3    H116005   2.617   3.102   3.746
 5333TIP3    H216006   2.564   3.239   3.781
 5334TIP3   OH216007   2.595   3.809   0.295
 5334TIP3    H116008   2.569   3.867   0.223
 5334TIP3    H216009   2.526   3.743   0.297
 5335TIP3   OH216010   2.070   3.518   4.715
 5335TIP3    H116011   2.136   3.582   4.688
 5335TIP3    H216012   2.111   3.433   4.698
 5336TIP3   OH216013   5.560   0.037   3.221
 5336TIP3    H116014   5.484   0.019   3.165
 5336TIP3    H216015   5.570  -0.041   3.275
 5337TIP3   OH216016   5.989   5.674   4.971
 5337TIP3    H116017   5.967   5.766   4.959
 5337TIP3    H216018   6.083   5.674   4.988
 5338TIP3   OH216019   4.125   3.449   3.164
 5338TIP3    H116020   4.036   3.485   3.159
 5338TIP3    H216021   4.111   3.356   3.185
 5339TIP3   OH216022   5.090   4.161   2.547
 5339TIP3    H116023   5.094   4.252   2.518
 5339TIP3    H216024   5.182   4.134   2.553
 5340TIP3   OH216025   4.314   5.867   3.418
 5340TIP3    H116026   4.374   5.855   3.491
 5340TIP3    H216027   4.357   5.822   3.344
 5341TIP3   OH216028   4.775   1.199   4.284
 5341TIP3    H116029   4.724   1.262   4.234
 5341TIP3    H216030   4.807   1.249   4.360
 5342TIP3   OH216031   5.499   5.940   3.563
 5342TIP3    H116032   5.554   6.015   3.584
 5342TIP3    H216033   5.462   5.912   3.647
 5343TIP3   OH216034   5.504   1.875   4.282
 5343TIP3    H116035   5.430   1.824   4.315
 5343TIP3    H216036   5.522   1.838   4.196
 5344TIP3   OH216037   2.871   2.330   4.576
 5344TIP3    H116038   2.932   2.397   4.607
 5344TIP3    H216039   2.811   2.315   4.649
 5345TIP3   OH216040   2.731   4.196   2.911
 5345TIP3    H116041   2.711   4.195   3.005
 5345TIP3    H216042   2.735   4.289   2.888
 5346TIP3   OH216043   3.252   3.320   0.926
 5346TIP3    H116044   3.288   3.378   0.992
 5346TIP3    H216045   3.324   3.308   0.862
 5347TIP3   OH216046   4.572   4.015   3.626
 5347TIP3    H116047   4.484   4.052   3.615
 5347TIP3    H216048   4.599   4.044   3.713
 5348TIP3   OH216049   5.331   5.811   0.511
 5348TIP3    H116050   5.406   5.862   0.481
 5348TIP3    H216051   5.319   5.837   0.602
 5349TIP3   OH216052   5.601   3.365   4.731
 5349TIP3    H116053   5.604   3.271   4.749
 5349TIP3    H216054   5.516   3.393   4.766
 5350TIP3   OH216055   0.586   3.020   3.809
 5350TIP3    H116056   0.553   2.969   3.883
 5350TIP3    H216057   0.654   3.075   3.847
 5351TIP3   OH216058   4.847   2.934   4.990
 5351TIP3    H116059   4.907   2.893   5.052
 5351TIP3    H216060   4.761   2.897   5.011
 5352TIP3   OH216061   1.585   5.752   3.415
 5352TIP3    H116062   1.663   5.719   3.460
 5352TIP3    H216063   1.587   5.846   3.431
 5353TIP3   OH216064   5.734   4.880   1.454
 5353TIP3    H116065   5.758   4.844   1.369
 5353TIP3    H216066   5.669   4.947   1.435
 5354TIP3   OH216067   3.700   4.256   2.600
 5354TIP3    H116068   3.681   4.177   2.650
 5354TIP3    H216069   3.644   4.249   2.523
 5355TIP3   OH216070   4.484   0.759   4.556
 5355TIP3    H116071   4.557   0.820   4.573
 5355TIP3    H216072   4.473   0.762   4.461
 5356TIP3   OH216073   2.253   1.800   1.811
 5356TIP3    H116074   2.331   1.854   1.825
 5356TIP3    H216075   2.202   1.848   1.746
 5357TIP3   OH216076   3.664   3.498   1.972
 5357TIP3    H116077   3.594   3.471   2.032
 5357TIP3    H216078   3.689   3.417   1.927
 5358TIP3   OH216079   1.631   0.979   3.163
 5358TIP3    H116080   1.549   1.000   3.118
 5358TIP3    H216081   1.696   1.035   3.122
 5359TIP3   OH216082   4.539   4.618   0.964
 5359TIP3    H116083   4.607   4.685   0.970
 5359TIP3    H216084   4.507   4.608   1.054
 5360TIP3   OH216085   4.296   1.562   0.649
 5360TIP3    H116086   4.301   1.529   0.560
 5360TIP3    H216087   4.307   1.485   0.704
 5361TIP3   OH216088   3.105   1.628   4.495
 5361TIP3    H116089   3.138   1.702   4.545
 5361TIP3    H216090   3.065   1.666   4.418
 5362TIP3   OH216091   5.464   1.857   0.499
 5362TIP3    H116092   5.500   1.856   0.411
 5362TIP3    H216093   5.533   1.819   0.554
 5363TIP3   OH216094   2.600   3.713   2.714
 5363TIP3    H116095   2.540   3.742   2.783
 5363TIP3    H216096   2.686   3.743   2.743
 5364TIP3   OH216097   2.118   2.340   2.779
 5364TIP3    H116098   2.139   2.323   2.687
 5364TIP3    H216099   2.024   2.320   2.785
 5365TIP3   OH216100   4.443   1.047   3.225
 5365TIP3    H116101   4.467   1.043   3.317
 5365TIP3    H216102   4.520   1.083   3.181
 5366TIP3   OH216103   3.350   0.300   2.973
 5366TIP3    H116104   3.365   0.317   2.880
 5366TIP3    H216105   3.266   0.342   2.992
 5367TIP3   OH216106   1.552   0.865   2.135
 5367TIP3    H116107   1.490   0.857   2.063
 5367TIP3    H216108   1.498   0.871   2.213
 5368TIP3   OH216109   6.068   3.559   2.497
 5368TIP3    H116110   6.060   3.619   2.571
 5368TIP3    H216111   6.007   3.488   2.517
 5369TIP3   OH216112   1.943   5.246   3.480
 5369TIP3    H116113   1.926   5.235   3.573
 5369TIP3    H216114   2.037   5.258   3.473
 5370TIP3   OH216115   6.002   2.919   1.937
 5370TIP3    H116116   5.932   2.934   1.874
 5370TIP3    H216117   6.052   3.001   1.937
 5371TIP3   OH216118   2.559   5.618   3.190
 5371TIP3    H116119   2.493   5.642   3.124
 5371TIP3    H216120   2.639   5.604   3.139
 5372TIP3   OH216121   5.783   1.494   2.325
 5372TIP3    H116122   5.721   1.438   2.371
 5372TIP3    H216123   5.733   1.573   2.304
 5373TIP3   OH216124   3.478   0.972   2.060
 5373TIP3    H116125   3.465   1.036   2.130
 5373TIP3    H216126   3.523   0.899   2.103
 5374TIP3   OH216127   2.505   3.517   3.480
 5374TIP3    H116128   2.450   3.441   3.496
 5374TIP3    H216129   2.577   3.508   3.543
 5375TIP3   OH216130   0.604   4.598   3.036
 5375TIP3    H116131   0.553   4.542   2.978
 5375TIP3    H216132   0.695   4.576   3.018
 5376TIP3   OH216133   1.511   2.694   0.601
 5376TIP3    H116134   1.447   2.722   0.535
 5376TIP3    H216135   1.468   2.622   0.647
 5377TIP3   OH216136   5.612   1.080   5.111
 5377TIP3    H116137   5.573   1.094   5.197
 5377TIP3    H216138   5.658   1.162   5.092
 5378TIP3   OH216139   1.406   1.740   0.973
 5378TIP3    H116140   1.479   1.777   1.023
 5378TIP3    H216141   1.343   1.812   0.965
 5379TIP3   OH216142   4.337   3.268   2.073
 5379TIP3    H116143   4.399   3.278   2.145
 5379TIP3    H216144   4.258   3.232   2.113
 5380TIP3   OH216145   2.520   2.589   4.603
 5380TIP3    H116146   2.532   2.511   4.549
 5380TIP3    H216147   2.609   2.622   4.616
 5381TIP3   OH216148   5.480   4.345   1.291
 5381TIP3    H116149   5.472   4.371   1.383
 5381TIP3    H216150   5.575   4.345   1.275
 5382TIP3   OH216151   2.274   0.518   2.906
 5382TIP3    H116152   2.365   0.511   2.875
 5382TIP3    H216153   2.228   0.560   2.834
 5383TIP3   OH216154   4.130   3.015   0.111
 5383TIP3    H116155   4.104   2.941   0.166
 5383TIP3    H216156   4.222   3.029   0.133
 5384TIP3   OH216157   4.435   5.014   2.052
 5384TIP3    H116158   4.443   5.105   2.079
 5384TIP3    H216159   4.380   4.974   2.119
 5385TIP3   OH216160   2.794   5.815   2.883
 5385TIP3    H116161   2.769   5.775   2.966
 5385TIP3    H216162   2.831   5.744   2.831
 5386TIP3   OH216163   6.036   5.193   1.264
 5386TIP3    H116164   6.038   5.265   1.201
 5386TIP3    H216165   6.018   5.116   1.211
 5387TIP3   OH216166   1.062   5.317   3.346
 5387TIP3    H116167   0.985   5.265   3.370
 5387TIP3    H216168   1.033   5.408   3.355
 5388TIP3   OH216169   1.462   0.471   2.620
 5388TIP3    H116170   1.380   0.465   2.571
 5388TIP3    H216171   1.437   0.511   2.703
 5389TIP3   OH216172   3.446   3.264   0.758
 5389TIP3    H116173   3.535   3.251   0.791
 5389TIP3    H216174   3.456   3.331   0.690
 5390TIP3   OH216175   5.878   1.001   1.561
 5390TIP3    H116176   5.895   1.078   1.507
 5390TIP3    H216177   5.935   1.012   1.637
 5391TIP3   OH216178   6.143   0.711   1.823
 5391TIP3    H116179   6.065   0.751   1.863
 5391TIP3    H216180   6.215   0.738   1.879
 5392TIP3   OH216181   4.577   3.062   3.267
 5392TIP3    H116182   4.561   3.077   3.360
 5392TIP3    H216183   4.619   2.976   3.263
 5393TIP3   OH216184   1.115   4.258   3.185
 5393TIP3    H116185   1.069   4.264   3.101
 5393TIP3    H216186   1.062   4.312   3.244
 5394TIP3   OH216187   2.804   2.771   3.987
 5394TIP3    H116188   2.770   2.751   3.900
 5394TIP3    H216189   2.738   2.736   4.047
 5395TIP3   OH216190   4.926   0.062   0.414
 5395TIP3    H116191   4.861   0.063   0.484
 5395TIP3    H216192   5.010   0.062   0.460
 5396TIP3   OH216193   4.482   5.481   0.287
 5396TIP3    H116194   4.448   5.403   0.244
 5396TIP3    H216195   4.404   5.527   0.318
 5397TIP3   OH216196   3.012   2.514   2.044
 5397TIP3    H116197   2.996   2.604   2.019
 5397TIP3    H216198   2.988   2.510   2.137
 5398TIP3   OH216199   1.739   5.455   3.246
 5398TIP3    H116200   1.666   5.509   3.216
 5398TIP3    H216201   1.768   5.409   3.167
 5399TIP3   OH216202   3.705   1.276   2.934
 5399TIP3    H116203   3.740   1.321   2.857
 5399TIP3    H216204   3.657   1.201   2.898
 5400TIP3   OH216205   5.293   4.355   3.102
 5400TIP3    H116206   5.363   4.377   3.164
 5400TIP3    H216207   5.337   4.354   3.016
 5401TIP3   OH216208   2.701   4.933   4.668
 5401TIP3    H116209   2.625   4.980   4.702
 5401TIP3    H216210   2.743   4.996   4.609
 5402TIP3   OH216211   0.014   5.119   2.405
 5402TIP3    H116212   0.109   5.114   2.399
 5402TIP3    H216213  -0.015   5.143   2.317
 5403TIP3   OH216214   4.056   5.079   2.954
 5403TIP3    H116215   4.088   4.989   2.945
 5403TIP3    H216216   4.078   5.121   2.871
 5404TIP3   OH216217   3.748   4.750   0.596
 5404TIP3    H116218   3.777   4.713   0.679
 5404TIP3    H216219   3.799   4.703   0.530
 5405TIP3   OH216220   2.336   5.981   4.760
 5405TIP3    H116221   2.430   5.965   4.762
 5405TIP3    H216222   2.327   6.072   4.733
 5406TIP3   OH216223   4.865   5.082   0.915
 5406TIP3    H116224   4.794   5.126   0.868
 5406TIP3    H216225   4.899   5.148   0.974
 5407TIP3   OH216226   5.267   5.288   3.150
 5407TIP3    H116227   5.328   5.238   3.204
 5407TIP3    H216228   5.279   5.379   3.179
 5408TIP3   OH216229   3.764   4.208   3.271
 5408TIP3    H116230   3.855   4.195   3.298
 5408TIP3    H216231   3.736   4.288   3.317
 5409TIP3   OH216232   3.542   1.328   1.615
 5409TIP3    H116233   3.556   1.263   1.683
 5409TIP3    H216234   3.552   1.412   1.661
 5410TIP3   OH216235   3.070   3.135   3.054
 5410TIP3    H116236   3.106   3.126   3.142
 5410TIP3    H216237   2.976   3.130   3.065
 5411TIP3   OH216238   3.697   1.510   1.046
 5411TIP3    H116239   3.693   1.534   0.954
 5411TIP3    H216240   3.776   1.553   1.079
 5412TIP3   OH216241   5.787   0.896   3.682
 5412TIP3    H116242   5.705   0.890   3.731
 5412TIP3    H216243   5.807   0.990   3.681
 5413TIP3   OH216244   5.367   3.521   5.109
 5413TIP3    H116245   5.357   3.519   5.204
 5413TIP3    H216246   5.405   3.607   5.090
 5414TIP3   OH216247   0.277   4.423   0.103
 5414TIP3    H116248   0.211   4.404   0.170
 5414TIP3    H216249   0.293   4.339   0.061
 5415TIP3   OH216250   2.924   1.432   0.393
 5415TIP3    H116251   2.864   1.362   0.419
 5415TIP3    H216252   3.011   1.393   0.403
 5416TIP3   OH216253   5.715   4.469   3.786
 5416TIP3    H116254   5.705   4.406   3.715
 5416TIP3    H216255   5.730   4.552   3.742
 5417TIP3   OH216256   1.743   1.286   3.629
 5417TIP3    H116257   1.738   1.274   3.535
 5417TIP3    H216258   1.672   1.348   3.649
 5418TIP3   OH216259   4.888   3.405   0.295
 5418TIP3    H116260   4.831   3.340   0.335
 5418TIP3    H216261   4.899   3.473   0.362
 5419TIP3   OH216262   5.321   0.750   4.378
 5419TIP3    H116263   5.358   0.745   4.467
 5419TIP3    H216264   5.322   0.843   4.357
 5420TIP3   OH216265   4.355   4.624   1.196
 5420TIP3    H116266   4.277   4.632   1.250
 5420TIP3    H216267   4.381   4.715   1.177
 5421TIP3   OH216268   1.247   4.222   4.416
 5421TIP3    H116269   1.200   4.296   4.453
 5421TIP3    H216270   1.205   4.145   4.453
 5422TIP3   OH216271   4.924   5.557   2.868
 5422TIP3    H116272   4.871   5.608   2.929
 5422TIP3    H216273   4.996   5.523   2.921
 5423TIP3   OH216274   1.326   3.667   3.487
 5423TIP3    H116275   1.395   3.607   3.457
 5423TIP3    H216276   1.360   3.703   3.569
 5424TIP3   OH216277   4.666   3.975   0.955
 5424TIP3    H116278   4.712   3.898   0.989
 5424TIP3    H216279   4.706   4.049   1.001
 5425TIP3   OH216280   0.309   4.116   4.512
 5425TIP3    H116281   0.234   4.173   4.490
 5425TIP3    H216282   0.282   4.029   4.483
 5426TIP3   OH216283   3.012   0.014   0.846
 5426TIP3    H116284   2.998   0.097   0.800
 5426TIP3    H216285   2.950   0.015   0.918
 5427TIP3   OH216286   2.948   1.430   4.635
 5427TIP3    H116287   2.858   1.437   4.605
 5427TIP3    H216288   2.998   1.482   4.572
 5428TIP3   OH216289   2.175   4.948   2.338
 5428TIP3    H116290   2.163   4.940   2.432
 5428TIP3    H216291   2.087   4.964   2.303
 5429TIP3   OH216292   1.191   1.644   3.430
 5429TIP3    H116293   1.124   1.712   3.424
 5429TIP3    H216294   1.184   1.612   3.520
 5430TIP3   OH216295   3.993   1.606   2.354
 5430TIP3    H116296   4.061   1.665   2.387
 5430TIP3    H216297   4.041   1.528   2.325
 5431TIP3   OH216298   3.134   5.746   1.040
 5431TIP3    H116299   3.117   5.776   1.130
 5431TIP3    H216300   3.148   5.827   0.990
 5432TIP3   OH216301   5.528   2.363   5.073
 5432TIP3    H116302   5.565   2.354   5.160
 5432TIP3    H216303   5.555   2.450   5.043
 5433TIP3   OH216304   3.345   3.445   3.175
 5433TIP3    H116305   3.288   3.480   3.106
 5433TIP3    H216306   3.370   3.522   3.227
 5434TIP3   OH216307   0.997   3.370   1.647
 5434TIP3    H116308   0.993   3.459   1.611
 5434TIP3    H216309   1.035   3.317   1.577
 5435TIP3   OH216310   4.892   2.957   4.218
 5435TIP3    H116311   4.978   2.985   4.250
 5435TIP3    H216312   4.894   2.977   4.124
 5436TIP3   OH216313   3.522   0.673   1.264
 5436TIP3    H116314   3.529   0.579   1.276
 5436TIP3    H216315   3.440   0.686   1.216
 5437TIP3   OH216316   1.317   4.976   2.276
 5437TIP3    H116317   1.308   4.961   2.370
 5437TIP3    H216318   1.297   5.069   2.265
 5438TIP3   OH216319   0.850   5.360   3.107
 5438TIP3    H116320   0.880   5.284   3.156
 5438TIP3    H216321   0.930   5.404   3.079
 5439TIP3   OH216322   4.438   4.638   4.223
 5439TIP3    H116323   4.420   4.644   4.130
 5439TIP3    H216324   4.396   4.556   4.251
 5440TIP3   OH216325   5.912   4.469   4.602
 5440TIP3    H116326   5.959   4.392   4.568
 5440TIP3    H216327   5.915   4.458   4.697
 5441TIP3   OH216328   3.866   3.085   1.441
 5441TIP3    H116329   3.855   3.135   1.522
 5441TIP3    H216330   3.885   2.996   1.469
 5442TIP3   OH216331   6.023   0.324   2.617
 5442TIP3    H116332   6.094   0.279   2.571
 5442TIP3    H216333   5.944   0.280   2.587
 5443TIP3   OH216334   3.037   3.330   4.722
 5443TIP3    H116335   2.944   3.350   4.712
 5443TIP3    H216336   3.079   3.416   4.731
 5444TIP3   OH216337   3.588   3.338   4.108
 5444TIP3    H116338   3.676   3.375   4.108
 5444TIP3    H216339   3.591   3.271   4.040
 5445TIP3   OH216340   3.842   3.447   4.064
 5445TIP3    H116341   3.852   3.536   4.097
 5445TIP3    H216342   3.901   3.395   4.118
 5446TIP3   OH216343   3.673   2.482   0.390
 5446TIP3    H116344   3.753   2.429   0.390
 5446TIP3    H216345   3.667   2.518   0.478
 5447TIP3   OH216346   1.782   1.271   3.343
 5447TIP3    H116347   1.796   1.360   3.311
 5447TIP3    H216348   1.699   1.244   3.304
 5448TIP3   OH216349   2.863   1.716   3.716
 5448TIP3    H116350   2.846   1.810   3.721
 5448TIP3    H216351   2.801   1.677   3.777
 5449TIP3   OH216352   6.331   2.225   5.056
 5449TIP3    H116353   6.389   2.172   5.001
 5449TIP3    H216354   6.357   2.315   5.038
 5450TIP3   OH216355   0.051   3.235   2.806
 5450TIP3    H116356   0.097   3.164   2.762
 5450TIP3    H216357   0.086   3.235   2.895
 5451TIP3   OH216358   5.029   4.886   2.334
 5451TIP3    H116359   5.039   4.918   2.244
 5451TIP3    H216360   5.033   4.791   2.326
 5452TIP3   OH216361   1.691   3.972   2.083
 5452TIP3    H116362   1.668   4.001   1.995
 5452TIP3    H216363   1.648   4.035   2.141
 5453TIP3   OH216364   2.074   5.845   5.200
 5453TIP3    H116365   1.986   5.884   5.209
 5453TIP3    H216366   2.058   5.760   5.159
 5454TIP3   OH216367   4.961   3.217   1.761
 5454TIP3    H116368   4.998   3.164   1.831
 5454TIP3    H216369   5.025   3.211   1.690
 5455TIP3   OH216370   4.240   0.381   2.474
 5455TIP3    H116371   4.255   0.460   2.527
 5455TIP3    H216372   4.263   0.408   2.385
 5456TIP3   OH216373   0.390   1.480   3.510
 5456TIP3    H116374   0.474   1.445   3.542
 5456TIP3    H216375   0.415   1.553   3.453
 5457TIP3   OH216376   4.264   0.042   2.505
 5457TIP3    H116377   4.322   0.013   2.576
 5457TIP3    H216378   4.252  -0.036   2.451
 5458TIP3   OH216379   1.361   4.763   1.303
 5458TIP3    H116380   1.335   4.683   1.349
 5458TIP3    H216381   1.424   4.805   1.362
 5459TIP3   OH216382   2.951   3.741   3.776
 5459TIP3    H116383   3.030   3.747   3.830
 5459TIP3    H216384   2.900   3.818   3.799
 5460TIP3   OH216385   3.062   3.634   0.594
 5460TIP3    H116386   3.128   3.574   0.559
 5460TIP3    H216387   3.099   3.665   0.676
 5461TIP3   OH216388   1.851   5.434   1.774
 5461TIP3    H116389   1.838   5.497   1.702
 5461TIP3    H216390   1.788   5.460   1.841
 5462TIP3   OH216391   4.224   4.162   1.210
 5462TIP3    H116392   4.256   4.195   1.126
 5462TIP3    H216393   4.169   4.087   1.186
 5463TIP3   OH216394   5.247   1.176   2.501
 5463TIP3    H116395   5.307   1.117   2.546
 5463TIP3    H216396   5.163   1.165   2.546
 5464TIP3   OH216397   1.081   5.940   0.261
 5464TIP3    H116398   1.155   5.929   0.320
 5464TIP3    H216399   1.013   5.882   0.296
 5465TIP3   OH216400   6.026   5.673   3.162
 5465TIP3    H116401   6.040   5.715   3.247
 5465TIP3    H216402   6.089   5.601   3.160
 5466TIP3   OH216403   2.034   2.388   4.615
 5466TIP3    H116404   1.975   2.458   4.586
 5466TIP3    H216405   2.041   2.400   4.710
 5467TIP3   OH216406   3.121   3.021   0.351
 5467TIP3    H116407   3.034   3.032   0.388
 5467TIP3    H216408   3.146   3.109   0.322
 5468TIP3   OH216409   4.581   0.200   2.003
 5468TIP3    H116410   4.669   0.215   2.036
 5468TIP3    H216411   4.593   0.145   1.925
 5469TIP3   OH216412   3.448   1.807   0.367
 5469TIP3    H116413   3.362   1.768   0.381
 5469TIP3    H216414   3.435   1.870   0.297
 5470TIP3   OH216415   5.631   1.336   0.695
 5470TIP3    H116416   5.677   1.419   0.710
 5470TIP3    H216417   5.578   1.323   0.774
 5471TIP3   OH216418   5.452   2.289   1.014
 5471TIP3    H116419   5.419   2.305   0.926
 5471TIP3    H216420   5.418   2.362   1.066
 5472TIP3   OH216421   3.431   5.296   2.702
 5472TIP3    H116422   3.444   5.289   2.796
 5472TIP3    H216423   3.409   5.208   2.674
 5473TIP3   OH216424   4.751   5.295   3.102
 5473TIP3    H116425   4.687   5.236   3.140
 5473TIP3    H216426   4.751   5.372   3.159
 5474TIP3   OH216427   4.814   5.797   3.075
 5474TIP3    H116428   4.895   5.844   3.055
 5474TIP3    H216429   4.771   5.851   3.142
 5475TIP3   OH216430   1.754   1.040   3.744
 5475TIP3    H116431   1.763   1.124   3.699
 5475TIP3    H216432   1.670   1.005   3.713
 5476TIP3   OH216433   3.516   5.858   4.771
 5476TIP3    H116434   3.458   5.885   4.842
 5476TIP3    H216435   3.497   5.765   4.759
 5477TIP3   OH216436   3.679   4.377   0.607
 5477TIP3    H116437   3.731   4.344   0.534
 5477TIP3    H216438   3.615   4.307   0.625
 5478TIP3   OH216439   2.076   0.925   2.111
 5478TIP3    H116440   2.009   0.994   2.108
 5478TIP3    H216441   2.083   0.894   2.021
 5479TIP3   OH216442   5.549   1.322   1.747
 5479TIP3    H116443   5.627   1.310   1.694
 5479TIP3    H216444   5.573   1.389   1.811
 5480TIP3   OH216445   0.157   5.870   1.495
 5480TIP3    H116446   0.173   5.901   1.406
 5480TIP3    H216447   0.085   5.926   1.527
 5481TIP3   OH216448  -0.026   4.038   0.479
 5481TIP3    H116449   0.049   4.074   0.527
 5481TIP3    H216450  -0.064   3.974   0.539
 5482TIP3   OH216451   3.943   0.199   3.978
 5482TIP3    H116452   3.900   0.128   3.930
 5482TIP3    H216453   4.031   0.165   3.997
 5483TIP3   OH216454   1.005   3.092   2.808
 5483TIP3    H116455   1.097   3.120   2.802
 5483TIP3    H216456   0.955   3.172   2.791
 5484TIP3   OH216457   3.253   4.298   2.177
 5484TIP3    H116458   3.278   4.364   2.113
 5484TIP3    H216459   3.334   4.252   2.198
 5485TIP3   OH216460   5.739   2.467   2.336
 5485TIP3    H116461   5.687   2.460   2.256
 5485TIP3    H216462   5.772   2.558   2.335
 5486TIP3   OH216463   5.535   3.689   3.617
 5486TIP3    H116464   5.456   3.741   3.605
 5486TIP3    H216465   5.520   3.641   3.699
 5487TIP3   OH216466   2.155   1.995   1.217
 5487TIP3    H116467   2.186   2.000   1.308
 5487TIP3    H216468   2.182   2.079   1.179
 5488TIP3   OH216469   3.938   3.945   4.802
 5488TIP3    H116470   3.963   3.858   4.834
 5488TIP3    H216471   3.992   4.006   4.853
 5489TIP3   OH216472   3.323   1.455   3.116
 5489TIP3    H116473   3.274   1.512   3.056
 5489TIP3    H216474   3.313   1.368   3.079
 5490TIP3   OH216475   2.998   3.641   4.403
 5490TIP3    H116476   3.067   3.593   4.449
 5490TIP3    H216477   3.012   3.732   4.429
 5491TIP3   OH216478   6.101   3.505   1.766
 5491TIP3    H116479   6.146   3.426   1.795
 5491TIP3    H216480   6.028   3.515   1.828
 5492TIP3   OH216481   5.834   0.819   4.995
 5492TIP3    H116482   5.901   0.831   5.063
 5492TIP3    H216483   5.754   0.801   5.044
 5493TIP3   OH216484   4.745   3.303   2.597
 5493TIP3    H116485   4.661   3.266   2.625
 5493TIP3    H216486   4.752   3.386   2.643
 5494TIP3   OH216487   5.699   4.115   3.758
 5494TIP3    H116488   5.750   4.122   3.839
 5494TIP3    H216489   5.688   4.021   3.744
 5495TIP3   OH216490   4.537   2.396   3.101
 5495TIP3    H116491   4.534   2.492   3.102
 5495TIP3    H216492   4.578   2.373   3.185
 5496TIP3   OH216493   0.128   3.930  -0.011
 5496TIP3    H116494   0.084   3.964   0.067
 5496TIP3    H216495   0.110   3.996  -0.079
 5497TIP3   OH216496   4.925   3.416   5.178
 5497TIP3    H116497   4.949   3.431   5.087
 5497TIP3    H216498   4.839   3.373   5.174
 5498TIP3   OH216499   0.322   2.061   3.034
 5498TIP3    H116500   0.319   2.046   3.128
 5498TIP3    H216501   0.268   1.991   2.997
 5499TIP3   OH216502   5.146   3.067   0.948
 5499TIP3    H116503   5.192   3.144   0.980
 5499TIP3    H216504   5.150   3.073   0.853
 5500TIP3   OH216505   4.427   4.584   3.916
 5500TIP3    H116506   4.358   4.519   3.927
 5500TIP3    H216507   4.381   4.668   3.915
 5501TIP3   OH216508   5.143   3.832   0.471
 5501TIP3    H116509   5.153   3.902   0.536
 5501TIP3    H216510   5.184   3.866   0.392
 5502TIP3   OH216511   0.739   5.390   5.176
 5502TIP3    H116512   0.679   5.447   5.128
 5502TIP3    H216513   0.782   5.448   5.239
 5503TIP3   OH216514   1.695   1.911   5.182
 5503TIP3    H116515   1.603   1.885   5.179
 5503TIP3    H216516   1.694   2.006   5.173
 5504TIP3   OH216517   4.433   1.909   5.144
 5504TIP3    H116518   4.437   1.822   5.185
 5504TIP3    H216519   4.478   1.897   5.060
 5505TIP3   OH216520   0.404   3.008   4.808
 5505TIP3    H116521   0.337   2.949   4.772
 5505TIP3    H216522   0.435   3.057   4.732
 5506TIP3   OH216523   2.225   6.001   0.423
 5506TIP3    H116524   2.146   5.963   0.460
 5506TIP3    H216525   2.265   5.929   0.374
 5507TIP3   OH216526   5.192   2.999   2.573
 5507TIP3    H116527   5.114   3.047   2.600
 5507TIP3    H216528   5.198   2.925   2.634
 5508TIP3   OH216529   6.140   1.944   0.093
 5508TIP3    H116530   6.086   2.020   0.074
 5508TIP3    H216531   6.135   1.890   0.014
 5509TIP3   OH216532   4.859   4.871   4.218
 5509TIP3    H116533   4.928   4.910   4.165
 5509TIP3    H216534   4.904   4.804   4.270
 5510TIP3   OH216535   2.702   4.479   0.753
 5510TIP3    H116536   2.709   4.446   0.843
 5510TIP3    H216537   2.647   4.556   0.760
 5511TIP3   OH216538   4.640   5.794   2.475
 5511TIP3    H116539   4.726   5.797   2.517
 5511TIP3    H216540   4.658   5.779   2.382
 5512TIP3   OH216541   5.719   2.833   0.861
 5512TIP3    H116542   5.787   2.810   0.924
 5512TIP3    H216543   5.640   2.843   0.914
 5513TIP3   OH216544   2.106   0.974   3.236
 5513TIP3    H116545   2.062   1.026   3.304
 5513TIP3    H216546   2.169   0.922   3.284
 5514TIP3   OH216547   4.781   0.798   3.499
 5514TIP3    H116548   4.850   0.732   3.495
 5514TIP3    H216549   4.821   0.873   3.544
 5515TIP3   OH216550   1.165   2.652   4.955
 5515TIP3    H116551   1.237   2.688   4.904
 5515TIP3    H216552   1.171   2.557   4.942
 5516TIP3   OH216553   0.527   5.165   3.422
 5516TIP3    H116554   0.522   5.156   3.326
 5516TIP3    H216555   0.514   5.259   3.437
 5517TIP3   OH216556   3.691   0.801   2.137
 5517TIP3    H116557   3.766   0.760   2.180
 5517TIP3    H216558   3.699   0.776   2.045
 5518TIP3   OH216559   3.812   4.059   3.595
 5518TIP3    H116560   3.774   3.973   3.613
 5518TIP3    H216561   3.893   4.040   3.548
 5519TIP3   OH216562   5.201   1.493   4.666
 5519TIP3    H116563   5.107   1.489   4.682
 5519TIP3    H216564   5.241   1.487   4.753
 5520TIP3   OH216565   0.298   5.257   2.674
 5520TIP3    H116566   0.298   5.353   2.679
 5520TIP3    H216567   0.248   5.230   2.751
 5521TIP3   OH216568   0.090   1.855   2.266
 5521TIP3    H116569  -0.004   1.837   2.261
 5521TIP3    H216570   0.097   1.950   2.253
 5522TIP3   OH216571   1.073   4.994   1.876
 5522TIP3    H116572   1.155   5.034   1.848
 5522TIP3    H216573   1.098   4.906   1.906
 5523TIP3   OH216574   1.397   5.915   3.170
 5523TIP3    H116575   1.415   5.930   3.077
 5523TIP3    H216576   1.346   5.834   3.171
 5524TIP3   OH216577   4.862   0.418   4.168
 5524TIP3    H116578   4.841   0.458   4.252
 5524TIP3    H216579   4.786   0.362   4.149
 5525TIP3   OH216580   1.860   5.976   2.824
 5525TIP3    H116581   1.874   5.898   2.770
 5525TIP3    H216582   1.777   6.011   2.793
 5526TIP3   OH216583   0.569   0.990   4.498
 5526TIP3    H116584   0.634   1.053   4.530
 5526TIP3    H216585   0.610   0.950   4.421
 5527TIP3   OH216586   1.615   1.221   1.594
 5527TIP3    H116587   1.640   1.171   1.672
 5527TIP3    H216588   1.550   1.167   1.550
 5528TIP3   OH216589   1.743   5.937   3.080
 5528TIP3    H116590   1.756   5.952   2.986
 5528TIP3    H216591   1.810   5.872   3.103
 5529TIP3   OH216592   5.272   5.073   1.326
 5529TIP3    H116593   5.242   5.107   1.241
 5529TIP3    H216594   5.356   5.033   1.307
 5530TIP3   OH216595   1.971   4.186   2.445
 5530TIP3    H116596   1.893   4.187   2.389
 5530TIP3    H216597   2.030   4.124   2.403
 5531TIP3   OH216598   4.889   4.820   0.505
 5531TIP3    H116599   4.810   4.871   0.484
 5531TIP3    H216600   4.897   4.827   0.601
 5532TIP3   OH216601   4.600   1.425   4.090
 5532TIP3    H116602   4.693   1.448   4.100
 5532TIP3    H216603   4.592   1.393   4.000
 5533TIP3   OH216604   4.256   3.872   0.452
 5533TIP3    H116605   4.335   3.926   0.444
 5533TIP3    H216606   4.236   3.846   0.362
 5534TIP3   OH216607   2.430   4.815   1.569
 5534TIP3    H116608   2.393   4.903   1.570
 5534TIP3    H216609   2.371   4.763   1.623
 5535TIP3   OH216610   3.300   1.891   1.375
 5535TIP3    H116611   3.344   1.968   1.339
 5535TIP3    H216612   3.247   1.924   1.447
 5536TIP3   OH216613   4.052   1.415   1.725
 5536TIP3    H116614   4.094   1.415   1.639
 5536TIP3    H216615   4.124   1.417   1.787
 5537TIP3   OH216616   1.239   0.452   4.128
 5537TIP3    H116617   1.198   0.406   4.054
 5537TIP3    H216618   1.255   0.540   4.094
 5538TIP3   OH216619   1.745   1.544   3.328
 5538TIP3    H116620   1.800   1.619   3.306
 5538TIP3    H216621   1.674   1.546   3.264
 5539TIP3   OH216622   3.471   4.172   5.136
 5539TIP3    H116623   3.504   4.251   5.179
 5539TIP3    H216624   3.532   4.157   5.064
 5540TIP3   OH216625   2.485   4.862   2.050
 5540TIP3    H116626   2.451   4.880   1.963
 5540TIP3    H216627   2.551   4.793   2.036
 5541TIP3   OH216628   5.235   4.483   0.144
 5541TIP3    H116629   5.309   4.543   0.146
 5541TIP3    H216630   5.212   4.477   0.051
 5542TIP3   OH216631   1.835   5.113   2.683
 5542TIP3    H116632   1.759   5.094   2.738
 5542TIP3    H216633   1.799   5.142   2.600
 5543TIP3   OH216634   5.309   4.231   0.213
 5543TIP3    H116635   5.384   4.247   0.271
 5543TIP3    H216636   5.270   4.318   0.201
 5544TIP3   OH216637   0.831   4.069   3.229
 5544TIP3    H116638   0.925   4.060   3.217
 5544TIP3    H216639   0.804   3.987   3.269
 5545TIP3   OH216640   4.797   5.433   2.014
 5545TIP3    H116641   4.707   5.442   2.044
 5545TIP3    H216642   4.802   5.345   1.977
 5546TIP3   OH216643   5.450   0.446   1.711
 5546TIP3    H116644   5.413   0.426   1.797
 5546TIP3    H216645   5.425   0.538   1.696
 5547TIP3   OH216646   0.135   5.653   0.083
 5547TIP3    H116647   0.209   5.626   0.137
 5547TIP3    H216648   0.076   5.698   0.143
 5548TIP3   OH216649   4.770   4.767   3.006
 5548TIP3    H116650   4.684   4.806   2.991
 5548TIP3    H216651   4.795   4.731   2.921
 5549TIP3   OH216652   4.631   1.601   0.466
 5549TIP3    H116653   4.559   1.541   0.448
 5549TIP3    H216654   4.709   1.556   0.433
 5550TIP3   OH216655   0.932   3.438   3.270
 5550TIP3    H116656   0.929   3.398   3.356
 5550TIP3    H216657   1.000   3.389   3.223
 5551TIP3   OH216658   3.708   2.792   2.923
 5551TIP3    H116659   3.633   2.794   2.982
 5551TIP3    H216660   3.729   2.699   2.915
 5552TIP3   OH216661   0.026   3.516   3.434
 5552TIP3    H116662   0.070   3.600   3.446
 5552TIP3    H216663  -0.038   3.511   3.505
 5553TIP3   OH216664   3.358   4.705   0.742
 5553TIP3    H116665   3.360   4.686   0.648
 5553TIP3    H216666   3.358   4.800   0.747
 5554TIP3   OH216667   4.927   1.055   4.595
 5554TIP3    H116668   4.946   1.043   4.688
 5554TIP3    H216669   5.011   1.084   4.558
 5555TIP3   OH216670   1.005   5.293   2.109
 5555TIP3    H116671   0.976   5.335   2.029
 5555TIP3    H216672   0.967   5.205   2.106
 5556TIP3   OH216673   0.963   1.181   4.069
 5556TIP3    H116674   0.970   1.093   4.031
 5556TIP3    H216675   0.903   1.227   4.011
 5557TIP3   OH216676   4.784   2.849   3.328
 5557TIP3    H116677   4.836   2.902   3.389
 5557TIP3    H216678   4.838   2.773   3.309
 5558TIP3   OH216679   5.777   1.050   2.918
 5558TIP3    H116680   5.869   1.075   2.914
 5558TIP3    H216681   5.778   0.961   2.952
 5559TIP3   OH216682   6.219   5.258   3.412
 5559TIP3    H116683   6.253   5.205   3.340
 5559TIP3    H216684   6.298   5.295   3.453
 5560TIP3   OH216685   5.703   3.158   0.831
 5560TIP3    H116686   5.721   3.064   0.838
 5560TIP3    H216687   5.609   3.165   0.846
 5561TIP3   OH216688   6.176   1.119   0.480
 5561TIP3    H116689   6.129   1.041   0.510
 5561TIP3    H216690   6.246   1.084   0.425
 5562TIP3   OH216691   2.381   4.257   3.139
 5562TIP3    H116692   2.347   4.301   3.061
 5562TIP3    H216693   2.475   4.249   3.122
 5563TIP3   OH216694   3.706   0.166   1.350
 5563TIP3    H116695   3.723   0.072   1.358
 5563TIP3    H216696   3.751   0.205   1.425
 5564TIP3   OH216697   3.945   5.242   4.605
 5564TIP3    H116698   4.035   5.218   4.584
 5564TIP3    H216699   3.945   5.338   4.608
 5565TIP3   OH216700   3.509   3.854   3.698
 5565TIP3    H116701   3.506   3.830   3.605
 5565TIP3    H216702   3.595   3.824   3.727
 5566TIP3   OH216703   3.802   4.301   2.013
 5566TIP3    H116704   3.846   4.224   1.979
 5566TIP3    H216705   3.802   4.290   2.108
 5567TIP3   OH216706   4.018   3.591   2.529
 5567TIP3    H116707   3.946   3.545   2.572
 5567TIP3    H216708   4.064   3.523   2.480
 5568TIP3   OH216709   3.062   4.116   0.513
 5568TIP3    H116710   3.022   4.038   0.475
 5568TIP3    H216711   2.988   4.165   0.550
 5569TIP3   OH216712   4.055   2.244   1.090
 5569TIP3    H116713   4.148   2.253   1.070
 5569TIP3    H216714   4.033   2.156   1.060
 5570TIP3   OH216715   1.984   5.086   1.810
 5570TIP3    H116716   2.045   5.135   1.865
 5570TIP3    H216717   2.021   5.091   1.722
 5571TIP3   OH216718   1.765   2.150   3.235
 5571TIP3    H116719   1.695   2.215   3.227
 5571TIP3    H216720   1.773   2.112   3.147
 5572TIP3   OH216721   3.836   1.012   0.338
 5572TIP3    H116722   3.752   0.977   0.309
 5572TIP3    H216723   3.870   0.947   0.399
 5573TIP3   OH216724   0.854   2.773   0.978
 5573TIP3    H116725   0.803   2.852   0.996
 5573TIP3    H216726   0.871   2.777   0.884
 5574TIP3   OH216727   2.637   2.162   2.839
 5574TIP3    H116728   2.639   2.081   2.790
 5574TIP3    H216729   2.728   2.194   2.837
 5575TIP3   OH216730   3.712   4.300   3.550
 5575TIP3    H116731   3.758   4.218   3.564
 5575TIP3    H216732   3.718   4.346   3.634
 5576TIP3   OH216733   5.333   1.224   5.158
 5576TIP3    H116734   5.397   1.159   5.188
 5576TIP3    H216735   5.258   1.214   5.217
 5577TIP3   OH216736   5.878   4.241   4.827
 5577TIP3    H116737   5.954   4.256   4.772
 5577TIP3    H216738   5.814   4.199   4.770
 5578TIP3   OH216739   1.015   4.876   2.740
 5578TIP3    H116740   1.092   4.839   2.783
 5578TIP3    H216741   0.960   4.800   2.719
 5579TIP3   OH216742   5.497   5.237   2.445
 5579TIP3    H116743   5.590   5.237   2.423
 5579TIP3    H216744   5.460   5.163   2.395
 5580TIP3   OH216745   2.199   0.694   1.337
 5580TIP3    H116746   2.145   0.704   1.259
 5580TIP3    H216747   2.170   0.611   1.375
 5581TIP3   OH216748   0.292   1.839   1.672
 5581TIP3    H116749   0.380   1.805   1.691
 5581TIP3    H216750   0.289   1.923   1.717
 5582TIP3   OH216751   3.774   2.778   2.041
 5582TIP3    H116752   3.744   2.703   1.990
 5582TIP3    H216753   3.811   2.740   2.121
 5583TIP3   OH216754   5.830   4.969   0.506
 5583TIP3    H116755   5.855   4.879   0.488
 5583TIP3    H216756   5.909   5.020   0.484
 5584TIP3   OH216757   3.437   2.735   1.430
 5584TIP3    H116758   3.350   2.695   1.420
 5584TIP3    H216759   3.420   2.829   1.433
 5585TIP3   OH216760   4.752   0.380   0.457
 5585TIP3    H116761   4.783   0.387   0.366
 5585TIP3    H216762   4.709   0.464   0.474
 5586TIP3   OH216763   3.163   5.617   4.494
 5586TIP3    H116764   3.244   5.603   4.544
 5586TIP3    H216765   3.103   5.550   4.526
 5587TIP3   OH216766   1.791   2.922   1.392
 5587TIP3    H116767   1.852   2.911   1.320
 5587TIP3    H216768   1.799   2.842   1.443
 5588TIP3   OH216769   0.622   3.346   4.047
 5588TIP3    H116770   0.682   3.414   4.015
 5588TIP3    H216771   0.538   3.390   4.052
 5589TIP3   OH216772   0.243   3.889   4.099
 5589TIP3    H116773   0.294   3.966   4.072
 5589TIP3    H216774   0.248   3.829   4.024
 5590TIP3   OH216775   3.657   3.678   4.050
 5590TIP3    H116776   3.720   3.737   4.090
 5590TIP3    H216777   3.611   3.638   4.124
 5591TIP3   OH216778   1.720   3.797   4.609
 5591TIP3    H116779   1.664   3.768   4.681
 5591TIP3    H216780   1.709   3.730   4.541
 5592TIP3   OH216781   2.130   5.884   2.268
 5592TIP3    H116782   2.060   5.935   2.228
 5592TIP3    H216783   2.210   5.931   2.245
 5593TIP3   OH216784   6.053   0.157   2.847
 5593TIP3    H116785   6.127   0.098   2.836
 5593TIP3    H216786   6.064   0.221   2.777
 5594TIP3   OH216787   0.650   3.874   4.988
 5594TIP3    H116788   0.707   3.930   5.041
 5594TIP3    H216789   0.656   3.788   5.028
 5595TIP3   OH216790   0.138   1.009   4.883
 5595TIP3    H116791   0.227   0.980   4.899
 5595TIP3    H216792   0.090   0.984   4.963
 5596TIP3   OH216793   3.642   2.040   0.818
 5596TIP3    H116794   3.597   2.122   0.835
 5596TIP3    H216795   3.640   2.031   0.722
 5597TIP3   OH216796   3.420   5.824   3.409
 5597TIP3    H116797   3.479   5.758   3.445
 5597TIP3    H216798   3.404   5.884   3.482
 5598TIP3   OH216799   2.667   3.937   4.897
 5598TIP3    H116800   2.721   4.002   4.851
 5598TIP3    H216801   2.578   3.971   4.890
 5599TIP3   OH216802   4.993   1.107   3.346
 5599TIP3    H116803   4.991   1.197   3.315
 5599TIP3    H216804   5.049   1.061   3.283
 5600TIP3   OH216805   1.744   4.437   2.168
 5600TIP3    H116806   1.677   4.502   2.146
 5600TIP3    H216807   1.696   4.356   2.183
 5601TIP3   OH216808   4.521   3.711   0.509
 5601TIP3    H116809   4.574   3.703   0.588
 5601TIP3    H216810   4.489   3.801   0.510
 5602TIP3   OH216811   3.673   4.853   1.071
 5602TIP3    H116812   3.739   4.849   1.140
 5602TIP3    H216813   3.652   4.761   1.053
 5603TIP3   OH216814   3.013   5.100   3.277
 5603TIP3    H116815   3.098   5.062   3.298
 5603TIP3    H216816   3.014   5.186   3.320
 5604TIP3   OH216817   2.599   0.441   3.013
 5604TIP3    H116818   2.585   0.508   3.079
 5604TIP3    H216819   2.682   0.466   2.971
 5605TIP3   OH216820   1.253   0.567   1.200
 5605TIP3    H116821   1.326   0.629   1.194
 5605TIP3    H216822   1.240   0.537   1.110
 5606TIP3   OH216823   2.398   2.112   2.372
 5606TIP3    H116824   2.414   2.073   2.286
 5606TIP3    H216825   2.321   2.066   2.406
 5607TIP3   OH216826   1.623   5.535   0.465
 5607TIP3    H116827   1.704   5.503   0.503
 5607TIP3    H216828   1.570   5.561   0.540
 5608TIP3   OH216829   1.256   3.445   4.231
 5608TIP3    H116830   1.278   3.395   4.309
 5608TIP3    H216831   1.311   3.523   4.236
 5609TIP3   OH216832   3.204   1.822   4.673
 5609TIP3    H116833   3.198   1.783   4.761
 5609TIP3    H216834   3.262   1.897   4.684
 5610TIP3   OH216835   0.700   0.600   5.164
 5610TIP3    H116836   0.629   0.651   5.124
 5610TIP3    H216837   0.755   0.666   5.205
 5611TIP3   OH216838   3.107   3.058   4.720
 5611TIP3    H116839   3.030   3.010   4.687
 5611TIP3    H216840   3.078   3.149   4.725
 5612TIP3   OH216841   1.783   3.511   4.943
 5612TIP3    H116842   1.855   3.535   5.002
 5612TIP3    H216843   1.801   3.420   4.920
 5613TIP3   OH216844   5.684   3.291   1.228
 5613TIP3    H116845   5.737   3.247   1.296
 5613TIP3    H216846   5.599   3.246   1.232
 5614TIP3   OH216847   0.850   1.520   3.756
 5614TIP3    H116848   0.930   1.502   3.806
 5614TIP3    H216849   0.881   1.534   3.666
 5615TIP3   OH216850   0.314   2.759   2.895
 5615TIP3    H116851   0.345   2.782   2.983
 5615TIP3    H216852   0.220   2.776   2.898
 5616TIP3   OH216853   0.454   1.012   3.678
 5616TIP3    H116854   0.458   1.001   3.583
 5616TIP3    H216855   0.436   0.924   3.711
 5617TIP3   OH216856   5.226   1.864   0.643
 5617TIP3    H116857   5.260   1.904   0.722
 5617TIP3    H216858   5.302   1.856   0.585
 5618TIP3   OH216859   5.457   1.463   0.490
 5618TIP3    H116860   5.515   1.412   0.547
 5618TIP3    H216861   5.498   1.459   0.404
 5619TIP3   OH216862   4.730   2.333   0.982
 5619TIP3    H116863   4.728   2.265   0.914
 5619TIP3    H216864   4.639   2.363   0.988
 5620TIP3   OH216865   5.018   4.116   2.959
 5620TIP3    H116866   5.033   4.209   2.975
 5620TIP3    H216867   5.048   4.073   3.039
 5621TIP3   OH216868   6.290   3.482   4.347
 5621TIP3    H116869   6.334   3.532   4.416
 5621TIP3    H216870   6.246   3.548   4.294
 5622TIP3   OH216871   4.079   2.762   4.973
 5622TIP3    H116872   4.119   2.764   4.886
 5622TIP3    H216873   3.986   2.776   4.957
 5623TIP3   OH216874   2.231   2.026   2.989
 5623TIP3    H116875   2.300   2.055   2.930
 5623TIP3    H216876   2.194   1.949   2.947
 5624TIP3   OH216877   1.895   3.185   4.555
 5624TIP3    H116878   1.896   3.142   4.469
 5624TIP3    H216879   1.888   3.278   4.535
 5625TIP3   OH216880   1.956   1.768   0.377
 5625TIP3    H116881   1.993   1.785   0.464
 5625TIP3    H216882   1.927   1.677   0.382
 5626TIP3   OH216883   3.843   4.997   1.525
 5626TIP3    H116884   3.885   5.080   1.502
 5626TIP3    H216885   3.899   4.931   1.485
 5627TIP3   OH216886   4.830   5.339   4.279
 5627TIP3    H116887   4.859   5.313   4.366
 5627TIP3    H216888   4.775   5.266   4.249
 5628TIP3   OH216889   0.650   3.309   0.859
 5628TIP3    H116890   0.716   3.268   0.916
 5628TIP3    H216891   0.577   3.247   0.861
 5629TIP3   OH216892   3.305   3.086   2.031
 5629TIP3    H116893   3.391   3.048   2.050
 5629TIP3    H216894   3.308   3.174   2.071
 5630TIP3   OH216895   1.332   3.720   1.214
 5630TIP3    H116896   1.341   3.753   1.304
 5630TIP3    H216897   1.407   3.663   1.202
 5631TIP3   OH216898   3.151   3.048   5.020
 5631TIP3    H116899   3.164   3.092   4.936
 5631TIP3    H216900   3.159   2.955   4.999
 5632TIP3   OH216901   5.410   3.207   0.327
 5632TIP3    H116902   5.315   3.222   0.329
 5632TIP3    H216903   5.435   3.226   0.236
 5633TIP3   OH216904   0.737   2.565   4.424
 5633TIP3    H116905   0.685   2.595   4.350
 5633TIP3    H216906   0.751   2.472   4.407
 5634TIP3   OH216907   0.253   2.433   5.177
 5634TIP3    H116908   0.287   2.380   5.105
 5634TIP3    H216909   0.296   2.518   5.167
 5635TIP3   OH216910   3.306   1.298   2.037
 5635TIP3    H116911   3.396   1.268   2.050
 5635TIP3    H216912   3.262   1.280   2.120
 5636TIP3   OH216913   4.155   1.939   2.888
 5636TIP3    H116914   4.213   1.877   2.933
 5636TIP3    H216915   4.078   1.944   2.944
 5637TIP3   OH216916   6.087   0.969   3.247
 5637TIP3    H116917   6.156   1.012   3.298
 5637TIP3    H216918   6.023   0.940   3.312
 5638TIP3   OH216919   4.623   5.207   2.771
 5638TIP3    H116920   4.656   5.191   2.859
 5638TIP3    H216921   4.553   5.143   2.759
 5639TIP3   OH216922   3.737   0.935   5.105
 5639TIP3    H116923   3.788   0.900   5.178
 5639TIP3    H216924   3.789   1.007   5.071
 5640TIP3   OH216925   0.925   1.595   3.499
 5640TIP3    H116926   0.893   1.676   3.459
 5640TIP3    H216927   0.926   1.532   3.427
 5641TIP3   OH216928   5.853   3.928   1.107
 5641TIP3    H116929   5.901   3.859   1.153
 5641TIP3    H216930   5.777   3.885   1.070
 5642TIP3   OH216931   0.416   1.406   0.414
 5642TIP3    H116932   0.487   1.469   0.420
 5642TIP3    H216933   0.458   1.321   0.422
 5643TIP3   OH216934   2.731   2.884   4.418
 5643TIP3    H116935   2.764   2.919   4.501
 5643TIP3    H216936   2.795   2.912   4.353
 5644TIP3   OH216937   3.632   5.465   3.019
 5644TIP3    H116938   3.708   5.420   2.982
 5644TIP3    H216939   3.558   5.406   3.002
 5645TIP3   OH216940   1.945   4.894   3.722
 5645TIP3    H116941   1.922   4.841   3.798
 5645TIP3    H216942   1.861   4.930   3.692
 5646TIP3   OH216943   4.336   5.423   3.174
 5646TIP3    H116944   4.329   5.330   3.155
 5646TIP3    H216945   4.408   5.429   3.237
 5647TIP3   OH216946   3.250   1.191   0.143
 5647TIP3    H116947   3.284   1.274   0.111
 5647TIP3    H216948   3.295   1.125   0.090
 5648TIP3   OH216949   5.793   3.155   2.154
 5648TIP3    H116950   5.848   3.185   2.082
 5648TIP3    H216951   5.844   3.173   2.233
 5649TIP3   OH216952   1.123   0.554   1.807
 5649TIP3    H116953   1.108   0.622   1.741
 5649TIP3    H216954   1.048   0.560   1.865
 5650TIP3   OH216955   1.733   2.844   0.336
 5650TIP3    H116956   1.729   2.865   0.430
 5650TIP3    H216957   1.813   2.792   0.327
 5651TIP3   OH216958   2.892   3.610   0.877
 5651TIP3    H116959   2.980   3.640   0.853
 5651TIP3    H216960   2.834   3.657   0.817
 5652TIP3   OH216961   1.669   2.386   2.676
 5652TIP3    H116962   1.614   2.315   2.709
 5652TIP3    H216963   1.634   2.405   2.589
 5653TIP3   OH216964   5.980   3.156   0.821
 5653TIP3    H116965   5.885   3.165   0.830
 5653TIP3    H216966   6.016   3.228   0.873
 5654TIP3   OH216967   0.633   3.205   2.554
 5654TIP3    H116968   0.717   3.249   2.543
 5654TIP3    H216969   0.629   3.143   2.481
 5655TIP3   OH216970   0.331   4.917   4.108
 5655TIP3    H116971   0.350   5.010   4.099
 5655TIP3    H216972   0.268   4.898   4.039
 5656TIP3   OH216973   3.135   3.350   3.955
 5656TIP3    H116974   3.097   3.437   3.967
 5656TIP3    H216975   3.208   3.363   3.895
 5657TIP3   OH216976   1.768   1.486   0.819
 5657TIP3    H116977   1.774   1.425   0.746
 5657TIP3    H216978   1.688   1.462   0.865
 5658TIP3   OH216979   3.214   2.423   3.610
 5658TIP3    H116980   3.199   2.373   3.530
 5658TIP3    H216981   3.292   2.475   3.590
 5659TIP3   OH216982   0.855   4.711   1.027
 5659TIP3    H116983   0.867   4.623   0.991
 5659TIP3    H216984   0.791   4.752   0.969
 5660TIP3   OH216985   1.854   5.831   2.437
 5660TIP3    H116986   1.849   5.845   2.343
 5660TIP3    H216987   1.925   5.768   2.449
 5661TIP3   OH216988   0.871   5.281   1.425
 5661TIP3    H116989   0.951   5.307   1.378
 5661TIP3    H216990   0.901   5.256   1.512
 5662TIP3   OH216991   0.908   2.552   4.862
 5662TIP3    H116992   0.994   2.590   4.845
 5662TIP3    H216993   0.893   2.493   4.788
 5663TIP3   OH216994   4.839   1.010   1.277
 5663TIP3    H116995   4.868   1.027   1.367
 5663TIP3    H216996   4.790   0.929   1.283
 5664TIP3   OH216997   5.905   4.254   2.351
 5664TIP3    H116998   5.897   4.190   2.422
 5664TIP3    H216999   5.937   4.203   2.276
 5665TIP3   OH217000   3.245   4.692   1.845
 5665TIP3    H117001   3.337   4.667   1.853
 5665TIP3    H217002   3.242   4.752   1.771
 5666TIP3   OH217003   1.414   2.305   4.763
 5666TIP3    H117004   1.451   2.350   4.839
 5666TIP3    H217005   1.461   2.222   4.759
 5667TIP3   OH217006   3.736   0.299   2.648
 5667TIP3    H117007   3.723   0.207   2.624
 5667TIP3    H217008   3.649   0.338   2.639
 5668TIP3   OH217009   5.791   2.560   1.944
 5668TIP3    H117010   5.770   2.549   1.851
 5668TIP3    H217011   5.705   2.568   1.986
 5669TIP3   OH217012   3.868   2.101   0.935
 5669TIP3    H117013   3.841   2.089   1.026
 5669TIP3    H217014   3.787   2.100   0.885
 5670TIP3   OH217015   2.715   5.304   3.279
 5670TIP3    H117016   2.710   5.212   3.305
 5670TIP3    H217017   2.796   5.335   3.319
 5671TIP3   OH217018   4.176   5.105   4.566
 5671TIP3    H117019   4.229   5.032   4.596
 5671TIP3    H217020   4.184   5.104   4.471
 5672TIP3   OH217021   3.586   4.834   1.446
 5672TIP3    H117022   3.571   4.758   1.391
 5672TIP3    H217023   3.681   4.840   1.454
 5673TIP3   OH217024   0.557   2.353   1.769
 5673TIP3    H117025   0.490   2.421   1.773
 5673TIP3    H217026   0.609   2.366   1.849
 5674TIP3   OH217027   1.473   2.317   2.459
 5674TIP3    H117028   1.496   2.225   2.460
 5674TIP3    H217029   1.501   2.348   2.373
 5675TIP3   OH217030   2.237   2.173   3.497
 5675TIP3    H117031   2.264   2.106   3.434
 5675TIP3    H217032   2.197   2.241   3.443
 5676TIP3   OH217033   4.486   0.222   3.516
 5676TIP3    H117034   4.454   0.159   3.451
 5676TIP3    H217035   4.420   0.219   3.586
 5677TIP3   OH217036   6.243   2.442   3.280
 5677TIP3    H117037   6.272   2.352   3.296
 5677TIP3    H217038   6.154   2.433   3.245
 5678TIP3   OH217039   5.724   5.888   3.144
 5678TIP3    H117040   5.767   5.875   3.059
 5678TIP3    H217041   5.793   5.923   3.201
 5679TIP3   OH217042   5.154   5.821   1.099
 5679TIP3    H117043   5.079   5.877   1.079
 5679TIP3    H217044   5.163   5.825   1.194
 5680TIP3   OH217045   5.377   3.175   1.717
 5680TIP3    H117046   5.431   3.222   1.653
 5680TIP3    H217047   5.432   3.169   1.795
 5681TIP3   OH217048   1.807   4.750   4.191
 5681TIP3    H117049   1.821   4.843   4.212
 5681TIP3    H217050   1.895   4.713   4.188
 5682TIP3   OH217051   2.300   1.647   2.961
 5682TIP3    H117052   2.220   1.599   2.981
 5682TIP3    H217053   2.363   1.578   2.938
 5683TIP3   OH217054   1.647   4.114   4.040
 5683TIP3    H117055   1.673   4.189   4.093
 5683TIP3    H217056   1.558   4.093   4.068
 5684TIP3   OH217057   2.264   2.194   4.034
 5684TIP3    H117058   2.187   2.236   3.996
 5684TIP3    H217059   2.338   2.247   4.003
 5685TIP3   OH217060   4.974   2.186   3.129
 5685TIP3    H117061   4.991   2.096   3.157
 5685TIP3    H217062   4.893   2.181   3.077
 5686TIP3   OH217063   5.653   5.976   1.745
 5686TIP3    H117064   5.614   6.044   1.691
 5686TIP3    H217065   5.591   5.964   1.817
 5687TIP3   OH217066   5.949   0.929   4.049
 5687TIP3    H117067   5.928   0.971   4.133
 5687TIP3    H217068   5.877   0.956   3.991
 5688TIP3   OH217069   5.540   5.218   2.105
 5688TIP3    H117070   5.614   5.213   2.044
 5688TIP3    H217071   5.495   5.134   2.096
 5689TIP3   OH217072   1.365   1.000   0.383
 5689TIP3    H117073   1.357   0.954   0.467
 5689TIP3    H217074   1.343   1.091   0.404
 5690TIP3   OH217075   0.730   4.014   0.609
 5690TIP3    H117076   0.641   4.019   0.573
 5690TIP3    H217077   0.717   4.010   0.703
 5691TIP3   OH217078   5.593   1.321   3.497
 5691TIP3    H117079   5.658   1.389   3.510
 5691TIP3    H217080   5.528   1.360   3.439
 5692TIP3   OH217081   5.841   1.262   4.089
 5692TIP3    H117082   5.935   1.280   4.096
 5692TIP3    H217083   5.809   1.265   4.179
 5693TIP3   OH217084   1.238   4.885   4.830
 5693TIP3    H117085   1.300   4.812   4.839
 5693TIP3    H217086   1.154   4.843   4.812
 5694TIP3   OH217087   2.265   3.582   5.113
 5694TIP3    H117088   2.342   3.545   5.155
 5694TIP3    H217089   2.290   3.594   5.022
 5695TIP3   OH217090   5.456   0.309   1.037
 5695TIP3    H117091   5.468   0.253   1.114
 5695TIP3    H217092   5.361   0.315   1.026
 5696TIP3   OH217093   2.152   3.262   3.040
 5696TIP3    H117094   2.175   3.303   2.957
 5696TIP3    H217095   2.148   3.168   3.021
 5697TIP3   OH217096   4.047   0.551   3.838
 5697TIP3    H117097   3.952   0.564   3.838
 5697TIP3    H217098   4.059   0.467   3.882
 5698TIP3   OH217099   1.088   0.894   4.472
 5698TIP3    H117100   1.087   0.864   4.563
 5698TIP3    H217101   1.142   0.830   4.426
 5699TIP3   OH217102   3.140   1.464   4.122
 5699TIP3    H117103   3.065   1.524   4.125
 5699TIP3    H217104   3.170   1.467   4.031
 5700TIP3   OH217105   1.036   0.140   3.632
 5700TIP3    H117106   0.952   0.180   3.655
 5700TIP3    H217107   1.046   0.067   3.693
 5701TIP3   OH217108   3.176   1.604   2.920
 5701TIP3    H117109   3.242   1.649   2.868
 5701TIP3    H217110   3.139   1.672   2.976
 5702TIP3   OH217111   2.549   5.930   3.163
 5702TIP3    H117112   2.500   5.967   3.237
 5702TIP3    H217113   2.487   5.874   3.118
 5703TIP3   OH217114   4.227   3.205   4.554
 5703TIP3    H117115   4.133   3.203   4.536
 5703TIP3    H217116   4.251   3.114   4.569
 5704TIP3   OH217117   5.413   1.837   2.124
 5704TIP3    H117118   5.373   1.869   2.044
 5704TIP3    H217119   5.373   1.752   2.138
 5705TIP3   OH217120   0.209   5.028   5.035
 5705TIP3    H117121   0.149   5.075   5.092
 5705TIP3    H217122   0.185   5.056   4.947
 5706TIP3   OH217123   0.169   3.464   1.788
 5706TIP3    H117124   0.114   3.472   1.867
 5706TIP3    H217125   0.108   3.438   1.719
 5707TIP3   OH217126   4.479   1.098   4.358
 5707TIP3    H117127   4.570   1.087   4.386
 5707TIP3    H217128   4.439   1.152   4.426
 5708TIP3   OH217129   1.015   0.577   3.122
 5708TIP3    H117130   1.041   0.518   3.052
 5708TIP3    H217131   1.073   0.554   3.195
 5709TIP3   OH217132   4.665   0.513   4.414
 5709TIP3    H117133   4.706   0.460   4.483
 5709TIP3    H217134   4.718   0.593   4.411
 5710TIP3   OH217135   0.287   4.669   3.781
 5710TIP3    H117136   0.262   4.616   3.856
 5710TIP3    H217137   0.382   4.666   3.780
 5711TIP3   OH217138   1.238   5.049   4.334
 5711TIP3    H117139   1.219   4.956   4.333
 5711TIP3    H217140   1.189   5.084   4.408
 5712TIP3   OH217141   1.984   3.075   3.844
 5712TIP3    H117142   1.919   3.113   3.903
 5712TIP3    H217143   1.959   3.106   3.757
 5713TIP3   OH217144   2.952   4.564   3.030
 5713TIP3    H117145   3.000   4.481   3.036
 5713TIP3    H217146   3.010   4.629   3.069
 5714TIP3   OH217147   5.929   2.139   0.149
 5714TIP3    H117148   5.879   2.122   0.069
 5714TIP3    H217149   5.880   2.208   0.194
 5715TIP3   OH217150   0.680   3.527   2.849
 5715TIP3    H117151   0.727   3.608   2.867
 5715TIP3    H217152   0.618   3.551   2.780
 5716TIP3   OH217153   1.664   3.170   4.893
 5716TIP3    H117154   1.758   3.186   4.885
 5716TIP3    H217155   1.656   3.107   4.965
 5717TIP3   OH217156   3.438   4.361   3.504
 5717TIP3    H117157   3.527   4.347   3.535
 5717TIP3    H217158   3.448   4.412   3.423
 5718TIP3   OH217159   2.333   2.217   1.489
 5718TIP3    H117160   2.271   2.217   1.562
 5718TIP3    H217161   2.311   2.295   1.439
 5719TIP3   OH217162   5.239   4.641   3.242
 5719TIP3    H117163   5.172   4.635   3.173
 5719TIP3    H217164   5.320   4.615   3.198
 5720TIP3   OH217165   5.789   5.729   1.333
 5720TIP3    H117166   5.842   5.650   1.348
 5720TIP3    H217167   5.703   5.707   1.370
 5721TIP3   OH217168   1.308   5.474   2.109
 5721TIP3    H117169   1.376   5.541   2.107
 5721TIP3    H217170   1.319   5.425   2.028
 5722TIP3   OH217171   3.376   2.338   4.245
 5722TIP3    H117172   3.411   2.341   4.156
 5722TIP3    H217173   3.453   2.343   4.301
 5723TIP3   OH217174   5.137   1.498   3.624
 5723TIP3    H117175   5.156   1.412   3.586
 5723TIP3    H217176   5.129   1.556   3.548
 5724TIP3   OH217177   2.031   0.015   4.538
 5724TIP3    H117178   2.088   0.092   4.533
 5724TIP3    H217179   2.034  -0.023   4.450
 5725TIP3   OH217180   4.943   1.298   2.846
 5725TIP3    H117181   4.970   1.384   2.880
 5725TIP3    H217182   4.979   1.235   2.908
 5726TIP3   OH217183   2.109   3.605   0.417
 5726TIP3    H117184   2.170   3.555   0.471
 5726TIP3    H217185   2.077   3.541   0.352
 5727TIP3   OH217186   5.036   1.878   2.447
 5727TIP3    H117187   5.116   1.910   2.490
 5727TIP3    H217188   5.019   1.941   2.378
 5728TIP3   OH217189  -0.010   4.811   3.571
 5728TIP3    H117190  -0.094   4.857   3.581
 5728TIP3    H217191   0.038   4.863   3.507
 5729TIP3   OH217192   1.465   0.469   0.374
 5729TIP3    H117193   1.423   0.459   0.459
 5729TIP3    H217194   1.555   0.494   0.394
 5730TIP3   OH217195   0.523   0.291   1.840
 5730TIP3    H117196   0.590   0.336   1.788
 5730TIP3    H217197   0.556   0.296   1.930
 5731TIP3   OH217198   0.565   2.242   1.508
 5731TIP3    H117199   0.555   2.264   1.601
 5731TIP3    H217200   0.615   2.315   1.472
 5732TIP3   OH217201   3.438   5.359   1.481
 5732TIP3    H117202   3.527   5.385   1.507
 5732TIP3    H217203   3.423   5.405   1.398
 5733TIP3   OH217204   1.357   1.852   3.603
 5733TIP3    H117205   1.333   1.764   3.571
 5733TIP3    H217206   1.287   1.909   3.571
 5734TIP3   OH217207   0.335   5.952   4.506
 5734TIP3    H117208   0.305   5.968   4.416
 5734TIP3    H217209   0.427   5.978   4.506
 5735TIP3   OH217210   0.826   0.759   4.912
 5735TIP3    H117211   0.740   0.785   4.945
 5735TIP3    H217212   0.861   0.839   4.873
 5736TIP3   OH217213   5.248   4.773   1.404
 5736TIP3    H117214   5.280   4.763   1.494
 5736TIP3    H217215   5.312   4.829   1.362
 5737TIP3   OH217216   4.181   5.137   4.280
 5737TIP3    H117217   4.118   5.169   4.215
 5737TIP3    H217218   4.253   5.199   4.275
 5738TIP3   OH217219   3.349   3.638   3.675
 5738TIP3    H117220   3.389   3.719   3.705
 5738TIP3    H217221   3.366   3.575   3.746
 5739TIP3   OH217222   3.293   3.578   2.788
 5739TIP3    H117223   3.294   3.658   2.840
 5739TIP3    H217224   3.354   3.520   2.833
 5740TIP3   OH217225   3.136   1.600   0.216
 5740TIP3    H117226   3.165   1.524   0.165
 5740TIP3    H217227   3.064   1.566   0.270
 5741TIP3   OH217228   4.332   4.138   1.961
 5741TIP3    H117229   4.297   4.227   1.958
 5741TIP3    H217230   4.364   4.128   2.051
 5742TIP3   OH217231   2.397   3.280   4.969
 5742TIP3    H117232   2.472   3.338   4.953
 5742TIP3    H217233   2.435   3.204   5.014
 5743TIP3   OH217234   4.513   0.768   4.283
 5743TIP3    H117235   4.463   0.720   4.217
 5743TIP3    H217236   4.589   0.803   4.236
 5744TIP3   OH217237   5.909   0.010   0.615
 5744TIP3    H117238   5.984  -0.048   0.604
 5744TIP3    H217239   5.905   0.026   0.709
 5745TIP3   OH217240   3.450   4.102   2.188
 5745TIP3    H117241   3.523   4.042   2.176
 5745TIP3    H217242   3.374   4.045   2.199
 5746TIP3   OH217243   3.956   0.473   1.882
 5746TIP3    H117244   3.950   0.481   1.787
 5746TIP3    H217245   4.003   0.391   1.897
 5747TIP3   OH217246   4.321   5.332   2.109
 5747TIP3    H117247   4.241   5.382   2.094
 5747TIP3    H217248   4.316   5.305   2.201
 5748TIP3   OH217249   4.393   1.928   2.377
 5748TIP3    H117250   4.441   1.992   2.430
 5748TIP3    H217251   4.330   1.889   2.438
 5749TIP3   OH217252   6.299   3.959   3.103
 5749TIP3    H117253   6.388   3.926   3.112
 5749TIP3    H217254   6.289   4.022   3.175
 5750TIP3   OH217255   3.948   2.621   3.828
 5750TIP3    H117256   4.022   2.564   3.809
 5750TIP3    H217257   3.984   2.710   3.820
 5751TIP3   OH217258   0.387   3.375   4.883
 5751TIP3    H117259   0.418   3.299   4.932
 5751TIP3    H217260   0.419   3.450   4.933
 5752TIP3   OH217261   0.321   0.972   0.324
 5752TIP3    H117262   0.272   1.043   0.283
 5752TIP3    H217263   0.375   0.935   0.254
 5753TIP3   OH217264   2.117   4.530   4.853
 5753TIP3    H117265   2.074   4.601   4.805
 5753TIP3    H217266   2.205   4.564   4.870
 5754TIP3   OH217267   3.376   3.473   5.073
 5754TIP3    H117268   3.383   3.486   5.167
 5754TIP3    H217269   3.342   3.557   5.040
 5755TIP3   OH217270   1.664   1.895   4.418
 5755TIP3    H117271   1.746   1.922   4.459
 5755TIP3    H217272   1.664   1.939   4.333
 5756TIP3   OH217273   6.201   3.645   0.753
 5756TIP3    H117274   6.247   3.635   0.836
 5756TIP3    H217275   6.108   3.632   0.776
 5757TIP3   OH217276   1.184   3.788   2.108
 5757TIP3    H117277   1.229   3.839   2.175
 5757TIP3    H217278   1.252   3.763   2.046
 5758TIP3   OH217279   4.809   0.383   2.358
 5758TIP3    H117280   4.761   0.423   2.430
 5758TIP3    H217281   4.853   0.307   2.397
 5759TIP3   OH217282  -0.015   4.886   1.261
 5759TIP3    H117283   0.044   4.897   1.336
 5759TIP3    H217284   0.043   4.888   1.184
 5760TIP3   OH217285   6.038   4.288   3.631
 5760TIP3    H117286   6.067   4.238   3.707
 5760TIP3    H217287   5.994   4.224   3.575
 5761TIP3   OH217288   4.008   0.208   2.420
 5761TIP3    H117289   4.004   0.206   2.324
 5761TIP3    H217290   3.937   0.150   2.448
 5762TIP3   OH217291   5.995   1.702   3.210
 5762TIP3    H117292   5.972   1.642   3.139
 5762TIP3    H217293   6.053   1.652   3.267
 5763TIP3   OH217294   5.860   0.380   3.289
 5763TIP3    H117295   5.854   0.475   3.273
 5763TIP3    H217296   5.953   0.361   3.283
 5764TIP3   OH217297   2.881   3.810   2.770
 5764TIP3    H117298   2.974   3.818   2.751
 5764TIP3    H217299   2.850   3.901   2.778
 5765TIP3   OH217300   1.398   2.969   2.199
 5765TIP3    H117301   1.482   2.938   2.165
 5765TIP3    H217302   1.406   3.064   2.198
 5766TIP3   OH217303   2.165   2.024   0.597
 5766TIP3    H117304   2.224   1.994   0.528
 5766TIP3    H217305   2.221   2.033   0.674
 5767TIP3   OH217306   1.272   1.259   4.003
 5767TIP3    H117307   1.324   1.291   3.930
 5767TIP3    H217308   1.213   1.195   3.965
 5768TIP3   OH217309   1.346   1.818   0.203
 5768TIP3    H117310   1.324   1.880   0.273
 5768TIP3    H217311   1.266   1.767   0.191
 5769TIP3   OH217312   0.098   5.318   1.040
 5769TIP3    H117313   0.026   5.260   1.016
 5769TIP3    H217314   0.074   5.353   1.125
 5770TIP3   OH217315   3.197   4.443   3.616
 5770TIP3    H117316   3.166   4.499   3.545
 5770TIP3    H217317   3.286   4.418   3.590
 5771TIP3   OH217318   4.054   1.615   4.209
 5771TIP3    H117319   4.128   1.611   4.269
 5771TIP3    H217320   4.093   1.608   4.122
 5772TIP3   OH217321   4.566   5.781   4.042
 5772TIP3    H117322   4.652   5.823   4.042
 5772TIP3    H217323   4.567   5.724   4.119
 5773TIP3   OH217324   4.460   1.024   4.072
 5773TIP3    H117325   4.468   1.042   4.166
 5773TIP3    H217326   4.525   0.956   4.055
 5774TIP3   OH217327   1.039   3.693   3.017
 5774TIP3    H117328   1.115   3.657   2.971
 5774TIP3    H217329   1.060   3.683   3.110
 5775TIP3   OH217330   4.984   3.200   4.643
 5775TIP3    H117331   5.008   3.257   4.716
 5775TIP3    H217332   4.900   3.163   4.669
 5776TIP3   OH217333   5.035   0.666   2.046
 5776TIP3    H117334   4.970   0.638   2.111
 5776TIP3    H217335   5.097   0.593   2.041
 5777TIP3   OH217336   6.119   4.363   1.261
 5777TIP3    H117337   6.196   4.398   1.306
 5777TIP3    H217338   6.045   4.402   1.307
 5778TIP3   OH217339   3.294   1.619   4.852
 5778TIP3    H117340   3.354   1.616   4.778
 5778TIP3    H217341   3.270   1.527   4.867
 5779TIP3   OH217342   6.215   0.126   1.766
 5779TIP3    H117343   6.267   0.167   1.836
 5779TIP3    H217344   6.223   0.187   1.692
 5780TIP3   OH217345   5.650   0.448   3.925
 5780TIP3    H117346   5.703   0.464   3.847
 5780TIP3    H217347   5.631   0.536   3.960
 5781TIP3   OH217348   5.159   3.270   3.662
 5781TIP3    H117349   5.092   3.202   3.654
 5781TIP3    H217350   5.216   3.240   3.733
 5782TIP3   OH217351   3.528   3.377   2.614
 5782TIP3    H117352   3.530   3.283   2.598
 5782TIP3    H217353   3.521   3.385   2.709
 5783TIP3   OH217354   2.303   5.686   2.371
 5783TIP3    H117355   2.354   5.727   2.440
 5783TIP3    H217356   2.265   5.759   2.322
 5784TIP3   OH217357   0.390   2.065   3.966
 5784TIP3    H117358   0.365   2.051   4.058
 5784TIP3    H217359   0.421   1.979   3.937
 5785TIP3   OH217360   2.617   0.827   1.755
 5785TIP3    H117361   2.644   0.878   1.831
 5785TIP3    H217362   2.522   0.836   1.752
 5786TIP3   OH217363   0.356   1.209   1.501
 5786TIP3    H117364   0.356   1.287   1.444
 5786TIP3    H217365   0.443   1.170   1.488
 5787TIP3   OH217366   1.506   1.562   2.901
 5787TIP3    H117367   1.494   1.502   2.827
 5787TIP3    H217368   1.428   1.618   2.900
 5788TIP3   OH217369   3.377   5.570   3.206
 5788TIP3    H117370   3.406   5.627   3.135
 5788TIP3    H217371   3.394   5.621   3.286
 5789TIP3   OH217372   3.961   0.971   3.851
 5789TIP3    H117373   4.047   0.949   3.886
 5789TIP3    H217374   3.974   0.974   3.756
 5790TIP3   OH217375   5.261   2.738   3.189
 5790TIP3    H117376   5.299   2.661   3.147
 5790TIP3    H217377   5.296   2.812   3.139
 5791TIP3   OH217378   3.017   5.151   2.371
 5791TIP3    H117379   2.981   5.065   2.392
 5791TIP3    H217380   3.070   5.136   2.293
 5792TIP3   OH217381   0.590   5.409   2.945
 5792TIP3    H117382   0.678   5.392   2.980
 5792TIP3    H217383   0.589   5.362   2.861
 5793TIP3   OH217384   3.684   1.942   1.381
 5793TIP3    H117385   3.715   1.852   1.392
 5793TIP3    H217386   3.615   1.952   1.447
 5794TIP3   OH217387   0.001   1.393   4.366
 5794TIP3    H117388   0.045   1.418   4.447
 5794TIP3    H217389  -0.037   1.474   4.332
 5795TIP3   OH217390   2.231   5.777   0.839
 5795TIP3    H117391   2.208   5.698   0.790
 5795TIP3    H217392   2.325   5.787   0.825
 5796TIP3   OH217393   5.875   2.609   4.649
 5796TIP3    H117394   5.800   2.666   4.667
 5796TIP3    H217395   5.845   2.551   4.579
 5797TIP3   OH217396   5.150   5.236   3.594
 5797TIP3    H117397   5.088   5.272   3.657
 5797TIP3    H217398   5.156   5.303   3.526
 5798TIP3   OH217399   0.066   4.730   1.889
 5798TIP3    H117400   0.032   4.648   1.926
 5798TIP3    H217401   0.012   4.746   1.812
 5799TIP3   OH217402   2.174   1.088   0.997
 5799TIP3    H117403   2.078   1.085   1.001
 5799TIP3    H217404   2.194   1.172   0.957
 5800TIP3   OH217405   4.383   5.533   3.539
 5800TIP3    H117406   4.412   5.544   3.448
 5800TIP3    H217407   4.453   5.573   3.591
 5801TIP3   OH217408   4.211   1.006   3.962
 5801TIP3    H117409   4.298   1.001   4.003
 5801TIP3    H217410   4.195   1.100   3.952
 5802TIP3   OH217411   1.448   5.505   2.725
 5802TIP3    H117412   1.536   5.496   2.759
 5802TIP3    H217413   1.458   5.558   2.646
 5803TIP3   OH217414   6.249   3.435   0.580
 5803TIP3    H117415   6.230   3.520   0.619
 5803TIP3    H217416   6.167   3.408   0.539
 5804TIP3   OH217417   5.056   1.149   4.211
 5804TIP3    H117418   5.041   1.167   4.118
 5804TIP3    H217419   4.981   1.188   4.255
 5805TIP3   OH217420   0.585   4.697   0.693
 5805TIP3    H117421   0.530   4.648   0.753
 5805TIP3    H217422   0.578   4.650   0.610
 5806TIP3   OH217423   1.351   5.353   1.023
 5806TIP3    H117424   1.312   5.341   1.109
 5806TIP3    H217425   1.410   5.279   1.012
 5807TIP3   OH217426   4.462   0.836   1.743
 5807TIP3    H117427   4.438   0.747   1.719
 5807TIP3    H217428   4.526   0.826   1.813
 5808TIP3   OH217429   5.932   1.991   2.841
 5808TIP3    H117430   5.977   2.033   2.915
 5808TIP3    H217431   5.888   1.916   2.880
 5809TIP3   OH217432   5.601   0.029   4.103
 5809TIP3    H117433   5.675   0.084   4.077
 5809TIP3    H217434   5.539   0.090   4.144
 5810TIP3   OH217435   6.279   5.945   2.149
 5810TIP3    H117436   6.215   6.015   2.164
 5810TIP3    H217437   6.355   5.972   2.200
 5811TIP3   OH217438   2.554   1.526   1.934
 5811TIP3    H117439   2.488   1.514   2.003
 5811TIP3    H217440   2.618   1.457   1.950
 5812TIP3   OH217441   5.642   4.928   4.181
 5812TIP3    H117442   5.736   4.911   4.187
 5812TIP3    H217443   5.609   4.911   4.270
 5813TIP3   OH217444   0.695   4.421   0.508
 5813TIP3    H117445   0.665   4.494   0.454
 5813TIP3    H217446   0.788   4.414   0.488
 5814TIP3   OH217447   4.219   2.304   2.430
 5814TIP3    H117448   4.129   2.337   2.420
 5814TIP3    H217449   4.274   2.374   2.398
 5815TIP3   OH217450   3.606   1.266   0.654
 5815TIP3    H117451   3.615   1.223   0.739
 5815TIP3    H217452   3.536   1.330   0.668
 5816TIP3   OH217453   1.563   3.059   1.331
 5816TIP3    H117454   1.531   2.984   1.280
 5816TIP3    H217455   1.647   3.029   1.367
 5817TIP3   OH217456   1.099   5.719   4.006
 5817TIP3    H117457   1.061   5.798   3.966
 5817TIP3    H217458   1.089   5.651   3.939
 5818TIP3   OH217459   4.722   5.835   3.350
 5818TIP3    H117460   4.644   5.834   3.406
 5818TIP3    H217461   4.787   5.883   3.401
 5819TIP3   OH217462   1.160   0.880   2.994
 5819TIP3    H117463   1.106   0.954   3.021
 5819TIP3    H217464   1.235   0.882   3.054
 5820TIP3   OH217465   4.624   0.936   5.041
 5820TIP3    H117466   4.666   0.927   4.956
 5820TIP3    H217467   4.653   0.861   5.091
 5821TIP3   OH217468   4.745   4.624   3.614
 5821TIP3    H117469   4.742   4.562   3.541
 5821TIP3    H217470   4.839   4.635   3.631
 5822TIP3   OH217471   0.616   1.711   3.644
 5822TIP3    H117472   0.671   1.775   3.600
 5822TIP3    H217473   0.604   1.641   3.580
 5823TIP3   OH217474   5.661   2.253   3.543
 5823TIP3    H117475   5.729   2.207   3.592
 5823TIP3    H217476   5.690   2.344   3.540
 5824TIP3   OH217477   1.126   1.416   1.696
 5824TIP3    H117478   1.119   1.382   1.607
 5824TIP3    H217479   1.177   1.496   1.687
 5825TIP3   OH217480   5.653   2.689   3.766
 5825TIP3    H117481   5.664   2.781   3.741
 5825TIP3    H217482   5.584   2.691   3.833
 5826TIP3   OH217483   5.618   5.262   0.338
 5826TIP3    H117484   5.707   5.275   0.371
 5826TIP3    H217485   5.597   5.343   0.293
 5827TIP3   OH217486   2.905   5.798   2.472
 5827TIP3    H117487   2.933   5.889   2.476
 5827TIP3    H217488   2.986   5.748   2.472
 5828TIP3   OH217489   4.825   1.275   0.730
 5828TIP3    H117490   4.756   1.225   0.773
 5828TIP3    H217491   4.853   1.339   0.795
 5829TIP3   OH217492   2.416   4.436   1.244
 5829TIP3    H117493   2.400   4.507   1.182
 5829TIP3    H217494   2.471   4.474   1.312
 5830TIP3   OH217495   1.834   0.681   0.774
 5830TIP3    H117496   1.809   0.590   0.757
 5830TIP3    H217497   1.883   0.707   0.696
 5831TIP3   OH217498   1.052   2.178   4.099
 5831TIP3    H117499   1.090   2.245   4.042
 5831TIP3    H217500   0.957   2.193   4.093
 5832TIP3   OH217501   2.532   4.729   0.786
 5832TIP3    H117502   2.569   4.809   0.748
 5832TIP3    H217503   2.440   4.752   0.804
 5833TIP3   OH217504   1.566   5.643   0.740
 5833TIP3    H117505   1.490   5.697   0.763
 5833TIP3    H217506   1.577   5.586   0.816
 5834TIP3   OH217507   6.040   3.964   0.862
 5834TIP3    H117508   5.984   4.026   0.816
 5834TIP3    H217509   5.984   3.928   0.931
 5835TIP3   OH217510   1.140   5.691   4.896
 5835TIP3    H117511   1.053   5.666   4.866
 5835TIP3    H217512   1.156   5.634   4.971
 5836TIP3   OH217513   1.133   2.412   3.975
 5836TIP3    H117514   1.198   2.477   4.002
 5836TIP3    H217515   1.050   2.460   3.977
 5837TIP3   OH217516   3.380   5.060   4.252
 5837TIP3    H117517   3.321   5.130   4.223
 5837TIP3    H217518   3.322   4.986   4.269
 5838TIP3   OH217519   5.852   5.790   4.218
 5838TIP3    H117520   5.791   5.849   4.262
 5838TIP3    H217521   5.926   5.783   4.277
 5839TIP3   OH217522   0.969   3.077   0.817
 5839TIP3    H117523   0.981   3.082   0.912
 5839TIP3    H217524   0.963   3.168   0.789
 5840TIP3   OH217525   1.916   5.693   4.411
 5840TIP3    H117526   1.895   5.669   4.320
 5840TIP3    H217527   1.991   5.639   4.433
 5841TIP3   OH217528   5.877   5.884   1.070
 5841TIP3    H117529   5.824   5.964   1.068
 5841TIP3    H217530   5.899   5.872   1.163
 5842TIP3   OH217531   1.911   3.573   1.201
 5842TIP3    H117532   1.951   3.654   1.169
 5842TIP3    H217533   1.916   3.580   1.296
 5843TIP3   OH217534   2.479   1.040   4.817
 5843TIP3    H117535   2.436   1.090   4.887
 5843TIP3    H217536   2.564   1.082   4.806
 5844TIP3   OH217537   0.718   5.445   0.987
 5844TIP3    H117538   0.647   5.409   1.041
 5844TIP3    H217539   0.784   5.472   1.051
 5845TIP3   OH217540   3.790   1.416   1.838
 5845TIP3    H117541   3.716   1.467   1.806
 5845TIP3    H217542   3.860   1.479   1.852
 5846TIP3   OH217543   2.079   2.151   4.875
 5846TIP3    H117544   2.103   2.151   4.968
 5846TIP3    H217545   2.041   2.064   4.861
 5847TIP3   OH217546   2.562   3.627   0.608
 5847TIP3    H117547   2.523   3.575   0.678
 5847TIP3    H217548   2.592   3.563   0.544
 5848TIP3   OH217549   5.071   5.973   4.932
 5848TIP3    H117550   5.041   5.951   5.020
 5848TIP3    H217551   5.162   5.942   4.929
 5849TIP3   OH217552   2.273   2.828   3.415
 5849TIP3    H117553   2.333   2.899   3.392
 5849TIP3    H217554   2.302   2.799   3.501
 5850TIP3   OH217555   6.126   4.769   2.087
 5850TIP3    H117556   6.142   4.743   2.178
 5850TIP3    H217557   6.200   4.826   2.065
 5851TIP3   OH217558   1.471   2.402   5.006
 5851TIP3    H117559   1.504   2.492   5.005
 5851TIP3    H217560   1.549   2.348   5.018
 5852TIP3   OH217561   0.264   1.252   1.775
 5852TIP3    H117562   0.267   1.301   1.857
 5852TIP3    H217563   0.213   1.307   1.716
 5853TIP3   OH217564   3.538   2.461   1.188
 5853TIP3    H117565   3.512   2.553   1.189
 5853TIP3    H217566   3.633   2.463   1.204
 5854TIP3   OH217567   5.353   3.441   2.183
 5854TIP3    H117568   5.306   3.381   2.124
 5854TIP3    H217569   5.293   3.516   2.193
 5855TIP3   OH217570   1.496   4.569   2.983
 5855TIP3    H117571   1.435   4.521   3.039
 5855TIP3    H217572   1.556   4.612   3.044
 5856TIP3   OH217573   1.407   1.069   2.964
 5856TIP3    H117574   1.382   1.086   3.055
 5856TIP3    H217575   1.382   1.149   2.917
 5857TIP3   OH217576   3.557   0.267   3.689
 5857TIP3    H117577   3.516   0.188   3.653
 5857TIP3    H217578   3.499   0.338   3.664
 5858TIP3   OH217579   0.954   5.144   2.699
 5858TIP3    H117580   0.939   5.150   2.605
 5858TIP3    H217581   0.976   5.052   2.714
 5859TIP3   OH217582   3.741   0.787   3.943
 5859TIP3    H117583   3.820   0.830   3.911
 5859TIP3    H217584   3.711   0.733   3.869
 5860TIP3   OH217585   2.009   2.909   0.802
 5860TIP3    H117586   1.962   2.935   0.882
 5860TIP3    H217587   1.996   2.815   0.796
 5861TIP3   OH217588   5.190   4.795   0.604
 5861TIP3    H117589   5.108   4.783   0.651
 5861TIP3    H217590   5.254   4.816   0.671
 5862TIP3   OH217591   4.853   5.684   0.993
 5862TIP3    H117592   4.847   5.779   0.981
 5862TIP3    H217593   4.877   5.673   1.085
 5863TIP3   OH217594   4.196   1.654   0.218
 5863TIP3    H117595   4.215   1.623   0.130
 5863TIP3    H217596   4.258   1.607   0.274
 5864TIP3   OH217597   4.874   3.525   4.908
 5864TIP3    H117598   4.824   3.605   4.921
 5864TIP3    H217599   4.816   3.469   4.856
 5865TIP3   OH217600   5.697   5.789   4.778
 5865TIP3    H117601   5.704   5.862   4.840
 5865TIP3    H217602   5.707   5.710   4.832
 5866TIP3   OH217603   4.051   3.046   4.275
 5866TIP3    H117604   4.095   2.975   4.322
 5866TIP3    H217605   4.073   3.032   4.183
 5867TIP3   OH217606   4.689   4.479   5.097
 5867TIP3    H117607   4.732   4.449   5.177
 5867TIP3    H217608   4.699   4.406   5.036
 5868TIP3   OH217609   3.291   2.219   0.272
 5868TIP3    H117610   3.202   2.239   0.303
 5868TIP3    H217611   3.326   2.304   0.246
 5869TIP3   OH217612   4.388   3.629   1.162
 5869TIP3    H117613   4.458   3.564   1.158
 5869TIP3    H217614   4.336   3.602   1.238
 5870TIP3   OH217615   5.044   5.428   0.938
 5870TIP3    H117616   5.030   5.384   0.854
 5870TIP3    H217617   4.991   5.508   0.932
 5871TIP3   OH217618   0.826   1.936   2.942
 5871TIP3    H117619   0.745   1.922   2.990
 5871TIP3    H217620   0.889   1.966   3.008
 5872TIP3   OH217621   5.853   5.695   0.897
 5872TIP3    H117622   5.760   5.676   0.891
 5872TIP3    H217623   5.863   5.742   0.980
 5873TIP3   OH217624   3.618   1.607   0.277
 5873TIP3    H117625   3.562   1.540   0.315
 5873TIP3    H217626   3.573   1.689   0.295
 5874TIP3   OH217627   5.770   1.438   4.628
 5874TIP3    H117628   5.778   1.387   4.709
 5874TIP3    H217629   5.720   1.382   4.569
 5875TIP3   OH217630   0.028   2.796   2.812
 5875TIP3    H117631  -0.008   2.712   2.840
 5875TIP3    H217632   0.042   2.844   2.894
 5876TIP3   OH217633   2.366   1.040   3.830
 5876TIP3    H117634   2.384   0.949   3.852
 5876TIP3    H217635   2.309   1.071   3.900
 5877TIP3   OH217636   0.039   3.652   3.137
 5877TIP3    H117637   0.059   3.576   3.192
 5877TIP3    H217638   0.075   3.629   3.051
 5878TIP3   OH217639   2.814   2.563   4.407
 5878TIP3    H117640   2.814   2.469   4.425
 5878TIP3    H217641   2.724   2.591   4.424
 5879TIP3   OH217642   2.043   3.550   0.030
 5879TIP3    H117643   1.977   3.617   0.048
 5879TIP3    H217644   2.031   3.485   0.100
 5880TIP3   OH217645   1.633   0.469   4.724
 5880TIP3    H117646   1.553   0.522   4.718
 5880TIP3    H217647   1.616   0.394   4.667
 5881TIP3   OH217648   5.652   2.145   4.300
 5881TIP3    H117649   5.660   2.187   4.386
 5881TIP3    H217650   5.610   2.061   4.320
 5882TIP3   OH217651   2.327   1.704   1.325
 5882TIP3    H117652   2.299   1.787   1.363
 5882TIP3    H217653   2.246   1.656   1.308
 5883TIP3   OH217654   3.277   4.324   0.006
 5883TIP3    H117655   3.207   4.300   0.067
 5883TIP3    H217656   3.330   4.245  -0.002
 5884TIP3   OH217657   5.992   3.560   2.059
 5884TIP3    H117658   5.902   3.592   2.057
 5884TIP3    H217659   6.046   3.638   2.047
 5885TIP3   OH217660   1.534   3.053   4.028
 5885TIP3    H117661   1.481   3.112   3.974
 5885TIP3    H217662   1.621   3.055   3.987
 5886TIP3   OH217663   0.703   2.749   0.084
 5886TIP3    H117664   0.694   2.837   0.047
 5886TIP3    H217665   0.691   2.690   0.009
 5887TIP3   OH217666   5.565   4.620   1.319
 5887TIP3    H117667   5.637   4.580   1.368
 5887TIP3    H217668   5.496   4.554   1.320
 5888TIP3   OH217669   4.327   3.732   3.688
 5888TIP3    H117670   4.271   3.663   3.722
 5888TIP3    H217671   4.378   3.762   3.763
 5889TIP3   OH217672   2.439   4.904   3.139
 5889TIP3    H117673   2.459   4.813   3.117
 5889TIP3    H217674   2.344   4.912   3.128
 5890TIP3   OH217675   3.541   2.711   3.138
 5890TIP3    H117676   3.506   2.650   3.073
 5890TIP3    H217677   3.618   2.667   3.173
 5891TIP3   OH217678   1.628   4.801   0.457
 5891TIP3    H117679   1.555   4.825   0.401
 5891TIP3    H217680   1.597   4.725   0.506
 5892TIP3   OH217681   6.228   3.751   0.037
 5892TIP3    H117682   6.189   3.674  -0.005
 5892TIP3    H217683   6.291   3.783  -0.028
 5893TIP3   OH217684   2.735   0.058   5.153
 5893TIP3    H117685   2.758   0.138   5.106
 5893TIP3    H217686   2.639   0.058   5.154
 5894TIP3   OH217687   4.123   0.563   2.075
 5894TIP3    H117688   4.073   0.559   2.156
 5894TIP3    H217689   4.061   0.535   2.007
 5895TIP3   OH217690   4.397   3.368   1.492
 5895TIP3    H117691   4.405   3.327   1.578
 5895TIP3    H217692   4.469   3.432   1.489
 5896TIP3   OH217693   5.928   1.194   2.600
 5896TIP3    H117694   5.971   1.130   2.543
 5896TIP3    H217695   5.865   1.238   2.543
 5897TIP3   OH217696   1.069   4.106   1.402
 5897TIP3    H117697   1.119   4.090   1.482
 5897TIP3    H217698   1.025   4.023   1.384
 5898TIP3   OH217699   0.729   5.651   3.984
 5898TIP3    H117700   0.803   5.697   4.023
 5898TIP3    H217701   0.752   5.641   3.892
 5899TIP3   OH217702   5.975   2.829   3.655
 5899TIP3    H117703   6.030   2.841   3.577
 5899TIP3    H217704   5.894   2.877   3.634
 5900TIP3   OH217705   0.249   5.338   3.231
 5900TIP3    H117706   0.226   5.270   3.294
 5900TIP3    H217707   0.335   5.312   3.197
 5901TIP3   OH217708   3.967   5.883   0.249
 5901TIP3    H117709   4.048   5.933   0.257
 5901TIP3    H217710   3.975   5.836   0.166
 5902TIP3   OH217711   1.059   3.895   0.242
 5902TIP3    H117712   1.101   3.831   0.300
 5902TIP3    H217713   0.968   3.897   0.272
 5903TIP3   OH217714   5.730   2.233   2.886
 5903TIP3    H117715   5.809   2.180   2.891
 5903TIP3    H217716   5.726   2.263   2.796
 5904TIP3   OH217717   4.030   1.185   0.883
 5904TIP3    H117718   4.012   1.225   0.968
 5904TIP3    H217719   4.017   1.255   0.819
 5905TIP3   OH217720   2.483   0.045   0.210
 5905TIP3    H117721   2.491   0.010   0.121
 5905TIP3    H217722   2.391   0.069   0.219
 5906TIP3   OH217723   5.071   0.909   4.347
 5906TIP3    H117724   5.124   0.931   4.424
 5906TIP3    H217725   5.080   0.984   4.289
 5907TIP3   OH217726   2.054   3.765   1.104
 5907TIP3    H117727   2.057   3.842   1.162
 5907TIP3    H217728   2.127   3.779   1.043
 5908TIP3   OH217729   2.332   2.794   0.048
 5908TIP3    H117730   2.264   2.772   0.112
 5908TIP3    H217731   2.408   2.818   0.102
 5909TIP3   OH217732   0.003   4.554   1.488
 5909TIP3    H117733   0.031   4.500   1.414
 5909TIP3    H217734   0.084   4.588   1.526
 5910TIP3   OH217735   0.930   4.473   0.350
 5910TIP3    H117736   0.976   4.505   0.427
 5910TIP3    H217737   0.999   4.461   0.284
 5911TIP3   OH217738   0.546   1.875   3.030
 5911TIP3    H117739   0.537   1.941   3.099
 5911TIP3    H217740   0.496   1.911   2.956
 5912TIP3   OH217741   0.367   2.471   4.467
 5912TIP3    H117742   0.409   2.526   4.532
 5912TIP3    H217743   0.333   2.532   4.401
 5913TIP3   OH217744   1.015   4.339   4.074
 5913TIP3    H117745   1.101   4.313   4.041
 5913TIP3    H217746   0.958   4.265   4.052
 5914TIP3   OH217747   4.477   5.721   3.254
 5914TIP3    H117748   4.502   5.640   3.208
 5914TIP3    H217749   4.519   5.790   3.203
 5915TIP3   OH217750   3.509   1.399   4.130
 5915TIP3    H117751   3.592   1.389   4.083
 5915TIP3    H217752   3.449   1.337   4.088
 5916TIP3   OH217753   5.347   4.972   3.918
 5916TIP3    H117754   5.366   4.878   3.913
 5916TIP3    H217755   5.418   5.013   3.869
 5917TIP3   OH217756   0.784   5.469   4.472
 5917TIP3    H117757   0.846   5.530   4.511
 5917TIP3    H217758   0.700   5.490   4.514
 5918TIP3   OH217759   6.182   3.970   3.738
 5918TIP3    H117760   6.278   3.969   3.737
 5918TIP3    H217761   6.159   4.053   3.780
 5919TIP3   OH217762   5.509   0.070   1.876
 5919TIP3    H117763   5.423   0.042   1.905
 5919TIP3    H217764   5.570   0.015   1.925
 5920TIP3   OH217765   3.856   1.933   4.164
 5920TIP3    H117766   3.767   1.942   4.199
 5920TIP3    H217767   3.878   1.841   4.179
 5921TIP3   OH217768   2.010   4.446   2.162
 5921TIP3    H117769   2.003   4.525   2.108
 5921TIP3    H217770   1.920   4.415   2.170
 5922TIP3   OH217771   5.112   0.375   2.032
 5922TIP3    H117772   5.076   0.369   1.944
 5922TIP3    H217773   5.202   0.343   2.024
 5923TIP3   OH217774   0.496   1.691   3.360
 5923TIP3    H117775   0.450   1.680   3.276
 5923TIP3    H217776   0.589   1.686   3.337
 5924TIP3   OH217777   0.244   2.591   3.383
 5924TIP3    H117778   0.283   2.677   3.369
 5924TIP3    H217779   0.319   2.534   3.402
 5925TIP3   OH217780   1.967   4.197   0.946
 5925TIP3    H117781   1.991   4.189   0.853
 5925TIP3    H217782   1.883   4.243   0.945
 5926TIP3   OH217783   5.169   3.058   1.834
 5926TIP3    H117784   5.180   2.964   1.852
 5926TIP3    H217785   5.250   3.084   1.792
 5927TIP3   OH217786   3.559   5.738   2.448
 5927TIP3    H117787   3.555   5.651   2.489
 5927TIP3    H217788   3.626   5.729   2.381
 5928TIP3   OH217789   5.593   2.208   1.890
 5928TIP3    H117790   5.594   2.275   1.958
 5928TIP3    H217791   5.503   2.205   1.860
 5929TIP3   OH217792   1.475   3.949   0.305
 5929TIP3    H117793   1.433   3.871   0.341
 5929TIP3    H217794   1.568   3.928   0.304
 5930TIP3   OH217795   3.167   1.073   4.914
 5930TIP3    H117796   3.210   0.989   4.902
 5930TIP3    H217797   3.074   1.052   4.917
 5931TIP3   OH217798   4.134   4.181   0.432
 5931TIP3    H117799   4.163   4.225   0.352
 5931TIP3    H217800   4.138   4.088   0.410
 5932TIP3   OH217801   4.278   0.490   0.463
 5932TIP3    H117802   4.248   0.402   0.483
 5932TIP3    H217803   4.197   0.539   0.447
 5933TIP3   OH217804   2.379   0.129   1.865
 5933TIP3    H117805   2.438   0.090   1.929
 5933TIP3    H217806   2.297   0.081   1.875
 5934TIP3   OH217807   6.016   5.569   2.531
 5934TIP3    H117808   6.014   5.477   2.555
 5934TIP3    H217809   5.952   5.577   2.460
 5935TIP3   OH217810   6.372   2.534   4.984
 5935TIP3    H117811   6.386   2.526   4.889
 5935TIP3    H217812   6.411   2.618   5.007
 5936TIP3   OH217813   3.906   4.955   0.387
 5936TIP3    H117814   3.912   5.048   0.366
 5936TIP3    H217815   3.985   4.938   0.439
 5937TIP3   OH217816   4.454   0.468   2.018
 5937TIP3    H117817   4.536   0.427   1.991
 5937TIP3    H217818   4.387   0.404   1.996
 5938TIP3   OH217819   5.436   1.012   2.614
 5938TIP3    H117820   5.530   1.030   2.622
 5938TIP3    H217821   5.428   0.918   2.631
 5939TIP3   OH217822   4.764   0.148   3.965
 5939TIP3    H117823   4.855   0.128   3.943
 5939TIP3    H217824   4.750   0.237   3.932
 5940TIP3   OH217825   2.563   0.309   2.222
 5940TIP3    H117826   2.641   0.363   2.209
 5940TIP3    H217827   2.494   0.355   2.174
 5941TIP3   OH217828   4.820   5.475   0.636
 5941TIP3    H117829   4.770   5.528   0.574
 5941TIP3    H217830   4.770   5.393   0.643
 5942TIP3   OH217831   2.782   3.079   3.902
 5942TIP3    H117832   2.750   3.156   3.948
 5942TIP3    H217833   2.756   3.005   3.958
 5943TIP3   OH217834   5.437   1.638   2.468
 5943TIP3    H117835   5.395   1.561   2.428
 5943TIP3    H217836   5.486   1.678   2.397
 5944TIP3   OH217837   2.270   5.151   0.953
 5944TIP3    H117838   2.191   5.198   0.978
 5944TIP3    H217839   2.251   5.119   0.864
 5945TIP3   OH217840   1.022   5.097   4.930
 5945TIP3    H117841   1.081   5.057   4.866
 5945TIP3    H217842   1.079   5.126   5.001
 5946TIP3   OH217843   1.878   2.210   2.737
 5946TIP3    H117844   1.822   2.277   2.697
 5946TIP3    H217845   1.853   2.129   2.692
 5947TIP3   OH217846   3.292   3.667   2.207
 5947TIP3    H117847   3.332   3.648   2.292
 5947TIP3    H217848   3.298   3.585   2.159
 5948TIP3   OH217849   1.976   2.663   2.812
 5948TIP3    H117850   2.048   2.726   2.803
 5948TIP3    H217851   1.920   2.701   2.879
 5949TIP3   OH217852   5.398   2.248   3.601
 5949TIP3    H117853   5.491   2.235   3.582
 5949TIP3    H217854   5.395   2.326   3.656
 5950TIP3   OH217855   2.409   4.272   5.090
 5950TIP3    H117856   2.486   4.240   5.138
 5950TIP3    H217857   2.408   4.366   5.107
 5951TIP3   OH217858   5.822   4.523   3.309
 5951TIP3    H117859   5.903   4.572   3.298
 5951TIP3    H217860   5.786   4.515   3.220
 5952TIP3   OH217861   3.030   3.275   1.834
 5952TIP3    H117862   3.097   3.339   1.857
 5952TIP3    H217863   2.961   3.327   1.793
 5953TIP3   OH217864   2.178   3.838   4.096
 5953TIP3    H117865   2.249   3.888   4.056
 5953TIP3    H217866   2.119   3.905   4.131
 5954TIP3   OH217867   0.976   2.153   0.640
 5954TIP3    H117868   0.931   2.203   0.708
 5954TIP3    H217869   0.989   2.215   0.568
 5955TIP3   OH217870   4.706   3.006   0.296
 5955TIP3    H117871   4.796   2.976   0.282
 5955TIP3    H217872   4.652   2.929   0.279
 5956TIP3   OH217873   5.920   5.294   4.962
 5956TIP3    H117874   5.856   5.223   4.957
 5956TIP3    H217875   5.895   5.342   5.041
 5957TIP3   OH217876   2.380   1.664   4.131
 5957TIP3    H117877   2.350   1.607   4.061
 5957TIP3    H217878   2.456   1.618   4.168
 5958TIP3   OH217879   0.424   5.089   4.500
 5958TIP3    H117880   0.435   5.039   4.581
 5958TIP3    H217881   0.511   5.124   4.481
 5959TIP3   OH217882   3.682   3.225   1.708
 5959TIP3    H117883   3.634   3.150   1.742
 5959TIP3    H217884   3.774   3.199   1.714
 5960TIP3   OH217885   4.734   0.968   0.460
 5960TIP3    H117886   4.718   0.925   0.544
 5960TIP3    H217887   4.829   0.979   0.456
 5961TIP3   OH217888   2.348   2.549   2.188
 5961TIP3    H117889   2.295   2.626   2.210
 5961TIP3    H217890   2.432   2.564   2.230
 5962TIP3   OH217891   5.013   4.638   3.644
 5962TIP3    H117892   5.097   4.605   3.611
 5962TIP3    H217893   5.027   4.648   3.738
 5963TIP3   OH217894   0.908   5.512   1.151
 5963TIP3    H117895   1.001   5.490   1.153
 5963TIP3    H217896   0.899   5.586   1.211
 5964TIP3   OH217897   5.302   3.660   1.961
 5964TIP3    H117898   5.286   3.656   2.055
 5964TIP3    H217899   5.226   3.619   1.921
 5965TIP3   OH217900   4.627   3.521   1.487
 5965TIP3    H117901   4.713   3.502   1.524
 5965TIP3    H217902   4.603   3.606   1.524
 5966TIP3   OH217903   6.182   0.431   5.008
 5966TIP3    H117904   6.202   0.472   5.092
 5966TIP3    H217905   6.128   0.355   5.030
 5967TIP3   OH217906   2.730   4.704   4.486
 5967TIP3    H117907   2.738   4.634   4.551
 5967TIP3    H217908   2.709   4.782   4.537
 5968TIP3   OH217909   0.654   5.590   2.486
 5968TIP3    H117910   0.592   5.658   2.514
 5968TIP3    H217911   0.699   5.629   2.411
 5969TIP3   OH217912   2.753   0.643   0.113
 5969TIP3    H117913   2.749   0.563   0.060
 5969TIP3    H217914   2.846   0.663   0.120
 5970TIP3   OH217915   3.259   5.535   1.294
 5970TIP3    H117916   3.207   5.575   1.364
 5970TIP3    H217917   3.238   5.585   1.216
 5971TIP3   OH217918   6.051   0.546   0.842
 5971TIP3    H117919   6.089   0.505   0.764
 5971TIP3    H217920   6.113   0.615   0.866
 5972TIP3   OH217921   3.035   0.420   1.726
 5972TIP3    H117922   3.025   0.429   1.632
 5972TIP3    H217923   2.997   0.501   1.762
 5973TIP3   OH217924   0.639   2.535   1.423
 5973TIP3    H117925   0.613   2.601   1.488
 5973TIP3    H217926   0.574   2.541   1.354
 5974TIP3   OH217927   1.966   3.820   4.766
 5974TIP3    H117928   1.928   3.801   4.852
 5974TIP3    H217929   1.896   3.800   4.704
 5975TIP3   OH217930   4.787   3.266   3.749
 5975TIP3    H117931   4.711   3.324   3.745
 5975TIP3    H217932   4.825   3.271   3.661
 5976TIP3   OH217933   1.054   3.980   1.916
 5976TIP3    H117934   1.092   3.929   1.987
 5976TIP3    H217935   1.021   4.060   1.958
 5977TIP3   OH217936   6.045   1.049   5.044
 5977TIP3    H117937   6.068   1.036   4.952
 5977TIP3    H217938   6.092   1.128   5.069
 5978TIP3   OH217939   6.164   3.100   2.866
 5978TIP3    H117940   6.170   3.018   2.915
 5978TIP3    H217941   6.254   3.119   2.840
 5979TIP3   OH217942   5.467   1.117   4.016
 5979TIP3    H117943   5.404   1.168   4.066
 5979TIP3    H217944   5.466   1.030   4.057
 5980TIP3   OH217945   1.061   3.264   2.319
 5980TIP3    H117946   1.080   3.203   2.248
 5980TIP3    H217947   1.043   3.347   2.276
 5981TIP3   OH217948   5.584   4.402   1.555
 5981TIP3    H117949   5.651   4.452   1.602
 5981TIP3    H217950   5.601   4.311   1.579
 5982TIP3   OH217951   3.995   5.710   2.404
 5982TIP3    H117952   4.002   5.804   2.418
 5982TIP3    H217953   3.926   5.701   2.338
 5983TIP3   OH217954   2.469   0.028   5.125
 5983TIP3    H117955   2.397   0.086   5.101
 5983TIP3    H217956   2.428  -0.057   5.138
 5984TIP3   OH217957   6.332   3.479   2.502
 5984TIP3    H117958   6.348   3.500   2.594
 5984TIP3    H217959   6.239   3.497   2.489
 5985TIP3   OH217960   2.508   4.284   2.177
 5985TIP3    H117961   2.479   4.194   2.189
 5985TIP3    H217962   2.432   4.337   2.199
 5986TIP3   OH217963   2.002   1.270   4.138
 5986TIP3    H117964   1.922   1.238   4.178
 5986TIP3    H217965   2.055   1.301   4.212
 5987TIP3   OH217966   0.679   2.286   2.991
 5987TIP3    H117967   0.718   2.273   3.077
 5987TIP3    H217968   0.739   2.243   2.930
 5988TIP3   OH217969   3.371   2.096   2.733
 5988TIP3    H117970   3.391   2.049   2.652
 5988TIP3    H217971   3.297   2.048   2.771
 5989TIP3   OH217972   3.137   0.502   1.230
 5989TIP3    H117973   3.128   0.582   1.178
 5989TIP3    H217974   3.165   0.534   1.316
 5990TIP3   OH217975   4.318   0.650   2.622
 5990TIP3    H117976   4.304   0.606   2.706
 5990TIP3    H217977   4.319   0.743   2.643
 5991TIP3   OH217978   2.388   5.825   3.448
 5991TIP3    H117979   2.410   5.735   3.423
 5991TIP3    H217980   2.431   5.837   3.533
 5992TIP3   OH217981   0.935   2.944   3.689
 5992TIP3    H117982   0.919   3.020   3.745
 5992TIP3    H217983   0.884   2.961   3.610
 5993TIP3   OH217984   3.549   3.153   5.147
 5993TIP3    H117985   3.566   3.245   5.130
 5993TIP3    H217986   3.472   3.152   5.204
 5994TIP3   OH217987   0.075   5.527   2.490
 5994TIP3    H117988   0.020   5.601   2.516
 5994TIP3    H217989   0.163   5.554   2.515
 5995TIP3   OH217990   5.513   3.903   2.983
 5995TIP3    H117991   5.473   3.860   3.059
 5995TIP3    H217992   5.596   3.859   2.971
 5996TIP3   OH217993   0.097   0.157   2.343
 5996TIP3    H117994   0.162   0.101   2.385
 5996TIP3    H217995   0.060   0.103   2.274
 5997TIP3   OH217996   3.765   0.421   3.781
 5997TIP3    H117997   3.710   0.392   3.854
 5997TIP3    H217998   3.735   0.371   3.706
 5998TIP3   OH217999   4.680   3.639   0.267
 5998TIP3    H118000   4.754   3.637   0.328
 5998TIP3    H218001   4.605   3.666   0.320
 5999TIP3   OH218002   3.455   1.038   4.363
 5999TIP3    H118003   3.406   1.040   4.445
 5999TIP3    H218004   3.414   0.968   4.313
 6000TIP3   OH218005   2.312   1.356   1.537
 6000TIP3    H118006   2.318   1.293   1.609
 6000TIP3    H218007   2.350   1.437   1.573
 6001TIP3   OH218008   3.687   2.223   2.140
 6001TIP3    H118009   3.667   2.136   2.106
 6001TIP3    H218010   3.700   2.210   2.234
 6002TIP3   OH218011   6.259   4.987   0.765
 6002TIP3    H118012   6.246   4.899   0.730
 6002TIP3    H218013   6.171   5.021   0.778
 6003TIP3   OH218014   3.827   3.968   4.113
 6003TIP3    H118015   3.801   4.006   4.029
 6003TIP3    H218016   3.757   3.992   4.173
 6004TIP3   OH218017   2.739   4.973   2.601
 6004TIP3    H118018   2.805   4.967   2.532
 6004TIP3    H218019   2.657   4.987   2.555
 6005TIP3   OH218020   0.027   4.808   4.678
 6005TIP3    H118021   0.061   4.745   4.615
 6005TIP3    H218022   0.023   4.761   4.761
 6006TIP3   OH218023   2.395   1.639   0.357
 6006TIP3    H118024   2.437   1.573   0.413
 6006TIP3    H218025   2.352   1.588   0.288
 6007TIP3   OH218026   2.620   5.061   0.442
 6007TIP3    H118027   2.668   5.137   0.475
 6007TIP3    H218028   2.583   5.021   0.521
 6008TIP3   OH218029   5.736   2.624   1.197
 6008TIP3    H118030   5.794   2.632   1.273
 6008TIP3    H218031   5.691   2.540   1.210
 6009TIP3   OH218032   2.258   1.410   1.269
 6009TIP3    H118033   2.256   1.403   1.365
 6009TIP3    H218034   2.327   1.350   1.242
 6010TIP3   OH218035   3.882   2.300   1.663
 6010TIP3    H118036   3.836   2.363   1.607
 6010TIP3    H218037   3.881   2.219   1.613
 6011TIP3   OH218038   2.022   4.815   1.148
 6011TIP3    H118039   1.930   4.837   1.133
 6011TIP3    H218040   2.039   4.742   1.089
 6012TIP3   OH218041   1.495   2.936   4.677
 6012TIP3    H118042   1.488   2.983   4.594
 6012TIP3    H218043   1.588   2.941   4.701
 6013TIP3   OH218044   2.350   3.739   2.896
 6013TIP3    H118045   2.286   3.790   2.947
 6013TIP3    H218046   2.429   3.739   2.950
 6014TIP3   OH218047   0.752   5.736   2.262
 6014TIP3    H118048   0.813   5.811   2.263
 6014TIP3    H218049   0.754   5.705   2.172
 6015TIP3   OH218050   5.886   5.312   0.382
 6015TIP3    H118051   5.951   5.245   0.361
 6015TIP3    H218052   5.923   5.393   0.346
 6016TIP3   OH218053   5.507   1.815   1.032
 6016TIP3    H118054   5.546   1.902   1.029
 6016TIP3    H218055   5.479   1.799   0.942
 6017TIP3   OH218056   4.154   3.528   3.774
 6017TIP3    H118057   4.077   3.491   3.731
 6017TIP3    H218058   4.163   3.478   3.855
 6018TIP3   OH218059   3.051   2.311   1.403
 6018TIP3    H118060   3.030   2.392   1.451
 6018TIP3    H218061   3.081   2.342   1.317
 6019TIP3   OH218062   6.212   4.486   0.527
 6019TIP3    H118063   6.306   4.496   0.514
 6019TIP3    H218064   6.191   4.402   0.488
 6020TIP3   OH218065   5.346   4.921   0.039
 6020TIP3    H118066   5.423   4.931  -0.017
 6020TIP3    H218067   5.364   4.977   0.114
 6021TIP3   OH218068   3.338   4.374   1.481
 6021TIP3    H118069   3.357   4.343   1.570
 6021TIP3    H218070   3.277   4.310   1.446
 6022TIP3   OH218071   0.938   0.412   1.032
 6022TIP3    H118072   0.929   0.381   1.122
 6022TIP3    H218073   1.028   0.446   1.027
 6023TIP3   OH218074   3.777   2.518   4.311
 6023TIP3    H118075   3.779   2.543   4.219
 6023TIP3    H218076   3.851   2.459   4.322
 6024TIP3   OH218077   4.806   5.949   0.933
 6024TIP3    H118078   4.799   6.045   0.935
 6024TIP3    H218079   4.768   5.924   0.849
 6025TIP3   OH218080   1.322   3.244   2.473
 6025TIP3    H118081   1.386   3.224   2.405
 6025TIP3    H218082   1.240   3.255   2.426
 6026TIP3   OH218083   4.828   4.245   1.354
 6026TIP3    H118084   4.855   4.207   1.438
 6026TIP3    H218085   4.824   4.339   1.370
 6027TIP3   OH218086   2.642   3.392   3.096
 6027TIP3    H118087   2.645   3.325   3.028
 6027TIP3    H218088   2.684   3.352   3.172
 6028TIP3   OH218089   0.384   3.357   3.013
 6028TIP3    H118090   0.394   3.452   3.001
 6028TIP3    H218091   0.390   3.321   2.925
 6029TIP3   OH218092   2.875   0.467   0.826
 6029TIP3    H118093   2.887   0.422   0.910
 6029TIP3    H218094   2.791   0.433   0.793
 6030TIP3   OH218095   1.220   4.224   1.190
 6030TIP3    H118096   1.264   4.152   1.146
 6030TIP3    H218097   1.169   4.183   1.259
 6031TIP3   OH218098   3.392   4.453   2.720
 6031TIP3    H118099   3.375   4.378   2.663
 6031TIP3    H218100   3.410   4.414   2.806
 6032TIP3   OH218101   2.668   3.822   3.613
 6032TIP3    H118102   2.677   3.915   3.591
 6032TIP3    H218103   2.723   3.777   3.549
 6033TIP3   OH218104   0.404   2.604   3.669
 6033TIP3    H118105   0.471   2.543   3.638
 6033TIP3    H218106   0.393   2.582   3.762
 6034TIP3   OH218107   0.839   0.888   4.337
 6034TIP3    H118108   0.932   0.892   4.358
 6034TIP3    H218109   0.818   0.795   4.332
 6035TIP3   OH218110   2.893   2.107   4.418
 6035TIP3    H118111   2.883   2.182   4.477
 6035TIP3    H218112   2.874   2.142   4.331
 6036TIP3   OH218113   2.463   2.368   3.410
 6036TIP3    H118114   2.520   2.430   3.364
 6036TIP3    H218115   2.398   2.343   3.345
 6037TIP3   OH218116   2.131   0.790   3.893
 6037TIP3    H118117   2.199   0.750   3.839
 6037TIP3    H218118   2.125   0.733   3.970
 6038TIP3   OH218119   6.105   2.156   1.698
 6038TIP3    H118120   6.044   2.217   1.657
 6038TIP3    H218121   6.190   2.199   1.690
 6039TIP3   OH218122   5.460   0.016   3.587
 6039TIP3    H118123   5.369  -0.009   3.573
 6039TIP3    H218124   5.467   0.025   3.682
 6040TIP3   OH218125   4.836  -0.048   0.809
 6040TIP3    H118126   4.775  -0.082   0.743
 6040TIP3    H218127   4.818   0.046   0.812
 6041TIP3   OH218128   0.186   2.428   0.193
 6041TIP3    H118129   0.180   2.445   0.099
 6041TIP3    H218130   0.273   2.389   0.204
 6042TIP3   OH218131   1.102   2.810   0.096
 6042TIP3    H118132   1.100   2.716   0.115
 6042TIP3    H218133   1.013   2.831   0.066
 6043TIP3   OH218134   3.993   3.880   1.951
 6043TIP3    H118135   4.081   3.865   1.985
 6043TIP3    H218136   3.959   3.953   2.002
 6044TIP3   OH218137   1.727   1.139   0.817
 6044TIP3    H118138   1.648   1.186   0.791
 6044TIP3    H218139   1.707   1.047   0.800
 6045TIP3   OH218140   1.146   2.035   5.000
 6045TIP3    H118141   1.197   2.080   4.932
 6045TIP3    H218142   1.110   2.105   5.054
 6046TIP3   OH218143   6.082   1.371   0.459
 6046TIP3    H118144   6.037   1.393   0.378
 6046TIP3    H218145   6.115   1.282   0.445
 6047TIP3   OH218146   3.550   1.973   3.394
 6047TIP3    H118147   3.493   1.927   3.456
 6047TIP3    H218148   3.494   2.039   3.354
 6048TIP3   OH218149   1.107   4.738   3.075
 6048TIP3    H118150   1.100   4.827   3.110
 6048TIP3    H218151   1.022   4.722   3.034
 6049TIP3   OH218152   0.046   3.529   3.814
 6049TIP3    H118153   0.117   3.495   3.760
 6049TIP3    H218154  -0.022   3.463   3.808
 6050TIP3   OH218155   1.751   2.672   2.299
 6050TIP3    H118156   1.770   2.645   2.389
 6050TIP3    H218157   1.836   2.670   2.255
 6051TIP3   OH218158   3.523   0.395   2.005
 6051TIP3    H118159   3.428   0.385   2.015
 6051TIP3    H218160   3.535   0.428   1.916
 6052TIP3   OH218161   1.490   3.608   2.550
 6052TIP3    H118162   1.437   3.557   2.611
 6052TIP3    H218163   1.562   3.642   2.603
 6053TIP3   OH218164   2.782   0.735   0.590
 6053TIP3    H118165   2.728   0.684   0.530
 6053TIP3    H218166   2.862   0.683   0.600
 6054TIP3   OH218167   2.131   3.710   2.266
 6054TIP3    H118168   2.206   3.729   2.209
 6054TIP3    H218169   2.114   3.793   2.311
 6055TIP3   OH218170   3.985   1.021   4.730
 6055TIP3    H118171   3.903   1.060   4.699
 6055TIP3    H218172   4.053   1.066   4.681
 6056TIP3   OH218173   5.383   0.369   1.962
 6056TIP3    H118174   5.464   0.385   2.012
 6056TIP3    H218175   5.390   0.277   1.935
 6057TIP3   OH218176   0.660   4.503   2.584
 6057TIP3    H118177   0.733   4.502   2.522
 6057TIP3    H218178   0.582   4.500   2.528
 6058TIP3   OH218179   2.251   4.874   4.331
 6058TIP3    H118180   2.238   4.887   4.425
 6058TIP3    H218181   2.341   4.904   4.315
 6059TIP3   OH218182   5.583   5.962   4.359
 6059TIP3    H118183   5.503   5.912   4.344
 6059TIP3    H218184   5.569   6.043   4.311
 6060TIP3   OH218185   1.045   5.836   3.353
 6060TIP3    H118186   1.017   5.925   3.330
 6060TIP3    H218187   1.120   5.849   3.410
 6061TIP3   OH218188   4.530   0.144   1.698
 6061TIP3    H118189   4.473   0.212   1.663
 6061TIP3    H218190   4.559   0.094   1.622
 6062TIP3   OH218191   4.292   5.102   2.515
 6062TIP3    H118192   4.342   5.094   2.596
 6062TIP3    H218193   4.233   5.027   2.516
 6063TIP3   OH218194   4.505   3.176   2.281
 6063TIP3    H118195   4.461   3.102   2.324
 6063TIP3    H218196   4.598   3.160   2.295
 6064TIP3   OH218197   3.448   2.712   0.002
 6064TIP3    H118198   3.361   2.673   0.014
 6064TIP3    H218199   3.434   2.806   0.013
 6065TIP3   OH218200   2.330   2.707   1.106
 6065TIP3    H118201   2.235   2.721   1.110
 6065TIP3    H218202   2.362   2.735   1.192
 6066TIP3   OH218203   0.715   1.834   2.533
 6066TIP3    H118204   0.648   1.868   2.474
 6066TIP3    H218205   0.792   1.822   2.477
 6067TIP3   OH218206   1.865   5.357   0.637
 6067TIP3    H118207   1.935   5.389   0.580
 6067TIP3    H218208   1.867   5.415   0.713
 6068TIP3   OH218209   5.114   4.899   3.062
 6068TIP3    H118210   5.085   4.808   3.062
 6068TIP3    H218211   5.164   4.908   2.981
 6069TIP3   OH218212   4.226   2.243   5.058
 6069TIP3    H118213   4.201   2.170   5.002
 6069TIP3    H218214   4.150   2.301   5.059
 6070TIP3   OH218215   1.523   0.638   1.171
 6070TIP3    H118216   1.508   0.728   1.199
 6070TIP3    H218217   1.602   0.611   1.218
 6071TIP3   OH218218   2.316   1.880   3.938
 6071TIP3    H118219   2.363   1.840   3.865
 6071TIP3    H218220   2.259   1.945   3.897
 6072TIP3   OH218221   1.039   3.235   4.345
 6072TIP3    H118222   0.962   3.283   4.374
 6072TIP3    H218223   1.010   3.187   4.267
 6073TIP3   OH218224   4.608   0.585   1.735
 6073TIP3    H118225   4.665   0.609   1.808
 6073TIP3    H218226   4.664   0.593   1.657
 6074TIP3   OH218227   0.854   3.898   1.737
 6074TIP3    H118228   0.785   3.946   1.783
 6074TIP3    H218229   0.930   3.905   1.793
 6075TIP3   OH218230   3.001   2.724   4.286
 6075TIP3    H118231   2.934   2.663   4.318
 6075TIP3    H218232   2.970   2.810   4.314
 6076TIP3   OH218233   0.337   2.500   1.717
 6076TIP3    H118234   0.278   2.571   1.743
 6076TIP3    H218235   0.363   2.522   1.628
 6077TIP3   OH218236   5.738   0.116   1.187
 6077TIP3    H118237   5.791   0.038   1.203
 6077TIP3    H218238   5.802   0.186   1.173
 6078TIP3   OH218239   0.606   3.934   1.587
 6078TIP3    H118240   0.566   4.018   1.568
 6078TIP3    H218241   0.672   3.953   1.654
 6079TIP3   OH218242   0.974   4.418   3.393
 6079TIP3    H118243   1.026   4.496   3.375
 6079TIP3    H218244   0.982   4.405   3.487
 6080TIP3   OH218245   4.925   3.025   2.052
 6080TIP3    H118246   5.018   3.043   2.071
 6080TIP3    H218247   4.927   2.948   1.994
 6081TIP3   OH218248   1.872   2.394   0.740
 6081TIP3    H118249   1.813   2.326   0.774
 6081TIP3    H218250   1.955   2.378   0.785
 6082TIP3   OH218251   2.524   0.753   2.548
 6082TIP3    H118252   2.487   0.690   2.486
 6082TIP3    H218253   2.463   0.827   2.547
 6083TIP3   OH218254   0.730   0.615   4.653
 6083TIP3    H118255   0.791   0.616   4.728
 6083TIP3    H218256   0.784   0.586   4.579
 6084TIP3   OH218257   1.714   2.377   3.521
 6084TIP3    H118258   1.773   2.346   3.589
 6084TIP3    H218259   1.753   2.459   3.491
 6085TIP3   OH218260   2.794   5.412   1.599
 6085TIP3    H118261   2.843   5.408   1.517
 6085TIP3    H218262   2.758   5.501   1.601
 6086TIP3   OH218263   3.829   3.680   4.399
 6086TIP3    H118264   3.900   3.669   4.335
 6086TIP3    H218265   3.863   3.744   4.462
 6087TIP3   OH218266   1.944   4.053   1.652
 6087TIP3    H118267   1.879   4.031   1.718
 6087TIP3    H218268   1.912   4.133   1.611
 6088TIP3   OH218269   2.690   0.624   1.305
 6088TIP3    H118270   2.741   0.648   1.383
 6088TIP3    H218271   2.633   0.699   1.290
 6089TIP3   OH218272   5.878   5.994   3.773
 6089TIP3    H118273   5.882   6.059   3.703
 6089TIP3    H218274   5.805   6.023   3.828
 6090TIP3   OH218275   1.907   3.682   4.359
 6090TIP3    H118276   1.905   3.657   4.266
 6090TIP3    H218277   1.935   3.773   4.359
 6091TIP3   OH218278   5.762   2.279   1.378
 6091TIP3    H118279   5.675   2.317   1.366
 6091TIP3    H218280   5.755   2.228   1.459
 6092TIP3   OH218281   3.128   0.979   2.250
 6092TIP3    H118282   3.058   1.044   2.244
 6092TIP3    H218283   3.179   1.006   2.326
 6093TIP3   OH218284   3.014   5.205   2.631
 6093TIP3    H118285   3.030   5.183   2.539
 6093TIP3    H218286   3.014   5.121   2.676
 6094TIP3   OH218287   2.603   1.752   1.586
 6094TIP3    H118288   2.536   1.688   1.611
 6094TIP3    H218289   2.667   1.748   1.656
 6095TIP3   OH218290   1.357   1.448   2.642
 6095TIP3    H118291   1.311   1.521   2.600
 6095TIP3    H218292   1.404   1.405   2.571
 6096TIP3   OH218293   4.674   4.180   0.686
 6096TIP3    H118294   4.636   4.093   0.683
 6096TIP3    H218295   4.624   4.226   0.753
 6097TIP3   OH218296   3.276   5.016   3.652
 6097TIP3    H118297   3.318   5.027   3.738
 6097TIP3    H218298   3.249   5.105   3.628
 6098TIP3   OH218299   6.091   0.444   1.292
 6098TIP3    H118300   6.126   0.378   1.352
 6098TIP3    H218301   6.167   0.474   1.242
 6099TIP3   OH218302   4.032   3.327   4.215
 6099TIP3    H118303   4.066   3.385   4.284
 6099TIP3    H218304   4.054   3.239   4.245
 6100TIP3   OH218305   3.223   1.078   1.017
 6100TIP3    H118306   3.218   1.034   1.101
 6100TIP3    H218307   3.296   1.140   1.027
 6101TIP3   OH218308   1.229   4.765   4.328
 6101TIP3    H118309   1.202   4.687   4.279
 6101TIP3    H218310   1.284   4.731   4.398
 6102TIP3   OH218311   3.914   0.877   1.797
 6102TIP3    H118312   3.879   0.899   1.710
 6102TIP3    H218313   3.861   0.803   1.826
 6103TIP3   OH218314   3.122   1.761   4.222
 6103TIP3    H118315   3.135   1.841   4.272
 6103TIP3    H218316   3.070   1.787   4.147
 6104TIP3   OH218317   2.160   3.199   0.212
 6104TIP3    H118318   2.076   3.187   0.167
 6104TIP3    H218319   2.213   3.249   0.151
 6105TIP3   OH218320   0.035   0.744   3.764
 6105TIP3    H118321   0.102   0.722   3.829
 6105TIP3    H218322  -0.042   0.765   3.816
 6106TIP3   OH218323   4.873   2.562   3.172
 6106TIP3    H118324   4.807   2.507   3.214
 6106TIP3    H218325   4.867   2.540   3.079
 6107TIP3   OH218326   3.346   0.843   3.261
 6107TIP3    H118327   3.402   0.907   3.304
 6107TIP3    H218328   3.311   0.889   3.185
 6108TIP3   OH218329   2.614   3.286   4.477
 6108TIP3    H118330   2.690   3.334   4.510
 6108TIP3    H218331   2.569   3.255   4.556
 6109TIP3   OH218332   1.048   0.202   2.222
 6109TIP3    H118333   1.066   0.109   2.236
 6109TIP3    H218334   1.010   0.232   2.305
 6110TIP3   OH218335   3.008   0.464   3.508
 6110TIP3    H118336   2.938   0.481   3.445
 6110TIP3    H218337   2.970   0.402   3.570
 6111TIP3   OH218338   0.187   1.327   2.713
 6111TIP3    H118339   0.232   1.288   2.788
 6111TIP3    H218340   0.118   1.264   2.691
 6112TIP3   OH218341   5.899   5.221   3.012
 6112TIP3    H118342   5.926   5.304   2.974
 6112TIP3    H218343   5.813   5.203   2.973
 6113TIP3   OH218344   4.479   4.969   3.939
 6113TIP3    H118345   4.542   4.906   3.904
 6113TIP3    H218346   4.409   4.916   3.976
 6114TIP3   OH218347   2.909   0.938   5.035
 6114TIP3    H118348   2.870   1.024   5.049
 6114TIP3    H218349   2.862   0.902   4.960
 6115TIP3   OH218350   0.985   1.992   3.695
 6115TIP3    H118351   0.986   2.050   3.772
 6115TIP3    H218352   1.064   2.016   3.646
 6116TIP3   OH218353   6.011   5.033   3.146
 6116TIP3    H118354   5.955   4.959   3.121
 6116TIP3    H218355   5.965   5.110   3.116
 6117TIP3   OH218356   0.892   1.764   3.862
 6117TIP3    H118357   0.923   1.812   3.786
 6117TIP3    H218358   0.885   1.673   3.833
 6118TIP3   OH218359   3.766   4.075   0.266
 6118TIP3    H118360   3.743   4.128   0.189
 6118TIP3    H218361   3.758   4.136   0.339
 6119TIP3   OH218362   5.887   0.883   3.424
 6119TIP3    H118363   5.855   0.860   3.511
 6119TIP3    H218364   5.829   0.952   3.394
 6120TIP3   OH218365   4.059   0.872   2.042
 6120TIP3    H118366   4.028   0.875   1.952
 6120TIP3    H218367   4.032   0.785   2.074
 6121TIP3   OH218368   3.790   2.484   1.458
 6121TIP3    H118369   3.783   2.577   1.436
 6121TIP3    H218370   3.812   2.441   1.376
 6122TIP3   OH218371   5.429   3.015   0.936
 6122TIP3    H118372   5.464   2.955   1.002
 6122TIP3    H218373   5.375   2.960   0.879
 6123TIP3   OH218374   1.555   2.190   3.745
 6123TIP3    H118375   1.527   2.225   3.829
 6123TIP3    H218376   1.645   2.221   3.734
 6124TIP3   OH218377   3.633   1.899   0.574
 6124TIP3    H118378   3.567   1.865   0.513
 6124TIP3    H218379   3.669   1.821   0.616
 6125TIP3   OH218380   4.170   1.839   2.509
 6125TIP3    H118381   4.169   1.753   2.550
 6125TIP3    H218382   4.091   1.882   2.541
 6126TIP3   OH218383   5.301   0.198   4.893
 6126TIP3    H118384   5.395   0.216   4.903
 6126TIP3    H218385   5.296   0.102   4.885
 6127TIP3   OH218386   1.900   5.215   3.213
 6127TIP3    H118387   1.887   5.120   3.208
 6127TIP3    H218388   1.878   5.238   3.303
 6128TIP3   OH218389   3.096   5.564   3.269
 6128TIP3    H118390   3.086   5.656   3.294
 6128TIP3    H218391   3.186   5.556   3.241
 6129TIP3   OH218392   6.222   3.817   3.412
 6129TIP3    H118393   6.222   3.911   3.431
 6129TIP3    H218394   6.310   3.799   3.380
 6130TIP3   OH218395   1.966   5.292   2.119
 6130TIP3    H118396   1.946   5.202   2.148
 6130TIP3    H218397   2.055   5.285   2.084
 6131TIP3   OH218398   2.307   2.470   1.912
 6131TIP3    H118399   2.212   2.461   1.902
 6131TIP3    H218400   2.317   2.515   1.996
 6132TIP3   OH218401   4.627   1.629   1.006
 6132TIP3    H118402   4.649   1.542   0.971
 6132TIP3    H218403   4.661   1.690   0.941
 6133TIP3   OH218404   2.811   4.972   2.186
 6133TIP3    H118405   2.836   4.994   2.097
 6133TIP3    H218406   2.727   5.017   2.200
 6134TIP3   OH218407   1.129   5.797   0.551
 6134TIP3    H118408   1.176   5.821   0.631
 6134TIP3    H218409   1.175   5.719   0.519
 6135TIP3   OH218410   1.240   2.677   2.167
 6135TIP3    H118411   1.162   2.669   2.223
 6135TIP3    H218412   1.312   2.694   2.229
 6136TIP3   OH218413   5.552   0.275   3.580
 6136TIP3    H118414   5.571   0.205   3.517
 6136TIP3    H218415   5.543   0.229   3.664
 6137TIP3   OH218416   1.344   5.802   0.816
 6137TIP3    H118417   1.290   5.734   0.855
 6137TIP3    H218418   1.288   5.880   0.816
 6138TIP3   OH218419   2.569   5.025   2.377
 6138TIP3    H118420   2.525   5.043   2.293
 6138TIP3    H218421   2.599   4.934   2.369
 6139TIP3   OH218422   0.551   0.380   0.303
 6139TIP3    H118423   0.623   0.322   0.330
 6139TIP3    H218424   0.584   0.423   0.224
 6140TIP3   OH218425   6.355   5.870   3.251
 6140TIP3    H118426   6.288   5.933   3.223
 6140TIP3    H218427   6.308   5.808   3.306
 6141TIP3   OH218428   5.080   0.463   0.281
 6141TIP3    H118429   4.994   0.447   0.242
 6141TIP3    H218430   5.142   0.441   0.212
 6142TIP3   OH218431   6.374   1.190   2.035
 6142TIP3    H118432   6.291   1.191   2.082
 6142TIP3    H218433   6.440   1.181   2.103
 6143TIP3   OH218434   2.323   4.837   4.657
 6143TIP3    H118435   2.340   4.743   4.653
 6143TIP3    H218436   2.392   4.871   4.714
 6144TIP3   OH218437   5.958   2.689   1.731
 6144TIP3    H118438   5.970   2.764   1.789
 6144TIP3    H218439   5.992   2.614   1.780
 6145TIP3   OH218440   5.735   2.507   3.548
 6145TIP3    H118441   5.807   2.542   3.496
 6145TIP3    H218442   5.733   2.562   3.627
 6146TIP3   OH218443   5.251   4.714   0.899
 6146TIP3    H118444   5.274   4.804   0.924
 6146TIP3    H218445   5.327   4.662   0.925
 6147TIP3   OH218446   4.139   1.509   2.896
 6147TIP3    H118447   4.153   1.423   2.935
 6147TIP3    H218448   4.166   1.571   2.964
 6148TIP3   OH218449   0.345   4.766   4.682
 6148TIP3    H118450   0.339   4.747   4.588
 6148TIP3    H218451   0.258   4.797   4.706
 6149TIP3   OH218452   3.602   5.623   1.792
 6149TIP3    H118453   3.680   5.568   1.790
 6149TIP3    H218454   3.635   5.713   1.786
 6150TIP3   OH218455   0.195   3.483   0.108
 6150TIP3    H118456   0.125   3.510   0.167
 6150TIP3    H218457   0.197   3.550   0.040
 6151TIP3   OH218458   6.333   2.576   2.977
 6151TIP3    H118459   6.382   2.525   3.041
 6151TIP3    H218460   6.254   2.604   3.023
 6152TIP3   OH218461   2.120   2.824   3.745
 6152TIP3    H118462   2.070   2.902   3.769
 6152TIP3    H218463   2.199   2.858   3.704
 6153TIP3   OH218464   0.764   5.165  -0.027
 6153TIP3    H118465   0.779   5.229   0.042
 6153TIP3    H218466   0.677   5.129  -0.009
 6154TIP3   OH218467   1.807   2.080   2.508
 6154TIP3    H118468   1.802   1.995   2.465
 6154TIP3    H218469   1.717   2.112   2.509
 6155TIP3   OH218470   2.394   4.119   1.511
 6155TIP3    H118471   2.448   4.197   1.523
 6155TIP3    H218472   2.347   4.108   1.594
 6156TIP3   OH218473   1.110   3.582   2.308
 6156TIP3    H118474   1.061   3.611   2.385
 6156TIP3    H218475   1.192   3.632   2.312
 6157TIP3   OH218476   2.267   4.328   1.839
 6157TIP3    H118477   2.281   4.238   1.868
 6157TIP3    H218478   2.239   4.320   1.748
 6158TIP3   OH218479   5.626   4.623   0.339
 6158TIP3    H118480   5.701   4.645   0.282
 6158TIP3    H218481   5.552   4.615   0.278
 6159TIP3   OH218482   3.783   1.165   3.254
 6159TIP3    H118483   3.701   1.124   3.226
 6159TIP3    H218484   3.772   1.258   3.234
 6160TIP3   OH218485   5.595   0.589   2.932
 6160TIP3    H118486   5.609   0.504   2.973
 6160TIP3    H218487   5.507   0.615   2.958
 6161TIP3   OH218488   5.581   5.954   2.674
 6161TIP3    H118489   5.577   5.967   2.580
 6161TIP3    H218490   5.507   5.896   2.694
 6162TIP3   OH218491   2.404   5.438   2.443
 6162TIP3    H118492   2.388   5.352   2.403
 6162TIP3    H218493   2.362   5.500   2.383
 6163TIP3   OH218494   4.518   2.124   1.555
 6163TIP3    H118495   4.452   2.190   1.577
 6163TIP3    H218496   4.590   2.141   1.617
 6164TIP3   OH218497   0.287   5.311   1.648
 6164TIP3    H118498   0.265   5.268   1.565
 6164TIP3    H218499   0.207   5.358   1.672
 6165TIP3   OH218500   1.921   4.264   1.845
 6165TIP3    H118501   1.991   4.203   1.820
 6165TIP3    H218502   1.956   4.311   1.920
 6166TIP3   OH218503   4.670   5.279   0.868
 6166TIP3    H118504   4.671   5.278   0.773
 6166TIP3    H218505   4.592   5.328   0.891
 6167TIP3   OH218506   3.311   3.016   3.550
 6167TIP3    H118507   3.341   3.096   3.506
 6167TIP3    H218508   3.325   2.947   3.485
 6168TIP3   OH218509   1.651   0.231   4.545
 6168TIP3    H118510   1.700   0.226   4.463
 6168TIP3    H218511   1.714   0.204   4.612
 6169TIP3   OH218512   2.409   2.802   3.993
 6169TIP3    H118513   2.373   2.891   3.991
 6169TIP3    H218514   2.437   2.789   4.083
 6170TIP3   OH218515   0.749   0.558   2.872
 6170TIP3    H118516   0.783   0.477   2.835
 6170TIP3    H218517   0.802   0.627   2.832
 6171TIP3   OH218518   1.499   5.864   4.486
 6171TIP3    H118519   1.508   5.894   4.396
 6171TIP3    H218520   1.453   5.935   4.531
 6172TIP3   OH218521   0.283   0.271   4.116
 6172TIP3    H118522   0.271   0.205   4.047
 6172TIP3    H218523   0.224   0.242   4.186
 6173TIP3   OH218524   4.527   1.161   2.399
 6173TIP3    H118525   4.515   1.133   2.308
 6173TIP3    H218526   4.454   1.220   2.416
 6174TIP3   OH218527   1.351   0.912   0.667
 6174TIP3    H118528   1.308   0.923   0.752
 6174TIP3    H218529   1.302   0.842   0.624
 6175TIP3   OH218530   4.016   1.335   0.640
 6175TIP3    H118531   3.987   1.409   0.693
 6175TIP3    H218532   3.942   1.317   0.582
 6176TIP3   OH218533   4.053   0.976   3.575
 6176TIP3    H118534   4.049   0.975   3.479
 6176TIP3    H218535   4.126   1.035   3.595
 6177TIP3   OH218536   5.388   2.975   2.368
 6177TIP3    H118537   5.322   2.972   2.437
 6177TIP3    H218538   5.469   2.945   2.410
 6178TIP3   OH218539   5.388   1.750   1.271
 6178TIP3    H118540   5.432   1.665   1.266
 6178TIP3    H218541   5.413   1.796   1.191
 6179TIP3   OH218542   4.104   5.601   4.526
 6179TIP3    H118543   4.177   5.605   4.587
 6179TIP3    H218544   4.033   5.560   4.575
 6180TIP3   OH218545   6.326   1.520   5.048
 6180TIP3    H118546   6.407   1.475   5.073
 6180TIP3    H218547   6.349   1.569   4.969
 6181TIP3   OH218548   4.386   4.877   1.118
 6181TIP3    H118549   4.441   4.928   1.058
 6181TIP3    H218550   4.311   4.934   1.135
 6182TIP3   OH218551   2.497   2.899   1.840
 6182TIP3    H118552   2.508   2.884   1.933
 6182TIP3    H218553   2.477   2.813   1.803
 6183TIP3   OH218554   5.312   3.913   4.867
 6183TIP3    H118555   5.222   3.883   4.859
 6183TIP3    H218556   5.366   3.837   4.844
 6184TIP3   OH218557   4.010   2.874   4.692
 6184TIP3    H118558   3.970   2.793   4.662
 6184TIP3    H218559   4.103   2.864   4.673
 6185TIP3   OH218560   0.574   4.875   3.786
 6185TIP3    H118561   0.646   4.818   3.813
 6185TIP3    H218562   0.573   4.870   3.691
 6186TIP3   OH218563   3.216   5.992   0.060
 6186TIP3    H118564   3.199   5.903   0.031
 6186TIP3    H218565   3.130   6.024   0.090
 6187TIP3   OH218566   3.016   3.144   2.321
 6187TIP3    H118567   2.981   3.188   2.398
 6187TIP3    H218568   2.943   3.138   2.260
 6188TIP3   OH218569   5.921   1.369   2.804
 6188TIP3    H118570   5.874   1.343   2.883
 6188TIP3    H218571   5.898   1.302   2.739
 6189TIP3   OH218572   3.582   2.276   0.986
 6189TIP3    H118573   3.611   2.208   1.047
 6189TIP3    H218574   3.558   2.350   1.042
 6190TIP3   OH218575   3.446   5.887   1.252
 6190TIP3    H118576   3.364   5.906   1.296
 6190TIP3    H218577   3.477   5.972   1.221
 6191TIP3   OH218578   2.039   2.314   1.306
 6191TIP3    H118579   2.007   2.300   1.218
 6191TIP3    H218580   1.989   2.253   1.360
 6192TIP3   OH218581   0.311   3.567   0.398
 6192TIP3    H118582   0.375   3.496   0.394
 6192TIP3    H218583   0.233   3.532   0.355
 6193TIP3   OH218584   1.977   3.744   0.781
 6193TIP3    H118585   1.981   3.649   0.778
 6193TIP3    H218586   2.054   3.769   0.832
 6194TIP3   OH218587   3.412   3.668   3.334
 6194TIP3    H118588   3.345   3.656   3.402
 6194TIP3    H218589   3.395   3.755   3.298
 6195TIP3   OH218590   1.865   4.269   0.302
 6195TIP3    H118591   1.771   4.282   0.292
 6195TIP3    H218592   1.903   4.354   0.282
 6196TIP3   OH218593   1.275   1.648   1.723
 6196TIP3    H118594   1.337   1.685   1.660
 6196TIP3    H218595   1.327   1.635   1.803
 6197TIP3   OH218596   3.555   3.547   4.313
 6197TIP3    H118597   3.635   3.558   4.365
 6197TIP3    H218598   3.484   3.573   4.371
 6198TIP3   OH218599   4.747   4.240   1.076
 6198TIP3    H118600   4.690   4.313   1.101
 6198TIP3    H218601   4.796   4.220   1.156
 6199TIP3   OH218602   0.784   0.610   0.513
 6199TIP3    H118603   0.746   0.523   0.526
 6199TIP3    H218604   0.719   0.656   0.460
 6200TIP3   OH218605   6.188   3.421   3.583
 6200TIP3    H118606   6.140   3.369   3.519
 6200TIP3    H218607   6.215   3.358   3.650
 6201TIP3   OH218608   2.109   5.886   1.529
 6201TIP3    H118609   2.091   5.838   1.610
 6201TIP3    H218610   2.205   5.886   1.522
 6202TIP3   OH218611   4.422   2.334   3.948
 6202TIP3    H118612   4.343   2.305   3.993
 6202TIP3    H218613   4.399   2.331   3.855
 6203TIP3   OH218614   3.062   0.053   4.848
 6203TIP3    H118615   3.077   0.093   4.934
 6203TIP3    H218616   3.028  -0.034   4.867
 6204TIP3   OH218617   4.646   1.070   0.772
 6204TIP3    H118618   4.595   1.068   0.853
 6204TIP3    H218619   4.657   0.978   0.749
 6205TIP3   OH218620   0.416   4.637   4.056
 6205TIP3    H118621   0.425   4.725   4.093
 6205TIP3    H218622   0.322   4.618   4.063
 6206TIP3   OH218623   1.598   4.261   0.259
 6206TIP3    H118624   1.526   4.324   0.257
 6206TIP3    H218625   1.557   4.176   0.242
 6207TIP3   OH218626   5.964   0.060   1.532
 6207TIP3    H118627   6.028   0.087   1.597
 6207TIP3    H218628   6.010   0.064   1.448
 6208TIP3   OH218629   4.937   4.069   0.107
 6208TIP3    H118630   5.031   4.086   0.113
 6208TIP3    H218631   4.931   3.975   0.092
 6209TIP3   OH218632   3.406   3.899   2.830
 6209TIP3    H118633   3.421   3.972   2.890
 6209TIP3    H218634   3.490   3.854   2.826
 6210TIP3   OH218635   4.526   3.102   1.965
 6210TIP3    H118636   4.459   3.153   2.010
 6210TIP3    H218637   4.604   3.158   1.966
 6211TIP3   OH218638   1.399   2.927   4.964
 6211TIP3    H118639   1.439   2.944   4.879
 6211TIP3    H218640   1.310   2.961   4.957
 6212TIP3   OH218641   5.563   4.932   4.459
 6212TIP3    H118642   5.524   5.014   4.489
 6212TIP3    H218643   5.626   4.909   4.527
 6213TIP3   OH218644   6.128   5.421   3.220
 6213TIP3    H118645   6.178   5.374   3.287
 6213TIP3    H218646   6.061   5.358   3.192
 6214TIP3   OH218647   3.247   5.748   3.703
 6214TIP3    H118648   3.170   5.804   3.706
 6214TIP3    H218649   3.311   5.792   3.758
 6215TIP3   OH218650   5.407   2.563   3.027
 6215TIP3    H118651   5.379   2.473   3.045
 6215TIP3    H218652   5.342   2.597   2.965
 6216TIP3   OH218653   2.290   5.556   3.393
 6216TIP3    H118654   2.197   5.579   3.390
 6216TIP3    H218655   2.311   5.530   3.303
 6217TIP3   OH218656   4.749   2.027   4.934
 6217TIP3    H118657   4.761   2.045   5.027
 6217TIP3    H218658   4.662   2.063   4.914
 6218TIP3   OH218659   0.155   2.389   3.126
 6218TIP3    H118660   0.225   2.363   3.065
 6218TIP3    H218661   0.200   2.438   3.195
 6219TIP3   OH218662   1.147   0.562   0.944
 6219TIP3    H118663   1.154   0.562   0.848
 6219TIP3    H218664   1.182   0.647   0.970
 6220TIP3   OH218665   5.972   4.434   2.163
 6220TIP3    H118666   5.952   4.391   2.246
 6220TIP3    H218667   5.960   4.527   2.180
 6221TIP3   OH218668   1.260   1.537   0.503
 6221TIP3    H118669   1.166   1.555   0.506
 6221TIP3    H218670   1.293   1.566   0.588
 6222TIP3   OH218671   6.155   0.294   1.529
 6222TIP3    H118672   6.122   0.347   1.601
 6222TIP3    H218673   6.240   0.332   1.507
 6223TIP3   OH218674   1.440   0.039   4.030
 6223TIP3    H118675   1.361   0.081   3.997
 6223TIP3    H218676   1.485   0.107   4.080
 6224TIP3   OH218677   5.722   3.950   3.354
 6224TIP3    H118678   5.795   3.946   3.416
 6224TIP3    H218679   5.745   3.884   3.287
 6225TIP3   OH218680   2.230   5.961   4.194
 6225TIP3    H118681   2.325   5.962   4.180
 6225TIP3    H218682   2.219   5.963   4.289
 6226TIP3   OH218683   3.364   3.013   1.498
 6226TIP3    H118684   3.411   3.091   1.467
 6226TIP3    H218685   3.340   3.034   1.588
 6227TIP3   OH218686   2.068   5.138   4.827
 6227TIP3    H118687   2.049   5.050   4.796
 6227TIP3    H218688   1.984   5.184   4.825
 6228TIP3   OH218689   5.360   4.909   1.633
 6228TIP3    H118690   5.433   4.965   1.609
 6228TIP3    H218691   5.394   4.820   1.629
 6229TIP3   OH218692   4.070   0.721   4.059
 6229TIP3    H118693   4.075   0.677   3.974
 6229TIP3    H218694   4.145   0.780   4.059
 6230TIP3   OH218695   4.779   1.636   3.821
 6230TIP3    H118696   4.745   1.712   3.869
 6230TIP3    H218697   4.791   1.668   3.731
 6231TIP3   OH218698   2.653   4.059   0.874
 6231TIP3    H118699   2.726   4.117   0.897
 6231TIP3    H218700   2.627   4.086   0.786
 6232TIP3   OH218701   0.797   5.433   1.930
 6232TIP3    H118702   0.711   5.394   1.915
 6232TIP3    H218703   0.781   5.528   1.932
 6233TIP3   OH218704   5.237   5.720   2.227
 6233TIP3    H118705   5.215   5.634   2.192
 6233TIP3    H218706   5.288   5.762   2.157
 6234TIP3   OH218707   2.850   2.399   3.413
 6234TIP3    H118708   2.942   2.378   3.398
 6234TIP3    H218709   2.848   2.492   3.432
 6235TIP3   OH218710   3.438   2.715   0.350
 6235TIP3    H118711   3.471   2.651   0.413
 6235TIP3    H218712   3.346   2.726   0.373
 6236TIP3   OH218713   3.118   1.783   0.808
 6236TIP3    H118714   3.061   1.859   0.794
 6236TIP3    H218715   3.176   1.810   0.879
 6237TIP3   OH218716   0.926   2.362   1.846
 6237TIP3    H118717   0.840   2.345   1.884
 6237TIP3    H218718   0.910   2.364   1.751
 6238TIP3   OH218719   0.646   4.800   0.134
 6238TIP3    H118720   0.652   4.726   0.074
 6238TIP3    H218721   0.732   4.803   0.176
 6239TIP3   OH218722   2.321   2.774   2.593
 6239TIP3    H118723   2.359   2.731   2.517
 6239TIP3    H218724   2.247   2.719   2.618
 6240TIP3   OH218725   4.247   4.450   1.034
 6240TIP3    H118726   4.283   4.503   1.105
 6240TIP3    H218727   4.323   4.425   0.981
 6241TIP3   OH218728   2.391   3.605   0.190
 6241TIP3    H118729   2.394   3.604   0.094
 6241TIP3    H218730   2.403   3.514   0.216
 6242TIP3   OH218731   1.007   4.446   1.193
 6242TIP3    H118732   1.082   4.388   1.185
 6242TIP3    H218733   0.965   4.443   1.107
 6243TIP3   OH218734   5.416   1.732   4.021
 6243TIP3    H118735   5.374   1.699   3.942
 6243TIP3    H218736   5.351   1.722   4.090
 6244TIP3   OH218737   4.340   2.041   3.196
 6244TIP3    H118738   4.250   2.072   3.190
 6244TIP3    H218739   4.372   2.044   3.105
 6245TIP3   OH218740   3.503   1.208   2.305
 6245TIP3    H118741   3.553   1.255   2.239
 6245TIP3    H218742   3.426   1.263   2.321
 6246TIP3   OH218743   3.422   3.329   4.678
 6246TIP3    H118744   3.350   3.347   4.617
 6246TIP3    H218745   3.466   3.253   4.641
 6247TIP3   OH218746   1.093   5.593   1.826
 6247TIP3    H118747   1.107   5.516   1.770
 6247TIP3    H218748   1.055   5.659   1.768
 6248TIP3   OH218749   0.723   2.526   0.995
 6248TIP3    H118750   0.660   2.525   0.922
 6248TIP3    H218751   0.783   2.597   0.974
 6249TIP3   OH218752   0.871   2.281   3.531
 6249TIP3    H118753   0.926   2.220   3.483
 6249TIP3    H218754   0.926   2.358   3.544
 6250TIP3   OH218755   1.875   4.321   2.968
 6250TIP3    H118756   1.803   4.348   3.024
 6250TIP3    H218757   1.938   4.279   3.027
 6251TIP3   OH218758   2.534   0.505   4.822
 6251TIP3    H118759   2.537   0.538   4.732
 6251TIP3    H218760   2.460   0.551   4.862
 6252TIP3   OH218761   2.854   1.374   3.849
 6252TIP3    H118762   2.895   1.301   3.803
 6252TIP3    H218763   2.766   1.381   3.811
 6253TIP3   OH218764   6.204   5.700   4.599
 6253TIP3    H118765   6.293   5.687   4.567
 6253TIP3    H218766   6.209   5.780   4.653
 6254TIP3   OH218767   3.805   1.657   3.643
 6254TIP3    H118768   3.720   1.623   3.671
 6254TIP3    H218769   3.856   1.664   3.724
 6255TIP3   OH218770   6.233   5.720   2.484
 6255TIP3    H118771   6.204   5.803   2.522
 6255TIP3    H218772   6.155   5.666   2.482
 6256TIP3   OH218773   4.850   0.481   2.945
 6256TIP3    H118774   4.932   0.432   2.951
 6256TIP3    H218775   4.867   0.548   2.880
 6257TIP3   OH218776   1.860   3.201   0.105
 6257TIP3    H118777   1.766   3.184   0.103
 6257TIP3    H218778   1.892   3.168   0.021
 6258TIP3   OH218779   1.590   3.390   1.782
 6258TIP3    H118780   1.520   3.404   1.846
 6258TIP3    H218781   1.661   3.447   1.811
 6259TIP3   OH218782   4.106   2.804   4.384
 6259TIP3    H118783   4.199   2.827   4.384
 6259TIP3    H218784   4.097   2.739   4.315
 6260TIP3   OH218785   3.554   4.566   1.339
 6260TIP3    H118786   3.528   4.531   1.254
 6260TIP3    H218787   3.506   4.513   1.403
 6261TIP3   OH218788   0.740   4.132   4.976
 6261TIP3    H118789   0.689   4.115   4.897
 6261TIP3    H218790   0.680   4.179   5.034
 6262TIP3   OH218791   6.253   4.086   1.556
 6262TIP3    H118792   6.271   4.094   1.649
 6262TIP3    H218793   6.216   4.170   1.531
 6263TIP3   OH218794   5.103   2.503   0.206
 6263TIP3    H118795   5.168   2.570   0.184
 6263TIP3    H218796   5.153   2.435   0.251
 6264TIP3   OH218797   3.682   3.745   4.652
 6264TIP3    H118798   3.668   3.658   4.616
 6264TIP3    H218799   3.772   3.744   4.683
 6265TIP3   OH218800   3.282   0.805   4.935
 6265TIP3    H118801   3.361   0.854   4.959
 6265TIP3    H218802   3.250   0.769   5.017
 6266TIP3   OH218803   4.452   2.808   0.654
 6266TIP3    H118804   4.454   2.851   0.568
 6266TIP3    H218805   4.363   2.822   0.686
 6267TIP3   OH218806   6.294   3.765   0.323
 6267TIP3    H118807   6.269   3.791   0.234
 6267TIP3    H218808   6.211   3.748   0.367
 6268TIP3   OH218809   4.496   0.018   1.474
 6268TIP3    H118810   4.553  -0.016   1.405
 6268TIP3    H218811   4.411   0.031   1.432
 6269TIP3   OH218812   3.344   4.452   4.512
 6269TIP3    H118813   3.296   4.409   4.441
 6269TIP3    H218814   3.383   4.530   4.470
 6270TIP3   OH218815   2.562   5.815   1.048
 6270TIP3    H118816   2.599   5.767   0.974
 6270TIP3    H218817   2.627   5.882   1.068
 6271TIP3   OH218818   1.891   5.698   2.029
 6271TIP3    H118819   1.894   5.613   2.073
 6271TIP3    H218820   1.815   5.692   1.971
 6272TIP3   OH218821   4.103   4.868   4.291
 6272TIP3    H118822   4.143   4.954   4.275
 6272TIP3    H218823   4.011   4.881   4.269
 6273TIP3   OH218824   0.143   2.749   2.541
 6273TIP3    H118825   0.094   2.726   2.619
 6273TIP3    H218826   0.181   2.667   2.511
 6274TIP3   OH218827   4.212   3.300   1.120
 6274TIP3    H118828   4.187   3.392   1.110
 6274TIP3    H218829   4.298   3.295   1.077
 6275TIP3   OH218830   4.455   3.784   2.693
 6275TIP3    H118831   4.405   3.809   2.770
 6275TIP3    H218832   4.433   3.850   2.627
 6276TIP3   OH218833   5.096   4.288   3.790
 6276TIP3    H118834   5.161   4.322   3.851
 6276TIP3    H218835   5.140   4.215   3.747
 6277TIP3   OH218836   6.211   5.956   4.257
 6277TIP3    H118837   6.139   5.911   4.303
 6277TIP3    H218838   6.214   5.913   4.171
 6278TIP3   OH218839   3.553   1.616   2.017
 6278TIP3    H118840   3.466   1.609   2.057
 6278TIP3    H218841   3.612   1.573   2.079
 6279TIP3   OH218842   2.362   1.231   3.388
 6279TIP3    H118843   2.433   1.294   3.375
 6279TIP3    H218844   2.337   1.242   3.480
 6280TIP3   OH218845   3.511   5.494   4.422
 6280TIP3    H118846   3.603   5.510   4.443
 6280TIP3    H218847   3.463   5.555   4.477
 6281TIP3   OH218848   0.288   3.519   2.527
 6281TIP3    H118849   0.291   3.432   2.487
 6281TIP3    H218850   0.211   3.560   2.487
 6282TIP3   OH218851   4.745   1.066   2.505
 6282TIP3    H118852   4.774   1.030   2.421
 6282TIP3    H218853   4.665   1.114   2.484
 6283TIP3   OH218854   3.410   1.874   2.495
 6283TIP3    H118855   3.343   1.928   2.453
 6283TIP3    H218856   3.464   1.843   2.423
 6284TIP3   OH218857   3.940   4.229   4.227
 6284TIP3    H118858   3.869   4.288   4.202
 6284TIP3    H218859   3.933   4.155   4.166
 6285TIP3   OH218860   4.195   2.387   2.075
 6285TIP3    H118861   4.235   2.363   1.991
 6285TIP3    H218862   4.191   2.305   2.124
 6286TIP3   OH218863   4.180   2.719   1.192
 6286TIP3    H118864   4.230   2.637   1.191
 6286TIP3    H218865   4.166   2.738   1.284
 6287TIP3   OH218866   2.861   0.430   0.281
 6287TIP3    H118867   2.797   0.473   0.224
 6287TIP3    H218868   2.861   0.339   0.253
 6288TIP3   OH218869   1.258   0.390   4.803
 6288TIP3    H118870   1.164   0.394   4.787
 6288TIP3    H218871   1.296   0.447   4.735
 6289TIP3   OH218872   5.598   3.082   4.704
 6289TIP3    H118873   5.620   3.005   4.755
 6289TIP3    H218874   5.653   3.075   4.625
 6290TIP3   OH218875   3.552   2.762   4.449
 6290TIP3    H118876   3.635   2.715   4.462
 6290TIP3    H218877   3.491   2.722   4.511
 6291TIP3   OH218878   0.037   4.216   4.702
 6291TIP3    H118879   0.015   4.126   4.677
 6291TIP3    H218880   0.051   4.261   4.618
 6292TIP3   OH218881   4.538   0.556   0.536
 6292TIP3    H118882   4.545   0.633   0.480
 6292TIP3    H218883   4.445   0.534   0.535
 6293TIP3   OH218884   3.921   3.536   4.717
 6293TIP3    H118885   3.851   3.526   4.653
 6293TIP3    H218886   3.902   3.471   4.785
 6294TIP3   OH218887   3.166   4.708   3.153
 6294TIP3    H118888   3.254   4.702   3.117
 6294TIP3    H218889   3.125   4.781   3.107
 6295TIP3   OH218890   3.746   2.519   3.233
 6295TIP3    H118891   3.801   2.464   3.290
 6295TIP3    H218892   3.677   2.460   3.202
 6296TIP3   OH218893   2.033   4.113   0.486
 6296TIP3    H118894   1.972   4.127   0.559
 6296TIP3    H218895   1.986   4.146   0.410
 6297TIP3   OH218896   5.938   4.157   0.112
 6297TIP3    H118897   5.875   4.228   0.108
 6297TIP3    H218898   6.005   4.180   0.047
 6298TIP3   OH218899   0.611   3.871   3.782
 6298TIP3    H118900   0.704   3.888   3.764
 6298TIP3    H218901   0.611   3.838   3.872
 6299TIP3   OH218902   3.433   2.547   3.529
 6299TIP3    H118903   3.479   2.465   3.511
 6299TIP3    H218904   3.501   2.605   3.563
 6300TIP3   OH218905   4.002   0.840   0.849
 6300TIP3    H118906   4.017   0.813   0.939
 6300TIP3    H218907   3.978   0.759   0.803
 6301TIP3   OH218908   3.721   0.519   3.256
 6301TIP3    H118909   3.705   0.425   3.247
 6301TIP3    H218910   3.662   0.559   3.193
 6302TIP3   OH218911   1.317   3.192   1.881
 6302TIP3    H118912   1.399   3.214   1.926
 6302TIP3    H218913   1.343   3.131   1.812
 6303TIP3   OH218914   0.077   3.295   4.206
 6303TIP3    H118915   0.020   3.340   4.268
 6303TIP3    H218916   0.104   3.363   4.145
 6304TIP3   OH218917   5.977   5.440   2.885
 6304TIP3    H118918   5.917   5.515   2.885
 6304TIP3    H218919   6.055   5.472   2.839
 6305TIP3   OH218920   0.766   1.290   3.929
 6305TIP3    H118921   0.785   1.357   3.864
 6305TIP3    H218922   0.686   1.248   3.897
 6306TIP3   OH218923   5.370   3.277   4.521
 6306TIP3    H118924   5.422   3.287   4.601
 6306TIP3    H218925   5.319   3.197   4.535
 6307TIP3   OH218926   6.195   3.743   2.313
 6307TIP3    H118927   6.136   3.672   2.336
 6307TIP3    H218928   6.165   3.817   2.364
 6308TIP3   OH218929   1.976   2.645   0.664
 6308TIP3    H118930   1.912   2.704   0.625
 6308TIP3    H218931   1.926   2.565   0.682
 6309TIP3   OH218932   2.245   6.029   5.064
 6309TIP3    H118933   2.171   5.985   5.108
 6309TIP3    H218934   2.259   5.978   4.984
 6310TIP3   OH218935   2.060   1.442   2.501
 6310TIP3    H118936   1.994   1.472   2.438
 6310TIP3    H218937   2.010   1.403   2.572
 6311TIP3   OH218938   1.629   5.581   1.864
 6311TIP3    H118939   1.579   5.609   1.940
 6311TIP3    H218940   1.563   5.552   1.801
 6312TIP3   OH218941   5.104   2.069   0.350
 6312TIP3    H118942   5.064   2.108   0.273
 6312TIP3    H218943   5.069   1.980   0.355
 6313TIP3   OH218944   2.383   0.706   1.082
 6313TIP3    H118945   2.439   0.629   1.078
 6313TIP3    H218946   2.308   0.678   1.135
 6314TIP3   OH218947   1.272   4.854   3.457
 6314TIP3    H118948   1.283   4.934   3.407
 6314TIP3    H218949   1.345   4.798   3.429
 6315TIP3   OH218950   5.225   3.498   3.017
 6315TIP3    H118951   5.208   3.451   3.099
 6315TIP3    H218952   5.164   3.572   3.019
 6316TIP3   OH218953   3.669   0.703   3.458
 6316TIP3    H118954   3.753   0.743   3.481
 6316TIP3    H218955   3.693   0.626   3.407
 6317TIP3   OH218956   5.687   3.690   4.781
 6317TIP3    H118957   5.694   3.653   4.869
 6317TIP3    H218958   5.769   3.737   4.767
 6318TIP3   OH218959   1.794   5.422   2.553
 6318TIP3    H118960   1.724   5.376   2.507
 6318TIP3    H218961   1.870   5.363   2.546
 6319TIP3   OH218962   5.319   1.253   4.605
 6319TIP3    H118963   5.349   1.307   4.678
 6319TIP3    H218964   5.231   1.285   4.586
 6320TIP3   OH218965   0.607   5.181   1.369
 6320TIP3    H118966   0.660   5.192   1.290
 6320TIP3    H218967   0.664   5.212   1.440
 6321TIP3   OH218968   3.209   4.356   0.602
 6321TIP3    H118969   3.188   4.274   0.558
 6321TIP3    H218970   3.289   4.387   0.560
 6322TIP3   OH218971   3.232   3.863   0.066
 6322TIP3    H118972   3.309   3.817   0.034
 6322TIP3    H218973   3.258   3.955   0.066
 6323TIP3   OH218974   0.914   5.921   1.896
 6323TIP3    H118975   0.928   5.986   1.827
 6323TIP3    H218976   0.838   5.953   1.944
 6324TIP3   OH218977   2.743   1.974   3.084
 6324TIP3    H118978   2.827   2.021   3.081
 6324TIP3    H218979   2.678   2.044   3.095
 6325TIP3   OH218980   0.477   3.345   0.348
 6325TIP3    H118981   0.572   3.358   0.357
 6325TIP3    H218982   0.459   3.267   0.400
 6326TIP3   OH218983   2.749   1.407   0.793
 6326TIP3    H118984   2.796   1.414   0.877
 6326TIP3    H218985   2.817   1.418   0.727
 6327TIP3   OH218986   4.260   3.754   5.133
 6327TIP3    H118987   4.230   3.664   5.122
 6327TIP3    H218988   4.213   3.785   5.211
 6328TIP3   OH218989   5.431   4.328   0.688
 6328TIP3    H118990   5.425   4.277   0.769
 6328TIP3    H218991   5.525   4.340   0.675
 6329TIP3   OH218992   6.196   2.202   4.709
 6329TIP3    H118993   6.121   2.167   4.661
 6329TIP3    H218994   6.255   2.235   4.641
 6330TIP3   OH218995   3.911   5.509   4.725
 6330TIP3    H118996   3.911   5.452   4.803
 6330TIP3    H218997   3.877   5.593   4.756
 6331TIP3   OH218998   1.042   2.707   3.410
 6331TIP3    H118999   1.056   2.786   3.358
 6331TIP3    H219000   1.109   2.712   3.478
 6332TIP3   OH219001   2.096   1.066   0.617
 6332TIP3    H119002   2.150   0.991   0.595
 6332TIP3    H219003   2.012   1.049   0.574
 6333TIP3   OH219004   1.256   2.142   0.569
 6333TIP3    H119005   1.179   2.181   0.610
 6333TIP3    H219006   1.305   2.103   0.641
 6334TIP3   OH219007   3.048   5.603   1.785
 6334TIP3    H119008   2.959   5.617   1.815
 6334TIP3    H219009   3.041   5.597   1.689
 6335TIP3   OH219010   5.062   1.297   1.546
 6335TIP3    H119011   5.020   1.212   1.562
 6335TIP3    H219012   4.991   1.354   1.517
 6336TIP3   OH219013   4.086   2.355   1.349
 6336TIP3    H119014   4.006   2.313   1.381
 6336TIP3    H219015   4.082   2.344   1.254
 6337TIP3   OH219016   0.782   2.601   2.728
 6337TIP3    H119017   0.803   2.693   2.745
 6337TIP3    H219018   0.768   2.597   2.633
 6338TIP3   OH219019   2.955   0.113   4.265
 6338TIP3    H119020   2.996   0.155   4.340
 6338TIP3    H219021   2.997   0.153   4.189
 6339TIP3   OH219022   5.600   0.771   5.135
 6339TIP3    H119023   5.516   0.778   5.089
 6339TIP3    H219024   5.634   0.860   5.136
 6340TIP3   OH219025   3.669   5.574   1.504
 6340TIP3    H119026   3.635   5.543   1.420
 6340TIP3    H219027   3.714   5.656   1.483
 6341TIP3   OH219028   0.560   4.906   3.506
 6341TIP3    H119029   0.563   4.853   3.426
 6341TIP3    H219030   0.552   4.996   3.475
 6342TIP3   OH219031   5.736   1.110   1.831
 6342TIP3    H119032   5.746   1.141   1.741
 6342TIP3    H219033   5.796   1.165   1.882
 6343TIP3   OH219034   2.951   4.837   0.695
 6343TIP3    H119035   3.008   4.911   0.674
 6343TIP3    H219036   3.006   4.777   0.746
 6344TIP3   OH219037   5.949   4.084   2.131
 6344TIP3    H119038   5.888   4.014   2.157
 6344TIP3    H219039   5.901   4.134   2.065
 6345TIP3   OH219040   3.844   1.658   2.875
 6345TIP3    H119041   3.907   1.618   2.815
 6345TIP3    H219042   3.842   1.599   2.951
 6346TIP3   OH219043   0.833   3.083   1.933
 6346TIP3    H119044   0.767   3.117   1.872
 6346TIP3    H219045   0.821   3.135   2.012
 6347TIP3   OH219046   4.273   0.823   0.061
 6347TIP3    H119047   4.236   0.767   0.130
 6347TIP3    H219048   4.218   0.901   0.060
 6348TIP3   OH219049   2.186   1.331   0.268
 6348TIP3    H119050   2.220   1.338   0.357
 6348TIP3    H219051   2.106   1.279   0.276
 6349TIP3   OH219052   5.070   5.876   4.670
 6349TIP3    H119053   5.075   5.783   4.692
 6349TIP3    H219054   5.055   5.920   4.754
 6350TIP3   OH219055   3.536   0.637   3.078
 6350TIP3    H119056   3.508   0.689   3.153
 6350TIP3    H219057   3.457   0.627   3.025
 6351TIP3   OH219058   1.346   4.693   1.772
 6351TIP3    H119059   1.331   4.666   1.862
 6351TIP3    H219060   1.259   4.718   1.740
 6352TIP3   OH219061   1.159   1.403   1.438
 6352TIP3    H119062   1.225   1.333   1.438
 6352TIP3    H219063   1.088   1.369   1.383
 6353TIP3   OH219064   3.913   3.124   3.529
 6353TIP3    H119065   3.838   3.127   3.588
 6353TIP3    H219066   3.978   3.181   3.570
 6354TIP3   OH219067   2.532   0.662   3.208
 6354TIP3    H119068   2.590   0.717   3.155
 6354TIP3    H219069   2.591   0.618   3.269
 6355TIP3   OH219070   0.356   2.674   0.932
 6355TIP3    H119071   0.370   2.726   0.854
 6355TIP3    H219072   0.401   2.591   0.915
 6356TIP3   OH219073   0.069   1.655   1.148
 6356TIP3    H119074   0.129   1.729   1.139
 6356TIP3    H219075   0.079   1.606   1.066
 6357TIP3   OH219076   3.514   2.202   0.505
 6357TIP3    H119077   3.460   2.123   0.508
 6357TIP3    H219078   3.537   2.218   0.596
 6358TIP3   OH219079   5.980   3.634   4.534
 6358TIP3    H119080   5.936   3.552   4.511
 6358TIP3    H219081   5.995   3.677   4.449
 6359TIP3   OH219082   5.970   5.028   2.544
 6359TIP3    H119083   5.997   5.110   2.585
 6359TIP3    H219084   5.992   5.039   2.452
 6360TIP3   OH219085   0.789   5.826   4.274
 6360TIP3    H119086   0.864   5.811   4.331
 6360TIP3    H219087   0.790   5.921   4.257
 6361TIP3   OH219088   6.345   1.476   2.220
 6361TIP3    H119089   6.360   1.521   2.303
 6361TIP3    H219090   6.391   1.393   2.229
 6362TIP3   OH219091   6.170   1.806   0.329
 6362TIP3    H119092   6.160   1.817   0.234
 6362TIP3    H219093   6.173   1.896   0.363
 6363TIP3   OH219094   1.971   4.109   4.831
 6363TIP3    H119095   2.046   4.140   4.882
 6363TIP3    H219096   1.985   4.014   4.825
 6364TIP3   OH219097   2.225   5.373   5.136
 6364TIP3    H119098   2.211   5.279   5.145
 6364TIP3    H219099   2.227   5.388   5.042
 6365TIP3   OH219100   2.584   1.837   0.257
 6365TIP3    H119101   2.656   1.777   0.236
 6365TIP3    H219102   2.537   1.794   0.329
 6366TIP3   OH219103   2.548   3.088   0.800
 6366TIP3    H119104   2.546   3.180   0.774
 6366TIP3    H219105   2.456   3.062   0.803
 6367TIP3   OH219106   5.252   3.895   4.510
 6367TIP3    H119107   5.265   3.990   4.512
 6367TIP3    H219108   5.158   3.884   4.497
 6368TIP3   OH219109   4.767   5.556   4.155
 6368TIP3    H119110   4.779   5.467   4.188
 6368TIP3    H219111   4.767   5.611   4.233
 6369TIP3   OH219112   3.759   5.902   3.067
 6369TIP3    H119113   3.801   5.963   3.128
 6369TIP3    H219114   3.712   5.841   3.123
 6370TIP3   OH219115   4.737   0.930   4.163
 6370TIP3    H119116   4.758   1.018   4.196
 6370TIP3    H219117   4.816   0.902   4.118
 6371TIP3   OH219118   3.024   5.493   0.954
 6371TIP3    H119119   3.045   5.568   1.010
 6371TIP3    H219120   3.107   5.474   0.909
 6372TIP3   OH219121   3.040   2.666   3.631
 6372TIP3    H119122   3.113   2.605   3.618
 6372TIP3    H219123   3.081   2.747   3.662
 6373TIP3   OH219124   3.282   0.736   1.110
 6373TIP3    H119125   3.212   0.778   1.160
 6373TIP3    H219126   3.261   0.755   1.019
 6374TIP3   OH219127   3.339   4.734   1.082
 6374TIP3    H119128   3.295   4.661   1.127
 6374TIP3    H219129   3.421   4.696   1.050
 6375TIP3   OH219130   5.668   5.162   2.835
 6375TIP3    H119131   5.699   5.222   2.767
 6375TIP3    H219132   5.591   5.120   2.797
 6376TIP3   OH219133   6.105   4.765   1.267
 6376TIP3    H119134   6.194   4.794   1.250
 6376TIP3    H219135   6.051   4.840   1.244
 6377TIP3   OH219136   6.000   3.087   1.686
 6377TIP3    H119137   6.023   3.032   1.611
 6377TIP3    H219138   6.076   3.143   1.700
 6378TIP3   OH219139   1.554   4.060   3.240
 6378TIP3    H119140   1.590   4.031   3.157
 6378TIP3    H219141   1.464   4.027   3.240
 6379TIP3   OH219142   1.316   2.072   4.157
 6379TIP3    H119143   1.320   1.981   4.186
 6379TIP3    H219144   1.224   2.085   4.134
 6380TIP3   OH219145   0.552   5.884   3.992
 6380TIP3    H119146   0.615   5.812   4.001
 6380TIP3    H219147   0.564   5.915   3.902
 6381TIP3   OH219148   2.578   0.337   0.273
 6381TIP3    H119149   2.542   0.382   0.197
 6381TIP3    H219150   2.551   0.245   0.262
 6382TIP3   OH219151   1.263   3.181   5.159
 6382TIP3    H119152   1.251   3.113   5.226
 6382TIP3    H219153   1.348   3.162   5.120
 6383TIP3   OH219154   1.725   4.729   2.875
 6383TIP3    H119155   1.707   4.694   2.962
 6383TIP3    H219156   1.688   4.817   2.875
 6384TIP3   OH219157   1.047   2.663   2.356
 6384TIP3    H119158   1.080   2.602   2.422
 6384TIP3    H219159   1.098   2.743   2.370
 6385TIP3   OH219160   0.162   0.624   5.104
 6385TIP3    H119161   0.115   0.594   5.182
 6385TIP3    H219162   0.113   0.588   5.030
 6386TIP3   OH219163   3.451   4.581   3.265
 6386TIP3    H119164   3.531   4.563   3.214
 6386TIP3    H219165   3.428   4.671   3.243
 6387TIP3   OH219166   3.943   0.779   1.121
 6387TIP3    H119167   3.875   0.814   1.179
 6387TIP3    H219168   3.988   0.713   1.173
 6388TIP3   OH219169   3.621   0.019   3.503
 6388TIP3    H119170   3.697  -0.001   3.557
 6388TIP3    H219171   3.649   0.090   3.445
 6389TIP3   OH219172   5.722   0.298   1.441
 6389TIP3    H119173   5.738   0.208   1.413
 6389TIP3    H219174   5.710   0.346   1.359
 6390TIP3   OH219175   1.551   5.955   1.072
 6390TIP3    H119176   1.639   5.991   1.079
 6390TIP3    H219177   1.548   5.915   0.986
 6391TIP3   OH219178   5.280   4.363   3.998
 6391TIP3    H119179   5.368   4.393   3.979
 6391TIP3    H219180   5.288   4.315   4.081
 6392TIP3   OH219181   4.222   2.112   2.712
 6392TIP3    H119182   4.180   2.042   2.762
 6392TIP3    H219183   4.156   2.138   2.647
 6393TIP3   OH219184   6.235   4.806   3.225
 6393TIP3    H119185   6.180   4.852   3.162
 6393TIP3    H219186   6.271   4.732   3.175
 6394TIP3   OH219187   3.818   5.406   0.159
 6394TIP3    H119188   3.820   5.358   0.077
 6394TIP3    H219189   3.727   5.398   0.190
 6395TIP3   OH219190   2.280   5.142   1.230
 6395TIP3    H119191   2.298   5.222   1.279
 6395TIP3    H219192   2.238   5.172   1.149
 6396TIP3   OH219193   5.722   2.122   0.704
 6396TIP3    H119194   5.669   2.115   0.625
 6396TIP3    H219195   5.781   2.047   0.700
 6397TIP3   OH219196   2.078   0.812   4.267
 6397TIP3    H119197   2.034   0.756   4.202
 6397TIP3    H219198   2.166   0.824   4.232
 6398TIP3   OH219199   3.085   3.621   3.987
 6398TIP3    H119200   3.018   3.640   4.053
 6398TIP3    H219201   3.165   3.658   4.022
 6399TIP3   OH219202   1.563   2.431   4.149
 6399TIP3    H119203   1.625   2.499   4.174
 6399TIP3    H219204   1.534   2.392   4.232
 6400TIP3   OH219205   2.994   5.438   0.527
 6400TIP3    H119206   3.065   5.399   0.578
 6400TIP3    H219207   3.034   5.463   0.444
 6401TIP3   OH219208   6.015   2.582   2.795
 6401TIP3    H119209   5.984   2.658   2.744
 6401TIP3    H219210   6.039   2.619   2.880
 6402TIP3   OH219211   3.144   4.651   4.476
 6402TIP3    H119212   3.064   4.612   4.441
 6402TIP3    H219213   3.189   4.578   4.519
 6403TIP3   OH219214   6.061   1.476   1.647
 6403TIP3    H119215   6.117   1.450   1.720
 6403TIP3    H219216   6.103   1.554   1.610
 6404TIP3   OH219217   4.381   3.916   1.264
 6404TIP3    H119218   4.369   3.993   1.208
 6404TIP3    H219219   4.367   3.841   1.206
 6405TIP3   OH219220   1.670   4.050   4.701
 6405TIP3    H119221   1.692   3.977   4.643
 6405TIP3    H219222   1.751   4.065   4.750
 6406TIP3   OH219223   4.785   3.956   3.468
 6406TIP3    H119224   4.769   4.004   3.386
 6406TIP3    H219225   4.719   3.989   3.528
 6407TIP3   OH219226   0.668   5.837   0.614
 6407TIP3    H119227   0.613   5.884   0.676
 6407TIP3    H219228   0.665   5.746   0.644
 6408TIP3   OH219229   3.212   2.937   1.237
 6408TIP3    H119230   3.210   2.975   1.325
 6408TIP3    H219231   3.122   2.944   1.205
 6409TIP3   OH219232   2.090   4.522   4.512
 6409TIP3    H119233   2.076   4.441   4.560
 6409TIP3    H219234   2.069   4.500   4.421
 6410TIP3   OH219235   5.333   2.520   2.061
 6410TIP3    H119236   5.393   2.574   2.010
 6410TIP3    H219237   5.295   2.581   2.126
 6411TIP3   OH219238   2.959   4.983   3.725
 6411TIP3    H119239   3.024   5.007   3.790
 6411TIP3    H219240   2.898   4.926   3.772
 6412TIP3   OH219241   6.204   4.075   2.427
 6412TIP3    H119242   6.144   4.008   2.461
 6412TIP3    H219243   6.233   4.040   2.343
 6413TIP3   OH219244   0.779   2.236   3.245
 6413TIP3    H119245   0.801   2.322   3.279
 6413TIP3    H219246   0.848   2.178   3.277
 6414TIP3   OH219247   4.252   5.876   1.433
 6414TIP3    H119248   4.238   5.852   1.525
 6414TIP3    H219249   4.334   5.925   1.434
 6415TIP3   OH219250   3.703   0.700   4.969
 6415TIP3    H119251   3.790   0.662   4.959
 6415TIP3    H219252   3.717   0.777   5.025
 6416TIP3   OH219253   1.333   2.889   1.751
 6416TIP3    H119254   1.273   2.890   1.826
 6416TIP3    H219255   1.275   2.884   1.675
 6417TIP3   OH219256   5.373   1.171   1.570
 6417TIP3    H119257   5.418   1.223   1.637
 6417TIP3    H219258   5.383   1.222   1.490
 6418TIP3   OH219259   4.483   4.356   3.056
 6418TIP3    H119260   4.528   4.365   3.140
 6418TIP3    H219261   4.543   4.307   3.001
 6419TIP3   OH219262   6.228   0.915   2.820
 6419TIP3    H119263   6.168   0.851   2.781
 6419TIP3    H219264   6.309   0.867   2.833
 6420TIP3   OH219265   1.854   4.499   1.118
 6420TIP3    H119266   1.945   4.508   1.147
 6420TIP3    H219267   1.861   4.483   1.024
 6421TIP3   OH219268   1.956   4.102   2.849
 6421TIP3    H119269   2.006   4.135   2.774
 6421TIP3    H219270   1.905   4.177   2.878
 6422TIP3   OH219271   4.364   4.235   4.520
 6422TIP3    H119272   4.282   4.226   4.570
 6422TIP3    H219273   4.384   4.147   4.491
 6423TIP3   OH219274   2.567   3.663   3.805
 6423TIP3    H119275   2.643   3.631   3.853
 6423TIP3    H219276   2.604   3.701   3.725
 6424TIP3   OH219277   0.158   2.545   1.342
 6424TIP3    H119278   0.100   2.474   1.368
 6424TIP3    H219279   0.141   2.557   1.248
 6425TIP3   OH219280   0.719   4.341   4.679
 6425TIP3    H119281   0.664   4.292   4.618
 6425TIP3    H219282   0.657   4.380   4.741
 6426TIP3   OH219283   4.148   1.997   4.894
 6426TIP3    H119284   4.160   1.967   4.804
 6426TIP3    H219285   4.147   1.917   4.946
 6427TIP3   OH219286   1.096   5.470   3.072
 6427TIP3    H119287   1.153   5.393   3.067
 6427TIP3    H219288   1.152   5.539   3.108
 6428TIP3   OH219289   2.061   5.656   2.496
 6428TIP3    H119290   2.070   5.609   2.580
 6428TIP3    H219291   2.148   5.650   2.456
 6429TIP3   OH219292   3.440   0.004   3.849
 6429TIP3    H119293   3.386  -0.002   3.770
 6429TIP3    H219294   3.388   0.057   3.909
 6430TIP3   OH219295   5.718   0.277   4.113
 6430TIP3    H119296   5.656   0.302   4.181
 6430TIP3    H219297   5.711   0.347   4.048
 6431TIP3   OH219298   0.384   4.905   0.875
 6431TIP3    H119299   0.402   4.961   0.799
 6431TIP3    H219300   0.448   4.931   0.940
 6432TIP3   OH219301   4.473   2.537   0.486
 6432TIP3    H119302   4.442   2.514   0.574
 6432TIP3    H219303   4.532   2.466   0.462
 6433TIP3   OH219304   0.676   1.004   5.086
 6433TIP3    H119305   0.731   0.944   5.137
 6433TIP3    H219306   0.714   1.090   5.103
 6434TIP3   OH219307   4.742   3.144   3.991
 6434TIP3    H119308   4.814   3.172   4.047
 6434TIP3    H219309   4.755   3.192   3.909
 6435TIP3   OH219310   1.122   1.770   4.934
 6435TIP3    H119311   1.137   1.857   4.971
 6435TIP3    H219312   1.106   1.714   5.010
 6436TIP3   OH219313   6.276   4.537   2.000
 6436TIP3    H119314   6.317   4.525   2.085
 6436TIP3    H219315   6.213   4.608   2.013
 6437TIP3   OH219316   5.883   1.100   0.276
 6437TIP3    H119317   5.902   1.039   0.347
 6437TIP3    H219318   5.799   1.071   0.240
 6438TIP3   OH219319   3.647   2.536   2.258
 6438TIP3    H119320   3.685   2.479   2.192
 6438TIP3    H219321   3.607   2.477   2.321
 6439TIP3   OH219322   5.074   4.801   0.172
 6439TIP3    H119323   5.154   4.823   0.125
 6439TIP3    H219324   5.099   4.727   0.228
 6440TIP3   OH219325   0.263   0.574   3.914
 6440TIP3    H119326   0.259   0.569   4.009
 6440TIP3    H219327   0.200   0.508   3.884
 6441TIP3   OH219328   4.712   5.578   4.471
 6441TIP3    H119329   4.690   5.606   4.560
 6441TIP3    H219330   4.772   5.505   4.483
 6442TIP3   OH219331   0.505   4.346   1.225
 6442TIP3    H119332   0.436   4.347   1.158
 6442TIP3    H219333   0.587   4.352   1.176
 6443TIP3   OH219334   2.202   4.093   1.266
 6443TIP3    H119335   2.228   4.167   1.212
 6443TIP3    H219336   2.262   4.096   1.341
 6444TIP3   OH219337   0.214   0.298   2.131
 6444TIP3    H119338   0.271   0.242   2.077
 6444TIP3    H219339   0.188   0.243   2.204
 6445TIP3   OH219340   1.192   3.437   0.213
 6445TIP3    H119341   1.257   3.506   0.198
 6445TIP3    H219342   1.132   3.474   0.277
 6446TIP3   OH219343   2.202   1.851   2.764
 6446TIP3    H119344   2.136   1.794   2.723
 6446TIP3    H219345   2.241   1.797   2.832
 6447TIP3   OH219346   1.713   5.195   1.692
 6447TIP3    H119347   1.798   5.218   1.730
 6447TIP3    H219348   1.655   5.184   1.767
 6448TIP3   OH219349   1.269   5.696   4.635
 6448TIP3    H119350   1.341   5.755   4.614
 6448TIP3    H219351   1.258   5.705   4.730
 6449TIP3   OH219352   5.085   4.619   2.275
 6449TIP3    H119353   5.001   4.578   2.295
 6449TIP3    H219354   5.146   4.581   2.337
 6450TIP3   OH219355   4.099   4.862   2.530
 6450TIP3    H119356   4.066   4.830   2.446
 6450TIP3    H219357   4.030   4.839   2.593
 6451TIP3   OH219358   3.316   3.371   4.198
 6451TIP3    H119359   3.260   3.396   4.124
 6451TIP3    H219360   3.404   3.366   4.160
 6452TIP3   OH219361   0.809   0.982   3.765
 6452TIP3    H119362   0.810   0.948   3.855
 6452TIP3    H219363   0.827   0.906   3.711
 6453TIP3   OH219364   0.267   5.711   1.712
 6453TIP3    H119365   0.244   5.630   1.667
 6453TIP3    H219366   0.244   5.781   1.652
 6454TIP3   OH219367   0.248   1.859   1.163
 6454TIP3    H119368   0.179   1.920   1.138
 6454TIP3    H219369   0.312   1.865   1.093
 6455TIP3   OH219370   0.606   3.112   2.290
 6455TIP3    H119371   0.590   3.033   2.238
 6455TIP3    H219372   0.645   3.174   2.228
 6456TIP3   OH219373   5.506   0.654   2.426
 6456TIP3    H119374   5.444   0.658   2.498
 6456TIP3    H219375   5.452   0.647   2.347
 6457TIP3   OH219376   0.890   3.901   3.774
 6457TIP3    H119377   0.949   3.827   3.758
 6457TIP3    H219378   0.911   3.962   3.703
 6458TIP3   OH219379   1.391   0.277   4.519
 6458TIP3    H119380   1.319   0.219   4.547
 6458TIP3    H219381   1.470   0.230   4.544
 6459TIP3   OH219382   3.863   4.297   0.406
 6459TIP3    H119383   3.953   4.268   0.417
 6459TIP3    H219384   3.869   4.391   0.391
 6460TIP3   OH219385   5.542   1.982   1.669
 6460TIP3    H119386   5.497   2.017   1.745
 6460TIP3    H219387   5.482   1.918   1.632
 6461TIP3   OH219388   1.533   3.325   3.756
 6461TIP3    H119389   1.548   3.235   3.728
 6461TIP3    H219390   1.550   3.378   3.677
 6462TIP3   OH219391   4.041   5.289   4.113
 6462TIP3    H119392   4.103   5.341   4.164
 6462TIP3    H219393   4.011   5.348   4.043
 6463TIP3   OH219394   4.865   3.301   0.663
 6463TIP3    H119395   4.880   3.226   0.721
 6463TIP3    H219396   4.908   3.277   0.581
 6464TIP3   OH219397   2.736   1.261   3.426
 6464TIP3    H119398   2.708   1.335   3.480
 6464TIP3    H219399   2.831   1.258   3.435
 6465TIP3   OH219400   5.400   1.102   3.510
 6465TIP3    H119401   5.483   1.149   3.521
 6465TIP3    H219402   5.415   1.017   3.552
 6466TIP3   OH219403   1.794   2.686   1.552
 6466TIP3    H119404   1.867   2.700   1.612
 6466TIP3    H219405   1.717   2.716   1.601
 6467TIP3   OH219406   1.883   4.529   0.834
 6467TIP3    H119407   1.884   4.498   0.743
 6467TIP3    H219408   1.863   4.622   0.827
 6468TIP3   OH219409   3.921   1.352   3.085
 6468TIP3    H119410   3.859   1.311   3.025
 6468TIP3    H219411   3.875   1.430   3.118
 6469TIP3   OH219412   2.327   2.014   0.850
 6469TIP3    H119413   2.271   1.962   0.908
 6469TIP3    H219414   2.338   2.098   0.895
 6470TIP3   OH219415   2.722   1.440   4.482
 6470TIP3    H119416   2.674   1.381   4.540
 6470TIP3    H219417   2.687   1.424   4.395
 6471TIP3   OH219418   2.380   2.138   1.862
 6471TIP3    H119419   2.411   2.112   1.949
 6471TIP3    H219420   2.452   2.114   1.804
 6472TIP3   OH219421   5.138   2.028   4.784
 6472TIP3    H119422   5.233   2.033   4.783
 6472TIP3    H219423   5.117   1.974   4.860
 6473TIP3   OH219424   3.577   0.828   2.396
 6473TIP3    H119425   3.523   0.751   2.412
 6473TIP3    H219426   3.603   0.821   2.304
 6474TIP3   OH219427   0.658   1.904   1.752
 6474TIP3    H119428   0.637   1.829   1.807
 6474TIP3    H219429   0.631   1.878   1.664
 6475TIP3   OH219430   6.112   5.045   4.445
 6475TIP3    H119431   6.047   4.978   4.465
 6475TIP3    H219432   6.095   5.115   4.508
 6476TIP3   OH219433   4.896   1.614   5.145
 6476TIP3    H119434   4.818   1.624   5.091
 6476TIP3    H219435   4.964   1.587   5.084
 6477TIP3   OH219436   0.083   2.825   0.650
 6477TIP3    H119437   0.043   2.757   0.595
 6477TIP3    H219438   0.173   2.831   0.619
 6478TIP3   OH219439   1.592   2.861   1.681
 6478TIP3    H119440   1.502   2.859   1.714
 6478TIP3    H219441   1.612   2.954   1.673
 6479TIP3   OH219442   2.513   4.374   1.587
 6479TIP3    H119443   2.521   4.455   1.537
 6479TIP3    H219444   2.560   4.391   1.669
 6480TIP3   OH219445   2.466   4.131   3.777
 6480TIP3    H119446   2.489   4.170   3.693
 6480TIP3    H219447   2.442   4.041   3.756
 6481TIP3   OH219448   2.517   3.435   2.231
 6481TIP3    H119449   2.542   3.524   2.207
 6481TIP3    H219450   2.508   3.437   2.326
 6482TIP3   OH219451   0.190   4.277   0.321
 6482TIP3    H119452   0.284   4.296   0.330
 6482TIP3    H219453   0.155   4.290   0.409
 6483TIP3   OH219454   5.371   0.469   4.046
 6483TIP3    H119455   5.300   0.410   4.073
 6483TIP3    H219456   5.451   0.419   4.060
 6484TIP3   OH219457   5.401   4.448   5.221
 6484TIP3    H119458   5.486   4.489   5.208
 6484TIP3    H219459   5.346   4.485   5.152
 6485TIP3   OH219460   0.228   1.701   3.912
 6485TIP3    H119461   0.280   1.626   3.882
 6485TIP3    H219462   0.168   1.719   3.840
 6486TIP3   OH219463   0.194   0.143   4.340
 6486TIP3    H119464   0.237   0.116   4.421
 6486TIP3    H219465   0.184   0.062   4.290
 6487TIP3   OH219466   4.699   1.359   0.974
 6487TIP3    H119467   4.709   1.382   1.067
 6487TIP3    H219468   4.609   1.328   0.967
 6488TIP3   OH219469   4.256   5.438   4.180
 6488TIP3    H119470   4.242   5.530   4.203
 6488TIP3    H219471   4.310   5.403   4.250
 6489TIP3   OH219472   1.612   5.434   5.201
 6489TIP3    H119473   1.534   5.432   5.257
 6489TIP3    H219474   1.579   5.461   5.116
 6490TIP3   OH219475   2.073   3.814   1.921
 6490TIP3    H119476   2.148   3.759   1.944
 6490TIP3    H219477   2.004   3.787   1.981
 6491TIP3   OH219478   5.254   1.122   3.815
 6491TIP3    H119479   5.290   1.053   3.758
 6491TIP3    H219480   5.328   1.180   3.831
 6492TIP3   OH219481   5.816   2.355   0.292
 6492TIP3    H119482   5.727   2.391   0.293
 6492TIP3    H219483   5.871   2.426   0.325
 6493TIP3   OH219484   4.921   0.405   1.383
 6493TIP3    H119485   4.905   0.360   1.466
 6493TIP3    H219486   4.977   0.479   1.406
 6494TIP3   OH219487   0.866   0.355   3.900
 6494TIP3    H119488   0.863   0.451   3.893
 6494TIP3    H219489   0.775   0.328   3.906
 6495TIP3   OH219490   5.456   3.780   1.202
 6495TIP3    H119491   5.458   3.847   1.271
 6495TIP3    H219492   5.517   3.713   1.231
 6496TIP3   OH219493   6.245   1.182   2.713
 6496TIP3    H119494   6.246   1.240   2.789
 6496TIP3    H219495   6.215   1.098   2.747
 6497TIP3   OH219496   5.798   3.669   3.227
 6497TIP3    H119497   5.892   3.684   3.216
 6497TIP3    H219498   5.785   3.663   3.322
 6498TIP3   OH219499   2.522   3.274   1.750
 6498TIP3    H119500   2.613   3.244   1.752
 6498TIP3    H219501   2.477   3.208   1.697
 6499TIP3   OH219502   0.824   0.141   1.928
 6499TIP3    H119503   0.751   0.084   1.950
 6499TIP3    H219504   0.895   0.114   1.986
 6500TIP3   OH219505   5.122   1.534   2.603
 6500TIP3    H119506   5.175   1.485   2.540
 6500TIP3    H219507   5.042   1.557   2.555
 6501TIP3   OH219508   1.491   3.021   0.630
 6501TIP3    H119509   1.532   3.083   0.691
 6501TIP3    H219510   1.403   3.007   0.666
 6502TIP3   OH219511   1.601   4.207   2.252
 6502TIP3    H119512   1.623   4.220   2.344
 6502TIP3    H219513   1.506   4.210   2.249
 6503TIP3   OH219514   1.121   2.478   2.541
 6503TIP3    H119515   1.210   2.469   2.576
 6503TIP3    H219516   1.071   2.413   2.590
 6504TIP3   OH219517   4.518   1.413   3.239
 6504TIP3    H119518   4.514   1.497   3.285
 6504TIP3    H219519   4.572   1.358   3.296
 6505TIP3   OH219520   3.752   4.291   2.297
 6505TIP3    H119521   3.662   4.267   2.318
 6505TIP3    H219522   3.801   4.270   2.377
 6506TIP3   OH219523   4.550   5.818   3.583
 6506TIP3    H119524   4.640   5.793   3.602
 6506TIP3    H219525   4.504   5.807   3.667
 6507TIP3   OH219526   0.762   0.923   2.683
 6507TIP3    H119527   0.800   0.945   2.768
 6507TIP3    H219528   0.837   0.918   2.624
 6508TIP3   OH219529   2.977   1.642   4.832
 6508TIP3    H119530   2.967   1.559   4.784
 6508TIP3    H219531   2.966   1.709   4.765
 6509TIP3   OH219532   0.380   2.889   2.401
 6509TIP3    H119533   0.411   2.973   2.435
 6509TIP3    H219534   0.295   2.876   2.444
 6510TIP3   OH219535   2.316   3.034   2.185
 6510TIP3    H119536   2.361   2.953   2.161
 6510TIP3    H219537   2.345   3.098   2.119
 6511TIP3   OH219538   4.593   2.348   2.133
 6511TIP3    H119539   4.559   2.406   2.066
 6511TIP3    H219540   4.562   2.261   2.108
 6512TIP3   OH219541   4.851   0.999   3.872
 6512TIP3    H119542   4.870   1.093   3.871
 6512TIP3    H219543   4.911   0.962   3.807
 6513TIP3   OH219544   4.061   3.707   1.177
 6513TIP3    H119545   4.099   3.674   1.258
 6513TIP3    H219546   4.118   3.778   1.150
 6514TIP3   OH219547   2.185   4.127   2.697
 6514TIP3    H119548   2.152   4.138   2.608
 6514TIP3    H219549   2.196   4.033   2.707
 6515TIP3   OH219550   3.522   5.493   2.531
 6515TIP3    H119551   3.505   5.435   2.605
 6515TIP3    H219552   3.541   5.434   2.458
 6516TIP3   OH219553   5.011   0.723   4.130
 6516TIP3    H119554   5.043   0.793   4.188
 6516TIP3    H219555   5.031   0.642   4.176
 6517TIP3   OH219556   5.720   0.162   3.377
 6517TIP3    H119557   5.745   0.246   3.340
 6517TIP3    H219558   5.653   0.128   3.319
 6518TIP3   OH219559   0.403   0.603   4.587
 6518TIP3    H119560   0.321   0.559   4.562
 6518TIP3    H219561   0.408   0.679   4.530
 6519TIP3   OH219562   3.039   5.011   4.212
 6519TIP3    H119563   3.063   5.067   4.285
 6519TIP3    H219564   3.091   4.931   4.225
 6520TIP3   OH219565   1.187   3.960   4.556
 6520TIP3    H119566   1.269   3.953   4.604
 6520TIP3    H219567   1.130   3.894   4.595
 6521TIP3   OH219568   2.487   5.590   2.846
 6521TIP3    H119569   2.551   5.547   2.902
 6521TIP3    H219570   2.453   5.520   2.789
 6522TIP3   OH219571   0.586   5.154   3.820
 6522TIP3    H119572   0.558   5.067   3.791
 6522TIP3    H219573   0.517   5.183   3.880
 6523TIP3   OH219574   6.304   4.258   4.006
 6523TIP3    H119575   6.340   4.171   4.019
 6523TIP3    H219576   6.327   4.280   3.915
 6524TIP3   OH219577   4.772   4.751   5.093
 6524TIP3    H119578   4.718   4.673   5.087
 6524TIP3    H219579   4.820   4.741   5.175
 6525TIP3   OH219580   5.796   3.956   1.476
 6525TIP3    H119581   5.850   4.033   1.489
 6525TIP3    H219582   5.769   3.960   1.384
 6526TIP3   OH219583   4.879   0.233   2.131
 6526TIP3    H119584   4.963   0.276   2.116
 6526TIP3    H219585   4.853   0.262   2.219
 6527TIP3   OH219586   0.621   0.517   0.079
 6527TIP3    H119587   0.689   0.477   0.025
 6527TIP3    H219588   0.581   0.583   0.022
 6528TIP3   OH219589   0.072   0.865   0.916
 6528TIP3    H119590   0.161   0.884   0.887
 6528TIP3    H219591   0.018   0.880   0.838
 6529TIP3   OH219592   4.233   2.644   0.408
 6529TIP3    H119593   4.180   2.577   0.452
 6529TIP3    H219594   4.323   2.624   0.435
 6530TIP3   OH219595   2.050   3.148   3.305
 6530TIP3    H119596   2.084   3.104   3.227
 6530TIP3    H219597   2.058   3.241   3.286
 6531TIP3   OH219598   3.415   5.294   0.525
 6531TIP3    H119599   3.473   5.231   0.568
 6531TIP3    H219600   3.461   5.378   0.532
 6532TIP3   OH219601   3.901   2.758   1.463
 6532TIP3    H119602   3.879   2.773   1.555
 6532TIP3    H219603   3.981   2.705   1.466
 6533TIP3   OH219604   4.670   4.789   1.347
 6533TIP3    H119605   4.703   4.702   1.366
 6533TIP3    H219606   4.718   4.816   1.268
 6534TIP3   OH219607   1.706   5.903   3.660
 6534TIP3    H119608   1.664   5.965   3.720
 6534TIP3    H219609   1.760   5.847   3.715
 6535TIP3   OH219610   2.108   5.762   3.565
 6535TIP3    H119611   2.078   5.848   3.595
 6535TIP3    H219612   2.175   5.782   3.499
 6536TIP3   OH219613   3.556   0.327   4.066
 6536TIP3    H119614   3.508   0.276   4.132
 6536TIP3    H219615   3.647   0.322   4.093
 6537TIP3   OH219616   0.876   2.485   3.916
 6537TIP3    H119617   0.830   2.412   3.874
 6537TIP3    H219618   0.849   2.562   3.866
 6538TIP3   OH219619   4.902   2.259   1.172
 6538TIP3    H119620   4.826   2.279   1.117
 6538TIP3    H219621   4.976   2.255   1.110
 6539TIP3   OH219622   3.949   1.202   1.442
 6539TIP3    H119623   4.018   1.144   1.473
 6539TIP3    H219624   3.910   1.238   1.521
 6540TIP3   OH219625   2.856   5.684   0.098
 6540TIP3    H119626   2.801   5.761   0.105
 6540TIP3    H219627   2.832   5.645   0.014
 6541TIP3   OH219628   5.017   2.686   3.361
 6541TIP3    H119629   5.073   2.746   3.312
 6541TIP3    H219630   4.960   2.646   3.295
 6542TIP3   OH219631   1.103   3.620   1.063
 6542TIP3    H119632   1.183   3.622   1.115
 6542TIP3    H219633   1.077   3.711   1.053
 6543TIP3   OH219634   1.945   0.388   4.421
 6543TIP3    H119635   2.008   0.328   4.460
 6543TIP3    H219636   1.900   0.428   4.495
 6544TIP3   OH219637   5.867   4.789   3.135
 6544TIP3    H119638   5.910   4.741   3.064
 6544TIP3    H219639   5.784   4.817   3.098
 6545TIP3   OH219640   4.692   4.578   2.776
 6545TIP3    H119641   4.653   4.493   2.756
 6545TIP3    H219642   4.778   4.576   2.735
 6546TIP3   OH219643   2.925   1.592   1.347
 6546TIP3    H119644   2.964   1.568   1.431
 6546TIP3    H219645   2.998   1.625   1.295
 6547TIP3   OH219646   5.451   3.960   1.389
 6547TIP3    H119647   5.361   3.988   1.402
 6547TIP3    H219648   5.497   3.989   1.468
 6548TIP3   OH219649   2.721   2.395   0.618
 6548TIP3    H119650   2.689   2.401   0.528
 6548TIP3    H219651   2.812   2.369   0.609
 6549TIP3   OH219652   5.429   5.239   0.733
 6549TIP3    H119653   5.476   5.193   0.664
 6549TIP3    H219654   5.356   5.282   0.688
 6550TIP3   OH219655   2.543   4.299   2.492
 6550TIP3    H119656   2.621   4.281   2.440
 6550TIP3    H219657   2.470   4.274   2.435
 6551TIP3   OH219658   5.969   4.184   1.482
 6551TIP3    H119659   5.963   4.265   1.432
 6551TIP3    H219660   5.953   4.210   1.573
 6552TIP3   OH219661   2.313   2.101   2.711
 6552TIP3    H119662   2.292   2.009   2.695
 6552TIP3    H219663   2.232   2.139   2.744
 6553TIP3   OH219664   0.241   0.961   2.439
 6553TIP3    H119665   0.249   0.895   2.370
 6553TIP3    H219666   0.284   1.039   2.404
 6554TIP3   OH219667   1.670   1.191   0.478
 6554TIP3    H119668   1.609   1.233   0.417
 6554TIP3    H219669   1.620   1.185   0.560
 6555TIP3   OH219670   2.577   5.367   3.011
 6555TIP3    H119671   2.540   5.280   2.993
 6555TIP3    H219672   2.639   5.352   3.082
 6556TIP3   OH219673   1.731   1.850   2.736
 6556TIP3    H119674   1.709   1.782   2.672
 6556TIP3    H219675   1.674   1.923   2.714
 6557TIP3   OH219676   5.526   1.699   3.569
 6557TIP3    H119677   5.521   1.680   3.476
 6557TIP3    H219678   5.568   1.785   3.574
 6558TIP3   OH219679   2.967   3.480   3.352
 6558TIP3    H119680   3.045   3.431   3.377
 6558TIP3    H219681   2.907   3.414   3.318
 6559TIP3   OH219682   4.672   0.903   1.564
 6559TIP3    H119683   4.691   0.812   1.538
 6559TIP3    H219684   4.601   0.895   1.627
 6560TIP3   OH219685   5.390   0.318   2.982
 6560TIP3    H119686   5.459   0.340   3.045
 6560TIP3    H219687   5.424   0.242   2.935
 6561TIP3   OH219688   0.675   4.881   0.871
 6561TIP3    H119689   0.649   4.968   0.840
 6561TIP3    H219690   0.649   4.822   0.800
 6562TIP3   OH219691   2.505   1.460   0.541
 6562TIP3    H119692   2.428   1.405   0.529
 6562TIP3    H219693   2.579   1.399   0.540
 6563TIP3   OH219694   4.831   0.583   0.718
 6563TIP3    H119695   4.881   0.514   0.762
 6563TIP3    H219696   4.872   0.591   0.632
 6564TIP3   OH219697   6.160   4.996   3.617
 6564TIP3    H119698   6.092   4.935   3.644
 6564TIP3    H219699   6.119   5.050   3.550
 6565TIP3   OH219700   4.206   4.105   2.247
 6565TIP3    H119701   4.298   4.128   2.262
 6565TIP3    H219702   4.197   4.018   2.286
 6566TIP3   OH219703   0.881   2.828   1.645
 6566TIP3    H119704   0.883   2.762   1.576
 6566TIP3    H219705   0.864   2.910   1.598
 6567TIP3   OH219706   4.058   0.257   4.641
 6567TIP3    H119707   4.127   0.291   4.698
 6567TIP3    H219708   4.044   0.167   4.671
 6568TIP3   OH219709   4.782   5.157   2.253
 6568TIP3    H119710   4.801   5.149   2.346
 6568TIP3    H219711   4.697   5.201   2.249
 6569TIP3   OH219712   3.167   1.316   0.389
 6569TIP3    H119713   3.170   1.238   0.332
 6569TIP3    H219714   3.232   1.298   0.457
 6570TIP3   OH219715   3.177   2.026   2.445
 6570TIP3    H119716   3.148   1.942   2.481
 6570TIP3    H219717   3.097   2.067   2.412
 6571TIP3   OH219718   1.225   0.700   4.289
 6571TIP3    H119719   1.245   0.750   4.210
 6571TIP3    H219720   1.305   0.650   4.307
 6572TIP3   OH219721   4.518   1.104   3.483
 6572TIP3    H119722   4.574   1.072   3.553
 6572TIP3    H219723   4.569   1.174   3.441
 6573TIP3   OH219724   5.909   2.207   0.925
 6573TIP3    H119725   5.890   2.141   0.859
 6573TIP3    H219726   5.870   2.172   1.006
 6574TIP3   OH219727   6.228   5.029   2.905
 6574TIP3    H119728   6.229   4.985   2.820
 6574TIP3    H219729   6.138   5.062   2.914
 6575TIP3   OH219730   3.538   3.116   2.537
 6575TIP3    H119731   3.594   3.051   2.493
 6575TIP3    H219732   3.462   3.126   2.480
 6576TIP3   OH219733   4.707   2.693   0.630
 6576TIP3    H119734   4.674   2.636   0.561
 6576TIP3    H219735   4.629   2.739   0.662
 6577TIP3   OH219736   2.421   3.875   1.392
 6577TIP3    H119737   2.442   3.959   1.434
 6577TIP3    H219738   2.416   3.896   1.299
 6578TIP3   OH219739   6.321   4.325   4.958
 6578TIP3    H119740   6.364   4.309   5.042
 6578TIP3    H219741   6.392   4.322   4.894
 6579TIP3   OH219742   2.887   5.377   2.826
 6579TIP3    H119743   2.936   5.329   2.758
 6579TIP3    H219744   2.811   5.322   2.844
 6580TIP3   OH219745   4.487   0.288   2.406
 6580TIP3    H119746   4.451   0.214   2.357
 6580TIP3    H219747   4.413   0.321   2.458
 6581TIP3   OH219748   2.473   0.131   1.560
 6581TIP3    H119749   2.485   0.036   1.555
 6581TIP3    H219750   2.553   0.168   1.523
 6582TIP3   OH219751   3.103   0.915   1.259
 6582TIP3    H119752   3.085   0.830   1.301
 6582TIP3    H219753   3.032   0.926   1.196
 6583TIP3   OH219754   3.110   1.827   3.069
 6583TIP3    H119755   3.136   1.772   3.143
 6583TIP3    H219756   3.123   1.917   3.099
 6584TIP3   OH219757   5.810   5.104   1.677
 6584TIP3    H119758   5.726   5.142   1.701
 6584TIP3    H219759   5.790   5.044   1.605
 6585TIP3   OH219760   4.918   2.016   1.303
 6585TIP3    H119761   5.013   2.005   1.311
 6585TIP3    H219762   4.907   2.102   1.262
 6586TIP3   OH219763   1.765   3.716   2.374
 6586TIP3    H119764   1.830   3.669   2.426
 6586TIP3    H219765   1.749   3.797   2.422
 6587TIP3   OH219766   2.057   1.569   0.593
 6587TIP3    H119767   2.109   1.604   0.666
 6587TIP3    H219768   2.048   1.476   0.613
 6588TIP3   OH219769   0.653   1.121   2.502
 6588TIP3    H119770   0.688   1.037   2.530
 6588TIP3    H219771   0.719   1.156   2.442
 6589TIP3   OH219772   0.756   3.496   2.411
 6589TIP3    H119773   0.817   3.531   2.346
 6589TIP3    H219774   0.672   3.492   2.365
 6590TIP3   OH219775   2.508   4.346   3.609
 6590TIP3    H119776   2.467   4.431   3.593
 6590TIP3    H219777   2.601   4.366   3.617
 6591TIP3   OH219778   0.937   1.243   0.480
 6591TIP3    H119779   0.856   1.218   0.525
 6591TIP3    H219780   0.925   1.336   0.462
 6592TIP3   OH219781   5.979   0.723   4.767
 6592TIP3    H119782   6.068   0.710   4.800
 6592TIP3    H219783   5.939   0.785   4.828
 6593TIP3   OH219784   4.297   0.316   0.174
 6593TIP3    H119785   4.313   0.399   0.129
 6593TIP3    H219786   4.229   0.274   0.122
 6594TIP3   OH219787   2.303   5.388   1.359
 6594TIP3    H119788   2.223   5.413   1.405
 6594TIP3    H219789   2.290   5.418   1.270
 6595TIP3   OH219790   2.723   4.114   4.145
 6595TIP3    H119791   2.669   4.174   4.093
 6595TIP3    H219792   2.748   4.045   4.084
 6596TIP3   OH219793   3.265   5.428   1.806
 6596TIP3    H119794   3.197   5.492   1.786
 6596TIP3    H219795   3.287   5.389   1.721
 6597TIP3   OH219796   1.414   6.021   2.615
 6597TIP3    H119797   1.408   5.929   2.591
 6597TIP3    H219798   1.330   6.058   2.588
 6598TIP3   OH219799   4.127   5.269   1.300
 6598TIP3    H119800   4.217   5.300   1.294
 6598TIP3    H219801   4.077   5.329   1.245
 6599TIP3   OH219802   1.197   5.212   3.573
 6599TIP3    H119803   1.174   5.272   3.645
 6599TIP3    H219804   1.150   5.248   3.497
 6600TIP3   OH219805   0.207   4.098   1.531
 6600TIP3    H119806   0.243   4.012   1.507
 6600TIP3    H219807   0.115   4.094   1.505
 6601TIP3   OH219808   3.336   4.068   4.855
 6601TIP3    H119809   3.408   4.131   4.847
 6601TIP3    H219810   3.371   3.987   4.816
 6602TIP3   OH219811   2.558   0.147   1.224
 6602TIP3    H119812   2.601   0.230   1.205
 6602TIP3    H219813   2.566   0.096   1.143
 6603TIP3   OH219814   2.934   2.288   4.947
 6603TIP3    H119815   2.912   2.196   4.963
 6603TIP3    H219816   3.021   2.284   4.907
 6604TIP3   OH219817   2.873   5.613   4.343
 6604TIP3    H119818   2.936   5.666   4.392
 6604TIP3    H219819   2.855   5.664   4.264
 6605TIP3   OH219820   1.005   1.853   3.377
 6605TIP3    H119821   1.025   1.876   3.286
 6605TIP3    H219822   1.038   1.927   3.428
 6606TIP3   OH219823   2.344   3.651   4.223
 6606TIP3    H119824   2.274   3.659   4.158
 6606TIP3    H219825   2.338   3.561   4.253
 6607TIP3   OH219826   3.450   1.034   0.032
 6607TIP3    H119827   3.532   1.026   0.081
 6607TIP3    H219828   3.476   1.068  -0.053
 6608TIP3   OH219829   3.898   5.122   2.291
 6608TIP3    H119830   3.856   5.037   2.304
 6608TIP3    H219831   3.942   5.114   2.206
 6609TIP3   OH219832   6.184   2.895   4.197
 6609TIP3    H119833   6.142   2.829   4.143
 6609TIP3    H219834   6.265   2.916   4.151
 6610TIP3   OH219835   5.919   2.680   1.441
 6610TIP3    H119836   5.987   2.619   1.413
 6610TIP3    H219837   5.942   2.701   1.532
 6611TIP3   OH219838   4.007   3.355   1.928
 6611TIP3    H119839   4.014   3.449   1.915
 6611TIP3    H219840   4.013   3.344   2.023
 6612TIP3   OH219841   4.888   3.353   4.094
 6612TIP3    H119842   4.795   3.372   4.100
 6612TIP3    H219843   4.929   3.411   4.158
 6613TIP3   OH219844   6.130   0.367   0.038
 6613TIP3    H119845   6.124   0.290  -0.018
 6613TIP3    H219846   6.152   0.333   0.125
 6614TIP3   OH219847   1.947   3.137   0.552
 6614TIP3    H119848   1.904   3.075   0.611
 6614TIP3    H219849   1.890   3.139   0.475
 6615TIP3   OH219850   0.464   5.154   3.155
 6615TIP3    H119851   0.465   5.062   3.128
 6615TIP3    H219852   0.511   5.200   3.084
 6616TIP3   OH219853   4.927   1.744   1.337
 6616TIP3    H119854   4.991   1.746   1.265
 6616TIP3    H219855   4.904   1.836   1.350
 6617TIP3   OH219856   4.572   2.943   5.129
 6617TIP3    H119857   4.511   2.872   5.150
 6617TIP3    H219858   4.525   2.998   5.067
 6618TIP3   OH219859   5.680   1.380   3.895
 6618TIP3    H119860   5.701   1.409   3.984
 6618TIP3    H219861   5.586   1.393   3.886
 6619TIP3   OH219862   6.139   0.957   2.030
 6619TIP3    H119863   6.120   0.893   2.098
 6619TIP3    H219864   6.160   1.037   2.078
 6620TIP3   OH219865   2.382   0.981   3.276
 6620TIP3    H119866   2.476   0.961   3.274
 6620TIP3    H219867   2.378   1.071   3.308
 6621TIP3   OH219868   3.986   5.901   3.577
 6621TIP3    H119869   4.020   5.819   3.540
 6621TIP3    H219870   3.892   5.897   3.563
 6622TIP3   OH219871   1.732   3.824   0.887
 6622TIP3    H119872   1.750   3.884   0.959
 6622TIP3    H219873   1.818   3.789   0.863
 6623TIP3   OH219874   2.772   1.839   2.445
 6623TIP3    H119875   2.710   1.868   2.511
 6623TIP3    H219876   2.722   1.838   2.363
 6624TIP3   OH219877   0.969   3.971   0.862
 6624TIP3    H119878   0.886   3.930   0.840
 6624TIP3    H219879   1.003   3.919   0.935
 6625TIP3   OH219880   1.774   1.827   1.590
 6625TIP3    H119881   1.772   1.787   1.503
 6625TIP3    H219882   1.682   1.832   1.616
 6626TIP3   OH219883   2.375   1.506   3.908
 6626TIP3    H119884   2.418   1.420   3.920
 6626TIP3    H219885   2.282   1.486   3.906
 6627TIP3   OH219886   4.302   4.001   3.625
 6627TIP3    H119887   4.230   4.027   3.683
 6627TIP3    H219888   4.324   3.912   3.651
 6628TIP3   OH219889   4.358   3.698   4.298
 6628TIP3    H119890   4.387   3.647   4.374
 6628TIP3    H219891   4.300   3.765   4.334
 6629TIP3   OH219892   0.628   0.158   4.175
 6629TIP3    H119893   0.707   0.135   4.225
 6629TIP3    H219894   0.586   0.074   4.156
 6630TIP3   OH219895   5.398   1.225   0.836
 6630TIP3    H119896   5.409   1.140   0.879
 6630TIP3    H219897   5.318   1.261   0.875
 6631TIP3   OH219898   3.397   1.864   4.297
 6631TIP3    H119899   3.321   1.895   4.346
 6631TIP3    H219900   3.384   1.770   4.290
 6632TIP3   OH219901   1.271   5.374   4.231
 6632TIP3    H119902   1.199   5.366   4.294
 6632TIP3    H219903   1.349   5.383   4.285
 6633TIP3   OH219904   5.198   3.024   2.155
 6633TIP3    H119905   5.196   3.119   2.165
 6633TIP3    H219906   5.274   2.996   2.206
 6634TIP3   OH219907   5.430   4.968   2.003
 6634TIP3    H119908   5.459   4.918   1.928
 6634TIP3    H219909   5.385   4.905   2.059
 6635TIP3   OH219910   2.676   0.661   3.991
 6635TIP3    H119911   2.689   0.622   4.077
 6635TIP3    H219912   2.763   0.689   3.963
 6636TIP3   OH219913   5.322   3.411   4.279
 6636TIP3    H119914   5.229   3.403   4.302
 6636TIP3    H219915   5.366   3.349   4.337
 6637TIP3   OH219916   2.656   4.241   4.882
 6637TIP3    H119917   2.603   4.216   4.958
 6637TIP3    H219918   2.612   4.319   4.848
 6638TIP3   OH219919   2.288   4.130   4.641
 6638TIP3    H119920   2.380   4.146   4.618
 6638TIP3    H219921   2.291   4.078   4.721
 6639TIP3   OH219922   2.938   0.440   1.461
 6639TIP3    H119923   2.858   0.388   1.461
 6639TIP3    H219924   2.978   0.422   1.376
 6640TIP3   OH219925   4.059   4.493   4.279
 6640TIP3    H119926   4.030   4.402   4.275
 6640TIP3    H219927   4.016   4.536   4.206
 6641TIP3   OH219928   6.197   4.688   3.875
 6641TIP3    H119929   6.204   4.699   3.780
 6641TIP3    H219930   6.144   4.608   3.885
 6642TIP3   OH219931   2.485   0.563   4.534
 6642TIP3    H119932   2.535   0.494   4.490
 6642TIP3    H219933   2.396   0.552   4.502
 6643TIP3   OH219934   1.467   0.533   0.871
 6643TIP3    H119935   1.536   0.590   0.905
 6643TIP3    H219936   1.464   0.460   0.932
 6644TIP3   OH219937   0.130   6.010   0.397
 6644TIP3    H119938   0.178   5.962   0.465
 6644TIP3    H219939   0.141   6.102   0.421
 6645TIP3   OH219940   0.071   2.028   4.816
 6645TIP3    H119941  -0.001   2.087   4.794
 6645TIP3    H219942   0.140   2.049   4.753
   6.36640   6.00230   5.19814   0.00000   0.00000  -2.12214   0.00000  -2.12214  -3.00115
