Title t=   2.00000 step= 1000
29212
    1ASP      N    1   1.664   1.081   1.786
    1ASP    HT1    2   1.720   1.146   1.845
    1ASP    HT2    3   1.580   1.123   1.743
    1ASP    HT3    4   1.727   1.054   1.708
    1ASP     CA    5   1.625   0.966   1.870
    1ASP     HA    6   1.553   0.911   1.811
    1ASP     CB    7   1.760   0.885   1.887
    1ASP    HB1    8   1.767   0.808   1.967
    1ASP    HB2    9   1.852   0.945   1.908
    1ASP     CG   10   1.785   0.817   1.756
    1ASP    OD1   11   1.736   0.862   1.652
    1ASP    OD2   12   1.863   0.719   1.750
    1ASP      C   13   1.560   0.987   2.011
    1ASP      O   14   1.562   1.103   2.057
    2GLY      N   15   1.510   0.879   2.076
    2GLY     HN   16   1.501   0.791   2.030
    2GLY     CA   17   1.446   0.889   2.209
    2GLY    HA1   18   1.523   0.903   2.283
    2GLY    HA2   19   1.397   0.796   2.232
    2GLY      C   20   1.343   0.998   2.220
    2GLY      O   21   1.265   1.033   2.134
    3ASP      N   22   1.333   1.053   2.347
    3ASP     HN   23   1.384   1.006   2.418
    3ASP     CA   24   1.233   1.146   2.386
    3ASP     HA   25   1.158   1.164   2.311
    3ASP     CB   26   1.168   1.100   2.517
    3ASP    HB1   27   1.099   1.172   2.566
    3ASP    HB2   28   1.239   1.075   2.600
    3ASP     CG   29   1.091   0.973   2.489
    3ASP    OD1   30   1.101   0.875   2.570
    3ASP    OD2   31   1.013   0.965   2.392
    3ASP      C   32   1.315   1.277   2.399
    3ASP      O   33   1.425   1.281   2.456
    4GLY      N   34   1.261   1.393   2.349
    4GLY     HN   35   1.178   1.386   2.294
    4GLY     CA   36   1.324   1.523   2.367
    4GLY    HA1   37   1.273   1.588   2.296
    4GLY    HA2   38   1.427   1.518   2.333
    4GLY      C   39   1.315   1.585   2.507
    4GLY      O   40   1.265   1.514   2.593
    5PRO      N   41   1.360   1.709   2.538
    5PRO     CD   42   1.435   1.789   2.444
    5PRO    HD1   43   1.364   1.823   2.366
    5PRO    HD2   44   1.521   1.736   2.397
    5PRO     CA   45   1.330   1.780   2.660
    5PRO     HA   46   1.383   1.738   2.745
    5PRO     CB   47   1.383   1.920   2.626
    5PRO    HB1   48   1.389   1.985   2.715
    5PRO    HB2   49   1.303   1.967   2.564
    5PRO     CG   50   1.497   1.901   2.527
    5PRO    HG1   51   1.522   1.993   2.470
    5PRO    HG2   52   1.590   1.892   2.588
    5PRO      C   53   1.188   1.784   2.705
    5PRO      O   54   1.091   1.827   2.645
    6GLY      N   55   1.175   1.746   2.830
    6GLY     HN   56   1.255   1.710   2.878
    6GLY     CA   57   1.051   1.736   2.894
    6GLY    HA1   58   1.062   1.665   2.975
    6GLY    HA2   59   0.976   1.711   2.821
    6GLY      C   60   1.007   1.870   2.952
    6GLY      O   61   1.075   1.971   2.944
    7ASP      N   62   0.892   1.865   3.021
    7ASP     HN   63   0.829   1.788   3.032
    7ASP     CA   64   0.843   1.986   3.085
    7ASP     HA   65   0.828   2.053   3.001
    7ASP     CB   66   0.708   1.951   3.153
    7ASP    HB1   67   0.673   2.035   3.218
    7ASP    HB2   68   0.705   1.853   3.206
    7ASP     CG   69   0.599   1.948   3.048
    7ASP    OD1   70   0.521   1.850   3.063
    7ASP    OD2   71   0.577   2.034   2.957
    7ASP      C   72   0.932   2.047   3.194
    7ASP      O   73   0.996   1.969   3.264
    8PRO      N   74   0.950   2.182   3.229
    8PRO     CD   75   0.886   2.287   3.145
    8PRO    HD1   76   0.794   2.247   3.096
    8PRO    HD2   77   0.965   2.321   3.076
    8PRO     CA   78   0.988   2.226   3.362
    8PRO     HA   79   1.093   2.201   3.368
    8PRO     CB   80   0.964   2.378   3.360
    8PRO    HB1   81   1.061   2.423   3.329
    8PRO    HB2   82   0.940   2.426   3.457
    8PRO     CG   83   0.854   2.396   3.255
    8PRO    HG1   84   0.755   2.358   3.288
    8PRO    HG2   85   0.836   2.496   3.210
    8PRO      C   86   0.898   2.159   3.474
    8PRO      O   87   0.774   2.147   3.453
    9GLY      N   88   0.962   2.128   3.579
    9GLY     HN   89   1.056   2.157   3.597
    9GLY     CA   90   0.893   2.060   3.689
    9GLY    HA1   91   0.969   2.043   3.763
    9GLY    HA2   92   0.846   1.970   3.652
    9GLY      C   93   0.784   2.141   3.757
    9GLY      O   94   0.742   2.253   3.721
   10ASP      N   95   0.729   2.090   3.871
   10ASP     HN   96   0.771   2.014   3.921
   10ASP     CA   97   0.622   2.150   3.951
   10ASP     HA   98   0.534   2.167   3.890
   10ASP     CB   99   0.585   2.073   4.084
   10ASP    HB1  100   0.510   2.123   4.149
   10ASP    HB2  101   0.680   2.061   4.141
   10ASP     CG  102   0.541   1.936   4.053
   10ASP    OD1  103   0.458   1.911   3.970
   10ASP    OD2  104   0.577   1.846   4.139
   10ASP      C  105   0.663   2.293   3.995
   10ASP      O  106   0.580   2.384   3.989
   11GLY      N  107   0.789   2.322   4.034
   11GLY     HN  108   0.866   2.258   4.035
   11GLY     CA  109   0.814   2.454   4.067
   11GLY    HA1  110   0.745   2.482   4.146
   11GLY    HA2  111   0.812   2.527   3.987
   11GLY      C  112   0.953   2.452   4.130
   11GLY    OT1  113   0.978   2.385   4.235
   11GLY    OT2  114   1.042   2.524   4.078
   12LIT    LIT  115   3.877   5.768   1.384
   13LIT    LIT  116   2.279   3.330   5.819
   14LIT    LIT  117   2.142   0.803   0.866
   15LIT    LIT  118   3.389   1.405   1.880
   16LIT    LIT  119   1.075   2.679   3.994
   17LIT    LIT  120   3.446   6.514   4.296
   18LIT    LIT  121   3.012   3.195   3.447
   19LIT    LIT  122   1.826   6.137   0.865
   20LIT    LIT  123   7.028   2.242   3.373
   21LIT    LIT  124   2.087   0.580   2.289
   22LIT    LIT  125   5.209   3.980   0.044
   23LIT    LIT  126   3.657   4.546   5.763
   24LIT    LIT  127   6.410   4.474   4.823
   25LIT    LIT  128   0.556   2.039   2.768
   26LIT    LIT  129   0.278   1.940   3.916
   27LIT    LIT  130   3.959   1.227   3.408
   28LIT    LIT  131   0.682   5.125   5.829
   29LIT    LIT  132   7.144   3.328   2.737
   30LIT    LIT  133   0.370   2.290   1.557
   31LIT    LIT  134   4.544   0.718   2.124
   32LIT    LIT  135   6.569   2.177   0.072
   33LIT    LIT  136   3.666   3.165   2.312
   34LIT    LIT  137   4.733   1.851   4.306
   35LIT    LIT  138   0.719   1.227   2.527
   36LIT    LIT  139   5.874   5.309   1.649
   37LIT    LIT  140   2.842   4.714   0.930
   38LIT    LIT  141   1.537   2.562   5.822
   39LIT    LIT  142   1.840   0.752   1.545
   40LIT    LIT  143   2.743   6.672   2.767
   41LIT    LIT  144   3.395   1.344   3.183
   42LIT    LIT  145   1.008   0.775   2.440
   43CLA    CLA  146   2.540   6.761   2.838
   44CLA    CLA  147   4.071   1.571   4.019
   45CLA    CLA  148   3.446   3.247   3.373
   46CLA    CLA  149   6.022   2.364   0.416
   47CLA    CLA  150   0.276   1.311   2.493
   48CLA    CLA  151   4.595   5.407   0.620
   49CLA    CLA  152   2.639   6.458   3.708
   50CLA    CLA  153   3.628   3.655   1.488
   51CLA    CLA  154   6.914   1.463   1.675
   52CLA    CLA  155   4.112   4.686   3.943
   53CLA    CLA  156   3.622   1.289   2.491
   54CLA    CLA  157   3.642   0.879   1.247
   55CLA    CLA  158   6.882   3.155   5.530
   56CLA    CLA  159   7.051   0.554   5.000
   57CLA    CLA  160   6.980   2.349   4.105
   58CLA    CLA  161   3.800   3.011   2.215
   59CLA    CLA  162   5.556   0.181   1.729
   60CLA    CLA  163   6.972   6.569   3.234
   61CLA    CLA  164   1.360   0.201   0.626
   62CLA    CLA  165   4.494   6.609   1.024
   63CLA    CLA  166   0.664   1.510   0.342
   64CLA    CLA  167   4.475   4.013   0.530
   65CLA    CLA  168   6.173   4.991   2.396
   66CLA    CLA  169   3.268   0.587   2.762
   67CLA    CLA  170   5.948   1.759   2.260
   68CLA    CLA  171   0.362   2.319   1.940
   69CLA    CLA  172   4.096   4.244   2.367
   70TIP3   OH2  173   6.137   2.937  -0.032
   70TIP3    H1  174   6.100   2.849  -0.038
   70TIP3    H2  175   6.142   2.954   0.062
   71TIP3   OH2  176   0.812   5.153   4.172
   71TIP3    H1  177   0.868   5.079   4.146
   71TIP3    H2  178   0.842   5.225   4.117
   72TIP3   OH2  179   5.771   4.886   4.407
   72TIP3    H1  180   5.724   4.803   4.391
   72TIP3    H2  181   5.739   4.944   4.338
   73TIP3   OH2  182   4.029   3.111   0.558
   73TIP3    H1  183   4.103   3.171   0.554
   73TIP3    H2  184   4.018   3.094   0.652
   74TIP3   OH2  185   4.594   6.039   5.007
   74TIP3    H1  186   4.686   6.039   5.034
   74TIP3    H2  187   4.584   6.119   4.956
   75TIP3   OH2  188   2.793   4.101   2.023
   75TIP3    H1  189   2.707   4.061   2.040
   75TIP3    H2  190   2.843   4.081   2.102
   76TIP3   OH2  191   2.157   6.339   3.219
   76TIP3    H1  192   2.149   6.376   3.307
   76TIP3    H2  193   2.247   6.359   3.193
   77TIP3   OH2  194   0.436   4.315   5.745
   77TIP3    H1  195   0.385   4.394   5.762
   77TIP3    H2  196   0.411   4.289   5.656
   78TIP3   OH2  197   0.500   4.507   0.029
   78TIP3    H1  198   0.525   4.551   0.110
   78TIP3    H2  199   0.524   4.416   0.044
   79TIP3   OH2  200   1.750   4.649   3.990
   79TIP3    H1  201   1.672   4.638   4.044
   79TIP3    H2  202   1.822   4.657   4.052
   80TIP3   OH2  203   1.168   6.826   0.869
   80TIP3    H1  204   1.201   6.828   0.779
   80TIP3    H2  205   1.097   6.761   0.866
   81TIP3   OH2  206   0.429   3.460   3.584
   81TIP3    H1  207   0.491   3.516   3.631
   81TIP3    H2  208   0.391   3.404   3.652
   82TIP3   OH2  209   3.674   5.169   3.650
   82TIP3    H1  210   3.655   5.209   3.566
   82TIP3    H2  211   3.625   5.220   3.714
   83TIP3   OH2  212   1.079   3.997   1.045
   83TIP3    H1  213   1.002   4.054   1.051
   83TIP3    H2  214   1.101   3.996   0.952
   84TIP3   OH2  215   5.431   1.626   1.866
   84TIP3    H1  216   5.453   1.544   1.910
   84TIP3    H2  217   5.515   1.670   1.854
   85TIP3   OH2  218   6.949   1.937   3.088
   85TIP3    H1  219   7.006   1.914   3.015
   85TIP3    H2  220   6.891   1.862   3.099
   86TIP3   OH2  221   0.076   1.726   3.096
   86TIP3    H1  222   0.160   1.686   3.073
   86TIP3    H2  223   0.022   1.652   3.127
   87TIP3   OH2  224   6.808   6.741   2.095
   87TIP3    H1  225   6.889   6.715   2.138
   87TIP3    H2  226   6.836   6.776   2.010
   88TIP3   OH2  227   1.221   5.547   4.165
   88TIP3    H1  228   1.216   5.489   4.089
   88TIP3    H2  229   1.291   5.509   4.219
   89TIP3   OH2  230   6.784   5.877   4.027
   89TIP3    H1  231   6.878   5.888   4.012
   89TIP3    H2  232   6.767   5.784   4.007
   90TIP3   OH2  233   1.140   5.256   4.758
   90TIP3    H1  234   1.225   5.238   4.717
   90TIP3    H2  235   1.080   5.267   4.685
   91TIP3   OH2  236   2.607   2.626   5.561
   91TIP3    H1  237   2.636   2.545   5.518
   91TIP3    H2  238   2.683   2.655   5.610
   92TIP3   OH2  239   3.397   0.306   0.531
   92TIP3    H1  240   3.414   0.216   0.503
   92TIP3    H2  241   3.477   0.332   0.576
   93TIP3   OH2  242   7.092   5.466   3.784
   93TIP3    H1  243   7.057   5.467   3.695
   93TIP3    H2  244   7.144   5.386   3.789
   94TIP3   OH2  245   3.874   1.576   1.008
   94TIP3    H1  246   3.938   1.517   0.968
   94TIP3    H2  247   3.864   1.648   0.945
   95TIP3   OH2  248   3.557   4.498   4.904
   95TIP3    H1  249   3.644   4.483   4.867
   95TIP3    H2  250   3.546   4.429   4.969
   96TIP3   OH2  251   2.118   0.070   1.658
   96TIP3    H1  252   2.133   0.097   1.748
   96TIP3    H2  253   2.202   0.033   1.629
   97TIP3   OH2  254   5.734   0.053   3.662
   97TIP3    H1  255   5.767  -0.008   3.728
   97TIP3    H2  256   5.643   0.026   3.648
   98TIP3   OH2  257   0.307   1.702   2.144
   98TIP3    H1  258   0.360   1.642   2.092
   98TIP3    H2  259   0.370   1.766   2.178
   99TIP3   OH2  260   1.187   4.839   2.325
   99TIP3    H1  261   1.099   4.869   2.349
   99TIP3    H2  262   1.215   4.785   2.399
  100TIP3   OH2  263   3.168   3.084   0.816
  100TIP3    H1  264   3.210   2.998   0.809
  100TIP3    H2  265   3.206   3.123   0.894
  101TIP3   OH2  266   5.218   1.533   1.185
  101TIP3    H1  267   5.281   1.546   1.114
  101TIP3    H2  268   5.151   1.476   1.148
  102TIP3   OH2  269   2.428   0.783   2.133
  102TIP3    H1  270   2.448   0.858   2.188
  102TIP3    H2  271   2.513   0.751   2.104
  103TIP3   OH2  272   6.982   1.237   1.464
  103TIP3    H1  273   6.966   1.280   1.548
  103TIP3    H2  274   7.069   1.267   1.438
  104TIP3   OH2  275   5.752   2.604   5.823
  104TIP3    H1  276   5.806   2.525   5.819
  104TIP3    H2  277   5.663   2.572   5.811
  105TIP3   OH2  278   6.638   3.590   2.211
  105TIP3    H1  279   6.564   3.626   2.161
  105TIP3    H2  280   6.678   3.667   2.251
  106TIP3   OH2  281   3.180   2.177   4.592
  106TIP3    H1  282   3.184   2.227   4.510
  106TIP3    H2  283   3.152   2.089   4.566
  107TIP3   OH2  284   5.370   1.765   0.084
  107TIP3    H1  285   5.303   1.699   0.066
  107TIP3    H2  286   5.353   1.793   0.174
  108TIP3   OH2  287   3.572   2.601   2.823
  108TIP3    H1  288   3.648   2.565   2.777
  108TIP3    H2  289   3.609   2.642   2.901
  109TIP3   OH2  290   1.899   6.427   3.109
  109TIP3    H1  291   1.994   6.419   3.123
  109TIP3    H2  292   1.869   6.483   3.180
  110TIP3   OH2  293   1.575   0.618   1.923
  110TIP3    H1  294   1.628   0.541   1.900
  110TIP3    H2  295   1.485   0.588   1.917
  111TIP3   OH2  296   1.795   0.355   0.414
  111TIP3    H1  297   1.709   0.387   0.440
  111TIP3    H2  298   1.785   0.329   0.322
  112TIP3   OH2  299   7.144   1.178   5.563
  112TIP3    H1  300   7.173   1.220   5.482
  112TIP3    H2  301   7.221   1.132   5.596
  113TIP3   OH2  302   1.955   6.203   3.558
  113TIP3    H1  303   1.906   6.252   3.623
  113TIP3    H2  304   1.887   6.156   3.508
  114TIP3   OH2  305   2.452   0.602   4.510
  114TIP3    H1  306   2.415   0.526   4.465
  114TIP3    H2  307   2.411   0.677   4.466
  115TIP3   OH2  308   4.595   1.161   4.124
  115TIP3    H1  309   4.650   1.207   4.187
  115TIP3    H2  310   4.588   1.072   4.158
  116TIP3   OH2  311   3.999   3.430   0.699
  116TIP3    H1  312   4.058   3.386   0.761
  116TIP3    H2  313   4.036   3.411   0.613
  117TIP3   OH2  314   3.466   6.623   1.271
  117TIP3    H1  315   3.457   6.548   1.329
  117TIP3    H2  316   3.377   6.641   1.241
  118TIP3   OH2  317   0.368   5.120   5.291
  118TIP3    H1  318   0.378   5.026   5.277
  118TIP3    H2  319   0.302   5.146   5.227
  119TIP3   OH2  320   2.173   4.007   1.646
  119TIP3    H1  321   2.103   3.969   1.699
  119TIP3    H2  322   2.136   4.088   1.611
  120TIP3   OH2  323   2.648   0.899   2.676
  120TIP3    H1  324   2.711   0.966   2.702
  120TIP3    H2  325   2.606   0.873   2.758
  121TIP3   OH2  326   2.053   6.511   2.836
  121TIP3    H1  327   2.014   6.585   2.882
  121TIP3    H2  328   2.142   6.506   2.869
  122TIP3   OH2  329   6.668   3.538   2.923
  122TIP3    H1  330   6.671   3.443   2.924
  122TIP3    H2  331   6.639   3.560   2.834
  123TIP3   OH2  332   0.160   6.728   3.363
  123TIP3    H1  333   0.104   6.708   3.288
  123TIP3    H2  334   0.247   6.702   3.336
  124TIP3   OH2  335   6.164   1.193   1.320
  124TIP3    H1  336   6.175   1.102   1.291
  124TIP3    H2  337   6.223   1.243   1.263
  125TIP3   OH2  338   4.342   3.709   2.050
  125TIP3    H1  339   4.410   3.719   1.983
  125TIP3    H2  340   4.379   3.752   2.128
  126TIP3   OH2  341   0.812   5.545   3.805
  126TIP3    H1  342   0.808   5.539   3.709
  126TIP3    H2  343   0.847   5.633   3.821
  127TIP3   OH2  344   0.922   1.985   5.403
  127TIP3    H1  345   0.846   1.987   5.344
  127TIP3    H2  346   0.995   1.959   5.347
  128TIP3   OH2  347   3.818   0.472   3.742
  128TIP3    H1  348   3.898   0.425   3.718
  128TIP3    H2  349   3.846   0.563   3.754
  129TIP3   OH2  350   2.155   2.541   4.182
  129TIP3    H1  351   2.099   2.570   4.254
  129TIP3    H2  352   2.101   2.552   4.104
  130TIP3   OH2  353   1.801   4.559   5.301
  130TIP3    H1  354   1.866   4.599   5.243
  130TIP3    H2  355   1.818   4.598   5.387
  131TIP3   OH2  356   4.513   0.306   5.775
  131TIP3    H1  357   4.488   0.379   5.832
  131TIP3    H2  358   4.589   0.266   5.818
  132TIP3   OH2  359   5.844   3.059   3.679
  132TIP3    H1  360   5.798   3.097   3.754
  132TIP3    H2  361   5.853   2.966   3.701
  133TIP3   OH2  362   0.636   2.451   3.548
  133TIP3    H1  363   0.651   2.375   3.604
  133TIP3    H2  364   0.610   2.414   3.464
  134TIP3   OH2  365   1.625   3.920   1.608
  134TIP3    H1  366   1.651   3.829   1.621
  134TIP3    H2  367   1.601   3.926   1.516
  135TIP3   OH2  368   0.380   5.127   4.816
  135TIP3    H1  369   0.414   5.179   4.743
  135TIP3    H2  370   0.404   5.037   4.793
  136TIP3   OH2  371   3.876   4.454   5.287
  136TIP3    H1  372   3.958   4.414   5.316
  136TIP3    H2  373   3.850   4.402   5.211
  137TIP3   OH2  374   0.982   1.893   0.038
  137TIP3    H1  375   0.968   1.888   0.132
  137TIP3    H2  376   0.904   1.937   0.004
  138TIP3   OH2  377   4.512   1.220   0.418
  138TIP3    H1  378   4.496   1.134   0.457
  138TIP3    H2  379   4.539   1.275   0.492
  139TIP3   OH2  380   6.424   0.320   3.641
  139TIP3    H1  381   6.361   0.385   3.672
  139TIP3    H2  382   6.489   0.314   3.710
  140TIP3   OH2  383   2.532   1.219   0.589
  140TIP3    H1  384   2.525   1.170   0.507
  140TIP3    H2  385   2.449   1.203   0.633
  141TIP3   OH2  386   6.621   6.612   3.584
  141TIP3    H1  387   6.605   6.706   3.593
  141TIP3    H2  388   6.706   6.598   3.624
  142TIP3   OH2  389   0.719   5.182   3.254
  142TIP3    H1  390   0.746   5.091   3.241
  142TIP3    H2  391   0.789   5.234   3.216
  143TIP3   OH2  392   6.902   5.850   1.796
  143TIP3    H1  393   6.901   5.873   1.889
  143TIP3    H2  394   6.831   5.901   1.757
  144TIP3   OH2  395   1.470   4.520   1.565
  144TIP3    H1  396   1.508   4.466   1.634
  144TIP3    H2  397   1.485   4.610   1.594
  145TIP3   OH2  398   3.431   3.725   2.708
  145TIP3    H1  399   3.452   3.640   2.669
  145TIP3    H2  400   3.479   3.725   2.791
  146TIP3   OH2  401   1.132   3.480   0.333
  146TIP3    H1  402   1.141   3.536   0.257
  146TIP3    H2  403   1.213   3.494   0.383
  147TIP3   OH2  404   2.317   5.837   3.769
  147TIP3    H1  405   2.351   5.797   3.689
  147TIP3    H2  406   2.252   5.900   3.738
  148TIP3   OH2  407   5.711   0.376   2.640
  148TIP3    H1  408   5.687   0.290   2.605
  148TIP3    H2  409   5.723   0.431   2.563
  149TIP3   OH2  410   6.649   2.113   4.244
  149TIP3    H1  411   6.603   2.133   4.325
  149TIP3    H2  412   6.740   2.138   4.261
  150TIP3   OH2  413   0.297   4.546   2.405
  150TIP3    H1  414   0.383   4.561   2.366
  150TIP3    H2  415   0.299   4.454   2.431
  151TIP3   OH2  416   6.107   1.154   3.520
  151TIP3    H1  417   6.160   1.113   3.452
  151TIP3    H2  418   6.017   1.146   3.489
  152TIP3   OH2  419   6.805   5.343   1.092
  152TIP3    H1  420   6.846   5.271   1.141
  152TIP3    H2  421   6.845   5.338   1.005
  153TIP3   OH2  422   2.190   3.758   3.380
  153TIP3    H1  423   2.280   3.787   3.366
  153TIP3    H2  424   2.148   3.770   3.295
  154TIP3   OH2  425   6.907   6.763   3.002
  154TIP3    H1  426   6.961   6.773   3.081
  154TIP3    H2  427   6.929   6.676   2.969
  155TIP3   OH2  428   4.598   5.278   5.632
  155TIP3    H1  429   4.552   5.194   5.625
  155TIP3    H2  430   4.689   5.257   5.612
  156TIP3   OH2  431   4.120   2.501   2.407
  156TIP3    H1  432   4.036   2.474   2.444
  156TIP3    H2  433   4.097   2.552   2.329
  157TIP3   OH2  434   5.787   4.642   5.342
  157TIP3    H1  435   5.703   4.656   5.298
  157TIP3    H2  436   5.822   4.730   5.354
  158TIP3   OH2  437   3.745   0.269   3.941
  158TIP3    H1  438   3.730   0.326   3.865
  158TIP3    H2  439   3.830   0.297   3.975
  159TIP3   OH2  440   6.481   0.069   0.785
  159TIP3    H1  441   6.469   0.031   0.698
  159TIP3    H2  442   6.531   0.004   0.834
  160TIP3   OH2  443   2.799   5.206   0.166
  160TIP3    H1  444   2.879   5.218   0.115
  160TIP3    H2  445   2.794   5.284   0.222
  161TIP3   OH2  446  -0.022   1.740   0.870
  161TIP3    H1  447   0.067   1.705   0.871
  161TIP3    H2  448  -0.060   1.706   0.790
  162TIP3   OH2  449   4.588   1.634   3.992
  162TIP3    H1  450   4.654   1.652   3.926
  162TIP3    H2  451   4.604   1.698   4.061
  163TIP3   OH2  452   0.610   6.123   4.838
  163TIP3    H1  453   0.675   6.097   4.903
  163TIP3    H2  454   0.658   6.182   4.779
  164TIP3   OH2  455   5.405   4.735   0.803
  164TIP3    H1  456   5.344   4.714   0.732
  164TIP3    H2  457   5.377   4.821   0.834
  165TIP3   OH2  458   0.522   1.732   5.030
  165TIP3    H1  459   0.560   1.756   5.115
  165TIP3    H2  460   0.521   1.637   5.029
  166TIP3   OH2  461   5.022   5.969   4.353
  166TIP3    H1  462   5.002   5.875   4.357
  166TIP3    H2  463   5.115   5.973   4.333
  167TIP3   OH2  464   5.741   3.066   0.912
  167TIP3    H1  465   5.744   2.970   0.909
  167TIP3    H2  466   5.695   3.090   0.831
  168TIP3   OH2  467   4.103   4.436   2.056
  168TIP3    H1  468   4.129   4.422   2.146
  168TIP3    H2  469   4.161   4.379   2.005
  169TIP3   OH2  470   0.619   4.419   2.978
  169TIP3    H1  471   0.605   4.513   2.992
  169TIP3    H2  472   0.683   4.394   3.044
  170TIP3   OH2  473   5.883   1.810   0.466
  170TIP3    H1  474   5.921   1.722   0.469
  170TIP3    H2  475   5.883   1.839   0.558
  171TIP3   OH2  476   2.556   3.546   4.438
  171TIP3    H1  477   2.544   3.560   4.532
  171TIP3    H2  478   2.632   3.488   4.432
  172TIP3   OH2  479   4.102   2.383   4.594
  172TIP3    H1  480   4.091   2.295   4.630
  172TIP3    H2  481   4.040   2.437   4.644
  173TIP3   OH2  482   6.168   0.034   5.847
  173TIP3    H1  483   6.216  -0.037   5.890
  173TIP3    H2  484   6.231   0.106   5.843
  174TIP3   OH2  485   0.365   6.438   3.098
  174TIP3    H1  486   0.456   6.452   3.124
  174TIP3    H2  487   0.335   6.525   3.070
  175TIP3   OH2  488   4.869   6.751   1.298
  175TIP3    H1  489   4.821   6.796   1.368
  175TIP3    H2  490   4.939   6.704   1.344
  176TIP3   OH2  491   4.535   0.360   0.387
  176TIP3    H1  492   4.478   0.307   0.443
  176TIP3    H2  493   4.618   0.312   0.384
  177TIP3   OH2  494   3.718   5.904   4.061
  177TIP3    H1  495   3.795   5.900   4.003
  177TIP3    H2  496   3.688   5.995   4.055
  178TIP3   OH2  497   3.320   3.873   2.488
  178TIP3    H1  498   3.393   3.842   2.434
  178TIP3    H2  499   3.347   3.853   2.578
  179TIP3   OH2  500   6.795   5.709   3.716
  179TIP3    H1  501   6.760   5.624   3.742
  179TIP3    H2  502   6.884   5.710   3.751
  180TIP3   OH2  503   0.700   1.513   2.037
  180TIP3    H1  504   0.711   1.450   2.108
  180TIP3    H2  505   0.678   1.459   1.961
  181TIP3   OH2  506   0.622   0.283   3.012
  181TIP3    H1  507   0.625   0.196   3.053
  181TIP3    H2  508   0.671   0.339   3.072
  182TIP3   OH2  509   0.831   1.252   2.676
  182TIP3    H1  510   0.807   1.231   2.766
  182TIP3    H2  511   0.890   1.327   2.683
  183TIP3   OH2  512   5.512   0.260   3.017
  183TIP3    H1  513   5.452   0.326   3.049
  183TIP3    H2  514   5.458   0.182   3.005
  184TIP3   OH2  515   3.131   0.330   3.175
  184TIP3    H1  516   3.071   0.257   3.163
  184TIP3    H2  517   3.075   0.408   3.172
  185TIP3   OH2  518   2.104   1.114   0.456
  185TIP3    H1  519   2.065   1.202   0.454
  185TIP3    H2  520   2.042   1.059   0.410
  186TIP3   OH2  521   2.629   2.027   2.250
  186TIP3    H1  522   2.557   1.964   2.252
  186TIP3    H2  523   2.705   1.978   2.281
  187TIP3   OH2  524   1.689   4.599   4.438
  187TIP3    H1  525   1.706   4.538   4.366
  187TIP3    H2  526   1.756   4.666   4.429
  188TIP3   OH2  527   0.855   5.322   1.981
  188TIP3    H1  528   0.882   5.361   1.898
  188TIP3    H2  529   0.934   5.325   2.035
  189TIP3   OH2  530   6.928   2.113   4.367
  189TIP3    H1  531   6.910   2.084   4.456
  189TIP3    H2  532   6.961   2.202   4.377
  190TIP3   OH2  533   4.288   3.247   0.028
  190TIP3    H1  534   4.367   3.267   0.078
  190TIP3    H2  535   4.270   3.155   0.046
  191TIP3   OH2  536   2.654   4.370   2.633
  191TIP3    H1  537   2.634   4.442   2.574
  191TIP3    H2  538   2.741   4.340   2.605
  192TIP3   OH2  539   6.917   6.347   1.398
  192TIP3    H1  540   6.942   6.324   1.488
  192TIP3    H2  541   6.829   6.311   1.387
  193TIP3   OH2  542   4.993   1.944   4.927
  193TIP3    H1  543   4.922   2.006   4.941
  193TIP3    H2  544   4.995   1.930   4.832
  194TIP3   OH2  545  -0.007   4.004   0.652
  194TIP3    H1  546   0.002   3.960   0.568
  194TIP3    H2  547   0.038   3.947   0.715
  195TIP3   OH2  548   1.504   0.899   1.507
  195TIP3    H1  549   1.592   0.896   1.545
  195TIP3    H2  550   1.450   0.940   1.575
  196TIP3   OH2  551   4.971   2.882   4.068
  196TIP3    H1  552   4.918   2.962   4.058
  196TIP3    H2  553   4.928   2.819   4.010
  197TIP3   OH2  554   4.727   1.893   0.478
  197TIP3    H1  555   4.728   1.939   0.394
  197TIP3    H2  556   4.652   1.928   0.524
  198TIP3   OH2  557   1.529   6.443   3.075
  198TIP3    H1  558   1.490   6.523   3.040
  198TIP3    H2  559   1.616   6.440   3.037
  199TIP3   OH2  560   5.301   1.353   0.433
  199TIP3    H1  561   5.284   1.266   0.397
  199TIP3    H2  562   5.243   1.359   0.509
  200TIP3   OH2  563   4.323   1.829   3.826
  200TIP3    H1  564   4.284   1.817   3.912
  200TIP3    H2  565   4.262   1.887   3.780
  201TIP3   OH2  566   3.627   4.961   3.388
  201TIP3    H1  567   3.679   5.034   3.421
  201TIP3    H2  568   3.684   4.917   3.326
  202TIP3   OH2  569   1.160   1.455   1.919
  202TIP3    H1  570   1.087   1.517   1.927
  202TIP3    H2  571   1.229   1.505   1.876
  203TIP3   OH2  572   0.032   1.776   1.342
  203TIP3    H1  573   0.008   1.818   1.259
  203TIP3    H2  574  -0.044   1.792   1.399
  204TIP3   OH2  575   0.980   1.673   1.951
  204TIP3    H1  576   1.041   1.742   1.924
  204TIP3    H2  577   0.893   1.708   1.929
  205TIP3   OH2  578   5.070   2.750   3.313
  205TIP3    H1  579   5.030   2.748   3.226
  205TIP3    H2  580   5.146   2.693   3.305
  206TIP3   OH2  581   1.027   4.320   3.848
  206TIP3    H1  582   0.982   4.239   3.875
  206TIP3    H2  583   1.119   4.303   3.864
  207TIP3   OH2  584   2.524   1.192   4.405
  207TIP3    H1  585   2.489   1.104   4.400
  207TIP3    H2  586   2.448   1.248   4.422
  208TIP3   OH2  587   1.973   3.416   0.571
  208TIP3    H1  588   2.015   3.476   0.510
  208TIP3    H2  589   2.039   3.348   0.587
  209TIP3   OH2  590   6.835   4.404   0.477
  209TIP3    H1  591   6.779   4.338   0.516
  209TIP3    H2  592   6.883   4.442   0.551
  210TIP3   OH2  593   0.501   6.461   3.954
  210TIP3    H1  594   0.487   6.372   3.986
  210TIP3    H2  595   0.423   6.509   3.982
  211TIP3   OH2  596   4.941   1.911   0.932
  211TIP3    H1  597   4.929   1.932   0.839
  211TIP3    H2  598   4.992   1.830   0.931
  212TIP3   OH2  599   0.270   5.137   3.924
  212TIP3    H1  600   0.365   5.128   3.916
  212TIP3    H2  601   0.234   5.067   3.870
  213TIP3   OH2  602   2.122   3.082   4.323
  213TIP3    H1  603   2.090   3.171   4.309
  213TIP3    H2  604   2.160   3.083   4.411
  214TIP3   OH2  605   7.124   2.408   2.640
  214TIP3    H1  606   7.087   2.405   2.728
  214TIP3    H2  607   7.048   2.419   2.582
  215TIP3   OH2  608   6.748   0.045   4.003
  215TIP3    H1  609   6.784   0.116   3.951
  215TIP3    H2  610   6.741   0.081   4.092
  216TIP3   OH2  611   0.099   0.550   3.199
  216TIP3    H1  612   0.011   0.584   3.183
  216TIP3    H2  613   0.102   0.536   3.294
  217TIP3   OH2  614   0.583   0.395   0.174
  217TIP3    H1  615   0.542   0.337   0.109
  217TIP3    H2  616   0.615   0.469   0.123
  218TIP3   OH2  617   2.116   0.649   4.425
  218TIP3    H1  618   2.123   0.729   4.372
  218TIP3    H2  619   2.060   0.591   4.374
  219TIP3   OH2  620   4.407   1.984   0.974
  219TIP3    H1  621   4.382   2.008   1.063
  219TIP3    H2  622   4.496   1.950   0.982
  220TIP3   OH2  623   1.383   0.822   0.050
  220TIP3    H1  624   1.370   0.790  -0.039
  220TIP3    H2  625   1.466   0.784   0.077
  221TIP3   OH2  626   6.953   3.881   4.750
  221TIP3    H1  627   7.044   3.866   4.777
  221TIP3    H2  628   6.935   3.971   4.776
  222TIP3   OH2  629   5.837   4.669   2.397
  222TIP3    H1  630   5.755   4.622   2.412
  222TIP3    H2  631   5.894   4.643   2.470
  223TIP3   OH2  632   4.275   2.066   3.165
  223TIP3    H1  633   4.214   2.046   3.094
  223TIP3    H2  634   4.297   1.981   3.203
  224TIP3   OH2  635   2.726   6.337   1.498
  224TIP3    H1  636   2.667   6.344   1.573
  224TIP3    H2  637   2.712   6.249   1.464
  225TIP3   OH2  638   2.181   6.632   4.744
  225TIP3    H1  639   2.274   6.610   4.747
  225TIP3    H2  640   2.166   6.681   4.825
  226TIP3   OH2  641   5.648   1.431   5.391
  226TIP3    H1  642   5.665   1.521   5.418
  226TIP3    H2  643   5.587   1.397   5.458
  227TIP3   OH2  644   1.465   6.485   0.211
  227TIP3    H1  645   1.492   6.400   0.246
  227TIP3    H2  646   1.475   6.545   0.284
  228TIP3   OH2  647   3.932   4.046   2.543
  228TIP3    H1  648   3.871   4.029   2.471
  228TIP3    H2  649   4.001   4.099   2.503
  229TIP3   OH2  650   2.949   0.048   3.598
  229TIP3    H1  651   3.034   0.009   3.619
  229TIP3    H2  652   2.954   0.136   3.636
  230TIP3   OH2  653   5.092   0.714   2.631
  230TIP3    H1  654   5.006   0.685   2.660
  230TIP3    H2  655   5.141   0.728   2.713
  231TIP3   OH2  656   4.088   0.365   0.639
  231TIP3    H1  657   4.090   0.461   0.642
  231TIP3    H2  658   4.037   0.340   0.716
  232TIP3   OH2  659   6.137   1.893   3.567
  232TIP3    H1  660   6.171   1.809   3.536
  232TIP3    H2  661   6.202   1.957   3.538
  233TIP3   OH2  662   2.092   1.154   5.874
  233TIP3    H1  663   2.052   1.072   5.845
  233TIP3    H2  664   2.022   1.201   5.919
  234TIP3   OH2  665   3.548   2.332   1.800
  234TIP3    H1  666   3.545   2.402   1.735
  234TIP3    H2  667   3.621   2.276   1.772
  235TIP3   OH2  668   4.732   5.612   1.556
  235TIP3    H1  669   4.739   5.707   1.551
  235TIP3    H2  670   4.640   5.595   1.574
  236TIP3   OH2  671   0.850   6.380   4.118
  236TIP3    H1  672   0.801   6.439   4.061
  236TIP3    H2  673   0.942   6.402   4.102
  237TIP3   OH2  674   2.069   5.939   5.403
  237TIP3    H1  675   2.101   5.872   5.464
  237TIP3    H2  676   2.120   6.017   5.424
  238TIP3   OH2  677   5.623   1.856   5.337
  238TIP3    H1  678   5.583   1.916   5.400
  238TIP3    H2  679   5.631   1.907   5.257
  239TIP3   OH2  680   5.756   6.293   0.680
  239TIP3    H1  681   5.790   6.268   0.767
  239TIP3    H2  682   5.686   6.230   0.663
  240TIP3   OH2  683   5.393   2.462   1.169
  240TIP3    H1  684   5.309   2.417   1.165
  240TIP3    H2  685   5.372   2.555   1.176
  241TIP3   OH2  686   2.279   5.470   2.621
  241TIP3    H1  687   2.301   5.428   2.537
  241TIP3    H2  688   2.356   5.455   2.675
  242TIP3   OH2  689   4.109   2.985   3.852
  242TIP3    H1  690   4.035   2.932   3.824
  242TIP3    H2  691   4.071   3.047   3.914
  243TIP3   OH2  692   1.855   4.026   2.756
  243TIP3    H1  693   1.909   4.097   2.792
  243TIP3    H2  694   1.836   3.971   2.831
  244TIP3   OH2  695   0.774   0.675   1.415
  244TIP3    H1  696   0.719   0.749   1.389
  244TIP3    H2  697   0.773   0.675   1.510
  245TIP3   OH2  698   2.736   5.539   3.684
  245TIP3    H1  699   2.812   5.552   3.626
  245TIP3    H2  700   2.669   5.597   3.649
  246TIP3   OH2  701   2.371   0.348   0.099
  246TIP3    H1  702   2.406   0.260   0.114
  246TIP3    H2  703   2.283   0.345   0.137
  247TIP3   OH2  704   5.180   1.731   2.466
  247TIP3    H1  705   5.204   1.824   2.469
  247TIP3    H2  706   5.098   1.729   2.417
  248TIP3   OH2  707   4.441   5.151   4.609
  248TIP3    H1  708   4.460   5.071   4.659
  248TIP3    H2  709   4.361   5.186   4.649
  249TIP3   OH2  710   1.820   2.212   5.843
  249TIP3    H1  711   1.854   2.194   5.931
  249TIP3    H2  712   1.893   2.191   5.785
  250TIP3   OH2  713   4.549   0.553   2.235
  250TIP3    H1  714   4.505   0.522   2.313
  250TIP3    H2  715   4.635   0.511   2.236
  251TIP3   OH2  716   5.894   5.441   1.773
  251TIP3    H1  717   5.817   5.496   1.790
  251TIP3    H2  718   5.944   5.446   1.855
  252TIP3   OH2  719   1.860   0.187   5.416
  252TIP3    H1  720   1.897   0.116   5.468
  252TIP3    H2  721   1.770   0.159   5.397
  253TIP3   OH2  722   2.986   2.824   1.840
  253TIP3    H1  723   3.009   2.765   1.913
  253TIP3    H2  724   3.069   2.841   1.796
  254TIP3   OH2  725   6.233   4.158   0.283
  254TIP3    H1  726   6.273   4.121   0.361
  254TIP3    H2  727   6.185   4.085   0.243
  255TIP3   OH2  728   3.709   3.877   0.721
  255TIP3    H1  729   3.752   3.797   0.750
  255TIP3    H2  730   3.618   3.866   0.745
  256TIP3   OH2  731   4.357   4.629   5.732
  256TIP3    H1  732   4.332   4.658   5.644
  256TIP3    H2  733   4.435   4.576   5.718
  257TIP3   OH2  734   6.725   1.639   5.793
  257TIP3    H1  735   6.658   1.707   5.788
  257TIP3    H2  736   6.804   1.685   5.820
  258TIP3   OH2  737   5.374   3.870   5.134
  258TIP3    H1  738   5.404   3.946   5.183
  258TIP3    H2  739   5.318   3.906   5.065
  259TIP3   OH2  740   4.865   6.606   2.798
  259TIP3    H1  741   4.931   6.536   2.793
  259TIP3    H2  742   4.905   6.674   2.852
  260TIP3   OH2  743   1.699   4.153   0.496
  260TIP3    H1  744   1.754   4.190   0.564
  260TIP3    H2  745   1.615   4.136   0.539
  261TIP3   OH2  746   1.768   0.122   2.552
  261TIP3    H1  747   1.791   0.112   2.459
  261TIP3    H2  748   1.834   0.182   2.586
  262TIP3   OH2  749   5.051   6.693   0.020
  262TIP3    H1  750   5.109   6.767   0.041
  262TIP3    H2  751   5.068   6.629   0.089
  263TIP3   OH2  752   5.631   0.717   1.768
  263TIP3    H1  753   5.677   0.753   1.843
  263TIP3    H2  754   5.657   0.625   1.765
  264TIP3   OH2  755   2.788   6.454   4.035
  264TIP3    H1  756   2.757   6.454   3.945
  264TIP3    H2  757   2.845   6.531   4.041
  265TIP3   OH2  758   7.037   1.858   1.527
  265TIP3    H1  759   6.999   1.783   1.573
  265TIP3    H2  760   6.985   1.866   1.447
  266TIP3   OH2  761   0.455   1.098   1.489
  266TIP3    H1  762   0.472   1.180   1.536
  266TIP3    H2  763   0.362   1.103   1.466
  267TIP3   OH2  764   3.367   0.179   4.727
  267TIP3    H1  765   3.388   0.252   4.669
  267TIP3    H2  766   3.431   0.185   4.798
  268TIP3   OH2  767   5.527   3.581   2.240
  268TIP3    H1  768   5.487   3.512   2.186
  268TIP3    H2  769   5.582   3.533   2.302
  269TIP3   OH2  770   4.678   1.641   5.767
  269TIP3    H1  771   4.666   1.587   5.845
  269TIP3    H2  772   4.772   1.640   5.750
  270TIP3   OH2  773   4.069   2.951   2.080
  270TIP3    H1  774   3.979   2.952   2.113
  270TIP3    H2  775   4.110   2.876   2.123
  271TIP3   OH2  776   2.345   6.247   2.598
  271TIP3    H1  777   2.303   6.203   2.672
  271TIP3    H2  778   2.350   6.339   2.625
  272TIP3   OH2  779   2.734   6.228   4.505
  272TIP3    H1  780   2.723   6.222   4.410
  272TIP3    H2  781   2.704   6.144   4.538
  273TIP3   OH2  782   1.317   6.145   2.430
  273TIP3    H1  783   1.268   6.213   2.385
  273TIP3    H2  784   1.289   6.064   2.387
  274TIP3   OH2  785   3.128   1.109   4.125
  274TIP3    H1  786   3.177   1.030   4.099
  274TIP3    H2  787   3.078   1.133   4.047
  275TIP3   OH2  788   3.794   4.703   0.406
  275TIP3    H1  789   3.843   4.746   0.336
  275TIP3    H2  790   3.714   4.671   0.364
  276TIP3   OH2  791   0.405   2.747   4.589
  276TIP3    H1  792   0.317   2.710   4.587
  276TIP3    H2  793   0.447   2.707   4.665
  277TIP3   OH2  794   1.979   2.008   0.116
  277TIP3    H1  795   2.059   1.966   0.087
  277TIP3    H2  796   1.966   1.978   0.206
  278TIP3   OH2  797   3.474   5.503   3.380
  278TIP3    H1  798   3.480   5.563   3.306
  278TIP3    H2  799   3.395   5.530   3.427
  279TIP3   OH2  800   4.869   2.257   3.293
  279TIP3    H1  801   4.926   2.189   3.258
  279TIP3    H2  802   4.789   2.250   3.241
  280TIP3   OH2  803   2.403   0.744   5.196
  280TIP3    H1  804   2.334   0.707   5.251
  280TIP3    H2  805   2.442   0.668   5.152
  281TIP3   OH2  806   1.402   0.520   3.881
  281TIP3    H1  807   1.357   0.479   3.954
  281TIP3    H2  808   1.366   0.478   3.803
  282TIP3   OH2  809   4.491   4.299   2.963
  282TIP3    H1  810   4.572   4.335   2.928
  282TIP3    H2  811   4.510   4.284   3.056
  283TIP3   OH2  812   2.056   1.814   1.408
  283TIP3    H1  813   2.010   1.762   1.341
  283TIP3    H2  814   2.133   1.762   1.429
  284TIP3   OH2  815   0.939   4.063   5.082
  284TIP3    H1  816   1.005   4.032   5.144
  284TIP3    H2  817   0.983   4.063   4.997
  285TIP3   OH2  818   0.569   0.295   5.096
  285TIP3    H1  819   0.589   0.388   5.088
  285TIP3    H2  820   0.545   0.268   5.007
  286TIP3   OH2  821   5.550   0.032   3.941
  286TIP3    H1  822   5.643   0.023   3.962
  286TIP3    H2  823   5.535   0.127   3.943
  287TIP3   OH2  824   5.657   2.384   4.162
  287TIP3    H1  825   5.581   2.442   4.164
  287TIP3    H2  826   5.721   2.427   4.220
  288TIP3   OH2  827   5.040   3.139   1.805
  288TIP3    H1  828   5.065   3.225   1.840
  288TIP3    H2  829   4.952   3.124   1.839
  289TIP3   OH2  830   3.364   4.239   0.793
  289TIP3    H1  831   3.353   4.193   0.710
  289TIP3    H2  832   3.441   4.198   0.833
  290TIP3   OH2  833   1.651   6.080   1.438
  290TIP3    H1  834   1.687   6.147   1.379
  290TIP3    H2  835   1.676   6.109   1.525
  291TIP3   OH2  836   6.245   1.712   2.468
  291TIP3    H1  837   6.190   1.750   2.399
  291TIP3    H2  838   6.265   1.624   2.437
  292TIP3   OH2  839   5.682   1.471   4.361
  292TIP3    H1  840   5.610   1.431   4.410
  292TIP3    H2  841   5.686   1.561   4.395
  293TIP3   OH2  842   5.838   2.429   1.788
  293TIP3    H1  843   5.763   2.464   1.741
  293TIP3    H2  844   5.800   2.375   1.857
  294TIP3   OH2  845  -0.049   2.382   3.378
  294TIP3    H1  846  -0.068   2.440   3.451
  294TIP3    H2  847   0.042   2.401   3.355
  295TIP3   OH2  848   1.957   0.756   3.213
  295TIP3    H1  849   1.986   0.845   3.234
  295TIP3    H2  850   1.862   0.764   3.202
  296TIP3   OH2  851   4.690   4.409   1.357
  296TIP3    H1  852   4.768   4.436   1.405
  296TIP3    H2  853   4.656   4.490   1.320
  297TIP3   OH2  854   3.643   2.766   2.147
  297TIP3    H1  855   3.711   2.723   2.095
  297TIP3    H2  856   3.677   2.854   2.163
  298TIP3   OH2  857   6.328   3.126   2.130
  298TIP3    H1  858   6.292   3.168   2.052
  298TIP3    H2  859   6.267   3.147   2.200
  299TIP3   OH2  860   5.927   4.513   4.254
  299TIP3    H1  861   5.894   4.423   4.258
  299TIP3    H2  862   5.913   4.539   4.163
  300TIP3   OH2  863   1.092   6.128   4.228
  300TIP3    H1  864   1.050   6.179   4.158
  300TIP3    H2  865   1.185   6.131   4.206
  301TIP3   OH2  866   5.424   3.969   5.418
  301TIP3    H1  867   5.405   3.879   5.444
  301TIP3    H2  868   5.497   3.962   5.357
  302TIP3   OH2  869   3.204   3.444   3.275
  302TIP3    H1  870   3.258   3.516   3.242
  302TIP3    H2  871   3.266   3.377   3.304
  303TIP3   OH2  872   1.914   0.506   4.315
  303TIP3    H1  873   1.866   0.466   4.243
  303TIP3    H2  874   1.868   0.478   4.394
  304TIP3   OH2  875   0.602   3.079   5.345
  304TIP3    H1  876   0.584   3.145   5.278
  304TIP3    H2  877   0.525   3.079   5.400
  305TIP3   OH2  878   4.683   3.516   0.021
  305TIP3    H1  879   4.637   3.476   0.096
  305TIP3    H2  880   4.704   3.442  -0.036
  306TIP3   OH2  881   3.108   1.118   4.498
  306TIP3    H1  882   3.144   1.040   4.455
  306TIP3    H2  883   3.017   1.095   4.517
  307TIP3   OH2  884   6.659   5.299   4.646
  307TIP3    H1  885   6.671   5.392   4.666
  307TIP3    H2  886   6.613   5.264   4.723
  308TIP3   OH2  887   0.479   3.226   0.153
  308TIP3    H1  888   0.466   3.305   0.205
  308TIP3    H2  889   0.390   3.197   0.131
  309TIP3   OH2  890   3.827   5.578   1.923
  309TIP3    H1  891   3.888   5.508   1.902
  309TIP3    H2  892   3.882   5.653   1.946
  310TIP3   OH2  893   0.423   0.882   3.021
  310TIP3    H1  894   0.393   0.792   3.019
  310TIP3    H2  895   0.405   0.916   2.934
  311TIP3   OH2  896   6.627   0.757   2.921
  311TIP3    H1  897   6.709   0.734   2.964
  311TIP3    H2  898   6.635   0.851   2.904
  312TIP3   OH2  899   3.592   6.112   2.737
  312TIP3    H1  900   3.577   6.037   2.680
  312TIP3    H2  901   3.576   6.079   2.825
  313TIP3   OH2  902   1.736   3.134   4.389
  313TIP3    H1  903   1.756   3.206   4.330
  313TIP3    H2  904   1.656   3.161   4.434
  314TIP3   OH2  905   2.830   1.018   4.523
  314TIP3    H1  906   2.855   0.929   4.548
  314TIP3    H2  907   2.745   1.031   4.566
  315TIP3   OH2  908   3.908   4.812   2.697
  315TIP3    H1  909   3.967   4.778   2.630
  315TIP3    H2  910   3.942   4.899   2.718
  316TIP3   OH2  911   5.962   0.527   4.161
  316TIP3    H1  912   5.901   0.600   4.149
  316TIP3    H2  913   5.939   0.466   4.092
  317TIP3   OH2  914   0.453   6.306   0.489
  317TIP3    H1  915   0.472   6.272   0.401
  317TIP3    H2  916   0.367   6.269   0.510
  318TIP3   OH2  917   1.888   0.705   4.627
  318TIP3    H1  918   1.944   0.760   4.573
  318TIP3    H2  919   1.949   0.657   4.684
  319TIP3   OH2  920   2.494   2.232   0.888
  319TIP3    H1  921   2.434   2.302   0.915
  319TIP3    H2  922   2.570   2.279   0.854
  320TIP3   OH2  923   0.458   2.707   0.821
  320TIP3    H1  924   0.545   2.667   0.829
  320TIP3    H2  925   0.465   2.788   0.872
  321TIP3   OH2  926   4.145   1.714   1.116
  321TIP3    H1  927   4.230   1.691   1.154
  321TIP3    H2  928   4.134   1.652   1.044
  322TIP3   OH2  929   2.706   3.223   4.598
  322TIP3    H1  930   2.776   3.263   4.548
  322TIP3    H2  931   2.663   3.163   4.537
  323TIP3   OH2  932   2.147   5.912   0.754
  323TIP3    H1  933   2.163   5.830   0.801
  323TIP3    H2  934   2.164   5.891   0.662
  324TIP3   OH2  935   0.810   1.371   4.609
  324TIP3    H1  936   0.846   1.439   4.667
  324TIP3    H2  937   0.772   1.420   4.536
  325TIP3   OH2  938   1.848   5.122   3.807
  325TIP3    H1  939   1.879   5.040   3.846
  325TIP3    H2  940   1.927   5.172   3.791
  326TIP3   OH2  941   6.276   6.316   0.149
  326TIP3    H1  942   6.203   6.340   0.092
  326TIP3    H2  943   6.248   6.341   0.237
  327TIP3   OH2  944   6.349   6.648   1.486
  327TIP3    H1  945   6.293   6.724   1.501
  327TIP3    H2  946   6.288   6.576   1.467
  328TIP3   OH2  947   3.655   3.842   4.073
  328TIP3    H1  948   3.598   3.853   4.150
  328TIP3    H2  949   3.743   3.856   4.107
  329TIP3   OH2  950   2.857   0.960   4.202
  329TIP3    H1  951   2.906   0.902   4.261
  329TIP3    H2  952   2.923   0.994   4.141
  330TIP3   OH2  953   3.839   2.465   3.015
  330TIP3    H1  954   3.764   2.407   2.998
  330TIP3    H2  955   3.818   2.508   3.097
  331TIP3   OH2  956   1.273   2.011   3.135
  331TIP3    H1  957   1.191   1.997   3.088
  331TIP3    H2  958   1.266   1.957   3.213
  332TIP3   OH2  959   5.113   1.133   5.382
  332TIP3    H1  960   5.113   1.136   5.477
  332TIP3    H2  961   5.038   1.186   5.356
  333TIP3   OH2  962   7.073   5.894   4.072
  333TIP3    H1  963   7.168   5.883   4.063
  333TIP3    H2  964   7.049   5.837   4.145
  334TIP3   OH2  965   5.159   5.080   2.936
  334TIP3    H1  966   5.221   5.070   2.864
  334TIP3    H2  967   5.173   5.002   2.991
  335TIP3   OH2  968   0.589   0.573   5.158
  335TIP3    H1  969   0.524   0.640   5.176
  335TIP3    H2  970   0.649   0.577   5.232
  336TIP3   OH2  971   1.464   4.147   5.197
  336TIP3    H1  972   1.519   4.075   5.167
  336TIP3    H2  973   1.522   4.224   5.195
  337TIP3   OH2  974   0.617   0.721   2.041
  337TIP3    H1  975   0.530   0.705   2.078
  337TIP3    H2  976   0.604   0.794   1.980
  338TIP3   OH2  977   1.100   4.710   0.924
  338TIP3    H1  978   1.048   4.635   0.898
  338TIP3    H2  979   1.131   4.689   1.012
  339TIP3   OH2  980   3.836   0.549   0.467
  339TIP3    H1  981   3.834   0.479   0.401
  339TIP3    H2  982   3.924   0.586   0.459
  340TIP3   OH2  983   2.764   0.269   5.651
  340TIP3    H1  984   2.690   0.266   5.712
  340TIP3    H2  985   2.780   0.177   5.628
  341TIP3   OH2  986   1.686   0.365   1.528
  341TIP3    H1  987   1.740   0.286   1.518
  341TIP3    H2  988   1.597   0.332   1.540
  342TIP3   OH2  989   4.977   4.672   4.215
  342TIP3    H1  990   4.920   4.742   4.247
  342TIP3    H2  991   4.993   4.617   4.291
  343TIP3   OH2  992   2.922   4.367   5.051
  343TIP3    H1  993   2.832   4.389   5.028
  343TIP3    H2  994   2.934   4.277   5.019
  344TIP3   OH2  995   5.901   0.141   1.767
  344TIP3    H1  996   5.812   0.166   1.794
  344TIP3    H2  997   5.886   0.077   1.697
  345TIP3   OH2  998   3.037   3.998   4.736
  345TIP3    H1  999   3.074   3.976   4.822
  345TIP3    H2 1000   2.943   4.006   4.752
  346TIP3   OH2 1001   7.062   0.047   2.946
  346TIP3    H1 1002   7.053  -0.041   2.910
  346TIP3    H2 1003   7.082   0.033   3.039
  347TIP3   OH2 1004   0.619   1.764   0.060
  347TIP3    H1 1005   0.537   1.794   0.101
  347TIP3    H2 1006   0.592   1.692   0.003
  348TIP3   OH2 1007   5.671   6.027   0.395
  348TIP3    H1 1008   5.647   5.954   0.338
  348TIP3    H2 1009   5.732   6.079   0.343
  349TIP3   OH2 1010   5.484   5.030   1.886
  349TIP3    H1 1011   5.452   4.944   1.859
  349TIP3    H2 1012   5.546   5.011   1.957
  350TIP3   OH2 1013   2.525   3.565   5.190
  350TIP3    H1 1014   2.575   3.584   5.110
  350TIP3    H2 1015   2.433   3.580   5.165
  351TIP3   OH2 1016   5.849   2.352   5.683
  351TIP3    H1 1017   5.780   2.325   5.622
  351TIP3    H2 1018   5.831   2.304   5.763
  352TIP3   OH2 1019   4.379   5.836   3.956
  352TIP3    H1 1020   4.457   5.825   3.902
  352TIP3    H2 1021   4.346   5.923   3.933
  353TIP3   OH2 1022   5.366   2.955   0.734
  353TIP3    H1 1023   5.374   3.014   0.659
  353TIP3    H2 1024   5.329   2.875   0.698
  354TIP3   OH2 1025   0.174   4.835   5.815
  354TIP3    H1 1026   0.098   4.887   5.842
  354TIP3    H2 1027   0.139   4.769   5.756
  355TIP3   OH2 1028   6.966   0.790   4.695
  355TIP3    H1 1029   6.948   0.823   4.782
  355TIP3    H2 1030   6.996   0.700   4.709
  356TIP3   OH2 1031   3.102   1.212   1.727
  356TIP3    H1 1032   3.040   1.214   1.655
  356TIP3    H2 1033   3.175   1.158   1.696
  357TIP3   OH2 1034   6.876   3.025   3.990
  357TIP3    H1 1035   6.783   3.005   3.977
  357TIP3    H2 1036   6.881   3.061   4.078
  358TIP3   OH2 1037   5.596   1.944   4.537
  358TIP3    H1 1038   5.562   1.935   4.626
  358TIP3    H2 1039   5.519   1.964   4.484
  359TIP3   OH2 1040   2.374   5.993   1.541
  359TIP3    H1 1041   2.395   5.902   1.520
  359TIP3    H2 1042   2.319   5.988   1.619
  360TIP3   OH2 1043   1.856   1.222   3.047
  360TIP3    H1 1044   1.829   1.309   3.077
  360TIP3    H2 1045   1.777   1.185   3.006
  361TIP3   OH2 1046   4.218   3.897   2.513
  361TIP3    H1 1047   4.189   3.897   2.604
  361TIP3    H2 1048   4.278   3.971   2.508
  362TIP3   OH2 1049   6.512   6.705   2.854
  362TIP3    H1 1050   6.594   6.658   2.840
  362TIP3    H2 1051   6.531   6.763   2.928
  363TIP3   OH2 1052   4.181   3.678   4.842
  363TIP3    H1 1053   4.189   3.594   4.887
  363TIP3    H2 1054   4.265   3.721   4.855
  364TIP3   OH2 1055   1.695   2.982   5.328
  364TIP3    H1 1056   1.632   2.924   5.287
  364TIP3    H2 1057   1.737   2.928   5.395
  365TIP3   OH2 1058   2.632   3.933   0.018
  365TIP3    H1 1059   2.561   3.994   0.042
  365TIP3    H2 1060   2.586   3.858  -0.020
  366TIP3   OH2 1061   5.386   3.529   2.622
  366TIP3    H1 1062   5.416   3.619   2.606
  366TIP3    H2 1063   5.324   3.511   2.552
  367TIP3   OH2 1064   3.886   5.344   4.774
  367TIP3    H1 1065   3.876   5.436   4.753
  367TIP3    H2 1066   3.948   5.310   4.709
  368TIP3   OH2 1067   6.830   5.709   4.388
  368TIP3    H1 1068   6.749   5.669   4.420
  368TIP3    H2 1069   6.890   5.635   4.375
  369TIP3   OH2 1070   3.880   0.689   2.824
  369TIP3    H1 1071   3.889   0.597   2.798
  369TIP3    H2 1072   3.871   0.686   2.919
  370TIP3   OH2 1073   5.865   0.886   4.886
  370TIP3    H1 1074   5.827   0.798   4.882
  370TIP3    H2 1075   5.880   0.910   4.794
  371TIP3   OH2 1076   0.494   3.358   1.075
  371TIP3    H1 1077   0.580   3.380   1.110
  371TIP3    H2 1078   0.432   3.392   1.140
  372TIP3   OH2 1079   1.248   4.490   0.700
  372TIP3    H1 1080   1.252   4.425   0.629
  372TIP3    H2 1081   1.156   4.493   0.725
  373TIP3   OH2 1082   2.496   1.057   3.459
  373TIP3    H1 1083   2.462   1.116   3.527
  373TIP3    H2 1084   2.525   1.116   3.389
  374TIP3   OH2 1085   6.541   5.215   4.416
  374TIP3    H1 1086   6.610   5.224   4.350
  374TIP3    H2 1087   6.586   5.230   4.499
  375TIP3   OH2 1088   6.200   0.033   2.346
  375TIP3    H1 1089   6.247  -0.004   2.271
  375TIP3    H2 1090   6.148  -0.040   2.379
  376TIP3   OH2 1091   5.121   2.135   0.148
  376TIP3    H1 1092   5.191   2.179   0.196
  376TIP3    H2 1093   5.083   2.203   0.093
  377TIP3   OH2 1094   2.995   1.692   3.145
  377TIP3    H1 1095   2.985   1.704   3.051
  377TIP3    H2 1096   2.907   1.668   3.175
  378TIP3   OH2 1097   0.796   3.869   3.827
  378TIP3    H1 1098   0.865   3.803   3.813
  378TIP3    H2 1099   0.755   3.844   3.910
  379TIP3   OH2 1100   5.008   3.601   5.722
  379TIP3    H1 1101   4.944   3.568   5.659
  379TIP3    H2 1102   4.985   3.559   5.804
  380TIP3   OH2 1103   5.753   2.894   2.222
  380TIP3    H1 1104   5.667   2.891   2.265
  380TIP3    H2 1105   5.804   2.825   2.266
  381TIP3   OH2 1106   2.718   3.378   3.175
  381TIP3    H1 1107   2.711   3.287   3.147
  381TIP3    H2 1108   2.704   3.428   3.095
  382TIP3   OH2 1109   5.500   2.764   4.389
  382TIP3    H1 1110   5.587   2.771   4.430
  382TIP3    H2 1111   5.442   2.737   4.460
  383TIP3   OH2 1112   6.072   4.034   0.517
  383TIP3    H1 1113   6.082   4.119   0.560
  383TIP3    H2 1114   6.158   3.993   0.525
  384TIP3   OH2 1115   3.306   6.658   2.521
  384TIP3    H1 1116   3.384   6.646   2.576
  384TIP3    H2 1117   3.325   6.608   2.442
  385TIP3   OH2 1118   2.299   0.886   0.901
  385TIP3    H1 1119   2.376   0.856   0.853
  385TIP3    H2 1120   2.334   0.943   0.969
  386TIP3   OH2 1121   4.078   1.847   0.190
  386TIP3    H1 1122   4.157   1.818   0.234
  386TIP3    H2 1123   4.100   1.935   0.157
  387TIP3   OH2 1124   7.055   5.380   2.571
  387TIP3    H1 1125   7.138   5.421   2.546
  387TIP3    H2 1126   7.069   5.287   2.557
  388TIP3   OH2 1127   3.561   4.800   3.004
  388TIP3    H1 1128   3.551   4.804   3.099
  388TIP3    H2 1129   3.564   4.707   2.983
  389TIP3   OH2 1130   0.307   4.265   2.153
  389TIP3    H1 1131   0.319   4.261   2.248
  389TIP3    H2 1132   0.212   4.266   2.141
  390TIP3   OH2 1133   4.948   5.608   3.072
  390TIP3    H1 1134   4.991   5.525   3.053
  390TIP3    H2 1135   4.862   5.583   3.106
  391TIP3   OH2 1136   1.813   2.820   1.352
  391TIP3    H1 1137   1.842   2.886   1.289
  391TIP3    H2 1138   1.858   2.843   1.434
  392TIP3   OH2 1139   0.893   4.820   3.485
  392TIP3    H1 1140   0.885   4.733   3.522
  392TIP3    H2 1141   0.983   4.846   3.501
  393TIP3   OH2 1142   3.316   4.869   5.152
  393TIP3    H1 1143   3.341   4.812   5.078
  393TIP3    H2 1144   3.335   4.957   5.122
  394TIP3   OH2 1145   4.737   1.081   5.656
  394TIP3    H1 1146   4.744   1.078   5.751
  394TIP3    H2 1147   4.719   1.173   5.636
  395TIP3   OH2 1148   6.481   5.288   2.044
  395TIP3    H1 1149   6.486   5.202   2.002
  395TIP3    H2 1150   6.547   5.341   2.000
  396TIP3   OH2 1151   0.583   6.231   4.205
  396TIP3    H1 1152   0.547   6.216   4.118
  396TIP3    H2 1153   0.644   6.304   4.194
  397TIP3   OH2 1154   1.217   2.089   1.642
  397TIP3    H1 1155   1.297   2.100   1.591
  397TIP3    H2 1156   1.210   2.170   1.694
  398TIP3   OH2 1157   2.971   5.412   0.493
  398TIP3    H1 1158   2.993   5.322   0.473
  398TIP3    H2 1159   3.006   5.463   0.420
  399TIP3   OH2 1160   2.515   6.569   1.067
  399TIP3    H1 1161   2.507   6.520   1.149
  399TIP3    H2 1162   2.606   6.598   1.065
  400TIP3   OH2 1163   7.060   5.271   0.904
  400TIP3    H1 1164   7.090   5.250   0.992
  400TIP3    H2 1165   7.092   5.360   0.888
  401TIP3   OH2 1166   1.022   4.682   0.468
  401TIP3    H1 1167   0.989   4.721   0.549
  401TIP3    H2 1168   1.116   4.675   0.480
  402TIP3   OH2 1169   3.717   2.622   1.790
  402TIP3    H1 1170   3.694   2.558   1.724
  402TIP3    H2 1171   3.634   2.641   1.835
  403TIP3   OH2 1172   1.398   3.074   0.397
  403TIP3    H1 1173   1.303   3.061   0.394
  403TIP3    H2 1174   1.433   3.011   0.334
  404TIP3   OH2 1175   1.006   2.945   3.685
  404TIP3    H1 1176   0.949   3.011   3.723
  404TIP3    H2 1177   0.966   2.925   3.600
  405TIP3   OH2 1178   1.927   1.773   3.414
  405TIP3    H1 1179   1.953   1.818   3.494
  405TIP3    H2 1180   1.957   1.830   3.344
  406TIP3   OH2 1181   0.209   2.591   4.747
  406TIP3    H1 1182   0.202   2.650   4.822
  406TIP3    H2 1183   0.276   2.527   4.773
  407TIP3   OH2 1184   5.633   1.597   2.469
  407TIP3    H1 1185   5.727   1.605   2.487
  407TIP3    H2 1186   5.593   1.665   2.522
  408TIP3   OH2 1187   0.944   4.250   2.650
  408TIP3    H1 1188   0.980   4.260   2.738
  408TIP3    H2 1189   0.852   4.272   2.659
  409TIP3   OH2 1190   5.189   3.567   5.214
  409TIP3    H1 1191   5.201   3.546   5.121
  409TIP3    H2 1192   5.252   3.512   5.259
  410TIP3   OH2 1193   6.698   2.851   0.108
  410TIP3    H1 1194   6.730   2.887   0.025
  410TIP3    H2 1195   6.744   2.901   0.175
  411TIP3   OH2 1196   3.247   4.883   0.828
  411TIP3    H1 1197   3.305   4.836   0.888
  411TIP3    H2 1198   3.303   4.906   0.754
  412TIP3   OH2 1199   3.651   0.264   1.326
  412TIP3    H1 1200   3.682   0.220   1.405
  412TIP3    H2 1201   3.589   0.329   1.358
  413TIP3   OH2 1202   3.544   3.617   2.078
  413TIP3    H1 1203   3.544   3.604   1.983
  413TIP3    H2 1204   3.513   3.708   2.089
  414TIP3   OH2 1205   3.441   0.040   2.326
  414TIP3    H1 1206   3.354   0.018   2.294
  414TIP3    H2 1207   3.452  -0.014   2.404
  415TIP3   OH2 1208   6.512   6.277   0.046
  415TIP3    H1 1209   6.423   6.267   0.082
  415TIP3    H2 1210   6.568   6.276   0.123
  416TIP3   OH2 1211   5.135   2.831   1.277
  416TIP3    H1 1212   5.060   2.862   1.227
  416TIP3    H2 1213   5.101   2.815   1.364
  417TIP3   OH2 1214   2.501   5.411   1.084
  417TIP3    H1 1215   2.483   5.464   1.006
  417TIP3    H2 1216   2.442   5.336   1.076
  418TIP3   OH2 1217   6.637   2.993   4.189
  418TIP3    H1 1218   6.629   2.934   4.264
  418TIP3    H2 1219   6.547   3.019   4.170
  419TIP3   OH2 1220   5.725   5.404   0.957
  419TIP3    H1 1221   5.733   5.426   0.864
  419TIP3    H2 1222   5.647   5.450   0.986
  420TIP3   OH2 1223   5.198   2.166   4.361
  420TIP3    H1 1224   5.120   2.220   4.370
  420TIP3    H2 1225   5.209   2.153   4.267
  421TIP3   OH2 1226   2.495   2.054   3.206
  421TIP3    H1 1227   2.519   2.142   3.177
  421TIP3    H2 1228   2.423   2.028   3.149
  422TIP3   OH2 1229   5.334   2.805   5.544
  422TIP3    H1 1230   5.258   2.855   5.574
  422TIP3    H2 1231   5.403   2.827   5.606
  423TIP3   OH2 1232   7.192   0.936   1.368
  423TIP3    H1 1233   7.107   0.893   1.376
  423TIP3    H2 1234   7.174   1.028   1.390
  424TIP3   OH2 1235   6.156   3.851   2.122
  424TIP3    H1 1236   6.152   3.765   2.163
  424TIP3    H2 1237   6.239   3.888   2.152
  425TIP3   OH2 1238   0.843   3.486   3.422
  425TIP3    H1 1239   0.774   3.508   3.484
  425TIP3    H2 1240   0.800   3.488   3.337
  426TIP3   OH2 1241   3.467  -0.044   4.533
  426TIP3    H1 1242   3.377  -0.024   4.560
  426TIP3    H2 1243   3.506   0.042   4.516
  427TIP3   OH2 1244   0.307   0.625   0.655
  427TIP3    H1 1245   0.283   0.532   0.650
  427TIP3    H2 1246   0.402   0.625   0.648
  428TIP3   OH2 1247   1.837   5.825   2.103
  428TIP3    H1 1248   1.842   5.762   2.175
  428TIP3    H2 1249   1.782   5.782   2.038
  429TIP3   OH2 1250   6.222   2.538   2.048
  429TIP3    H1 1251   6.145   2.594   2.061
  429TIP3    H2 1252   6.265   2.536   2.133
  430TIP3   OH2 1253   4.518   0.074   4.187
  430TIP3    H1 1254   4.517   0.111   4.099
  430TIP3    H2 1255   4.610   0.075   4.213
  431TIP3   OH2 1256   0.892   4.046   1.551
  431TIP3    H1 1257   0.891   3.988   1.475
  431TIP3    H2 1258   0.980   4.084   1.552
  432TIP3   OH2 1259   0.511   2.091   2.088
  432TIP3    H1 1260   0.594   2.089   2.040
  432TIP3    H2 1261   0.460   2.160   2.044
  433TIP3   OH2 1262   4.023   0.675   0.778
  433TIP3    H1 1263   4.009   0.715   0.864
  433TIP3    H2 1264   3.961   0.721   0.721
  434TIP3   OH2 1265   0.102   0.008   4.538
  434TIP3    H1 1266   0.086  -0.068   4.593
  434TIP3    H2 1267   0.133  -0.028   4.455
  435TIP3   OH2 1268   3.089   4.043   5.305
  435TIP3    H1 1269   3.027   4.022   5.374
  435TIP3    H2 1270   3.085   3.969   5.245
  436TIP3   OH2 1271   4.842   3.683   0.676
  436TIP3    H1 1272   4.817   3.640   0.594
  436TIP3    H2 1273   4.874   3.612   0.732
  437TIP3   OH2 1274   2.806   1.778   2.685
  437TIP3    H1 1275   2.865   1.731   2.626
  437TIP3    H2 1276   2.718   1.760   2.650
  438TIP3   OH2 1277   2.704   0.389   1.132
  438TIP3    H1 1278   2.617   0.413   1.102
  438TIP3    H2 1279   2.721   0.305   1.090
  439TIP3   OH2 1280   0.599   5.233   5.217
  439TIP3    H1 1281   0.560   5.277   5.141
  439TIP3    H2 1282   0.527   5.185   5.257
  440TIP3   OH2 1283   6.790   5.595   4.026
  440TIP3    H1 1284   6.834   5.510   4.035
  440TIP3    H2 1285   6.702   5.580   4.060
  441TIP3   OH2 1286   4.546   3.628   4.630
  441TIP3    H1 1287   4.571   3.711   4.589
  441TIP3    H2 1288   4.622   3.602   4.681
  442TIP3   OH2 1289   0.968   6.249   4.449
  442TIP3    H1 1290   0.976   6.341   4.424
  442TIP3    H2 1291   1.010   6.201   4.378
  443TIP3   OH2 1292   4.972   3.765   3.829
  443TIP3    H1 1293   4.985   3.700   3.760
  443TIP3    H2 1294   5.027   3.838   3.804
  444TIP3   OH2 1295   6.691   0.759   3.242
  444TIP3    H1 1296   6.723   0.669   3.236
  444TIP3    H2 1297   6.597   0.751   3.253
  445TIP3   OH2 1298   5.176   4.238   4.553
  445TIP3    H1 1299   5.114   4.294   4.600
  445TIP3    H2 1300   5.126   4.159   4.532
  446TIP3   OH2 1301   6.596   2.096   4.550
  446TIP3    H1 1302   6.554   2.023   4.596
  446TIP3    H2 1303   6.685   2.098   4.584
  447TIP3   OH2 1304   5.268   2.841   4.932
  447TIP3    H1 1305   5.347   2.867   4.884
  447TIP3    H2 1306   5.200   2.835   4.865
  448TIP3   OH2 1307   4.675   5.357   2.407
  448TIP3    H1 1308   4.681   5.376   2.501
  448TIP3    H2 1309   4.766   5.359   2.377
  449TIP3   OH2 1310   2.068   0.124   5.581
  449TIP3    H1 1311   1.995   0.143   5.641
  449TIP3    H2 1312   2.146   0.150   5.630
  450TIP3   OH2 1313   6.682   4.108   2.997
  450TIP3    H1 1314   6.770   4.135   2.971
  450TIP3    H2 1315   6.684   4.013   2.995
  451TIP3   OH2 1316   3.749   0.388   1.093
  451TIP3    H1 1317   3.743   0.453   1.162
  451TIP3    H2 1318   3.698   0.313   1.125
  452TIP3   OH2 1319   2.887   1.155   3.555
  452TIP3    H1 1320   2.887   1.237   3.604
  452TIP3    H2 1321   2.800   1.118   3.571
  453TIP3   OH2 1322   4.383   0.164   2.731
  453TIP3    H1 1323   4.463   0.154   2.678
  453TIP3    H2 1324   4.367   0.076   2.766
  454TIP3   OH2 1325   2.861   4.908   2.801
  454TIP3    H1 1326   2.777   4.935   2.763
  454TIP3    H2 1327   2.871   4.964   2.878
  455TIP3   OH2 1328   2.817   5.161   5.507
  455TIP3    H1 1329   2.877   5.133   5.576
  455TIP3    H2 1330   2.803   5.082   5.454
  456TIP3   OH2 1331   5.303   1.249   3.837
  456TIP3    H1 1332   5.214   1.216   3.826
  456TIP3    H2 1333   5.294   1.344   3.829
  457TIP3   OH2 1334   1.164   4.370   0.299
  457TIP3    H1 1335   1.158   4.303   0.231
  457TIP3    H2 1336   1.111   4.443   0.265
  458TIP3   OH2 1337   3.426   3.743   0.805
  458TIP3    H1 1338   3.370   3.797   0.860
  458TIP3    H2 1339   3.402   3.766   0.715
  459TIP3   OH2 1340   0.362   0.266   1.656
  459TIP3    H1 1341   0.346   0.331   1.588
  459TIP3    H2 1342   0.298   0.286   1.725
  460TIP3   OH2 1343   2.413   5.026   4.094
  460TIP3    H1 1344   2.466   5.033   4.173
  460TIP3    H2 1345   2.397   5.117   4.068
  461TIP3   OH2 1346   3.010   2.138   0.043
  461TIP3    H1 1347   3.008   2.052  -0.001
  461TIP3    H2 1348   3.065   2.192  -0.014
  462TIP3   OH2 1349   6.222   1.047   5.700
  462TIP3    H1 1350   6.239   1.049   5.794
  462TIP3    H2 1351   6.275   0.974   5.668
  463TIP3   OH2 1352   5.486   2.857   3.106
  463TIP3    H1 1353   5.571   2.828   3.072
  463TIP3    H2 1354   5.484   2.951   3.087
  464TIP3   OH2 1355   2.816   5.774   2.815
  464TIP3    H1 1356   2.887   5.830   2.848
  464TIP3    H2 1357   2.826   5.777   2.720
  465TIP3   OH2 1358   5.301   5.688   4.335
  465TIP3    H1 1359   5.332   5.717   4.249
  465TIP3    H2 1360   5.381   5.682   4.388
  466TIP3   OH2 1361   5.076   0.703   4.066
  466TIP3    H1 1362   5.026   0.702   3.985
  466TIP3    H2 1363   5.010   0.700   4.135
  467TIP3   OH2 1364   3.417   4.901   5.656
  467TIP3    H1 1365   3.461   4.900   5.571
  467TIP3    H2 1366   3.390   4.992   5.668
  468TIP3   OH2 1367   2.362   1.288   3.305
  468TIP3    H1 1368   2.455   1.306   3.292
  468TIP3    H2 1369   2.319   1.371   3.286
  469TIP3   OH2 1370   5.609   6.447   5.542
  469TIP3    H1 1371   5.591   6.488   5.626
  469TIP3    H2 1372   5.700   6.471   5.523
  470TIP3   OH2 1373   1.443   6.677   2.956
  470TIP3    H1 1374   1.527   6.723   2.951
  470TIP3    H2 1375   1.388   6.731   3.013
  471TIP3   OH2 1376   6.572   1.364   2.998
  471TIP3    H1 1377   6.617   1.287   2.965
  471TIP3    H2 1378   6.615   1.438   2.954
  472TIP3   OH2 1379   0.781   0.208   5.730
  472TIP3    H1 1380   0.754   0.290   5.770
  472TIP3    H2 1381   0.877   0.212   5.729
  473TIP3   OH2 1382   7.108   0.184   0.520
  473TIP3    H1 1383   7.195   0.145   0.525
  473TIP3    H2 1384   7.080   0.170   0.429
  474TIP3   OH2 1385   6.244   4.503   4.719
  474TIP3    H1 1386   6.204   4.590   4.732
  474TIP3    H2 1387   6.190   4.461   4.653
  475TIP3   OH2 1388   0.377   6.561   5.438
  475TIP3    H1 1389   0.322   6.505   5.384
  475TIP3    H2 1390   0.459   6.569   5.389
  476TIP3   OH2 1391   0.579   1.308   4.357
  476TIP3    H1 1392   0.643   1.241   4.333
  476TIP3    H2 1393   0.625   1.391   4.340
  477TIP3   OH2 1394   5.571   4.026   2.813
  477TIP3    H1 1395   5.602   4.032   2.723
  477TIP3    H2 1396   5.475   4.023   2.804
  478TIP3   OH2 1397   3.143   0.226   2.453
  478TIP3    H1 1398   3.158   0.161   2.384
  478TIP3    H2 1399   3.147   0.310   2.409
  479TIP3   OH2 1400   1.361   6.234   3.432
  479TIP3    H1 1401   1.425   6.293   3.392
  479TIP3    H2 1402   1.390   6.224   3.522
  480TIP3   OH2 1403   2.184   1.030   2.148
  480TIP3    H1 1404   2.164   1.087   2.074
  480TIP3    H2 1405   2.108   0.973   2.156
  481TIP3   OH2 1406   2.909   0.713   1.737
  481TIP3    H1 1407   2.819   0.681   1.736
  481TIP3    H2 1408   2.959   0.642   1.776
  482TIP3   OH2 1409   0.513   3.378   2.763
  482TIP3    H1 1410   0.591   3.366   2.817
  482TIP3    H2 1411   0.454   3.307   2.790
  483TIP3   OH2 1412   5.190   6.493   4.209
  483TIP3    H1 1413   5.101   6.467   4.184
  483TIP3    H2 1414   5.247   6.430   4.165
  484TIP3   OH2 1415   6.904   3.125   1.564
  484TIP3    H1 1416   6.942   3.171   1.638
  484TIP3    H2 1417   6.980   3.094   1.513
  485TIP3   OH2 1418   0.222   0.358   0.695
  485TIP3    H1 1419   0.127   0.357   0.706
  485TIP3    H2 1420   0.239   0.295   0.625
  486TIP3   OH2 1421   6.322   3.125   0.818
  486TIP3    H1 1422   6.397   3.078   0.855
  486TIP3    H2 1423   6.288   3.066   0.751
  487TIP3   OH2 1424   0.605   6.256   1.015
  487TIP3    H1 1425   0.640   6.319   0.952
  487TIP3    H2 1426   0.510   6.269   1.012
  488TIP3   OH2 1427   3.700   3.078   3.803
  488TIP3    H1 1428   3.685   3.134   3.880
  488TIP3    H2 1429   3.719   3.139   3.732
  489TIP3   OH2 1430   6.556   1.842   5.730
  489TIP3    H1 1431   6.473   1.795   5.717
  489TIP3    H2 1432   6.529   1.928   5.762
  490TIP3   OH2 1433   6.455   0.004   0.512
  490TIP3    H1 1434   6.405   0.063   0.456
  490TIP3    H2 1435   6.449  -0.081   0.469
  491TIP3   OH2 1436   0.881   0.380   2.697
  491TIP3    H1 1437   0.970   0.351   2.714
  491TIP3    H2 1438   0.849   0.412   2.781
  492TIP3   OH2 1439   2.439   4.755   1.743
  492TIP3    H1 1440   2.440   4.800   1.659
  492TIP3    H2 1441   2.505   4.685   1.734
  493TIP3   OH2 1442   2.047   2.149   5.639
  493TIP3    H1 1443   2.113   2.100   5.688
  493TIP3    H2 1444   2.086   2.235   5.624
  494TIP3   OH2 1445   3.218   1.989   1.978
  494TIP3    H1 1446   3.158   2.001   2.051
  494TIP3    H2 1447   3.186   2.048   1.910
  495TIP3   OH2 1448   1.505   1.442   2.733
  495TIP3    H1 1449   1.421   1.438   2.688
  495TIP3    H2 1450   1.483   1.436   2.826
  496TIP3   OH2 1451   5.941   4.419   3.246
  496TIP3    H1 1452   5.945   4.511   3.218
  496TIP3    H2 1453   5.847   4.401   3.254
  497TIP3   OH2 1454   5.655   4.605   3.831
  497TIP3    H1 1455   5.573   4.558   3.818
  497TIP3    H2 1456   5.649   4.681   3.773
  498TIP3   OH2 1457   4.946   6.741   3.078
  498TIP3    H1 1458   4.877   6.725   3.143
  498TIP3    H2 1459   5.000   6.663   3.081
  499TIP3   OH2 1460   1.920   6.377   5.518
  499TIP3    H1 1461   1.966   6.407   5.440
  499TIP3    H2 1462   1.980   6.315   5.560
  500TIP3   OH2 1463   1.617   2.363   5.221
  500TIP3    H1 1464   1.699   2.346   5.175
  500TIP3    H2 1465   1.549   2.333   5.161
  501TIP3   OH2 1466   3.137   1.706   5.757
  501TIP3    H1 1467   3.155   1.732   5.847
  501TIP3    H2 1468   3.100   1.618   5.764
  502TIP3   OH2 1469   1.397   6.385   4.401
  502TIP3    H1 1470   1.318   6.424   4.438
  502TIP3    H2 1471   1.392   6.292   4.426
  503TIP3   OH2 1472   2.335   2.960   2.256
  503TIP3    H1 1473   2.279   2.987   2.183
  503TIP3    H2 1474   2.421   2.946   2.216
  504TIP3   OH2 1475   7.048   0.432   5.772
  504TIP3    H1 1476   6.976   0.406   5.714
  504TIP3    H2 1477   7.009   0.496   5.831
  505TIP3   OH2 1478   1.047   0.095   1.558
  505TIP3    H1 1479   1.106   0.105   1.483
  505TIP3    H2 1480   1.008   0.182   1.569
  506TIP3   OH2 1481   1.593   2.804   2.922
  506TIP3    H1 1482   1.643   2.743   2.975
  506TIP3    H2 1483   1.656   2.871   2.896
  507TIP3   OH2 1484   2.736   0.069   4.535
  507TIP3    H1 1485   2.818   0.082   4.583
  507TIP3    H2 1486   2.670   0.054   4.603
  508TIP3   OH2 1487   0.154   0.454   2.334
  508TIP3    H1 1488   0.077   0.499   2.368
  508TIP3    H2 1489   0.197   0.417   2.412
  509TIP3   OH2 1490   2.912   6.083   1.288
  509TIP3    H1 1491   2.957   6.049   1.366
  509TIP3    H2 1492   2.937   6.022   1.218
  510TIP3   OH2 1493   3.740   4.172   4.240
  510TIP3    H1 1494   3.832   4.148   4.248
  510TIP3    H2 1495   3.740   4.268   4.241
  511TIP3   OH2 1496   4.191   1.878   1.972
  511TIP3    H1 1497   4.224   1.968   1.966
  511TIP3    H2 1498   4.109   1.886   2.021
  512TIP3   OH2 1499   2.852   2.491   0.421
  512TIP3    H1 1500   2.786   2.464   0.485
  512TIP3    H2 1501   2.801   2.526   0.348
  513TIP3   OH2 1502   5.363   0.564   4.111
  513TIP3    H1 1503   5.388   0.652   4.139
  513TIP3    H2 1504   5.371   0.566   4.015
  514TIP3   OH2 1505   6.597   3.482   4.582
  514TIP3    H1 1506   6.515   3.529   4.573
  514TIP3    H2 1507   6.571   3.391   4.599
  515TIP3   OH2 1508   1.015   1.244   2.132
  515TIP3    H1 1509   0.981   1.163   2.170
  515TIP3    H2 1510   0.986   1.242   2.041
  516TIP3   OH2 1511   1.305   6.293   1.776
  516TIP3    H1 1512   1.342   6.216   1.731
  516TIP3    H2 1513   1.228   6.261   1.821
  517TIP3   OH2 1514   5.970   0.997   5.634
  517TIP3    H1 1515   6.057   1.020   5.668
  517TIP3    H2 1516   5.960   1.050   5.555
  518TIP3   OH2 1517   0.080   5.043   1.962
  518TIP3    H1 1518  -0.005   5.084   1.944
  518TIP3    H2 1519   0.082   5.034   2.057
  519TIP3   OH2 1520   3.916   1.777   3.834
  519TIP3    H1 1521   3.988   1.734   3.881
  519TIP3    H2 1522   3.957   1.853   3.792
  520TIP3   OH2 1523   6.217   6.417   5.452
  520TIP3    H1 1524   6.164   6.344   5.485
  520TIP3    H2 1525   6.186   6.493   5.501
  521TIP3   OH2 1526   0.448   2.737   2.798
  521TIP3    H1 1527   0.428   2.662   2.743
  521TIP3    H2 1528   0.500   2.795   2.742
  522TIP3   OH2 1529   6.295   0.995   2.268
  522TIP3    H1 1530   6.209   1.015   2.230
  522TIP3    H2 1531   6.275   0.953   2.352
  523TIP3   OH2 1532   0.407   6.733   1.345
  523TIP3    H1 1533   0.388   6.702   1.257
  523TIP3    H2 1534   0.494   6.773   1.337
  524TIP3   OH2 1535   4.500   5.878   0.315
  524TIP3    H1 1536   4.534   5.908   0.399
  524TIP3    H2 1537   4.573   5.890   0.254
  525TIP3   OH2 1538   0.261   2.014   5.255
  525TIP3    H1 1539   0.248   2.109   5.262
  525TIP3    H2 1540   0.175   1.976   5.274
  526TIP3   OH2 1541   3.783   1.338   4.437
  526TIP3    H1 1542   3.707   1.279   4.442
  526TIP3    H2 1543   3.762   1.409   4.498
  527TIP3   OH2 1544   1.629   3.477   2.261
  527TIP3    H1 1545   1.542   3.508   2.235
  527TIP3    H2 1546   1.683   3.489   2.183
  528TIP3   OH2 1547   4.108   3.939   2.264
  528TIP3    H1 1548   4.124   4.034   2.263
  528TIP3    H2 1549   4.164   3.907   2.335
  529TIP3   OH2 1550   4.893   3.926   4.662
  529TIP3    H1 1551   4.966   3.950   4.605
  529TIP3    H2 1552   4.820   3.909   4.601
  530TIP3   OH2 1553   4.150   5.262   4.589
  530TIP3    H1 1554   4.109   5.198   4.532
  530TIP3    H2 1555   4.178   5.333   4.531
  531TIP3   OH2 1556   2.101   2.511   0.835
  531TIP3    H1 1557   2.134   2.448   0.770
  531TIP3    H2 1558   2.017   2.474   0.863
  532TIP3   OH2 1559   4.032   3.732   5.507
  532TIP3    H1 1560   4.003   3.765   5.422
  532TIP3    H2 1561   4.048   3.811   5.559
  533TIP3   OH2 1562   3.634   0.879   0.917
  533TIP3    H1 1563   3.622   0.973   0.905
  533TIP3    H2 1564   3.617   0.864   1.010
  534TIP3   OH2 1565   4.398   0.289   4.976
  534TIP3    H1 1566   4.366   0.378   4.989
  534TIP3    H2 1567   4.320   0.238   4.956
  535TIP3   OH2 1568   4.418   5.568   2.600
  535TIP3    H1 1569   4.512   5.550   2.598
  535TIP3    H2 1570   4.391   5.547   2.690
  536TIP3   OH2 1571   4.435   5.728   1.344
  536TIP3    H1 1572   4.483   5.670   1.286
  536TIP3    H2 1573   4.473   5.712   1.431
  537TIP3   OH2 1574   5.939   3.728   5.556
  537TIP3    H1 1575   6.003   3.680   5.503
  537TIP3    H2 1576   5.976   3.816   5.563
  538TIP3   OH2 1577   2.728   6.324   1.908
  538TIP3    H1 1578   2.757   6.235   1.885
  538TIP3    H2 1579   2.633   6.318   1.908
  539TIP3   OH2 1580   4.895   0.950   2.181
  539TIP3    H1 1581   4.863   1.040   2.188
  539TIP3    H2 1582   4.990   0.960   2.174
  540TIP3   OH2 1583   3.995   0.939   3.077
  540TIP3    H1 1584   3.926   0.872   3.085
  540TIP3    H2 1585   3.998   0.960   2.984
  541TIP3   OH2 1586   3.720   5.133   5.173
  541TIP3    H1 1587   3.788   5.187   5.131
  541TIP3    H2 1588   3.670   5.096   5.101
  542TIP3   OH2 1589   5.161   5.139   2.392
  542TIP3    H1 1590   5.242   5.091   2.412
  542TIP3    H2 1591   5.156   5.138   2.297
  543TIP3   OH2 1592   0.304   2.360   0.640
  543TIP3    H1 1593   0.275   2.269   0.634
  543TIP3    H2 1594   0.322   2.373   0.734
  544TIP3   OH2 1595   0.647   2.922   5.722
  544TIP3    H1 1596   0.556   2.937   5.745
  544TIP3    H2 1597   0.643   2.857   5.652
  545TIP3   OH2 1598   7.189   5.246   5.104
  545TIP3    H1 1599   7.169   5.292   5.186
  545TIP3    H2 1600   7.174   5.311   5.036
  546TIP3   OH2 1601   5.069   3.558   3.672
  546TIP3    H1 1602   5.129   3.599   3.609
  546TIP3    H2 1603   5.127   3.509   3.731
  547TIP3   OH2 1604   5.668   1.077   4.944
  547TIP3    H1 1605   5.732   1.008   4.932
  547TIP3    H2 1606   5.649   1.076   5.038
  548TIP3   OH2 1607   4.207   6.084   5.841
  548TIP3    H1 1608   4.256   6.138   5.780
  548TIP3    H2 1609   4.167   6.016   5.786
  549TIP3   OH2 1610   6.856   5.119   4.277
  549TIP3    H1 1611   6.943   5.120   4.237
  549TIP3    H2 1612   6.796   5.138   4.205
  550TIP3   OH2 1613   6.897   6.452   2.937
  550TIP3    H1 1614   6.909   6.458   3.031
  550TIP3    H2 1615   6.931   6.365   2.914
  551TIP3   OH2 1616   0.382   3.021   1.861
  551TIP3    H1 1617   0.429   3.027   1.778
  551TIP3    H2 1618   0.431   2.956   1.912
  552TIP3   OH2 1619   6.388   6.140   1.841
  552TIP3    H1 1620   6.332   6.068   1.868
  552TIP3    H2 1621   6.470   6.126   1.888
  553TIP3   OH2 1622   5.890   0.629   0.097
  553TIP3    H1 1623   5.797   0.652   0.091
  553TIP3    H2 1624   5.922   0.633   0.007
  554TIP3   OH2 1625   4.804   1.657   5.415
  554TIP3    H1 1626   4.712   1.641   5.398
  554TIP3    H2 1627   4.844   1.664   5.328
  555TIP3   OH2 1628   4.753   4.659   4.421
  555TIP3    H1 1629   4.816   4.588   4.406
  555TIP3    H2 1630   4.791   4.709   4.493
  556TIP3   OH2 1631   1.113   4.597   2.505
  556TIP3    H1 1632   1.172   4.663   2.542
  556TIP3    H2 1633   1.053   4.577   2.577
  557TIP3   OH2 1634   1.527   5.258   4.962
  557TIP3    H1 1635   1.464   5.316   5.005
  557TIP3    H2 1636   1.600   5.316   4.937
  558TIP3   OH2 1637   6.841   0.849   4.162
  558TIP3    H1 1638   6.849   0.944   4.172
  558TIP3    H2 1639   6.827   0.835   4.069
  559TIP3   OH2 1640   3.155   6.656   0.701
  559TIP3    H1 1641   3.122   6.689   0.617
  559TIP3    H2 1642   3.162   6.562   0.689
  560TIP3   OH2 1643   3.198   4.594   2.166
  560TIP3    H1 1644   3.108   4.562   2.171
  560TIP3    H2 1645   3.207   4.651   2.243
  561TIP3   OH2 1646   2.872   5.521   3.404
  561TIP3    H1 1647   2.807   5.574   3.358
  561TIP3    H2 1648   2.838   5.432   3.400
  562TIP3   OH2 1649   4.566   2.909   2.433
  562TIP3    H1 1650   4.640   2.899   2.492
  562TIP3    H2 1651   4.549   2.820   2.401
  563TIP3   OH2 1652   0.706   5.099   2.190
  563TIP3    H1 1653   0.744   5.092   2.103
  563TIP3    H2 1654   0.775   5.138   2.244
  564TIP3   OH2 1655   1.436   6.132   0.224
  564TIP3    H1 1656   1.520   6.177   0.227
  564TIP3    H2 1657   1.454   6.044   0.257
  565TIP3   OH2 1658   3.287   5.189   2.005
  565TIP3    H1 1659   3.207   5.208   1.957
  565TIP3    H2 1660   3.347   5.261   1.983
  566TIP3   OH2 1661   5.579   0.290   1.431
  566TIP3    H1 1662   5.523   0.243   1.493
  566TIP3    H2 1663   5.664   0.247   1.438
  567TIP3   OH2 1664   5.559   3.958   5.902
  567TIP3    H1 1665   5.514   3.984   5.821
  567TIP3    H2 1666   5.647   3.935   5.873
  568TIP3   OH2 1667   2.985   2.334   1.960
  568TIP3    H1 1668   3.034   2.296   1.887
  568TIP3    H2 1669   3.036   2.312   2.037
  569TIP3   OH2 1670   6.233   6.153   3.080
  569TIP3    H1 1671   6.296   6.219   3.049
  569TIP3    H2 1672   6.255   6.074   3.030
  570TIP3   OH2 1673   0.387   0.732   3.828
  570TIP3    H1 1674   0.354   0.727   3.918
  570TIP3    H2 1675   0.459   0.668   3.826
  571TIP3   OH2 1676   1.870   1.118   0.671
  571TIP3    H1 1677   1.861   1.104   0.765
  571TIP3    H2 1678   1.950   1.170   0.662
  572TIP3   OH2 1679   3.444   5.792   3.653
  572TIP3    H1 1680   3.456   5.873   3.703
  572TIP3    H2 1681   3.401   5.821   3.572
  573TIP3   OH2 1682   0.165   1.744   5.917
  573TIP3    H1 1683   0.169   1.773   6.008
  573TIP3    H2 1684   0.235   1.791   5.873
  574TIP3   OH2 1685   6.595   6.270   0.319
  574TIP3    H1 1686   6.560   6.302   0.403
  574TIP3    H2 1687   6.689   6.267   0.332
  575TIP3   OH2 1688   4.809   3.908   0.167
  575TIP3    H1 1689   4.726   3.891   0.123
  575TIP3    H2 1690   4.784   3.957   0.246
  576TIP3   OH2 1691   1.037   0.340   0.775
  576TIP3    H1 1692   1.107   0.282   0.745
  576TIP3    H2 1693   1.074   0.385   0.851
  577TIP3   OH2 1694   6.366   3.996   3.573
  577TIP3    H1 1695   6.398   4.082   3.545
  577TIP3    H2 1696   6.335   3.955   3.493
  578TIP3   OH2 1697   6.298   5.594   5.177
  578TIP3    H1 1698   6.353   5.535   5.230
  578TIP3    H2 1699   6.234   5.537   5.136
  579TIP3   OH2 1700   3.305   2.824   1.432
  579TIP3    H1 1701   3.298   2.735   1.467
  579TIP3    H2 1702   3.396   2.831   1.404
  580TIP3   OH2 1703   2.188   4.610   2.146
  580TIP3    H1 1704   2.211   4.524   2.183
  580TIP3    H2 1705   2.238   4.615   2.065
  581TIP3   OH2 1706   4.848   4.771   1.752
  581TIP3    H1 1707   4.865   4.851   1.801
  581TIP3    H2 1708   4.863   4.701   1.815
  582TIP3   OH2 1709   4.204   5.944   5.177
  582TIP3    H1 1710   4.145   5.873   5.201
  582TIP3    H2 1711   4.290   5.902   5.166
  583TIP3   OH2 1712   4.701   2.595   0.314
  583TIP3    H1 1713   4.637   2.642   0.261
  583TIP3    H2 1714   4.780   2.594   0.261
  584TIP3   OH2 1715   2.635   1.167   2.158
  584TIP3    H1 1716   2.656   1.078   2.186
  584TIP3    H2 1717   2.574   1.199   2.224
  585TIP3   OH2 1718   0.152   1.513   5.755
  585TIP3    H1 1719   0.070   1.561   5.746
  585TIP3    H2 1720   0.194   1.550   5.833
  586TIP3   OH2 1721   2.964   0.242   0.724
  586TIP3    H1 1722   2.978   0.325   0.680
  586TIP3    H2 1723   3.052   0.205   0.733
  587TIP3   OH2 1724   3.336   0.012   2.794
  587TIP3    H1 1725   3.391   0.039   2.868
  587TIP3    H2 1726   3.296   0.093   2.763
  588TIP3   OH2 1727   6.734   4.584   0.273
  588TIP3    H1 1728   6.666   4.516   0.274
  588TIP3    H2 1729   6.799   4.553   0.335
  589TIP3   OH2 1730   4.439   2.966   2.744
  589TIP3    H1 1731   4.374   2.919   2.691
  589TIP3    H2 1732   4.394   3.047   2.770
  590TIP3   OH2 1733   5.884   5.922   0.612
  590TIP3    H1 1734   5.798   5.882   0.601
  590TIP3    H2 1735   5.905   5.959   0.527
  591TIP3   OH2 1736   4.722   2.707   1.850
  591TIP3    H1 1737   4.645   2.661   1.816
  591TIP3    H2 1738   4.693   2.798   1.859
  592TIP3   OH2 1739   0.051   5.388   4.026
  592TIP3    H1 1740   0.065   5.322   3.957
  592TIP3    H2 1741   0.087   5.468   3.989
  593TIP3   OH2 1742   3.815   1.531   2.744
  593TIP3    H1 1743   3.807   1.620   2.707
  593TIP3    H2 1744   3.724   1.500   2.749
  594TIP3   OH2 1745   6.983   2.171   1.606
  594TIP3    H1 1746   6.933   2.103   1.651
  594TIP3    H2 1747   7.002   2.236   1.673
  595TIP3   OH2 1748   2.064   1.349   0.201
  595TIP3    H1 1749   2.143   1.297   0.183
  595TIP3    H2 1750   2.056   1.407   0.125
  596TIP3   OH2 1751   2.262   1.089   3.912
  596TIP3    H1 1752   2.287   1.003   3.877
  596TIP3    H2 1753   2.224   1.135   3.837
  597TIP3   OH2 1754   3.828   0.670   1.536
  597TIP3    H1 1755   3.884   0.598   1.566
  597TIP3    H2 1756   3.815   0.724   1.614
  598TIP3   OH2 1757   6.801   4.322   3.533
  598TIP3    H1 1758   6.740   4.366   3.474
  598TIP3    H2 1759   6.765   4.338   3.620
  599TIP3   OH2 1760   6.354   3.057   4.258
  599TIP3    H1 1761   6.331   3.115   4.331
  599TIP3    H2 1762   6.365   2.971   4.298
  600TIP3   OH2 1763   2.374   5.521   3.340
  600TIP3    H1 1764   2.340   5.500   3.253
  600TIP3    H2 1765   2.412   5.439   3.372
  601TIP3   OH2 1766   0.724   1.382   0.694
  601TIP3    H1 1767   0.703   1.415   0.607
  601TIP3    H2 1768   0.782   1.448   0.732
  602TIP3   OH2 1769   3.464   0.043   3.022
  602TIP3    H1 1770   3.389   0.052   3.081
  602TIP3    H2 1771   3.539   0.027   3.080
  603TIP3   OH2 1772   5.910   3.671   3.657
  603TIP3    H1 1773   5.965   3.593   3.662
  603TIP3    H2 1774   5.851   3.663   3.733
  604TIP3   OH2 1775   6.330   2.139   3.920
  604TIP3    H1 1776   6.302   2.216   3.870
  604TIP3    H2 1777   6.418   2.120   3.888
  605TIP3   OH2 1778   5.123   3.837   5.659
  605TIP3    H1 1779   5.090   3.749   5.676
  605TIP3    H2 1780   5.166   3.830   5.574
  606TIP3   OH2 1781   2.247   5.183   0.459
  606TIP3    H1 1782   2.282   5.096   0.438
  606TIP3    H2 1783   2.170   5.164   0.514
  607TIP3   OH2 1784   6.792   6.365   4.226
  607TIP3    H1 1785   6.862   6.319   4.180
  607TIP3    H2 1786   6.821   6.457   4.228
  608TIP3   OH2 1787   2.877   4.092   3.020
  608TIP3    H1 1788   2.956   4.134   3.055
  608TIP3    H2 1789   2.901   4.000   3.009
  609TIP3   OH2 1790   3.889   5.309   5.542
  609TIP3    H1 1791   3.898   5.360   5.623
  609TIP3    H2 1792   3.801   5.273   5.545
  610TIP3   OH2 1793   4.617   1.874   2.379
  610TIP3    H1 1794   4.701   1.830   2.391
  610TIP3    H2 1795   4.575   1.825   2.308
  611TIP3   OH2 1796   6.882   4.253   3.262
  611TIP3    H1 1797   6.830   4.293   3.332
  611TIP3    H2 1798   6.935   4.325   3.228
  612TIP3   OH2 1799   1.488   1.479   5.003
  612TIP3    H1 1800   1.472   1.513   4.915
  612TIP3    H2 1801   1.401   1.472   5.042
  613TIP3   OH2 1802   2.980   2.145   3.098
  613TIP3    H1 1803   2.955   2.109   3.184
  613TIP3    H2 1804   3.026   2.073   3.055
  614TIP3   OH2 1805   1.870   5.326   1.089
  614TIP3    H1 1806   1.855   5.236   1.116
  614TIP3    H2 1807   1.900   5.370   1.169
  615TIP3   OH2 1808   6.040   4.253   0.703
  615TIP3    H1 1809   6.038   4.193   0.778
  615TIP3    H2 1810   6.064   4.337   0.741
  616TIP3   OH2 1811   1.985   4.596   5.510
  616TIP3    H1 1812   2.075   4.572   5.536
  616TIP3    H2 1813   1.996   4.674   5.456
  617TIP3   OH2 1814   7.115   2.990   5.791
  617TIP3    H1 1815   7.063   3.070   5.795
  617TIP3    H2 1816   7.081   2.942   5.715
  618TIP3   OH2 1817   1.447   0.087   4.670
  618TIP3    H1 1818   1.422   0.155   4.733
  618TIP3    H2 1819   1.448   0.007   4.721
  619TIP3   OH2 1820   1.940   2.734   2.528
  619TIP3    H1 1821   1.895   2.662   2.572
  619TIP3    H2 1822   1.883   2.757   2.455
  620TIP3   OH2 1823   1.881   2.836   3.653
  620TIP3    H1 1824   1.880   2.917   3.601
  620TIP3    H2 1825   1.893   2.866   3.743
  621TIP3   OH2 1826   3.206   3.872   0.251
  621TIP3    H1 1827   3.202   3.849   0.158
  621TIP3    H2 1828   3.129   3.829   0.289
  622TIP3   OH2 1829   4.948   4.263   2.067
  622TIP3    H1 1830   4.949   4.185   2.122
  622TIP3    H2 1831   5.016   4.320   2.103
  623TIP3   OH2 1832   5.497   1.766   2.639
  623TIP3    H1 1833   5.417   1.717   2.658
  623TIP3    H2 1834   5.467   1.851   2.607
  624TIP3   OH2 1835   4.994   3.801   2.343
  624TIP3    H1 1836   4.945   3.780   2.263
  624TIP3    H2 1837   4.932   3.782   2.414
  625TIP3   OH2 1838   4.328   3.595   0.317
  625TIP3    H1 1839   4.325   3.690   0.329
  625TIP3    H2 1840   4.238   3.567   0.331
  626TIP3   OH2 1841   4.385   6.677   5.813
  626TIP3    H1 1842   4.327   6.655   5.885
  626TIP3    H2 1843   4.443   6.745   5.848
  627TIP3   OH2 1844   3.163   2.752   4.405
  627TIP3    H1 1845   3.107   2.819   4.366
  627TIP3    H2 1846   3.250   2.790   4.404
  628TIP3   OH2 1847   5.663   3.600   0.085
  628TIP3    H1 1848   5.677   3.679   0.136
  628TIP3    H2 1849   5.701   3.619  -0.001
  629TIP3   OH2 1850   2.751   0.667   4.068
  629TIP3    H1 1851   2.782   0.684   4.156
  629TIP3    H2 1852   2.709   0.581   4.073
  630TIP3   OH2 1853   1.170   3.233   3.678
  630TIP3    H1 1854   1.197   3.221   3.587
  630TIP3    H2 1855   1.235   3.186   3.730
  631TIP3   OH2 1856   4.416   5.114   3.139
  631TIP3    H1 1857   4.442   5.136   3.228
  631TIP3    H2 1858   4.325   5.086   3.146
  632TIP3   OH2 1859   3.485   4.255   1.187
  632TIP3    H1 1860   3.550   4.248   1.117
  632TIP3    H2 1861   3.439   4.171   1.186
  633TIP3   OH2 1862   6.205   5.428   5.422
  633TIP3    H1 1863   6.254   5.427   5.504
  633TIP3    H2 1864   6.254   5.369   5.364
  634TIP3   OH2 1865   3.076   2.803   4.712
  634TIP3    H1 1866   2.983   2.794   4.734
  634TIP3    H2 1867   3.076   2.821   4.618
  635TIP3   OH2 1868   3.466   4.334   3.724
  635TIP3    H1 1869   3.393   4.324   3.663
  635TIP3    H2 1870   3.542   4.300   3.676
  636TIP3   OH2 1871   4.547   2.481   4.417
  636TIP3    H1 1872   4.452   2.479   4.428
  636TIP3    H2 1873   4.565   2.567   4.379
  637TIP3   OH2 1874   3.730   3.911   0.113
  637TIP3    H1 1875   3.785   3.842   0.149
  637TIP3    H2 1876   3.749   3.911   0.019
  638TIP3   OH2 1877   1.890   2.363   3.902
  638TIP3    H1 1878   1.954   2.294   3.882
  638TIP3    H2 1879   1.944   2.442   3.913
  639TIP3   OH2 1880   5.314   1.929   5.501
  639TIP3    H1 1881   5.220   1.942   5.496
  639TIP3    H2 1882   5.349   2.017   5.513
  640TIP3   OH2 1883   6.835   0.376   3.610
  640TIP3    H1 1884   6.889   0.366   3.531
  640TIP3    H2 1885   6.850   0.467   3.637
  641TIP3   OH2 1886   0.330   3.651   1.423
  641TIP3    H1 1887   0.275   3.683   1.495
  641TIP3    H2 1888   0.385   3.726   1.400
  642TIP3   OH2 1889   6.103   2.689   1.169
  642TIP3    H1 1890   6.019   2.655   1.137
  642TIP3    H2 1891   6.156   2.699   1.091
  643TIP3   OH2 1892   0.632   2.263   0.574
  643TIP3    H1 1893   0.625   2.355   0.548
  643TIP3    H2 1894   0.617   2.265   0.669
  644TIP3   OH2 1895   0.490   5.713   3.562
  644TIP3    H1 1896   0.502   5.776   3.490
  644TIP3    H2 1897   0.422   5.654   3.530
  645TIP3   OH2 1898   6.441   6.283   2.397
  645TIP3    H1 1899   6.409   6.373   2.402
  645TIP3    H2 1900   6.363   6.230   2.412
  646TIP3   OH2 1901   6.201   4.483   1.188
  646TIP3    H1 1902   6.146   4.438   1.253
  646TIP3    H2 1903   6.139   4.537   1.139
  647TIP3   OH2 1904   4.776   5.145   0.242
  647TIP3    H1 1905   4.825   5.204   0.298
  647TIP3    H2 1906   4.761   5.067   0.295
  648TIP3   OH2 1907   4.724   0.660   0.777
  648TIP3    H1 1908   4.727   0.678   0.683
  648TIP3    H2 1909   4.779   0.582   0.788
  649TIP3   OH2 1910   1.728   4.608   5.621
  649TIP3    H1 1911   1.822   4.611   5.603
  649TIP3    H2 1912   1.717   4.538   5.685
  650TIP3   OH2 1913   3.351   3.428   0.395
  650TIP3    H1 1914   3.398   3.511   0.381
  650TIP3    H2 1915   3.309   3.439   0.480
  651TIP3   OH2 1916   3.438   1.300   2.998
  651TIP3    H1 1917   3.482   1.353   2.932
  651TIP3    H2 1918   3.427   1.215   2.955
  652TIP3   OH2 1919   4.299   2.655   1.573
  652TIP3    H1 1920   4.289   2.737   1.622
  652TIP3    H2 1921   4.257   2.672   1.489
  653TIP3   OH2 1922   0.422   6.102   5.233
  653TIP3    H1 1923   0.458   6.188   5.256
  653TIP3    H2 1924   0.351   6.089   5.296
  654TIP3   OH2 1925   0.026   4.497   2.504
  654TIP3    H1 1926   0.031   4.508   2.599
  654TIP3    H2 1927   0.109   4.534   2.471
  655TIP3   OH2 1928   2.810   3.264   0.811
  655TIP3    H1 1929   2.733   3.313   0.839
  655TIP3    H2 1930   2.776   3.200   0.748
  656TIP3   OH2 1931   5.023   6.665   1.696
  656TIP3    H1 1932   4.955   6.642   1.759
  656TIP3    H2 1933   5.008   6.606   1.622
  657TIP3   OH2 1934   5.778   5.838   5.867
  657TIP3    H1 1935   5.833   5.818   5.791
  657TIP3    H2 1936   5.694   5.863   5.830
  658TIP3   OH2 1937   5.653   0.579   5.769
  658TIP3    H1 1938   5.669   0.658   5.717
  658TIP3    H2 1939   5.676   0.604   5.859
  659TIP3   OH2 1940   5.188   6.173   2.542
  659TIP3    H1 1941   5.117   6.130   2.494
  659TIP3    H2 1942   5.267   6.155   2.491
  660TIP3   OH2 1943   2.040   2.702   4.385
  660TIP3    H1 1944   2.058   2.693   4.479
  660TIP3    H2 1945   1.960   2.755   4.381
  661TIP3   OH2 1946   4.355   1.039   5.625
  661TIP3    H1 1947   4.301   1.082   5.691
  661TIP3    H2 1948   4.318   1.067   5.541
  662TIP3   OH2 1949   4.883   3.344   1.107
  662TIP3    H1 1950   4.946   3.276   1.131
  662TIP3    H2 1951   4.797   3.305   1.124
  663TIP3   OH2 1952   1.075   6.256   1.621
  663TIP3    H1 1953   1.170   6.266   1.628
  663TIP3    H2 1954   1.040   6.338   1.657
  664TIP3   OH2 1955   2.462   4.280   0.218
  664TIP3    H1 1956   2.435   4.190   0.200
  664TIP3    H2 1957   2.453   4.326   0.135
  665TIP3   OH2 1958   3.832   1.357   3.322
  665TIP3    H1 1959   3.832   1.396   3.235
  665TIP3    H2 1960   3.766   1.407   3.371
  666TIP3   OH2 1961   5.970   3.642   1.488
  666TIP3    H1 1962   5.928   3.728   1.493
  666TIP3    H2 1963   5.898   3.582   1.465
  667TIP3   OH2 1964   4.287   6.598   4.072
  667TIP3    H1 1965   4.329   6.683   4.075
  667TIP3    H2 1966   4.230   6.596   4.149
  668TIP3   OH2 1967   2.914   6.421   1.693
  668TIP3    H1 1968   2.891   6.357   1.625
  668TIP3    H2 1969   2.847   6.409   1.760
  669TIP3   OH2 1970   4.140   4.768   1.424
  669TIP3    H1 1971   4.081   4.732   1.358
  669TIP3    H2 1972   4.221   4.787   1.376
  670TIP3   OH2 1973   4.798   4.394   1.096
  670TIP3    H1 1974   4.816   4.306   1.061
  670TIP3    H2 1975   4.789   4.380   1.190
  671TIP3   OH2 1976   5.361   3.057   2.946
  671TIP3    H1 1977   5.290   3.122   2.946
  671TIP3    H2 1978   5.317   2.975   2.922
  672TIP3   OH2 1979   4.661   2.808   3.298
  672TIP3    H1 1980   4.588   2.824   3.238
  672TIP3    H2 1981   4.662   2.713   3.310
  673TIP3   OH2 1982   0.579   2.972   1.670
  673TIP3    H1 1983   0.578   2.988   1.576
  673TIP3    H2 1984   0.670   2.986   1.697
  674TIP3   OH2 1985   5.512   3.806   3.800
  674TIP3    H1 1986   5.505   3.754   3.720
  674TIP3    H2 1987   5.501   3.896   3.772
  675TIP3   OH2 1988   5.721   5.364   0.684
  675TIP3    H1 1989   5.742   5.427   0.616
  675TIP3    H2 1990   5.630   5.341   0.669
  676TIP3   OH2 1991   5.252   0.066   2.355
  676TIP3    H1 1992   5.331   0.116   2.334
  676TIP3    H2 1993   5.250   0.065   2.451
  677TIP3   OH2 1994   0.049   5.783   2.491
  677TIP3    H1 1995   0.138   5.814   2.508
  677TIP3    H2 1996   0.002   5.861   2.462
  678TIP3   OH2 1997   2.688   3.868   5.591
  678TIP3    H1 1998   2.645   3.814   5.525
  678TIP3    H2 1999   2.617   3.921   5.628
  679TIP3   OH2 2000   0.479   4.788   4.800
  679TIP3    H1 2001   0.509   4.736   4.874
  679TIP3    H2 2002   0.559   4.810   4.752
  680TIP3   OH2 2003   6.443   4.251   2.925
  680TIP3    H1 2004   6.477   4.340   2.934
  680TIP3    H2 2005   6.510   4.195   2.964
  681TIP3   OH2 2006   4.604   2.256   1.086
  681TIP3    H1 2007   4.630   2.321   1.151
  681TIP3    H2 2008   4.524   2.291   1.048
  682TIP3   OH2 2009   4.298   3.099   3.129
  682TIP3    H1 2010   4.225   3.144   3.087
  682TIP3    H2 2011   4.258   3.052   3.202
  683TIP3   OH2 2012   0.229   4.645   2.120
  683TIP3    H1 2013   0.235   4.592   2.199
  683TIP3    H2 2014   0.301   4.708   2.128
  684TIP3   OH2 2015   0.416   3.406   0.336
  684TIP3    H1 2016   0.360   3.367   0.403
  684TIP3    H2 2017   0.465   3.475   0.381
  685TIP3   OH2 2018   6.009   5.983   3.778
  685TIP3    H1 2019   5.945   6.026   3.721
  685TIP3    H2 2020   6.084   6.043   3.778
  686TIP3   OH2 2021   0.172   0.111   0.520
  686TIP3    H1 2022   0.215   0.075   0.443
  686TIP3    H2 2023   0.230   0.087   0.593
  687TIP3   OH2 2024   5.071   3.364   4.400
  687TIP3    H1 2025   5.154   3.411   4.409
  687TIP3    H2 2026   5.083   3.309   4.322
  688TIP3   OH2 2027   4.560   6.196   2.610
  688TIP3    H1 2028   4.608   6.279   2.608
  688TIP3    H2 2029   4.515   6.196   2.694
  689TIP3   OH2 2030   2.407   5.650   0.349
  689TIP3    H1 2031   2.442   5.663   0.260
  689TIP3    H2 2032   2.313   5.664   0.339
  690TIP3   OH2 2033   4.752   1.405   3.146
  690TIP3    H1 2034   4.729   1.313   3.161
  690TIP3    H2 2035   4.683   1.438   3.089
  691TIP3   OH2 2036   2.674   3.919   2.316
  691TIP3    H1 2037   2.635   3.950   2.398
  691TIP3    H2 2038   2.674   3.824   2.323
  692TIP3   OH2 2039   6.767   5.456   3.609
  692TIP3    H1 2040   6.761   5.414   3.694
  692TIP3    H2 2041   6.687   5.428   3.563
  693TIP3   OH2 2042   6.214   5.258   3.749
  693TIP3    H1 2043   6.189   5.338   3.704
  693TIP3    H2 2044   6.159   5.190   3.708
  694TIP3   OH2 2045   1.185   1.515   4.108
  694TIP3    H1 2046   1.239   1.446   4.069
  694TIP3    H2 2047   1.150   1.476   4.188
  695TIP3   OH2 2048   6.880   1.064   5.485
  695TIP3    H1 2049   6.894   0.971   5.465
  695TIP3    H2 2050   6.960   1.092   5.529
  696TIP3   OH2 2051   3.916   3.435   0.197
  696TIP3    H1 2052   3.879   3.348   0.185
  696TIP3    H2 2053   3.967   3.450   0.117
  697TIP3   OH2 2054   2.140   1.234   1.532
  697TIP3    H1 2055   2.188   1.210   1.453
  697TIP3    H2 2056   2.206   1.276   1.588
  698TIP3   OH2 2057   6.216   0.198   0.608
  698TIP3    H1 2058   6.136   0.156   0.576
  698TIP3    H2 2059   6.263   0.127   0.652
  699TIP3   OH2 2060   6.478   5.701   3.568
  699TIP3    H1 2061   6.409   5.706   3.502
  699TIP3    H2 2062   6.475   5.785   3.613
  700TIP3   OH2 2063   6.737   3.274   2.861
  700TIP3    H1 2064   6.725   3.233   2.775
  700TIP3    H2 2065   6.820   3.239   2.893
  701TIP3   OH2 2066   3.325   3.340   2.928
  701TIP3    H1 2067   3.270   3.344   2.849
  701TIP3    H2 2068   3.317   3.426   2.967
  702TIP3   OH2 2069   0.317   3.305   4.387
  702TIP3    H1 2070   0.255   3.368   4.426
  702TIP3    H2 2071   0.277   3.280   4.304
  703TIP3   OH2 2072   3.323   2.136   1.408
  703TIP3    H1 2073   3.375   2.080   1.350
  703TIP3    H2 2074   3.233   2.107   1.397
  704TIP3   OH2 2075   0.218   2.359   5.897
  704TIP3    H1 2076   0.194   2.269   5.878
  704TIP3    H2 2077   0.193   2.408   5.819
  705TIP3   OH2 2078   5.140   1.470   3.276
  705TIP3    H1 2079   5.073   1.533   3.249
  705TIP3    H2 2080   5.206   1.523   3.321
  706TIP3   OH2 2081   1.310   6.570   0.964
  706TIP3    H1 2082   1.296   6.663   0.984
  706TIP3    H2 2083   1.404   6.557   0.980
  707TIP3   OH2 2084   3.118   4.078   1.115
  707TIP3    H1 2085   3.129   4.153   1.057
  707TIP3    H2 2086   3.200   4.072   1.163
  708TIP3   OH2 2087   0.482   4.406   1.052
  708TIP3    H1 2088   0.479   4.427   0.958
  708TIP3    H2 2089   0.441   4.320   1.059
  709TIP3   OH2 2090   6.049   2.499   3.727
  709TIP3    H1 2091   6.027   2.439   3.655
  709TIP3    H2 2092   6.101   2.567   3.686
  710TIP3   OH2 2093   1.978   4.156   0.932
  710TIP3    H1 2094   1.917   4.109   0.989
  710TIP3    H2 2095   2.058   4.103   0.934
  711TIP3   OH2 2096   4.273   5.797   1.103
  711TIP3    H1 2097   4.333   5.747   1.158
  711TIP3    H2 2098   4.313   5.883   1.094
  712TIP3   OH2 2099   4.023   4.769   5.730
  712TIP3    H1 2100   4.044   4.853   5.688
  712TIP3    H2 2101   4.013   4.790   5.823
  713TIP3   OH2 2102   1.284   5.846   5.317
  713TIP3    H1 2103   1.370   5.883   5.297
  713TIP3    H2 2104   1.222   5.915   5.292
  714TIP3   OH2 2105   4.771   0.661   1.395
  714TIP3    H1 2106   4.858   0.686   1.363
  714TIP3    H2 2107   4.718   0.652   1.316
  715TIP3   OH2 2108   2.323   2.591   3.296
  715TIP3    H1 2109   2.267   2.517   3.273
  715TIP3    H2 2110   2.262   2.661   3.317
  716TIP3   OH2 2111   2.912   2.027   2.692
  716TIP3    H1 2112   2.829   2.011   2.736
  716TIP3    H2 2113   2.934   1.944   2.650
  717TIP3   OH2 2114   2.146   5.738   1.272
  717TIP3    H1 2115   2.184   5.689   1.345
  717TIP3    H2 2116   2.082   5.677   1.234
  718TIP3   OH2 2117   3.481   6.819   2.134
  718TIP3    H1 2118   3.523   6.799   2.218
  718TIP3    H2 2119   3.511   6.750   2.075
  719TIP3   OH2 2120   6.331   6.711   4.283
  719TIP3    H1 2121   6.301   6.665   4.204
  719TIP3    H2 2122   6.343   6.641   4.347
  720TIP3   OH2 2123   4.296   6.068   1.093
  720TIP3    H1 2124   4.359   6.061   1.165
  720TIP3    H2 2125   4.325   6.144   1.043
  721TIP3   OH2 2126   4.312   0.525   5.097
  721TIP3    H1 2127   4.302   0.620   5.084
  721TIP3    H2 2128   4.354   0.517   5.183
  722TIP3   OH2 2129   4.700   3.550   2.355
  722TIP3    H1 2130   4.739   3.532   2.269
  722TIP3    H2 2131   4.662   3.638   2.346
  723TIP3   OH2 2132   3.197   1.444   1.018
  723TIP3    H1 2133   3.145   1.518   0.988
  723TIP3    H2 2134   3.286   1.478   1.025
  724TIP3   OH2 2135   5.416   4.001   1.585
  724TIP3    H1 2136   5.377   3.994   1.498
  724TIP3    H2 2137   5.392   4.089   1.615
  725TIP3   OH2 2138   2.956   4.869   0.943
  725TIP3    H1 2139   3.025   4.853   0.880
  725TIP3    H2 2140   2.960   4.963   0.960
  726TIP3   OH2 2141   7.097   3.778   4.528
  726TIP3    H1 2142   7.044   3.805   4.603
  726TIP3    H2 2143   7.075   3.686   4.515
  727TIP3   OH2 2144   4.522   0.745   3.993
  727TIP3    H1 2145   4.463   0.670   3.994
  727TIP3    H2 2146   4.505   0.791   4.076
  728TIP3   OH2 2147   2.039   2.451   4.583
  728TIP3    H1 2148   2.126   2.491   4.579
  728TIP3    H2 2149   2.056   2.358   4.597
  729TIP3   OH2 2150   4.351   5.401   5.235
  729TIP3    H1 2151   4.329   5.456   5.310
  729TIP3    H2 2152   4.436   5.434   5.205
  730TIP3   OH2 2153   0.691   5.544   2.613
  730TIP3    H1 2154   0.685   5.451   2.595
  730TIP3    H2 2155   0.735   5.581   2.536
  731TIP3   OH2 2156   2.404   1.004   4.553
  731TIP3    H1 2157   2.366   1.085   4.585
  731TIP3    H2 2158   2.346   0.935   4.586
  732TIP3   OH2 2159   3.006   1.964   1.101
  732TIP3    H1 2160   2.963   1.881   1.122
  732TIP3    H2 2161   2.952   2.003   1.033
  733TIP3   OH2 2162   4.665   6.180   4.183
  733TIP3    H1 2163   4.648   6.086   4.174
  733TIP3    H2 2164   4.580   6.218   4.205
  734TIP3   OH2 2165   4.699   5.451   2.667
  734TIP3    H1 2166   4.747   5.531   2.690
  734TIP3    H2 2167   4.634   5.442   2.736
  735TIP3   OH2 2168   4.383   3.859   5.209
  735TIP3    H1 2169   4.409   3.829   5.122
  735TIP3    H2 2170   4.463   3.896   5.246
  736TIP3   OH2 2171   6.365   2.852   1.850
  736TIP3    H1 2172   6.341   2.798   1.775
  736TIP3    H2 2173   6.323   2.810   1.925
  737TIP3   OH2 2174   2.462   2.940   0.597
  737TIP3    H1 2175   2.375   2.903   0.611
  737TIP3    H2 2176   2.510   2.871   0.553
  738TIP3   OH2 2177   1.896   1.809   1.766
  738TIP3    H1 2178   1.980   1.854   1.770
  738TIP3    H2 2179   1.913   1.728   1.718
  739TIP3   OH2 2180   2.487   2.978   2.539
  739TIP3    H1 2181   2.417   3.002   2.478
  739TIP3    H2 2182   2.556   2.941   2.483
  740TIP3   OH2 2183   1.699   4.870   1.976
  740TIP3    H1 2184   1.783   4.914   1.990
  740TIP3    H2 2185   1.647   4.892   2.054
  741TIP3   OH2 2186   7.126   1.669   2.644
  741TIP3    H1 2187   7.064   1.665   2.571
  741TIP3    H2 2188   7.187   1.738   2.620
  742TIP3   OH2 2189   5.520   4.095   3.399
  742TIP3    H1 2190   5.453   4.163   3.394
  742TIP3    H2 2191   5.502   4.039   3.323
  743TIP3   OH2 2192   2.900   5.375   5.075
  743TIP3    H1 2193   2.864   5.379   5.163
  743TIP3    H2 2194   2.929   5.284   5.066
  744TIP3   OH2 2195   6.317   6.728   0.646
  744TIP3    H1 2196   6.230   6.688   0.641
  744TIP3    H2 2197   6.299   6.822   0.646
  745TIP3   OH2 2198   0.210   1.310   0.419
  745TIP3    H1 2199   0.245   1.278   0.502
  745TIP3    H2 2200   0.227   1.404   0.420
  746TIP3   OH2 2201   5.928   5.857   4.929
  746TIP3    H1 2202   5.928   5.881   4.836
  746TIP3    H2 2203   5.920   5.940   4.976
  747TIP3   OH2 2204   5.184   0.041   3.857
  747TIP3    H1 2205   5.227   0.010   3.937
  747TIP3    H2 2206   5.186   0.136   3.864
  748TIP3   OH2 2207   4.112   5.983   2.105
  748TIP3    H1 2208   4.030   5.948   2.137
  748TIP3    H2 2209   4.110   6.076   2.127
  749TIP3   OH2 2210   6.329   5.555   3.104
  749TIP3    H1 2211   6.269   5.481   3.106
  749TIP3    H2 2212   6.325   5.587   3.014
  750TIP3   OH2 2213   4.988   6.069   2.357
  750TIP3    H1 2214   4.973   6.149   2.306
  750TIP3    H2 2215   4.901   6.045   2.391
  751TIP3   OH2 2216   5.949   0.399   0.726
  751TIP3    H1 2217   5.886   0.469   0.745
  751TIP3    H2 2218   5.963   0.356   0.810
  752TIP3   OH2 2219   4.976   2.123   4.599
  752TIP3    H1 2220   4.976   2.198   4.540
  752TIP3    H2 2221   5.033   2.149   4.671
  753TIP3   OH2 2222   1.518   1.453   3.978
  753TIP3    H1 2223   1.429   1.428   4.004
  753TIP3    H2 2224   1.506   1.523   3.914
  754TIP3   OH2 2225   2.517   3.857   4.961
  754TIP3    H1 2226   2.513   3.800   4.883
  754TIP3    H2 2227   2.585   3.818   5.015
  755TIP3   OH2 2228   0.483   4.324   4.479
  755TIP3    H1 2229   0.393   4.350   4.457
  755TIP3    H2 2230   0.533   4.342   4.400
  756TIP3   OH2 2231   4.483   5.514   3.410
  756TIP3    H1 2232   4.512   5.426   3.388
  756TIP3    H2 2233   4.562   5.568   3.402
  757TIP3   OH2 2234   7.137   5.440   5.718
  757TIP3    H1 2235   7.217   5.465   5.673
  757TIP3    H2 2236   7.132   5.345   5.709
  758TIP3   OH2 2237   6.991   1.737   5.268
  758TIP3    H1 2238   7.022   1.654   5.304
  758TIP3    H2 2239   6.898   1.723   5.251
  759TIP3   OH2 2240   3.608   4.937   1.005
  759TIP3    H1 2241   3.618   4.895   1.090
  759TIP3    H2 2242   3.695   4.972   0.985
  760TIP3   OH2 2243   5.585   0.387   5.408
  760TIP3    H1 2244   5.548   0.382   5.496
  760TIP3    H2 2245   5.515   0.424   5.355
  761TIP3   OH2 2246   1.725   2.212   1.555
  761TIP3    H1 2247   1.791   2.142   1.557
  761TIP3    H2 2248   1.759   2.276   1.492
  762TIP3   OH2 2249   3.887   1.858   0.450
  762TIP3    H1 2250   3.876   1.917   0.376
  762TIP3    H2 2251   3.926   1.912   0.519
  763TIP3   OH2 2252   2.690   5.243   3.690
  763TIP3    H1 2253   2.706   5.328   3.733
  763TIP3    H2 2254   2.778   5.209   3.673
  764TIP3   OH2 2255   6.348   2.847   2.129
  764TIP3    H1 2256   6.273   2.825   2.185
  764TIP3    H2 2257   6.348   2.943   2.126
  765TIP3   OH2 2258   6.511   0.404   0.371
  765TIP3    H1 2259   6.443   0.471   0.361
  765TIP3    H2 2260   6.587   0.440   0.326
  766TIP3   OH2 2261   4.199   3.299   3.363
  766TIP3    H1 2262   4.284   3.292   3.406
  766TIP3    H2 2263   4.204   3.238   3.289
  767TIP3   OH2 2264   3.427   1.626   3.395
  767TIP3    H1 2265   3.426   1.710   3.348
  767TIP3    H2 2266   3.353   1.632   3.455
  768TIP3   OH2 2267   4.030   0.127   0.444
  768TIP3    H1 2268   4.102   0.128   0.381
  768TIP3    H2 2269   4.058   0.185   0.515
  769TIP3   OH2 2270   1.957   5.418   0.060
  769TIP3    H1 2271   1.885   5.379   0.110
  769TIP3    H2 2272   1.959   5.510   0.088
  770TIP3   OH2 2273   6.640   2.527   0.541
  770TIP3    H1 2274   6.636   2.623   0.534
  770TIP3    H2 2275   6.563   2.497   0.494
  771TIP3   OH2 2276   6.487   0.648   4.851
  771TIP3    H1 2277   6.451   0.657   4.940
  771TIP3    H2 2278   6.579   0.627   4.864
  772TIP3   OH2 2279   4.773   5.702   3.780
  772TIP3    H1 2280   4.785   5.645   3.856
  772TIP3    H2 2281   4.788   5.791   3.814
  773TIP3   OH2 2282   2.853   2.026   5.746
  773TIP3    H1 2283   2.912   2.087   5.702
  773TIP3    H2 2284   2.784   2.008   5.682
  774TIP3   OH2 2285   0.058   0.705   1.030
  774TIP3    H1 2286   0.136   0.700   0.975
  774TIP3    H2 2287   0.041   0.615   1.056
  775TIP3   OH2 2288   3.331   6.370   4.652
  775TIP3    H1 2289   3.383   6.439   4.692
  775TIP3    H2 2290   3.241   6.388   4.681
  776TIP3   OH2 2291   2.990   5.590   1.838
  776TIP3    H1 2292   2.916   5.578   1.898
  776TIP3    H2 2293   3.020   5.679   1.854
  777TIP3   OH2 2294   0.550   2.734   4.837
  777TIP3    H1 2295   0.553   2.825   4.866
  777TIP3    H2 2296   0.555   2.683   4.918
  778TIP3   OH2 2297   5.839   5.349   5.326
  778TIP3    H1 2298   5.868   5.313   5.242
  778TIP3    H2 2299   5.878   5.436   5.330
  779TIP3   OH2 2300   0.947   3.971   2.858
  779TIP3    H1 2301   1.039   3.975   2.831
  779TIP3    H2 2302   0.925   3.878   2.854
  780TIP3   OH2 2303   5.718   4.528   0.617
  780TIP3    H1 2304   5.682   4.603   0.570
  780TIP3    H2 2305   5.695   4.544   0.708
  781TIP3   OH2 2306   5.800   6.138   0.943
  781TIP3    H1 2307   5.850   6.071   0.896
  781TIP3    H2 2308   5.710   6.127   0.910
  782TIP3   OH2 2309   3.539   0.603   2.357
  782TIP3    H1 2310   3.596   0.538   2.316
  782TIP3    H2 2311   3.497   0.557   2.429
  783TIP3   OH2 2312   1.206   0.309   1.717
  783TIP3    H1 2313   1.117   0.342   1.704
  783TIP3    H2 2314   1.198   0.245   1.787
  784TIP3   OH2 2315   2.135   4.022   2.964
  784TIP3    H1 2316   2.096   3.937   2.941
  784TIP3    H2 2317   2.141   4.021   3.059
  785TIP3   OH2 2318   7.143   2.860   2.644
  785TIP3    H1 2319   7.060   2.813   2.644
  785TIP3    H2 2320   7.142   2.910   2.726
  786TIP3   OH2 2321   3.223   3.847   0.949
  786TIP3    H1 2322   3.158   3.912   0.975
  786TIP3    H2 2323   3.172   3.767   0.936
  787TIP3   OH2 2324   4.583   5.494   5.123
  787TIP3    H1 2325   4.665   5.446   5.108
  787TIP3    H2 2326   4.605   5.559   5.190
  788TIP3   OH2 2327   5.888   1.862   0.762
  788TIP3    H1 2328   5.923   1.947   0.787
  788TIP3    H2 2329   5.797   1.863   0.793
  789TIP3   OH2 2330   0.837   0.798   5.572
  789TIP3    H1 2331   0.901   0.838   5.512
  789TIP3    H2 2332   0.890   0.761   5.642
  790TIP3   OH2 2333   1.015   4.996   0.051
  790TIP3    H1 2334   0.974   4.931  -0.007
  790TIP3    H2 2335   1.100   5.013   0.011
  791TIP3   OH2 2336   1.041   4.433   4.642
  791TIP3    H1 2337   0.978   4.360   4.648
  791TIP3    H2 2338   1.058   4.457   4.732
  792TIP3   OH2 2339   4.558   2.230   2.306
  792TIP3    H1 2340   4.555   2.157   2.244
  792TIP3    H2 2341   4.467   2.245   2.330
  793TIP3   OH2 2342   0.890   4.836   4.489
  793TIP3    H1 2343   0.930   4.773   4.429
  793TIP3    H2 2344   0.941   4.916   4.478
  794TIP3   OH2 2345   1.844   3.624   5.168
  794TIP3    H1 2346   1.882   3.711   5.180
  794TIP3    H2 2347   1.786   3.613   5.244
  795TIP3   OH2 2348   5.795   5.737   5.596
  795TIP3    H1 2349   5.844   5.810   5.559
  795TIP3    H2 2350   5.823   5.660   5.546
  796TIP3   OH2 2351  -0.020   5.221   1.167
  796TIP3    H1 2352  -0.031   5.261   1.253
  796TIP3    H2 2353   0.051   5.157   1.180
  797TIP3   OH2 2354   5.909   1.678   2.567
  797TIP3    H1 2355   5.880   1.766   2.591
  797TIP3    H2 2356   5.928   1.684   2.473
  798TIP3   OH2 2357   6.416   2.237   5.457
  798TIP3    H1 2358   6.435   2.307   5.395
  798TIP3    H2 2359   6.321   2.226   5.453
  799TIP3   OH2 2360   1.758   5.088   5.605
  799TIP3    H1 2361   1.664   5.075   5.597
  799TIP3    H2 2362   1.768   5.157   5.671
  800TIP3   OH2 2363   0.901   4.951   5.272
  800TIP3    H1 2364   0.956   4.875   5.248
  800TIP3    H2 2365   0.920   5.016   5.204
  801TIP3   OH2 2366   0.894   5.818   5.173
  801TIP3    H1 2367   0.799   5.822   5.167
  801TIP3    H2 2368   0.920   5.761   5.101
  802TIP3   OH2 2369   4.374   3.309   3.923
  802TIP3    H1 2370   4.435   3.321   3.850
  802TIP3    H2 2371   4.405   3.371   3.990
  803TIP3   OH2 2372   3.034   5.872   5.303
  803TIP3    H1 2373   3.013   5.896   5.212
  803TIP3    H2 2374   3.060   5.955   5.344
  804TIP3   OH2 2375   5.896   2.253   2.193
  804TIP3    H1 2376   5.972   2.213   2.235
  804TIP3    H2 2377   5.840   2.179   2.169
  805TIP3   OH2 2378   4.536   1.599   0.577
  805TIP3    H1 2379   4.522   1.515   0.621
  805TIP3    H2 2380   4.570   1.657   0.645
  806TIP3   OH2 2381   2.912   4.854   2.141
  806TIP3    H1 2382   2.872   4.780   2.095
  806TIP3    H2 2383   3.006   4.844   2.123
  807TIP3   OH2 2384   5.061   4.024   2.212
  807TIP3    H1 2385   5.150   4.058   2.219
  807TIP3    H2 2386   5.058   3.952   2.276
  808TIP3   OH2 2387   3.981   5.476   2.262
  808TIP3    H1 2388   4.012   5.561   2.229
  808TIP3    H2 2389   4.049   5.447   2.323
  809TIP3   OH2 2390   6.385   0.678   2.957
  809TIP3    H1 2391   6.339   0.701   3.037
  809TIP3    H2 2392   6.475   0.707   2.971
  810TIP3   OH2 2393   1.568   3.656   1.178
  810TIP3    H1 2394   1.529   3.572   1.152
  810TIP3    H2 2395   1.530   3.719   1.118
  811TIP3   OH2 2396   1.730   6.379   4.547
  811TIP3    H1 2397   1.674   6.430   4.489
  811TIP3    H2 2398   1.816   6.420   4.540
  812TIP3   OH2 2399   0.091   3.228   4.861
  812TIP3    H1 2400   0.174   3.220   4.908
  812TIP3    H2 2401   0.075   3.140   4.825
  813TIP3   OH2 2402   1.252   1.073   1.084
  813TIP3    H1 2403   1.322   1.035   1.137
  813TIP3    H2 2404   1.278   1.057   0.994
  814TIP3   OH2 2405   2.253   3.499   0.760
  814TIP3    H1 2406   2.226   3.465   0.846
  814TIP3    H2 2407   2.331   3.447   0.738
  815TIP3   OH2 2408   6.497   2.839   5.305
  815TIP3    H1 2409   6.553   2.883   5.369
  815TIP3    H2 2410   6.460   2.911   5.253
  816TIP3   OH2 2411   6.626   2.544   2.821
  816TIP3    H1 2412   6.642   2.503   2.737
  816TIP3    H2 2413   6.557   2.491   2.862
  817TIP3   OH2 2414   4.592   1.784   4.414
  817TIP3    H1 2415   4.540   1.709   4.384
  817TIP3    H2 2416   4.615   1.761   4.504
  818TIP3   OH2 2417   1.226   0.400   0.105
  818TIP3    H1 2418   1.200   0.453   0.181
  818TIP3    H2 2419   1.278   0.460   0.051
  819TIP3   OH2 2420   6.940   5.353   4.017
  819TIP3    H1 2421   6.997   5.283   4.051
  819TIP3    H2 2422   6.990   5.393   3.947
  820TIP3   OH2 2423   4.565   3.902   0.036
  820TIP3    H1 2424   4.513   3.915  -0.043
  820TIP3    H2 2425   4.529   3.823   0.077
  821TIP3   OH2 2426   5.796   1.610   4.848
  821TIP3    H1 2427   5.797   1.704   4.865
  821TIP3    H2 2428   5.733   1.576   4.912
  822TIP3   OH2 2429   4.084   1.480   1.848
  822TIP3    H1 2430   4.013   1.431   1.806
  822TIP3    H2 2431   4.099   1.555   1.790
  823TIP3   OH2 2432   3.229   4.536   5.094
  823TIP3    H1 2433   3.195   4.552   5.006
  823TIP3    H2 2434   3.208   4.444   5.111
  824TIP3   OH2 2435   4.310   4.287   1.932
  824TIP3    H1 2436   4.333   4.197   1.957
  824TIP3    H2 2437   4.272   4.278   1.844
  825TIP3   OH2 2438   0.358   6.496   1.480
  825TIP3    H1 2439   0.400   6.421   1.437
  825TIP3    H2 2440   0.363   6.566   1.416
  826TIP3   OH2 2441   4.756   4.869   3.577
  826TIP3    H1 2442   4.724   4.952   3.543
  826TIP3    H2 2443   4.697   4.850   3.651
  827TIP3   OH2 2444   2.668   0.459   2.868
  827TIP3    H1 2445   2.718   0.514   2.808
  827TIP3    H2 2446   2.582   0.450   2.826
  828TIP3   OH2 2447   2.715   5.998   0.805
  828TIP3    H1 2448   2.793   5.991   0.750
  828TIP3    H2 2449   2.716   6.088   0.837
  829TIP3   OH2 2450   5.077   1.176   2.352
  829TIP3    H1 2451   5.090   1.087   2.385
  829TIP3    H2 2452   4.983   1.180   2.331
  830TIP3   OH2 2453   7.061   4.274   5.074
  830TIP3    H1 2454   7.044   4.185   5.046
  830TIP3    H2 2455   6.996   4.327   5.028
  831TIP3   OH2 2456   3.341   3.466   5.421
  831TIP3    H1 2457   3.247   3.471   5.439
  831TIP3    H2 2458   3.365   3.376   5.443
  832TIP3   OH2 2459   4.625   4.184   1.490
  832TIP3    H1 2460   4.659   4.272   1.474
  832TIP3    H2 2461   4.574   4.163   1.412
  833TIP3   OH2 2462   6.136   6.435   0.924
  833TIP3    H1 2463   6.062   6.389   0.964
  833TIP3    H2 2464   6.160   6.502   0.988
  834TIP3   OH2 2465   5.429   3.749   1.773
  834TIP3    H1 2466   5.491   3.812   1.738
  834TIP3    H2 2467   5.350   3.800   1.791
  835TIP3   OH2 2468   6.735   3.860   2.229
  835TIP3    H1 2469   6.795   3.924   2.267
  835TIP3    H2 2470   6.740   3.876   2.135
  836TIP3   OH2 2471   1.005   6.553   2.020
  836TIP3    H1 2472   0.917   6.567   2.057
  836TIP3    H2 2473   1.064   6.592   2.084
  837TIP3   OH2 2474   2.227   2.818   0.713
  837TIP3    H1 2475   2.160   2.822   0.644
  837TIP3    H2 2476   2.243   2.725   0.725
  838TIP3   OH2 2477   1.288   6.805   0.566
  838TIP3    H1 2478   1.376   6.833   0.539
  838TIP3    H2 2479   1.298   6.713   0.590
  839TIP3   OH2 2480   3.588   2.739   1.328
  839TIP3    H1 2481   3.681   2.750   1.309
  839TIP3    H2 2482   3.559   2.670   1.268
  840TIP3   OH2 2483   6.242   5.676   1.968
  840TIP3    H1 2484   6.303   5.625   2.021
  840TIP3    H2 2485   6.157   5.634   1.982
  841TIP3   OH2 2486   3.013   4.835   0.677
  841TIP3    H1 2487   3.102   4.839   0.712
  841TIP3    H2 2488   3.023   4.793   0.591
  842TIP3   OH2 2489   0.435   6.117   1.541
  842TIP3    H1 2490   0.479   6.058   1.601
  842TIP3    H2 2491   0.503   6.180   1.516
  843TIP3   OH2 2492   6.906   0.629   3.676
  843TIP3    H1 2493   6.832   0.689   3.662
  843TIP3    H2 2494   6.942   0.655   3.761
  844TIP3   OH2 2495   3.841   2.096   5.065
  844TIP3    H1 2496   3.818   2.026   5.005
  844TIP3    H2 2497   3.867   2.169   5.009
  845TIP3   OH2 2498   3.588   6.617   3.778
  845TIP3    H1 2499   3.566   6.611   3.685
  845TIP3    H2 2500   3.608   6.709   3.793
  846TIP3   OH2 2501   2.814   0.959   1.623
  846TIP3    H1 2502   2.745   0.922   1.679
  846TIP3    H2 2503   2.875   0.887   1.609
  847TIP3   OH2 2504   6.572   5.062   5.182
  847TIP3    H1 2505   6.666   5.059   5.162
  847TIP3    H2 2506   6.568   5.050   5.277
  848TIP3   OH2 2507   0.352   4.966   1.857
  848TIP3    H1 2508   0.277   5.001   1.904
  848TIP3    H2 2509   0.428   4.991   1.909
  849TIP3   OH2 2510   1.631   3.893   4.383
  849TIP3    H1 2511   1.571   3.951   4.429
  849TIP3    H2 2512   1.622   3.918   4.291
  850TIP3   OH2 2513   5.910   0.363   1.944
  850TIP3    H1 2514   5.967   0.392   2.015
  850TIP3    H2 2515   5.944   0.277   1.919
  851TIP3   OH2 2516   1.048   3.974   0.772
  851TIP3    H1 2517   0.994   3.910   0.726
  851TIP3    H2 2518   1.130   3.976   0.724
  852TIP3   OH2 2519   0.211   2.101   2.124
  852TIP3    H1 2520   0.220   2.146   2.040
  852TIP3    H2 2521   0.292   2.121   2.170
  853TIP3   OH2 2522   5.261   4.458   0.109
  853TIP3    H1 2523   5.184   4.511   0.087
  853TIP3    H2 2524   5.321   4.472   0.036
  854TIP3   OH2 2525   6.110   5.383   3.022
  854TIP3    H1 2526   6.176   5.318   3.000
  854TIP3    H2 2527   6.038   5.333   3.059
  855TIP3   OH2 2528   1.040   5.759   2.135
  855TIP3    H1 2529   1.050   5.853   2.120
  855TIP3    H2 2530   1.119   5.720   2.098
  856TIP3   OH2 2531   3.424   6.726   0.740
  856TIP3    H1 2532   3.424   6.677   0.822
  856TIP3    H2 2533   3.334   6.720   0.708
  857TIP3   OH2 2534   5.332   4.373   0.749
  857TIP3    H1 2535   5.348   4.314   0.675
  857TIP3    H2 2536   5.255   4.336   0.793
  858TIP3   OH2 2537   3.154   4.318   0.946
  858TIP3    H1 2538   3.191   4.394   0.991
  858TIP3    H2 2539   3.213   4.302   0.873
  859TIP3   OH2 2540   1.233   1.624   4.651
  859TIP3    H1 2541   1.308   1.575   4.683
  859TIP3    H2 2542   1.250   1.637   4.558
  860TIP3   OH2 2543   1.178   4.421   4.244
  860TIP3    H1 2544   1.219   4.416   4.330
  860TIP3    H2 2545   1.175   4.331   4.213
  861TIP3   OH2 2546   1.795   5.413   3.632
  861TIP3    H1 2547   1.833   5.485   3.582
  861TIP3    H2 2548   1.707   5.402   3.596
  862TIP3   OH2 2549   3.048   0.940   1.899
  862TIP3    H1 2550   3.097   0.881   1.842
  862TIP3    H2 2551   3.010   1.006   1.840
  863TIP3   OH2 2552   4.614   5.049   2.972
  863TIP3    H1 2553   4.539   5.096   3.008
  863TIP3    H2 2554   4.621   5.081   2.882
  864TIP3   OH2 2555   1.092   1.596   0.990
  864TIP3    H1 2556   1.187   1.603   0.991
  864TIP3    H2 2557   1.070   1.553   1.073
  865TIP3   OH2 2558   6.840   6.654   4.226
  865TIP3    H1 2559   6.748   6.676   4.235
  865TIP3    H2 2560   6.883   6.736   4.202
  866TIP3   OH2 2561   0.034   1.596   4.570
  866TIP3    H1 2562  -0.026   1.583   4.497
  866TIP3    H2 2563   0.014   1.525   4.631
  867TIP3   OH2 2564   7.202   2.202   1.434
  867TIP3    H1 2565   7.121   2.200   1.486
  867TIP3    H2 2566   7.265   2.151   1.485
  868TIP3   OH2 2567   4.478   6.400   3.827
  868TIP3    H1 2568   4.437   6.314   3.828
  868TIP3    H2 2569   4.418   6.454   3.776
  869TIP3   OH2 2570   0.935   0.492   1.276
  869TIP3    H1 2571   0.888   0.528   1.351
  869TIP3    H2 2572   0.924   0.397   1.284
  870TIP3   OH2 2573   6.999   3.644   2.053
  870TIP3    H1 2574   6.968   3.567   2.006
  870TIP3    H2 2575   6.993   3.621   2.145
  871TIP3   OH2 2576   5.516   1.194   2.145
  871TIP3    H1 2577   5.598   1.176   2.099
  871TIP3    H2 2578   5.447   1.173   2.081
  872TIP3   OH2 2579   6.794   6.439   1.043
  872TIP3    H1 2580   6.719   6.484   1.004
  872TIP3    H2 2581   6.756   6.375   1.102
  873TIP3   OH2 2582   2.469   0.588   0.626
  873TIP3    H1 2583   2.511   0.589   0.712
  873TIP3    H2 2584   2.529   0.638   0.570
  874TIP3   OH2 2585   5.445   1.599   2.970
  874TIP3    H1 2586   5.447   1.524   3.029
  874TIP3    H2 2587   5.457   1.562   2.882
  875TIP3   OH2 2588   5.745   3.810   0.230
  875TIP3    H1 2589   5.742   3.900   0.197
  875TIP3    H2 2590   5.813   3.811   0.296
  876TIP3   OH2 2591   1.012   0.364   3.588
  876TIP3    H1 2592   1.105   0.344   3.584
  876TIP3    H2 2593   0.973   0.291   3.637
  877TIP3   OH2 2594   3.767   3.031   1.156
  877TIP3    H1 2595   3.777   2.936   1.163
  877TIP3    H2 2596   3.780   3.049   1.063
  878TIP3   OH2 2597   6.064   0.684   3.026
  878TIP3    H1 2598   5.986   0.696   3.080
  878TIP3    H2 2599   6.038   0.712   2.938
  879TIP3   OH2 2600   6.727   6.503   0.506
  879TIP3    H1 2601   6.684   6.433   0.556
  879TIP3    H2 2602   6.698   6.584   0.548
  880TIP3   OH2 2603   3.683   2.192   3.717
  880TIP3    H1 2604   3.594   2.216   3.691
  880TIP3    H2 2605   3.681   2.191   3.812
  881TIP3   OH2 2606   4.002   2.110   3.042
  881TIP3    H1 2607   4.002   2.145   3.131
  881TIP3    H2 2608   4.040   2.181   2.989
  882TIP3   OH2 2609   5.582   2.679   3.939
  882TIP3    H1 2610   5.651   2.647   3.881
  882TIP3    H2 2611   5.621   2.679   4.026
  883TIP3   OH2 2612   3.984   0.649   4.089
  883TIP3    H1 2613   4.038   0.667   4.167
  883TIP3    H2 2614   3.953   0.735   4.062
  884TIP3   OH2 2615   0.000   1.904   0.419
  884TIP3    H1 2616   0.082   1.895   0.467
  884TIP3    H2 2617   0.016   1.861   0.335
  885TIP3   OH2 2618   2.461   3.346   2.174
  885TIP3    H1 2619   2.508   3.429   2.182
  885TIP3    H2 2620   2.385   3.356   2.232
  886TIP3   OH2 2621   2.711   1.501   2.039
  886TIP3    H1 2622   2.732   1.483   1.948
  886TIP3    H2 2623   2.712   1.416   2.083
  887TIP3   OH2 2624   2.999   2.363   0.834
  887TIP3    H1 2625   3.062   2.292   0.826
  887TIP3    H2 2626   3.020   2.423   0.763
  888TIP3   OH2 2627   1.442   4.657   1.120
  888TIP3    H1 2628   1.442   4.639   1.026
  888TIP3    H2 2629   1.382   4.731   1.131
  889TIP3   OH2 2630   6.579   1.087   5.153
  889TIP3    H1 2631   6.540   1.020   5.208
  889TIP3    H2 2632   6.626   1.039   5.085
  890TIP3   OH2 2633   1.133   4.159   0.105
  890TIP3    H1 2634   1.079   4.081   0.119
  890TIP3    H2 2635   1.154   4.157   0.012
  891TIP3   OH2 2636   4.806   6.145   2.774
  891TIP3    H1 2637   4.787   6.206   2.703
  891TIP3    H2 2638   4.721   6.129   2.816
  892TIP3   OH2 2639   4.051   0.115   5.567
  892TIP3    H1 2640   4.100   0.085   5.643
  892TIP3    H2 2641   4.109   0.097   5.493
  893TIP3   OH2 2642   0.346   5.238   4.231
  893TIP3    H1 2643   0.291   5.313   4.256
  893TIP3    H2 2644   0.405   5.274   4.165
  894TIP3   OH2 2645   0.134   2.990   4.432
  894TIP3    H1 2646   0.110   3.015   4.343
  894TIP3    H2 2647   0.091   3.055   4.487
  895TIP3   OH2 2648   0.996   2.932   2.988
  895TIP3    H1 2649   1.085   2.897   2.994
  895TIP3    H2 2650   0.969   2.913   2.899
  896TIP3   OH2 2651   5.718   3.984   2.552
  896TIP3    H1 2652   5.764   3.923   2.494
  896TIP3    H2 2653   5.769   4.065   2.547
  897TIP3   OH2 2654   7.041   1.466   3.946
  897TIP3    H1 2655   7.014   1.555   3.924
  897TIP3    H2 2656   6.961   1.414   3.940
  898TIP3   OH2 2657   5.078   4.892   1.020
  898TIP3    H1 2658   5.079   4.798   1.005
  898TIP3    H2 2659   4.985   4.914   1.025
  899TIP3   OH2 2660   3.474   2.957   1.811
  899TIP3    H1 2661   3.497   2.929   1.722
  899TIP3    H2 2662   3.522   3.038   1.823
  900TIP3   OH2 2663   5.124   6.310   1.145
  900TIP3    H1 2664   5.058   6.340   1.082
  900TIP3    H2 2665   5.128   6.216   1.131
  901TIP3   OH2 2666   5.604   1.885   3.173
  901TIP3    H1 2667   5.565   1.845   3.094
  901TIP3    H2 2668   5.669   1.821   3.202
  902TIP3   OH2 2669   1.406   0.690   2.809
  902TIP3    H1 2670   1.406   0.594   2.806
  902TIP3    H2 2671   1.483   0.712   2.862
  903TIP3   OH2 2672   1.229   2.256   0.309
  903TIP3    H1 2673   1.296   2.188   0.318
  903TIP3    H2 2674   1.251   2.322   0.375
  904TIP3   OH2 2675   3.964   5.071   4.861
  904TIP3    H1 2676   3.922   5.104   4.941
  904TIP3    H2 2677   3.895   5.074   4.795
  905TIP3   OH2 2678   2.996   3.920   3.334
  905TIP3    H1 2679   3.018   3.882   3.249
  905TIP3    H2 2680   3.020   4.012   3.326
  906TIP3   OH2 2681   1.728   5.850   1.273
  906TIP3    H1 2682   1.725   5.931   1.324
  906TIP3    H2 2683   1.766   5.874   1.189
  907TIP3   OH2 2684   4.065   1.135   0.882
  907TIP3    H1 2685   4.123   1.102   0.814
  907TIP3    H2 2686   4.001   1.065   0.895
  908TIP3   OH2 2687   4.383   5.500   3.912
  908TIP3    H1 2688   4.420   5.441   3.847
  908TIP3    H2 2689   4.432   5.581   3.902
  909TIP3   OH2 2690   6.888   5.820   2.542
  909TIP3    H1 2691   6.933   5.827   2.627
  909TIP3    H2 2692   6.825   5.892   2.543
  910TIP3   OH2 2693   6.291   1.150   5.382
  910TIP3    H1 2694   6.310   1.213   5.452
  910TIP3    H2 2695   6.345   1.178   5.309
  911TIP3   OH2 2696   6.779   3.460   3.621
  911TIP3    H1 2697   6.716   3.479   3.552
  911TIP3    H2 2698   6.731   3.406   3.684
  912TIP3   OH2 2699   7.163   0.041   4.017
  912TIP3    H1 2700   7.133   0.087   4.095
  912TIP3    H2 2701   7.110  -0.038   4.013
  913TIP3   OH2 2702   6.993   2.875   2.420
  913TIP3    H1 2703   7.036   2.893   2.336
  913TIP3    H2 2704   7.064   2.880   2.485
  914TIP3   OH2 2705   6.065   1.072   2.142
  914TIP3    H1 2706   6.046   1.166   2.151
  914TIP3    H2 2707   6.078   1.060   2.048
  915TIP3   OH2 2708   5.895   1.517   3.053
  915TIP3    H1 2709   5.974   1.570   3.045
  915TIP3    H2 2710   5.856   1.520   2.965
  916TIP3   OH2 2711   2.058   0.177   1.932
  916TIP3    H1 2712   1.966   0.168   1.908
  916TIP3    H2 2713   2.074   0.272   1.928
  917TIP3   OH2 2714   1.400   6.117   4.475
  917TIP3    H1 2715   1.369   6.150   4.560
  917TIP3    H2 2716   1.434   6.030   4.493
  918TIP3   OH2 2717   3.927   6.094   5.846
  918TIP3    H1 2718   4.021   6.086   5.832
  918TIP3    H2 2719   3.888   6.025   5.792
  919TIP3   OH2 2720   5.666   6.767   4.231
  919TIP3    H1 2721   5.571   6.765   4.225
  919TIP3    H2 2722   5.693   6.675   4.227
  920TIP3   OH2 2723   5.989   3.313   4.486
  920TIP3    H1 2724   5.989   3.409   4.494
  920TIP3    H2 2725   5.914   3.285   4.538
  921TIP3   OH2 2726   5.677   5.752   2.932
  921TIP3    H1 2727   5.711   5.778   3.018
  921TIP3    H2 2728   5.724   5.808   2.870
  922TIP3   OH2 2729   2.353   4.473   1.221
  922TIP3    H1 2730   2.395   4.529   1.156
  922TIP3    H2 2731   2.346   4.528   1.300
  923TIP3   OH2 2732   1.958   1.408   3.443
  923TIP3    H1 2733   1.951   1.318   3.474
  923TIP3    H2 2734   1.893   1.456   3.495
  924TIP3   OH2 2735   6.715   3.036   0.346
  924TIP3    H1 2736   6.726   3.060   0.439
  924TIP3    H2 2737   6.796   3.063   0.305
  925TIP3   OH2 2738   4.412   6.531   0.371
  925TIP3    H1 2739   4.344   6.586   0.410
  925TIP3    H2 2740   4.480   6.593   0.344
  926TIP3   OH2 2741   3.573   0.329   5.915
  926TIP3    H1 2742   3.532   0.243   5.927
  926TIP3    H2 2743   3.637   0.316   5.846
  927TIP3   OH2 2744   0.499   1.047   0.893
  927TIP3    H1 2745   0.451   0.976   0.852
  927TIP3    H2 2746   0.431   1.106   0.926
  928TIP3   OH2 2747   0.751   1.397   2.447
  928TIP3    H1 2748   0.745   1.396   2.351
  928TIP3    H2 2749   0.714   1.482   2.472
  929TIP3   OH2 2750   3.075   5.070   0.181
  929TIP3    H1 2751   3.051   5.098   0.093
  929TIP3    H2 2752   3.057   4.976   0.183
  930TIP3   OH2 2753   5.142   3.548   0.151
  930TIP3    H1 2754   5.087   3.602   0.094
  930TIP3    H2 2755   5.171   3.608   0.219
  931TIP3   OH2 2756   5.387   3.370   4.472
  931TIP3    H1 2757   5.452   3.306   4.445
  931TIP3    H2 2758   5.343   3.330   4.546
  932TIP3   OH2 2759   3.453   3.077   4.124
  932TIP3    H1 2760   3.392   3.114   4.188
  932TIP3    H2 2761   3.433   2.984   4.123
  933TIP3   OH2 2762   2.449   3.926   4.374
  933TIP3    H1 2763   2.363   3.957   4.346
  933TIP3    H2 2764   2.444   3.921   4.469
  934TIP3   OH2 2765   1.003   0.363   3.200
  934TIP3    H1 2766   1.003   0.301   3.273
  934TIP3    H2 2767   0.947   0.435   3.231
  935TIP3   OH2 2768   2.703   0.582   0.420
  935TIP3    H1 2769   2.784   0.629   0.399
  935TIP3    H2 2770   2.726   0.526   0.494
  936TIP3   OH2 2771   4.534   5.315   4.104
  936TIP3    H1 2772   4.480   5.276   4.172
  936TIP3    H2 2773   4.479   5.384   4.066
  937TIP3   OH2 2774   6.401   4.501   1.999
  937TIP3    H1 2775   6.455   4.454   1.935
  937TIP3    H2 2776   6.461   4.561   2.041
  938TIP3   OH2 2777   1.105   2.147   2.692
  938TIP3    H1 2778   1.069   2.061   2.671
  938TIP3    H2 2779   1.156   2.132   2.772
  939TIP3   OH2 2780   2.398   2.265   1.825
  939TIP3    H1 2781   2.487   2.245   1.854
  939TIP3    H2 2782   2.376   2.194   1.764
  940TIP3   OH2 2783   7.139   6.159   1.335
  940TIP3    H1 2784   7.086   6.237   1.317
  940TIP3    H2 2785   7.124   6.141   1.427
  941TIP3   OH2 2786   2.976   0.732   3.954
  941TIP3    H1 2787   3.024   0.649   3.943
  941TIP3    H2 2788   2.901   0.708   4.008
  942TIP3   OH2 2789   2.605   0.781   3.855
  942TIP3    H1 2790   2.514   0.794   3.883
  942TIP3    H2 2791   2.648   0.742   3.931
  943TIP3   OH2 2792   2.503   4.532   0.379
  943TIP3    H1 2793   2.489   4.465   0.311
  943TIP3    H2 2794   2.499   4.615   0.332
  944TIP3   OH2 2795   6.919   0.845   1.996
  944TIP3    H1 2796   7.011   0.827   1.981
  944TIP3    H2 2797   6.916   0.885   2.083
  945TIP3   OH2 2798   1.288   4.877   1.157
  945TIP3    H1 2799   1.256   4.910   1.240
  945TIP3    H2 2800   1.329   4.953   1.114
  946TIP3   OH2 2801   0.402   0.450   3.502
  946TIP3    H1 2802   0.363   0.531   3.534
  946TIP3    H2 2803   0.441   0.473   3.418
  947TIP3   OH2 2804   0.960   5.777   1.431
  947TIP3    H1 2805   0.979   5.725   1.353
  947TIP3    H2 2806   0.981   5.867   1.406
  948TIP3   OH2 2807   2.991   1.246   5.062
  948TIP3    H1 2808   2.930   1.251   5.136
  948TIP3    H2 2809   2.935   1.249   4.984
  949TIP3   OH2 2810   0.533   0.023   2.375
  949TIP3    H1 2811   0.456  -0.033   2.381
  949TIP3    H2 2812   0.504   0.098   2.323
  950TIP3   OH2 2813   4.437   2.398   0.071
  950TIP3    H1 2814   4.481   2.330   0.019
  950TIP3    H2 2815   4.434   2.362   0.159
  951TIP3   OH2 2816   4.850   1.922   3.887
  951TIP3    H1 2817   4.832   1.875   3.806
  951TIP3    H2 2818   4.864   2.013   3.859
  952TIP3   OH2 2819   1.113   3.008   0.665
  952TIP3    H1 2820   1.195   2.962   0.688
  952TIP3    H2 2821   1.136   3.060   0.588
  953TIP3   OH2 2822   6.383   4.356   4.243
  953TIP3    H1 2823   6.359   4.272   4.205
  953TIP3    H2 2824   6.446   4.335   4.311
  954TIP3   OH2 2825   2.314   2.154   4.644
  954TIP3    H1 2826   2.371   2.104   4.586
  954TIP3    H2 2827   2.228   2.115   4.632
  955TIP3   OH2 2828   3.071   0.888   2.364
  955TIP3    H1 2829   3.065   0.981   2.384
  955TIP3    H2 2830   3.164   0.871   2.349
  956TIP3   OH2 2831   5.001   3.446   1.436
  956TIP3    H1 2832   5.072   3.451   1.372
  956TIP3    H2 2833   4.922   3.470   1.388
  957TIP3   OH2 2834   7.122   3.416   4.462
  957TIP3    H1 2835   7.091   3.390   4.375
  957TIP3    H2 2836   7.042   3.428   4.513
  958TIP3   OH2 2837   5.049   4.750   4.877
  958TIP3    H1 2838   5.080   4.795   4.956
  958TIP3    H2 2839   5.024   4.662   4.908
  959TIP3   OH2 2840   7.094   0.672   0.759
  959TIP3    H1 2841   7.118   0.675   0.851
  959TIP3    H2 2842   7.069   0.762   0.738
  960TIP3   OH2 2843   1.122   0.023   0.812
  960TIP3    H1 2844   1.197   0.073   0.779
  960TIP3    H2 2845   1.118  -0.054   0.755
  961TIP3   OH2 2846   3.271   5.757   4.574
  961TIP3    H1 2847   3.328   5.830   4.548
  961TIP3    H2 2848   3.249   5.714   4.492
  962TIP3   OH2 2849   6.420   0.622   1.913
  962TIP3    H1 2850   6.430   0.680   1.837
  962TIP3    H2 2851   6.346   0.657   1.961
  963TIP3   OH2 2852   0.044   1.348   1.027
  963TIP3    H1 2853  -0.015   1.336   0.952
  963TIP3    H2 2854   0.113   1.406   0.994
  964TIP3   OH2 2855   5.761   2.688   4.146
  964TIP3    H1 2856   5.840   2.665   4.096
  964TIP3    H2 2857   5.764   2.631   4.223
  965TIP3   OH2 2858   4.011   2.385   4.891
  965TIP3    H1 2859   3.947   2.318   4.867
  965TIP3    H2 2860   3.969   2.433   4.963
  966TIP3   OH2 2861   1.582   0.112   1.337
  966TIP3    H1 2862   1.601   0.062   1.417
  966TIP3    H2 2863   1.487   0.125   1.339
  967TIP3   OH2 2864   3.927   4.513   2.451
  967TIP3    H1 2865   3.888   4.568   2.384
  967TIP3    H2 2866   3.972   4.444   2.403
  968TIP3   OH2 2867   3.454   4.276   5.072
  968TIP3    H1 2868   3.495   4.230   5.145
  968TIP3    H2 2869   3.362   4.249   5.076
  969TIP3   OH2 2870   5.564   1.861   4.228
  969TIP3    H1 2871   5.657   1.847   4.242
  969TIP3    H2 2872   5.549   1.952   4.255
  970TIP3   OH2 2873   1.018   5.623   4.367
  970TIP3    H1 2874   1.089   5.588   4.313
  970TIP3    H2 2875   1.028   5.718   4.359
  971TIP3   OH2 2876   3.711   6.656   4.863
  971TIP3    H1 2877   3.669   6.719   4.923
  971TIP3    H2 2878   3.787   6.703   4.829
  972TIP3   OH2 2879   0.145   6.259   4.934
  972TIP3    H1 2880   0.199   6.314   4.876
  972TIP3    H2 2881   0.196   6.179   4.944
  973TIP3   OH2 2882   5.139   1.506   1.598
  973TIP3    H1 2883   5.156   1.413   1.613
  973TIP3    H2 2884   5.051   1.510   1.563
  974TIP3   OH2 2885   5.277   2.802   2.189
  974TIP3    H1 2886   5.250   2.867   2.124
  974TIP3    H2 2887   5.216   2.730   2.177
  975TIP3   OH2 2888   0.682   3.120   2.659
  975TIP3    H1 2889   0.688   3.028   2.633
  975TIP3    H2 2890   0.589   3.134   2.679
  976TIP3   OH2 2891   4.873   2.876   2.409
  976TIP3    H1 2892   4.865   2.882   2.505
  976TIP3    H2 2893   4.900   2.786   2.393
  977TIP3   OH2 2894   0.457   3.637   5.036
  977TIP3    H1 2895   0.487   3.720   4.998
  977TIP3    H2 2896   0.427   3.586   4.960
  978TIP3   OH2 2897   0.048   0.542   3.467
  978TIP3    H1 2898   0.055   0.630   3.505
  978TIP3    H2 2899  -0.040   0.513   3.490
  979TIP3   OH2 2900   1.709   2.644   0.638
  979TIP3    H1 2901   1.687   2.729   0.678
  979TIP3    H2 2902   1.632   2.620   0.588
  980TIP3   OH2 2903   4.786   1.076   5.387
  980TIP3    H1 2904   4.734   1.152   5.414
  980TIP3    H2 2905   4.853   1.067   5.455
  981TIP3   OH2 2906   2.335   3.413   5.357
  981TIP3    H1 2907   2.420   3.455   5.344
  981TIP3    H2 2908   2.285   3.477   5.408
  982TIP3   OH2 2909   3.598   3.865   0.346
  982TIP3    H1 2910   3.647   3.931   0.395
  982TIP3    H2 2911   3.642   3.862   0.260
  983TIP3   OH2 2912   1.030   6.436   1.190
  983TIP3    H1 2913   0.942   6.473   1.198
  983TIP3    H2 2914   1.083   6.488   1.251
  984TIP3   OH2 2915   4.624   1.787   3.148
  984TIP3    H1 2916   4.535   1.751   3.146
  984TIP3    H2 2917   4.649   1.794   3.056
  985TIP3   OH2 2918   2.564   3.487   0.134
  985TIP3    H1 2919   2.646   3.519   0.095
  985TIP3    H2 2920   2.510   3.462   0.058
  986TIP3   OH2 2921   6.392   4.197   0.068
  986TIP3    H1 2922   6.349   4.165   0.147
  986TIP3    H2 2923   6.436   4.121   0.031
  987TIP3   OH2 2924   4.694   2.036   0.208
  987TIP3    H1 2925   4.678   2.125   0.238
  987TIP3    H2 2926   4.787   2.034   0.184
  988TIP3   OH2 2927   5.980   1.879   5.299
  988TIP3    H1 2928   5.947   1.949   5.355
  988TIP3    H2 2929   6.022   1.925   5.226
  989TIP3   OH2 2930   5.032   2.438   1.832
  989TIP3    H1 2931   4.987   2.373   1.778
  989TIP3    H2 2932   5.019   2.521   1.785
  990TIP3   OH2 2933   1.368   5.073   1.881
  990TIP3    H1 2934   1.295   5.076   1.819
  990TIP3    H2 2935   1.390   4.980   1.888
  991TIP3   OH2 2936   0.994   1.280   5.840
  991TIP3    H1 2937   1.018   1.221   5.768
  991TIP3    H2 2938   0.926   1.336   5.803
  992TIP3   OH2 2939   2.594   0.193   3.354
  992TIP3    H1 2940   2.690   0.198   3.349
  992TIP3    H2 2941   2.576   0.101   3.371
  993TIP3   OH2 2942   3.054   1.796   1.577
  993TIP3    H1 2943   3.147   1.813   1.564
  993TIP3    H2 2944   3.012   1.821   1.495
  994TIP3   OH2 2945   6.366   1.696   5.146
  994TIP3    H1 2946   6.301   1.737   5.089
  994TIP3    H2 2947   6.337   1.606   5.156
  995TIP3   OH2 2948   3.682   1.645   3.836
  995TIP3    H1 2949   3.648   1.735   3.829
  995TIP3    H2 2950   3.777   1.656   3.843
  996TIP3   OH2 2951   5.449   3.446   0.109
  996TIP3    H1 2952   5.395   3.522   0.130
  996TIP3    H2 2953   5.535   3.482   0.087
  997TIP3   OH2 2954   2.234   2.354   5.392
  997TIP3    H1 2955   2.326   2.349   5.366
  997TIP3    H2 2956   2.187   2.310   5.321
  998TIP3   OH2 2957   7.006   0.396   4.485
  998TIP3    H1 2958   7.004   0.455   4.410
  998TIP3    H2 2959   7.094   0.359   4.486
  999TIP3   OH2 2960   5.999   5.461   0.965
  999TIP3    H1 2961   5.962   5.546   0.942
  999TIP3    H2 2962   5.923   5.404   0.976
 1000TIP3   OH2 2963   2.237   2.023   3.578
 1000TIP3    H1 2964   2.165   1.973   3.618
 1000TIP3    H2 2965   2.202   2.052   3.494
 1001TIP3   OH2 2966   7.171   4.664   2.142
 1001TIP3    H1 2967   7.161   4.759   2.135
 1001TIP3    H2 2968   7.262   4.651   2.168
 1002TIP3   OH2 2969   0.144   0.535   4.558
 1002TIP3    H1 2970   0.179   0.509   4.643
 1002TIP3    H2 2971   0.092   0.460   4.530
 1003TIP3   OH2 2972   1.261   6.590   4.540
 1003TIP3    H1 2973   1.205   6.665   4.559
 1003TIP3    H2 2974   1.248   6.531   4.614
 1004TIP3   OH2 2975   3.775   0.000   5.842
 1004TIP3    H1 2976   3.701   0.008   5.782
 1004TIP3    H2 2977   3.823   0.083   5.832
 1005TIP3   OH2 2978   0.879   3.591   4.940
 1005TIP3    H1 2979   0.906   3.636   4.860
 1005TIP3    H2 2980   0.929   3.634   5.009
 1006TIP3   OH2 2981   2.439   3.152   5.366
 1006TIP3    H1 2982   2.424   3.245   5.383
 1006TIP3    H2 2983   2.358   3.123   5.324
 1007TIP3   OH2 2984   4.818   4.691   0.546
 1007TIP3    H1 2985   4.834   4.617   0.603
 1007TIP3    H2 2986   4.827   4.768   0.603
 1008TIP3   OH2 2987   2.993   2.143   0.488
 1008TIP3    H1 2988   3.070   2.149   0.431
 1008TIP3    H2 2989   3.005   2.060   0.534
 1009TIP3   OH2 2990   4.028   6.372   3.226
 1009TIP3    H1 2991   3.939   6.395   3.198
 1009TIP3    H2 2992   4.082   6.389   3.149
 1010TIP3   OH2 2993   5.705   6.636   3.150
 1010TIP3    H1 2994   5.765   6.668   3.217
 1010TIP3    H2 2995   5.623   6.681   3.168
 1011TIP3   OH2 2996   6.949   6.328   4.917
 1011TIP3    H1 2997   6.946   6.235   4.894
 1011TIP3    H2 2998   6.894   6.371   4.852
 1012TIP3   OH2 2999   6.783   5.567   2.748
 1012TIP3    H1 3000   6.796   5.620   2.669
 1012TIP3    H2 3001   6.741   5.626   2.810
 1013TIP3   OH2 3002   0.939   0.208   4.659
 1013TIP3    H1 3003   0.859   0.237   4.701
 1013TIP3    H2 3004   1.000   0.191   4.731
 1014TIP3   OH2 3005   6.682   4.511   1.610
 1014TIP3    H1 3006   6.769   4.474   1.620
 1014TIP3    H2 3007   6.659   4.494   1.518
 1015TIP3   OH2 3008   6.704   0.386   1.524
 1015TIP3    H1 3009   6.645   0.313   1.543
 1015TIP3    H2 3010   6.755   0.356   1.449
 1016TIP3   OH2 3011   4.448   2.765   3.103
 1016TIP3    H1 3012   4.377   2.805   3.153
 1016TIP3    H2 3013   4.417   2.677   3.082
 1017TIP3   OH2 3014   6.930   4.045   2.946
 1017TIP3    H1 3015   6.937   3.970   2.887
 1017TIP3    H2 3016   7.014   4.049   2.989
 1018TIP3   OH2 3017   2.465   6.220   1.932
 1018TIP3    H1 3018   2.470   6.129   1.903
 1018TIP3    H2 3019   2.382   6.252   1.894
 1019TIP3   OH2 3020   5.976   1.485   0.833
 1019TIP3    H1 3021   6.064   1.514   0.855
 1019TIP3    H2 3022   5.918   1.539   0.887
 1020TIP3   OH2 3023   0.181   2.989   0.987
 1020TIP3    H1 3024   0.253   3.048   0.963
 1020TIP3    H2 3025   0.213   2.943   1.064
 1021TIP3   OH2 3026   5.093   2.936   1.605
 1021TIP3    H1 3027   5.139   2.976   1.532
 1021TIP3    H2 3028   5.117   2.989   1.681
 1022TIP3   OH2 3029   3.752   1.218   1.727
 1022TIP3    H1 3030   3.779   1.129   1.750
 1022TIP3    H2 3031   3.688   1.242   1.794
 1023TIP3   OH2 3032   3.719   5.594   2.709
 1023TIP3    H1 3033   3.729   5.515   2.762
 1023TIP3    H2 3034   3.781   5.581   2.636
 1024TIP3   OH2 3035   1.131   1.640   5.832
 1024TIP3    H1 3036   1.116   1.610   5.742
 1024TIP3    H2 3037   1.220   1.612   5.852
 1025TIP3   OH2 3038   2.287   4.018   1.921
 1025TIP3    H1 3039   2.330   3.997   1.838
 1025TIP3    H2 3040   2.356   4.008   1.986
 1026TIP3   OH2 3041   2.443   1.769   4.219
 1026TIP3    H1 3042   2.373   1.729   4.168
 1026TIP3    H2 3043   2.432   1.863   4.205
 1027TIP3   OH2 3044   1.741   2.507   0.876
 1027TIP3    H1 3045   1.732   2.558   0.796
 1027TIP3    H2 3046   1.793   2.431   0.850
 1028TIP3   OH2 3047   2.949   1.711   3.812
 1028TIP3    H1 3048   2.973   1.625   3.845
 1028TIP3    H2 3049   2.925   1.761   3.890
 1029TIP3   OH2 3050   1.083   5.826   3.658
 1029TIP3    H1 3051   1.136   5.893   3.702
 1029TIP3    H2 3052   1.097   5.841   3.565
 1030TIP3   OH2 3053   6.641   3.966   2.671
 1030TIP3    H1 3054   6.696   4.043   2.676
 1030TIP3    H2 3055   6.584   3.972   2.748
 1031TIP3   OH2 3056   0.467   6.067   2.976
 1031TIP3    H1 3057   0.476   6.112   2.892
 1031TIP3    H2 3058   0.374   6.079   2.999
 1032TIP3   OH2 3059   4.588   4.886   1.868
 1032TIP3    H1 3060   4.514   4.832   1.841
 1032TIP3    H2 3061   4.665   4.837   1.839
 1033TIP3   OH2 3062   0.874   5.443   3.283
 1033TIP3    H1 3063   0.911   5.421   3.368
 1033TIP3    H2 3064   0.919   5.385   3.222
 1034TIP3   OH2 3065   6.709   0.603   5.662
 1034TIP3    H1 3066   6.615   0.597   5.643
 1034TIP3    H2 3067   6.742   0.515   5.644
 1035TIP3   OH2 3068   4.966   1.979   1.630
 1035TIP3    H1 3069   5.025   1.944   1.563
 1035TIP3    H2 3070   5.022   1.991   1.707
 1036TIP3   OH2 3071   2.151   3.343   4.231
 1036TIP3    H1 3072   2.068   3.336   4.183
 1036TIP3    H2 3073   2.162   3.437   4.245
 1037TIP3   OH2 3074   0.603   1.624   0.991
 1037TIP3    H1 3075   0.537   1.660   1.051
 1037TIP3    H2 3076   0.632   1.700   0.940
 1038TIP3   OH2 3077   0.303   2.663   3.414
 1038TIP3    H1 3078   0.384   2.664   3.363
 1038TIP3    H2 3079   0.276   2.754   3.419
 1039TIP3   OH2 3080   6.052   2.790   3.398
 1039TIP3    H1 3081   6.077   2.882   3.399
 1039TIP3    H2 3082   6.135   2.743   3.394
 1040TIP3   OH2 3083   3.449   6.586   4.757
 1040TIP3    H1 3084   3.377   6.644   4.783
 1040TIP3    H2 3085   3.527   6.626   4.796
 1041TIP3   OH2 3086   4.854   3.895   2.083
 1041TIP3    H1 3087   4.827   3.936   2.002
 1041TIP3    H2 3088   4.941   3.932   2.101
 1042TIP3   OH2 3089   1.101   5.071   1.788
 1042TIP3    H1 3090   1.013   5.046   1.818
 1042TIP3    H2 3091   1.086   5.117   1.706
 1043TIP3   OH2 3092   0.808   0.747   3.253
 1043TIP3    H1 3093   0.877   0.692   3.287
 1043TIP3    H2 3094   0.834   0.765   3.162
 1044TIP3   OH2 3095   0.049   0.263   5.261
 1044TIP3    H1 3096   0.087   0.296   5.343
 1044TIP3    H2 3097   0.085   0.321   5.193
 1045TIP3   OH2 3098   6.240   2.870   0.943
 1045TIP3    H1 3099   6.218   2.957   0.976
 1045TIP3    H2 3100   6.168   2.848   0.884
 1046TIP3   OH2 3101   1.400   2.372   1.062
 1046TIP3    H1 3102   1.397   2.284   1.023
 1046TIP3    H2 3103   1.378   2.358   1.154
 1047TIP3   OH2 3104   0.006   4.249   2.078
 1047TIP3    H1 3105  -0.056   4.178   2.096
 1047TIP3    H2 3106   0.069   4.210   2.018
 1048TIP3   OH2 3107   4.883   0.786   4.867
 1048TIP3    H1 3108   4.835   0.719   4.819
 1048TIP3    H2 3109   4.922   0.739   4.941
 1049TIP3   OH2 3110   3.461   5.588   2.320
 1049TIP3    H1 3111   3.461   5.680   2.346
 1049TIP3    H2 3112   3.547   5.556   2.346
 1050TIP3   OH2 3113   0.685   2.848   2.600
 1050TIP3    H1 3114   0.745   2.773   2.601
 1050TIP3    H2 3115   0.630   2.834   2.523
 1051TIP3   OH2 3116   2.711   4.461   1.344
 1051TIP3    H1 3117   2.794   4.418   1.324
 1051TIP3    H2 3118   2.646   4.392   1.337
 1052TIP3   OH2 3119   5.691   5.537   3.212
 1052TIP3    H1 3120   5.703   5.492   3.296
 1052TIP3    H2 3121   5.734   5.622   3.223
 1053TIP3   OH2 3122   6.015   0.281   3.701
 1053TIP3    H1 3123   6.018   0.207   3.763
 1053TIP3    H2 3124   6.058   0.248   3.622
 1054TIP3   OH2 3125   4.435   2.952   2.201
 1054TIP3    H1 3126   4.379   3.029   2.214
 1054TIP3    H2 3127   4.460   2.925   2.289
 1055TIP3   OH2 3128   3.337   2.139   4.050
 1055TIP3    H1 3129   3.381   2.115   4.132
 1055TIP3    H2 3130   3.256   2.182   4.077
 1056TIP3   OH2 3131   1.344   1.575   2.969
 1056TIP3    H1 3132   1.358   1.482   2.982
 1056TIP3    H2 3133   1.412   1.618   3.019
 1057TIP3   OH2 3134   6.047   5.487   3.269
 1057TIP3    H1 3135   6.139   5.470   3.286
 1057TIP3    H2 3136   6.028   5.439   3.188
 1058TIP3   OH2 3137   3.243   6.458   2.040
 1058TIP3    H1 3138   3.152   6.461   2.012
 1058TIP3    H2 3139   3.290   6.515   1.979
 1059TIP3   OH2 3140   0.174   0.074   1.554
 1059TIP3    H1 3141   0.167  -0.002   1.612
 1059TIP3    H2 3142   0.239   0.130   1.596
 1060TIP3   OH2 3143   2.078   5.910   2.667
 1060TIP3    H1 3144   2.067   5.879   2.757
 1060TIP3    H2 3145   2.172   5.901   2.650
 1061TIP3   OH2 3146   5.205   0.313   1.484
 1061TIP3    H1 3147   5.285   0.316   1.536
 1061TIP3    H2 3148   5.137   0.350   1.542
 1062TIP3   OH2 3149   1.389   1.080   0.004
 1062TIP3    H1 3150   1.472   1.096   0.047
 1062TIP3    H2 3151   1.364   0.992   0.032
 1063TIP3   OH2 3152   2.117   4.397   0.594
 1063TIP3    H1 3153   2.160   4.470   0.551
 1063TIP3    H2 3154   2.059   4.361   0.527
 1064TIP3   OH2 3155   2.124   1.577   0.705
 1064TIP3    H1 3156   2.156   1.663   0.679
 1064TIP3    H2 3157   2.097   1.535   0.623
 1065TIP3   OH2 3158   0.106   5.776   4.080
 1065TIP3    H1 3159   0.140   5.702   4.029
 1065TIP3    H2 3160   0.155   5.772   4.163
 1066TIP3   OH2 3161   0.603   3.676   3.588
 1066TIP3    H1 3162   0.566   3.739   3.527
 1066TIP3    H2 3163   0.589   3.714   3.674
 1067TIP3   OH2 3164   5.562   1.624   5.122
 1067TIP3    H1 3165   5.614   1.660   5.193
 1067TIP3    H2 3166   5.569   1.689   5.052
 1068TIP3   OH2 3167   1.185   6.518   2.236
 1068TIP3    H1 3168   1.262   6.554   2.192
 1068TIP3    H2 3169   1.205   6.524   2.329
 1069TIP3   OH2 3170   4.613   4.227   3.905
 1069TIP3    H1 3171   4.634   4.186   3.989
 1069TIP3    H2 3172   4.527   4.268   3.919
 1070TIP3   OH2 3173   2.419   0.484   3.899
 1070TIP3    H1 3174   2.494   0.461   3.845
 1070TIP3    H2 3175   2.352   0.420   3.876
 1071TIP3   OH2 3176   3.160   3.497   2.362
 1071TIP3    H1 3177   3.120   3.473   2.278
 1071TIP3    H2 3178   3.252   3.472   2.352
 1072TIP3   OH2 3179   6.441   0.062   4.241
 1072TIP3    H1 3180   6.512   0.122   4.263
 1072TIP3    H2 3181   6.428   0.072   4.147
 1073TIP3   OH2 3182   1.961   1.017   4.463
 1073TIP3    H1 3183   2.001   0.962   4.395
 1073TIP3    H2 3184   2.031   1.077   4.490
 1074TIP3   OH2 3185   3.784   2.600   5.310
 1074TIP3    H1 3186   3.838   2.645   5.245
 1074TIP3    H2 3187   3.757   2.669   5.371
 1075TIP3   OH2 3188   0.407   4.497   3.644
 1075TIP3    H1 3189   0.340   4.555   3.608
 1075TIP3    H2 3190   0.481   4.554   3.662
 1076TIP3   OH2 3191   2.983   2.581   4.068
 1076TIP3    H1 3192   2.897   2.552   4.038
 1076TIP3    H2 3193   3.009   2.650   4.006
 1077TIP3   OH2 3194   7.074   2.064   3.316
 1077TIP3    H1 3195   7.158   2.023   3.295
 1077TIP3    H2 3196   7.014   2.030   3.250
 1078TIP3   OH2 3197   4.529   2.927   4.617
 1078TIP3    H1 3198   4.607   2.976   4.591
 1078TIP3    H2 3199   4.556   2.879   4.695
 1079TIP3   OH2 3200   2.154   3.596   5.451
 1079TIP3    H1 3201   2.089   3.547   5.401
 1079TIP3    H2 3202   2.105   3.632   5.525
 1080TIP3   OH2 3203   1.425   0.235   3.001
 1080TIP3    H1 3204   1.440   0.290   3.077
 1080TIP3    H2 3205   1.346   0.186   3.021
 1081TIP3   OH2 3206   2.224   0.461   1.201
 1081TIP3    H1 3207   2.271   0.396   1.252
 1081TIP3    H2 3208   2.132   0.449   1.225
 1082TIP3   OH2 3209   0.549   6.520   0.630
 1082TIP3    H1 3210   0.529   6.438   0.584
 1082TIP3    H2 3211   0.494   6.518   0.708
 1083TIP3   OH2 3212   3.587   1.634   2.620
 1083TIP3    H1 3213   3.574   1.541   2.600
 1083TIP3    H2 3214   3.507   1.661   2.665
 1084TIP3   OH2 3215   4.219   5.417   2.416
 1084TIP3    H1 3216   4.277   5.440   2.344
 1084TIP3    H2 3217   4.277   5.375   2.481
 1085TIP3   OH2 3218   0.751   6.305   4.643
 1085TIP3    H1 3219   0.826   6.255   4.611
 1085TIP3    H2 3220   0.726   6.360   4.569
 1086TIP3   OH2 3221   5.510   5.562   1.561
 1086TIP3    H1 3222   5.587   5.562   1.618
 1086TIP3    H2 3223   5.443   5.516   1.611
 1087TIP3   OH2 3224   2.960   0.301   4.168
 1087TIP3    H1 3225   3.004   0.218   4.149
 1087TIP3    H2 3226   2.894   0.309   4.099
 1088TIP3   OH2 3227   3.425   5.787   1.851
 1088TIP3    H1 3228   3.481   5.776   1.774
 1088TIP3    H2 3229   3.461   5.726   1.915
 1089TIP3   OH2 3230   6.947   4.109   4.103
 1089TIP3    H1 3231   6.933   4.015   4.094
 1089TIP3    H2 3232   7.035   4.123   4.070
 1090TIP3   OH2 3233   3.803   2.706   0.784
 1090TIP3    H1 3234   3.887   2.701   0.737
 1090TIP3    H2 3235   3.771   2.615   0.785
 1091TIP3   OH2 3236   5.336   2.352   2.736
 1091TIP3    H1 3237   5.280   2.417   2.779
 1091TIP3    H2 3238   5.289   2.269   2.749
 1092TIP3   OH2 3239   0.823   2.486   2.890
 1092TIP3    H1 3240   0.905   2.458   2.848
 1092TIP3    H2 3241   0.851   2.545   2.959
 1093TIP3   OH2 3242   5.141   2.851   4.291
 1093TIP3    H1 3243   5.175   2.762   4.294
 1093TIP3    H2 3244   5.106   2.860   4.203
 1094TIP3   OH2 3245   4.619   0.244   3.143
 1094TIP3    H1 3246   4.545   0.193   3.178
 1094TIP3    H2 3247   4.623   0.321   3.199
 1095TIP3   OH2 3248   6.700   4.268   5.306
 1095TIP3    H1 3249   6.765   4.301   5.368
 1095TIP3    H2 3250   6.622   4.251   5.359
 1096TIP3   OH2 3251   3.866  -0.013   4.202
 1096TIP3    H1 3252   3.940   0.045   4.184
 1096TIP3    H2 3253   3.869  -0.027   4.297
 1097TIP3   OH2 3254   4.453   2.520   1.012
 1097TIP3    H1 3255   4.458   2.590   0.947
 1097TIP3    H2 3256   4.441   2.566   1.095
 1098TIP3   OH2 3257   5.627   5.345   1.993
 1098TIP3    H1 3258   5.719   5.317   1.988
 1098TIP3    H2 3259   5.597   5.314   2.079
 1099TIP3   OH2 3260   6.788   0.234   1.312
 1099TIP3    H1 3261   6.803   0.173   1.240
 1099TIP3    H2 3262   6.871   0.235   1.361
 1100TIP3   OH2 3263   0.450   4.862   1.635
 1100TIP3    H1 3264   0.432   4.926   1.703
 1100TIP3    H2 3265   0.411   4.900   1.556
 1101TIP3   OH2 3266   4.466   3.529   4.065
 1101TIP3    H1 3267   4.496   3.578   3.988
 1101TIP3    H2 3268   4.413   3.592   4.114
 1102TIP3   OH2 3269   6.182   0.911   4.636
 1102TIP3    H1 3270   6.240   0.844   4.672
 1102TIP3    H2 3271   6.197   0.988   4.690
 1103TIP3   OH2 3272   5.003   2.217   2.653
 1103TIP3    H1 3273   5.048   2.162   2.718
 1103TIP3    H2 3274   4.912   2.216   2.680
 1104TIP3   OH2 3275   4.599   6.721   0.292
 1104TIP3    H1 3276   4.682   6.689   0.258
 1104TIP3    H2 3277   4.603   6.816   0.280
 1105TIP3   OH2 3278   3.173   5.113   5.360
 1105TIP3    H1 3279   3.267   5.105   5.373
 1105TIP3    H2 3280   3.136   5.035   5.402
 1106TIP3   OH2 3281   2.575   1.473   2.843
 1106TIP3    H1 3282   2.518   1.509   2.775
 1106TIP3    H2 3283   2.523   1.402   2.882
 1107TIP3   OH2 3284   6.795   4.157   1.155
 1107TIP3    H1 3285   6.815   4.103   1.078
 1107TIP3    H2 3286   6.847   4.119   1.225
 1108TIP3   OH2 3287   6.552   5.718   4.843
 1108TIP3    H1 3288   6.591   5.789   4.792
 1108TIP3    H2 3289   6.464   5.750   4.865
 1109TIP3   OH2 3290   1.253   2.496   0.792
 1109TIP3    H1 3291   1.299   2.429   0.741
 1109TIP3    H2 3292   1.322   2.546   0.835
 1110TIP3   OH2 3293   3.312   2.095   5.371
 1110TIP3    H1 3294   3.327   2.058   5.285
 1110TIP3    H2 3295   3.218   2.110   5.376
 1111TIP3   OH2 3296   3.336   0.238   1.596
 1111TIP3    H1 3297   3.411   0.296   1.612
 1111TIP3    H2 3298   3.324   0.239   1.501
 1112TIP3   OH2 3299   0.622   5.292   2.799
 1112TIP3    H1 3300   0.692   5.292   2.734
 1112TIP3    H2 3301   0.647   5.361   2.861
 1113TIP3   OH2 3302   3.807   2.627   0.402
 1113TIP3    H1 3303   3.797   2.627   0.307
 1113TIP3    H2 3304   3.753   2.700   0.431
 1114TIP3   OH2 3305   2.816   6.496   3.129
 1114TIP3    H1 3306   2.736   6.531   3.089
 1114TIP3    H2 3307   2.816   6.404   3.106
 1115TIP3   OH2 3308   2.798   2.901  -0.051
 1115TIP3    H1 3309   2.754   2.893  -0.135
 1115TIP3    H2 3310   2.808   2.996  -0.038
 1116TIP3   OH2 3311   0.772   6.500   1.527
 1116TIP3    H1 3312   0.766   6.556   1.450
 1116TIP3    H2 3313   0.745   6.414   1.496
 1117TIP3   OH2 3314   5.962   3.070   5.766
 1117TIP3    H1 3315   6.036   3.120   5.802
 1117TIP3    H2 3316   5.951   2.996   5.827
 1118TIP3   OH2 3317   2.273   6.585   4.217
 1118TIP3    H1 3318   2.177   6.579   4.210
 1118TIP3    H2 3319   2.291   6.679   4.222
 1119TIP3   OH2 3320   3.686   2.457   1.535
 1119TIP3    H1 3321   3.612   2.434   1.480
 1119TIP3    H2 3322   3.756   2.397   1.508
 1120TIP3   OH2 3323   6.003   1.254   4.710
 1120TIP3    H1 3324   5.992   1.339   4.666
 1120TIP3    H2 3325   6.098   1.244   4.719
 1121TIP3   OH2 3326   1.221   6.677   0.293
 1121TIP3    H1 3327   1.278   6.662   0.369
 1121TIP3    H2 3328   1.281   6.703   0.223
 1122TIP3   OH2 3329   0.696   2.963   4.222
 1122TIP3    H1 3330   0.790   2.975   4.230
 1122TIP3    H2 3331   0.666   2.948   4.311
 1123TIP3   OH2 3332   4.128   5.840   4.572
 1123TIP3    H1 3333   4.144   5.841   4.666
 1123TIP3    H2 3334   4.038   5.871   4.563
 1124TIP3   OH2 3335   5.763   1.680   5.486
 1124TIP3    H1 3336   5.746   1.745   5.555
 1124TIP3    H2 3337   5.753   1.729   5.404
 1125TIP3   OH2 3338   0.791   6.567   1.124
 1125TIP3    H1 3339   0.766   6.600   1.038
 1125TIP3    H2 3340   0.772   6.640   1.183
 1126TIP3   OH2 3341   4.367   0.529   4.021
 1126TIP3    H1 3342   4.406   0.455   3.975
 1126TIP3    H2 3343   4.302   0.489   4.079
 1127TIP3   OH2 3344   2.809   4.453   5.658
 1127TIP3    H1 3345   2.766   4.454   5.572
 1127TIP3    H2 3346   2.902   4.457   5.639
 1128TIP3   OH2 3347   6.330   0.207   0.356
 1128TIP3    H1 3348   6.395   0.275   0.369
 1128TIP3    H2 3349   6.265   0.222   0.425
 1129TIP3   OH2 3350   6.613   5.586   0.315
 1129TIP3    H1 3351   6.682   5.526   0.285
 1129TIP3    H2 3352   6.582   5.628   0.234
 1130TIP3   OH2 3353   6.464   4.161   5.069
 1130TIP3    H1 3354   6.414   4.206   5.137
 1130TIP3    H2 3355   6.461   4.069   5.092
 1131TIP3   OH2 3356   4.005   1.554   3.677
 1131TIP3    H1 3357   4.017   1.485   3.743
 1131TIP3    H2 3358   3.953   1.621   3.721
 1132TIP3   OH2 3359   6.266   4.073   3.082
 1132TIP3    H1 3360   6.343   4.114   3.043
 1132TIP3    H2 3361   6.212   4.047   3.008
 1133TIP3   OH2 3362   0.961   1.080   5.084
 1133TIP3    H1 3363   1.040   1.067   5.135
 1133TIP3    H2 3364   0.991   1.124   5.004
 1134TIP3   OH2 3365   4.982   2.008   2.423
 1134TIP3    H1 3366   5.071   2.026   2.395
 1134TIP3    H2 3367   4.947   2.093   2.448
 1135TIP3   OH2 3368   5.465   6.237   2.026
 1135TIP3    H1 3369   5.376   6.270   2.019
 1135TIP3    H2 3370   5.485   6.203   1.938
 1136TIP3   OH2 3371   6.624   3.404   1.606
 1136TIP3    H1 3372   6.554   3.404   1.671
 1136TIP3    H2 3373   6.639   3.311   1.588
 1137TIP3   OH2 3374   3.646   3.144   4.714
 1137TIP3    H1 3375   3.615   3.118   4.627
 1137TIP3    H2 3376   3.587   3.100   4.775
 1138TIP3   OH2 3377   1.751   3.387   1.161
 1138TIP3    H1 3378   1.788   3.307   1.197
 1138TIP3    H2 3379   1.775   3.455   1.225
 1139TIP3   OH2 3380   1.140   3.553   0.976
 1139TIP3    H1 3381   1.191   3.513   0.906
 1139TIP3    H2 3382   1.049   3.542   0.949
 1140TIP3   OH2 3383  -0.027   0.980   4.788
 1140TIP3    H1 3384   0.014   0.911   4.841
 1140TIP3    H2 3385  -0.060   1.043   4.851
 1141TIP3   OH2 3386   6.558   4.997   3.601
 1141TIP3    H1 3387   6.520   5.033   3.521
 1141TIP3    H2 3388   6.644   4.964   3.574
 1142TIP3   OH2 3389   4.566   0.068   5.216
 1142TIP3    H1 3390   4.624  -0.008   5.222
 1142TIP3    H2 3391   4.626   0.142   5.205
 1143TIP3   OH2 3392   0.786   3.082   3.713
 1143TIP3    H1 3393   0.793   3.111   3.622
 1143TIP3    H2 3394   0.692   3.079   3.730
 1144TIP3   OH2 3395   5.254   2.519   3.455
 1144TIP3    H1 3396   5.303   2.568   3.390
 1144TIP3    H2 3397   5.163   2.521   3.423
 1145TIP3   OH2 3398   6.428   0.709   5.100
 1145TIP3    H1 3399   6.428   0.672   5.188
 1145TIP3    H2 3400   6.363   0.779   5.103
 1146TIP3   OH2 3401   1.601   5.681   4.794
 1146TIP3    H1 3402   1.561   5.766   4.814
 1146TIP3    H2 3403   1.527   5.622   4.779
 1147TIP3   OH2 3404   6.457   1.457   1.856
 1147TIP3    H1 3405   6.402   1.385   1.825
 1147TIP3    H2 3406   6.438   1.462   1.950
 1148TIP3   OH2 3407   2.842   5.658   5.373
 1148TIP3    H1 3408   2.924   5.704   5.388
 1148TIP3    H2 3409   2.777   5.707   5.423
 1149TIP3   OH2 3410   4.846   1.095   0.649
 1149TIP3    H1 3411   4.811   1.026   0.705
 1149TIP3    H2 3412   4.807   1.079   0.564
 1150TIP3   OH2 3413   5.589   1.493   3.932
 1150TIP3    H1 3414   5.538   1.453   3.862
 1150TIP3    H2 3415   5.678   1.501   3.897
 1151TIP3   OH2 3416   3.563   2.925   0.549
 1151TIP3    H1 3417   3.495   2.928   0.482
 1151TIP3    H2 3418   3.526   2.866   0.616
 1152TIP3   OH2 3419   3.570   5.504   5.382
 1152TIP3    H1 3420   3.483   5.490   5.419
 1152TIP3    H2 3421   3.563   5.588   5.336
 1153TIP3   OH2 3422   5.705   5.488   5.028
 1153TIP3    H1 3423   5.706   5.584   5.024
 1153TIP3    H2 3424   5.621   5.463   4.989
 1154TIP3   OH2 3425   1.491   4.526   4.127
 1154TIP3    H1 3426   1.560   4.462   4.141
 1154TIP3    H2 3427   1.411   4.482   4.152
 1155TIP3   OH2 3428   3.049   3.447   5.445
 1155TIP3    H1 3429   3.019   3.365   5.407
 1155TIP3    H2 3430   2.991   3.460   5.520
 1156TIP3   OH2 3431   0.482   6.194   2.724
 1156TIP3    H1 3432   0.406   6.240   2.687
 1156TIP3    H2 3433   0.520   6.149   2.649
 1157TIP3   OH2 3434   6.189   6.695   1.192
 1157TIP3    H1 3435   6.254   6.633   1.224
 1157TIP3    H2 3436   6.217   6.716   1.103
 1158TIP3   OH2 3437   2.037   1.464   1.158
 1158TIP3    H1 3438   2.093   1.539   1.179
 1158TIP3    H2 3439   1.978   1.457   1.234
 1159TIP3   OH2 3440   0.450   5.696   5.778
 1159TIP3    H1 3441   0.517   5.764   5.785
 1159TIP3    H2 3442   0.499   5.614   5.790
 1160TIP3   OH2 3443   5.624   0.097   4.601
 1160TIP3    H1 3444   5.688   0.167   4.619
 1160TIP3    H2 3445   5.628   0.042   4.679
 1161TIP3   OH2 3446   0.983   5.570   2.658
 1161TIP3    H1 3447   1.019   5.655   2.686
 1161TIP3    H2 3448   0.954   5.586   2.568
 1162TIP3   OH2 3449   7.013   1.921   0.603
 1162TIP3    H1 3450   7.042   2.009   0.627
 1162TIP3    H2 3451   7.090   1.880   0.564
 1163TIP3   OH2 3452   2.509   4.908   1.479
 1163TIP3    H1 3453   2.531   4.966   1.552
 1163TIP3    H2 3454   2.513   4.965   1.402
 1164TIP3   OH2 3455   4.143   6.381   0.655
 1164TIP3    H1 3456   4.059   6.337   0.644
 1164TIP3    H2 3457   4.158   6.382   0.749
 1165TIP3   OH2 3458   2.882   5.830   5.786
 1165TIP3    H1 3459   2.974   5.853   5.770
 1165TIP3    H2 3460   2.885   5.747   5.833
 1166TIP3   OH2 3461   5.957   6.022   0.361
 1166TIP3    H1 3462   5.959   6.071   0.279
 1166TIP3    H2 3463   6.007   5.942   0.342
 1167TIP3   OH2 3464   5.054   3.537   3.277
 1167TIP3    H1 3465   5.064   3.625   3.312
 1167TIP3    H2 3466   5.079   3.480   3.350
 1168TIP3   OH2 3467   6.468   2.675   5.070
 1168TIP3    H1 3468   6.489   2.730   5.145
 1168TIP3    H2 3469   6.546   2.622   5.057
 1169TIP3   OH2 3470   6.081   2.458   5.291
 1169TIP3    H1 3471   6.119   2.424   5.210
 1169TIP3    H2 3472   6.087   2.553   5.281
 1170TIP3   OH2 3473   2.518   5.269   2.969
 1170TIP3    H1 3474   2.483   5.192   2.925
 1170TIP3    H2 3475   2.529   5.334   2.900
 1171TIP3   OH2 3476   1.352   3.653   2.751
 1171TIP3    H1 3477   1.386   3.740   2.775
 1171TIP3    H2 3478   1.270   3.646   2.800
 1172TIP3   OH2 3479   4.787   0.689   3.931
 1172TIP3    H1 3480   4.792   0.630   3.855
 1172TIP3    H2 3481   4.694   0.710   3.938
 1173TIP3   OH2 3482   4.974   4.583   5.134
 1173TIP3    H1 3483   5.047   4.550   5.186
 1173TIP3    H2 3484   4.935   4.505   5.095
 1174TIP3   OH2 3485   4.459   0.151   2.263
 1174TIP3    H1 3486   4.420   0.081   2.315
 1174TIP3    H2 3487   4.513   0.200   2.324
 1175TIP3   OH2 3488   1.349   1.215   4.520
 1175TIP3    H1 3489   1.332   1.122   4.504
 1175TIP3    H2 3490   1.405   1.215   4.598
 1176TIP3   OH2 3491   4.735   1.025   0.395
 1176TIP3    H1 3492   4.647   1.002   0.428
 1176TIP3    H2 3493   4.724   1.112   0.356
 1177TIP3   OH2 3494   0.127   4.205   0.530
 1177TIP3    H1 3495   0.077   4.144   0.585
 1177TIP3    H2 3496   0.218   4.190   0.556
 1178TIP3   OH2 3497   0.369   0.591   5.679
 1178TIP3    H1 3498   0.298   0.582   5.743
 1178TIP3    H2 3499   0.433   0.648   5.721
 1179TIP3   OH2 3500   1.928   2.565   3.285
 1179TIP3    H1 3501   1.991   2.494   3.275
 1179TIP3    H2 3502   1.982   2.643   3.300
 1180TIP3   OH2 3503   0.468   6.524   1.803
 1180TIP3    H1 3504   0.428   6.476   1.876
 1180TIP3    H2 3505   0.408   6.510   1.730
 1181TIP3   OH2 3506   4.483   4.356   3.624
 1181TIP3    H1 3507   4.577   4.372   3.611
 1181TIP3    H2 3508   4.443   4.441   3.608
 1182TIP3   OH2 3509   4.877   6.043   1.264
 1182TIP3    H1 3510   4.813   6.096   1.218
 1182TIP3    H2 3511   4.850   5.953   1.248
 1183TIP3   OH2 3512   0.641   3.773   3.112
 1183TIP3    H1 3513   0.601   3.810   3.034
 1183TIP3    H2 3514   0.663   3.848   3.167
 1184TIP3   OH2 3515   7.152   2.753   3.982
 1184TIP3    H1 3516   7.101   2.769   3.903
 1184TIP3    H2 3517   7.096   2.699   4.037
 1185TIP3   OH2 3518   2.615   0.879   0.314
 1185TIP3    H1 3519   2.523   0.872   0.290
 1185TIP3    H2 3520   2.652   0.792   0.297
 1186TIP3   OH2 3521   7.105   6.043   0.799
 1186TIP3    H1 3522   7.054   6.117   0.767
 1186TIP3    H2 3523   7.126   6.064   0.890
 1187TIP3   OH2 3524   4.660   0.582   1.046
 1187TIP3    H1 3525   4.723   0.511   1.056
 1187TIP3    H2 3526   4.691   0.631   0.969
 1188TIP3   OH2 3527   3.522   0.617   1.137
 1188TIP3    H1 3528   3.533   0.537   1.189
 1188TIP3    H2 3529   3.538   0.688   1.198
 1189TIP3   OH2 3530   6.563   6.643   1.804
 1189TIP3    H1 3531   6.515   6.624   1.885
 1189TIP3    H2 3532   6.525   6.584   1.739
 1190TIP3   OH2 3533   5.137   6.169   4.893
 1190TIP3    H1 3534   5.193   6.157   4.816
 1190TIP3    H2 3535   5.138   6.263   4.910
 1191TIP3   OH2 3536   0.057   2.983   1.682
 1191TIP3    H1 3537   0.092   2.987   1.771
 1191TIP3    H2 3538   0.061   2.890   1.659
 1192TIP3   OH2 3539   5.268   1.356   5.822
 1192TIP3    H1 3540   5.340   1.386   5.879
 1192TIP3    H2 3541   5.285   1.263   5.810
 1193TIP3   OH2 3542   4.449   5.975   0.770
 1193TIP3    H1 3543   4.498   6.043   0.724
 1193TIP3    H2 3544   4.358   5.988   0.743
 1194TIP3   OH2 3545   5.686   0.355   0.916
 1194TIP3    H1 3546   5.645   0.326   0.997
 1194TIP3    H2 3547   5.642   0.438   0.895
 1195TIP3   OH2 3548   7.014   2.437   1.377
 1195TIP3    H1 3549   6.948   2.368   1.384
 1195TIP3    H2 3550   7.038   2.456   1.468
 1196TIP3   OH2 3551   0.231   4.879   2.958
 1196TIP3    H1 3552   0.207   4.972   2.951
 1196TIP3    H2 3553   0.325   4.881   2.977
 1197TIP3   OH2 3554   3.920   1.762   1.984
 1197TIP3    H1 3555   3.850   1.794   1.929
 1197TIP3    H2 3556   3.969   1.701   1.928
 1198TIP3   OH2 3557   2.642   4.688   5.370
 1198TIP3    H1 3558   2.639   4.596   5.397
 1198TIP3    H2 3559   2.565   4.727   5.412
 1199TIP3   OH2 3560   5.265   2.691   1.076
 1199TIP3    H1 3561   5.228   2.749   1.142
 1199TIP3    H2 3562   5.190   2.665   1.022
 1200TIP3   OH2 3563   2.130   0.370   0.848
 1200TIP3    H1 3564   2.082   0.316   0.912
 1200TIP3    H2 3565   2.070   0.379   0.774
 1201TIP3   OH2 3566   4.215   6.444   2.438
 1201TIP3    H1 3567   4.160   6.480   2.368
 1201TIP3    H2 3568   4.260   6.520   2.475
 1202TIP3   OH2 3569   0.842   5.428   4.903
 1202TIP3    H1 3570   0.852   5.484   4.826
 1202TIP3    H2 3571   0.753   5.392   4.896
 1203TIP3   OH2 3572   4.168   0.070   1.132
 1203TIP3    H1 3573   4.134   0.131   1.197
 1203TIP3    H2 3574   4.173  -0.014   1.178
 1204TIP3   OH2 3575   0.089   1.817   2.509
 1204TIP3    H1 3576   0.086   1.733   2.462
 1204TIP3    H2 3577   0.179   1.823   2.541
 1205TIP3   OH2 3578   2.415   1.189   1.087
 1205TIP3    H1 3579   2.486   1.247   1.059
 1205TIP3    H2 3580   2.460   1.108   1.113
 1206TIP3   OH2 3581   3.090   5.426   3.081
 1206TIP3    H1 3582   3.101   5.350   3.138
 1206TIP3    H2 3583   2.999   5.452   3.093
 1207TIP3   OH2 3584   2.912   1.960   4.291
 1207TIP3    H1 3585   2.913   1.994   4.381
 1207TIP3    H2 3586   2.917   1.865   4.301
 1208TIP3   OH2 3587   6.553   1.722   2.356
 1208TIP3    H1 3588   6.503   1.693   2.279
 1208TIP3    H2 3589   6.590   1.806   2.331
 1209TIP3   OH2 3590   2.302   6.089   5.543
 1209TIP3    H1 3591   2.354   6.069   5.465
 1209TIP3    H2 3592   2.339   6.171   5.576
 1210TIP3   OH2 3593   3.590   5.065   2.917
 1210TIP3    H1 3594   3.531   5.112   2.977
 1210TIP3    H2 3595   3.597   4.977   2.954
 1211TIP3   OH2 3596   7.089   4.559   1.371
 1211TIP3    H1 3597   7.156   4.617   1.334
 1211TIP3    H2 3598   7.105   4.475   1.328
 1212TIP3   OH2 3599   6.809   1.023   3.736
 1212TIP3    H1 3600   6.782   0.977   3.657
 1212TIP3    H2 3601   6.739   1.004   3.799
 1213TIP3   OH2 3602   4.589   6.606   2.805
 1213TIP3    H1 3603   4.683   6.597   2.818
 1213TIP3    H2 3604   4.578   6.616   2.711
 1214TIP3   OH2 3605   6.603   2.039   5.134
 1214TIP3    H1 3606   6.595   1.977   5.062
 1214TIP3    H2 3607   6.595   1.986   5.213
 1215TIP3   OH2 3608   4.530   6.011   1.223
 1215TIP3    H1 3609   4.567   6.081   1.170
 1215TIP3    H2 3610   4.565   6.026   1.311
 1216TIP3   OH2 3611   1.476   4.980   0.846
 1216TIP3    H1 3612   1.549   4.926   0.875
 1216TIP3    H2 3613   1.461   4.953   0.755
 1217TIP3   OH2 3614   6.661   6.553   3.302
 1217TIP3    H1 3615   6.753   6.530   3.294
 1217TIP3    H2 3616   6.647   6.567   3.396
 1218TIP3   OH2 3617   1.946   2.181   2.504
 1218TIP3    H1 3618   1.879   2.138   2.451
 1218TIP3    H2 3619   1.937   2.274   2.482
 1219TIP3   OH2 3620   4.208   0.437   0.318
 1219TIP3    H1 3621   4.257   0.379   0.376
 1219TIP3    H2 3622   4.252   0.522   0.326
 1220TIP3   OH2 3623   1.637   2.289   1.267
 1220TIP3    H1 3624   1.732   2.290   1.270
 1220TIP3    H2 3625   1.614   2.358   1.205
 1221TIP3   OH2 3626   6.133   1.143   2.609
 1221TIP3    H1 3627   6.065   1.200   2.645
 1221TIP3    H2 3628   6.100   1.118   2.522
 1222TIP3   OH2 3629   1.964   2.473   2.002
 1222TIP3    H1 3630   2.018   2.397   2.025
 1222TIP3    H2 3631   1.971   2.531   2.078
 1223TIP3   OH2 3632   5.793   3.956   4.451
 1223TIP3    H1 3633   5.861   3.911   4.501
 1223TIP3    H2 3634   5.715   3.949   4.505
 1224TIP3   OH2 3635   2.493   5.897   2.617
 1224TIP3    H1 3636   2.571   5.875   2.668
 1224TIP3    H2 3637   2.427   5.834   2.645
 1225TIP3   OH2 3638   5.961   3.303   0.822
 1225TIP3    H1 3639   5.965   3.249   0.743
 1225TIP3    H2 3640   5.868   3.327   0.830
 1226TIP3   OH2 3641   4.758   2.959   1.398
 1226TIP3    H1 3642   4.747   2.980   1.491
 1226TIP3    H2 3643   4.796   2.871   1.398
 1227TIP3   OH2 3644   4.775   6.572   0.845
 1227TIP3    H1 3645   4.724   6.600   0.921
 1227TIP3    H2 3646   4.714   6.575   0.772
 1228TIP3   OH2 3647   0.708   0.336   4.758
 1228TIP3    H1 3648   0.622   0.356   4.793
 1228TIP3    H2 3649   0.744   0.421   4.732
 1229TIP3   OH2 3650   0.284   6.767   0.655
 1229TIP3    H1 3651   0.374   6.742   0.633
 1229TIP3    H2 3652   0.271   6.852   0.613
 1230TIP3   OH2 3653   1.976   0.787   5.502
 1230TIP3    H1 3654   1.927   0.869   5.501
 1230TIP3    H2 3655   1.909   0.719   5.502
 1231TIP3   OH2 3656   6.442   2.374   3.224
 1231TIP3    H1 3657   6.361   2.368   3.275
 1231TIP3    H2 3658   6.509   2.399   3.288
 1232TIP3   OH2 3659   5.163   0.246   2.126
 1232TIP3    H1 3660   5.190   0.210   2.042
 1232TIP3    H2 3661   5.234   0.225   2.186
 1233TIP3   OH2 3662   2.457   6.226   4.792
 1233TIP3    H1 3663   2.471   6.284   4.867
 1233TIP3    H2 3664   2.515   6.151   4.808
 1234TIP3   OH2 3665   0.179   0.370   3.906
 1234TIP3    H1 3666   0.179   0.274   3.906
 1234TIP3    H2 3667   0.149   0.395   3.993
 1235TIP3   OH2 3668   2.293   1.069   2.463
 1235TIP3    H1 3669   2.211   1.050   2.418
 1235TIP3    H2 3670   2.277   1.048   2.554
 1236TIP3   OH2 3671   6.872   0.216   5.426
 1236TIP3    H1 3672   6.919   0.251   5.351
 1236TIP3    H2 3673   6.790   0.181   5.390
 1237TIP3   OH2 3674   1.853   0.424   3.608
 1237TIP3    H1 3675   1.902   0.502   3.581
 1237TIP3    H2 3676   1.762   0.451   3.609
 1238TIP3   OH2 3677   1.266   1.675   4.980
 1238TIP3    H1 3678   1.220   1.730   4.916
 1238TIP3    H2 3679   1.337   1.730   5.012
 1239TIP3   OH2 3680   5.194   3.879   1.856
 1239TIP3    H1 3681   5.212   3.963   1.899
 1239TIP3    H2 3682   5.137   3.901   1.783
 1240TIP3   OH2 3683   5.010   5.095   0.661
 1240TIP3    H1 3684   5.047   5.170   0.708
 1240TIP3    H2 3685   5.087   5.045   0.632
 1241TIP3   OH2 3686   7.115   3.264   1.807
 1241TIP3    H1 3687   7.188   3.202   1.804
 1241TIP3    H2 3688   7.059   3.232   1.877
 1242TIP3   OH2 3689   0.487   4.928   3.121
 1242TIP3    H1 3690   0.467   5.021   3.127
 1242TIP3    H2 3691   0.578   4.920   3.152
 1243TIP3   OH2 3692   2.854   1.556   1.793
 1243TIP3    H1 3693   2.922   1.518   1.738
 1243TIP3    H2 3694   2.901   1.596   1.866
 1244TIP3   OH2 3695   7.031   0.330   1.058
 1244TIP3    H1 3696   6.966   0.263   1.079
 1244TIP3    H2 3697   7.106   0.280   1.026
 1245TIP3   OH2 3698   5.897   5.999   4.358
 1245TIP3    H1 3699   5.933   5.910   4.359
 1245TIP3    H2 3700   5.954   6.049   4.416
 1246TIP3   OH2 3701   3.205   4.177   2.973
 1246TIP3    H1 3702   3.281   4.233   2.989
 1246TIP3    H2 3703   3.236   4.113   2.909
 1247TIP3   OH2 3704   4.596   5.343   0.931
 1247TIP3    H1 3705   4.607   5.376   0.842
 1247TIP3    H2 3706   4.685   5.322   0.960
 1248TIP3   OH2 3707   2.415   1.146   5.568
 1248TIP3    H1 3708   2.397   1.164   5.476
 1248TIP3    H2 3709   2.374   1.218   5.615
 1249TIP3   OH2 3710   5.996   1.224   1.056
 1249TIP3    H1 3711   6.081   1.193   1.024
 1249TIP3    H2 3712   5.935   1.202   0.985
 1250TIP3   OH2 3713   1.804   1.094   2.189
 1250TIP3    H1 3714   1.718   1.105   2.148
 1250TIP3    H2 3715   1.795   1.135   2.275
 1251TIP3   OH2 3716   5.420   2.916   0.995
 1251TIP3    H1 3717   5.355   2.846   0.998
 1251TIP3    H2 3718   5.429   2.935   0.901
 1252TIP3   OH2 3719   3.281   0.812   4.498
 1252TIP3    H1 3720   3.343   0.876   4.463
 1252TIP3    H2 3721   3.304   0.805   4.591
 1253TIP3   OH2 3722   6.811   5.162   0.841
 1253TIP3    H1 3723   6.813   5.112   0.759
 1253TIP3    H2 3724   6.902   5.186   0.856
 1254TIP3   OH2 3725   3.255   4.712   2.659
 1254TIP3    H1 3726   3.316   4.782   2.636
 1254TIP3    H2 3727   3.200   4.749   2.728
 1255TIP3   OH2 3728   6.555   3.499   0.032
 1255TIP3    H1 3729   6.614   3.562   0.074
 1255TIP3    H2 3730   6.474   3.548   0.018
 1256TIP3   OH2 3731   2.388   4.238   1.333
 1256TIP3    H1 3732   2.336   4.263   1.410
 1256TIP3    H2 3733   2.373   4.307   1.270
 1257TIP3   OH2 3734   6.430   2.597   5.436
 1257TIP3    H1 3735   6.496   2.539   5.397
 1257TIP3    H2 3736   6.439   2.679   5.388
 1258TIP3   OH2 3737   4.831   6.214   4.392
 1258TIP3    H1 3738   4.806   6.141   4.450
 1258TIP3    H2 3739   4.760   6.218   4.328
 1259TIP3   OH2 3740   5.986   4.228   3.766
 1259TIP3    H1 3741   6.081   4.233   3.768
 1259TIP3    H2 3742   5.965   4.199   3.677
 1260TIP3   OH2 3743  -0.029   6.806   1.647
 1260TIP3    H1 3744   0.045   6.807   1.586
 1260TIP3    H2 3745  -0.004   6.867   1.716
 1261TIP3   OH2 3746   5.439   0.600   0.231
 1261TIP3    H1 3747   5.374   0.595   0.161
 1261TIP3    H2 3748   5.458   0.694   0.240
 1262TIP3   OH2 3749   3.367   1.748   2.000
 1262TIP3    H1 3750   3.453   1.780   1.977
 1262TIP3    H2 3751   3.313   1.827   2.010
 1263TIP3   OH2 3752   3.793   5.636   1.268
 1263TIP3    H1 3753   3.709   5.643   1.222
 1263TIP3    H2 3754   3.821   5.545   1.252
 1264TIP3   OH2 3755   6.126   0.353   5.477
 1264TIP3    H1 3756   6.154   0.346   5.386
 1264TIP3    H2 3757   6.131   0.263   5.510
 1265TIP3   OH2 3758   0.337   2.959   3.243
 1265TIP3    H1 3759   0.342   2.865   3.223
 1265TIP3    H2 3760   0.369   2.966   3.333
 1266TIP3   OH2 3761   0.316   5.839   0.156
 1266TIP3    H1 3762   0.278   5.751   0.161
 1266TIP3    H2 3763   0.267   5.890   0.221
 1267TIP3   OH2 3764   6.360   5.050   1.440
 1267TIP3    H1 3765   6.371   5.004   1.523
 1267TIP3    H2 3766   6.404   5.134   1.453
 1268TIP3   OH2 3767   0.194   3.644   3.503
 1268TIP3    H1 3768   0.147   3.619   3.423
 1268TIP3    H2 3769   0.264   3.579   3.509
 1269TIP3   OH2 3770   2.722   1.404   4.534
 1269TIP3    H1 3771   2.720   1.446   4.620
 1269TIP3    H2 3772   2.671   1.324   4.546
 1270TIP3   OH2 3773   2.570   5.420   4.707
 1270TIP3    H1 3774   2.627   5.346   4.684
 1270TIP3    H2 3775   2.593   5.441   4.798
 1271TIP3   OH2 3776   4.377   3.433   1.700
 1271TIP3    H1 3777   4.322   3.512   1.691
 1271TIP3    H2 3778   4.413   3.439   1.788
 1272TIP3   OH2 3779   1.155   0.954   4.906
 1272TIP3    H1 3780   1.152   0.916   4.818
 1272TIP3    H2 3781   1.116   1.041   4.896
 1273TIP3   OH2 3782   7.133   0.775   0.299
 1273TIP3    H1 3783   7.208   0.833   0.285
 1273TIP3    H2 3784   7.151   0.732   0.382
 1274TIP3   OH2 3785   6.724   1.271   2.721
 1274TIP3    H1 3786   6.659   1.316   2.667
 1274TIP3    H2 3787   6.793   1.335   2.734
 1275TIP3   OH2 3788   3.227   1.280   4.716
 1275TIP3    H1 3789   3.160   1.221   4.682
 1275TIP3    H2 3790   3.291   1.288   4.645
 1276TIP3   OH2 3791   4.878   0.535   2.597
 1276TIP3    H1 3792   4.895   0.458   2.543
 1276TIP3    H2 3793   4.804   0.510   2.651
 1277TIP3   OH2 3794   5.309   4.832   1.703
 1277TIP3    H1 3795   5.269   4.784   1.775
 1277TIP3    H2 3796   5.235   4.856   1.646
 1278TIP3   OH2 3797   1.787   5.703   4.353
 1278TIP3    H1 3798   1.835   5.622   4.336
 1278TIP3    H2 3799   1.843   5.751   4.415
 1279TIP3   OH2 3800   0.548   0.934   4.492
 1279TIP3    H1 3801   0.628   0.981   4.467
 1279TIP3    H2 3802   0.484   0.957   4.424
 1280TIP3   OH2 3803   6.300   6.478   4.622
 1280TIP3    H1 3804   6.370   6.429   4.665
 1280TIP3    H2 3805   6.330   6.569   4.624
 1281TIP3   OH2 3806   2.111   6.092   3.859
 1281TIP3    H1 3807   2.070   6.178   3.851
 1281TIP3    H2 3808   2.094   6.050   3.774
 1282TIP3   OH2 3809   3.700   3.416   4.776
 1282TIP3    H1 3810   3.700   3.322   4.758
 1282TIP3    H2 3811   3.718   3.456   4.691
 1283TIP3   OH2 3812   4.881   4.580   0.297
 1283TIP3    H1 3813   4.857   4.603   0.387
 1283TIP3    H2 3814   4.798   4.558   0.255
 1284TIP3   OH2 3815   1.229   4.214   3.462
 1284TIP3    H1 3816   1.288   4.140   3.449
 1284TIP3    H2 3817   1.287   4.290   3.469
 1285TIP3   OH2 3818   5.199   3.158   1.463
 1285TIP3    H1 3819   5.245   3.193   1.387
 1285TIP3    H2 3820   5.217   3.220   1.533
 1286TIP3   OH2 3821   2.980   5.525   4.363
 1286TIP3    H1 3822   3.012   5.476   4.288
 1286TIP3    H2 3823   2.963   5.612   4.329
 1287TIP3   OH2 3824   4.535   1.788   3.542
 1287TIP3    H1 3825   4.576   1.819   3.623
 1287TIP3    H2 3826   4.470   1.855   3.521
 1288TIP3   OH2 3827   6.306   2.383   2.570
 1288TIP3    H1 3828   6.244   2.410   2.638
 1288TIP3    H2 3829   6.388   2.366   2.617
 1289TIP3   OH2 3830   0.729   0.731   1.683
 1289TIP3    H1 3831   0.799   0.719   1.746
 1289TIP3    H2 3832   0.650   0.703   1.729
 1290TIP3   OH2 3833   3.973   1.653   3.303
 1290TIP3    H1 3834   3.979   1.624   3.212
 1290TIP3    H2 3835   3.978   1.571   3.354
 1291TIP3   OH2 3836   0.159   2.974   5.847
 1291TIP3    H1 3837   0.076   2.989   5.803
 1291TIP3    H2 3838   0.180   3.059   5.887
 1292TIP3   OH2 3839   2.102   1.230   2.895
 1292TIP3    H1 3840   2.082   1.179   2.816
 1292TIP3    H2 3841   2.021   1.225   2.947
 1293TIP3   OH2 3842   1.601   5.731   1.974
 1293TIP3    H1 3843   1.558   5.656   2.014
 1293TIP3    H2 3844   1.529   5.787   1.943
 1294TIP3   OH2 3845   4.340   4.565   4.133
 1294TIP3    H1 3846   4.411   4.506   4.109
 1294TIP3    H2 3847   4.319   4.612   4.052
 1295TIP3   OH2 3848   6.912   5.194   4.607
 1295TIP3    H1 3849   6.834   5.248   4.591
 1295TIP3    H2 3850   6.881   5.127   4.668
 1296TIP3   OH2 3851   6.682   5.797   2.157
 1296TIP3    H1 3852   6.651   5.791   2.066
 1296TIP3    H2 3853   6.627   5.864   2.196
 1297TIP3   OH2 3854   4.364   6.320   0.995
 1297TIP3    H1 3855   4.271   6.335   0.976
 1297TIP3    H2 3856   4.393   6.401   1.039
 1298TIP3   OH2 3857   6.132   5.174   5.166
 1298TIP3    H1 3858   6.052   5.131   5.135
 1298TIP3    H2 3859   6.160   5.122   5.240
 1299TIP3   OH2 3860   5.617   5.520   5.300
 1299TIP3    H1 3861   5.655   5.442   5.339
 1299TIP3    H2 3862   5.654   5.524   5.212
 1300TIP3   OH2 3863   1.724   6.493   1.064
 1300TIP3    H1 3864   1.645   6.447   1.035
 1300TIP3    H2 3865   1.693   6.579   1.091
 1301TIP3   OH2 3866   2.198   4.888   4.795
 1301TIP3    H1 3867   2.115   4.933   4.788
 1301TIP3    H2 3868   2.176   4.795   4.785
 1302TIP3   OH2 3869   1.646   1.295   1.363
 1302TIP3    H1 3870   1.584   1.292   1.290
 1302TIP3    H2 3871   1.679   1.385   1.363
 1303TIP3   OH2 3872   6.424   1.903   2.133
 1303TIP3    H1 3873   6.330   1.913   2.147
 1303TIP3    H2 3874   6.437   1.927   2.041
 1304TIP3   OH2 3875   4.653   1.312   5.504
 1304TIP3    H1 3876   4.608   1.313   5.589
 1304TIP3    H2 3877   4.588   1.344   5.442
 1305TIP3   OH2 3878   1.132   3.409   4.468
 1305TIP3    H1 3879   1.116   3.483   4.527
 1305TIP3    H2 3880   1.055   3.407   4.411
 1306TIP3   OH2 3881   2.048   4.650   4.684
 1306TIP3    H1 3882   2.061   4.635   4.590
 1306TIP3    H2 3883   1.955   4.671   4.692
 1307TIP3   OH2 3884   3.085   6.154   2.920
 1307TIP3    H1 3885   3.055   6.063   2.923
 1307TIP3    H2 3886   3.085   6.175   2.827
 1308TIP3   OH2 3887   4.332   1.999   0.323
 1308TIP3    H1 3888   4.380   1.954   0.254
 1308TIP3    H2 3889   4.306   1.929   0.383
 1309TIP3   OH2 3890   2.900   5.926   1.059
 1309TIP3    H1 3891   2.987   5.908   1.024
 1309TIP3    H2 3892   2.843   5.924   0.982
 1310TIP3   OH2 3893   7.157   5.116   2.647
 1310TIP3    H1 3894   7.117   5.129   2.733
 1310TIP3    H2 3895   7.102   5.050   2.605
 1311TIP3   OH2 3896   5.878   4.305   1.201
 1311TIP3    H1 3897   5.916   4.252   1.131
 1311TIP3    H2 3898   5.950   4.319   1.263
 1312TIP3   OH2 3899   0.885   6.088   5.623
 1312TIP3    H1 3900   0.852   6.125   5.541
 1312TIP3    H2 3901   0.973   6.059   5.602
 1313TIP3   OH2 3902   2.783   1.659   4.894
 1313TIP3    H1 3903   2.720   1.586   4.893
 1313TIP3    H2 3904   2.772   1.700   4.808
 1314TIP3   OH2 3905   5.018   6.257   3.224
 1314TIP3    H1 3906   5.100   6.223   3.260
 1314TIP3    H2 3907   5.032   6.257   3.129
 1315TIP3   OH2 3908   6.542   0.572   1.181
 1315TIP3    H1 3909   6.460   0.559   1.133
 1315TIP3    H2 3910   6.561   0.487   1.219
 1316TIP3   OH2 3911   0.567   2.899   1.019
 1316TIP3    H1 3912   0.606   2.921   1.104
 1316TIP3    H2 3913   0.529   2.982   0.988
 1317TIP3   OH2 3914   3.559   5.625   2.045
 1317TIP3    H1 3915   3.625   5.580   1.994
 1317TIP3    H2 3916   3.529   5.560   2.109
 1318TIP3   OH2 3917   5.451   6.246   3.441
 1318TIP3    H1 3918   5.506   6.262   3.518
 1318TIP3    H2 3919   5.362   6.242   3.476
 1319TIP3   OH2 3920   5.662   2.954   0.317
 1319TIP3    H1 3921   5.713   2.879   0.348
 1319TIP3    H2 3922   5.604   2.918   0.250
 1320TIP3   OH2 3923   2.937   1.339   0.417
 1320TIP3    H1 3924   2.964   1.385   0.497
 1320TIP3    H2 3925   2.892   1.261   0.450
 1321TIP3   OH2 3926   4.976   1.005   3.563
 1321TIP3    H1 3927   4.953   0.980   3.652
 1321TIP3    H2 3928   4.997   0.923   3.519
 1322TIP3   OH2 3929   3.623   3.946   3.652
 1322TIP3    H1 3930   3.696   3.886   3.636
 1322TIP3    H2 3931   3.648   3.991   3.733
 1323TIP3   OH2 3932   4.294   4.476   2.481
 1323TIP3    H1 3933   4.235   4.405   2.456
 1323TIP3    H2 3934   4.304   4.527   2.401
 1324TIP3   OH2 3935   2.043   6.503   2.550
 1324TIP3    H1 3936   2.020   6.497   2.642
 1324TIP3    H2 3937   1.986   6.438   2.507
 1325TIP3   OH2 3938   1.423   5.148   5.850
 1325TIP3    H1 3939   1.497   5.167   5.908
 1325TIP3    H2 3940   1.390   5.234   5.824
 1326TIP3   OH2 3941   1.898   5.796   1.017
 1326TIP3    H1 3942   1.992   5.812   1.003
 1326TIP3    H2 3943   1.896   5.723   1.079
 1327TIP3   OH2 3944   1.796   0.798   4.279
 1327TIP3    H1 3945   1.814   0.864   4.212
 1327TIP3    H2 3946   1.859   0.728   4.263
 1328TIP3   OH2 3947   5.643   2.530   3.167
 1328TIP3    H1 3948   5.583   2.514   3.094
 1328TIP3    H2 3949   5.724   2.561   3.125
 1329TIP3   OH2 3950   0.468   2.044   4.930
 1329TIP3    H1 3951   0.455   1.983   5.003
 1329TIP3    H2 3952   0.426   2.001   4.855
 1330TIP3   OH2 3953   3.123   6.278   3.561
 1330TIP3    H1 3954   3.056   6.311   3.502
 1330TIP3    H2 3955   3.204   6.319   3.530
 1331TIP3   OH2 3956   0.312   3.174   1.292
 1331TIP3    H1 3957   0.261   3.177   1.372
 1331TIP3    H2 3958   0.268   3.236   1.233
 1332TIP3   OH2 3959   3.699   4.959   1.957
 1332TIP3    H1 3960   3.750   4.899   1.903
 1332TIP3    H2 3961   3.608   4.932   1.944
 1333TIP3   OH2 3962   5.513   2.869   4.808
 1333TIP3    H1 3963   5.608   2.878   4.796
 1333TIP3    H2 3964   5.487   2.804   4.742
 1334TIP3   OH2 3965   1.939   2.916   3.920
 1334TIP3    H1 3966   1.928   2.932   4.013
 1334TIP3    H2 3967   2.007   2.978   3.892
 1335TIP3   OH2 3968   2.343   0.774   0.274
 1335TIP3    H1 3969   2.398   0.710   0.229
 1335TIP3    H2 3970   2.277   0.721   0.319
 1336TIP3   OH2 3971   4.307   0.176   3.102
 1336TIP3    H1 3972   4.280   0.244   3.163
 1336TIP3    H2 3973   4.241   0.108   3.110
 1337TIP3   OH2 3974   1.596   4.944   3.389
 1337TIP3    H1 3975   1.662   4.966   3.323
 1337TIP3    H2 3976   1.637   4.970   3.472
 1338TIP3   OH2 3977   3.259   5.167   2.845
 1338TIP3    H1 3978   3.169   5.169   2.876
 1338TIP3    H2 3979   3.311   5.190   2.922
 1339TIP3   OH2 3980   2.628   4.979   3.678
 1339TIP3    H1 3981   2.651   5.072   3.683
 1339TIP3    H2 3982   2.613   4.954   3.769
 1340TIP3   OH2 3983   5.990   6.813   2.739
 1340TIP3    H1 3984   6.065   6.785   2.791
 1340TIP3    H2 3985   5.923   6.746   2.754
 1341TIP3   OH2 3986   7.083   1.161   0.037
 1341TIP3    H1 3987   7.153   1.166   0.102
 1341TIP3    H2 3988   7.065   1.067   0.030
 1342TIP3   OH2 3989   2.006   1.023   3.207
 1342TIP3    H1 3990   1.937   1.082   3.177
 1342TIP3    H2 3991   2.074   1.080   3.241
 1343TIP3   OH2 3992   2.696   6.112   0.481
 1343TIP3    H1 3993   2.712   6.150   0.567
 1343TIP3    H2 3994   2.713   6.184   0.420
 1344TIP3   OH2 3995   4.151   3.616   1.719
 1344TIP3    H1 3996   4.070   3.568   1.733
 1344TIP3    H2 3997   4.130   3.706   1.746
 1345TIP3   OH2 3998   1.087   5.067   4.378
 1345TIP3    H1 3999   1.182   5.073   4.371
 1345TIP3    H2 4000   1.063   5.141   4.434
 1346TIP3   OH2 4001   1.196   1.413   5.008
 1346TIP3    H1 4002   1.194   1.505   4.983
 1346TIP3    H2 4003   1.129   1.404   5.075
 1347TIP3   OH2 4004   3.505   4.425   5.814
 1347TIP3    H1 4005   3.509   4.334   5.844
 1347TIP3    H2 4006   3.455   4.471   5.881
 1348TIP3   OH2 4007   0.564   3.280   3.800
 1348TIP3    H1 4008   0.469   3.287   3.803
 1348TIP3    H2 4009   0.596   3.370   3.803
 1349TIP3   OH2 4010   3.510   0.421   1.708
 1349TIP3    H1 4011   3.496   0.473   1.787
 1349TIP3    H2 4012   3.580   0.360   1.731
 1350TIP3   OH2 4013   2.115   3.289   3.460
 1350TIP3    H1 4014   2.162   3.372   3.456
 1350TIP3    H2 4015   2.061   3.295   3.540
 1351TIP3   OH2 4016   2.208   4.041   5.742
 1351TIP3    H1 4017   2.287   3.993   5.716
 1351TIP3    H2 4018   2.241   4.115   5.792
 1352TIP3   OH2 4019   2.045   0.507   0.153
 1352TIP3    H1 4020   2.081   0.510   0.064
 1352TIP3    H2 4021   2.052   0.415   0.178
 1353TIP3   OH2 4022   0.900   6.108   0.880
 1353TIP3    H1 4023   0.932   6.059   0.956
 1353TIP3    H2 4024   0.945   6.069   0.805
 1354TIP3   OH2 4025   1.146   3.339   5.678
 1354TIP3    H1 4026   1.212   3.315   5.744
 1354TIP3    H2 4027   1.085   3.266   5.677
 1355TIP3   OH2 4028   4.874   1.753   2.423
 1355TIP3    H1 4029   4.910   1.842   2.426
 1355TIP3    H2 4030   4.902   1.713   2.506
 1356TIP3   OH2 4031   0.227   6.578   2.120
 1356TIP3    H1 4032   0.139   6.543   2.111
 1356TIP3    H2 4033   0.214   6.672   2.136
 1357TIP3   OH2 4034   6.773   2.529   4.229
 1357TIP3    H1 4035   6.780   2.565   4.141
 1357TIP3    H2 4036   6.834   2.454   4.229
 1358TIP3   OH2 4037   0.390   4.140   4.137
 1358TIP3    H1 4038   0.317   4.100   4.185
 1358TIP3    H2 4039   0.394   4.230   4.169
 1359TIP3   OH2 4040   3.596   0.977   3.121
 1359TIP3    H1 4041   3.611   1.032   3.043
 1359TIP3    H2 4042   3.601   0.887   3.088
 1360TIP3   OH2 4043   3.542   0.576   1.939
 1360TIP3    H1 4044   3.580   0.634   2.005
 1360TIP3    H2 4045   3.484   0.519   1.988
 1361TIP3   OH2 4046   3.481   1.750   1.644
 1361TIP3    H1 4047   3.573   1.743   1.618
 1361TIP3    H2 4048   3.481   1.811   1.717
 1362TIP3   OH2 4049   3.811   4.530   3.883
 1362TIP3    H1 4050   3.888   4.578   3.855
 1362TIP3    H2 4051   3.770   4.586   3.950
 1363TIP3   OH2 4052   1.372   0.275   4.851
 1363TIP3    H1 4053   1.373   0.334   4.926
 1363TIP3    H2 4054   1.280   0.269   4.826
 1364TIP3   OH2 4055   1.475   6.773   1.066
 1364TIP3    H1 4056   1.552   6.813   1.108
 1364TIP3    H2 4057   1.501   6.759   0.975
 1365TIP3   OH2 4058   1.127   0.422   1.065
 1365TIP3    H1 4059   1.135   0.513   1.091
 1365TIP3    H2 4060   1.059   0.386   1.122
 1366TIP3   OH2 4061   4.620   5.864   5.705
 1366TIP3    H1 4062   4.696   5.809   5.685
 1366TIP3    H2 4063   4.564   5.810   5.760
 1367TIP3   OH2 4064   4.404   6.555   1.653
 1367TIP3    H1 4065   4.462   6.522   1.585
 1367TIP3    H2 4066   4.371   6.638   1.618
 1368TIP3   OH2 4067   2.717   1.437   0.631
 1368TIP3    H1 4068   2.639   1.383   0.617
 1368TIP3    H2 4069   2.782   1.377   0.665
 1369TIP3   OH2 4070   3.386   5.484   1.379
 1369TIP3    H1 4071   3.372   5.392   1.358
 1369TIP3    H2 4072   3.365   5.531   1.299
 1370TIP3   OH2 4073   5.841   3.505   2.174
 1370TIP3    H1 4074   5.904   3.446   2.135
 1370TIP3    H2 4075   5.837   3.479   2.266
 1371TIP3   OH2 4076   5.365   4.428   2.125
 1371TIP3    H1 4077   5.413   4.468   2.052
 1371TIP3    H2 4078   5.387   4.335   2.121
 1372TIP3   OH2 4079   3.096   1.807   2.653
 1372TIP3    H1 4080   3.159   1.868   2.615
 1372TIP3    H2 4081   3.094   1.734   2.591
 1373TIP3   OH2 4082   0.810   0.546   4.631
 1373TIP3    H1 4083   0.888   0.527   4.580
 1373TIP3    H2 4084   0.797   0.640   4.623
 1374TIP3   OH2 4085   0.649   5.623   0.285
 1374TIP3    H1 4086   0.633   5.717   0.273
 1374TIP3    H2 4087   0.562   5.585   0.290
 1375TIP3   OH2 4088   0.086   4.220   3.714
 1375TIP3    H1 4089   0.131   4.150   3.667
 1375TIP3    H2 4090   0.001   4.227   3.671
 1376TIP3   OH2 4091   3.072   2.707   5.802
 1376TIP3    H1 4092   2.990   2.697   5.849
 1376TIP3    H2 4093   3.049   2.695   5.710
 1377TIP3   OH2 4094   2.851   6.099   3.229
 1377TIP3    H1 4095   2.874   6.092   3.321
 1377TIP3    H2 4096   2.816   6.012   3.207
 1378TIP3   OH2 4097   1.522   1.787   0.670
 1378TIP3    H1 4098   1.578   1.710   0.675
 1378TIP3    H2 4099   1.481   1.793   0.756
 1379TIP3   OH2 4100   6.041   4.771   0.091
 1379TIP3    H1 4101   5.987   4.708   0.043
 1379TIP3    H2 4102   6.104   4.717   0.138
 1380TIP3   OH2 4103   0.304   5.200   3.418
 1380TIP3    H1 4104   0.387   5.228   3.454
 1380TIP3    H2 4105   0.314   5.207   3.323
 1381TIP3   OH2 4106   6.353   1.505   5.473
 1381TIP3    H1 4107   6.344   1.438   5.540
 1381TIP3    H2 4108   6.263   1.530   5.451
 1382TIP3   OH2 4109   6.213   3.086   2.835
 1382TIP3    H1 4110   6.182   3.112   2.922
 1382TIP3    H2 4111   6.168   3.004   2.817
 1383TIP3   OH2 4112   2.543   4.833   3.048
 1383TIP3    H1 4113   2.560   4.739   3.049
 1383TIP3    H2 4114   2.610   4.870   3.106
 1384TIP3   OH2 4115   1.196   1.055   0.455
 1384TIP3    H1 4116   1.290   1.035   0.460
 1384TIP3    H2 4117   1.192   1.140   0.414
 1385TIP3   OH2 4118   2.205   3.484   1.127
 1385TIP3    H1 4119   2.185   3.394   1.151
 1385TIP3    H2 4120   2.294   3.480   1.091
 1386TIP3   OH2 4121   3.356   2.370   0.983
 1386TIP3    H1 4122   3.309   2.343   0.904
 1386TIP3    H2 4123   3.294   2.355   1.054
 1387TIP3   OH2 4124   5.222   6.526   1.303
 1387TIP3    H1 4125   5.176   6.465   1.245
 1387TIP3    H2 4126   5.311   6.491   1.309
 1388TIP3   OH2 4127   2.787   0.177   2.371
 1388TIP3    H1 4128   2.797   0.148   2.462
 1388TIP3    H2 4129   2.871   0.217   2.350
 1389TIP3   OH2 4130   1.922   3.179   1.174
 1389TIP3    H1 4131   1.920   3.179   1.270
 1389TIP3    H2 4132   2.014   3.166   1.152
 1390TIP3   OH2 4133   4.588   4.473   5.775
 1390TIP3    H1 4134   4.536   4.452   5.853
 1390TIP3    H2 4135   4.674   4.435   5.793
 1391TIP3   OH2 4136   3.909   5.815   3.586
 1391TIP3    H1 4137   3.851   5.884   3.552
 1391TIP3    H2 4138   3.930   5.762   3.509
 1392TIP3   OH2 4139   0.997   6.157   1.153
 1392TIP3    H1 4140   1.003   6.253   1.152
 1392TIP3    H2 4141   1.064   6.128   1.092
 1393TIP3   OH2 4142   0.663   4.561   0.279
 1393TIP3    H1 4143   0.724   4.507   0.330
 1393TIP3    H2 4144   0.590   4.577   0.339
 1394TIP3   OH2 4145   5.726   0.403   3.119
 1394TIP3    H1 4146   5.654   0.346   3.093
 1394TIP3    H2 4147   5.770   0.427   3.037
 1395TIP3   OH2 4148   5.447   1.879   3.680
 1395TIP3    H1 4149   5.487   1.964   3.663
 1395TIP3    H2 4150   5.353   1.897   3.681
 1396TIP3   OH2 4151   2.748   3.664   2.335
 1396TIP3    H1 4152   2.808   3.669   2.260
 1396TIP3    H2 4153   2.804   3.641   2.409
 1397TIP3   OH2 4154   4.863   1.154   0.988
 1397TIP3    H1 4155   4.915   1.076   0.968
 1397TIP3    H2 4156   4.776   1.120   1.009
 1398TIP3   OH2 4157   6.231   2.099   0.854
 1398TIP3    H1 4158   6.261   2.128   0.768
 1398TIP3    H2 4159   6.280   2.018   0.870
 1399TIP3   OH2 4160   6.699   1.821   0.972
 1399TIP3    H1 4161   6.777   1.768   0.954
 1399TIP3    H2 4162   6.665   1.843   0.886
 1400TIP3   OH2 4163   5.867   5.668   3.730
 1400TIP3    H1 4164   5.833   5.757   3.743
 1400TIP3    H2 4165   5.951   5.668   3.775
 1401TIP3   OH2 4166   6.643   6.006   3.398
 1401TIP3    H1 4167   6.562   6.046   3.429
 1401TIP3    H2 4168   6.628   5.987   3.306
 1402TIP3   OH2 4169   1.630   6.444   2.598
 1402TIP3    H1 4170   1.615   6.351   2.579
 1402TIP3    H2 4171   1.712   6.465   2.553
 1403TIP3   OH2 4172   3.723   0.849   4.000
 1403TIP3    H1 4173   3.700   0.784   3.933
 1403TIP3    H2 4174   3.649   0.847   4.061
 1404TIP3   OH2 4175   5.668   0.321   4.307
 1404TIP3    H1 4176   5.735   0.263   4.272
 1404TIP3    H2 4177   5.711   0.369   4.377
 1405TIP3   OH2 4178   2.757   0.137   1.713
 1405TIP3    H1 4179   2.766   0.069   1.781
 1405TIP3    H2 4180   2.715   0.092   1.640
 1406TIP3   OH2 4181   5.088   1.600   2.162
 1406TIP3    H1 4182   4.998   1.578   2.185
 1406TIP3    H2 4183   5.138   1.520   2.181
 1407TIP3   OH2 4184   7.230   3.676   0.573
 1407TIP3    H1 4185   7.243   3.652   0.665
 1407TIP3    H2 4186   7.137   3.699   0.567
 1408TIP3   OH2 4187   0.330   5.885   0.717
 1408TIP3    H1 4188   0.238   5.894   0.693
 1408TIP3    H2 4189   0.329   5.883   0.813
 1409TIP3   OH2 4190   1.355   5.308   3.730
 1409TIP3    H1 4191   1.408   5.331   3.807
 1409TIP3    H2 4192   1.364   5.213   3.723
 1410TIP3   OH2 4193   3.791   5.923   1.764
 1410TIP3    H1 4194   3.746   5.995   1.808
 1410TIP3    H2 4195   3.853   5.890   1.830
 1411TIP3   OH2 4196   2.758   2.192   3.642
 1411TIP3    H1 4197   2.728   2.191   3.551
 1411TIP3    H2 4198   2.691   2.241   3.689
 1412TIP3   OH2 4199   0.064   4.426   1.518
 1412TIP3    H1 4200  -0.007   4.476   1.476
 1412TIP3    H2 4201   0.120   4.493   1.557
 1413TIP3   OH2 4202   3.448   0.363   4.548
 1413TIP3    H1 4203   3.372   0.420   4.546
 1413TIP3    H2 4204   3.465   0.342   4.456
 1414TIP3   OH2 4205   2.874   0.584   4.313
 1414TIP3    H1 4206   2.902   0.532   4.237
 1414TIP3    H2 4207   2.873   0.521   4.386
 1415TIP3   OH2 4208   5.683   0.897   1.552
 1415TIP3    H1 4209   5.664   0.834   1.622
 1415TIP3    H2 4210   5.770   0.930   1.572
 1416TIP3   OH2 4211   5.122   4.933   2.085
 1416TIP3    H1 4212   5.198   4.873   2.086
 1416TIP3    H2 4213   5.065   4.899   2.153
 1417TIP3   OH2 4214   1.129   2.235   5.172
 1417TIP3    H1 4215   1.157   2.165   5.113
 1417TIP3    H2 4216   1.036   2.245   5.154
 1418TIP3   OH2 4217   4.073   5.750   5.331
 1418TIP3    H1 4218   4.029   5.729   5.249
 1418TIP3    H2 4219   4.004   5.784   5.388
 1419TIP3   OH2 4220   2.805   3.938   1.687
 1419TIP3    H1 4221   2.839   3.850   1.668
 1419TIP3    H2 4222   2.715   3.922   1.717
 1420TIP3   OH2 4223   5.496   0.824   4.014
 1420TIP3    H1 4224   5.470   0.915   3.999
 1420TIP3    H2 4225   5.426   0.772   3.975
 1421TIP3   OH2 4226   2.386   6.689   1.401
 1421TIP3    H1 4227   2.378   6.783   1.387
 1421TIP3    H2 4228   2.474   6.678   1.438
 1422TIP3   OH2 4229   0.915   4.903   5.638
 1422TIP3    H1 4230   0.957   4.898   5.552
 1422TIP3    H2 4231   0.953   4.980   5.679
 1423TIP3   OH2 4232   2.818   0.308   4.819
 1423TIP3    H1 4233   2.888   0.357   4.862
 1423TIP3    H2 4234   2.864   0.246   4.762
 1424TIP3   OH2 4235   7.234   1.127   3.244
 1424TIP3    H1 4236   7.169   1.177   3.194
 1424TIP3    H2 4237   7.200   1.038   3.245
 1425TIP3   OH2 4238   6.241   2.658   3.638
 1425TIP3    H1 4239   6.298   2.707   3.578
 1425TIP3    H2 4240   6.267   2.689   3.725
 1426TIP3   OH2 4241   6.994   5.610   1.299
 1426TIP3    H1 4242   6.939   5.633   1.374
 1426TIP3    H2 4243   7.000   5.515   1.301
 1427TIP3   OH2 4244   5.336   0.224   5.093
 1427TIP3    H1 4245   5.412   0.248   5.041
 1427TIP3    H2 4246   5.365   0.150   5.146
 1428TIP3   OH2 4247   4.422   4.594   2.236
 1428TIP3    H1 4248   4.500   4.646   2.255
 1428TIP3    H2 4249   4.438   4.557   2.149
 1429TIP3   OH2 4250   4.458   2.212   5.793
 1429TIP3    H1 4251   4.524   2.267   5.750
 1429TIP3    H2 4252   4.447   2.137   5.735
 1430TIP3   OH2 4253   0.856   5.043   4.795
 1430TIP3    H1 4254   0.796   4.969   4.794
 1430TIP3    H2 4255   0.825   5.100   4.724
 1431TIP3   OH2 4256   1.121   6.011   5.534
 1431TIP3    H1 4257   1.111   6.014   5.439
 1431TIP3    H2 4258   1.164   6.094   5.557
 1432TIP3   OH2 4259   0.133   1.105   2.976
 1432TIP3    H1 4260   0.039   1.109   2.960
 1432TIP3    H2 4261   0.143   1.040   3.046
 1433TIP3   OH2 4262   6.322   2.350   1.521
 1433TIP3    H1 4263   6.230   2.345   1.544
 1433TIP3    H2 4264   6.329   2.425   1.462
 1434TIP3   OH2 4265   5.043   3.770   3.464
 1434TIP3    H1 4266   5.038   3.819   3.382
 1434TIP3    H2 4267   5.133   3.783   3.494
 1435TIP3   OH2 4268   3.346   0.657   5.010
 1435TIP3    H1 4269   3.419   0.624   4.958
 1435TIP3    H2 4270   3.383   0.730   5.060
 1436TIP3   OH2 4271   4.427   5.532   5.674
 1436TIP3    H1 4272   4.370   5.534   5.598
 1436TIP3    H2 4273   4.431   5.440   5.699
 1437TIP3   OH2 4274   4.358   1.225   2.102
 1437TIP3    H1 4275   4.275   1.200   2.144
 1437TIP3    H2 4276   4.355   1.320   2.097
 1438TIP3   OH2 4277   3.223   6.391   0.696
 1438TIP3    H1 4278   3.245   6.317   0.752
 1438TIP3    H2 4279   3.307   6.424   0.665
 1439TIP3   OH2 4280   2.515   2.794   4.115
 1439TIP3    H1 4281   2.557   2.859   4.058
 1439TIP3    H2 4282   2.474   2.846   4.184
 1440TIP3   OH2 4283   4.233   5.944   4.867
 1440TIP3    H1 4284   4.246   5.958   4.961
 1440TIP3    H2 4285   4.267   5.856   4.851
 1441TIP3   OH2 4286   6.948   3.478   1.759
 1441TIP3    H1 4287   6.989   3.392   1.756
 1441TIP3    H2 4288   6.863   3.466   1.717
 1442TIP3   OH2 4289   2.319   6.261   0.808
 1442TIP3    H1 4290   2.403   6.264   0.762
 1442TIP3    H2 4291   2.332   6.195   0.876
 1443TIP3   OH2 4292   2.157   6.559   1.442
 1443TIP3    H1 4293   2.098   6.627   1.410
 1443TIP3    H2 4294   2.242   6.581   1.405
 1444TIP3   OH2 4295   1.220   0.082   4.054
 1444TIP3    H1 4296   1.219   0.028   4.133
 1444TIP3    H2 4297   1.153   0.149   4.070
 1445TIP3   OH2 4298   6.441   4.332   5.752
 1445TIP3    H1 4299   6.364   4.384   5.733
 1445TIP3    H2 4300   6.456   4.343   5.846
 1446TIP3   OH2 4301   5.718   4.358   2.002
 1446TIP3    H1 4302   5.807   4.389   1.989
 1446TIP3    H2 4303   5.704   4.364   2.097
 1447TIP3   OH2 4304   0.822   3.852   0.562
 1447TIP3    H1 4305   0.865   3.794   0.500
 1447TIP3    H2 4306   0.770   3.793   0.617
 1448TIP3   OH2 4307   1.349   4.575   4.875
 1448TIP3    H1 4308   1.369   4.650   4.932
 1448TIP3    H2 4309   1.340   4.614   4.788
 1449TIP3   OH2 4310   2.537   2.443   1.506
 1449TIP3    H1 4311   2.581   2.393   1.575
 1449TIP3    H2 4312   2.498   2.377   1.449
 1450TIP3   OH2 4313   0.708   2.260   5.697
 1450TIP3    H1 4314   0.766   2.247   5.773
 1450TIP3    H2 4315   0.766   2.290   5.627
 1451TIP3   OH2 4316   2.323   0.214   3.233
 1451TIP3    H1 4317   2.392   0.241   3.294
 1451TIP3    H2 4318   2.338   0.268   3.155
 1452TIP3   OH2 4319   0.346   6.190   0.857
 1452TIP3    H1 4320   0.426   6.142   0.837
 1452TIP3    H2 4321   0.366   6.281   0.832
 1453TIP3   OH2 4322   4.927   5.878   2.587
 1453TIP3    H1 4323   4.845   5.919   2.561
 1453TIP3    H2 4324   4.967   5.941   2.648
 1454TIP3   OH2 4325   6.149   6.614   5.637
 1454TIP3    H1 4326   6.132   6.529   5.678
 1454TIP3    H2 4327   6.078   6.670   5.667
 1455TIP3   OH2 4328   5.265   3.048   4.039
 1455TIP3    H1 4329   5.178   3.017   4.013
 1455TIP3    H2 4330   5.322   2.973   4.022
 1456TIP3   OH2 4331   6.398   0.040   3.673
 1456TIP3    H1 4332   6.417   0.134   3.669
 1456TIP3    H2 4333   6.442   0.009   3.751
 1457TIP3   OH2 4334   6.772   4.926   3.223
 1457TIP3    H1 4335   6.828   4.904   3.148
 1457TIP3    H2 4336   6.748   5.018   3.209
 1458TIP3   OH2 4337   7.184   3.825   5.674
 1458TIP3    H1 4338   7.230   3.899   5.634
 1458TIP3    H2 4339   7.213   3.748   5.625
 1459TIP3   OH2 4340   6.642   4.668   2.504
 1459TIP3    H1 4341   6.635   4.591   2.448
 1459TIP3    H2 4342   6.621   4.636   2.592
 1460TIP3   OH2 4343   5.492   4.168   2.095
 1460TIP3    H1 4344   5.530   4.085   2.124
 1460TIP3    H2 4345   5.532   4.184   2.010
 1461TIP3   OH2 4346   4.407   6.268   3.434
 1461TIP3    H1 4347   4.487   6.318   3.414
 1461TIP3    H2 4348   4.336   6.332   3.425
 1462TIP3   OH2 4349   5.702   2.285   3.914
 1462TIP3    H1 4350   5.691   2.328   3.999
 1462TIP3    H2 4351   5.654   2.341   3.853
 1463TIP3   OH2 4352   6.254   1.399   3.532
 1463TIP3    H1 4353   6.219   1.312   3.517
 1463TIP3    H2 4354   6.289   1.397   3.621
 1464TIP3   OH2 4355   6.914   3.486   1.427
 1464TIP3    H1 4356   6.891   3.576   1.449
 1464TIP3    H2 4357   6.862   3.467   1.349
 1465TIP3   OH2 4358   7.194   0.881   3.776
 1465TIP3    H1 4359   7.198   0.792   3.810
 1465TIP3    H2 4360   7.209   0.937   3.852
 1466TIP3   OH2 4361   4.046   2.030   3.350
 1466TIP3    H1 4362   4.043   2.122   3.378
 1466TIP3    H2 4363   4.112   2.028   3.281
 1467TIP3   OH2 4364   1.710   0.632   1.463
 1467TIP3    H1 4365   1.684   0.544   1.490
 1467TIP3    H2 4366   1.645   0.658   1.398
 1468TIP3   OH2 4367   5.132   2.480   1.402
 1468TIP3    H1 4368   5.081   2.400   1.404
 1468TIP3    H2 4369   5.129   2.509   1.311
 1469TIP3   OH2 4370   4.264   5.628   4.407
 1469TIP3    H1 4371   4.265   5.639   4.312
 1469TIP3    H2 4372   4.222   5.707   4.440
 1470TIP3   OH2 4373   6.137   4.744   4.765
 1470TIP3    H1 4374   6.132   4.800   4.687
 1470TIP3    H2 4375   6.072   4.781   4.825
 1471TIP3   OH2 4376   4.292   3.587   1.053
 1471TIP3    H1 4377   4.277   3.615   0.963
 1471TIP3    H2 4378   4.281   3.666   1.105
 1472TIP3   OH2 4379   3.131   0.147   4.923
 1472TIP3    H1 4380   3.205   0.179   4.873
 1472TIP3    H2 4381   3.079   0.225   4.942
 1473TIP3   OH2 4382   5.188   3.802   1.549
 1473TIP3    H1 4383   5.143   3.807   1.464
 1473TIP3    H2 4384   5.213   3.893   1.568
 1474TIP3   OH2 4385   5.138   5.026   5.749
 1474TIP3    H1 4386   5.171   4.936   5.749
 1474TIP3    H2 4387   5.150   5.057   5.838
 1475TIP3   OH2 4388   0.991   1.553   4.740
 1475TIP3    H1 4389   1.074   1.584   4.704
 1475TIP3    H2 4390   0.947   1.633   4.771
 1476TIP3   OH2 4391   5.248   5.527   0.660
 1476TIP3    H1 4392   5.222   5.457   0.720
 1476TIP3    H2 4393   5.166   5.560   0.623
 1477TIP3   OH2 4394   3.849   1.492   3.048
 1477TIP3    H1 4395   3.853   1.419   2.987
 1477TIP3    H2 4396   3.867   1.569   2.994
 1478TIP3   OH2 4397   6.767   0.216   2.023
 1478TIP3    H1 4398   6.824   0.160   1.970
 1478TIP3    H2 4399   6.757   0.296   1.970
 1479TIP3   OH2 4400   3.860   0.472   3.245
 1479TIP3    H1 4401   3.799   0.484   3.318
 1479TIP3    H2 4402   3.946   0.463   3.288
 1480TIP3   OH2 4403   0.289   1.703   0.098
 1480TIP3    H1 4404   0.251   1.783   0.063
 1480TIP3    H2 4405   0.286   1.641   0.025
 1481TIP3   OH2 4406   6.147   0.288   1.418
 1481TIP3    H1 4407   6.191   0.249   1.494
 1481TIP3    H2 4408   6.217   0.307   1.356
 1482TIP3   OH2 4409   2.289   5.689   3.015
 1482TIP3    H1 4410   2.207   5.654   3.049
 1482TIP3    H2 4411   2.317   5.753   3.081
 1483TIP3   OH2 4412   6.633   5.678   1.395
 1483TIP3    H1 4413   6.674   5.764   1.410
 1483TIP3    H2 4414   6.550   5.683   1.443
 1484TIP3   OH2 4415   3.087   6.266   5.589
 1484TIP3    H1 4416   3.179   6.272   5.615
 1484TIP3    H2 4417   3.039   6.269   5.672
 1485TIP3   OH2 4418   6.390   5.957   4.175
 1485TIP3    H1 4419   6.380   5.938   4.268
 1485TIP3    H2 4420   6.335   5.892   4.131
 1486TIP3   OH2 4421   6.606   5.762   1.888
 1486TIP3    H1 4422   6.536   5.810   1.843
 1486TIP3    H2 4423   6.631   5.693   1.826
 1487TIP3   OH2 4424   6.013   5.017   4.912
 1487TIP3    H1 4425   5.940   4.957   4.921
 1487TIP3    H2 4426   5.976   5.096   4.873
 1488TIP3   OH2 4427   0.218   2.548   0.114
 1488TIP3    H1 4428   0.273   2.577   0.041
 1488TIP3    H2 4429   0.277   2.545   0.189
 1489TIP3   OH2 4430   3.943   1.373   1.612
 1489TIP3    H1 4431   3.954   1.328   1.528
 1489TIP3    H2 4432   3.871   1.327   1.655
 1490TIP3   OH2 4433   0.878   3.187   3.454
 1490TIP3    H1 4434   0.904   3.278   3.435
 1490TIP3    H2 4435   0.783   3.189   3.455
 1491TIP3   OH2 4436   5.150   3.585   2.170
 1491TIP3    H1 4437   5.062   3.619   2.182
 1491TIP3    H2 4438   5.138   3.502   2.122
 1492TIP3   OH2 4439   1.652   3.671   4.703
 1492TIP3    H1 4440   1.587   3.672   4.633
 1492TIP3    H2 4441   1.601   3.657   4.783
 1493TIP3   OH2 4442   0.412   3.762   1.037
 1493TIP3    H1 4443   0.463   3.685   1.012
 1493TIP3    H2 4444   0.321   3.731   1.040
 1494TIP3   OH2 4445   0.587   6.479   0.153
 1494TIP3    H1 4446   0.672   6.523   0.149
 1494TIP3    H2 4447   0.543   6.504   0.071
 1495TIP3   OH2 4448   5.511   6.510   0.800
 1495TIP3    H1 4449   5.446   6.457   0.848
 1495TIP3    H2 4450   5.560   6.446   0.748
 1496TIP3   OH2 4451   6.308   1.796   4.127
 1496TIP3    H1 4452   6.268   1.773   4.043
 1496TIP3    H2 4453   6.249   1.859   4.166
 1497TIP3   OH2 4454   0.304   3.123   0.660
 1497TIP3    H1 4455   0.232   3.063   0.677
 1497TIP3    H2 4456   0.369   3.069   0.613
 1498TIP3   OH2 4457   7.134   1.497   4.308
 1498TIP3    H1 4458   7.096   1.412   4.287
 1498TIP3    H2 4459   7.172   1.528   4.226
 1499TIP3   OH2 4460   2.116   1.934   1.942
 1499TIP3    H1 4461   2.087   1.999   2.006
 1499TIP3    H2 4462   2.116   1.982   1.858
 1500TIP3   OH2 4463   4.330   0.056   4.413
 1500TIP3    H1 4464   4.390   0.061   4.338
 1500TIP3    H2 4465   4.383   0.082   4.488
 1501TIP3   OH2 4466   0.513   1.597   4.060
 1501TIP3    H1 4467   0.551   1.685   4.059
 1501TIP3    H2 4468   0.497   1.577   3.967
 1502TIP3   OH2 4469   1.478   0.749   4.341
 1502TIP3    H1 4470   1.568   0.729   4.369
 1502TIP3    H2 4471   1.442   0.665   4.314
 1503TIP3   OH2 4472   2.264   4.331   1.573
 1503TIP3    H1 4473   2.224   4.412   1.605
 1503TIP3    H2 4474   2.280   4.279   1.651
 1504TIP3   OH2 4475   6.896   3.615   4.317
 1504TIP3    H1 4476   6.947   3.537   4.295
 1504TIP3    H2 4477   6.880   3.607   4.411
 1505TIP3   OH2 4478   3.336   5.997   4.427
 1505TIP3    H1 4479   3.265   6.060   4.423
 1505TIP3    H2 4480   3.355   5.976   4.335
 1506TIP3   OH2 4481   5.866   0.932   4.259
 1506TIP3    H1 4482   5.773   0.947   4.271
 1506TIP3    H2 4483   5.871   0.869   4.188
 1507TIP3   OH2 4484   5.005   3.249   3.703
 1507TIP3    H1 4485   5.057   3.169   3.700
 1507TIP3    H2 4486   4.944   3.241   3.630
 1508TIP3   OH2 4487   1.697   6.157   1.741
 1508TIP3    H1 4488   1.723   6.248   1.728
 1508TIP3    H2 4489   1.775   6.114   1.775
 1509TIP3   OH2 4490   4.130   0.761   3.353
 1509TIP3    H1 4491   4.140   0.828   3.420
 1509TIP3    H2 4492   4.044   0.723   3.369
 1510TIP3   OH2 4493   3.689   2.470   0.944
 1510TIP3    H1 4494   3.776   2.434   0.962
 1510TIP3    H2 4495   3.634   2.440   1.016
 1511TIP3   OH2 4496   4.843   3.474   2.123
 1511TIP3    H1 4497   4.759   3.458   2.081
 1511TIP3    H2 4498   4.905   3.483   2.051
 1512TIP3   OH2 4499   6.074   3.870   3.949
 1512TIP3    H1 4500   5.982   3.856   3.925
 1512TIP3    H2 4501   6.106   3.783   3.972
 1513TIP3   OH2 4502   0.031   1.144   2.611
 1513TIP3    H1 4503  -0.050   1.156   2.661
 1513TIP3    H2 4504   0.066   1.232   2.600
 1514TIP3   OH2 4505   2.397   4.049   0.077
 1514TIP3    H1 4506   2.370   4.111   0.009
 1514TIP3    H2 4507   2.315   4.013   0.111
 1515TIP3   OH2 4508   1.344   1.906   4.639
 1515TIP3    H1 4509   1.321   1.917   4.547
 1515TIP3    H2 4510   1.285   1.838   4.671
 1516TIP3   OH2 4511   6.001   1.694   1.174
 1516TIP3    H1 4512   5.964   1.781   1.192
 1516TIP3    H2 4513   6.089   1.697   1.211
 1517TIP3   OH2 4514   6.103   5.141   4.126
 1517TIP3    H1 4515   6.074   5.130   4.216
 1517TIP3    H2 4516   6.199   5.146   4.132
 1518TIP3   OH2 4517   3.890   5.404   3.583
 1518TIP3    H1 4518   3.917   5.312   3.575
 1518TIP3    H2 4519   3.829   5.404   3.657
 1519TIP3   OH2 4520   2.435   6.577   5.693
 1519TIP3    H1 4521   2.525   6.545   5.694
 1519TIP3    H2 4522   2.386   6.508   5.650
 1520TIP3   OH2 4523   0.575   6.305   2.329
 1520TIP3    H1 4524   0.596   6.301   2.236
 1520TIP3    H2 4525   0.513   6.378   2.336
 1521TIP3   OH2 4526   2.966   0.987   3.887
 1521TIP3    H1 4527   2.981   0.893   3.895
 1521TIP3    H2 4528   2.887   0.994   3.834
 1522TIP3   OH2 4529   5.408   3.683   3.289
 1522TIP3    H1 4530   5.438   3.611   3.233
 1522TIP3    H2 4531   5.447   3.761   3.250
 1523TIP3   OH2 4532   0.744   3.158   4.466
 1523TIP3    H1 4533   0.694   3.078   4.451
 1523TIP3    H2 4534   0.712   3.190   4.551
 1524TIP3   OH2 4535   1.299   2.415   3.989
 1524TIP3    H1 4536   1.211   2.438   4.020
 1524TIP3    H2 4537   1.324   2.339   4.042
 1525TIP3   OH2 4538   6.079   0.036   0.862
 1525TIP3    H1 4539   6.022   0.111   0.875
 1525TIP3    H2 4540   6.020  -0.038   0.847
 1526TIP3   OH2 4541   1.815   6.708   5.760
 1526TIP3    H1 4542   1.771   6.772   5.816
 1526TIP3    H2 4543   1.898   6.690   5.805
 1527TIP3   OH2 4544   0.377   6.025   5.847
 1527TIP3    H1 4545   0.374   6.107   5.797
 1527TIP3    H2 4546   0.461   5.986   5.824
 1528TIP3   OH2 4547   6.426   1.189   3.743
 1528TIP3    H1 4548   6.439   1.135   3.665
 1528TIP3    H2 4549   6.481   1.148   3.810
 1529TIP3   OH2 4550   3.591   5.438   0.300
 1529TIP3    H1 4551   3.569   5.366   0.241
 1529TIP3    H2 4552   3.653   5.492   0.250
 1530TIP3   OH2 4553   3.051   5.122   4.220
 1530TIP3    H1 4554   3.018   5.042   4.179
 1530TIP3    H2 4555   3.130   5.143   4.170
 1531TIP3   OH2 4556   2.590   4.031   1.245
 1531TIP3    H1 4557   2.551   4.118   1.250
 1531TIP3    H2 4558   2.684   4.047   1.236
 1532TIP3   OH2 4559   4.406   1.423   2.860
 1532TIP3    H1 4560   4.424   1.329   2.850
 1532TIP3    H2 4561   4.311   1.431   2.848
 1533TIP3   OH2 4562   0.795   2.414   1.610
 1533TIP3    H1 4563   0.885   2.386   1.625
 1533TIP3    H2 4564   0.795   2.507   1.633
 1534TIP3   OH2 4565   1.144   6.500   3.404
 1534TIP3    H1 4566   1.051   6.483   3.394
 1534TIP3    H2 4567   1.187   6.418   3.378
 1535TIP3   OH2 4568   0.205   0.890   2.378
 1535TIP3    H1 4569   0.145   0.962   2.360
 1535TIP3    H2 4570   0.168   0.815   2.331
 1536TIP3   OH2 4571   3.808   5.104   5.774
 1536TIP3    H1 4572   3.742   5.102   5.705
 1536TIP3    H2 4573   3.760   5.127   5.853
 1537TIP3   OH2 4574   7.055   1.559   3.114
 1537TIP3    H1 4575   6.986   1.625   3.104
 1537TIP3    H2 4576   7.055   1.512   3.031
 1538TIP3   OH2 4577   7.024   0.019   4.845
 1538TIP3    H1 4578   6.984  -0.007   4.929
 1538TIP3    H2 4579   7.085  -0.052   4.825
 1539TIP3   OH2 4580   2.289   6.212   1.306
 1539TIP3    H1 4581   2.371   6.259   1.292
 1539TIP3    H2 4582   2.315   6.131   1.350
 1540TIP3   OH2 4583   0.466   1.561   2.352
 1540TIP3    H1 4584   0.391   1.581   2.296
 1540TIP3    H2 4585   0.460   1.466   2.366
 1541TIP3   OH2 4586   1.813   5.044   2.829
 1541TIP3    H1 4587   1.767   4.967   2.863
 1541TIP3    H2 4588   1.874   5.008   2.764
 1542TIP3   OH2 4589   3.825   5.571   0.222
 1542TIP3    H1 4590   3.842   5.547   0.131
 1542TIP3    H2 4591   3.906   5.613   0.251
 1543TIP3   OH2 4592   2.120   5.768   0.293
 1543TIP3    H1 4593   2.145   5.842   0.238
 1543TIP3    H2 4594   2.029   5.750   0.268
 1544TIP3   OH2 4595   0.700   2.058   1.890
 1544TIP3    H1 4596   0.770   2.118   1.914
 1544TIP3    H2 4597   0.667   2.092   1.806
 1545TIP3   OH2 4598   4.538   0.933   4.262
 1545TIP3    H1 4599   4.527   0.964   4.352
 1545TIP3    H2 4600   4.558   0.840   4.271
 1546TIP3   OH2 4601   3.934   1.715   5.648
 1546TIP3    H1 4602   3.947   1.670   5.732
 1546TIP3    H2 4603   3.982   1.797   5.658
 1547TIP3   OH2 4604   6.295   5.472   5.681
 1547TIP3    H1 4605   6.332   5.527   5.750
 1547TIP3    H2 4606   6.201   5.472   5.699
 1548TIP3   OH2 4607   3.007   5.617   2.273
 1548TIP3    H1 4608   2.968   5.531   2.257
 1548TIP3    H2 4609   3.071   5.629   2.203
 1549TIP3   OH2 4610   0.020   2.407   4.652
 1549TIP3    H1 4611  -0.053   2.389   4.712
 1549TIP3    H2 4612   0.059   2.488   4.686
 1550TIP3   OH2 4613   4.696   6.247   1.194
 1550TIP3    H1 4614   4.686   6.238   1.099
 1550TIP3    H2 4615   4.702   6.342   1.209
 1551TIP3   OH2 4616   3.951   0.690   1.046
 1551TIP3    H1 4617   3.891   0.668   1.117
 1551TIP3    H2 4618   3.936   0.783   1.030
 1552TIP3   OH2 4619   3.033   5.899   2.874
 1552TIP3    H1 4620   3.074   5.906   2.788
 1552TIP3    H2 4621   3.075   5.823   2.915
 1553TIP3   OH2 4622   4.344   2.554   2.964
 1553TIP3    H1 4623   4.379   2.465   2.973
 1553TIP3    H2 4624   4.318   2.560   2.872
 1554TIP3   OH2 4625   5.669   1.321   2.543
 1554TIP3    H1 4626   5.719   1.343   2.621
 1554TIP3    H2 4627   5.616   1.399   2.525
 1555TIP3   OH2 4628   4.909   3.104   0.495
 1555TIP3    H1 4629   4.970   3.135   0.562
 1555TIP3    H2 4630   4.871   3.184   0.459
 1556TIP3   OH2 4631   4.944   4.097   0.633
 1556TIP3    H1 4632   4.873   4.056   0.683
 1556TIP3    H2 4633   4.904   4.177   0.596
 1557TIP3   OH2 4634   2.413   2.153   1.498
 1557TIP3    H1 4635   2.483   2.108   1.452
 1557TIP3    H2 4636   2.395   2.099   1.575
 1558TIP3   OH2 4637   3.443   5.194   0.788
 1558TIP3    H1 4638   3.459   5.256   0.717
 1558TIP3    H2 4639   3.429   5.110   0.744
 1559TIP3   OH2 4640   0.765   2.169   4.834
 1559TIP3    H1 4641   0.670   2.172   4.820
 1559TIP3    H2 4642   0.800   2.143   4.749
 1560TIP3   OH2 4643   5.098   3.732   1.301
 1560TIP3    H1 4644   5.138   3.646   1.287
 1560TIP3    H2 4645   5.099   3.773   1.214
 1561TIP3   OH2 4646   1.594   6.445   5.190
 1561TIP3    H1 4647   1.531   6.513   5.165
 1561TIP3    H2 4648   1.678   6.492   5.198
 1562TIP3   OH2 4649   3.946   2.345   1.456
 1562TIP3    H1 4650   4.026   2.376   1.413
 1562TIP3    H2 4651   3.955   2.250   1.459
 1563TIP3   OH2 4652   1.209   6.339   0.600
 1563TIP3    H1 4653   1.216   6.308   0.690
 1563TIP3    H2 4654   1.123   6.379   0.595
 1564TIP3   OH2 4655   1.179   5.863   4.784
 1564TIP3    H1 4656   1.251   5.832   4.729
 1564TIP3    H2 4657   1.147   5.942   4.739
 1565TIP3   OH2 4658   2.465   4.572   3.409
 1565TIP3    H1 4659   2.556   4.565   3.379
 1565TIP3    H2 4660   2.442   4.484   3.439
 1566TIP3   OH2 4661   6.406   4.432   5.013
 1566TIP3    H1 4662   6.471   4.464   5.075
 1566TIP3    H2 4663   6.341   4.386   5.067
 1567TIP3   OH2 4664   1.999   2.198   2.776
 1567TIP3    H1 4665   1.999   2.201   2.681
 1567TIP3    H2 4666   1.981   2.106   2.798
 1568TIP3   OH2 4667   4.918   5.189   4.866
 1568TIP3    H1 4668   4.861   5.182   4.790
 1568TIP3    H2 4669   4.881   5.128   4.930
 1569TIP3   OH2 4670   2.787   0.643   2.652
 1569TIP3    H1 4671   2.777   0.644   2.557
 1569TIP3    H2 4672   2.785   0.735   2.677
 1570TIP3   OH2 4673   5.634   3.479   2.667
 1570TIP3    H1 4674   5.540   3.481   2.646
 1570TIP3    H2 4675   5.638   3.488   2.762
 1571TIP3   OH2 4676   1.449   5.242   2.424
 1571TIP3    H1 4677   1.531   5.209   2.462
 1571TIP3    H2 4678   1.425   5.177   2.358
 1572TIP3   OH2 4679   1.286   1.953   4.359
 1572TIP3    H1 4680   1.228   2.025   4.334
 1572TIP3    H2 4681   1.369   1.973   4.316
 1573TIP3   OH2 4682   6.980   0.593   1.112
 1573TIP3    H1 4683   7.018   0.507   1.094
 1573TIP3    H2 4684   7.005   0.612   1.202
 1574TIP3   OH2 4685   6.019   1.442   5.273
 1574TIP3    H1 4686   6.108   1.441   5.238
 1574TIP3    H2 4687   6.015   1.365   5.330
 1575TIP3   OH2 4688   0.925   2.580   1.276
 1575TIP3    H1 4689   0.896   2.637   1.347
 1575TIP3    H2 4690   0.930   2.493   1.315
 1576TIP3   OH2 4691   7.019   5.937   4.371
 1576TIP3    H1 4692   7.061   5.877   4.433
 1576TIP3    H2 4693   6.931   5.950   4.407
 1577TIP3   OH2 4694   1.631   0.093   3.823
 1577TIP3    H1 4695   1.711   0.044   3.845
 1577TIP3    H2 4696   1.621   0.155   3.895
 1578TIP3   OH2 4697   6.657   3.987   1.582
 1578TIP3    H1 4698   6.742   3.957   1.613
 1578TIP3    H2 4699   6.596   3.962   1.651
 1579TIP3   OH2 4700   3.917   0.999   5.460
 1579TIP3    H1 4701   3.844   0.941   5.481
 1579TIP3    H2 4702   3.922   0.997   5.364
 1580TIP3   OH2 4703   5.087   4.910   1.550
 1580TIP3    H1 4704   5.099   4.977   1.617
 1580TIP3    H2 4705   4.995   4.915   1.526
 1581TIP3   OH2 4706   5.743   0.842   5.698
 1581TIP3    H1 4707   5.813   0.906   5.683
 1581TIP3    H2 4708   5.728   0.802   5.613
 1582TIP3   OH2 4709   1.647   4.187   1.688
 1582TIP3    H1 4710   1.661   4.192   1.782
 1582TIP3    H2 4711   1.659   4.094   1.667
 1583TIP3   OH2 4712   4.929   5.272   1.222
 1583TIP3    H1 4713   4.921   5.249   1.315
 1583TIP3    H2 4714   5.023   5.273   1.206
 1584TIP3   OH2 4715   6.015   6.327   3.012
 1584TIP3    H1 4716   6.063   6.397   3.056
 1584TIP3    H2 4717   6.077   6.254   3.008
 1585TIP3   OH2 4718   0.081   5.445   2.950
 1585TIP3    H1 4719  -0.013   5.457   2.938
 1585TIP3    H2 4720   0.103   5.505   3.022
 1586TIP3   OH2 4721   6.221   6.117   2.422
 1586TIP3    H1 4722   6.188   6.053   2.358
 1586TIP3    H2 4723   6.227   6.068   2.504
 1587TIP3   OH2 4724   7.086   3.385   3.572
 1587TIP3    H1 4725   7.057   3.368   3.662
 1587TIP3    H2 4726   7.054   3.473   3.553
 1588TIP3   OH2 4727   5.064   6.031   2.773
 1588TIP3    H1 4728   5.104   6.094   2.712
 1588TIP3    H2 4729   4.979   6.070   2.795
 1589TIP3   OH2 4730   0.313   6.612   0.265
 1589TIP3    H1 4731   0.270   6.599   0.350
 1589TIP3    H2 4732   0.405   6.594   0.282
 1590TIP3   OH2 4733   5.261   0.834   5.674
 1590TIP3    H1 4734   5.224   0.889   5.605
 1590TIP3    H2 4735   5.299   0.759   5.627
 1591TIP3   OH2 4736   4.899   5.854   2.982
 1591TIP3    H1 4737   4.909   5.760   2.993
 1591TIP3    H2 4738   4.986   5.890   3.002
 1592TIP3   OH2 4739   5.013   0.137   0.620
 1592TIP3    H1 4740   4.967   0.215   0.649
 1592TIP3    H2 4741   5.099   0.169   0.593
 1593TIP3   OH2 4742   2.884   5.834   0.036
 1593TIP3    H1 4743   2.900   5.767   0.102
 1593TIP3    H2 4744   2.793   5.820   0.009
 1594TIP3   OH2 4745   6.939   2.035   1.238
 1594TIP3    H1 4746   6.996   2.095   1.190
 1594TIP3    H2 4747   6.951   1.950   1.195
 1595TIP3   OH2 4748   1.290   6.087   2.708
 1595TIP3    H1 4749   1.349   6.152   2.746
 1595TIP3    H2 4750   1.295   6.102   2.614
 1596TIP3   OH2 4751   0.588   3.335   4.299
 1596TIP3    H1 4752   0.499   3.337   4.334
 1596TIP3    H2 4753   0.639   3.286   4.364
 1597TIP3   OH2 4754   5.777   4.869   1.676
 1597TIP3    H1 4755   5.837   4.939   1.702
 1597TIP3    H2 4756   5.822   4.789   1.701
 1598TIP3   OH2 4757   6.446   0.788   0.236
 1598TIP3    H1 4758   6.408   0.830   0.314
 1598TIP3    H2 4759   6.423   0.696   0.246
 1599TIP3   OH2 4760   0.359   3.983   3.288
 1599TIP3    H1 4761   0.413   3.975   3.367
 1599TIP3    H2 4762   0.414   4.033   3.227
 1600TIP3   OH2 4763   1.567   2.046   5.650
 1600TIP3    H1 4764   1.627   1.979   5.618
 1600TIP3    H2 4765   1.554   2.023   5.743
 1601TIP3   OH2 4766   0.076   2.484   4.303
 1601TIP3    H1 4767   0.145   2.538   4.265
 1601TIP3    H2 4768   0.069   2.514   4.394
 1602TIP3   OH2 4769   2.098   5.187   0.031
 1602TIP3    H1 4770   2.179   5.234   0.011
 1602TIP3    H2 4771   2.029   5.251   0.017
 1603TIP3   OH2 4772   6.735   3.982   5.832
 1603TIP3    H1 4773   6.768   3.920   5.767
 1603TIP3    H2 4774   6.792   3.971   5.908
 1604TIP3   OH2 4775   4.297   2.958   4.495
 1604TIP3    H1 4776   4.282   2.895   4.424
 1604TIP3    H2 4777   4.375   2.925   4.540
 1605TIP3   OH2 4778   0.846   5.221   5.830
 1605TIP3    H1 4779   0.867   5.264   5.747
 1605TIP3    H2 4780   0.922   5.237   5.885
 1606TIP3   OH2 4781   3.763   1.868   1.798
 1606TIP3    H1 4782   3.761   1.824   1.713
 1606TIP3    H2 4783   3.715   1.949   1.783
 1607TIP3   OH2 4784   0.850   4.874   1.066
 1607TIP3    H1 4785   0.940   4.853   1.044
 1607TIP3    H2 4786   0.829   4.816   1.139
 1608TIP3   OH2 4787   6.233   4.364   2.415
 1608TIP3    H1 4788   6.212   4.272   2.432
 1608TIP3    H2 4789   6.220   4.375   2.320
 1609TIP3   OH2 4790   3.578   2.675   0.165
 1609TIP3    H1 4791   3.613   2.708   0.081
 1609TIP3    H2 4792   3.509   2.737   0.188
 1610TIP3   OH2 4793   2.274   4.381   2.235
 1610TIP3    H1 4794   2.323   4.337   2.165
 1610TIP3    H2 4795   2.304   4.340   2.315
 1611TIP3   OH2 4796   3.289   1.766   0.261
 1611TIP3    H1 4797   3.335   1.818   0.195
 1611TIP3    H2 4798   3.356   1.741   0.324
 1612TIP3   OH2 4799   5.316   2.452   5.452
 1612TIP3    H1 4800   5.255   2.436   5.380
 1612TIP3    H2 4801   5.393   2.491   5.409
 1613TIP3   OH2 4802   0.487   0.635   2.400
 1613TIP3    H1 4803   0.434   0.593   2.467
 1613TIP3    H2 4804   0.570   0.587   2.401
 1614TIP3   OH2 4805   0.039   2.005   1.657
 1614TIP3    H1 4806  -0.021   1.950   1.607
 1614TIP3    H2 4807  -0.017   2.052   1.718
 1615TIP3   OH2 4808   2.236   0.719   2.808
 1615TIP3    H1 4809   2.156   0.673   2.782
 1615TIP3    H2 4810   2.240   0.794   2.749
 1616TIP3   OH2 4811   0.975   0.896   0.426
 1616TIP3    H1 4812   0.915   0.968   0.405
 1616TIP3    H2 4813   1.062   0.934   0.417
 1617TIP3   OH2 4814   4.864   1.032   2.574
 1617TIP3    H1 4815   4.870   0.964   2.506
 1617TIP3    H2 4816   4.848   0.984   2.655
 1618TIP3   OH2 4817   5.643   3.574   2.958
 1618TIP3    H1 4818   5.714   3.639   2.963
 1618TIP3    H2 4819   5.563   3.624   2.973
 1619TIP3   OH2 4820   1.657   5.401   4.124
 1619TIP3    H1 4821   1.731   5.412   4.064
 1619TIP3    H2 4822   1.588   5.456   4.088
 1620TIP3   OH2 4823   0.801   1.963   5.044
 1620TIP3    H1 4824   0.769   1.968   4.954
 1620TIP3    H2 4825   0.834   2.050   5.063
 1621TIP3   OH2 4826   5.009   1.747   4.035
 1621TIP3    H1 4827   4.946   1.816   4.015
 1621TIP3    H2 4828   5.048   1.725   3.951
 1622TIP3   OH2 4829   3.850   3.729   1.913
 1622TIP3    H1 4830   3.808   3.814   1.922
 1622TIP3    H2 4831   3.924   3.732   1.974
 1623TIP3   OH2 4832   4.188   4.111   4.882
 1623TIP3    H1 4833   4.175   4.029   4.931
 1623TIP3    H2 4834   4.244   4.164   4.938
 1624TIP3   OH2 4835   4.707   1.432   4.168
 1624TIP3    H1 4836   4.629   1.468   4.125
 1624TIP3    H2 4837   4.673   1.379   4.240
 1625TIP3   OH2 4838   3.792   4.010   0.492
 1625TIP3    H1 4839   3.818   4.100   0.511
 1625TIP3    H2 4840   3.742   3.983   0.568
 1626TIP3   OH2 4841   2.018   0.208   1.069
 1626TIP3    H1 4842   1.977   0.173   1.148
 1626TIP3    H2 4843   2.070   0.135   1.035
 1627TIP3   OH2 4844   1.442   2.845   1.279
 1627TIP3    H1 4845   1.488   2.924   1.309
 1627TIP3    H2 4846   1.356   2.877   1.251
 1628TIP3   OH2 4847   4.379   4.529   3.276
 1628TIP3    H1 4848   4.402   4.599   3.338
 1628TIP3    H2 4849   4.341   4.575   3.202
 1629TIP3   OH2 4850   0.682   0.063   2.677
 1629TIP3    H1 4851   0.633   0.134   2.719
 1629TIP3    H2 4852   0.719   0.104   2.598
 1630TIP3   OH2 4853   5.986   2.780   4.480
 1630TIP3    H1 4854   6.014   2.828   4.402
 1630TIP3    H2 4855   5.990   2.688   4.453
 1631TIP3   OH2 4856   5.191   3.992   0.603
 1631TIP3    H1 4857   5.124   4.050   0.638
 1631TIP3    H2 4858   5.142   3.924   0.556
 1632TIP3   OH2 4859   5.801   1.537   2.111
 1632TIP3    H1 4860   5.766   1.482   2.181
 1632TIP3    H2 4861   5.842   1.611   2.158
 1633TIP3   OH2 4862   4.023   5.828   1.890
 1633TIP3    H1 4863   4.076   5.892   1.938
 1633TIP3    H2 4864   4.060   5.829   1.802
 1634TIP3   OH2 4865   1.490   3.282   5.184
 1634TIP3    H1 4866   1.456   3.262   5.097
 1634TIP3    H2 4867   1.575   3.322   5.167
 1635TIP3   OH2 4868   6.602   6.208   3.844
 1635TIP3    H1 4869   6.545   6.168   3.910
 1635TIP3    H2 4870   6.633   6.134   3.791
 1636TIP3   OH2 4871   7.087   1.155   2.967
 1636TIP3    H1 4872   7.029   1.146   2.891
 1636TIP3    H2 4873   7.047   1.224   3.019
 1637TIP3   OH2 4874   2.756   3.774   2.667
 1637TIP3    H1 4875   2.727   3.849   2.615
 1637TIP3    H2 4876   2.679   3.749   2.718
 1638TIP3   OH2 4877   1.729   0.381   0.144
 1638TIP3    H1 4878   1.803   0.428   0.108
 1638TIP3    H2 4879   1.722   0.302   0.090
 1639TIP3   OH2 4880   3.468   0.870   2.573
 1639TIP3    H1 4881   3.424   0.951   2.598
 1639TIP3    H2 4882   3.419   0.801   2.618
 1640TIP3   OH2 4883   3.938   0.735   2.230
 1640TIP3    H1 4884   3.908   0.680   2.303
 1640TIP3    H2 4885   4.027   0.705   2.212
 1641TIP3   OH2 4886   6.116   0.876   5.010
 1641TIP3    H1 4887   6.139   0.793   4.969
 1641TIP3    H2 4888   6.030   0.898   4.974
 1642TIP3   OH2 4889   0.994   0.841   4.361
 1642TIP3    H1 4890   0.959   0.836   4.450
 1642TIP3    H2 4891   0.916   0.851   4.305
 1643TIP3   OH2 4892   6.514   1.634   2.609
 1643TIP3    H1 4893   6.518   1.680   2.525
 1643TIP3    H2 4894   6.535   1.543   2.587
 1644TIP3   OH2 4895   3.725   6.579   1.042
 1644TIP3    H1 4896   3.805   6.531   1.023
 1644TIP3    H2 4897   3.753   6.669   1.056
 1645TIP3   OH2 4898   1.296   4.490   3.258
 1645TIP3    H1 4899   1.264   4.400   3.263
 1645TIP3    H2 4900   1.340   4.496   3.173
 1646TIP3   OH2 4901   3.965   1.679   5.047
 1646TIP3    H1 4902   3.941   1.608   5.107
 1646TIP3    H2 4903   4.035   1.726   5.092
 1647TIP3   OH2 4904   2.901   0.165   2.623
 1647TIP3    H1 4905   2.868   0.206   2.703
 1647TIP3    H2 4906   2.988   0.204   2.610
 1648TIP3   OH2 4907   4.659   1.009   4.652
 1648TIP3    H1 4908   4.632   0.978   4.739
 1648TIP3    H2 4909   4.577   1.035   4.610
 1649TIP3   OH2 4910   6.351   2.138   0.614
 1649TIP3    H1 4911   6.271   2.088   0.598
 1649TIP3    H2 4912   6.411   2.109   0.545
 1650TIP3   OH2 4913   1.328   2.860   0.590
 1650TIP3    H1 4914   1.289   2.793   0.535
 1650TIP3    H2 4915   1.419   2.865   0.561
 1651TIP3   OH2 4916   6.458   3.705   4.563
 1651TIP3    H1 4917   6.388   3.733   4.622
 1651TIP3    H2 4918   6.505   3.786   4.542
 1652TIP3   OH2 4919   0.086   5.294   4.756
 1652TIP3    H1 4920   0.141   5.288   4.679
 1652TIP3    H2 4921   0.125   5.365   4.808
 1653TIP3   OH2 4922   3.430   1.553   5.814
 1653TIP3    H1 4923   3.464   1.627   5.763
 1653TIP3    H2 4924   3.357   1.590   5.864
 1654TIP3   OH2 4925   6.565   5.938   4.666
 1654TIP3    H1 4926   6.521   5.946   4.582
 1654TIP3    H2 4927   6.657   5.921   4.644
 1655TIP3   OH2 4928   4.944   4.817   3.792
 1655TIP3    H1 4929   4.876   4.751   3.806
 1655TIP3    H2 4930   4.942   4.835   3.698
 1656TIP3   OH2 4931   3.341   0.302   3.360
 1656TIP3    H1 4932   3.270   0.307   3.297
 1656TIP3    H2 4933   3.421   0.306   3.307
 1657TIP3   OH2 4934   3.785   0.996   4.254
 1657TIP3    H1 4935   3.785   0.967   4.162
 1657TIP3    H2 4936   3.730   1.074   4.254
 1658TIP3   OH2 4937   3.845   3.059   4.919
 1658TIP3    H1 4938   3.908   3.025   4.856
 1658TIP3    H2 4939   3.773   3.092   4.865
 1659TIP3   OH2 4940   5.415   1.614   0.427
 1659TIP3    H1 4941   5.407   1.641   0.519
 1659TIP3    H2 4942   5.393   1.521   0.427
 1660TIP3   OH2 4943   0.456   3.635   2.789
 1660TIP3    H1 4944   0.489   3.545   2.791
 1660TIP3    H2 4945   0.523   3.684   2.741
 1661TIP3   OH2 4946   1.166   1.802   1.557
 1661TIP3    H1 4947   1.223   1.826   1.483
 1661TIP3    H2 4948   1.098   1.869   1.558
 1662TIP3   OH2 4949   0.111   4.800   0.842
 1662TIP3    H1 4950   0.155   4.883   0.827
 1662TIP3    H2 4951   0.018   4.823   0.850
 1663TIP3   OH2 4952   0.851   0.064   1.955
 1663TIP3    H1 4953   0.819   0.019   1.877
 1663TIP3    H2 4954   0.940   0.091   1.932
 1664TIP3   OH2 4955   3.578   3.090   2.473
 1664TIP3    H1 4956   3.602   3.148   2.545
 1664TIP3    H2 4957   3.542   3.012   2.516
 1665TIP3   OH2 4958   6.635   2.942   3.850
 1665TIP3    H1 4959   6.671   2.921   3.764
 1665TIP3    H2 4960   6.561   3.000   3.831
 1666TIP3   OH2 4961   1.279   3.469   2.557
 1666TIP3    H1 4962   1.314   3.522   2.629
 1666TIP3    H2 4963   1.202   3.426   2.594
 1667TIP3   OH2 4964   6.120   4.226  -0.056
 1667TIP3    H1 4965   6.066   4.281   0.001
 1667TIP3    H2 4966   6.113   4.138  -0.018
 1668TIP3   OH2 4967   5.986   5.331   3.918
 1668TIP3    H1 4968   6.012   5.271   3.987
 1668TIP3    H2 4969   6.047   5.312   3.846
 1669TIP3   OH2 4970   2.313   2.416   0.967
 1669TIP3    H1 4971   2.241   2.455   0.918
 1669TIP3    H2 4972   2.285   2.418   1.058
 1670TIP3   OH2 4973   5.655   2.325   4.563
 1670TIP3    H1 4974   5.572   2.289   4.594
 1670TIP3    H2 4975   5.685   2.382   4.634
 1671TIP3   OH2 4976   6.573   4.601   3.901
 1671TIP3    H1 4977   6.480   4.625   3.898
 1671TIP3    H2 4978   6.616   4.679   3.936
 1672TIP3   OH2 4979   0.826   4.422   1.366
 1672TIP3    H1 4980   0.916   4.412   1.335
 1672TIP3    H2 4981   0.773   4.375   1.301
 1673TIP3   OH2 4982   2.445   5.030   2.866
 1673TIP3    H1 4983   2.486   4.961   2.919
 1673TIP3    H2 4984   2.493   5.028   2.783
 1674TIP3   OH2 4985   1.234   3.866   3.972
 1674TIP3    H1 4986   1.268   3.863   3.883
 1674TIP3    H2 4987   1.159   3.806   3.971
 1675TIP3   OH2 4988   3.727   5.878   4.346
 1675TIP3    H1 4989   3.708   5.801   4.399
 1675TIP3    H2 4990   3.747   5.843   4.259
 1676TIP3   OH2 4991   2.594   4.960   2.159
 1676TIP3    H1 4992   2.510   5.001   2.139
 1676TIP3    H2 4993   2.655   4.998   2.095
 1677TIP3   OH2 4994   6.065   1.543   4.778
 1677TIP3    H1 4995   5.971   1.538   4.792
 1677TIP3    H2 4996   6.076   1.609   4.710
 1678TIP3   OH2 4997   3.819   1.868   3.397
 1678TIP3    H1 4998   3.845   1.783   3.360
 1678TIP3    H2 4999   3.900   1.918   3.402
 1679TIP3   OH2 5000   2.917   2.411   3.069
 1679TIP3    H1 5001   2.987   2.468   3.099
 1679TIP3    H2 5002   2.929   2.329   3.118
 1680TIP3   OH2 5003   0.547   2.585   4.354
 1680TIP3    H1 5004   0.461   2.627   4.362
 1680TIP3    H2 5005   0.585   2.622   4.275
 1681TIP3   OH2 5006   3.784   6.772   1.855
 1681TIP3    H1 5007   3.788   6.839   1.786
 1681TIP3    H2 5008   3.871   6.733   1.855
 1682TIP3   OH2 5009   6.300   0.586   0.362
 1682TIP3    H1 5010   6.315   0.644   0.437
 1682TIP3    H2 5011   6.235   0.523   0.394
 1683TIP3   OH2 5012   5.112   2.445   5.787
 1683TIP3    H1 5013   5.117   2.352   5.767
 1683TIP3    H2 5014   5.134   2.451   5.880
 1684TIP3   OH2 5015   0.284   1.110   4.970
 1684TIP3    H1 5016   0.352   1.065   4.921
 1684TIP3    H2 5017   0.296   1.203   4.948
 1685TIP3   OH2 5018   0.540   2.164   2.426
 1685TIP3    H1 5019   0.634   2.174   2.409
 1685TIP3    H2 5020   0.521   2.230   2.493
 1686TIP3   OH2 5021   6.084   2.853   2.286
 1686TIP3    H1 5022   6.053   2.791   2.221
 1686TIP3    H2 5023   6.005   2.903   2.310
 1687TIP3   OH2 5024   6.309   6.500   3.435
 1687TIP3    H1 5025   6.383   6.481   3.492
 1687TIP3    H2 5026   6.275   6.414   3.410
 1688TIP3   OH2 5027   5.323   2.380   2.209
 1688TIP3    H1 5028   5.329   2.294   2.167
 1688TIP3    H2 5029   5.353   2.365   2.299
 1689TIP3   OH2 5030   3.527   1.703   2.311
 1689TIP3    H1 5031   3.514   1.798   2.304
 1689TIP3    H2 5032   3.500   1.682   2.400
 1690TIP3   OH2 5033   5.331   1.025   2.757
 1690TIP3    H1 5034   5.256   0.998   2.703
 1690TIP3    H2 5035   5.305   1.111   2.791
 1691TIP3   OH2 5036   6.586   3.566   2.489
 1691TIP3    H1 5037   6.652   3.550   2.421
 1691TIP3    H2 5038   6.557   3.479   2.516
 1692TIP3   OH2 5039   5.132   0.211   4.583
 1692TIP3    H1 5040   5.137   0.199   4.678
 1692TIP3    H2 5041   5.223   0.204   4.553
 1693TIP3   OH2 5042   0.342   0.847   0.823
 1693TIP3    H1 5043   0.330   0.789   0.747
 1693TIP3    H2 5044   0.350   0.787   0.897
 1694TIP3   OH2 5045   0.925   5.494   0.962
 1694TIP3    H1 5046   0.990   5.424   0.964
 1694TIP3    H2 5047   0.950   5.548   0.887
 1695TIP3   OH2 5048   3.718   6.390   3.921
 1695TIP3    H1 5049   3.696   6.458   3.858
 1695TIP3    H2 5050   3.803   6.417   3.957
 1696TIP3   OH2 5051   6.668   3.994   4.518
 1696TIP3    H1 5052   6.625   4.014   4.435
 1696TIP3    H2 5053   6.761   4.000   4.499
 1697TIP3   OH2 5054   4.251   5.200   5.050
 1697TIP3    H1 5055   4.293   5.234   5.129
 1697TIP3    H2 5056   4.186   5.138   5.083
 1698TIP3   OH2 5057   7.100   5.648   3.329
 1698TIP3    H1 5058   7.066   5.714   3.391
 1698TIP3    H2 5059   7.044   5.657   3.252
 1699TIP3   OH2 5060   5.326   6.620   2.043
 1699TIP3    H1 5061   5.414   6.638   2.077
 1699TIP3    H2 5062   5.268   6.674   2.096
 1700TIP3   OH2 5063   2.353   3.894   1.331
 1700TIP3    H1 5064   2.282   3.957   1.319
 1700TIP3    H2 5065   2.432   3.942   1.306
 1701TIP3   OH2 5066   0.585   0.686   5.878
 1701TIP3    H1 5067   0.631   0.716   5.956
 1701TIP3    H2 5068   0.521   0.756   5.860
 1702TIP3   OH2 5069   5.151   4.899   0.285
 1702TIP3    H1 5070   5.182   4.842   0.214
 1702TIP3    H2 5071   5.084   4.954   0.243
 1703TIP3   OH2 5072   4.317   2.602   5.533
 1703TIP3    H1 5073   4.298   2.539   5.602
 1703TIP3    H2 5074   4.348   2.680   5.580
 1704TIP3   OH2 5075   6.084   2.274   3.126
 1704TIP3    H1 5076   6.031   2.230   3.193
 1704TIP3    H2 5077   6.149   2.323   3.176
 1705TIP3   OH2 5078   1.565   0.145   5.552
 1705TIP3    H1 5079   1.579   0.221   5.609
 1705TIP3    H2 5080   1.609   0.073   5.597
 1706TIP3   OH2 5081   3.693   1.912   5.528
 1706TIP3    H1 5082   3.712   1.950   5.443
 1706TIP3    H2 5083   3.777   1.883   5.562
 1707TIP3   OH2 5084  -0.024   3.309   0.069
 1707TIP3    H1 5085   0.058   3.283   0.111
 1707TIP3    H2 5086  -0.019   3.269  -0.018
 1708TIP3   OH2 5087   0.365   4.844   5.304
 1708TIP3    H1 5088   0.316   4.768   5.272
 1708TIP3    H2 5089   0.455   4.828   5.273
 1709TIP3   OH2 5090   4.663   3.976   3.073
 1709TIP3    H1 5091   4.599   3.914   3.037
 1709TIP3    H2 5092   4.619   4.015   3.148
 1710TIP3   OH2 5093   4.448   5.729   5.865
 1710TIP3    H1 5094   4.356   5.748   5.884
 1710TIP3    H2 5095   4.444   5.664   5.794
 1711TIP3   OH2 5096  -0.021   1.591   1.152
 1711TIP3    H1 5097   0.017   1.525   1.095
 1711TIP3    H2 5098   0.047   1.610   1.216
 1712TIP3   OH2 5099   3.105   2.492   2.732
 1712TIP3    H1 5100   3.059   2.410   2.754
 1712TIP3    H2 5101   3.121   2.484   2.638
 1713TIP3   OH2 5102   2.512   6.416   1.303
 1713TIP3    H1 5103   2.577   6.419   1.374
 1713TIP3    H2 5104   2.431   6.448   1.342
 1714TIP3   OH2 5105   2.448   3.402   1.796
 1714TIP3    H1 5106   2.456   3.367   1.707
 1714TIP3    H2 5107   2.355   3.395   1.816
 1715TIP3   OH2 5108   4.221   1.850   4.092
 1715TIP3    H1 5109   4.145   1.793   4.091
 1715TIP3    H2 5110   4.248   1.853   4.184
 1716TIP3   OH2 5111   1.713   2.718   3.978
 1716TIP3    H1 5112   1.755   2.765   4.050
 1716TIP3    H2 5113   1.780   2.716   3.909
 1717TIP3   OH2 5114   6.612   1.401   2.491
 1717TIP3    H1 5115   6.596   1.322   2.440
 1717TIP3    H2 5116   6.689   1.440   2.451
 1718TIP3   OH2 5117   5.627   4.441   1.371
 1718TIP3    H1 5118   5.585   4.424   1.286
 1718TIP3    H2 5119   5.712   4.480   1.347
 1719TIP3   OH2 5120   3.687   5.719   0.923
 1719TIP3    H1 5121   3.717   5.804   0.954
 1719TIP3    H2 5122   3.768   5.672   0.901
 1720TIP3   OH2 5123   0.188   0.056   4.975
 1720TIP3    H1 5124   0.117   0.087   5.032
 1720TIP3    H2 5125   0.145   0.007   4.906
 1721TIP3   OH2 5126   2.372   6.674   3.391
 1721TIP3    H1 5127   2.362   6.582   3.366
 1721TIP3    H2 5128   2.464   6.694   3.373
 1722TIP3   OH2 5129   6.715   2.244   3.993
 1722TIP3    H1 5130   6.647   2.223   4.057
 1722TIP3    H2 5131   6.789   2.275   4.045
 1723TIP3   OH2 5132   3.868   5.277   3.240
 1723TIP3    H1 5133   3.871   5.252   3.148
 1723TIP3    H2 5134   3.960   5.294   3.263
 1724TIP3   OH2 5135   4.682   1.751   4.668
 1724TIP3    H1 5136   4.650   1.828   4.713
 1724TIP3    H2 5137   4.777   1.751   4.682
 1725TIP3   OH2 5138   6.024   0.704   1.787
 1725TIP3    H1 5139   6.009   0.650   1.710
 1725TIP3    H2 5140   6.078   0.777   1.756
 1726TIP3   OH2 5141   3.490   0.786   4.194
 1726TIP3    H1 5142   3.397   0.794   4.174
 1726TIP3    H2 5143   3.503   0.842   4.270
 1727TIP3   OH2 5144   6.553   0.302   1.217
 1727TIP3    H1 5145   6.646   0.301   1.239
 1727TIP3    H2 5146   6.533   0.212   1.192
 1728TIP3   OH2 5147   4.820   3.440   4.124
 1728TIP3    H1 5148   4.888   3.405   4.066
 1728TIP3    H2 5149   4.791   3.520   4.081
 1729TIP3   OH2 5150   5.449   6.241   3.000
 1729TIP3    H1 5151   5.537   6.271   3.025
 1729TIP3    H2 5152   5.450   6.239   2.905
 1730TIP3   OH2 5153   0.604   3.488   2.272
 1730TIP3    H1 5154   0.580   3.449   2.356
 1730TIP3    H2 5155   0.538   3.454   2.211
 1731TIP3   OH2 5156   4.687   1.971   1.015
 1731TIP3    H1 5157   4.697   2.062   1.045
 1731TIP3    H2 5158   4.775   1.946   0.987
 1732TIP3   OH2 5159   3.777   1.128   0.690
 1732TIP3    H1 5160   3.813   1.214   0.666
 1732TIP3    H2 5161   3.682   1.140   0.686
 1733TIP3   OH2 5162   0.559   4.151   5.414
 1733TIP3    H1 5163   0.650   4.179   5.407
 1733TIP3    H2 5164   0.548   4.089   5.342
 1734TIP3   OH2 5165   6.265   2.422   5.065
 1734TIP3    H1 5166   6.333   2.488   5.053
 1734TIP3    H2 5167   6.286   2.354   5.002
 1735TIP3   OH2 5168   6.583   4.531   5.231
 1735TIP3    H1 5169   6.620   4.443   5.224
 1735TIP3    H2 5170   6.619   4.565   5.312
 1736TIP3   OH2 5171   6.775   6.323   5.819
 1736TIP3    H1 5172   6.788   6.366   5.735
 1736TIP3    H2 5173   6.799   6.231   5.803
 1737TIP3   OH2 5174   0.158   6.576   2.502
 1737TIP3    H1 5175   0.171   6.632   2.578
 1737TIP3    H2 5176   0.091   6.621   2.451
 1738TIP3   OH2 5177   3.881   5.954   5.109
 1738TIP3    H1 5178   3.932   6.034   5.092
 1738TIP3    H2 5179   3.810   5.982   5.167
 1739TIP3   OH2 5180   3.212   1.201   0.551
 1739TIP3    H1 5181   3.221   1.166   0.639
 1739TIP3    H2 5182   3.128   1.168   0.520
 1740TIP3   OH2 5183   6.647   6.197   4.388
 1740TIP3    H1 5184   6.665   6.105   4.369
 1740TIP3    H2 5185   6.709   6.245   4.333
 1741TIP3   OH2 5186   5.132   0.475   4.496
 1741TIP3    H1 5187   5.128   0.461   4.401
 1741TIP3    H2 5188   5.128   0.387   4.534
 1742TIP3   OH2 5189   1.796   1.276   3.750
 1742TIP3    H1 5190   1.769   1.217   3.820
 1742TIP3    H2 5191   1.813   1.218   3.675
 1743TIP3   OH2 5192   0.802   1.831   1.767
 1743TIP3    H1 5193   0.847   1.872   1.694
 1743TIP3    H2 5194   0.759   1.904   1.813
 1744TIP3   OH2 5195   2.059   5.596   0.672
 1744TIP3    H1 5196   1.986   5.652   0.645
 1744TIP3    H2 5197   2.023   5.507   0.670
 1745TIP3   OH2 5198   2.932   3.414   0.369
 1745TIP3    H1 5199   3.004   3.446   0.316
 1745TIP3    H2 5200   2.901   3.336   0.323
 1746TIP3   OH2 5201   2.377   3.820   0.422
 1746TIP3    H1 5202   2.460   3.810   0.469
 1746TIP3    H2 5203   2.316   3.764   0.470
 1747TIP3   OH2 5204   0.676   3.411   1.565
 1747TIP3    H1 5205   0.683   3.441   1.475
 1747TIP3    H2 5206   0.657   3.318   1.558
 1748TIP3   OH2 5207   5.448   0.294   3.617
 1748TIP3    H1 5208   5.440   0.279   3.523
 1748TIP3    H2 5209   5.420   0.384   3.629
 1749TIP3   OH2 5210   1.887   4.379   2.008
 1749TIP3    H1 5211   1.963   4.323   2.023
 1749TIP3    H2 5212   1.856   4.355   1.921
 1750TIP3   OH2 5213   4.807   0.452   2.240
 1750TIP3    H1 5214   4.840   0.362   2.245
 1750TIP3    H2 5215   4.865   0.502   2.297
 1751TIP3   OH2 5216   1.911   2.903   0.072
 1751TIP3    H1 5217   1.939   2.917  -0.019
 1751TIP3    H2 5218   1.855   2.825   0.068
 1752TIP3   OH2 5219   6.368   6.362   0.776
 1752TIP3    H1 5220   6.367   6.276   0.735
 1752TIP3    H2 5221   6.284   6.369   0.821
 1753TIP3   OH2 5222   2.471   2.562   4.428
 1753TIP3    H1 5223   2.412   2.534   4.498
 1753TIP3    H2 5224   2.438   2.518   4.349
 1754TIP3   OH2 5225   4.705   4.242   5.049
 1754TIP3    H1 5226   4.718   4.315   4.988
 1754TIP3    H2 5227   4.793   4.219   5.078
 1755TIP3   OH2 5228   7.013   0.215   1.448
 1755TIP3    H1 5229   7.093   0.257   1.477
 1755TIP3    H2 5230   7.003   0.140   1.508
 1756TIP3   OH2 5231   5.979   4.573   1.073
 1756TIP3    H1 5232   5.914   4.640   1.092
 1756TIP3    H2 5233   5.945   4.494   1.114
 1757TIP3   OH2 5234   2.912   5.303   1.389
 1757TIP3    H1 5235   2.915   5.210   1.368
 1757TIP3    H2 5236   2.844   5.339   1.332
 1758TIP3   OH2 5237   5.001   1.904   0.151
 1758TIP3    H1 5238   5.064   1.975   0.141
 1758TIP3    H2 5239   5.001   1.884   0.244
 1759TIP3   OH2 5240   6.696   6.040   2.502
 1759TIP3    H1 5241   6.626   6.022   2.439
 1759TIP3    H2 5242   6.658   6.103   2.563
 1760TIP3   OH2 5243   0.848   5.208   2.401
 1760TIP3    H1 5244   0.869   5.211   2.494
 1760TIP3    H2 5245   0.784   5.278   2.388
 1761TIP3   OH2 5246   7.011   5.517   4.312
 1761TIP3    H1 5247   7.002   5.452   4.383
 1761TIP3    H2 5248   7.059   5.471   4.244
 1762TIP3   OH2 5249   4.250   0.364   1.256
 1762TIP3    H1 5250   4.330   0.345   1.304
 1762TIP3    H2 5251   4.275   0.360   1.164
 1763TIP3   OH2 5252   1.174   4.668   0.072
 1763TIP3    H1 5253   1.084   4.639   0.088
 1763TIP3    H2 5254   1.176   4.689  -0.022
 1764TIP3   OH2 5255   1.908   4.742   4.215
 1764TIP3    H1 5256   1.871   4.816   4.264
 1764TIP3    H2 5257   1.943   4.684   4.283
 1765TIP3   OH2 5258   4.788   0.044   4.213
 1765TIP3    H1 5259   4.858   0.052   4.148
 1765TIP3    H2 5260   4.816   0.099   4.286
 1766TIP3   OH2 5261   0.898   3.346   4.336
 1766TIP3    H1 5262   0.854   3.270   4.374
 1766TIP3    H2 5263   0.876   3.344   4.243
 1767TIP3   OH2 5264   4.493   3.412   2.998
 1767TIP3    H1 5265   4.566   3.430   2.938
 1767TIP3    H2 5266   4.422   3.467   2.966
 1768TIP3   OH2 5267   0.770   5.880   0.477
 1768TIP3    H1 5268   0.835   5.951   0.474
 1768TIP3    H2 5269   0.703   5.906   0.414
 1769TIP3   OH2 5270   5.181   4.549   4.597
 1769TIP3    H1 5271   5.219   4.614   4.656
 1769TIP3    H2 5272   5.249   4.482   4.588
 1770TIP3   OH2 5273   0.756   6.396   5.838
 1770TIP3    H1 5274   0.705   6.475   5.820
 1770TIP3    H2 5275   0.818   6.390   5.765
 1771TIP3   OH2 5276   0.402   0.416   0.933
 1771TIP3    H1 5277   0.326   0.377   0.888
 1771TIP3    H2 5278   0.442   0.342   0.980
 1772TIP3   OH2 5279   2.857   4.712   5.090
 1772TIP3    H1 5280   2.791   4.644   5.076
 1772TIP3    H2 5281   2.807   4.793   5.100
 1773TIP3   OH2 5282   5.497   1.466   4.680
 1773TIP3    H1 5283   5.431   1.524   4.717
 1773TIP3    H2 5284   5.538   1.424   4.756
 1774TIP3   OH2 5285   4.233   0.641   0.592
 1774TIP3    H1 5286   4.173   0.633   0.666
 1774TIP3    H2 5287   4.317   0.607   0.625
 1775TIP3   OH2 5288   5.302   6.646   1.750
 1775TIP3    H1 5289   5.220   6.681   1.716
 1775TIP3    H2 5290   5.298   6.663   1.844
 1776TIP3   OH2 5291   6.267   2.965   0.606
 1776TIP3    H1 5292   6.181   2.935   0.635
 1776TIP3    H2 5293   6.263   2.962   0.511
 1777TIP3   OH2 5294   3.359   0.871   4.756
 1777TIP3    H1 5295   3.378   0.820   4.834
 1777TIP3    H2 5296   3.437   0.923   4.740
 1778TIP3   OH2 5297   3.444   1.389   4.851
 1778TIP3    H1 5298   3.361   1.348   4.826
 1778TIP3    H2 5299   3.446   1.383   4.946
 1779TIP3   OH2 5300   4.452   4.830   3.112
 1779TIP3    H1 5301   4.468   4.924   3.125
 1779TIP3    H2 5302   4.530   4.800   3.065
 1780TIP3   OH2 5303   1.067   5.568   5.624
 1780TIP3    H1 5304   1.078   5.473   5.612
 1780TIP3    H2 5305   1.046   5.577   5.717
 1781TIP3   OH2 5306   5.915   2.157   3.346
 1781TIP3    H1 5307   5.900   2.072   3.386
 1781TIP3    H2 5308   5.828   2.187   3.319
 1782TIP3   OH2 5309   3.256   4.605   1.473
 1782TIP3    H1 5310   3.303   4.688   1.469
 1782TIP3    H2 5311   3.288   4.556   1.397
 1783TIP3   OH2 5312   5.277   0.912   3.410
 1783TIP3    H1 5313   5.271   0.955   3.496
 1783TIP3    H2 5314   5.215   0.839   3.416
 1784TIP3   OH2 5315   5.531   3.166   1.498
 1784TIP3    H1 5316   5.500   3.095   1.442
 1784TIP3    H2 5317   5.623   3.178   1.474
 1785TIP3   OH2 5318   3.357   6.386   5.034
 1785TIP3    H1 5319   3.326   6.299   5.007
 1785TIP3    H2 5320   3.302   6.447   4.986
 1786TIP3   OH2 5321   3.514   2.454   3.746
 1786TIP3    H1 5322   3.457   2.389   3.705
 1786TIP3    H2 5323   3.581   2.472   3.681
 1787TIP3   OH2 5324   5.426   3.263   4.906
 1787TIP3    H1 5325   5.440   3.184   4.958
 1787TIP3    H2 5326   5.358   3.238   4.843
 1788TIP3   OH2 5327   2.059   0.353   3.372
 1788TIP3    H1 5328   2.105   0.405   3.307
 1788TIP3    H2 5329   2.049   0.411   3.447
 1789TIP3   OH2 5330   4.194   1.167   4.449
 1789TIP3    H1 5331   4.109   1.125   4.441
 1789TIP3    H2 5332   4.176   1.260   4.441
 1790TIP3   OH2 5333   5.784   6.107   3.636
 1790TIP3    H1 5334   5.700   6.065   3.652
 1790TIP3    H2 5335   5.767   6.201   3.646
 1791TIP3   OH2 5336   6.289   5.969   2.903
 1791TIP3    H1 5337   6.345   5.894   2.926
 1791TIP3    H2 5338   6.309   5.986   2.811
 1792TIP3   OH2 5339   1.217   0.593   4.861
 1792TIP3    H1 5340   1.123   0.585   4.875
 1792TIP3    H2 5341   1.229   0.574   4.768
 1793TIP3   OH2 5342   5.302   4.484   5.713
 1793TIP3    H1 5343   5.369   4.447   5.770
 1793TIP3    H2 5344   5.231   4.508   5.773
 1794TIP3   OH2 5345   4.259   2.273   3.654
 1794TIP3    H1 5346   4.331   2.336   3.652
 1794TIP3    H2 5347   4.290   2.198   3.604
 1795TIP3   OH2 5348   6.466   0.565   2.342
 1795TIP3    H1 5349   6.488   0.643   2.291
 1795TIP3    H2 5350   6.520   0.496   2.304
 1796TIP3   OH2 5351   5.721   0.884   3.076
 1796TIP3    H1 5352   5.657   0.931   3.130
 1796TIP3    H2 5353   5.751   0.812   3.131
 1797TIP3   OH2 5354   5.279   5.795   1.299
 1797TIP3    H1 5355   5.346   5.728   1.309
 1797TIP3    H2 5356   5.215   5.756   1.240
 1798TIP3   OH2 5357   5.217   1.904   1.483
 1798TIP3    H1 5358   5.187   1.839   1.546
 1798TIP3    H2 5359   5.297   1.866   1.445
 1799TIP3   OH2 5360   4.108   1.336   3.496
 1799TIP3    H1 5361   4.203   1.348   3.497
 1799TIP3    H2 5362   4.074   1.410   3.547
 1800TIP3   OH2 5363   4.545   1.609   1.478
 1800TIP3    H1 5364   4.528   1.590   1.571
 1800TIP3    H2 5365   4.635   1.581   1.465
 1801TIP3   OH2 5366   5.007   2.114   3.536
 1801TIP3    H1 5367   5.072   2.184   3.525
 1801TIP3    H2 5368   4.934   2.140   3.480
 1802TIP3   OH2 5369   1.304   1.355   5.739
 1802TIP3    H1 5370   1.277   1.318   5.823
 1802TIP3    H2 5371   1.227   1.348   5.684
 1803TIP3   OH2 5372   1.519   3.037   1.650
 1803TIP3    H1 5373   1.517   3.117   1.702
 1803TIP3    H2 5374   1.545   3.066   1.563
 1804TIP3   OH2 5375   1.136   6.757   4.204
 1804TIP3    H1 5376   1.215   6.761   4.257
 1804TIP3    H2 5377   1.124   6.847   4.171
 1805TIP3   OH2 5378   5.099   4.076   1.656
 1805TIP3    H1 5379   5.135   4.132   1.724
 1805TIP3    H2 5380   5.069   4.136   1.588
 1806TIP3   OH2 5381   6.161   6.650   4.831
 1806TIP3    H1 5382   6.068   6.644   4.806
 1806TIP3    H2 5383   6.185   6.561   4.856
 1807TIP3   OH2 5384   2.984   1.489   4.668
 1807TIP3    H1 5385   2.958   1.412   4.718
 1807TIP3    H2 5386   2.970   1.464   4.577
 1808TIP3   OH2 5387   4.616   4.730   2.568
 1808TIP3    H1 5388   4.533   4.777   2.575
 1808TIP3    H2 5389   4.670   4.785   2.511
 1809TIP3   OH2 5390   0.683   4.276   1.949
 1809TIP3    H1 5391   0.729   4.194   1.969
 1809TIP3    H2 5392   0.724   4.341   2.006
 1810TIP3   OH2 5393   6.813   1.289   4.448
 1810TIP3    H1 5394   6.760   1.343   4.389
 1810TIP3    H2 5395   6.767   1.206   4.452
 1811TIP3   OH2 5396   5.670   1.904   0.299
 1811TIP3    H1 5397   5.714   1.900   0.214
 1811TIP3    H2 5398   5.724   1.849   0.356
 1812TIP3   OH2 5399   3.144   2.242   5.878
 1812TIP3    H1 5400   3.204   2.211   5.809
 1812TIP3    H2 5401   3.191   2.228   5.959
 1813TIP3   OH2 5402   3.109   4.667   4.004
 1813TIP3    H1 5403   3.135   4.632   4.090
 1813TIP3    H2 5404   3.121   4.761   4.012
 1814TIP3   OH2 5405   7.089   3.883   1.522
 1814TIP3    H1 5406   7.138   3.814   1.568
 1814TIP3    H2 5407   7.010   3.894   1.574
 1815TIP3   OH2 5408   6.632   3.220   4.635
 1815TIP3    H1 5409   6.669   3.144   4.590
 1815TIP3    H2 5410   6.603   3.186   4.719
 1816TIP3   OH2 5411   2.247   5.179   3.345
 1816TIP3    H1 5412   2.330   5.163   3.389
 1816TIP3    H2 5413   2.271   5.217   3.261
 1817TIP3   OH2 5414   2.300   2.800   0.118
 1817TIP3    H1 5415   2.341   2.784   0.033
 1817TIP3    H2 5416   2.316   2.892   0.136
 1818TIP3   OH2 5417   5.868   5.573   1.323
 1818TIP3    H1 5418   5.960   5.596   1.340
 1818TIP3    H2 5419   5.854   5.598   1.232
 1819TIP3   OH2 5420   6.481   2.836   4.381
 1819TIP3    H1 5421   6.459   2.862   4.471
 1819TIP3    H2 5422   6.503   2.743   4.388
 1820TIP3   OH2 5423   6.202   3.311   3.229
 1820TIP3    H1 5424   6.246   3.396   3.232
 1820TIP3    H2 5425   6.178   3.293   3.320
 1821TIP3   OH2 5426   0.152   4.786   2.382
 1821TIP3    H1 5427   0.200   4.707   2.406
 1821TIP3    H2 5428   0.150   4.838   2.463
 1822TIP3   OH2 5429   5.968   1.535   1.427
 1822TIP3    H1 5430   6.060   1.526   1.452
 1822TIP3    H2 5431   5.969   1.594   1.352
 1823TIP3   OH2 5432   3.323   6.360   3.384
 1823TIP3    H1 5433   3.324   6.413   3.305
 1823TIP3    H2 5434   3.312   6.270   3.352
 1824TIP3   OH2 5435   4.292   3.612   3.355
 1824TIP3    H1 5436   4.249   3.611   3.441
 1824TIP3    H2 5437   4.358   3.543   3.361
 1825TIP3   OH2 5438   4.070   5.486   3.959
 1825TIP3    H1 5439   4.142   5.548   3.971
 1825TIP3    H2 5440   4.040   5.467   4.048
 1826TIP3   OH2 5441   5.461   5.048   5.665
 1826TIP3    H1 5442   5.520   5.024   5.593
 1826TIP3    H2 5443   5.391   4.983   5.662
 1827TIP3   OH2 5444   7.105   6.263   4.415
 1827TIP3    H1 5445   7.164   6.187   4.406
 1827TIP3    H2 5446   7.067   6.275   4.328
 1828TIP3   OH2 5447   4.949   3.092   1.266
 1828TIP3    H1 5448   4.969   3.147   1.342
 1828TIP3    H2 5449   4.881   3.033   1.297
 1829TIP3   OH2 5450   6.654   4.272   3.774
 1829TIP3    H1 5451   6.638   4.180   3.794
 1829TIP3    H2 5452   6.727   4.297   3.832
 1830TIP3   OH2 5453   1.681   3.492   5.012
 1830TIP3    H1 5454   1.733   3.545   5.071
 1830TIP3    H2 5455   1.617   3.553   4.975
 1831TIP3   OH2 5456   4.590   4.703   2.894
 1831TIP3    H1 5457   4.535   4.713   2.817
 1831TIP3    H2 5458   4.662   4.647   2.866
 1832TIP3   OH2 5459   1.292   3.713   1.953
 1832TIP3    H1 5460   1.333   3.796   1.978
 1832TIP3    H2 5461   1.342   3.683   1.878
 1833TIP3   OH2 5462   3.859   4.663   5.031
 1833TIP3    H1 5463   3.806   4.601   4.980
 1833TIP3    H2 5464   3.921   4.699   4.968
 1834TIP3   OH2 5465   6.063   4.344   0.442
 1834TIP3    H1 5466   6.062   4.360   0.537
 1834TIP3    H2 5467   6.062   4.249   0.434
 1835TIP3   OH2 5468   3.658   2.718   5.633
 1835TIP3    H1 5469   3.744   2.732   5.594
 1835TIP3    H2 5470   3.662   2.761   5.718
 1836TIP3   OH2 5471   4.318   6.169   4.721
 1836TIP3    H1 5472   4.298   6.093   4.775
 1836TIP3    H2 5473   4.411   6.187   4.740
 1837TIP3   OH2 5474   7.028   0.465   0.295
 1837TIP3    H1 5475   6.980   0.514   0.362
 1837TIP3    H2 5476   7.080   0.531   0.249
 1838TIP3   OH2 5477   1.752   4.961   0.322
 1838TIP3    H1 5478   1.664   4.926   0.305
 1838TIP3    H2 5479   1.811   4.891   0.293
 1839TIP3   OH2 5480   3.912   3.254   4.584
 1839TIP3    H1 5481   3.966   3.199   4.527
 1839TIP3    H2 5482   3.953   3.246   4.670
 1840TIP3   OH2 5483   1.661   6.777   3.838
 1840TIP3    H1 5484   1.604   6.716   3.885
 1840TIP3    H2 5485   1.602   6.827   3.783
 1841TIP3   OH2 5486   0.000   4.985   5.134
 1841TIP3    H1 5487  -0.052   4.999   5.213
 1841TIP3    H2 5488   0.027   5.072   5.106
 1842TIP3   OH2 5489   6.837   6.555   5.084
 1842TIP3    H1 5490   6.741   6.552   5.080
 1842TIP3    H2 5491   6.865   6.478   5.036
 1843TIP3   OH2 5492   3.359   6.474   2.283
 1843TIP3    H1 5493   3.336   6.465   2.190
 1843TIP3    H2 5494   3.383   6.385   2.310
 1844TIP3   OH2 5495   3.430   0.516   0.353
 1844TIP3    H1 5496   3.480   0.482   0.279
 1844TIP3    H2 5497   3.426   0.444   0.415
 1845TIP3   OH2 5498   5.980   3.946   0.856
 1845TIP3    H1 5499   6.022   3.883   0.799
 1845TIP3    H2 5500   5.886   3.937   0.838
 1846TIP3   OH2 5501   4.625   1.329   0.672
 1846TIP3    H1 5502   4.603   1.268   0.742
 1846TIP3    H2 5503   4.717   1.349   0.685
 1847TIP3   OH2 5504   6.613   5.199   0.243
 1847TIP3    H1 5505   6.685   5.176   0.184
 1847TIP3    H2 5506   6.572   5.276   0.203
 1848TIP3   OH2 5507   2.503   0.819   2.906
 1848TIP3    H1 5508   2.417   0.788   2.877
 1848TIP3    H2 5509   2.487   0.856   2.993
 1849TIP3   OH2 5510   2.688   3.427   2.565
 1849TIP3    H1 5511   2.652   3.368   2.498
 1849TIP3    H2 5512   2.767   3.464   2.526
 1850TIP3   OH2 5513   2.135   5.708   2.342
 1850TIP3    H1 5514   2.173   5.796   2.341
 1850TIP3    H2 5515   2.055   5.717   2.394
 1851TIP3   OH2 5516   0.831   3.363   1.794
 1851TIP3    H1 5517   0.758   3.377   1.733
 1851TIP3    H2 5518   0.871   3.449   1.802
 1852TIP3   OH2 5519   2.826   1.789   5.460
 1852TIP3    H1 5520   2.795   1.869   5.503
 1852TIP3    H2 5521   2.920   1.802   5.449
 1853TIP3   OH2 5522   2.740   6.417   5.868
 1853TIP3    H1 5523   2.802   6.344   5.868
 1853TIP3    H2 5524   2.731   6.442   5.776
 1854TIP3   OH2 5525   4.335   0.123   0.266
 1854TIP3    H1 5526   4.360   0.036   0.295
 1854TIP3    H2 5527   4.417   0.163   0.237
 1855TIP3   OH2 5528   2.514   5.031   5.554
 1855TIP3    H1 5529   2.426   5.018   5.521
 1855TIP3    H2 5530   2.571   4.994   5.487
 1856TIP3   OH2 5531   6.894   1.086   1.763
 1856TIP3    H1 5532   6.947   1.165   1.768
 1856TIP3    H2 5533   6.957   1.015   1.758
 1857TIP3   OH2 5534   5.818   6.362   4.903
 1857TIP3    H1 5535   5.836   6.442   4.952
 1857TIP3    H2 5536   5.865   6.294   4.950
 1858TIP3   OH2 5537   2.403   6.028   3.407
 1858TIP3    H1 5538   2.469   6.087   3.442
 1858TIP3    H2 5539   2.320   6.073   3.421
 1859TIP3   OH2 5540   1.729   1.529   5.479
 1859TIP3    H1 5541   1.683   1.471   5.418
 1859TIP3    H2 5542   1.670   1.536   5.554
 1860TIP3   OH2 5543   3.314   2.586   4.808
 1860TIP3    H1 5544   3.386   2.620   4.755
 1860TIP3    H2 5545   3.235   2.617   4.764
 1861TIP3   OH2 5546   0.621   4.132   0.762
 1861TIP3    H1 5547   0.602   4.135   0.856
 1861TIP3    H2 5548   0.714   4.156   0.756
 1862TIP3   OH2 5549   1.016   2.540   0.614
 1862TIP3    H1 5550   0.965   2.459   0.608
 1862TIP3    H2 5551   1.087   2.518   0.675
 1863TIP3   OH2 5552   2.185   5.608   4.220
 1863TIP3    H1 5553   2.163   5.675   4.285
 1863TIP3    H2 5554   2.238   5.654   4.155
 1864TIP3   OH2 5555   0.931   5.335   3.535
 1864TIP3    H1 5556   1.027   5.337   3.537
 1864TIP3    H2 5557   0.908   5.258   3.588
 1865TIP3   OH2 5558   5.312   5.751   0.855
 1865TIP3    H1 5559   5.245   5.685   0.875
 1865TIP3    H2 5560   5.263   5.832   0.844
 1866TIP3   OH2 5561   5.861   2.258   5.168
 1866TIP3    H1 5562   5.780   2.263   5.117
 1866TIP3    H2 5563   5.929   2.286   5.106
 1867TIP3   OH2 5564   5.923   4.954   5.550
 1867TIP3    H1 5565   5.937   4.887   5.617
 1867TIP3    H2 5566   5.932   5.037   5.598
 1868TIP3   OH2 5567   2.641   2.370   5.815
 1868TIP3    H1 5568   2.566   2.330   5.858
 1868TIP3    H2 5569   2.632   2.463   5.831
 1869TIP3   OH2 5570   4.880   1.382   3.947
 1869TIP3    H1 5571   4.823   1.411   4.019
 1869TIP3    H2 5572   4.969   1.395   3.981
 1870TIP3   OH2 5573   4.311   2.460   0.451
 1870TIP3    H1 5574   4.223   2.421   0.456
 1870TIP3    H2 5575   4.361   2.398   0.398
 1871TIP3   OH2 5576   0.493   2.981   3.494
 1871TIP3    H1 5577   0.457   2.961   3.581
 1871TIP3    H2 5578   0.539   2.902   3.468
 1872TIP3   OH2 5579   2.977   4.319   2.097
 1872TIP3    H1 5580   2.952   4.233   2.064
 1872TIP3    H2 5581   2.978   4.308   2.192
 1873TIP3   OH2 5582   5.840   6.166   2.872
 1873TIP3    H1 5583   5.889   6.212   2.940
 1873TIP3    H2 5584   5.749   6.194   2.884
 1874TIP3   OH2 5585   2.832   1.706   0.592
 1874TIP3    H1 5586   2.777   1.630   0.576
 1874TIP3    H2 5587   2.849   1.705   0.686
 1875TIP3   OH2 5588   5.882   5.276   5.067
 1875TIP3    H1 5589   5.917   5.262   4.979
 1875TIP3    H2 5590   5.812   5.340   5.055
 1876TIP3   OH2 5591   1.805   5.001   3.168
 1876TIP3    H1 5592   1.801   5.092   3.199
 1876TIP3    H2 5593   1.892   4.970   3.193
 1877TIP3   OH2 5594   4.545   0.014   4.925
 1877TIP3    H1 5595   4.601   0.084   4.893
 1877TIP3    H2 5596   4.529   0.037   5.017
 1878TIP3   OH2 5597   6.232   2.217   0.218
 1878TIP3    H1 5598   6.157   2.251   0.268
 1878TIP3    H2 5599   6.279   2.294   0.189
 1879TIP3   OH2 5600   2.971   3.661   3.427
 1879TIP3    H1 5601   2.993   3.743   3.382
 1879TIP3    H2 5602   3.055   3.616   3.435
 1880TIP3   OH2 5603   1.822   2.969   4.181
 1880TIP3    H1 5604   1.728   2.983   4.172
 1880TIP3    H2 5605   1.844   3.006   4.267
 1881TIP3   OH2 5606   5.950   4.672   0.492
 1881TIP3    H1 5607   5.904   4.737   0.438
 1881TIP3    H2 5608   5.887   4.601   0.503
 1882TIP3   OH2 5609   6.280   0.364   4.767
 1882TIP3    H1 5610   6.364   0.410   4.764
 1882TIP3    H2 5611   6.236   0.390   4.685
 1883TIP3   OH2 5612   5.527   1.520   1.599
 1883TIP3    H1 5613   5.484   1.570   1.668
 1883TIP3    H2 5614   5.499   1.562   1.518
 1884TIP3   OH2 5615   3.655   2.730   3.402
 1884TIP3    H1 5616   3.696   2.757   3.321
 1884TIP3    H2 5617   3.678   2.637   3.411
 1885TIP3   OH2 5618   4.899   2.557   4.420
 1885TIP3    H1 5619   4.844   2.550   4.498
 1885TIP3    H2 5620   4.847   2.607   4.357
 1886TIP3   OH2 5621   6.963   5.914   3.017
 1886TIP3    H1 5622   7.054   5.917   3.044
 1886TIP3    H2 5623   6.934   5.825   3.036
 1887TIP3   OH2 5624   6.869   2.662   1.055
 1887TIP3    H1 5625   6.887   2.664   1.150
 1887TIP3    H2 5626   6.832   2.576   1.039
 1888TIP3   OH2 5627   3.285   2.003   3.431
 1888TIP3    H1 5628   3.280   1.941   3.504
 1888TIP3    H2 5629   3.253   1.955   3.355
 1889TIP3   OH2 5630   6.562   2.728   2.003
 1889TIP3    H1 5631   6.523   2.775   1.929
 1889TIP3    H2 5632   6.518   2.764   2.080
 1890TIP3   OH2 5633   1.168   5.011   1.371
 1890TIP3    H1 5634   1.119   4.942   1.416
 1890TIP3    H2 5635   1.153   5.090   1.424
 1891TIP3   OH2 5636   4.829   1.718  -0.011
 1891TIP3    H1 5637   4.788   1.648   0.039
 1891TIP3    H2 5638   4.869   1.775   0.055
 1892TIP3   OH2 5639   4.151   5.286   2.831
 1892TIP3    H1 5640   4.070   5.299   2.881
 1892TIP3    H2 5641   4.143   5.345   2.757
 1893TIP3   OH2 5642   2.060   6.649   0.424
 1893TIP3    H1 5643   2.003   6.649   0.501
 1893TIP3    H2 5644   2.130   6.587   0.446
 1894TIP3   OH2 5645   1.082   1.754   2.342
 1894TIP3    H1 5646   1.068   1.676   2.289
 1894TIP3    H2 5647   1.142   1.726   2.411
 1895TIP3   OH2 5648   6.129   4.022   5.032
 1895TIP3    H1 5649   6.117   4.115   5.051
 1895TIP3    H2 5650   6.153   4.020   4.939
 1896TIP3   OH2 5651   2.123   3.010   1.429
 1896TIP3    H1 5652   2.194   2.949   1.451
 1896TIP3    H2 5653   2.081   2.971   1.353
 1897TIP3   OH2 5654   6.469   2.978   5.798
 1897TIP3    H1 5655   6.498   3.069   5.798
 1897TIP3    H2 5656   6.423   2.967   5.881
 1898TIP3   OH2 5657   2.493   0.823   5.948
 1898TIP3    H1 5658   2.452   0.898   5.905
 1898TIP3    H2 5659   2.514   0.763   5.877
 1899TIP3   OH2 5660   2.174   4.908   4.158
 1899TIP3    H1 5661   2.243   4.934   4.097
 1899TIP3    H2 5662   2.105   4.871   4.103
 1900TIP3   OH2 5663   2.771   4.580   0.206
 1900TIP3    H1 5664   2.866   4.566   0.201
 1900TIP3    H2 5665   2.735   4.493   0.221
 1901TIP3   OH2 5666   4.453   3.496   4.938
 1901TIP3    H1 5667   4.509   3.447   4.998
 1901TIP3    H2 5668   4.465   3.453   4.854
 1902TIP3   OH2 5669   3.723   1.063   2.058
 1902TIP3    H1 5670   3.704   1.137   2.117
 1902TIP3    H2 5671   3.815   1.043   2.075
 1903TIP3   OH2 5672   0.487   0.924   2.429
 1903TIP3    H1 5673   0.514   0.833   2.416
 1903TIP3    H2 5674   0.393   0.923   2.412
 1904TIP3   OH2 5675   5.913   3.776   1.785
 1904TIP3    H1 5676   5.889   3.858   1.742
 1904TIP3    H2 5677   5.850   3.712   1.750
 1905TIP3   OH2 5678   0.310   1.000   4.364
 1905TIP3    H1 5679   0.251   0.974   4.435
 1905TIP3    H2 5680   0.261   1.067   4.316
 1906TIP3   OH2 5681   5.023   0.657   5.086
 1906TIP3    H1 5682   5.062   0.579   5.046
 1906TIP3    H2 5683   5.068   0.664   5.171
 1907TIP3   OH2 5684   0.082   0.366   4.162
 1907TIP3    H1 5685   0.081   0.441   4.222
 1907TIP3    H2 5686   0.025   0.302   4.204
 1908TIP3   OH2 5687   0.810   3.484   2.818
 1908TIP3    H1 5688   0.887   3.464   2.872
 1908TIP3    H2 5689   0.816   3.424   2.744
 1909TIP3   OH2 5690   6.513   6.365   3.600
 1909TIP3    H1 5691   6.560   6.448   3.592
 1909TIP3    H2 5692   6.571   6.310   3.653
 1910TIP3   OH2 5693   0.746   5.820   3.208
 1910TIP3    H1 5694   0.818   5.757   3.214
 1910TIP3    H2 5695   0.777   5.886   3.146
 1911TIP3   OH2 5696   1.452   0.377   3.235
 1911TIP3    H1 5697   1.406   0.329   3.304
 1911TIP3    H2 5698   1.529   0.413   3.279
 1912TIP3   OH2 5699   6.393   1.309   0.042
 1912TIP3    H1 5700   6.475   1.351   0.018
 1912TIP3    H2 5701   6.326   1.374   0.021
 1913TIP3   OH2 5702   0.555   6.226   0.257
 1913TIP3    H1 5703   0.646   6.197   0.250
 1913TIP3    H2 5704   0.560   6.321   0.246
 1914TIP3   OH2 5705   0.045   5.752   5.019
 1914TIP3    H1 5706   0.087   5.796   4.945
 1914TIP3    H2 5707  -0.024   5.813   5.046
 1915TIP3   OH2 5708   6.293   2.693   3.313
 1915TIP3    H1 5709   6.363   2.658   3.368
 1915TIP3    H2 5710   6.337   2.716   3.231
 1916TIP3   OH2 5711   5.602   5.544   3.669
 1916TIP3    H1 5712   5.573   5.624   3.714
 1916TIP3    H2 5713   5.697   5.542   3.682
 1917TIP3   OH2 5714   0.510   5.907   3.366
 1917TIP3    H1 5715   0.448   5.948   3.306
 1917TIP3    H2 5716   0.580   5.874   3.310
 1918TIP3   OH2 5717   5.425   3.895   4.043
 1918TIP3    H1 5718   5.436   3.887   3.948
 1918TIP3    H2 5719   5.463   3.981   4.063
 1919TIP3   OH2 5720   3.261   3.906   2.826
 1919TIP3    H1 5721   3.311   3.846   2.771
 1919TIP3    H2 5722   3.297   3.893   2.914
 1920TIP3   OH2 5723   6.040   3.041   5.319
 1920TIP3    H1 5724   6.081   3.100   5.382
 1920TIP3    H2 5725   5.947   3.045   5.340
 1921TIP3   OH2 5726   4.199   4.633   0.626
 1921TIP3    H1 5727   4.272   4.695   0.637
 1921TIP3    H2 5728   4.237   4.548   0.647
 1922TIP3   OH2 5729   1.973   1.930   5.898
 1922TIP3    H1 5730   1.930   1.891   5.822
 1922TIP3    H2 5731   2.055   1.966   5.865
 1923TIP3   OH2 5732   0.218   5.882   4.777
 1923TIP3    H1 5733   0.272   5.810   4.744
 1923TIP3    H2 5734   0.275   5.929   4.838
 1924TIP3   OH2 5735   4.687   0.687   0.489
 1924TIP3    H1 5736   4.666   0.596   0.468
 1924TIP3    H2 5737   4.763   0.708   0.435
 1925TIP3   OH2 5738   1.837   0.150   4.827
 1925TIP3    H1 5739   1.778   0.085   4.865
 1925TIP3    H2 5740   1.782   0.227   4.813
 1926TIP3   OH2 5741   6.000   4.796   5.786
 1926TIP3    H1 5742   5.984   4.751   5.869
 1926TIP3    H2 5743   6.074   4.749   5.747
 1927TIP3   OH2 5744   4.085   0.906   3.913
 1927TIP3    H1 5745   4.101   0.994   3.879
 1927TIP3    H2 5746   4.152   0.894   3.980
 1928TIP3   OH2 5747   5.129   1.164   5.008
 1928TIP3    H1 5748   5.119   1.104   4.934
 1928TIP3    H2 5749   5.210   1.212   4.989
 1929TIP3   OH2 5750   0.295   5.878   2.635
 1929TIP3    H1 5751   0.321   5.968   2.616
 1929TIP3    H2 5752   0.344   5.825   2.572
 1930TIP3   OH2 5753   2.585   2.322   2.166
 1930TIP3    H1 5754   2.516   2.361   2.220
 1930TIP3    H2 5755   2.610   2.243   2.213
 1931TIP3   OH2 5756   5.453   0.491   2.106
 1931TIP3    H1 5757   5.445   0.475   2.012
 1931TIP3    H2 5758   5.547   0.498   2.121
 1932TIP3   OH2 5759   3.225   4.573   1.062
 1932TIP3    H1 5760   3.181   4.619   1.133
 1932TIP3    H2 5761   3.289   4.636   1.028
 1933TIP3   OH2 5762   5.974   2.685   5.582
 1933TIP3    H1 5763   6.016   2.705   5.666
 1933TIP3    H2 5764   5.881   2.695   5.599
 1934TIP3   OH2 5765   1.711   3.474   0.194
 1934TIP3    H1 5766   1.777   3.543   0.194
 1934TIP3    H2 5767   1.651   3.499   0.123
 1935TIP3   OH2 5768   0.423   4.459   1.484
 1935TIP3    H1 5769   0.356   4.482   1.550
 1935TIP3    H2 5770   0.401   4.370   1.459
 1936TIP3   OH2 5771   0.263   5.566   2.172
 1936TIP3    H1 5772   0.169   5.570   2.155
 1936TIP3    H2 5773   0.285   5.654   2.204
 1937TIP3   OH2 5774   6.374   6.000   3.545
 1937TIP3    H1 5775   6.297   5.944   3.535
 1937TIP3    H2 5776   6.371   6.029   3.637
 1938TIP3   OH2 5777   7.104   0.180   3.408
 1938TIP3    H1 5778   7.141   0.116   3.348
 1938TIP3    H2 5779   7.010   0.182   3.388
 1939TIP3   OH2 5780   7.001   6.238   1.644
 1939TIP3    H1 5781   6.993   6.251   1.738
 1939TIP3    H2 5782   7.051   6.157   1.635
 1940TIP3   OH2 5783   2.063   0.767   4.041
 1940TIP3    H1 5784   1.979   0.778   3.995
 1940TIP3    H2 5785   2.092   0.679   4.017
 1941TIP3   OH2 5786   0.519   3.789   0.274
 1941TIP3    H1 5787   0.534   3.710   0.326
 1941TIP3    H2 5788   0.591   3.789   0.210
 1942TIP3   OH2 5789   1.160   1.337   0.307
 1942TIP3    H1 5790   1.109   1.355   0.386
 1942TIP3    H2 5791   1.131   1.403   0.244
 1943TIP3   OH2 5792   3.125   4.215   1.649
 1943TIP3    H1 5793   3.098   4.143   1.706
 1943TIP3    H2 5794   3.087   4.293   1.689
 1944TIP3   OH2 5795   6.797   1.962   5.677
 1944TIP3    H1 5796   6.713   1.942   5.636
 1944TIP3    H2 5797   6.774   1.998   5.762
 1945TIP3   OH2 5798   0.155   6.482   2.798
 1945TIP3    H1 5799   0.147   6.424   2.874
 1945TIP3    H2 5800   0.220   6.547   2.825
 1946TIP3   OH2 5801   1.728   2.466   5.833
 1946TIP3    H1 5802   1.768   2.391   5.789
 1946TIP3    H2 5803   1.798   2.500   5.889
 1947TIP3   OH2 5804   0.644   1.902   3.475
 1947TIP3    H1 5805   0.688   1.985   3.496
 1947TIP3    H2 5806   0.711   1.835   3.491
 1948TIP3   OH2 5807   6.964   0.969   4.458
 1948TIP3    H1 5808   7.004   0.917   4.528
 1948TIP3    H2 5809   6.870   0.961   4.473
 1949TIP3   OH2 5810   1.258   0.420   5.061
 1949TIP3    H1 5811   1.310   0.454   5.134
 1949TIP3    H2 5812   1.270   0.484   4.991
 1950TIP3   OH2 5813   2.574   4.205   3.328
 1950TIP3    H1 5814   2.629   4.176   3.401
 1950TIP3    H2 5815   2.620   4.176   3.250
 1951TIP3   OH2 5816   3.503   2.151   5.565
 1951TIP3    H1 5817   3.542   2.066   5.546
 1951TIP3    H2 5818   3.432   2.159   5.502
 1952TIP3   OH2 5819   5.713   2.569   2.877
 1952TIP3    H1 5820   5.676   2.513   2.810
 1952TIP3    H2 5821   5.806   2.545   2.880
 1953TIP3   OH2 5822   2.772   5.514   0.258
 1953TIP3    H1 5823   2.824   5.505   0.178
 1953TIP3    H2 5824   2.815   5.585   0.307
 1954TIP3   OH2 5825   6.225   4.913   4.522
 1954TIP3    H1 5826   6.309   4.875   4.548
 1954TIP3    H2 5827   6.175   4.838   4.487
 1955TIP3   OH2 5828   6.680   2.681   2.526
 1955TIP3    H1 5829   6.587   2.688   2.550
 1955TIP3    H2 5830   6.684   2.601   2.472
 1956TIP3   OH2 5831   5.048   5.200   2.121
 1956TIP3    H1 5832   5.054   5.243   2.036
 1956TIP3    H2 5833   5.065   5.108   2.103
 1957TIP3   OH2 5834   3.992   4.010   1.477
 1957TIP3    H1 5835   3.966   4.089   1.525
 1957TIP3    H2 5836   4.044   3.960   1.539
 1958TIP3   OH2 5837   2.958   5.199   3.693
 1958TIP3    H1 5838   3.007   5.279   3.714
 1958TIP3    H2 5839   2.940   5.159   3.778
 1959TIP3   OH2 5840   5.526   5.914   1.613
 1959TIP3    H1 5841   5.533   6.000   1.571
 1959TIP3    H2 5842   5.494   5.856   1.544
 1960TIP3   OH2 5843   2.402   4.652   3.952
 1960TIP3    H1 5844   2.436   4.573   3.910
 1960TIP3    H2 5845   2.413   4.636   4.046
 1961TIP3   OH2 5846   3.413   6.536   1.766
 1961TIP3    H1 5847   3.341   6.480   1.735
 1961TIP3    H2 5848   3.407   6.615   1.713
 1962TIP3   OH2 5849   3.614   2.851   5.372
 1962TIP3    H1 5850   3.601   2.924   5.312
 1962TIP3    H2 5851   3.624   2.892   5.458
 1963TIP3   OH2 5852   0.710   6.631   1.757
 1963TIP3    H1 5853   0.723   6.596   1.669
 1963TIP3    H2 5854   0.625   6.596   1.784
 1964TIP3   OH2 5855   1.494   6.363   0.985
 1964TIP3    H1 5856   1.431   6.336   1.052
 1964TIP3    H2 5857   1.490   6.293   0.920
 1965TIP3   OH2 5858   1.621   4.309   3.924
 1965TIP3    H1 5859   1.599   4.265   3.843
 1965TIP3    H2 5860   1.560   4.383   3.929
 1966TIP3   OH2 5861   2.982   4.091   4.998
 1966TIP3    H1 5862   3.017   4.022   5.054
 1966TIP3    H2 5863   2.887   4.084   5.008
 1967TIP3   OH2 5864   0.841   4.423   3.149
 1967TIP3    H1 5865   0.863   4.335   3.120
 1967TIP3    H2 5866   0.874   4.428   3.239
 1968TIP3   OH2 5867   3.538   5.662   1.149
 1968TIP3    H1 5868   3.577   5.656   1.061
 1968TIP3    H2 5869   3.460   5.607   1.144
 1969TIP3   OH2 5870   1.550   5.119   1.139
 1969TIP3    H1 5871   1.620   5.171   1.179
 1969TIP3    H2 5872   1.576   5.028   1.154
 1970TIP3   OH2 5873   5.091   3.061   1.046
 1970TIP3    H1 5874   5.180   3.077   1.077
 1970TIP3    H2 5875   5.035   3.085   1.120
 1971TIP3   OH2 5876   4.616   4.936   1.002
 1971TIP3    H1 5877   4.693   4.960   1.054
 1971TIP3    H2 5878   4.550   5.001   1.025
 1972TIP3   OH2 5879   2.098   2.250   5.198
 1972TIP3    H1 5880   2.142   2.202   5.129
 1972TIP3    H2 5881   2.017   2.201   5.214
 1973TIP3   OH2 5882   3.578   0.641   3.835
 1973TIP3    H1 5883   3.669   0.611   3.838
 1973TIP3    H2 5884   3.527   0.566   3.866
 1974TIP3   OH2 5885   2.384   0.896   3.165
 1974TIP3    H1 5886   2.312   0.910   3.105
 1974TIP3    H2 5887   2.347   0.842   3.235
 1975TIP3   OH2 5888   3.479   4.984   4.558
 1975TIP3    H1 5889   3.551   5.003   4.498
 1975TIP3    H2 5890   3.420   4.927   4.508
 1976TIP3   OH2 5891   0.338   1.392   4.879
 1976TIP3    H1 5892   0.347   1.401   4.784
 1976TIP3    H2 5893   0.397   1.458   4.915
 1977TIP3   OH2 5894   3.637   6.144   4.337
 1977TIP3    H1 5895   3.723   6.177   4.363
 1977TIP3    H2 5896   3.645   6.048   4.342
 1978TIP3   OH2 5897   7.096   2.530   5.244
 1978TIP3    H1 5898   7.151   2.458   5.213
 1978TIP3    H2 5899   7.054   2.495   5.323
 1979TIP3   OH2 5900   1.925   3.370   4.085
 1979TIP3    H1 5901   1.859   3.324   4.035
 1979TIP3    H2 5902   1.881   3.397   4.165
 1980TIP3   OH2 5903   3.522   1.947   2.931
 1980TIP3    H1 5904   3.489   2.004   3.000
 1980TIP3    H2 5905   3.612   1.977   2.917
 1981TIP3   OH2 5906   6.319   6.200   5.690
 1981TIP3    H1 5907   6.358   6.113   5.700
 1981TIP3    H2 5908   6.390   6.254   5.656
 1982TIP3   OH2 5909   2.595   0.046   2.224
 1982TIP3    H1 5910   2.670   0.101   2.247
 1982TIP3    H2 5911   2.522   0.083   2.274
 1983TIP3   OH2 5912   0.783   2.683   1.733
 1983TIP3    H1 5913   0.854   2.742   1.709
 1983TIP3    H2 5914   0.800   2.661   1.825
 1984TIP3   OH2 5915   4.496   4.085   2.255
 1984TIP3    H1 5916   4.574   4.128   2.219
 1984TIP3    H2 5917   4.460   4.036   2.182
 1985TIP3   OH2 5918   5.816   2.539   4.654
 1985TIP3    H1 5919   5.792   2.627   4.624
 1985TIP3    H2 5920   5.911   2.536   4.642
 1986TIP3   OH2 5921   0.980   6.138   3.963
 1986TIP3    H1 5922   0.893   6.164   3.994
 1986TIP3    H2 5923   0.966   6.113   3.871
 1987TIP3   OH2 5924   0.663   4.157   5.080
 1987TIP3    H1 5925   0.744   4.107   5.071
 1987TIP3    H2 5926   0.681   4.241   5.037
 1988TIP3   OH2 5927   0.521   1.147   5.439
 1988TIP3    H1 5928   0.474   1.119   5.360
 1988TIP3    H2 5929   0.529   1.067   5.491
 1989TIP3   OH2 5930   6.953   6.130   0.163
 1989TIP3    H1 5931   6.953   6.132   0.258
 1989TIP3    H2 5932   6.997   6.048   0.140
 1990TIP3   OH2 5933   6.104   3.913   5.688
 1990TIP3    H1 5934   6.104   3.932   5.594
 1990TIP3    H2 5935   6.190   3.943   5.718
 1991TIP3   OH2 5936   4.716   2.938   2.056
 1991TIP3    H1 5937   4.691   2.962   2.145
 1991TIP3    H2 5938   4.640   2.892   2.021
 1992TIP3   OH2 5939   4.526   6.542   0.723
 1992TIP3    H1 5940   4.459   6.595   0.680
 1992TIP3    H2 5941   4.496   6.534   0.814
 1993TIP3   OH2 5942   5.727   2.841   1.485
 1993TIP3    H1 5943   5.637   2.865   1.507
 1993TIP3    H2 5944   5.748   2.893   1.407
 1994TIP3   OH2 5945   4.619   4.103   4.395
 1994TIP3    H1 5946   4.575   4.187   4.408
 1994TIP3    H2 5947   4.632   4.097   4.300
 1995TIP3   OH2 5948   4.118   5.752   2.390
 1995TIP3    H1 5949   4.177   5.819   2.424
 1995TIP3    H2 5950   4.129   5.757   2.295
 1996TIP3   OH2 5951   1.463   3.865   2.247
 1996TIP3    H1 5952   1.372   3.862   2.217
 1996TIP3    H2 5953   1.457   3.852   2.342
 1997TIP3   OH2 5954   5.734   4.342   5.215
 1997TIP3    H1 5955   5.759   4.408   5.150
 1997TIP3    H2 5956   5.677   4.389   5.275
 1998TIP3   OH2 5957   4.485   6.403   4.178
 1998TIP3    H1 5958   4.429   6.468   4.135
 1998TIP3    H2 5959   4.423   6.341   4.218
 1999TIP3   OH2 5960   5.658   5.869   4.518
 1999TIP3    H1 5961   5.740   5.892   4.561
 1999TIP3    H2 5962   5.615   5.808   4.578
 2000TIP3   OH2 5963   2.311   5.490   3.829
 2000TIP3    H1 5964   2.362   5.409   3.817
 2000TIP3    H2 5965   2.239   5.464   3.886
 2001TIP3   OH2 5966   6.239   6.491   2.494
 2001TIP3    H1 5967   6.147   6.516   2.497
 2001TIP3    H2 5968   6.287   6.572   2.507
 2002TIP3   OH2 5969   3.824   2.542   1.288
 2002TIP3    H1 5970   3.843   2.466   1.344
 2002TIP3    H2 5971   3.885   2.533   1.214
 2003TIP3   OH2 5972   1.061   1.045   5.637
 2003TIP3    H1 5973   1.095   0.968   5.591
 2003TIP3    H2 5974   0.977   1.063   5.595
 2004TIP3   OH2 5975   2.059   1.234   5.359
 2004TIP3    H1 5976   1.977   1.192   5.334
 2004TIP3    H2 5977   2.033   1.300   5.424
 2005TIP3   OH2 5978   5.348   6.438   2.468
 2005TIP3    H1 5979   5.383   6.348   2.465
 2005TIP3    H2 5980   5.285   6.441   2.396
 2006TIP3   OH2 5981   0.259   0.114   2.930
 2006TIP3    H1 5982   0.231   0.186   2.986
 2006TIP3    H2 5983   0.203   0.040   2.954
 2007TIP3   OH2 5984   4.382   6.750   3.567
 2007TIP3    H1 5985   4.332   6.688   3.620
 2007TIP3    H2 5986   4.328   6.829   3.565
 2008TIP3   OH2 5987   3.934   4.464   0.087
 2008TIP3    H1 5988   3.981   4.420   0.158
 2008TIP3    H2 5989   3.917   4.394   0.023
 2009TIP3   OH2 5990   5.192   3.734   0.330
 2009TIP3    H1 5991   5.111   3.743   0.380
 2009TIP3    H2 5992   5.262   3.755   0.392
 2010TIP3   OH2 5993   6.876   1.196   0.747
 2010TIP3    H1 5994   6.848   1.147   0.825
 2010TIP3    H2 5995   6.961   1.232   0.770
 2011TIP3   OH2 5996   1.430   5.849   1.796
 2011TIP3    H1 5997   1.361   5.890   1.743
 2011TIP3    H2 5998   1.497   5.824   1.733
 2012TIP3   OH2 5999   0.207   6.209   0.555
 2012TIP3    H1 6000   0.239   6.144   0.616
 2012TIP3    H2 6001   0.116   6.224   0.582
 2013TIP3   OH2 6002   7.178   3.412   0.390
 2013TIP3    H1 6003   7.114   3.344   0.409
 2013TIP3    H2 6004   7.129   3.477   0.339
 2014TIP3   OH2 6005   6.450   6.360   1.662
 2014TIP3    H1 6006   6.377   6.417   1.637
 2014TIP3    H2 6007   6.414   6.302   1.729
 2015TIP3   OH2 6008   0.544   1.314   0.095
 2015TIP3    H1 6009   0.566   1.368   0.171
 2015TIP3    H2 6010   0.623   1.316   0.040
 2016TIP3   OH2 6011   5.675   1.239   0.511
 2016TIP3    H1 6012   5.748   1.196   0.467
 2016TIP3    H2 6013   5.717   1.300   0.573
 2017TIP3   OH2 6014   1.144   5.477   4.915
 2017TIP3    H1 6015   1.105   5.404   4.867
 2017TIP3    H2 6016   1.146   5.447   5.006
 2018TIP3   OH2 6017   4.850   5.385   5.122
 2018TIP3    H1 6018   4.875   5.302   5.081
 2018TIP3    H2 6019   4.884   5.452   5.063
 2019TIP3   OH2 6020   3.841   1.448   5.142
 2019TIP3    H1 6021   3.899   1.386   5.099
 2019TIP3    H2 6022   3.848   1.427   5.235
 2020TIP3   OH2 6023   2.317   6.661   2.192
 2020TIP3    H1 6024   2.319   6.566   2.180
 2020TIP3    H2 6025   2.307   6.673   2.287
 2021TIP3   OH2 6026   0.042   0.852   5.251
 2021TIP3    H1 6027   0.042   0.870   5.157
 2021TIP3    H2 6028   0.117   0.795   5.264
 2022TIP3   OH2 6029   7.176   2.454   2.287
 2022TIP3    H1 6030   7.264   2.424   2.264
 2022TIP3    H2 6031   7.119   2.379   2.272
 2023TIP3   OH2 6032   5.129   6.068   5.127
 2023TIP3    H1 6033   5.145   6.067   5.033
 2023TIP3    H2 6034   5.185   6.139   5.160
 2024TIP3   OH2 6035   1.433   2.218   3.784
 2024TIP3    H1 6036   1.507   2.272   3.759
 2024TIP3    H2 6037   1.406   2.252   3.870
 2025TIP3   OH2 6038   3.833   1.478   5.528
 2025TIP3    H1 6039   3.809   1.564   5.564
 2025TIP3    H2 6040   3.914   1.494   5.480
 2026TIP3   OH2 6041   4.170   1.118   4.718
 2026TIP3    H1 6042   4.101   1.183   4.727
 2026TIP3    H2 6043   4.194   1.120   4.626
 2027TIP3   OH2 6044   2.213   1.940   5.282
 2027TIP3    H1 6045   2.221   1.986   5.365
 2027TIP3    H2 6046   2.289   1.881   5.279
 2028TIP3   OH2 6047   3.548   0.368   3.204
 2028TIP3    H1 6048   3.486   0.375   3.131
 2028TIP3    H2 6049   3.633   0.355   3.162
 2029TIP3   OH2 6050   4.579   0.081   0.505
 2029TIP3    H1 6051   4.585   0.070   0.600
 2029TIP3    H2 6052   4.553  -0.005   0.473
 2030TIP3   OH2 6053   5.256   0.211   0.504
 2030TIP3    H1 6054   5.199   0.213   0.427
 2030TIP3    H2 6055   5.322   0.278   0.487
 2031TIP3   OH2 6056   1.003   4.810   0.699
 2031TIP3    H1 6057   1.054   4.889   0.683
 2031TIP3    H2 6058   1.032   4.779   0.784
 2032TIP3   OH2 6059   2.487   3.920   4.628
 2032TIP3    H1 6060   2.505   3.836   4.670
 2032TIP3    H2 6061   2.464   3.978   4.701
 2033TIP3   OH2 6062   0.533   5.491   0.899
 2033TIP3    H1 6063   0.541   5.584   0.919
 2033TIP3    H2 6064   0.567   5.483   0.809
 2034TIP3   OH2 6065   5.969   2.142   0.888
 2034TIP3    H1 6066   6.064   2.130   0.899
 2034TIP3    H2 6067   5.961   2.223   0.838
 2035TIP3   OH2 6068   1.541   5.260   0.474
 2035TIP3    H1 6069   1.464   5.209   0.496
 2035TIP3    H2 6070   1.522   5.348   0.505
 2036TIP3   OH2 6071   4.818   2.778   0.003
 2036TIP3    H1 6072   4.857   2.695   0.031
 2036TIP3    H2 6073   4.724   2.761   0.001
 2037TIP3   OH2 6074   1.827   2.413   0.454
 2037TIP3    H1 6075   1.844   2.491   0.402
 2037TIP3    H2 6076   1.763   2.441   0.520
 2038TIP3   OH2 6077   6.899   1.103   4.209
 2038TIP3    H1 6078   6.916   1.056   4.291
 2038TIP3    H2 6079   6.963   1.175   4.210
 2039TIP3   OH2 6080   0.359   6.032   4.266
 2039TIP3    H1 6081   0.409   6.114   4.265
 2039TIP3    H2 6082   0.426   5.964   4.263
 2040TIP3   OH2 6083   4.852   3.064   5.127
 2040TIP3    H1 6084   4.928   3.120   5.140
 2040TIP3    H2 6085   4.800   3.077   5.207
 2041TIP3   OH2 6086   5.137   2.929   5.657
 2041TIP3    H1 6087   5.083   2.899   5.731
 2041TIP3    H2 6088   5.082   2.994   5.613
 2042TIP3   OH2 6089   2.266   0.991   0.129
 2042TIP3    H1 6090   2.288   0.911   0.176
 2042TIP3    H2 6091   2.171   0.986   0.116
 2043TIP3   OH2 6092   7.177   2.297   5.096
 2043TIP3    H1 6093   7.141   2.250   5.172
 2043TIP3    H2 6094   7.255   2.248   5.073
 2044TIP3   OH2 6095   2.487   0.128   1.846
 2044TIP3    H1 6096   2.567   0.092   1.885
 2044TIP3    H2 6097   2.432   0.152   1.921
 2045TIP3   OH2 6098   1.585   5.848   1.010
 2045TIP3    H1 6099   1.665   5.804   0.981
 2045TIP3    H2 6100   1.542   5.784   1.067
 2046TIP3   OH2 6101   1.834   3.009   4.626
 2046TIP3    H1 6102   1.815   3.022   4.533
 2046TIP3    H2 6103   1.820   3.095   4.665
 2047TIP3   OH2 6104   0.483   5.006   4.167
 2047TIP3    H1 6105   0.446   5.086   4.205
 2047TIP3    H2 6106   0.549   4.977   4.230
 2048TIP3   OH2 6107   3.169   4.971   1.741
 2048TIP3    H1 6108   3.122   4.934   1.816
 2048TIP3    H2 6109   3.259   4.980   1.772
 2049TIP3   OH2 6110   1.815   1.051   4.693
 2049TIP3    H1 6111   1.900   1.051   4.649
 2049TIP3    H2 6112   1.751   1.032   4.624
 2050TIP3   OH2 6113   0.105   2.477   1.334
 2050TIP3    H1 6114   0.024   2.429   1.347
 2050TIP3    H2 6115   0.136   2.448   1.248
 2051TIP3   OH2 6116   4.966   4.178   3.479
 2051TIP3    H1 6117   4.994   4.095   3.519
 2051TIP3    H2 6118   4.939   4.154   3.390
 2052TIP3   OH2 6119   4.587   4.119   4.823
 2052TIP3    H1 6120   4.612   4.123   4.915
 2052TIP3    H2 6121   4.665   4.086   4.778
 2053TIP3   OH2 6122   6.464   5.109   0.456
 2053TIP3    H1 6123   6.431   5.022   0.434
 2053TIP3    H2 6124   6.495   5.144   0.373
 2054TIP3   OH2 6125   1.238   3.887   2.487
 2054TIP3    H1 6126   1.183   3.810   2.502
 2054TIP3    H2 6127   1.180   3.949   2.443
 2055TIP3   OH2 6128   0.911   1.911   3.990
 2055TIP3    H1 6129   0.926   1.875   3.903
 2055TIP3    H2 6130   0.992   1.956   4.013
 2056TIP3   OH2 6131   6.829   5.429   0.291
 2056TIP3    H1 6132   6.906   5.471   0.254
 2056TIP3    H2 6133   6.856   5.401   0.379
 2057TIP3   OH2 6134   3.593   6.665   2.351
 2057TIP3    H1 6135   3.515   6.632   2.307
 2057TIP3    H2 6136   3.580   6.644   2.443
 2058TIP3   OH2 6137   3.413   5.430   4.431
 2058TIP3    H1 6138   3.411   5.436   4.526
 2058TIP3    H2 6139   3.376   5.343   4.411
 2059TIP3   OH2 6140   6.715   0.355   0.593
 2059TIP3    H1 6141   6.750   0.443   0.598
 2059TIP3    H2 6142   6.639   0.362   0.535
 2060TIP3   OH2 6143   6.332   1.413   4.897
 2060TIP3    H1 6144   6.262   1.452   4.844
 2060TIP3    H2 6145   6.412   1.454   4.865
 2061TIP3   OH2 6146   5.653   3.034   3.910
 2061TIP3    H1 6147   5.651   2.985   3.992
 2061TIP3    H2 6148   5.626   3.122   3.935
 2062TIP3   OH2 6149   2.651   5.724   0.462
 2062TIP3    H1 6150   2.652   5.788   0.391
 2062TIP3    H2 6151   2.562   5.689   0.462
 2063TIP3   OH2 6152   0.747   2.093   0.147
 2063TIP3    H1 6153   0.811   2.148   0.192
 2063TIP3    H2 6154   0.706   2.042   0.217
 2064TIP3   OH2 6155   2.239   4.498   0.065
 2064TIP3    H1 6156   2.285   4.422   0.030
 2064TIP3    H2 6157   2.290   4.573   0.035
 2065TIP3   OH2 6158   4.911   5.434   0.679
 2065TIP3    H1 6159   4.816   5.424   0.672
 2065TIP3    H2 6160   4.935   5.487   0.603
 2066TIP3   OH2 6161   0.051   4.877   4.338
 2066TIP3    H1 6162   0.102   4.901   4.416
 2066TIP3    H2 6163   0.054   4.954   4.282
 2067TIP3   OH2 6164   1.845   6.328   0.873
 2067TIP3    H1 6165   1.908   6.383   0.826
 2067TIP3    H2 6166   1.800   6.389   0.932
 2068TIP3   OH2 6167   2.876   6.647   2.903
 2068TIP3    H1 6168   2.904   6.695   2.982
 2068TIP3    H2 6169   2.943   6.579   2.892
 2069TIP3   OH2 6170   2.537   4.725   2.254
 2069TIP3    H1 6171   2.481   4.752   2.327
 2069TIP3    H2 6172   2.591   4.802   2.236
 2070TIP3   OH2 6173   2.723   2.193   0.556
 2070TIP3    H1 6174   2.814   2.176   0.532
 2070TIP3    H2 6175   2.690   2.108   0.587
 2071TIP3   OH2 6176   6.860   2.727   3.341
 2071TIP3    H1 6177   6.778   2.777   3.342
 2071TIP3    H2 6178   6.837   2.643   3.379
 2072TIP3   OH2 6179   2.505   0.813   1.516
 2072TIP3    H1 6180   2.578   0.796   1.576
 2072TIP3    H2 6181   2.502   0.735   1.460
 2073TIP3   OH2 6182   0.512   2.902   0.576
 2073TIP3    H1 6183   0.582   2.937   0.632
 2073TIP3    H2 6184   0.483   2.823   0.623
 2074TIP3   OH2 6185   6.182  -0.011   2.696
 2074TIP3    H1 6186   6.140   0.070   2.668
 2074TIP3    H2 6187   6.263  -0.016   2.645
 2075TIP3   OH2 6188   0.461   5.034   0.657
 2075TIP3    H1 6189   0.465   5.089   0.735
 2075TIP3    H2 6190   0.381   4.983   0.667
 2076TIP3   OH2 6191   6.739   1.008   3.179
 2076TIP3    H1 6192   6.716   0.915   3.188
 2076TIP3    H2 6193   6.721   1.027   3.087
 2077TIP3   OH2 6194   1.163   5.349   5.463
 2077TIP3    H1 6195   1.171   5.315   5.374
 2077TIP3    H2 6196   1.252   5.376   5.486
 2078TIP3   OH2 6197   0.031   3.705   1.938
 2078TIP3    H1 6198   0.038   3.682   1.845
 2078TIP3    H2 6199  -0.056   3.674   1.964
 2079TIP3   OH2 6200   6.285   3.530   3.359
 2079TIP3    H1 6201   6.298   3.577   3.276
 2079TIP3    H2 6202   6.210   3.575   3.399
 2080TIP3   OH2 6203   4.792   5.496   1.936
 2080TIP3    H1 6204   4.849   5.569   1.913
 2080TIP3    H2 6205   4.713   5.537   1.970
 2081TIP3   OH2 6206   1.883   4.099   2.228
 2081TIP3    H1 6207   1.794   4.099   2.264
 2081TIP3    H2 6208   1.936   4.057   2.295
 2082TIP3   OH2 6209   1.940   3.920   5.226
 2082TIP3    H1 6210   1.977   3.997   5.183
 2082TIP3    H2 6211   1.902   3.954   5.307
 2083TIP3   OH2 6212   5.594   0.028   2.239
 2083TIP3    H1 6213   5.582   0.118   2.209
 2083TIP3    H2 6214   5.647  -0.013   2.171
 2084TIP3   OH2 6215   6.889   4.166   2.027
 2084TIP3    H1 6216   6.905   4.260   2.012
 2084TIP3    H2 6217   6.921   4.150   2.115
 2085TIP3   OH2 6218   2.709   0.050   4.011
 2085TIP3    H1 6219   2.704   0.063   3.916
 2085TIP3    H2 6220   2.623   0.016   4.035
 2086TIP3   OH2 6221   4.563   5.771   0.966
 2086TIP3    H1 6222   4.573   5.742   0.875
 2086TIP3    H2 6223   4.542   5.864   0.959
 2087TIP3   OH2 6224   0.087   3.422   2.343
 2087TIP3    H1 6225   0.040   3.411   2.260
 2087TIP3    H2 6226   0.169   3.375   2.331
 2088TIP3   OH2 6227   1.338   0.784   5.060
 2088TIP3    H1 6228   1.418   0.770   5.010
 2088TIP3    H2 6229   1.278   0.827   4.999
 2089TIP3   OH2 6230   5.957   6.296   1.109
 2089TIP3    H1 6231   5.919   6.225   1.057
 2089TIP3    H2 6232   5.883   6.352   1.131
 2090TIP3   OH2 6233   6.823   0.337   5.664
 2090TIP3    H1 6234   6.838   0.295   5.580
 2090TIP3    H2 6235   6.797   0.266   5.722
 2091TIP3   OH2 6236   3.647   4.916   1.447
 2091TIP3    H1 6237   3.557   4.916   1.481
 2091TIP3    H2 6238   3.675   4.825   1.455
 2092TIP3   OH2 6239   1.827   5.850   4.821
 2092TIP3    H1 6240   1.890   5.779   4.828
 2092TIP3    H2 6241   1.750   5.810   4.780
 2093TIP3   OH2 6242   5.854   1.591   3.861
 2093TIP3    H1 6243   5.874   1.659   3.796
 2093TIP3    H2 6244   5.822   1.640   3.937
 2094TIP3   OH2 6245   2.676   3.294   1.314
 2094TIP3    H1 6246   2.727   3.352   1.258
 2094TIP3    H2 6247   2.695   3.206   1.282
 2095TIP3   OH2 6248   2.113   0.579   5.656
 2095TIP3    H1 6249   2.079   0.528   5.582
 2095TIP3    H2 6250   2.070   0.664   5.649
 2096TIP3   OH2 6251   0.778   6.458   5.099
 2096TIP3    H1 6252   0.747   6.448   5.009
 2096TIP3    H2 6253   0.780   6.553   5.113
 2097TIP3   OH2 6254   4.009   1.990   0.648
 2097TIP3    H1 6255   3.997   2.061   0.711
 2097TIP3    H2 6256   4.100   1.997   0.621
 2098TIP3   OH2 6257   1.933   6.423   0.168
 2098TIP3    H1 6258   1.915   6.387   0.255
 2098TIP3    H2 6259   1.899   6.513   0.172
 2099TIP3   OH2 6260   4.135   1.651   0.759
 2099TIP3    H1 6261   4.145   1.574   0.703
 2099TIP3    H2 6262   4.219   1.658   0.805
 2100TIP3   OH2 6263   3.134   1.269   2.444
 2100TIP3    H1 6264   3.045   1.234   2.444
 2100TIP3    H2 6265   3.168   1.250   2.356
 2101TIP3   OH2 6266   2.401   4.161   2.494
 2101TIP3    H1 6267   2.407   4.121   2.407
 2101TIP3    H2 6268   2.321   4.214   2.490
 2102TIP3   OH2 6269   3.456   2.551   0.784
 2102TIP3    H1 6270   3.424   2.518   0.869
 2102TIP3    H2 6271   3.549   2.529   0.783
 2103TIP3   OH2 6272   0.255   2.172   2.416
 2103TIP3    H1 6273   0.349   2.162   2.430
 2103TIP3    H2 6274   0.216   2.158   2.503
 2104TIP3   OH2 6275   2.439   2.887   1.398
 2104TIP3    H1 6276   2.506   2.891   1.466
 2104TIP3    H2 6277   2.476   2.937   1.325
 2105TIP3   OH2 6278   1.661   0.507   2.259
 2105TIP3    H1 6279   1.654   0.550   2.174
 2105TIP3    H2 6280   1.680   0.416   2.238
 2106TIP3   OH2 6281   0.420   1.085   5.201
 2106TIP3    H1 6282   0.353   1.074   5.134
 2106TIP3    H2 6283   0.495   1.121   5.154
 2107TIP3   OH2 6284   6.666   2.642   4.580
 2107TIP3    H1 6285   6.643   2.690   4.660
 2107TIP3    H2 6286   6.733   2.580   4.608
 2108TIP3   OH2 6287   3.731   4.311   3.311
 2108TIP3    H1 6288   3.704   4.352   3.230
 2108TIP3    H2 6289   3.688   4.362   3.380
 2109TIP3   OH2 6290   4.985   3.998   5.205
 2109TIP3    H1 6291   4.967   4.083   5.165
 2109TIP3    H2 6292   5.071   4.008   5.244
 2110TIP3   OH2 6293   4.237   2.942   4.773
 2110TIP3    H1 6294   4.241   2.850   4.797
 2110TIP3    H2 6295   4.304   2.954   4.706
 2111TIP3   OH2 6296   4.668   3.394   1.716
 2111TIP3    H1 6297   4.663   3.318   1.773
 2111TIP3    H2 6298   4.674   3.358   1.627
 2112TIP3   OH2 6299   2.923   2.607   2.235
 2112TIP3    H1 6300   2.907   2.699   2.257
 2112TIP3    H2 6301   2.958   2.609   2.146
 2113TIP3   OH2 6302   2.672   5.650   1.658
 2113TIP3    H1 6303   2.618   5.606   1.593
 2113TIP3    H2 6304   2.668   5.594   1.735
 2114TIP3   OH2 6305   5.328   3.807   2.093
 2114TIP3    H1 6306   5.276   3.728   2.108
 2114TIP3    H2 6307   5.310   3.831   2.003
 2115TIP3   OH2 6308   1.987   2.605   1.265
 2115TIP3    H1 6309   1.993   2.655   1.347
 2115TIP3    H2 6310   1.905   2.636   1.225
 2116TIP3   OH2 6311   1.151   2.316   0.962
 2116TIP3    H1 6312   1.175   2.379   0.893
 2116TIP3    H2 6313   1.234   2.289   1.000
 2117TIP3   OH2 6314   3.150   3.990   0.555
 2117TIP3    H1 6315   3.076   4.047   0.577
 2117TIP3    H2 6316   3.112   3.904   0.540
 2118TIP3   OH2 6317   5.932   2.561   1.459
 2118TIP3    H1 6318   5.925   2.563   1.364
 2118TIP3    H2 6319   5.842   2.561   1.490
 2119TIP3   OH2 6320   4.855   2.644   3.477
 2119TIP3    H1 6321   4.932   2.673   3.428
 2119TIP3    H2 6322   4.817   2.724   3.513
 2120TIP3   OH2 6323   4.377   3.954   4.439
 2120TIP3    H1 6324   4.352   3.955   4.531
 2120TIP3    H2 6325   4.466   3.987   4.438
 2121TIP3   OH2 6326   6.488   1.433   3.411
 2121TIP3    H1 6327   6.503   1.346   3.374
 2121TIP3    H2 6328   6.398   1.430   3.443
 2122TIP3   OH2 6329   4.471   2.739   5.762
 2122TIP3    H1 6330   4.394   2.796   5.769
 2122TIP3    H2 6331   4.500   2.727   5.852
 2123TIP3   OH2 6332   0.560   3.275   5.099
 2123TIP3    H1 6333   0.548   3.362   5.137
 2123TIP3    H2 6334   0.634   3.285   5.039
 2124TIP3   OH2 6335   4.862   0.191   3.914
 2124TIP3    H1 6336   4.883   0.099   3.905
 2124TIP3    H2 6337   4.908   0.219   3.993
 2125TIP3   OH2 6338   2.593   6.792   4.047
 2125TIP3    H1 6339   2.656   6.787   4.120
 2125TIP3    H2 6340   2.642   6.760   3.971
 2126TIP3   OH2 6341   1.752   5.720   0.743
 2126TIP3    H1 6342   1.798   5.745   0.822
 2126TIP3    H2 6343   1.811   5.743   0.672
 2127TIP3   OH2 6344   1.956   4.087   1.439
 2127TIP3    H1 6345   2.001   4.122   1.516
 2127TIP3    H2 6346   1.873   4.135   1.436
 2128TIP3   OH2 6347   7.206   2.109   2.914
 2128TIP3    H1 6348   7.199   2.033   2.856
 2128TIP3    H2 6349   7.232   2.073   2.999
 2129TIP3   OH2 6350   2.127   4.100   5.115
 2129TIP3    H1 6351   2.140   4.163   5.186
 2129TIP3    H2 6352   2.199   4.118   5.054
 2130TIP3   OH2 6353   2.395   0.378   0.868
 2130TIP3    H1 6354   2.300   0.384   0.854
 2130TIP3    H2 6355   2.415   0.285   0.858
 2131TIP3   OH2 6356   4.504   1.002   3.006
 2131TIP3    H1 6357   4.432   0.962   3.056
 2131TIP3    H2 6358   4.556   1.047   3.073
 2132TIP3   OH2 6359   2.936   0.690   0.352
 2132TIP3    H1 6360   2.996   0.626   0.313
 2132TIP3    H2 6361   2.970   0.704   0.440
 2133TIP3   OH2 6362   3.279   5.533   1.132
 2133TIP3    H1 6363   3.259   5.527   1.038
 2133TIP3    H2 6364   3.194   5.523   1.174
 2134TIP3   OH2 6365   4.658   1.484   2.581
 2134TIP3    H1 6366   4.673   1.396   2.616
 2134TIP3    H2 6367   4.746   1.521   2.572
 2135TIP3   OH2 6368   4.603   6.621   2.517
 2135TIP3    H1 6369   4.622   6.580   2.433
 2135TIP3    H2 6370   4.661   6.697   2.521
 2136TIP3   OH2 6371   1.485   1.511   4.718
 2136TIP3    H1 6372   1.547   1.438   4.719
 2136TIP3    H2 6373   1.521   1.572   4.653
 2137TIP3   OH2 6374   1.716   5.440   4.879
 2137TIP3    H1 6375   1.723   5.474   4.969
 2137TIP3    H2 6376   1.724   5.517   4.823
 2138TIP3   OH2 6377   5.266   4.490   2.491
 2138TIP3    H1 6378   5.354   4.505   2.456
 2138TIP3    H2 6379   5.221   4.440   2.423
 2139TIP3   OH2 6380   4.023   2.168   0.868
 2139TIP3    H1 6381   4.092   2.131   0.924
 2139TIP3    H2 6382   3.941   2.136   0.907
 2140TIP3   OH2 6383   1.737   1.812   5.344
 2140TIP3    H1 6384   1.715   1.757   5.419
 2140TIP3    H2 6385   1.780   1.889   5.381
 2141TIP3   OH2 6386   3.989   5.711   0.442
 2141TIP3    H1 6387   4.006   5.744   0.353
 2141TIP3    H2 6388   4.076   5.695   0.478
 2142TIP3   OH2 6389   4.989   6.453   2.148
 2142TIP3    H1 6390   4.941   6.371   2.144
 2142TIP3    H2 6391   5.069   6.437   2.097
 2143TIP3   OH2 6392   5.790   0.234   5.006
 2143TIP3    H1 6393   5.696   0.221   5.018
 2143TIP3    H2 6394   5.815   0.299   5.071
 2144TIP3   OH2 6395   0.422   5.201   4.552
 2144TIP3    H1 6396   0.494   5.211   4.491
 2144TIP3    H2 6397   0.349   5.247   4.511
 2145TIP3   OH2 6398   1.010   5.724   0.568
 2145TIP3    H1 6399   1.012   5.747   0.475
 2145TIP3    H2 6400   0.955   5.791   0.609
 2146TIP3   OH2 6401   6.416   2.782   2.667
 2146TIP3    H1 6402   6.458   2.848   2.722
 2146TIP3    H2 6403   6.328   2.816   2.651
 2147TIP3   OH2 6404   4.189   1.453   5.549
 2147TIP3    H1 6405   4.169   1.363   5.575
 2147TIP3    H2 6406   4.251   1.484   5.615
 2148TIP3   OH2 6407   4.815   5.431   3.604
 2148TIP3    H1 6408   4.812   5.336   3.592
 2148TIP3    H2 6409   4.860   5.443   3.687
 2149TIP3   OH2 6410   0.255   5.230   5.050
 2149TIP3    H1 6411   0.276   5.191   4.965
 2149TIP3    H2 6412   0.181   5.288   5.032
 2150TIP3   OH2 6413   4.841   5.969   5.411
 2150TIP3    H1 6414   4.793   5.986   5.492
 2150TIP3    H2 6415   4.933   5.965   5.437
 2151TIP3   OH2 6416   5.550   3.342   5.567
 2151TIP3    H1 6417   5.583   3.432   5.576
 2151TIP3    H2 6418   5.527   3.316   5.656
 2152TIP3   OH2 6419   6.351   1.298   2.096
 2152TIP3    H1 6420   6.266   1.329   2.128
 2152TIP3    H2 6421   6.339   1.287   2.002
 2153TIP3   OH2 6422   4.066   3.931   2.749
 2153TIP3    H1 6423   4.039   4.003   2.807
 2153TIP3    H2 6424   4.024   3.951   2.666
 2154TIP3   OH2 6425   3.194   4.282   3.560
 2154TIP3    H1 6426   3.201   4.210   3.496
 2154TIP3    H2 6427   3.103   4.310   3.552
 2155TIP3   OH2 6428   5.407   0.813   0.910
 2155TIP3    H1 6429   5.401   0.724   0.875
 2155TIP3    H2 6430   5.395   0.803   1.004
 2156TIP3   OH2 6431   3.644   5.239   4.171
 2156TIP3    H1 6432   3.567   5.286   4.140
 2156TIP3    H2 6433   3.704   5.308   4.201
 2157TIP3   OH2 6434   1.633   0.560   3.313
 2157TIP3    H1 6435   1.703   0.581   3.374
 2157TIP3    H2 6436   1.677   0.552   3.228
 2158TIP3   OH2 6437   6.666   6.498   2.749
 2158TIP3    H1 6438   6.744   6.487   2.803
 2158TIP3    H2 6439   6.699   6.522   2.663
 2159TIP3   OH2 6440   6.959   4.123   5.335
 2159TIP3    H1 6441   7.022   4.065   5.292
 2159TIP3    H2 6442   6.938   4.190   5.270
 2160TIP3   OH2 6443   3.670   5.564   4.050
 2160TIP3    H1 6444   3.727   5.553   4.126
 2160TIP3    H2 6445   3.695   5.648   4.014
 2161TIP3   OH2 6446   3.011   1.338   1.982
 2161TIP3    H1 6447   2.915   1.335   1.980
 2161TIP3    H2 6448   3.037   1.284   1.907
 2162TIP3   OH2 6449   4.656   4.461   4.197
 2162TIP3    H1 6450   4.640   4.539   4.249
 2162TIP3    H2 6451   4.709   4.491   4.123
 2163TIP3   OH2 6452   7.100   3.254   5.270
 2163TIP3    H1 6453   7.159   3.194   5.316
 2163TIP3    H2 6454   7.032   3.274   5.334
 2164TIP3   OH2 6455   5.014   6.567   1.444
 2164TIP3    H1 6456   5.100   6.573   1.403
 2164TIP3    H2 6457   4.985   6.477   1.428
 2165TIP3   OH2 6458   6.858   3.771   5.697
 2165TIP3    H1 6459   6.857   3.801   5.606
 2165TIP3    H2 6460   6.942   3.801   5.731
 2166TIP3   OH2 6461   2.131   2.535   0.540
 2166TIP3    H1 6462   2.107   2.533   0.447
 2166TIP3    H2 6463   2.097   2.619   0.571
 2167TIP3   OH2 6464   6.413   5.353   1.578
 2167TIP3    H1 6465   6.359   5.408   1.635
 2167TIP3    H2 6466   6.497   5.347   1.624
 2168TIP3   OH2 6467   2.477   0.877   0.553
 2168TIP3    H1 6468   2.429   0.795   0.538
 2168TIP3    H2 6469   2.476   0.921   0.468
 2169TIP3   OH2 6470   1.089   1.305   1.142
 2169TIP3    H1 6471   1.149   1.231   1.131
 2169TIP3    H2 6472   1.030   1.300   1.067
 2170TIP3   OH2 6473   0.837   3.568   2.120
 2170TIP3    H1 6474   0.755   3.615   2.137
 2170TIP3    H2 6475   0.811   3.475   2.121
 2171TIP3   OH2 6476   4.306   2.270   2.403
 2171TIP3    H1 6477   4.251   2.346   2.383
 2171TIP3    H2 6478   4.249   2.212   2.453
 2172TIP3   OH2 6479   7.167   0.377   0.727
 2172TIP3    H1 6480   7.103   0.324   0.678
 2172TIP3    H2 6481   7.127   0.463   0.734
 2173TIP3   OH2 6482   0.532   0.375   1.320
 2173TIP3    H1 6483   0.585   0.407   1.246
 2173TIP3    H2 6484   0.573   0.292   1.345
 2174TIP3   OH2 6485   0.079   3.712   2.298
 2174TIP3    H1 6486   0.038   3.633   2.333
 2174TIP3    H2 6487   0.104   3.762   2.376
 2175TIP3   OH2 6488   4.204   2.478   5.744
 2175TIP3    H1 6489   4.132   2.536   5.720
 2175TIP3    H2 6490   4.189   2.398   5.692
 2176TIP3   OH2 6491   2.446   1.729   5.599
 2176TIP3    H1 6492   2.421   1.770   5.682
 2176TIP3    H2 6493   2.485   1.646   5.625
 2177TIP3   OH2 6494   3.082   4.452   5.604
 2177TIP3    H1 6495   3.145   4.522   5.621
 2177TIP3    H2 6496   3.084   4.439   5.510
 2178TIP3   OH2 6497   4.006   3.709   4.591
 2178TIP3    H1 6498   3.947   3.634   4.585
 2178TIP3    H2 6499   4.091   3.671   4.616
 2179TIP3   OH2 6500   4.268   0.405   0.985
 2179TIP3    H1 6501   4.172   0.409   0.992
 2179TIP3    H2 6502   4.291   0.481   0.932
 2180TIP3   OH2 6503   0.916   3.726   3.036
 2180TIP3    H1 6504   0.827   3.751   3.059
 2180TIP3    H2 6505   0.967   3.741   3.116
 2181TIP3   OH2 6506   1.555   3.932   1.343
 2181TIP3    H1 6507   1.501   3.877   1.285
 2181TIP3    H2 6508   1.559   4.016   1.298
 2182TIP3   OH2 6509   0.687   6.478   4.855
 2182TIP3    H1 6510   0.621   6.538   4.819
 2182TIP3    H2 6511   0.715   6.426   4.779
 2183TIP3   OH2 6512   6.214   3.863   1.207
 2183TIP3    H1 6513   6.209   3.783   1.156
 2183TIP3    H2 6514   6.233   3.835   1.296
 2184TIP3   OH2 6515   5.103   0.145   0.290
 2184TIP3    H1 6516   5.148   0.090   0.226
 2184TIP3    H2 6517   5.010   0.133   0.271
 2185TIP3   OH2 6518   2.115   6.397   3.472
 2185TIP3    H1 6519   2.062   6.326   3.508
 2185TIP3    H2 6520   2.176   6.420   3.542
 2186TIP3   OH2 6521   7.096   6.229   1.979
 2186TIP3    H1 6522   7.160   6.261   1.916
 2186TIP3    H2 6523   7.147   6.178   2.042
 2187TIP3   OH2 6524   2.115   0.231   4.581
 2187TIP3    H1 6525   2.200   0.242   4.623
 2187TIP3    H2 6526   2.071   0.163   4.632
 2188TIP3   OH2 6527   3.669   0.776   0.488
 2188TIP3    H1 6528   3.727   0.850   0.509
 2188TIP3    H2 6529   3.728   0.701   0.482
 2189TIP3   OH2 6530   3.686   2.771   4.080
 2189TIP3    H1 6531   3.622   2.777   4.008
 2189TIP3    H2 6532   3.649   2.705   4.139
 2190TIP3   OH2 6533   0.223   3.588   2.933
 2190TIP3    H1 6534   0.256   3.503   2.959
 2190TIP3    H2 6535   0.292   3.624   2.877
 2191TIP3   OH2 6536   4.270   5.424   1.106
 2191TIP3    H1 6537   4.225   5.485   1.048
 2191TIP3    H2 6538   4.354   5.467   1.126
 2192TIP3   OH2 6539   6.278   6.056   1.517
 2192TIP3    H1 6540   6.266   6.150   1.507
 2192TIP3    H2 6541   6.309   6.026   1.431
 2193TIP3   OH2 6542   4.229   2.734   4.356
 2193TIP3    H1 6543   4.275   2.734   4.272
 2193TIP3    H2 6544   4.182   2.650   4.358
 2194TIP3   OH2 6545   6.396   5.218   2.356
 2194TIP3    H1 6546   6.342   5.142   2.378
 2194TIP3    H2 6547   6.337   5.279   2.312
 2195TIP3   OH2 6548   0.084   6.341   4.181
 2195TIP3    H1 6549   0.085   6.255   4.222
 2195TIP3    H2 6550   0.149   6.392   4.230
 2196TIP3   OH2 6551   5.640   0.691   0.007
 2196TIP3    H1 6552   5.553   0.652   0.011
 2196TIP3    H2 6553   5.625   0.783  -0.012
 2197TIP3   OH2 6554   0.136   3.076   1.939
 2197TIP3    H1 6555   0.218   3.044   1.901
 2197TIP3    H2 6556   0.158   3.096   2.030
 2198TIP3   OH2 6557   1.818   4.526   2.640
 2198TIP3    H1 6558   1.810   4.476   2.721
 2198TIP3    H2 6559   1.861   4.465   2.579
 2199TIP3   OH2 6560   2.659   5.738   0.905
 2199TIP3    H1 6561   2.650   5.815   0.849
 2199TIP3    H2 6562   2.612   5.669   0.858
 2200TIP3   OH2 6563   6.893   3.009   3.207
 2200TIP3    H1 6564   6.876   3.086   3.261
 2200TIP3    H2 6565   6.920   2.942   3.270
 2201TIP3   OH2 6566   7.057   0.518   2.199
 2201TIP3    H1 6567   6.994   0.498   2.268
 2201TIP3    H2 6568   7.023   0.475   2.122
 2202TIP3   OH2 6569   0.042   2.151   5.798
 2202TIP3    H1 6570  -0.011   2.227   5.823
 2202TIP3    H2 6571  -0.015   2.076   5.813
 2203TIP3   OH2 6572   4.647   2.339   5.669
 2203TIP3    H1 6573   4.661   2.250   5.638
 2203TIP3    H2 6574   4.701   2.393   5.611
 2204TIP3   OH2 6575   3.685   1.423   0.879
 2204TIP3    H1 6576   3.775   1.452   0.871
 2204TIP3    H2 6577   3.632   1.501   0.859
 2205TIP3   OH2 6578   0.596   4.725   3.461
 2205TIP3    H1 6579   0.616   4.632   3.469
 2205TIP3    H2 6580   0.632   4.750   3.376
 2206TIP3   OH2 6581   3.630   5.576   1.721
 2206TIP3    H1 6582   3.602   5.486   1.704
 2206TIP3    H2 6583   3.703   5.567   1.782
 2207TIP3   OH2 6584   3.923   2.795   1.378
 2207TIP3    H1 6585   3.867   2.721   1.354
 2207TIP3    H2 6586   3.930   2.790   1.474
 2208TIP3   OH2 6587   1.131   3.596   3.973
 2208TIP3    H1 6588   1.118   3.509   3.935
 2208TIP3    H2 6589   1.190   3.582   4.047
 2209TIP3   OH2 6590   6.314   1.977   3.252
 2209TIP3    H1 6591   6.361   1.893   3.249
 2209TIP3    H2 6592   6.363   2.029   3.316
 2210TIP3   OH2 6593   4.007   2.828   4.172
 2210TIP3    H1 6594   4.078   2.797   4.229
 2210TIP3    H2 6595   3.996   2.758   4.107
 2211TIP3   OH2 6596   0.552   1.269   4.075
 2211TIP3    H1 6597   0.623   1.325   4.106
 2211TIP3    H2 6598   0.531   1.302   3.988
 2212TIP3   OH2 6599   2.388   3.554   3.996
 2212TIP3    H1 6600   2.399   3.572   4.090
 2212TIP3    H2 6601   2.405   3.639   3.955
 2213TIP3   OH2 6602   0.901   2.282   0.512
 2213TIP3    H1 6603   0.991   2.277   0.544
 2213TIP3    H2 6604   0.851   2.225   0.571
 2214TIP3   OH2 6605   2.672   4.411   1.920
 2214TIP3    H1 6606   2.614   4.487   1.919
 2214TIP3    H2 6607   2.697   4.400   2.012
 2215TIP3   OH2 6608   3.838   1.812   2.561
 2215TIP3    H1 6609   3.749   1.783   2.582
 2215TIP3    H2 6610   3.866   1.753   2.491
 2216TIP3   OH2 6611   7.109   0.928   1.695
 2216TIP3    H1 6612   7.137   0.899   1.608
 2216TIP3    H2 6613   7.148   0.865   1.755
 2217TIP3   OH2 6614   2.198   2.470   5.650
 2217TIP3    H1 6615   2.133   2.533   5.619
 2217TIP3    H2 6616   2.232   2.430   5.571
 2218TIP3   OH2 6617   6.035   3.840   4.614
 2218TIP3    H1 6618   5.994   3.859   4.699
 2218TIP3    H2 6619   6.112   3.897   4.612
 2219TIP3   OH2 6620   1.952   1.613   0.917
 2219TIP3    H1 6621   2.017   1.623   0.848
 2219TIP3    H2 6622   1.984   1.540   0.970
 2220TIP3   OH2 6623   2.141   3.103   3.823
 2220TIP3    H1 6624   2.164   3.113   3.731
 2220TIP3    H2 6625   2.161   3.188   3.862
 2221TIP3   OH2 6626   5.949   6.188   4.138
 2221TIP3    H1 6627   5.982   6.234   4.215
 2221TIP3    H2 6628   5.938   6.097   4.168
 2222TIP3   OH2 6629   4.446   1.688   5.358
 2222TIP3    H1 6630   4.423   1.596   5.370
 2222TIP3    H2 6631   4.453   1.723   5.447
 2223TIP3   OH2 6632   2.928   3.191   0.551
 2223TIP3    H1 6633   2.905   3.184   0.458
 2223TIP3    H2 6634   2.845   3.174   0.597
 2224TIP3   OH2 6635   6.274   4.294   3.769
 2224TIP3    H1 6636   6.304   4.321   3.856
 2224TIP3    H2 6637   6.336   4.335   3.709
 2225TIP3   OH2 6638   1.810   3.623   1.727
 2225TIP3    H1 6639   1.724   3.587   1.708
 2225TIP3    H2 6640   1.864   3.547   1.748
 2226TIP3   OH2 6641   6.921   5.763   1.085
 2226TIP3    H1 6642   6.832   5.792   1.104
 2226TIP3    H2 6643   6.938   5.693   1.149
 2227TIP3   OH2 6644   1.057   4.231   5.498
 2227TIP3    H1 6645   1.100   4.175   5.563
 2227TIP3    H2 6646   1.128   4.255   5.438
 2228TIP3   OH2 6647   0.210   5.462   5.218
 2228TIP3    H1 6648   0.298   5.500   5.219
 2228TIP3    H2 6649   0.221   5.376   5.177
 2229TIP3   OH2 6650   1.461   5.798   2.460
 2229TIP3    H1 6651   1.368   5.809   2.479
 2229TIP3    H2 6652   1.463   5.745   2.380
 2230TIP3   OH2 6653   3.845   5.897   5.432
 2230TIP3    H1 6654   3.777   5.887   5.366
 2230TIP3    H2 6655   3.809   5.856   5.510
 2231TIP3   OH2 6656   4.032   1.620   0.402
 2231TIP3    H1 6657   4.008   1.592   0.314
 2231TIP3    H2 6658   3.974   1.694   0.421
 2232TIP3   OH2 6659   2.049   0.067   3.828
 2232TIP3    H1 6660   2.003   0.066   3.744
 2232TIP3    H2 6661   1.990   0.022   3.888
 2233TIP3   OH2 6662   2.844   3.610   3.031
 2233TIP3    H1 6663   2.768   3.617   3.088
 2233TIP3    H2 6664   2.836   3.684   2.972
 2234TIP3   OH2 6665   6.297   1.440   2.403
 2234TIP3    H1 6666   6.370   1.403   2.452
 2234TIP3    H2 6667   6.222   1.431   2.461
 2235TIP3   OH2 6668   5.597   4.196   1.821
 2235TIP3    H1 6669   5.575   4.210   1.728
 2235TIP3    H2 6670   5.643   4.275   1.847
 2236TIP3   OH2 6671   1.540   1.996   3.038
 2236TIP3    H1 6672   1.589   1.967   3.115
 2236TIP3    H2 6673   1.449   1.978   3.059
 2237TIP3   OH2 6674   4.568   6.071   1.554
 2237TIP3    H1 6675   4.574   6.091   1.647
 2237TIP3    H2 6676   4.479   6.038   1.543
 2238TIP3   OH2 6677   6.482   5.791   5.208
 2238TIP3    H1 6678   6.419   5.748   5.150
 2238TIP3    H2 6679   6.538   5.842   5.150
 2239TIP3   OH2 6680   6.281   0.780   2.452
 2239TIP3    H1 6681   6.265   0.706   2.392
 2239TIP3    H2 6682   6.356   0.753   2.504
 2240TIP3   OH2 6683   3.771   1.092   4.871
 2240TIP3    H1 6684   3.816   1.145   4.937
 2240TIP3    H2 6685   3.739   1.016   4.918
 2241TIP3   OH2 6686   2.817   4.526   4.529
 2241TIP3    H1 6687   2.846   4.582   4.601
 2241TIP3    H2 6688   2.857   4.566   4.451
 2242TIP3   OH2 6689   5.750   4.113   3.833
 2242TIP3    H1 6690   5.815   4.169   3.792
 2242TIP3    H2 6691   5.726   4.050   3.766
 2243TIP3   OH2 6692   0.180   4.143   2.857
 2243TIP3    H1 6693   0.118   4.110   2.922
 2243TIP3    H2 6694   0.244   4.193   2.908
 2244TIP3   OH2 6695   1.861   6.386   1.689
 2244TIP3    H1 6696   1.953   6.410   1.699
 2244TIP3    H2 6697   1.836   6.422   1.604
 2245TIP3   OH2 6698   2.175   0.604   2.466
 2245TIP3    H1 6699   2.266   0.634   2.457
 2245TIP3    H2 6700   2.147   0.637   2.551
 2246TIP3   OH2 6701   4.633   4.341   4.639
 2246TIP3    H1 6702   4.598   4.274   4.697
 2246TIP3    H2 6703   4.608   4.424   4.681
 2247TIP3   OH2 6704   6.227   0.962   2.807
 2247TIP3    H1 6705   6.203   1.011   2.728
 2247TIP3    H2 6706   6.153   0.973   2.866
 2248TIP3   OH2 6707   6.117   3.612   1.883
 2248TIP3    H1 6708   6.051   3.674   1.851
 2248TIP3    H2 6709   6.070   3.557   1.945
 2249TIP3   OH2 6710   1.630   2.983   0.027
 2249TIP3    H1 6711   1.715   3.016   0.055
 2249TIP3    H2 6712   1.596   2.936   0.103
 2250TIP3   OH2 6713   2.269   5.892   4.972
 2250TIP3    H1 6714   2.344   5.843   5.006
 2250TIP3    H2 6715   2.270   5.875   4.878
 2251TIP3   OH2 6716   5.997   0.223   2.339
 2251TIP3    H1 6717   5.964   0.226   2.429
 2251TIP3    H2 6718   6.068   0.159   2.342
 2252TIP3   OH2 6719   2.266   1.191   0.667
 2252TIP3    H1 6720   2.230   1.132   0.734
 2252TIP3    H2 6721   2.211   1.177   0.591
 2253TIP3   OH2 6722   1.244   2.971   1.672
 2253TIP3    H1 6723   1.243   3.001   1.581
 2253TIP3    H2 6724   1.337   2.964   1.694
 2254TIP3   OH2 6725   3.095   3.179   4.936
 2254TIP3    H1 6726   3.018   3.193   4.991
 2254TIP3    H2 6727   3.146   3.259   4.946
 2255TIP3   OH2 6728   7.032   2.384   4.448
 2255TIP3    H1 6729   7.113   2.379   4.500
 2255TIP3    H2 6730   7.057   2.428   4.367
 2256TIP3   OH2 6731   5.935   0.631   3.472
 2256TIP3    H1 6732   5.944   0.535   3.476
 2256TIP3    H2 6733   5.935   0.658   3.563
 2257TIP3   OH2 6734   4.227   5.298   0.236
 2257TIP3    H1 6735   4.287   5.292   0.161
 2257TIP3    H2 6736   4.284   5.304   0.312
 2258TIP3   OH2 6737   5.546   4.481   4.134
 2258TIP3    H1 6738   5.478   4.446   4.192
 2258TIP3    H2 6739   5.517   4.457   4.046
 2259TIP3   OH2 6740   0.550   2.519   2.918
 2259TIP3    H1 6741   0.558   2.608   2.884
 2259TIP3    H2 6742   0.636   2.480   2.902
 2260TIP3   OH2 6743   0.416   6.461   0.864
 2260TIP3    H1 6744   0.329   6.499   0.851
 2260TIP3    H2 6745   0.466   6.529   0.908
 2261TIP3   OH2 6746   4.360   2.749   4.106
 2261TIP3    H1 6747   4.366   2.837   4.071
 2261TIP3    H2 6748   4.451   2.719   4.112
 2262TIP3   OH2 6749   3.752   6.752   3.037
 2262TIP3    H1 6750   3.777   6.825   2.979
 2262TIP3    H2 6751   3.671   6.782   3.079
 2263TIP3   OH2 6752   3.606   3.181   1.888
 2263TIP3    H1 6753   3.638   3.271   1.875
 2263TIP3    H2 6754   3.685   3.128   1.895
 2264TIP3   OH2 6755   0.402   0.101   5.903
 2264TIP3    H1 6756   0.392   0.054   5.820
 2264TIP3    H2 6757   0.414   0.192   5.878
 2265TIP3   OH2 6758   5.595   0.805   0.591
 2265TIP3    H1 6759   5.683   0.843   0.597
 2265TIP3    H2 6760   5.558   0.844   0.512
 2266TIP3   OH2 6761   3.675   4.592   3.467
 2266TIP3    H1 6762   3.749   4.642   3.432
 2266TIP3    H2 6763   3.715   4.528   3.526
 2267TIP3   OH2 6764   5.561   4.350   3.633
 2267TIP3    H1 6765   5.515   4.410   3.574
 2267TIP3    H2 6766   5.640   4.326   3.585
 2268TIP3   OH2 6767   2.190   3.686   0.557
 2268TIP3    H1 6768   2.139   3.646   0.487
 2268TIP3    H2 6769   2.210   3.613   0.616
 2269TIP3   OH2 6770   6.638   4.953   1.907
 2269TIP3    H1 6771   6.553   4.993   1.888
 2269TIP3    H2 6772   6.646   4.883   1.843
 2270TIP3   OH2 6773   5.807   3.046   1.333
 2270TIP3    H1 6774   5.894   3.025   1.298
 2270TIP3    H2 6775   5.772   3.112   1.274
 2271TIP3   OH2 6776   6.392   3.962   2.201
 2271TIP3    H1 6777   6.392   3.967   2.297
 2271TIP3    H2 6778   6.477   3.996   2.175
 2272TIP3   OH2 6779   6.000   5.553   2.026
 2272TIP3    H1 6780   6.006   5.648   2.022
 2272TIP3    H2 6781   5.972   5.534   2.115
 2273TIP3   OH2 6782   1.542   0.567   3.635
 2273TIP3    H1 6783   1.524   0.627   3.562
 2273TIP3    H2 6784   1.492   0.603   3.708
 2274TIP3   OH2 6785   6.459   4.445   3.660
 2274TIP3    H1 6786   6.535   4.413   3.708
 2274TIP3    H2 6787   6.480   4.537   3.642
 2275TIP3   OH2 6788   3.000   4.229   4.344
 2275TIP3    H1 6789   3.082   4.223   4.393
 2275TIP3    H2 6790   3.011   4.304   4.286
 2276TIP3   OH2 6791   0.997   3.695   3.771
 2276TIP3    H1 6792   1.048   3.670   3.848
 2276TIP3    H2 6793   0.989   3.614   3.720
 2277TIP3   OH2 6794   0.247   4.252   1.435
 2277TIP3    H1 6795   0.208   4.165   1.447
 2277TIP3    H2 6796   0.173   4.312   1.439
 2278TIP3   OH2 6797   3.674   4.129   2.624
 2278TIP3    H1 6798   3.652   4.206   2.677
 2278TIP3    H2 6799   3.758   4.100   2.658
 2279TIP3   OH2 6800   6.666   2.404   5.065
 2279TIP3    H1 6801   6.646   2.342   4.995
 2279TIP3    H2 6802   6.742   2.452   5.033
 2280TIP3   OH2 6803   2.087   1.510   4.363
 2280TIP3    H1 6804   2.064   1.486   4.453
 2280TIP3    H2 6805   2.142   1.438   4.333
 2281TIP3   OH2 6806   1.472   3.748   0.394
 2281TIP3    H1 6807   1.547   3.795   0.359
 2281TIP3    H2 6808   1.401   3.812   0.392
 2282TIP3   OH2 6809   4.142   1.510   2.858
 2282TIP3    H1 6810   4.106   1.599   2.858
 2282TIP3    H2 6811   4.091   1.464   2.792
 2283TIP3   OH2 6812   0.769   2.635   0.514
 2283TIP3    H1 6813   0.854   2.601   0.540
 2283TIP3    H2 6814   0.738   2.682   0.592
 2284TIP3   OH2 6815   4.647   2.661   2.358
 2284TIP3    H1 6816   4.675   2.646   2.268
 2284TIP3    H2 6817   4.724   2.638   2.410
 2285TIP3   OH2 6818   2.401   4.887   2.409
 2285TIP3    H1 6819   2.420   4.981   2.412
 2285TIP3    H2 6820   2.321   4.881   2.356
 2286TIP3   OH2 6821   0.825   6.820   3.662
 2286TIP3    H1 6822   0.860   6.765   3.592
 2286TIP3    H2 6823   0.867   6.788   3.742
 2287TIP3   OH2 6824   4.497   0.528   0.178
 2287TIP3    H1 6825   4.511   0.468   0.252
 2287TIP3    H2 6826   4.584   0.543   0.142
 2288TIP3   OH2 6827   6.092   5.805   5.501
 2288TIP3    H1 6828   6.046   5.889   5.505
 2288TIP3    H2 6829   6.093   5.773   5.591
 2289TIP3   OH2 6830   6.620   4.607   2.776
 2289TIP3    H1 6831   6.557   4.615   2.848
 2289TIP3    H2 6832   6.700   4.574   2.818
 2290TIP3   OH2 6833   0.467   6.614   2.652
 2290TIP3    H1 6834   0.543   6.661   2.616
 2290TIP3    H2 6835   0.505   6.537   2.694
 2291TIP3   OH2 6836   0.345   0.187   4.370
 2291TIP3    H1 6837   0.423   0.183   4.316
 2291TIP3    H2 6838   0.282   0.131   4.325
 2292TIP3   OH2 6839   2.531   2.306   5.363
 2292TIP3    H1 6840   2.547   2.228   5.310
 2292TIP3    H2 6841   2.582   2.292   5.443
 2293TIP3   OH2 6842   4.092   3.115   4.397
 2293TIP3    H1 6843   4.156   3.073   4.454
 2293TIP3    H2 6844   4.069   3.048   4.333
 2294TIP3   OH2 6845   4.066   3.504   0.413
 2294TIP3    H1 6846   4.018   3.578   0.448
 2294TIP3    H2 6847   4.005   3.460   0.353
 2295TIP3   OH2 6848   6.211   1.756   3.877
 2295TIP3    H1 6849   6.267   1.767   3.801
 2295TIP3    H2 6850   6.162   1.838   3.883
 2296TIP3   OH2 6851   6.585   5.446   3.304
 2296TIP3    H1 6852   6.491   5.431   3.315
 2296TIP3    H2 6853   6.604   5.520   3.361
 2297TIP3   OH2 6854   3.956   5.117   3.602
 2297TIP3    H1 6855   3.980   5.025   3.604
 2297TIP3    H2 6856   3.864   5.119   3.629
 2298TIP3   OH2 6857   1.814   6.275   4.124
 2298TIP3    H1 6858   1.822   6.225   4.205
 2298TIP3    H2 6859   1.787   6.210   4.059
 2299TIP3   OH2 6860   5.423   2.174   2.056
 2299TIP3    H1 6861   5.432   2.081   2.039
 2299TIP3    H2 6862   5.344   2.200   2.007
 2300TIP3   OH2 6863   5.388   6.158   5.203
 2300TIP3    H1 6864   5.402   6.086   5.264
 2300TIP3    H2 6865   5.453   6.224   5.229
 2301TIP3   OH2 6866   6.223   2.203   5.822
 2301TIP3    H1 6867   6.153   2.206   5.887
 2301TIP3    H2 6868   6.208   2.280   5.768
 2302TIP3   OH2 6869   3.922   3.856   4.124
 2302TIP3    H1 6870   3.975   3.841   4.202
 2302TIP3    H2 6871   3.982   3.898   4.063
 2303TIP3   OH2 6872   0.638   3.385   5.648
 2303TIP3    H1 6873   0.676   3.298   5.633
 2303TIP3    H2 6874   0.691   3.422   5.719
 2304TIP3   OH2 6875   5.420   0.320   1.179
 2304TIP3    H1 6876   5.456   0.364   1.256
 2304TIP3    H2 6877   5.326   0.317   1.195
 2305TIP3   OH2 6878   1.780   1.762   4.820
 2305TIP3    H1 6879   1.785   1.830   4.887
 2305TIP3    H2 6880   1.786   1.680   4.870
 2306TIP3   OH2 6881   1.068   4.873   4.814
 2306TIP3    H1 6882   1.099   4.820   4.740
 2306TIP3    H2 6883   1.005   4.933   4.775
 2307TIP3   OH2 6884   4.968   2.043   5.594
 2307TIP3    H1 6885   4.881   2.078   5.613
 2307TIP3    H2 6886   5.008   2.029   5.680
 2308TIP3   OH2 6887   5.708   6.467   4.256
 2308TIP3    H1 6888   5.781   6.406   4.250
 2308TIP3    H2 6889   5.666   6.446   4.340
 2309TIP3   OH2 6890   7.013   4.923   2.124
 2309TIP3    H1 6891   6.939   4.973   2.089
 2309TIP3    H2 6892   6.990   4.908   2.216
 2310TIP3   OH2 6893   6.195   4.175   1.842
 2310TIP3    H1 6894   6.200   4.225   1.762
 2310TIP3    H2 6895   6.236   4.091   1.821
 2311TIP3   OH2 6896   2.829   1.725   0.081
 2311TIP3    H1 6897   2.759   1.781   0.114
 2311TIP3    H2 6898   2.887   1.711   0.156
 2312TIP3   OH2 6899   2.563   1.671   4.525
 2312TIP3    H1 6900   2.640   1.712   4.566
 2312TIP3    H2 6901   2.590   1.581   4.509
 2313TIP3   OH2 6902   6.319   4.106   4.404
 2313TIP3    H1 6903   6.232   4.109   4.364
 2313TIP3    H2 6904   6.378   4.082   4.332
 2314TIP3   OH2 6905   5.158   2.567   4.305
 2314TIP3    H1 6906   5.234   2.523   4.343
 2314TIP3    H2 6907   5.085   2.543   4.361
 2315TIP3   OH2 6908   6.637   4.332   0.896
 2315TIP3    H1 6909   6.632   4.249   0.945
 2315TIP3    H2 6910   6.547   4.364   0.894
 2316TIP3   OH2 6911   3.977   3.970   0.916
 2316TIP3    H1 6912   4.043   3.997   0.980
 2316TIP3    H2 6913   3.906   3.934   0.969
 2317TIP3   OH2 6914   0.045   6.400   5.755
 2317TIP3    H1 6915   0.016   6.314   5.783
 2317TIP3    H2 6916   0.102   6.431   5.826
 2318TIP3   OH2 6917   2.192   5.267   2.217
 2318TIP3    H1 6918   2.137   5.345   2.229
 2318TIP3    H2 6919   2.267   5.282   2.276
 2319TIP3   OH2 6920   0.374   0.693   2.685
 2319TIP3    H1 6921   0.326   0.772   2.660
 2319TIP3    H2 6922   0.464   0.723   2.698
 2320TIP3   OH2 6923   3.014   1.704   0.314
 2320TIP3    H1 6924   3.095   1.734   0.274
 2320TIP3    H2 6925   3.020   1.733   0.406
 2321TIP3   OH2 6926   2.358   0.468   2.815
 2321TIP3    H1 6927   2.332   0.559   2.833
 2321TIP3    H2 6928   2.352   0.461   2.719
 2322TIP3   OH2 6929   0.204   2.507   3.107
 2322TIP3    H1 6930   0.203   2.462   3.192
 2322TIP3    H2 6931   0.213   2.437   3.043
 2323TIP3   OH2 6932   2.176   5.688   5.169
 2323TIP3    H1 6933   2.189   5.762   5.110
 2323TIP3    H2 6934   2.260   5.676   5.213
 2324TIP3   OH2 6935   6.634   1.988   2.828
 2324TIP3    H1 6936   6.643   1.893   2.821
 2324TIP3    H2 6937   6.707   2.023   2.777
 2325TIP3   OH2 6938   5.545   2.167   0.883
 2325TIP3    H1 6939   5.604   2.221   0.831
 2325TIP3    H2 6940   5.601   2.124   0.947
 2326TIP3   OH2 6941   2.646   6.272   3.123
 2326TIP3    H1 6942   2.633   6.211   3.051
 2326TIP3    H2 6943   2.720   6.237   3.172
 2327TIP3   OH2 6944   5.986   2.903   0.611
 2327TIP3    H1 6945   6.001   2.821   0.657
 2327TIP3    H2 6946   5.981   2.879   0.518
 2328TIP3   OH2 6947   6.229   1.833   4.777
 2328TIP3    H1 6948   6.188   1.866   4.697
 2328TIP3    H2 6949   6.156   1.815   4.836
 2329TIP3   OH2 6950   4.662   4.698   5.598
 2329TIP3    H1 6951   4.666   4.607   5.626
 2329TIP3    H2 6952   4.577   4.707   5.554
 2330TIP3   OH2 6953   4.475   6.289   2.359
 2330TIP3    H1 6954   4.468   6.196   2.382
 2330TIP3    H2 6955   4.401   6.330   2.404
 2331TIP3   OH2 6956   0.790   4.525   1.039
 2331TIP3    H1 6957   0.699   4.500   1.026
 2331TIP3    H2 6958   0.789   4.579   1.118
 2332TIP3   OH2 6959   2.549   4.503   1.592
 2332TIP3    H1 6960   2.595   4.503   1.509
 2332TIP3    H2 6961   2.542   4.410   1.616
 2333TIP3   OH2 6962   3.657   0.761   2.125
 2333TIP3    H1 6963   3.686   0.709   2.200
 2333TIP3    H2 6964   3.608   0.833   2.164
 2334TIP3   OH2 6965   0.771   4.402   2.175
 2334TIP3    H1 6966   0.813   4.333   2.227
 2334TIP3    H2 6967   0.821   4.481   2.196
 2335TIP3   OH2 6968   2.330   2.033   4.180
 2335TIP3    H1 6969   2.409   2.086   4.174
 2335TIP3    H2 6970   2.261   2.095   4.201
 2336TIP3   OH2 6971   1.480   3.996   0.794
 2336TIP3    H1 6972   1.407   3.933   0.792
 2336TIP3    H2 6973   1.455   4.062   0.729
 2337TIP3   OH2 6974   5.654   4.202   2.996
 2337TIP3    H1 6975   5.729   4.259   2.977
 2337TIP3    H2 6976   5.659   4.135   2.928
 2338TIP3   OH2 6977   5.599   5.584   4.345
 2338TIP3    H1 6978   5.682   5.623   4.317
 2338TIP3    H2 6979   5.574   5.526   4.273
 2339TIP3   OH2 6980   4.253   1.940   1.419
 2339TIP3    H1 6981   4.230   1.850   1.442
 2339TIP3    H2 6982   4.322   1.964   1.481
 2340TIP3   OH2 6983   4.888   2.748   3.068
 2340TIP3    H1 6984   4.804   2.785   3.041
 2340TIP3    H2 6985   4.953   2.805   3.027
 2341TIP3   OH2 6986   2.188   5.161   5.768
 2341TIP3    H1 6987   2.249   5.152   5.841
 2341TIP3    H2 6988   2.147   5.075   5.760
 2342TIP3   OH2 6989   5.169   6.419   3.886
 2342TIP3    H1 6990   5.117   6.419   3.966
 2342TIP3    H2 6991   5.210   6.332   3.884
 2343TIP3   OH2 6992   5.987   1.568   0.507
 2343TIP3    H1 6993   6.053   1.591   0.572
 2343TIP3    H2 6994   5.958   1.480   0.531
 2344TIP3   OH2 6995   0.119   4.963   3.770
 2344TIP3    H1 6996   0.133   4.936   3.679
 2344TIP3    H2 6997   0.091   4.883   3.814
 2345TIP3   OH2 6998   6.729   5.083   0.558
 2345TIP3    H1 6999   6.642   5.111   0.531
 2345TIP3    H2 7000   6.742   4.999   0.512
 2346TIP3   OH2 7001   4.530   3.142   1.749
 2346TIP3    H1 7002   4.468   3.132   1.822
 2346TIP3    H2 7003   4.475   3.157   1.673
 2347TIP3   OH2 7004   5.822   0.738   4.043
 2347TIP3    H1 7005   5.734   0.734   4.005
 2347TIP3    H2 7006   5.873   0.787   3.978
 2348TIP3   OH2 7007   0.766   0.452   3.526
 2348TIP3    H1 7008   0.858   0.428   3.535
 2348TIP3    H2 7009   0.723   0.410   3.600
 2349TIP3   OH2 7010   0.343   5.499   3.486
 2349TIP3    H1 7011   0.304   5.437   3.546
 2349TIP3    H2 7012   0.414   5.451   3.444
 2350TIP3   OH2 7013   3.056   2.131   5.627
 2350TIP3    H1 7014   3.117   2.057   5.629
 2350TIP3    H2 7015   3.048   2.153   5.534
 2351TIP3   OH2 7016   5.470   3.034   5.021
 2351TIP3    H1 7017   5.533   2.970   4.987
 2351TIP3    H2 7018   5.457   3.008   5.112
 2352TIP3   OH2 7019   5.587   4.055   0.465
 2352TIP3    H1 7020   5.613   3.978   0.517
 2352TIP3    H2 7021   5.658   4.118   0.480
 2353TIP3   OH2 7022   0.472   6.403   4.492
 2353TIP3    H1 7023   0.418   6.439   4.422
 2353TIP3    H2 7024   0.557   6.444   4.480
 2354TIP3   OH2 7025   5.516   4.881   1.538
 2354TIP3    H1 7026   5.452   4.882   1.609
 2354TIP3    H2 7027   5.599   4.861   1.582
 2355TIP3   OH2 7028   4.947   2.390   3.527
 2355TIP3    H1 7029   4.914   2.371   3.439
 2355TIP3    H2 7030   4.911   2.477   3.547
 2356TIP3   OH2 7031   4.110   5.164   1.309
 2356TIP3    H1 7032   4.068   5.132   1.388
 2356TIP3    H2 7033   4.084   5.102   1.241
 2357TIP3   OH2 7034   1.503   2.528   5.389
 2357TIP3    H1 7035   1.555   2.467   5.336
 2357TIP3    H2 7036   1.532   2.615   5.362
 2358TIP3   OH2 7037   0.015   0.861   3.515
 2358TIP3    H1 7038  -0.002   0.866   3.609
 2358TIP3    H2 7039   0.087   0.922   3.500
 2359TIP3   OH2 7040   2.405   6.422   2.129
 2359TIP3    H1 7041   2.453   6.364   2.070
 2359TIP3    H2 7042   2.367   6.364   2.195
 2360TIP3   OH2 7043   2.720   4.299   0.237
 2360TIP3    H1 7044   2.762   4.213   0.234
 2360TIP3    H2 7045   2.644   4.287   0.294
 2361TIP3   OH2 7046   6.187   4.341   2.135
 2361TIP3    H1 7047   6.252   4.400   2.097
 2361TIP3    H2 7048   6.218   4.253   2.112
 2362TIP3   OH2 7049   4.890   6.334   1.772
 2362TIP3    H1 7050   4.884   6.283   1.852
 2362TIP3    H2 7051   4.982   6.360   1.766
 2363TIP3   OH2 7052   0.177   3.005   2.610
 2363TIP3    H1 7053   0.219   2.960   2.537
 2363TIP3    H2 7054   0.087   2.974   2.609
 2364TIP3   OH2 7055   4.771   6.085   5.761
 2364TIP3    H1 7056   4.828   6.009   5.751
 2364TIP3    H2 7057   4.683   6.048   5.769
 2365TIP3   OH2 7058   3.298   1.229   1.374
 2365TIP3    H1 7059   3.342   1.190   1.299
 2365TIP3    H2 7060   3.347   1.309   1.391
 2366TIP3   OH2 7061   6.829   0.756   0.954
 2366TIP3    H1 7062   6.753   0.761   1.012
 2366TIP3    H2 7063   6.893   0.704   1.002
 2367TIP3   OH2 7064   4.536   0.497   4.527
 2367TIP3    H1 7065   4.619   0.500   4.573
 2367TIP3    H2 7066   4.552   0.439   4.452
 2368TIP3   OH2 7067   4.840   3.472   0.847
 2368TIP3    H1 7068   4.892   3.530   0.903
 2368TIP3    H2 7069   4.820   3.397   0.903
 2369TIP3   OH2 7070   2.803   6.226   0.949
 2369TIP3    H1 7071   2.785   6.309   0.994
 2369TIP3    H2 7072   2.888   6.199   0.983
 2370TIP3   OH2 7073   0.396   2.019   0.883
 2370TIP3    H1 7074   0.393   2.024   0.978
 2370TIP3    H2 7075   0.393   1.925   0.864
 2371TIP3   OH2 7076   1.373   3.416   4.613
 2371TIP3    H1 7077   1.334   3.459   4.690
 2371TIP3    H2 7078   1.298   3.388   4.561
 2372TIP3   OH2 7079   0.318   6.590   4.934
 2372TIP3    H1 7080   0.389   6.641   4.972
 2372TIP3    H2 7081   0.263   6.565   5.009
 2373TIP3   OH2 7082   3.711   1.630   1.253
 2373TIP3    H1 7083   3.769   1.635   1.177
 2373TIP3    H2 7084   3.744   1.555   1.302
 2374TIP3   OH2 7085   0.936   4.521   0.151
 2374TIP3    H1 7086   0.867   4.535   0.216
 2374TIP3    H2 7087   0.897   4.465   0.085
 2375TIP3   OH2 7088   3.946   2.943   4.688
 2375TIP3    H1 7089   3.944   2.908   4.599
 2375TIP3    H2 7090   4.021   2.900   4.730
 2376TIP3   OH2 7091   1.744   4.678   0.487
 2376TIP3    H1 7092   1.751   4.610   0.420
 2376TIP3    H2 7093   1.656   4.713   0.476
 2377TIP3   OH2 7094   5.890   5.723   1.057
 2377TIP3    H1 7095   5.967   5.780   1.064
 2377TIP3    H2 7096   5.856   5.741   0.969
 2378TIP3   OH2 7097   4.758   3.710   3.226
 2378TIP3    H1 7098   4.739   3.772   3.156
 2378TIP3    H2 7099   4.849   3.684   3.211
 2379TIP3   OH2 7100   2.927   0.358   5.439
 2379TIP3    H1 7101   2.952   0.439   5.482
 2379TIP3    H2 7102   2.849   0.329   5.485
 2380TIP3   OH2 7103   3.219   2.930   4.931
 2380TIP3    H1 7104   3.189   2.870   4.862
 2380TIP3    H2 7105   3.180   3.014   4.908
 2381TIP3   OH2 7106   2.384   6.451   5.383
 2381TIP3    H1 7107   2.467   6.496   5.401
 2381TIP3    H2 7108   2.411   6.367   5.346
 2382TIP3   OH2 7109   6.547   4.306   1.847
 2382TIP3    H1 7110   6.560   4.227   1.898
 2382TIP3    H2 7111   6.535   4.275   1.757
 2383TIP3   OH2 7112   5.156   2.605   5.061
 2383TIP3    H1 7113   5.170   2.699   5.053
 2383TIP3    H2 7114   5.072   2.597   5.106
 2384TIP3   OH2 7115   6.207   5.310   1.310
 2384TIP3    H1 7116   6.184   5.275   1.396
 2384TIP3    H2 7117   6.256   5.390   1.329
 2385TIP3   OH2 7118   0.884   5.930   1.839
 2385TIP3    H1 7119   0.963   5.962   1.884
 2385TIP3    H2 7120   0.822   5.913   1.910
 2386TIP3   OH2 7121   0.410   1.974   1.832
 2386TIP3    H1 7122   0.436   1.965   1.924
 2386TIP3    H2 7123   0.468   1.915   1.785
 2387TIP3   OH2 7124   0.745   4.700   2.396
 2387TIP3    H1 7125   0.800   4.669   2.324
 2387TIP3    H2 7126   0.669   4.642   2.393
 2388TIP3   OH2 7127   4.695   2.187   5.315
 2388TIP3    H1 7128   4.735   2.103   5.339
 2388TIP3    H2 7129   4.715   2.244   5.389
 2389TIP3   OH2 7130   1.997   5.768   2.919
 2389TIP3    H1 7131   1.963   5.690   2.874
 2389TIP3    H2 7132   2.016   5.738   3.008
 2390TIP3   OH2 7133   0.630   4.863   4.393
 2390TIP3    H1 7134   0.722   4.860   4.419
 2390TIP3    H2 7135   0.588   4.795   4.446
 2391TIP3   OH2 7136   4.077   4.943   4.176
 2391TIP3    H1 7137   4.100   5.003   4.105
 2391TIP3    H2 7138   4.084   4.856   4.138
 2392TIP3   OH2 7139   7.137   0.291   4.794
 2392TIP3    H1 7140   7.093   0.369   4.828
 2392TIP3    H2 7141   7.075   0.220   4.809
 2393TIP3   OH2 7142   4.182   6.436   3.011
 2393TIP3    H1 7143   4.277   6.442   3.012
 2393TIP3    H2 7144   4.156   6.474   2.927
 2394TIP3   OH2 7145   3.526   6.015   1.526
 2394TIP3    H1 7146   3.469   6.062   1.465
 2394TIP3    H2 7147   3.478   5.934   1.546
 2395TIP3   OH2 7148   5.118   4.129   5.689
 2395TIP3    H1 7149   5.077   4.160   5.770
 2395TIP3    H2 7150   5.077   4.044   5.673
 2396TIP3   OH2 7151   1.474   3.850   4.112
 2396TIP3    H1 7152   1.511   3.935   4.089
 2396TIP3    H2 7153   1.390   3.847   4.066
 2397TIP3   OH2 7154   3.216   4.601   3.580
 2397TIP3    H1 7155   3.198   4.553   3.661
 2397TIP3    H2 7156   3.300   4.644   3.596
 2398TIP3   OH2 7157   4.125   6.515   4.693
 2398TIP3    H1 7158   4.051   6.523   4.633
 2398TIP3    H2 7159   4.199   6.551   4.644
 2399TIP3   OH2 7160   5.662   3.956   1.952
 2399TIP3    H1 7161   5.615   4.021   1.900
 2399TIP3    H2 7162   5.754   3.971   1.932
 2400TIP3   OH2 7163   6.974   5.631   0.158
 2400TIP3    H1 7164   6.945   5.707   0.209
 2400TIP3    H2 7165   6.942   5.648   0.070
 2401TIP3   OH2 7166   1.624   2.242   3.245
 2401TIP3    H1 7167   1.666   2.315   3.291
 2401TIP3    H2 7168   1.555   2.283   3.192
 2402TIP3   OH2 7169   1.638   3.214   0.837
 2402TIP3    H1 7170   1.666   3.265   0.761
 2402TIP3    H2 7171   1.716   3.163   0.862
 2403TIP3   OH2 7172   0.587   5.605   1.898
 2403TIP3    H1 7173   0.552   5.604   1.809
 2403TIP3    H2 7174   0.540   5.535   1.943
 2404TIP3   OH2 7175   3.227   4.586   4.501
 2404TIP3    H1 7176   3.147   4.579   4.554
 2404TIP3    H2 7177   3.296   4.549   4.556
 2405TIP3   OH2 7178   4.401   0.547   1.705
 2405TIP3    H1 7179   4.356   0.623   1.667
 2405TIP3    H2 7180   4.494   0.569   1.697
 2406TIP3   OH2 7181   0.083   1.117   1.687
 2406TIP3    H1 7182   0.013   1.052   1.683
 2406TIP3    H2 7183   0.060   1.172   1.762
 2407TIP3   OH2 7184   0.400   2.974   4.287
 2407TIP3    H1 7185   0.455   3.038   4.242
 2407TIP3    H2 7186   0.410   2.996   4.380
 2408TIP3   OH2 7187   6.944   6.406   3.921
 2408TIP3    H1 7188   6.922   6.351   3.846
 2408TIP3    H2 7189   7.040   6.404   3.924
 2409TIP3   OH2 7190   3.020   4.426   5.313
 2409TIP3    H1 7191   3.034   4.520   5.302
 2409TIP3    H2 7192   3.006   4.392   5.225
 2410TIP3   OH2 7193   0.762   0.966   5.291
 2410TIP3    H1 7194   0.773   0.882   5.247
 2410TIP3    H2 7195   0.825   1.024   5.249
 2411TIP3   OH2 7196   0.409   1.496   0.730
 2411TIP3    H1 7197   0.505   1.498   0.740
 2411TIP3    H2 7198   0.390   1.406   0.701
 2412TIP3   OH2 7199   4.224   3.831   0.447
 2412TIP3    H1 7200   4.178   3.819   0.531
 2412TIP3    H2 7201   4.293   3.895   0.467
 2413TIP3   OH2 7202   7.196   3.970   2.113
 2413TIP3    H1 7203   7.186   3.875   2.105
 2413TIP3    H2 7204   7.215   3.984   2.206
 2414TIP3   OH2 7205   4.093   2.354   2.935
 2414TIP3    H1 7206   4.152   2.427   2.951
 2414TIP3    H2 7207   4.005   2.393   2.939
 2415TIP3   OH2 7208   7.119   3.420   2.904
 2415TIP3    H1 7209   7.137   3.407   2.997
 2415TIP3    H2 7210   7.141   3.512   2.888
 2416TIP3   OH2 7211   6.172   3.650   0.480
 2416TIP3    H1 7212   6.116   3.633   0.555
 2416TIP3    H2 7213   6.254   3.605   0.500
 2417TIP3   OH2 7214   5.785   4.976   3.578
 2417TIP3    H1 7215   5.824   4.898   3.538
 2417TIP3    H2 7216   5.764   4.948   3.668
 2418TIP3   OH2 7217   5.739   5.892   3.938
 2418TIP3    H1 7218   5.819   5.928   3.900
 2418TIP3    H2 7219   5.726   5.941   4.019
 2419TIP3   OH2 7220   3.498   2.035   0.588
 2419TIP3    H1 7221   3.589   2.063   0.580
 2419TIP3    H2 7222   3.448   2.100   0.538
 2420TIP3   OH2 7223   7.081   5.071   0.518
 2420TIP3    H1 7224   7.038   4.987   0.536
 2420TIP3    H2 7225   7.057   5.092   0.427
 2421TIP3   OH2 7226   3.376   3.396   5.162
 2421TIP3    H1 7227   3.432   3.327   5.198
 2421TIP3    H2 7228   3.347   3.446   5.239
 2422TIP3   OH2 7229   0.734   6.516   4.468
 2422TIP3    H1 7230   0.815   6.482   4.430
 2422TIP3    H2 7231   0.761   6.596   4.513
 2423TIP3   OH2 7232   2.838   3.735   5.766
 2423TIP3    H1 7233   2.931   3.730   5.743
 2423TIP3    H2 7234   2.801   3.797   5.703
 2424TIP3   OH2 7235   4.400   2.258   3.014
 2424TIP3    H1 7236   4.361   2.194   3.074
 2424TIP3    H2 7237   4.437   2.205   2.943
 2425TIP3   OH2 7238   3.193   1.216   2.164
 2425TIP3    H1 7239   3.149   1.233   2.080
 2425TIP3    H2 7240   3.285   1.212   2.141
 2426TIP3   OH2 7241   1.641   1.073   2.952
 2426TIP3    H1 7242   1.602   1.019   3.021
 2426TIP3    H2 7243   1.578   1.069   2.880
 2427TIP3   OH2 7244   2.677   5.898   2.373
 2427TIP3    H1 7245   2.647   5.971   2.427
 2427TIP3    H2 7246   2.710   5.834   2.436
 2428TIP3   OH2 7247   2.977   6.543   5.355
 2428TIP3    H1 7248   3.008   6.464   5.400
 2428TIP3    H2 7249   3.049   6.605   5.361
 2429TIP3   OH2 7250   1.449   5.533   2.127
 2429TIP3    H1 7251   1.467   5.516   2.219
 2429TIP3    H2 7252   1.461   5.448   2.085
 2430TIP3   OH2 7253   5.620   3.647   5.660
 2430TIP3    H1 7254   5.549   3.630   5.723
 2430TIP3    H2 7255   5.674   3.713   5.703
 2431TIP3   OH2 7256   4.886   4.827   1.362
 2431TIP3    H1 7257   4.815   4.788   1.414
 2431TIP3    H2 7258   4.939   4.752   1.336
 2432TIP3   OH2 7259   7.227   2.974   4.138
 2432TIP3    H1 7260   7.187   3.058   4.114
 2432TIP3    H2 7261   7.199   2.914   4.068
 2433TIP3   OH2 7262   4.222   3.169   2.227
 2433TIP3    H1 7263   4.184   3.093   2.271
 2433TIP3    H2 7264   4.147   3.212   2.186
 2434TIP3   OH2 7265   6.064   1.579   5.542
 2434TIP3    H1 7266   6.030   1.660   5.579
 2434TIP3    H2 7267   6.009   1.562   5.466
 2435TIP3   OH2 7268   2.967   1.659   2.878
 2435TIP3    H1 7269   3.023   1.602   2.825
 2435TIP3    H2 7270   2.917   1.709   2.814
 2436TIP3   OH2 7271   6.880   2.482   4.663
 2436TIP3    H1 7272   6.951   2.527   4.710
 2436TIP3    H2 7273   6.923   2.446   4.585
 2437TIP3   OH2 7274   2.347   3.968   3.593
 2437TIP3    H1 7275   2.384   3.986   3.679
 2437TIP3    H2 7276   2.366   3.875   3.578
 2438TIP3   OH2 7277   3.448   5.833   3.989
 2438TIP3    H1 7278   3.443   5.822   3.894
 2438TIP3    H2 7279   3.541   5.822   4.009
 2439TIP3   OH2 7280   4.310   6.284   1.638
 2439TIP3    H1 7281   4.219   6.305   1.616
 2439TIP3    H2 7282   4.344   6.364   1.679
 2440TIP3   OH2 7283   4.654   2.643   5.309
 2440TIP3    H1 7284   4.670   2.656   5.402
 2440TIP3    H2 7285   4.681   2.553   5.292
 2441TIP3   OH2 7286   3.824   3.700   0.243
 2441TIP3    H1 7287   3.879   3.749   0.304
 2441TIP3    H2 7288   3.849   3.608   0.256
 2442TIP3   OH2 7289   2.322   2.691   5.208
 2442TIP3    H1 7290   2.263   2.638   5.260
 2442TIP3    H2 7291   2.292   2.680   5.118
 2443TIP3   OH2 7292   6.778   2.165   5.336
 2443TIP3    H1 7293   6.717   2.132   5.270
 2443TIP3    H2 7294   6.766   2.107   5.411
 2444TIP3   OH2 7295   0.249   1.818   4.975
 2444TIP3    H1 7296   0.332   1.775   4.994
 2444TIP3    H2 7297   0.257   1.848   4.885
 2445TIP3   OH2 7298   5.650   2.620   0.369
 2445TIP3    H1 7299   5.734   2.593   0.332
 2445TIP3    H2 7300   5.670   2.640   0.461
 2446TIP3   OH2 7301   3.762   5.581   5.570
 2446TIP3    H1 7302   3.704   5.654   5.592
 2446TIP3    H2 7303   3.712   5.530   5.506
 2447TIP3   OH2 7304   5.650   4.851   2.364
 2447TIP3    H1 7305   5.740   4.837   2.392
 2447TIP3    H2 7306   5.598   4.832   2.442
 2448TIP3   OH2 7307   3.304   6.451   5.720
 2448TIP3    H1 7308   3.379   6.477   5.666
 2448TIP3    H2 7309   3.232   6.506   5.689
 2449TIP3   OH2 7310   1.415   4.466   3.769
 2449TIP3    H1 7311   1.346   4.430   3.824
 2449TIP3    H2 7312   1.397   4.429   3.682
 2450TIP3   OH2 7313   3.061   5.980   4.717
 2450TIP3    H1 7314   3.059   5.942   4.629
 2450TIP3    H2 7315   3.139   6.035   4.717
 2451TIP3   OH2 7316   2.199   4.025   4.291
 2451TIP3    H1 7317   2.212   4.105   4.241
 2451TIP3    H2 7318   2.151   4.053   4.369
 2452TIP3   OH2 7319   4.410   3.639   2.514
 2452TIP3    H1 7320   4.470   3.666   2.445
 2452TIP3    H2 7321   4.340   3.705   2.512
 2453TIP3   OH2 7322   0.482   4.005   3.533
 2453TIP3    H1 7323   0.575   3.997   3.554
 2453TIP3    H2 7324   0.453   4.082   3.582
 2454TIP3   OH2 7325   0.493   4.645   5.640
 2454TIP3    H1 7326   0.523   4.731   5.610
 2454TIP3    H2 7327   0.512   4.586   5.566
 2455TIP3   OH2 7328   2.518   2.074   3.960
 2455TIP3    H1 7329   2.595   2.121   3.932
 2455TIP3    H2 7330   2.550   1.987   3.986
 2456TIP3   OH2 7331   5.206   5.156   3.294
 2456TIP3    H1 7332   5.297   5.185   3.303
 2456TIP3    H2 7333   5.210   5.091   3.224
 2457TIP3   OH2 7334   0.040   0.608   4.302
 2457TIP3    H1 7335   0.027   0.702   4.291
 2457TIP3    H2 7336   0.070   0.598   4.392
 2458TIP3   OH2 7337   0.030   5.224   0.114
 2458TIP3    H1 7338  -0.003   5.212   0.204
 2458TIP3    H2 7339   0.083   5.146   0.098
 2459TIP3   OH2 7340   3.332   4.043   1.312
 2459TIP3    H1 7341   3.342   3.994   1.394
 2459TIP3    H2 7342   3.278   4.119   1.336
 2460TIP3   OH2 7343   5.136   3.236   4.953
 2460TIP3    H1 7344   5.120   3.193   4.869
 2460TIP3    H2 7345   5.142   3.164   5.016
 2461TIP3   OH2 7346   2.496   0.358   0.387
 2461TIP3    H1 7347   2.522   0.448   0.408
 2461TIP3    H2 7348   2.467   0.363   0.296
 2462TIP3   OH2 7349   1.253   3.060   4.053
 2462TIP3    H1 7350   1.332   3.074   4.001
 2462TIP3    H2 7351   1.283   3.066   4.144
 2463TIP3   OH2 7352   1.952   1.003   5.045
 2463TIP3    H1 7353   1.931   1.096   5.054
 2463TIP3    H2 7354   2.034   0.992   5.093
 2464TIP3   OH2 7355   2.707   3.549   1.629
 2464TIP3    H1 7356   2.616   3.517   1.632
 2464TIP3    H2 7357   2.713   3.596   1.546
 2465TIP3   OH2 7358   6.919   0.863   4.978
 2465TIP3    H1 7359   6.965   0.780   4.983
 2465TIP3    H2 7360   6.950   0.913   5.053
 2466TIP3   OH2 7361   1.026   6.689   2.571
 2466TIP3    H1 7362   0.959   6.634   2.531
 2466TIP3    H2 7363   0.982   6.729   2.646
 2467TIP3   OH2 7364   2.984   2.719   5.063
 2467TIP3    H1 7365   3.049   2.650   5.047
 2467TIP3    H2 7366   2.922   2.679   5.124
 2468TIP3   OH2 7367   2.443   4.623   2.007
 2468TIP3    H1 7368   2.456   4.689   1.940
 2468TIP3    H2 7369   2.454   4.670   2.090
 2469TIP3   OH2 7370   2.353   0.260   0.614
 2469TIP3    H1 7371   2.410   0.271   0.537
 2469TIP3    H2 7372   2.379   0.331   0.673
 2470TIP3   OH2 7373   0.076   4.557   0.983
 2470TIP3    H1 7374   0.091   4.607   1.064
 2470TIP3    H2 7375   0.084   4.622   0.913
 2471TIP3   OH2 7376   4.037   6.025   3.781
 2471TIP3    H1 7377   3.972   5.992   3.719
 2471TIP3    H2 7378   4.025   5.972   3.859
 2472TIP3   OH2 7379   0.769   3.261   1.150
 2472TIP3    H1 7380   0.794   3.235   1.061
 2472TIP3    H2 7381   0.828   3.213   1.207
 2473TIP3   OH2 7382   5.525   4.401   5.382
 2473TIP3    H1 7383   5.597   4.404   5.446
 2473TIP3    H2 7384   5.453   4.359   5.429
 2474TIP3   OH2 7385   1.197   0.849   3.629
 2474TIP3    H1 7386   1.196   0.850   3.533
 2474TIP3    H2 7387   1.179   0.758   3.652
 2475TIP3   OH2 7388   4.951   1.762   4.710
 2475TIP3    H1 7389   5.039   1.791   4.686
 2475TIP3    H2 7390   4.965   1.678   4.754
 2476TIP3   OH2 7391   0.374   1.093   0.086
 2476TIP3    H1 7392   0.426   1.168   0.115
 2476TIP3    H2 7393   0.435   1.040   0.033
 2477TIP3   OH2 7394   1.758   0.033   0.280
 2477TIP3    H1 7395   1.697   0.100   0.309
 2477TIP3    H2 7396   1.715  -0.050   0.302
 2478TIP3   OH2 7397   6.783   2.012   3.870
 2478TIP3    H1 7398   6.863   2.006   3.817
 2478TIP3    H2 7399   6.782   2.102   3.902
 2479TIP3   OH2 7400   6.923   3.624   0.318
 2479TIP3    H1 7401   6.878   3.549   0.356
 2479TIP3    H2 7402   6.970   3.588   0.243
 2480TIP3   OH2 7403   0.003   2.787   1.255
 2480TIP3    H1 7404   0.005   2.693   1.275
 2480TIP3    H2 7405   0.095   2.813   1.253
 2481TIP3   OH2 7406   6.871   6.044   5.800
 2481TIP3    H1 7407   6.828   5.969   5.841
 2481TIP3    H2 7408   6.883   6.018   5.709
 2482TIP3   OH2 7409   6.365   1.373   2.809
 2482TIP3    H1 7410   6.440   1.400   2.863
 2482TIP3    H2 7411   6.310   1.451   2.804
 2483TIP3   OH2 7412   7.272   5.220   0.710
 2483TIP3    H1 7413   7.233   5.182   0.632
 2483TIP3    H2 7414   7.197   5.243   0.766
 2484TIP3   OH2 7415   1.612   6.346   3.325
 2484TIP3    H1 7416   1.699   6.381   3.346
 2484TIP3    H2 7417   1.588   6.386   3.242
 2485TIP3   OH2 7418   4.970   5.838   2.096
 2485TIP3    H1 7419   5.058   5.862   2.126
 2485TIP3    H2 7420   4.936   5.782   2.165
 2486TIP3   OH2 7421   0.101   2.491   1.031
 2486TIP3    H1 7422   0.179   2.455   0.990
 2486TIP3    H2 7423   0.092   2.579   0.993
 2487TIP3   OH2 7424   0.797   4.676   4.050
 2487TIP3    H1 7425   0.764   4.668   3.960
 2487TIP3    H2 7426   0.864   4.608   4.056
 2488TIP3   OH2 7427   6.465   5.394   2.577
 2488TIP3    H1 7428   6.473   5.356   2.489
 2488TIP3    H2 7429   6.375   5.374   2.603
 2489TIP3   OH2 7430   5.006   5.933   3.676
 2489TIP3    H1 7431   5.042   6.022   3.674
 2489TIP3    H2 7432   5.035   5.894   3.593
 2490TIP3   OH2 7433   0.088   4.644   4.171
 2490TIP3    H1 7434   0.152   4.630   4.240
 2490TIP3    H2 7435   0.044   4.726   4.194
 2491TIP3   OH2 7436   2.179   0.998   5.258
 2491TIP3    H1 7437   2.229   0.996   5.339
 2491TIP3    H2 7438   2.156   1.090   5.246
 2492TIP3   OH2 7439   1.012   5.223   1.022
 2492TIP3    H1 7440   1.100   5.185   1.025
 2492TIP3    H2 7441   0.972   5.186   0.944
 2493TIP3   OH2 7442   5.248   4.678   5.340
 2493TIP3    H1 7443   5.333   4.677   5.385
 2493TIP3    H2 7444   5.206   4.596   5.366
 2494TIP3   OH2 7445   3.854   2.859   0.147
 2494TIP3    H1 7446   3.882   2.877   0.237
 2494TIP3    H2 7447   3.826   2.944   0.114
 2495TIP3   OH2 7448   0.776   1.950   1.375
 2495TIP3    H1 7449   0.798   1.863   1.340
 2495TIP3    H2 7450   0.846   1.970   1.437
 2496TIP3   OH2 7451   6.585   6.490   3.911
 2496TIP3    H1 7452   6.503   6.514   3.868
 2496TIP3    H2 7453   6.607   6.405   3.873
 2497TIP3   OH2 7454   3.435   6.354   2.823
 2497TIP3    H1 7455   3.457   6.261   2.828
 2497TIP3    H2 7456   3.515   6.397   2.794
 2498TIP3   OH2 7457   6.674   4.608   4.313
 2498TIP3    H1 7458   6.589   4.574   4.340
 2498TIP3    H2 7459   6.699   4.553   4.239
 2499TIP3   OH2 7460   0.996   1.477   2.681
 2499TIP3    H1 7461   1.083   1.470   2.641
 2499TIP3    H2 7462   0.954   1.548   2.633
 2500TIP3   OH2 7463   5.086   6.722   0.923
 2500TIP3    H1 7464   5.053   6.806   0.955
 2500TIP3    H2 7465   5.181   6.731   0.923
 2501TIP3   OH2 7466   6.218   1.898   5.549
 2501TIP3    H1 7467   6.244   1.820   5.499
 2501TIP3    H2 7468   6.219   1.969   5.485
 2502TIP3   OH2 7469   4.371   5.037   1.525
 2502TIP3    H1 7470   4.353   4.996   1.610
 2502TIP3    H2 7471   4.322   5.120   1.528
 2503TIP3   OH2 7472   3.862   2.862   3.803
 2503TIP3    H1 7473   3.801   2.933   3.783
 2503TIP3    H2 7474   3.860   2.805   3.726
 2504TIP3   OH2 7475   2.111   3.690   0.957
 2504TIP3    H1 7476   2.111   3.615   1.016
 2504TIP3    H2 7477   2.051   3.665   0.886
 2505TIP3   OH2 7478   6.901   3.458   2.604
 2505TIP3    H1 7479   6.840   3.491   2.670
 2505TIP3    H2 7480   6.845   3.432   2.530
 2506TIP3   OH2 7481   5.159   4.644   1.891
 2506TIP3    H1 7482   5.114   4.575   1.939
 2506TIP3    H2 7483   5.209   4.692   1.958
 2507TIP3   OH2 7484   3.526   4.415   2.605
 2507TIP3    H1 7485   3.568   4.406   2.519
 2507TIP3    H2 7486   3.594   4.447   2.663
 2508TIP3   OH2 7487   6.764   3.241   0.950
 2508TIP3    H1 7488   6.835   3.214   1.007
 2508TIP3    H2 7489   6.780   3.334   0.933
 2509TIP3   OH2 7490   1.627   0.545   4.566
 2509TIP3    H1 7491   1.721   0.529   4.578
 2509TIP3    H2 7492   1.614   0.636   4.593
 2510TIP3   OH2 7493   0.867   5.815   3.842
 2510TIP3    H1 7494   0.823   5.882   3.789
 2510TIP3    H2 7495   0.950   5.799   3.797
 2511TIP3   OH2 7496   1.986   6.544   1.086
 2511TIP3    H1 7497   2.019   6.482   1.151
 2511TIP3    H2 7498   1.897   6.515   1.068
 2512TIP3   OH2 7499   1.016   2.966   4.533
 2512TIP3    H1 7500   0.964   3.030   4.582
 2512TIP3    H2 7501   1.067   3.018   4.471
 2513TIP3   OH2 7502   6.998   5.447   2.139
 2513TIP3    H1 7503   7.034   5.518   2.191
 2513TIP3    H2 7504   7.002   5.371   2.196
 2514TIP3   OH2 7505   1.237   6.096   1.054
 2514TIP3    H1 7506   1.311   6.117   1.111
 2514TIP3    H2 7507   1.270   6.027   0.996
 2515TIP3   OH2 7508   5.779   5.149   1.077
 2515TIP3    H1 7509   5.772   5.236   1.036
 2515TIP3    H2 7510   5.824   5.095   1.012
 2516TIP3   OH2 7511   2.405   6.153   4.391
 2516TIP3    H1 7512   2.398   6.062   4.419
 2516TIP3    H2 7513   2.326   6.168   4.340
 2517TIP3   OH2 7514   3.954   6.158   0.586
 2517TIP3    H1 7515   3.898   6.112   0.648
 2517TIP3    H2 7516   3.934   6.119   0.501
 2518TIP3   OH2 7517   4.458   3.786   4.955
 2518TIP3    H1 7518   4.545   3.820   4.936
 2518TIP3    H2 7519   4.468   3.691   4.949
 2519TIP3   OH2 7520   0.149   4.556   3.469
 2519TIP3    H1 7521   0.213   4.618   3.433
 2519TIP3    H2 7522   0.105   4.520   3.392
 2520TIP3   OH2 7523   3.272   3.978   4.893
 2520TIP3    H1 7524   3.366   3.961   4.903
 2520TIP3    H2 7525   3.266   4.051   4.832
 2521TIP3   OH2 7526   6.999   3.510   2.285
 2521TIP3    H1 7527   6.937   3.532   2.355
 2521TIP3    H2 7528   7.023   3.419   2.302
 2522TIP3   OH2 7529   0.736   2.687   0.800
 2522TIP3    H1 7530   0.784   2.611   0.831
 2522TIP3    H2 7531   0.788   2.762   0.828
 2523TIP3   OH2 7532   6.101   6.041   5.238
 2523TIP3    H1 7533   6.172   6.057   5.301
 2523TIP3    H2 7534   6.109   5.948   5.216
 2524TIP3   OH2 7535   2.654   2.673   1.571
 2524TIP3    H1 7536   2.609   2.595   1.540
 2524TIP3    H2 7537   2.640   2.673   1.665
 2525TIP3   OH2 7538   4.280   6.667   1.281
 2525TIP3    H1 7539   4.355   6.647   1.225
 2525TIP3    H2 7540   4.228   6.587   1.281
 2526TIP3   OH2 7541   2.539   6.743   3.753
 2526TIP3    H1 7542   2.623   6.788   3.746
 2526TIP3    H2 7543   2.559   6.652   3.729
 2527TIP3   OH2 7544   1.913   3.266   5.742
 2527TIP3    H1 7545   1.959   3.198   5.692
 2527TIP3    H2 7546   1.868   3.319   5.676
 2528TIP3   OH2 7547   2.019   5.471   2.242
 2528TIP3    H1 7548   1.932   5.489   2.205
 2528TIP3    H2 7549   2.052   5.557   2.268
 2529TIP3   OH2 7550   5.783   1.094   2.891
 2529TIP3    H1 7551   5.735   1.079   2.809
 2529TIP3    H2 7552   5.757   1.021   2.947
 2530TIP3   OH2 7553   6.286   2.327   3.657
 2530TIP3    H1 7554   6.293   2.411   3.704
 2530TIP3    H2 7555   6.192   2.315   3.643
 2531TIP3   OH2 7556   1.244   2.478   0.459
 2531TIP3    H1 7557   1.162   2.499   0.503
 2531TIP3    H2 7558   1.237   2.518   0.373
 2532TIP3   OH2 7559   6.352   4.244   5.306
 2532TIP3    H1 7560   6.315   4.171   5.355
 2532TIP3    H2 7561   6.332   4.321   5.358
 2533TIP3   OH2 7562   6.917   6.629   5.400
 2533TIP3    H1 7563   6.915   6.644   5.305
 2533TIP3    H2 7564   6.847   6.682   5.435
 2534TIP3   OH2 7565   5.997   3.973   2.867
 2534TIP3    H1 7566   6.033   3.892   2.829
 2534TIP3    H2 7567   6.041   4.043   2.820
 2535TIP3   OH2 7568   6.578   0.265   3.867
 2535TIP3    H1 7569   6.670   0.255   3.841
 2535TIP3    H2 7570   6.567   0.359   3.881
 2536TIP3   OH2 7571   4.175   2.972   1.526
 2536TIP3    H1 7572   4.114   2.999   1.595
 2536TIP3    H2 7573   4.231   3.048   1.512
 2537TIP3   OH2 7574   3.917   2.758   1.656
 2537TIP3    H1 7575   3.859   2.821   1.698
 2537TIP3    H2 7576   3.878   2.672   1.676
 2538TIP3   OH2 7577   2.301   5.888   4.706
 2538TIP3    H1 7578   2.385   5.903   4.663
 2538TIP3    H2 7579   2.251   5.967   4.690
 2539TIP3   OH2 7580   2.996   4.343   2.725
 2539TIP3    H1 7581   3.089   4.325   2.732
 2539TIP3    H2 7582   2.989   4.438   2.728
 2540TIP3   OH2 7583   0.478   4.694   4.067
 2540TIP3    H1 7584   0.442   4.778   4.097
 2540TIP3    H2 7585   0.563   4.717   4.029
 2541TIP3   OH2 7586   0.690   4.177   4.179
 2541TIP3    H1 7587   0.685   4.272   4.167
 2541TIP3    H2 7588   0.599   4.148   4.185
 2542TIP3   OH2 7589   0.929   2.840   3.424
 2542TIP3    H1 7590   1.017   2.806   3.404
 2542TIP3    H2 7591   0.919   2.914   3.365
 2543TIP3   OH2 7592   2.069   3.782   4.461
 2543TIP3    H1 7593   2.101   3.719   4.526
 2543TIP3    H2 7594   2.105   3.751   4.378
 2544TIP3   OH2 7595   4.038   2.844   3.018
 2544TIP3    H1 7596   4.070   2.878   2.934
 2544TIP3    H2 7597   4.116   2.837   3.072
 2545TIP3   OH2 7598   4.324   6.690   0.619
 2545TIP3    H1 7599   4.366   6.769   0.585
 2545TIP3    H2 7600   4.246   6.679   0.565
 2546TIP3   OH2 7601   1.895   2.190   4.306
 2546TIP3    H1 7602   1.837   2.217   4.377
 2546TIP3    H2 7603   1.844   2.202   4.226
 2547TIP3   OH2 7604   4.099   0.132   2.335
 2547TIP3    H1 7605   4.150   0.081   2.272
 2547TIP3    H2 7606   4.009   0.105   2.320
 2548TIP3   OH2 7607   1.978   1.941   5.467
 2548TIP3    H1 7608   2.046   1.882   5.499
 2548TIP3    H2 7609   1.984   2.017   5.525
 2549TIP3   OH2 7610   3.253   5.567   5.152
 2549TIP3    H1 7611   3.322   5.577   5.086
 2549TIP3    H2 7612   3.175   5.600   5.109
 2550TIP3   OH2 7613   1.712   4.455   3.506
 2550TIP3    H1 7614   1.766   4.507   3.566
 2550TIP3    H2 7615   1.738   4.483   3.419
 2551TIP3   OH2 7616   3.927   4.165   2.854
 2551TIP3    H1 7617   3.918   4.250   2.811
 2551TIP3    H2 7618   3.997   4.177   2.917
 2552TIP3   OH2 7619   1.224   0.821   1.882
 2552TIP3    H1 7620   1.277   0.742   1.880
 2552TIP3    H2 7621   1.268   0.881   1.822
 2553TIP3   OH2 7622   6.799   2.355   0.706
 2553TIP3    H1 7623   6.817   2.282   0.647
 2553TIP3    H2 7624   6.750   2.417   0.653
 2554TIP3   OH2 7625   3.387   4.860   1.484
 2554TIP3    H1 7626   3.396   4.835   1.575
 2554TIP3    H2 7627   3.313   4.920   1.482
 2555TIP3   OH2 7628   1.035   0.423   1.939
 2555TIP3    H1 7629   0.957   0.470   1.908
 2555TIP3    H2 7630   1.019   0.332   1.913
 2556TIP3   OH2 7631   5.287   0.693   4.749
 2556TIP3    H1 7632   5.315   0.775   4.707
 2556TIP3    H2 7633   5.193   0.690   4.734
 2557TIP3   OH2 7634   1.196   0.069   1.326
 2557TIP3    H1 7635   1.271   0.010   1.333
 2557TIP3    H2 7636   1.217   0.125   1.251
 2558TIP3   OH2 7637   1.240   5.678   1.970
 2558TIP3    H1 7638   1.309   5.619   2.003
 2558TIP3    H2 7639   1.283   5.730   1.902
 2559TIP3   OH2 7640   5.396   6.803   3.667
 2559TIP3    H1 7641   5.474   6.748   3.661
 2559TIP3    H2 7642   5.332   6.761   3.610
 2560TIP3   OH2 7643   1.895   5.058   1.104
 2560TIP3    H1 7644   1.925   4.983   1.157
 2560TIP3    H2 7645   1.907   5.030   1.014
 2561TIP3   OH2 7646   0.732   2.519   5.836
 2561TIP3    H1 7647   0.795   2.447   5.849
 2561TIP3    H2 7648   0.648   2.482   5.863
 2562TIP3   OH2 7649   2.077   4.940   0.867
 2562TIP3    H1 7650   1.995   4.940   0.817
 2562TIP3    H2 7651   2.116   5.026   0.849
 2563TIP3   OH2 7652   3.311   2.061   3.122
 2563TIP3    H1 7653   3.279   2.039   3.035
 2563TIP3    H2 7654   3.276   2.149   3.139
 2564TIP3   OH2 7655   6.776   2.713   5.430
 2564TIP3    H1 7656   6.707   2.687   5.368
 2564TIP3    H2 7657   6.728   2.742   5.508
 2565TIP3   OH2 7658   2.531   5.519   0.795
 2565TIP3    H1 7659   2.605   5.481   0.748
 2565TIP3    H2 7660   2.470   5.545   0.727
 2566TIP3   OH2 7661   0.368   0.636   0.133
 2566TIP3    H1 7662   0.374   0.679   0.048
 2566TIP3    H2 7663   0.459   0.630   0.163
 2567TIP3   OH2 7664   7.003   1.281   3.478
 2567TIP3    H1 7665   7.024   1.214   3.543
 2567TIP3    H2 7666   6.942   1.340   3.522
 2568TIP3   OH2 7667   4.212   6.780   0.078
 2568TIP3    H1 7668   4.132   6.730   0.089
 2568TIP3    H2 7669   4.239   6.762  -0.012
 2569TIP3   OH2 7670   0.862   4.240   2.380
 2569TIP3    H1 7671   0.953   4.212   2.380
 2569TIP3    H2 7672   0.835   4.234   2.472
 2570TIP3   OH2 7673   3.312   6.748   3.092
 2570TIP3    H1 7674   3.266   6.692   3.029
 2570TIP3    H2 7675   3.262   6.739   3.173
 2571TIP3   OH2 7676   5.848   3.976   0.040
 2571TIP3    H1 7677   5.874   3.885   0.052
 2571TIP3    H2 7678   5.919   4.027   0.079
 2572TIP3   OH2 7679   4.224   5.711   3.661
 2572TIP3    H1 7680   4.178   5.782   3.706
 2572TIP3    H2 7681   4.312   5.711   3.698
 2573TIP3   OH2 7682   2.333   6.681   5.209
 2573TIP3    H1 7683   2.420   6.706   5.176
 2573TIP3    H2 7684   2.351   6.640   5.293
 2574TIP3   OH2 7685   1.540   2.727   2.630
 2574TIP3    H1 7686   1.499   2.803   2.587
 2574TIP3    H2 7687   1.550   2.754   2.721
 2575TIP3   OH2 7688   3.677   3.209   4.441
 2575TIP3    H1 7689   3.699   3.280   4.380
 2575TIP3    H2 7690   3.750   3.207   4.503
 2576TIP3   OH2 7691   1.044   1.191   4.848
 2576TIP3    H1 7692   0.981   1.190   4.777
 2576TIP3    H2 7693   1.092   1.274   4.837
 2577TIP3   OH2 7694   3.216   0.611   3.276
 2577TIP3    H1 7695   3.274   0.567   3.214
 2577TIP3    H2 7696   3.263   0.690   3.301
 2578TIP3   OH2 7697   3.643   5.997   5.262
 2578TIP3    H1 7698   3.604   6.030   5.181
 2578TIP3    H2 7699   3.571   5.953   5.307
 2579TIP3   OH2 7700   2.432   3.672   4.244
 2579TIP3    H1 7701   2.471   3.626   4.319
 2579TIP3    H2 7702   2.466   3.761   4.251
 2580TIP3   OH2 7703   7.016   4.974   2.414
 2580TIP3    H1 7704   6.935   4.967   2.464
 2580TIP3    H2 7705   7.051   4.885   2.413
 2581TIP3   OH2 7706   1.047   0.621   1.647
 2581TIP3    H1 7707   1.036   0.665   1.732
 2581TIP3    H2 7708   1.138   0.640   1.623
 2582TIP3   OH2 7709   5.684   5.022   4.178
 2582TIP3    H1 7710   5.630   4.960   4.130
 2582TIP3    H2 7711   5.641   5.106   4.167
 2583TIP3   OH2 7712   6.905   2.548   5.014
 2583TIP3    H1 7713   6.956   2.597   4.949
 2583TIP3    H2 7714   6.968   2.527   5.083
 2584TIP3   OH2 7715   3.178   3.253   4.587
 2584TIP3    H1 7716   3.143   3.340   4.604
 2584TIP3    H2 7717   3.234   3.234   4.662
 2585TIP3   OH2 7718   6.966   3.904   2.564
 2585TIP3    H1 7719   6.946   3.982   2.616
 2585TIP3    H2 7720   6.881   3.864   2.548
 2586TIP3   OH2 7721   3.922   6.735   2.143
 2586TIP3    H1 7722   3.970   6.818   2.142
 2586TIP3    H2 7723   3.900   6.719   2.051
 2587TIP3   OH2 7724   6.808   3.534   5.804
 2587TIP3    H1 7725   6.805   3.623   5.769
 2587TIP3    H2 7726   6.772   3.480   5.734
 2588TIP3   OH2 7727   2.841   0.527   3.525
 2588TIP3    H1 7728   2.895   0.587   3.473
 2588TIP3    H2 7729   2.779   0.584   3.571
 2589TIP3   OH2 7730   6.057   4.595   2.552
 2589TIP3    H1 7731   6.051   4.526   2.486
 2589TIP3    H2 7732   6.151   4.611   2.562
 2590TIP3   OH2 7733   5.167   1.916   3.661
 2590TIP3    H1 7734   5.139   1.831   3.627
 2590TIP3    H2 7735   5.106   1.979   3.623
 2591TIP3   OH2 7736   6.015   6.721   4.300
 2591TIP3    H1 7737   6.080   6.692   4.364
 2591TIP3    H2 7738   5.954   6.775   4.350
 2592TIP3   OH2 7739   0.148   3.110   3.107
 2592TIP3    H1 7740   0.162   3.073   3.020
 2592TIP3    H2 7741   0.203   3.058   3.164
 2593TIP3   OH2 7742   6.715   1.447   1.066
 2593TIP3    H1 7743   6.793   1.481   1.022
 2593TIP3    H2 7744   6.743   1.366   1.107
 2594TIP3   OH2 7745   5.699   3.621   0.992
 2594TIP3    H1 7746   5.723   3.547   0.936
 2594TIP3    H2 7747   5.661   3.581   1.070
 2595TIP3   OH2 7748   3.315   4.650   5.605
 2595TIP3    H1 7749   3.299   4.616   5.517
 2595TIP3    H2 7750   3.361   4.733   5.591
 2596TIP3   OH2 7751   2.918   1.395   2.271
 2596TIP3    H1 7752   2.881   1.309   2.289
 2596TIP3    H2 7753   2.989   1.378   2.209
 2597TIP3   OH2 7754   3.875   5.852   3.061
 2597TIP3    H1 7755   3.930   5.930   3.063
 2597TIP3    H2 7756   3.871   5.828   2.968
 2598TIP3   OH2 7757   3.539   1.824   4.772
 2598TIP3    H1 7758   3.545   1.906   4.821
 2598TIP3    H2 7759   3.475   1.772   4.820
 2599TIP3   OH2 7760   0.438   4.294   0.417
 2599TIP3    H1 7761   0.379   4.347   0.365
 2599TIP3    H2 7762   0.381   4.236   0.468
 2600TIP3   OH2 7763   5.710   0.825   0.957
 2600TIP3    H1 7764   5.706   0.804   1.051
 2600TIP3    H2 7765   5.620   0.849   0.935
 2601TIP3   OH2 7766   6.992   4.357   4.222
 2601TIP3    H1 7767   6.945   4.284   4.183
 2601TIP3    H2 7768   7.080   4.352   4.184
 2602TIP3   OH2 7769   2.178   1.673   1.941
 2602TIP3    H1 7770   2.129   1.755   1.935
 2602TIP3    H2 7771   2.251   1.692   1.999
 2603TIP3   OH2 7772   2.221   1.591   0.130
 2603TIP3    H1 7773   2.314   1.602   0.151
 2603TIP3    H2 7774   2.219   1.521   0.065
 2604TIP3   OH2 7775   4.568   4.337   0.417
 2604TIP3    H1 7776   4.506   4.393   0.463
 2604TIP3    H2 7777   4.547   4.248   0.446
 2605TIP3   OH2 7778   5.654   5.419   2.875
 2605TIP3    H1 7779   5.559   5.413   2.861
 2605TIP3    H2 7780   5.667   5.508   2.908
 2606TIP3   OH2 7781   3.193   3.129   0.515
 2606TIP3    H1 7782   3.102   3.146   0.541
 2606TIP3    H2 7783   3.236   3.102   0.596
 2607TIP3   OH2 7784   1.604   3.199   2.088
 2607TIP3    H1 7785   1.638   3.204   1.998
 2607TIP3    H2 7786   1.618   3.286   2.124
 2608TIP3   OH2 7787   7.210   0.576   5.314
 2608TIP3    H1 7788   7.183   0.556   5.224
 2608TIP3    H2 7789   7.223   0.671   5.314
 2609TIP3   OH2 7790   0.047   2.114   1.161
 2609TIP3    H1 7791  -0.023   2.120   1.226
 2609TIP3    H2 7792   0.008   2.144   1.079
 2610TIP3   OH2 7793   2.843   1.080   2.748
 2610TIP3    H1 7794   2.813   1.127   2.826
 2610TIP3    H2 7795   2.933   1.109   2.736
 2611TIP3   OH2 7796   4.515   4.138   0.797
 2611TIP3    H1 7797   4.511   4.112   0.705
 2611TIP3    H2 7798   4.591   4.197   0.802
 2612TIP3   OH2 7799   0.097   4.130   0.965
 2612TIP3    H1 7800   0.132   4.215   0.994
 2612TIP3    H2 7801   0.138   4.115   0.880
 2613TIP3   OH2 7802   0.291   2.028   5.740
 2613TIP3    H1 7803   0.203   2.066   5.750
 2613TIP3    H2 7804   0.283   1.970   5.665
 2614TIP3   OH2 7805   0.814   2.602   2.634
 2614TIP3    H1 7806   0.829   2.519   2.589
 2614TIP3    H2 7807   0.816   2.580   2.727
 2615TIP3   OH2 7808   1.028   3.846   0.318
 2615TIP3    H1 7809   1.039   3.779   0.252
 2615TIP3    H2 7810   1.117   3.880   0.334
 2616TIP3   OH2 7811   7.100   4.471   5.718
 2616TIP3    H1 7812   7.084   4.410   5.646
 2616TIP3    H2 7813   7.183   4.513   5.695
 2617TIP3   OH2 7814   6.965   0.548   3.394
 2617TIP3    H1 7815   6.996   0.566   3.306
 2617TIP3    H2 7816   6.966   0.633   3.438
 2618TIP3   OH2 7817   4.166   2.816   1.778
 2618TIP3    H1 7818   4.088   2.789   1.731
 2618TIP3    H2 7819   4.164   2.912   1.776
 2619TIP3   OH2 7820   6.372   1.140   2.937
 2619TIP3    H1 7821   6.343   1.065   2.885
 2619TIP3    H2 7822   6.352   1.216   2.882
 2620TIP3   OH2 7823   0.756   1.044   0.952
 2620TIP3    H1 7824   0.666   1.055   0.921
 2620TIP3    H2 7825   0.799   0.991   0.885
 2621TIP3   OH2 7826   5.719   2.784   4.534
 2621TIP3    H1 7827   5.715   2.835   4.615
 2621TIP3    H2 7828   5.799   2.813   4.491
 2622TIP3   OH2 7829   0.592   2.374   1.070
 2622TIP3    H1 7830   0.632   2.460   1.085
 2622TIP3    H2 7831   0.641   2.314   1.126
 2623TIP3   OH2 7832   1.739   4.024   2.509
 2623TIP3    H1 7833   1.757   4.018   2.602
 2623TIP3    H2 7834   1.690   3.944   2.489
 2624TIP3   OH2 7835   2.963   0.702   3.338
 2624TIP3    H1 7836   2.932   0.750   3.261
 2624TIP3    H2 7837   3.038   0.652   3.305
 2625TIP3   OH2 7838   5.841   6.331   3.935
 2625TIP3    H1 7839   5.873   6.255   3.984
 2625TIP3    H2 7840   5.885   6.406   3.976
 2626TIP3   OH2 7841   2.433   0.863   1.861
 2626TIP3    H1 7842   2.353   0.880   1.811
 2626TIP3    H2 7843   2.402   0.831   1.946
 2627TIP3   OH2 7844   0.491   5.730   1.622
 2627TIP3    H1 7845   0.460   5.757   1.536
 2627TIP3    H2 7846   0.578   5.693   1.607
 2628TIP3   OH2 7847   5.107   0.926   4.542
 2628TIP3    H1 7848   5.198   0.927   4.512
 2628TIP3    H2 7849   5.074   1.013   4.518
 2629TIP3   OH2 7850   1.905   6.034   0.371
 2629TIP3    H1 7851   1.938   6.014   0.283
 2629TIP3    H2 7852   1.976   6.084   0.412
 2630TIP3   OH2 7853   2.295   2.398   5.008
 2630TIP3    H1 7854   2.389   2.408   4.990
 2630TIP3    H2 7855   2.286   2.308   5.040
 2631TIP3   OH2 7856   1.364   5.911   0.892
 2631TIP3    H1 7857   1.445   5.904   0.942
 2631TIP3    H2 7858   1.367   5.837   0.830
 2632TIP3   OH2 7859   5.780   3.799   3.381
 2632TIP3    H1 7860   5.758   3.782   3.473
 2632TIP3    H2 7861   5.865   3.843   3.384
 2633TIP3   OH2 7862   6.274   0.097   4.859
 2633TIP3    H1 7863   6.270   0.183   4.818
 2633TIP3    H2 7864   6.194   0.091   4.911
 2634TIP3   OH2 7865   4.243   5.284   5.804
 2634TIP3    H1 7866   4.260   5.348   5.873
 2634TIP3    H2 7867   4.203   5.334   5.733
 2635TIP3   OH2 7868   4.828   6.334   5.664
 2635TIP3    H1 7869   4.901   6.337   5.602
 2635TIP3    H2 7870   4.809   6.241   5.673
 2636TIP3   OH2 7871   6.247   0.882   3.610
 2636TIP3    H1 7872   6.199   0.922   3.682
 2636TIP3    H2 7873   6.305   0.951   3.577
 2637TIP3   OH2 7874   3.792   1.039   3.799
 2637TIP3    H1 7875   3.729   1.110   3.809
 2637TIP3    H2 7876   3.777   0.982   3.875
 2638TIP3   OH2 7877   3.515   4.569   0.353
 2638TIP3    H1 7878   3.452   4.497   0.356
 2638TIP3    H2 7879   3.541   4.575   0.261
 2639TIP3   OH2 7880   2.297   2.386   3.622
 2639TIP3    H1 7881   2.261   2.317   3.565
 2639TIP3    H2 7882   2.311   2.343   3.706
 2640TIP3   OH2 7883   0.415   3.563   0.094
 2640TIP3    H1 7884   0.352   3.632   0.113
 2640TIP3    H2 7885   0.488   3.579   0.153
 2641TIP3   OH2 7886   1.625   0.487   5.520
 2641TIP3    H1 7887   1.663   0.548   5.456
 2641TIP3    H2 7888   1.699   0.435   5.550
 2642TIP3   OH2 7889   0.916   3.086   2.232
 2642TIP3    H1 7890   0.839   3.072   2.288
 2642TIP3    H2 7891   0.889   3.156   2.172
 2643TIP3   OH2 7892   3.744   0.248   2.479
 2643TIP3    H1 7893   3.791   0.203   2.408
 2643TIP3    H2 7894   3.718   0.332   2.441
 2644TIP3   OH2 7895   6.566   5.285   0.790
 2644TIP3    H1 7896   6.659   5.271   0.804
 2644TIP3    H2 7897   6.559   5.315   0.699
 2645TIP3   OH2 7898   5.298   1.797   2.188
 2645TIP3    H1 7899   5.245   1.719   2.180
 2645TIP3    H2 7900   5.388   1.766   2.182
 2646TIP3   OH2 7901   4.302   1.094   1.045
 2646TIP3    H1 7902   4.218   1.136   1.030
 2646TIP3    H2 7903   4.285   1.000   1.032
 2647TIP3   OH2 7904   5.949   6.756   5.770
 2647TIP3    H1 7905   6.008   6.795   5.835
 2647TIP3    H2 7906   5.874   6.725   5.822
 2648TIP3   OH2 7907   5.840   4.592   1.338
 2648TIP3    H1 7908   5.861   4.676   1.380
 2648TIP3    H2 7909   5.905   4.531   1.373
 2649TIP3   OH2 7910   4.338   6.660   2.529
 2649TIP3    H1 7911   4.312   6.752   2.540
 2649TIP3    H2 7912   4.433   6.663   2.518
 2650TIP3   OH2 7913   6.648   6.707   5.461
 2650TIP3    H1 7914   6.612   6.702   5.549
 2650TIP3    H2 7915   6.581   6.668   5.405
 2651TIP3   OH2 7916   0.467   0.220   4.014
 2651TIP3    H1 7917   0.428   0.136   3.988
 2651TIP3    H2 7918   0.459   0.276   3.937
 2652TIP3   OH2 7919   4.922   5.066   2.493
 2652TIP3    H1 7920   4.998   5.107   2.452
 2652TIP3    H2 7921   4.909   5.114   2.575
 2653TIP3   OH2 7922   7.207   6.384   0.758
 2653TIP3    H1 7923   7.236   6.322   0.825
 2653TIP3    H2 7924   7.133   6.429   0.797
 2654TIP3   OH2 7925   2.874   6.465   0.487
 2654TIP3    H1 7926   2.958   6.432   0.454
 2654TIP3    H2 7927   2.809   6.429   0.427
 2655TIP3   OH2 7928   5.770   2.515   2.195
 2655TIP3    H1 7929   5.683   2.523   2.157
 2655TIP3    H2 7930   5.801   2.428   2.169
 2656TIP3   OH2 7931   2.132   4.882   5.722
 2656TIP3    H1 7932   2.212   4.831   5.737
 2656TIP3    H2 7933   2.068   4.844   5.782
 2657TIP3   OH2 7934   0.911   3.490   0.043
 2657TIP3    H1 7935   0.821   3.478   0.013
 2657TIP3    H2 7936   0.923   3.422   0.110
 2658TIP3   OH2 7937   1.868   0.461   5.783
 2658TIP3    H1 7938   1.899   0.402   5.852
 2658TIP3    H2 7939   1.802   0.515   5.826
 2659TIP3   OH2 7940   6.418   0.188   3.204
 2659TIP3    H1 7941   6.511   0.203   3.190
 2659TIP3    H2 7942   6.387   0.268   3.247
 2660TIP3   OH2 7943   2.260   1.832   0.836
 2660TIP3    H1 7944   2.238   1.850   0.927
 2660TIP3    H2 7945   2.265   1.918   0.794
 2661TIP3   OH2 7946   4.589   6.669   5.094
 2661TIP3    H1 7947   4.503   6.671   5.137
 2661TIP3    H2 7948   4.645   6.724   5.149
 2662TIP3   OH2 7949   6.017   3.587   4.507
 2662TIP3    H1 7950   6.030   3.663   4.563
 2662TIP3    H2 7951   6.010   3.623   4.419
 2663TIP3   OH2 7952   5.769   3.806   2.861
 2663TIP3    H1 7953   5.693   3.861   2.847
 2663TIP3    H2 7954   5.841   3.867   2.875
 2664TIP3   OH2 7955   6.870   5.074   5.163
 2664TIP3    H1 7956   6.858   5.162   5.127
 2664TIP3    H2 7957   6.921   5.088   5.243
 2665TIP3   OH2 7958   6.560   1.966   0.749
 2665TIP3    H1 7959   6.550   2.021   0.826
 2665TIP3    H2 7960   6.525   2.019   0.677
 2666TIP3   OH2 7961   2.830   5.064   0.772
 2666TIP3    H1 7962   2.910   5.115   0.784
 2666TIP3    H2 7963   2.859   4.982   0.734
 2667TIP3   OH2 7964   2.308   6.134   5.073
 2667TIP3    H1 7965   2.220   6.135   5.110
 2667TIP3    H2 7966   2.306   6.064   5.008
 2668TIP3   OH2 7967   1.338   2.202   4.143
 2668TIP3    H1 7968   1.285   2.240   4.213
 2668TIP3    H2 7969   1.413   2.163   4.189
 2669TIP3   OH2 7970   1.678   4.793   0.935
 2669TIP3    H1 7971   1.621   4.725   0.898
 2669TIP3    H2 7972   1.766   4.770   0.906
 2670TIP3   OH2 7973   3.303   1.893   2.470
 2670TIP3    H1 7974   3.312   1.950   2.394
 2670TIP3    H2 7975   3.385   1.902   2.517
 2671TIP3   OH2 7976   4.810   0.475   4.582
 2671TIP3    H1 7977   4.806   0.431   4.667
 2671TIP3    H2 7978   4.846   0.562   4.602
 2672TIP3   OH2 7979   1.759   4.859   5.771
 2672TIP3    H1 7980   1.754   4.942   5.723
 2672TIP3    H2 7981   1.744   4.792   5.704
 2673TIP3   OH2 7982   3.562   2.870   1.562
 2673TIP3    H1 7983   3.560   2.813   1.486
 2673TIP3    H2 7984   3.637   2.928   1.547
 2674TIP3   OH2 7985   4.168   2.316   3.280
 2674TIP3    H1 7986   4.173   2.395   3.334
 2674TIP3    H2 7987   4.223   2.335   3.204
 2675TIP3   OH2 7988   5.375   4.199   5.094
 2675TIP3    H1 7989   5.460   4.165   5.069
 2675TIP3    H2 7990   5.390   4.292   5.111
 2676TIP3   OH2 7991   1.913   0.639   2.323
 2676TIP3    H1 7992   1.826   0.600   2.312
 2676TIP3    H2 7993   1.896   0.722   2.368
 2677TIP3   OH2 7994   6.044   4.376   1.394
 2677TIP3    H1 7995   6.136   4.381   1.422
 2677TIP3    H2 7996   6.002   4.323   1.461
 2678TIP3   OH2 7997   1.206   5.567   3.703
 2678TIP3    H1 7998   1.206   5.600   3.793
 2678TIP3    H2 7999   1.182   5.644   3.650
 2679TIP3   OH2 8000   2.480   6.211   5.296
 2679TIP3    H1 8001   2.563   6.165   5.306
 2679TIP3    H2 8002   2.441   6.174   5.217
 2680TIP3   OH2 8003   0.893   0.803   5.057
 2680TIP3    H1 8004   0.966   0.864   5.040
 2680TIP3    H2 8005   0.822   0.835   5.003
 2681TIP3   OH2 8006   2.475   6.245   1.546
 2681TIP3    H1 8007   2.415   6.176   1.574
 2681TIP3    H2 8008   2.526   6.205   1.476
 2682TIP3   OH2 8009   0.391   5.147   2.737
 2682TIP3    H1 8010   0.424   5.121   2.651
 2682TIP3    H2 8011   0.461   5.200   2.774
 2683TIP3   OH2 8012   0.242   0.390   1.887
 2683TIP3    H1 8013   0.213   0.457   1.825
 2683TIP3    H2 8014   0.170   0.384   1.950
 2684TIP3   OH2 8015   6.048   0.719   5.740
 2684TIP3    H1 8016   6.026   0.810   5.723
 2684TIP3    H2 8017   6.080   0.686   5.656
 2685TIP3   OH2 8018   3.885   5.942   4.545
 2685TIP3    H1 8019   3.827   5.925   4.471
 2685TIP3    H2 8020   3.851   6.023   4.583
 2686TIP3   OH2 8021   1.815   1.936   0.536
 2686TIP3    H1 8022   1.780   1.869   0.477
 2686TIP3    H2 8023   1.870   1.991   0.481
 2687TIP3   OH2 8024   1.324   6.673   3.504
 2687TIP3    H1 8025   1.261   6.611   3.467
 2687TIP3    H2 8026   1.351   6.632   3.586
 2688TIP3   OH2 8027   0.523   2.604   3.830
 2688TIP3    H1 8028   0.591   2.616   3.764
 2688TIP3    H2 8029   0.541   2.518   3.869
 2689TIP3   OH2 8030   4.254   1.455   5.125
 2689TIP3    H1 8031   4.338   1.424   5.159
 2689TIP3    H2 8032   4.259   1.550   5.134
 2690TIP3   OH2 8033   3.103   5.451   4.130
 2690TIP3    H1 8034   3.052   5.465   4.050
 2690TIP3    H2 8035   3.190   5.426   4.098
 2691TIP3   OH2 8036   4.032   1.695   4.780
 2691TIP3    H1 8037   3.975   1.768   4.754
 2691TIP3    H2 8038   3.996   1.666   4.865
 2692TIP3   OH2 8039   1.363   3.158   0.856
 2692TIP3    H1 8040   1.451   3.194   0.857
 2692TIP3    H2 8041   1.376   3.063   0.860
 2693TIP3   OH2 8042   3.142   1.848   5.511
 2693TIP3    H1 8043   3.223   1.826   5.465
 2693TIP3    H2 8044   3.155   1.816   5.600
 2694TIP3   OH2 8045   6.335   4.751   5.446
 2694TIP3    H1 8046   6.339   4.660   5.415
 2694TIP3    H2 8047   6.412   4.760   5.503
 2695TIP3   OH2 8048   1.989   0.332   3.860
 2695TIP3    H1 8049   2.007   0.238   3.853
 2695TIP3    H2 8050   1.939   0.353   3.781
 2696TIP3   OH2 8051   3.478   1.446   1.094
 2696TIP3    H1 8052   3.551   1.452   1.033
 2696TIP3    H2 8053   3.462   1.352   1.103
 2697TIP3   OH2 8054   2.273   4.747   2.942
 2697TIP3    H1 8055   2.365   4.773   2.953
 2697TIP3    H2 8056   2.265   4.666   2.992
 2698TIP3   OH2 8057   1.821   2.409   5.425
 2698TIP3    H1 8058   1.862   2.332   5.387
 2698TIP3    H2 8059   1.740   2.421   5.376
 2699TIP3   OH2 8060   6.083   5.187   5.518
 2699TIP3    H1 8061   6.117   5.272   5.491
 2699TIP3    H2 8062   6.143   5.123   5.479
 2700TIP3   OH2 8063   3.067   4.382   4.115
 2700TIP3    H1 8064   3.158   4.410   4.105
 2700TIP3    H2 8065   3.057   4.312   4.050
 2701TIP3   OH2 8066   2.469   3.115   3.908
 2701TIP3    H1 8067   2.453   3.078   3.822
 2701TIP3    H2 8068   2.396   3.083   3.962
 2702TIP3   OH2 8069   0.061   2.720   1.559
 2702TIP3    H1 8070   0.101   2.690   1.641
 2702TIP3    H2 8071   0.007   2.645   1.531
 2703TIP3   OH2 8072   4.237   1.454   3.130
 2703TIP3    H1 8073   4.256   1.511   3.056
 2703TIP3    H2 8074   4.194   1.377   3.091
 2704TIP3   OH2 8075   1.808   6.439   5.767
 2704TIP3    H1 8076   1.793   6.532   5.781
 2704TIP3    H2 8077   1.862   6.435   5.688
 2705TIP3   OH2 8078   6.503   3.548   4.322
 2705TIP3    H1 8079   6.534   3.639   4.319
 2705TIP3    H2 8080   6.529   3.517   4.409
 2706TIP3   OH2 8081   0.158   2.006   4.055
 2706TIP3    H1 8082   0.069   2.035   4.036
 2706TIP3    H2 8083   0.149   1.955   4.136
 2707TIP3   OH2 8084   5.434   4.455   4.596
 2707TIP3    H1 8085   5.516   4.503   4.604
 2707TIP3    H2 8086   5.417   4.450   4.502
 2708TIP3   OH2 8087   0.164   1.456   2.157
 2708TIP3    H1 8088   0.218   1.535   2.153
 2708TIP3    H2 8089   0.143   1.445   2.249
 2709TIP3   OH2 8090   3.418   5.494   4.145
 2709TIP3    H1 8091   3.495   5.547   4.126
 2709TIP3    H2 8092   3.422   5.480   4.240
 2710TIP3   OH2 8093   0.929   1.314   3.843
 2710TIP3    H1 8094   0.914   1.232   3.890
 2710TIP3    H2 8095   0.868   1.311   3.770
 2711TIP3   OH2 8096   4.111   0.077   3.269
 2711TIP3    H1 8097   4.081   0.001   3.318
 2711TIP3    H2 8098   4.031   0.125   3.247
 2712TIP3   OH2 8099   4.665   5.608   4.071
 2712TIP3    H1 8100   4.718   5.536   4.038
 2712TIP3    H2 8101   4.628   5.575   4.153
 2713TIP3   OH2 8102   0.455   5.792   2.977
 2713TIP3    H1 8103   0.451   5.886   2.995
 2713TIP3    H2 8104   0.498   5.787   2.891
 2714TIP3   OH2 8105   0.042   4.694   3.674
 2714TIP3    H1 8106   0.078   4.645   3.601
 2714TIP3    H2 8107   0.088   4.659   3.751
 2715TIP3   OH2 8108   5.802   3.418   2.425
 2715TIP3    H1 8109   5.770   3.341   2.377
 2715TIP3    H2 8110   5.746   3.421   2.503
 2716TIP3   OH2 8111   2.714   3.046   0.655
 2716TIP3    H1 8112   2.622   3.018   0.646
 2716TIP3    H2 8113   2.764   2.970   0.624
 2717TIP3   OH2 8114   5.451   4.961   3.026
 2717TIP3    H1 8115   5.367   4.921   3.047
 2717TIP3    H2 8116   5.430   5.051   3.001
 2718TIP3   OH2 8117   4.798   6.025   3.213
 2718TIP3    H1 8118   4.831   5.974   3.139
 2718TIP3    H2 8119   4.858   6.099   3.220
 2719TIP3   OH2 8120   5.884   0.402   3.944
 2719TIP3    H1 8121   5.793   0.379   3.926
 2719TIP3    H2 8122   5.929   0.386   3.861
 2720TIP3   OH2 8123   0.607   2.220   0.858
 2720TIP3    H1 8124   0.607   2.261   0.945
 2720TIP3    H2 8125   0.523   2.173   0.854
 2721TIP3   OH2 8126   3.554   1.169   0.897
 2721TIP3    H1 8127   3.521   1.136   0.813
 2721TIP3    H2 8128   3.590   1.256   0.876
 2722TIP3   OH2 8129   2.008   3.959   2.458
 2722TIP3    H1 8130   2.070   3.980   2.529
 2722TIP3    H2 8131   1.922   3.982   2.494
 2723TIP3   OH2 8132   6.364   6.478   1.215
 2723TIP3    H1 8133   6.427   6.513   1.277
 2723TIP3    H2 8134   6.362   6.384   1.233
 2724TIP3   OH2 8135   4.452   5.590   2.299
 2724TIP3    H1 8136   4.422   5.622   2.384
 2724TIP3    H2 8137   4.535   5.546   2.318
 2725TIP3   OH2 8138   0.067   1.308   3.712
 2725TIP3    H1 8139   0.081   1.276   3.623
 2725TIP3    H2 8140  -0.026   1.291   3.728
 2726TIP3   OH2 8141   3.686   2.529   2.318
 2726TIP3    H1 8142   3.777   2.551   2.298
 2726TIP3    H2 8143   3.638   2.554   2.240
 2727TIP3   OH2 8144   2.539   4.250   5.549
 2727TIP3    H1 8145   2.509   4.213   5.467
 2727TIP3    H2 8146   2.620   4.296   5.527
 2728TIP3   OH2 8147   3.749   3.519   3.469
 2728TIP3    H1 8148   3.683   3.588   3.471
 2728TIP3    H2 8149   3.749   3.484   3.558
 2729TIP3   OH2 8150   4.936   1.953   2.090
 2729TIP3    H1 8151   4.940   1.966   2.185
 2729TIP3    H2 8152   4.877   2.023   2.060
 2730TIP3   OH2 8153   3.269   0.929   2.054
 2730TIP3    H1 8154   3.260   0.837   2.080
 2730TIP3    H2 8155   3.183   0.953   2.020
 2731TIP3   OH2 8156   0.064   1.565   3.807
 2731TIP3    H1 8157   0.092   1.481   3.769
 2731TIP3    H2 8158  -0.016   1.544   3.855
 2732TIP3   OH2 8159   1.715   4.867   2.547
 2732TIP3    H1 8160   1.761   4.818   2.615
 2732TIP3    H2 8161   1.784   4.915   2.501
 2733TIP3   OH2 8162   5.638   6.209   2.230
 2733TIP3    H1 8163   5.689   6.289   2.241
 2733TIP3    H2 8164   5.590   6.222   2.148
 2734TIP3   OH2 8165   0.579   5.612   3.180
 2734TIP3    H1 8166   0.667   5.643   3.201
 2734TIP3    H2 8167   0.543   5.679   3.122
 2735TIP3   OH2 8168   6.851   2.030   4.627
 2735TIP3    H1 8169   6.858   1.934   4.626
 2735TIP3    H2 8170   6.862   2.053   4.719
 2736TIP3   OH2 8171   3.517   3.172   2.177
 2736TIP3    H1 8172   3.548   3.152   2.088
 2736TIP3    H2 8173   3.426   3.144   2.177
 2737TIP3   OH2 8174   3.031   1.241   0.963
 2737TIP3    H1 8175   2.975   1.180   1.010
 2737TIP3    H2 8176   3.080   1.288   1.031
 2738TIP3   OH2 8177   2.404   3.481   5.861
 2738TIP3    H1 8178   2.454   3.478   5.943
 2738TIP3    H2 8179   2.444   3.552   5.811
 2739TIP3   OH2 8180   5.437   2.548   2.975
 2739TIP3    H1 8181   5.468   2.543   2.885
 2739TIP3    H2 8182   5.367   2.614   2.973
 2740TIP3   OH2 8183   1.370   3.495   4.123
 2740TIP3    H1 8184   1.387   3.549   4.200
 2740TIP3    H2 8185   1.440   3.430   4.123
 2741TIP3   OH2 8186   5.806   5.995   2.280
 2741TIP3    H1 8187   5.744   6.068   2.273
 2741TIP3    H2 8188   5.754   5.917   2.263
 2742TIP3   OH2 8189   4.920   0.165   2.244
 2742TIP3    H1 8190   4.900   0.072   2.235
 2742TIP3    H2 8191   5.014   0.172   2.225
 2743TIP3   OH2 8192   2.835   5.715   2.534
 2743TIP3    H1 8193   2.917   5.704   2.485
 2743TIP3    H2 8194   2.804   5.625   2.549
 2744TIP3   OH2 8195   0.841   6.524   2.455
 2744TIP3    H1 8196   0.775   6.519   2.524
 2744TIP3    H2 8197   0.854   6.434   2.427
 2745TIP3   OH2 8198   2.525   5.635   5.239
 2745TIP3    H1 8199   2.578   5.706   5.204
 2745TIP3    H2 8200   2.487   5.670   5.319
 2746TIP3   OH2 8201   1.589   1.016   5.273
 2746TIP3    H1 8202   1.625   0.946   5.219
 2746TIP3    H2 8203   1.546   1.075   5.211
 2747TIP3   OH2 8204   3.831   4.700   2.262
 2747TIP3    H1 8205   3.740   4.687   2.234
 2747TIP3    H2 8206   3.828   4.778   2.316
 2748TIP3   OH2 8207   1.064   5.133   2.058
 2748TIP3    H1 8208   1.076   5.174   1.972
 2748TIP3    H2 8209   1.058   5.039   2.038
 2749TIP3   OH2 8210   7.055   2.363   1.119
 2749TIP3    H1 8211   7.049   2.377   1.214
 2749TIP3    H2 8212   7.123   2.425   1.091
 2750TIP3   OH2 8213   5.360   5.066   4.347
 2750TIP3    H1 8214   5.426   5.131   4.370
 2750TIP3    H2 8215   5.365   5.000   4.416
 2751TIP3   OH2 8216   1.797   0.134   1.872
 2751TIP3    H1 8217   1.762   0.049   1.846
 2751TIP3    H2 8218   1.734   0.198   1.837
 2752TIP3   OH2 8219   0.596   3.790   4.389
 2752TIP3    H1 8220   0.514   3.839   4.393
 2752TIP3    H2 8221   0.611   3.761   4.479
 2753TIP3   OH2 8222   7.179   0.751   1.869
 2753TIP3    H1 8223   7.255   0.746   1.928
 2753TIP3    H2 8224   7.169   0.662   1.836
 2754TIP3   OH2 8225   1.241   6.542   1.377
 2754TIP3    H1 8226   1.227   6.608   1.309
 2754TIP3    H2 8227   1.291   6.588   1.445
 2755TIP3   OH2 8228   5.035   4.066   2.707
 2755TIP3    H1 8229   4.971   4.064   2.636
 2755TIP3    H2 8230   4.993   4.018   2.778
 2756TIP3   OH2 8231   6.640   5.137   4.088
 2756TIP3    H1 8232   6.583   5.103   4.019
 2756TIP3    H2 8233   6.604   5.224   4.107
 2757TIP3   OH2 8234   6.227   6.725   2.872
 2757TIP3    H1 8235   6.323   6.733   2.870
 2757TIP3    H2 8236   6.208   6.692   2.960
 2758TIP3   OH2 8237   5.252   1.906   3.925
 2758TIP3    H1 8238   5.331   1.852   3.931
 2758TIP3    H2 8239   5.219   1.890   3.836
 2759TIP3   OH2 8240   4.920   5.858   5.703
 2759TIP3    H1 8241   4.997   5.915   5.709
 2759TIP3    H2 8242   4.956   5.769   5.704
 2760TIP3   OH2 8243   3.996   4.981   5.574
 2760TIP3    H1 8244   3.927   5.031   5.617
 2760TIP3    H2 8245   3.957   4.953   5.491
 2761TIP3   OH2 8246   2.456   6.412   2.812
 2761TIP3    H1 8247   2.452   6.339   2.875
 2761TIP3    H2 8248   2.408   6.483   2.854
 2762TIP3   OH2 8249   2.573   6.372   5.024
 2762TIP3    H1 8250   2.510   6.312   5.064
 2762TIP3    H2 8251   2.638   6.388   5.093
 2763TIP3   OH2 8252   3.390   2.891   2.217
 2763TIP3    H1 8253   3.370   2.840   2.295
 2763TIP3    H2 8254   3.467   2.848   2.179
 2764TIP3   OH2 8255   5.905   4.171   2.455
 2764TIP3    H1 8256   5.974   4.154   2.520
 2764TIP3    H2 8257   5.939   4.132   2.374
 2765TIP3   OH2 8258   2.238   3.281   1.990
 2765TIP3    H1 8259   2.292   3.298   2.067
 2765TIP3    H2 8260   2.262   3.192   1.962
 2766TIP3   OH2 8261   4.947   2.885   4.507
 2766TIP3    H1 8262   4.879   2.938   4.467
 2766TIP3    H2 8263   5.008   2.865   4.436
 2767TIP3   OH2 8264   1.201   5.377   3.025
 2767TIP3    H1 8265   1.121   5.337   3.061
 2767TIP3    H2 8266   1.171   5.460   2.989
 2768TIP3   OH2 8267   2.407   1.255   1.642
 2768TIP3    H1 8268   2.484   1.303   1.611
 2768TIP3    H2 8269   2.441   1.199   1.712
 2769TIP3   OH2 8270   0.624   6.420   2.808
 2769TIP3    H1 8271   0.591   6.342   2.765
 2769TIP3    H2 8272   0.711   6.396   2.840
 2770TIP3   OH2 8273   6.114   6.556   3.671
 2770TIP3    H1 8274   6.085   6.574   3.582
 2770TIP3    H2 8275   6.140   6.641   3.705
 2771TIP3   OH2 8276   0.868   4.434   5.602
 2771TIP3    H1 8277   0.914   4.491   5.663
 2771TIP3    H2 8278   0.936   4.377   5.566
 2772TIP3   OH2 8279   5.865   6.639   1.243
 2772TIP3    H1 8280   5.807   6.666   1.172
 2772TIP3    H2 8281   5.901   6.721   1.277
 2773TIP3   OH2 8282   2.639   5.063   4.867
 2773TIP3    H1 8283   2.667   5.002   4.935
 2773TIP3    H2 8284   2.596   5.134   4.914
 2774TIP3   OH2 8285   0.555   4.268   3.309
 2774TIP3    H1 8286   0.477   4.248   3.361
 2774TIP3    H2 8287   0.596   4.342   3.355
 2775TIP3   OH2 8288   4.505   4.460   0.654
 2775TIP3    H1 8289   4.421   4.417   0.670
 2775TIP3    H2 8290   4.539   4.480   0.741
 2776TIP3   OH2 8291   6.322   4.436   0.409
 2776TIP3    H1 8292   6.315   4.345   0.436
 2776TIP3    H2 8293   6.232   4.462   0.389
 2777TIP3   OH2 8294   6.723   2.810   0.854
 2777TIP3    H1 8295   6.647   2.754   0.841
 2777TIP3    H2 8296   6.769   2.770   0.929
 2778TIP3   OH2 8297   5.380   5.085   2.769
 2778TIP3    H1 8298   5.397   5.179   2.775
 2778TIP3    H2 8299   5.446   5.052   2.708
 2779TIP3   OH2 8300   0.612   1.212   4.765
 2779TIP3    H1 8301   0.523   1.247   4.761
 2779TIP3    H2 8302   0.664   1.273   4.713
 2780TIP3   OH2 8303   1.104   0.520   0.411
 2780TIP3    H1 8304   1.105   0.543   0.504
 2780TIP3    H2 8305   1.164   0.582   0.370
 2781TIP3   OH2 8306   5.831   3.319   3.482
 2781TIP3    H1 8307   5.891   3.328   3.557
 2781TIP3    H2 8308   5.842   3.401   3.434
 2782TIP3   OH2 8309   0.288   6.102   3.298
 2782TIP3    H1 8310   0.366   6.136   3.342
 2782TIP3    H2 8311   0.217   6.115   3.361
 2783TIP3   OH2 8312   2.911   4.383   1.560
 2783TIP3    H1 8313   2.915   4.325   1.484
 2783TIP3    H2 8314   2.871   4.331   1.628
 2784TIP3   OH2 8315   3.891   3.202   0.004
 2784TIP3    H1 8316   3.854   3.119  -0.025
 2784TIP3    H2 8317   3.921   3.186   0.093
 2785TIP3   OH2 8318   1.278   3.089   2.689
 2785TIP3    H1 8319   1.300   3.111   2.599
 2785TIP3    H2 8320   1.228   3.165   2.721
 2786TIP3   OH2 8321   0.206   4.414   0.286
 2786TIP3    H1 8322   0.212   4.508   0.271
 2786TIP3    H2 8323   0.123   4.403   0.332
 2787TIP3   OH2 8324   4.890   0.789   0.345
 2787TIP3    H1 8325   4.840   0.868   0.365
 2787TIP3    H2 8326   4.981   0.815   0.357
 2788TIP3   OH2 8327   6.931   3.457   0.664
 2788TIP3    H1 8328   6.863   3.516   0.696
 2788TIP3    H2 8329   7.004   3.469   0.725
 2789TIP3   OH2 8330   1.359   5.167   4.098
 2789TIP3    H1 8331   1.300   5.210   4.036
 2789TIP3    H2 8332   1.442   5.158   4.051
 2790TIP3   OH2 8333   5.292   1.823   2.968
 2790TIP3    H1 8334   5.363   1.759   2.971
 2790TIP3    H2 8335   5.300   1.872   3.050
 2791TIP3   OH2 8336   6.263   0.357   5.224
 2791TIP3    H1 8337   6.212   0.435   5.205
 2791TIP3    H2 8338   6.341   0.365   5.169
 2792TIP3   OH2 8339   6.702   4.274   5.013
 2792TIP3    H1 8340   6.606   4.263   5.012
 2792TIP3    H2 8341   6.730   4.237   5.096
 2793TIP3   OH2 8342   5.199   1.873   4.665
 2793TIP3    H1 8343   5.236   1.880   4.577
 2793TIP3    H2 8344   5.236   1.948   4.712
 2794TIP3   OH2 8345   4.921   6.499   3.235
 2794TIP3    H1 8346   4.962   6.413   3.243
 2794TIP3    H2 8347   4.898   6.522   3.325
 2795TIP3   OH2 8348   5.154   0.967   2.130
 2795TIP3    H1 8349   5.222   0.899   2.130
 2795TIP3    H2 8350   5.203   1.049   2.128
 2796TIP3   OH2 8351   3.014   5.130   2.967
 2796TIP3    H1 8352   3.066   5.120   3.046
 2796TIP3    H2 8353   2.928   5.159   2.998
 2797TIP3   OH2 8354   6.525   5.387   4.139
 2797TIP3    H1 8355   6.533   5.482   4.138
 2797TIP3    H2 8356   6.443   5.369   4.093
 2798TIP3   OH2 8357   1.137   3.579   2.925
 2798TIP3    H1 8358   1.053   3.622   2.944
 2798TIP3    H2 8359   1.183   3.579   3.008
 2799TIP3   OH2 8360   6.981   3.629   3.656
 2799TIP3    H1 8361   6.893   3.595   3.640
 2799TIP3    H2 8362   6.978   3.720   3.625
 2800TIP3   OH2 8363   3.838   2.380   5.513
 2800TIP3    H1 8364   3.848   2.460   5.461
 2800TIP3    H2 8365   3.886   2.313   5.464
 2801TIP3   OH2 8366   1.824   4.255   5.190
 2801TIP3    H1 8367   1.789   4.339   5.222
 2801TIP3    H2 8368   1.842   4.270   5.098
 2802TIP3   OH2 8369   0.426   4.403   3.925
 2802TIP3    H1 8370   0.374   4.438   3.852
 2802TIP3    H2 8371   0.450   4.315   3.897
 2803TIP3   OH2 8372   3.600   3.231   1.255
 2803TIP3    H1 8373   3.582   3.202   1.345
 2803TIP3    H2 8374   3.664   3.169   1.221
 2804TIP3   OH2 8375   3.471   2.199   3.346
 2804TIP3    H1 8376   3.420   2.265   3.298
 2804TIP3    H2 8377   3.419   2.119   3.338
 2805TIP3   OH2 8378   5.629   2.312   5.006
 2805TIP3    H1 8379   5.678   2.379   4.959
 2805TIP3    H2 8380   5.550   2.357   5.036
 2806TIP3   OH2 8381   5.529   5.824   0.704
 2806TIP3    H1 8382   5.456   5.800   0.761
 2806TIP3    H2 8383   5.520   5.919   0.692
 2807TIP3   OH2 8384   4.103   2.151   1.547
 2807TIP3    H1 8385   4.183   2.109   1.516
 2807TIP3    H2 8386   4.072   2.095   1.617
 2808TIP3   OH2 8387   1.481   2.480   5.658
 2808TIP3    H1 8388   1.412   2.414   5.669
 2808TIP3    H2 8389   1.501   2.478   5.564
 2809TIP3   OH2 8390   6.860   3.375   3.893
 2809TIP3    H1 8391   6.785   3.318   3.906
 2809TIP3    H2 8392   6.929   3.317   3.860
 2810TIP3   OH2 8393   3.659   2.028   2.457
 2810TIP3    H1 8394   3.729   1.972   2.490
 2810TIP3    H2 8395   3.608   2.052   2.535
 2811TIP3   OH2 8396   0.077   4.894   1.436
 2811TIP3    H1 8397   0.024   4.901   1.515
 2811TIP3    H2 8398   0.140   4.966   1.443
 2812TIP3   OH2 8399   2.674   2.306   4.207
 2812TIP3    H1 8400   2.657   2.215   4.233
 2812TIP3    H2 8401   2.588   2.343   4.192
 2813TIP3   OH2 8402   1.029   2.728   4.706
 2813TIP3    H1 8403   0.997   2.793   4.769
 2813TIP3    H2 8404   1.038   2.778   4.624
 2814TIP3   OH2 8405   3.254   0.533   4.469
 2814TIP3    H1 8406   3.248   0.529   4.373
 2814TIP3    H2 8407   3.242   0.625   4.490
 2815TIP3   OH2 8408   0.942   3.220   4.755
 2815TIP3    H1 8409   0.941   3.297   4.697
 2815TIP3    H2 8410   0.943   3.257   4.843
 2816TIP3   OH2 8411   1.059   2.420   1.578
 2816TIP3    H1 8412   1.117   2.399   1.651
 2816TIP3    H2 8413   1.096   2.499   1.540
 2817TIP3   OH2 8414   0.548   1.609   2.616
 2817TIP3    H1 8415   0.525   1.600   2.524
 2817TIP3    H2 8416   0.473   1.573   2.664
 2818TIP3   OH2 8417   7.135   5.441   4.619
 2818TIP3    H1 8418   7.130   5.377   4.548
 2818TIP3    H2 8419   7.203   5.406   4.678
 2819TIP3   OH2 8420   2.973   6.131   2.601
 2819TIP3    H1 8421   3.015   6.045   2.596
 2819TIP3    H2 8422   3.043   6.193   2.586
 2820TIP3   OH2 8423   1.293   0.678   1.535
 2820TIP3    H1 8424   1.320   0.770   1.542
 2820TIP3    H2 8425   1.369   0.632   1.501
 2821TIP3   OH2 8426   4.285   1.501   2.052
 2821TIP3    H1 8427   4.333   1.541   1.978
 2821TIP3    H2 8428   4.202   1.473   2.014
 2822TIP3   OH2 8429   3.822   5.697   3.833
 2822TIP3    H1 8430   3.853   5.732   3.750
 2822TIP3    H2 8431   3.767   5.623   3.809
 2823TIP3   OH2 8432   5.076   3.918   0.170
 2823TIP3    H1 8433   5.112   3.864   0.241
 2823TIP3    H2 8434   4.981   3.914   0.184
 2824TIP3   OH2 8435   6.113   4.551   0.285
 2824TIP3    H1 8436   6.102   4.479   0.224
 2824TIP3    H2 8437   6.052   4.532   0.356
 2825TIP3   OH2 8438   7.090   6.000   1.087
 2825TIP3    H1 8439   7.066   6.058   1.159
 2825TIP3    H2 8440   7.026   5.929   1.092
 2826TIP3   OH2 8441   6.511   2.788   3.161
 2826TIP3    H1 8442   6.470   2.829   3.086
 2826TIP3    H2 8443   6.546   2.861   3.213
 2827TIP3   OH2 8444   5.241   1.367   2.245
 2827TIP3    H1 8445   5.177   1.306   2.284
 2827TIP3    H2 8446   5.298   1.391   2.318
 2828TIP3   OH2 8447   5.869   3.317   5.450
 2828TIP3    H1 8448   5.919   3.352   5.523
 2828TIP3    H2 8449   5.802   3.262   5.491
 2829TIP3   OH2 8450   5.979   5.564   5.407
 2829TIP3    H1 8451   6.022   5.646   5.432
 2829TIP3    H2 8452   6.051   5.501   5.399
 2830TIP3   OH2 8453   0.526   3.524   0.873
 2830TIP3    H1 8454   0.468   3.489   0.805
 2830TIP3    H2 8455   0.530   3.455   0.939
 2831TIP3   OH2 8456   6.016   1.186   3.046
 2831TIP3    H1 8457   5.935   1.160   3.002
 2831TIP3    H2 8458   5.992   1.200   3.137
 2832TIP3   OH2 8459   2.217   3.152   1.122
 2832TIP3    H1 8460   2.211   3.058   1.102
 2832TIP3    H2 8461   2.303   3.178   1.090
 2833TIP3   OH2 8462   4.605   1.868   1.333
 2833TIP3    H1 8463   4.559   1.814   1.398
 2833TIP3    H2 8464   4.619   1.810   1.259
 2834TIP3   OH2 8465   1.633   4.363   3.117
 2834TIP3    H1 8466   1.693   4.403   3.180
 2834TIP3    H2 8467   1.594   4.438   3.071
 2835TIP3   OH2 8468   6.581   6.069   2.891
 2835TIP3    H1 8469   6.506   6.120   2.921
 2835TIP3    H2 8470   6.626   6.125   2.828
 2836TIP3   OH2 8471   3.848   3.177   0.289
 2836TIP3    H1 8472   3.777   3.228   0.328
 2836TIP3    H2 8473   3.847   3.095   0.337
 2837TIP3   OH2 8474   1.738   5.304   0.239
 2837TIP3    H1 8475   1.678   5.239   0.275
 2837TIP3    H2 8476   1.696   5.333   0.158
 2838TIP3   OH2 8477   4.132   2.477   3.518
 2838TIP3    H1 8478   4.164   2.530   3.590
 2838TIP3    H2 8479   4.140   2.387   3.548
 2839TIP3   OH2 8480   4.122   2.670   3.736
 2839TIP3    H1 8481   4.108   2.655   3.829
 2839TIP3    H2 8482   4.052   2.730   3.710
 2840TIP3   OH2 8483   3.056   3.821   2.364
 2840TIP3    H1 8484   3.082   3.730   2.353
 2840TIP3    H2 8485   3.128   3.861   2.413
 2841TIP3   OH2 8486   6.878   3.029   2.935
 2841TIP3    H1 8487   6.892   3.021   3.029
 2841TIP3    H2 8488   6.821   2.956   2.913
 2842TIP3   OH2 8489   0.669   1.679   4.799
 2842TIP3    H1 8490   0.628   1.709   4.881
 2842TIP3    H2 8491   0.596   1.648   4.746
 2843TIP3   OH2 8492   0.722   5.673   4.425
 2843TIP3    H1 8493   0.783   5.655   4.353
 2843TIP3    H2 8494   0.744   5.761   4.454
 2844TIP3   OH2 8495   6.272   6.415   4.354
 2844TIP3    H1 8496   6.286   6.411   4.448
 2844TIP3    H2 8497   6.356   6.389   4.316
 2845TIP3   OH2 8498   4.049   1.485   1.337
 2845TIP3    H1 8499   4.040   1.393   1.361
 2845TIP3    H2 8500   4.042   1.485   1.241
 2846TIP3   OH2 8501   1.817   1.610   3.825
 2846TIP3    H1 8502   1.740   1.576   3.780
 2846TIP3    H2 8503   1.832   1.547   3.896
 2847TIP3   OH2 8504   2.434   0.050   0.017
 2847TIP3    H1 8505   2.443   0.024   0.109
 2847TIP3    H2 8506   2.352   0.011  -0.011
 2848TIP3   OH2 8507   4.365   0.181   5.582
 2848TIP3    H1 8508   4.355   0.100   5.632
 2848TIP3    H2 8509   4.428   0.233   5.631
 2849TIP3   OH2 8510   5.585   4.570   0.883
 2849TIP3    H1 8511   5.620   4.615   0.959
 2849TIP3    H2 8512   5.524   4.633   0.843
 2850TIP3   OH2 8513   2.070   3.991   0.585
 2850TIP3    H1 8514   2.138   4.058   0.593
 2850TIP3    H2 8515   2.116   3.909   0.604
 2851TIP3   OH2 8516   3.895   1.661   4.428
 2851TIP3    H1 8517   3.983   1.669   4.467
 2851TIP3    H2 8518   3.839   1.636   4.501
 2852TIP3   OH2 8519   1.596   5.470   1.828
 2852TIP3    H1 8520   1.547   5.538   1.783
 2852TIP3    H2 8521   1.557   5.388   1.797
 2853TIP3   OH2 8522   2.279   1.314   2.607
 2853TIP3    H1 8523   2.321   1.235   2.642
 2853TIP3    H2 8524   2.186   1.292   2.604
 2854TIP3   OH2 8525   1.598   6.192   4.746
 2854TIP3    H1 8526   1.667   6.231   4.799
 2854TIP3    H2 8527   1.622   6.214   4.656
 2855TIP3   OH2 8528   6.292   3.860   1.799
 2855TIP3    H1 8529   6.226   3.811   1.849
 2855TIP3    H2 8530   6.291   3.820   1.712
 2856TIP3   OH2 8531   0.755   6.638   0.476
 2856TIP3    H1 8532   0.675   6.601   0.515
 2856TIP3    H2 8533   0.739   6.732   0.474
 2857TIP3   OH2 8534   1.253   5.727   1.124
 2857TIP3    H1 8535   1.322   5.744   1.187
 2857TIP3    H2 8536   1.297   5.732   1.039
 2858TIP3   OH2 8537   0.193   1.092   2.040
 2858TIP3    H1 8538   0.180   0.999   2.058
 2858TIP3    H2 8539   0.104   1.129   2.040
 2859TIP3   OH2 8540   2.819   1.473   2.677
 2859TIP3    H1 8541   2.765   1.499   2.751
 2859TIP3    H2 8542   2.903   1.448   2.716
 2860TIP3   OH2 8543   2.141   2.827   2.660
 2860TIP3    H1 8544   2.069   2.790   2.610
 2860TIP3    H2 8545   2.105   2.909   2.695
 2861TIP3   OH2 8546   3.057   1.413   2.784
 2861TIP3    H1 8547   3.057   1.373   2.870
 2861TIP3    H2 8548   3.150   1.415   2.759
 2862TIP3   OH2 8549   3.686   2.098   4.582
 2862TIP3    H1 8550   3.623   2.086   4.510
 2862TIP3    H2 8551   3.753   2.156   4.546
 2863TIP3   OH2 8552   2.689   4.581   3.640
 2863TIP3    H1 8553   2.734   4.626   3.711
 2863TIP3    H2 8554   2.618   4.533   3.683
 2864TIP3   OH2 8555   0.537   2.078   5.334
 2864TIP3    H1 8556   0.445   2.070   5.311
 2864TIP3    H2 8557   0.569   2.149   5.279
 2865TIP3   OH2 8558   1.174   1.534   1.274
 2865TIP3    H1 8559   1.151   1.449   1.236
 2865TIP3    H2 8560   1.107   1.550   1.340
 2866TIP3   OH2 8561   5.897   1.167   4.087
 2866TIP3    H1 8562   5.961   1.141   4.021
 2866TIP3    H2 8563   5.895   1.093   4.148
 2867TIP3   OH2 8564   3.069   2.154   4.129
 2867TIP3    H1 8565   2.994   2.146   4.187
 2867TIP3    H2 8566   3.042   2.219   4.064
 2868TIP3   OH2 8567   3.430   1.557   4.533
 2868TIP3    H1 8568   3.370   1.592   4.467
 2868TIP3    H2 8569   3.386   1.573   4.616
 2869TIP3   OH2 8570   1.440   0.534   2.427
 2869TIP3    H1 8571   1.504   0.514   2.358
 2869TIP3    H2 8572   1.457   0.469   2.495
 2870TIP3   OH2 8573   7.024   3.170   2.738
 2870TIP3    H1 8574   7.009   3.112   2.813
 2870TIP3    H2 8575   6.939   3.173   2.693
 2871TIP3   OH2 8576   0.511   2.723   1.768
 2871TIP3    H1 8577   0.547   2.800   1.723
 2871TIP3    H2 8578   0.581   2.657   1.761
 2872TIP3   OH2 8579   0.547   1.236   3.153
 2872TIP3    H1 8580   0.453   1.222   3.156
 2872TIP3    H2 8581   0.566   1.295   3.226
 2873TIP3   OH2 8582   5.905   1.521   3.436
 2873TIP3    H1 8583   5.898   1.464   3.359
 2873TIP3    H2 8584   5.864   1.471   3.506
 2874TIP3   OH2 8585   2.164   4.818   2.311
 2874TIP3    H1 8586   2.104   4.884   2.276
 2874TIP3    H2 8587   2.169   4.751   2.243
 2875TIP3   OH2 8588   0.717   5.172   1.527
 2875TIP3    H1 8589   0.737   5.084   1.496
 2875TIP3    H2 8590   0.663   5.210   1.458
 2876TIP3   OH2 8591   1.014   3.753   1.671
 2876TIP3    H1 8592   0.968   3.700   1.737
 2876TIP3    H2 8593   0.944   3.796   1.622
 2877TIP3   OH2 8594   5.417   0.243   4.526
 2877TIP3    H1 8595   5.481   0.178   4.558
 2877TIP3    H2 8596   5.449   0.326   4.561
 2878TIP3   OH2 8597   4.694   0.414   2.744
 2878TIP3    H1 8598   4.724   0.349   2.807
 2878TIP3    H2 8599   4.600   0.422   2.759
 2879TIP3   OH2 8600   0.156   0.608   1.681
 2879TIP3    H1 8601   0.192   0.690   1.714
 2879TIP3    H2 8602   0.109   0.633   1.602
 2880TIP3   OH2 8603   3.262   3.576   3.936
 2880TIP3    H1 8604   3.264   3.502   3.875
 2880TIP3    H2 8605   3.343   3.624   3.917
 2881TIP3   OH2 8606   6.677   3.457   4.116
 2881TIP3    H1 8607   6.628   3.474   4.197
 2881TIP3    H2 8608   6.767   3.483   4.137
 2882TIP3   OH2 8609   1.815   1.886   3.889
 2882TIP3    H1 8610   1.764   1.889   3.970
 2882TIP3    H2 8611   1.844   1.795   3.881
 2883TIP3   OH2 8612   3.196   4.836   3.308
 2883TIP3    H1 8613   3.119   4.788   3.337
 2883TIP3    H2 8614   3.221   4.794   3.226
 2884TIP3   OH2 8615   1.564   4.927   4.381
 2884TIP3    H1 8616   1.510   4.889   4.311
 2884TIP3    H2 8617   1.639   4.965   4.335
 2885TIP3   OH2 8618   5.093   3.897   4.953
 2885TIP3    H1 8619   5.120   3.988   4.939
 2885TIP3    H2 8620   5.027   3.902   5.022
 2886TIP3   OH2 8621   4.666   4.831   4.884
 2886TIP3    H1 8622   4.638   4.746   4.917
 2886TIP3    H2 8623   4.589   4.869   4.843
 2887TIP3   OH2 8624   6.915   3.933   3.299
 2887TIP3    H1 8625   6.884   3.917   3.210
 2887TIP3    H2 8626   6.893   4.025   3.316
 2888TIP3   OH2 8627   6.144   2.031   0.476
 2888TIP3    H1 8628   6.083   1.962   0.449
 2888TIP3    H2 8629   6.107   2.111   0.440
 2889TIP3   OH2 8630   4.345   5.031   2.351
 2889TIP3    H1 8631   4.403   4.976   2.404
 2889TIP3    H2 8632   4.404   5.093   2.309
 2890TIP3   OH2 8633   4.089   2.126   4.711
 2890TIP3    H1 8634   4.021   2.119   4.778
 2890TIP3    H2 8635   4.168   2.148   4.760
 2891TIP3   OH2 8636   1.635   1.830   4.102
 2891TIP3    H1 8637   1.673   1.758   4.153
 2891TIP3    H2 8638   1.553   1.794   4.068
 2892TIP3   OH2 8639   6.152   1.979   1.954
 2892TIP3    H1 8640   6.198   1.994   1.871
 2892TIP3    H2 8641   6.103   2.060   1.969
 2893TIP3   OH2 8642   0.973   5.713   4.934
 2893TIP3    H1 8643   1.003   5.774   4.867
 2893TIP3    H2 8644   1.033   5.638   4.927
 2894TIP3   OH2 8645   4.161   5.043   3.200
 2894TIP3    H1 8646   4.093   4.998   3.149
 2894TIP3    H2 8647   4.111   5.100   3.259
 2895TIP3   OH2 8648   3.822   4.815   0.648
 2895TIP3    H1 8649   3.787   4.901   0.627
 2895TIP3    H2 8650   3.808   4.763   0.568
 2896TIP3   OH2 8651   5.543   1.265   5.616
 2896TIP3    H1 8652   5.527   1.175   5.587
 2896TIP3    H2 8653   5.473   1.316   5.576
 2897TIP3   OH2 8654   4.359   4.121   2.478
 2897TIP3    H1 8655   4.404   4.090   2.400
 2897TIP3    H2 8656   4.284   4.169   2.445
 2898TIP3   OH2 8657   1.430   4.524   3.003
 2898TIP3    H1 8658   1.427   4.437   2.962
 2898TIP3    H2 8659   1.419   4.585   2.930
 2899TIP3   OH2 8660   6.585   3.943   4.772
 2899TIP3    H1 8661   6.653   3.875   4.775
 2899TIP3    H2 8662   6.586   3.975   4.682
 2900TIP3   OH2 8663   5.029   5.294   5.349
 2900TIP3    H1 8664   4.984   5.210   5.336
 2900TIP3    H2 8665   4.967   5.360   5.318
 2901TIP3   OH2 8666   1.283   0.323   2.106
 2901TIP3    H1 8667   1.276   0.418   2.120
 2901TIP3    H2 8668   1.207   0.286   2.151
 2902TIP3   OH2 8669   5.630   4.086   5.126
 2902TIP3    H1 8670   5.711   4.037   5.117
 2902TIP3    H2 8671   5.655   4.168   5.168
 2903TIP3   OH2 8672   0.399   0.281   4.604
 2903TIP3    H1 8673   0.474   0.327   4.568
 2903TIP3    H2 8674   0.358   0.238   4.529
 2904TIP3   OH2 8675   6.922   3.119   0.756
 2904TIP3    H1 8676   7.007   3.123   0.799
 2904TIP3    H2 8677   6.860   3.155   0.820
 2905TIP3   OH2 8678   1.279   5.885   1.525
 2905TIP3    H1 8679   1.317   5.855   1.443
 2905TIP3    H2 8680   1.206   5.940   1.498
 2906TIP3   OH2 8681   2.874   3.657   2.058
 2906TIP3    H1 8682   2.780   3.670   2.050
 2906TIP3    H2 8683   2.897   3.598   1.987
 2907TIP3   OH2 8684   2.340   5.636   5.764
 2907TIP3    H1 8685   2.330   5.552   5.719
 2907TIP3    H2 8686   2.340   5.614   5.857
 2908TIP3   OH2 8687   2.170   1.788   4.658
 2908TIP3    H1 8688   2.084   1.828   4.663
 2908TIP3    H2 8689   2.188   1.780   4.565
 2909TIP3   OH2 8690   4.936   1.279   1.422
 2909TIP3    H1 8691   4.903   1.230   1.347
 2909TIP3    H2 8692   5.016   1.235   1.447
 2910TIP3   OH2 8693   3.069   4.866   5.492
 2910TIP3    H1 8694   3.074   4.823   5.407
 2910TIP3    H2 8695   3.139   4.826   5.544
 2911TIP3   OH2 8696   6.741   6.431   1.968
 2911TIP3    H1 8697   6.723   6.514   1.924
 2911TIP3    H2 8698   6.834   6.434   1.990
 2912TIP3   OH2 8699   1.056   1.514   2.191
 2912TIP3    H1 8700   1.044   1.432   2.145
 2912TIP3    H2 8701   1.012   1.579   2.136
 2913TIP3   OH2 8702   1.422   4.951   0.561
 2913TIP3    H1 8703   1.356   5.001   0.514
 2913TIP3    H2 8704   1.423   4.866   0.517
 2914TIP3   OH2 8705   3.478   3.488   0.856
 2914TIP3    H1 8706   3.445   3.576   0.838
 2914TIP3    H2 8707   3.553   3.478   0.797
 2915TIP3   OH2 8708   1.504   4.307   0.294
 2915TIP3    H1 8709   1.580   4.249   0.305
 2915TIP3    H2 8710   1.471   4.321   0.383
 2916TIP3   OH2 8711   3.080   1.289   3.062
 2916TIP3    H1 8712   3.121   1.203   3.076
 2916TIP3    H2 8713   3.046   1.314   3.147
 2917TIP3   OH2 8714   2.769   3.299   1.815
 2917TIP3    H1 8715   2.760   3.390   1.786
 2917TIP3    H2 8716   2.681   3.274   1.843
 2918TIP3   OH2 8717   2.129   6.478   5.356
 2918TIP3    H1 8718   2.222   6.463   5.373
 2918TIP3    H2 8719   2.108   6.559   5.402
 2919TIP3   OH2 8720   6.913   6.807   3.395
 2919TIP3    H1 8721   6.918   6.720   3.356
 2919TIP3    H2 8722   6.970   6.861   3.342
 2920TIP3   OH2 8723   2.201   2.480   2.539
 2920TIP3    H1 8724   2.220   2.574   2.532
 2920TIP3    H2 8725   2.232   2.457   2.627
 2921TIP3   OH2 8726   7.049   1.761   4.197
 2921TIP3    H1 8727   7.118   1.702   4.168
 2921TIP3    H2 8728   7.068   1.844   4.152
 2922TIP3   OH2 8729   3.059   4.701   1.239
 2922TIP3    H1 8730   3.070   4.732   1.329
 2922TIP3    H2 8731   2.964   4.690   1.229
 2923TIP3   OH2 8732   2.570   6.063   1.083
 2923TIP3    H1 8733   2.517   6.035   1.008
 2923TIP3    H2 8734   2.634   6.123   1.045
 2924TIP3   OH2 8735   4.937   6.115   1.932
 2924TIP3    H1 8736   4.952   6.044   1.870
 2924TIP3    H2 8737   4.851   6.097   1.970
 2925TIP3   OH2 8738   0.084   6.179   0.932
 2925TIP3    H1 8739   0.094   6.128   1.012
 2925TIP3    H2 8740   0.174   6.204   0.908
 2926TIP3   OH2 8741   3.203   3.708   1.247
 2926TIP3    H1 8742   3.241   3.656   1.176
 2926TIP3    H2 8743   3.246   3.793   1.241
 2927TIP3   OH2 8744   2.588   6.056   2.962
 2927TIP3    H1 8745   2.617   6.066   2.871
 2927TIP3    H2 8746   2.495   6.081   2.960
 2928TIP3   OH2 8747   3.927   4.654   3.368
 2928TIP3    H1 8748   4.004   4.664   3.424
 2928TIP3    H2 8749   3.950   4.582   3.309
 2929TIP3   OH2 8750   0.117   1.137   3.497
 2929TIP3    H1 8751   0.194   1.172   3.452
 2929TIP3    H2 8752   0.053   1.122   3.427
 2930TIP3   OH2 8753   5.072   2.628   5.522
 2930TIP3    H1 8754   5.156   2.669   5.540
 2930TIP3    H2 8755   5.022   2.639   5.603
 2931TIP3   OH2 8756   4.289   0.309   2.078
 2931TIP3    H1 8757   4.362   0.327   2.019
 2931TIP3    H2 8758   4.331   0.276   2.158
 2932TIP3   OH2 8759   2.441   4.711   2.651
 2932TIP3    H1 8760   2.525   4.683   2.686
 2932TIP3    H2 8761   2.428   4.657   2.573
 2933TIP3   OH2 8762   6.707   1.724   1.423
 2933TIP3    H1 8763   6.785   1.712   1.368
 2933TIP3    H2 8764   6.729   1.680   1.505
 2934TIP3   OH2 8765   4.688   3.019   5.347
 2934TIP3    H1 8766   4.691   2.970   5.430
 2934TIP3    H2 8767   4.622   2.974   5.295
 2935TIP3   OH2 8768   6.574   2.087   3.083
 2935TIP3    H1 8769   6.611   2.023   3.021
 2935TIP3    H2 8770   6.484   2.100   3.053
 2936TIP3   OH2 8771   0.095   6.003   3.777
 2936TIP3    H1 8772   0.019   6.039   3.732
 2936TIP3    H2 8773   0.122   6.073   3.838
 2937TIP3   OH2 8774   0.204   1.377   1.863
 2937TIP3    H1 8775   0.236   1.409   1.947
 2937TIP3    H2 8776   0.117   1.341   1.882
 2938TIP3   OH2 8777   4.608   4.276   2.422
 2938TIP3    H1 8778   4.576   4.344   2.481
 2938TIP3    H2 8779   4.538   4.210   2.421
 2939TIP3   OH2 8780   1.922   4.576   5.008
 2939TIP3    H1 8781   1.874   4.499   4.978
 2939TIP3    H2 8782   1.872   4.650   4.974
 2940TIP3   OH2 8783   1.336   4.349   2.735
 2940TIP3    H1 8784   1.402   4.408   2.699
 2940TIP3    H2 8785   1.304   4.299   2.659
 2941TIP3   OH2 8786   5.222   4.789   4.144
 2941TIP3    H1 8787   5.140   4.751   4.175
 2941TIP3    H2 8788   5.246   4.855   4.209
 2942TIP3   OH2 8789   7.187   6.666   5.778
 2942TIP3    H1 8790   7.106   6.656   5.826
 2942TIP3    H2 8791   7.211   6.578   5.751
 2943TIP3   OH2 8792   2.057   6.329   2.070
 2943TIP3    H1 8793   1.997   6.254   2.066
 2943TIP3    H2 8794   2.091   6.328   2.159
 2944TIP3   OH2 8795   6.066   5.696   5.739
 2944TIP3    H1 8796   6.107   5.714   5.823
 2944TIP3    H2 8797   6.005   5.624   5.756
 2945TIP3   OH2 8798   0.022   5.716   0.199
 2945TIP3    H1 8799  -0.053   5.657   0.199
 2945TIP3    H2 8800   0.091   5.668   0.245
 2946TIP3   OH2 8801   2.336   3.794   1.666
 2946TIP3    H1 8802   2.342   3.740   1.587
 2946TIP3    H2 8803   2.273   3.862   1.644
 2947TIP3   OH2 8804   1.412   3.825   4.643
 2947TIP3    H1 8805   1.427   3.894   4.706
 2947TIP3    H2 8806   1.319   3.804   4.651
 2948TIP3   OH2 8807   3.624   4.989   4.326
 2948TIP3    H1 8808   3.624   5.057   4.259
 2948TIP3    H2 8809   3.585   4.913   4.285
 2949TIP3   OH2 8810   2.373   0.320   1.360
 2949TIP3    H1 8811   2.342   0.367   1.438
 2949TIP3    H2 8812   2.468   0.334   1.361
 2950TIP3   OH2 8813   5.513   6.121   0.608
 2950TIP3    H1 8814   5.557   6.069   0.540
 2950TIP3    H2 8815   5.428   6.142   0.570
 2951TIP3   OH2 8816   1.205   5.262   2.586
 2951TIP3    H1 8817   1.277   5.259   2.523
 2951TIP3    H2 8818   1.126   5.265   2.531
 2952TIP3   OH2 8819   2.764   4.890   4.688
 2952TIP3    H1 8820   2.679   4.864   4.653
 2952TIP3    H2 8821   2.743   4.955   4.756
 2953TIP3   OH2 8822   1.320   0.514   4.308
 2953TIP3    H1 8823   1.355   0.477   4.389
 2953TIP3    H2 8824   1.304   0.439   4.251
 2954TIP3   OH2 8825   5.659   2.125   5.540
 2954TIP3    H1 8826   5.681   2.079   5.621
 2954TIP3    H2 8827   5.570   2.158   5.555
 2955TIP3   OH2 8828   2.558   3.750   5.383
 2955TIP3    H1 8829   2.466   3.777   5.387
 2955TIP3    H2 8830   2.563   3.694   5.305
 2956TIP3   OH2 8831   3.760   4.738   1.774
 2956TIP3    H1 8832   3.805   4.658   1.747
 2956TIP3    H2 8833   3.682   4.741   1.718
 2957TIP3   OH2 8834   3.156   0.521   3.906
 2957TIP3    H1 8835   3.249   0.506   3.888
 2957TIP3    H2 8836   3.111   0.450   3.862
 2958TIP3   OH2 8837   1.665   1.968   1.784
 2958TIP3    H1 8838   1.754   1.937   1.774
 2958TIP3    H2 8839   1.674   2.059   1.810
 2959TIP3   OH2 8840   4.000   6.157   3.461
 2959TIP3    H1 8841   4.065   6.087   3.451
 2959TIP3    H2 8842   4.016   6.215   3.386
 2960TIP3   OH2 8843   3.393   5.427   1.649
 2960TIP3    H1 8844   3.469   5.369   1.645
 2960TIP3    H2 8845   3.376   5.451   1.558
 2961TIP3   OH2 8846   0.356   0.639   2.161
 2961TIP3    H1 8847   0.288   0.581   2.195
 2961TIP3    H2 8848   0.390   0.684   2.238
 2962TIP3   OH2 8849   5.218   6.834   1.342
 2962TIP3    H1 8850   5.139   6.833   1.397
 2962TIP3    H2 8851   5.234   6.742   1.321
 2963TIP3   OH2 8852   1.310   2.550   2.711
 2963TIP3    H1 8853   1.389   2.553   2.764
 2963TIP3    H2 8854   1.333   2.496   2.635
 2964TIP3   OH2 8855   1.343   5.619   5.784
 2964TIP3    H1 8856   1.327   5.637   5.691
 2964TIP3    H2 8857   1.292   5.686   5.830
 2965TIP3   OH2 8858   1.295   6.727   1.993
 2965TIP3    H1 8859   1.389   6.711   2.004
 2965TIP3    H2 8860   1.266   6.655   1.936
 2966TIP3   OH2 8861   1.898   2.280   0.836
 2966TIP3    H1 8862   1.968   2.265   0.772
 2966TIP3    H2 8863   1.904   2.207   0.897
 2967TIP3   OH2 8864   5.259   6.748   4.570
 2967TIP3    H1 8865   5.192   6.789   4.516
 2967TIP3    H2 8866   5.334   6.806   4.564
 2968TIP3   OH2 8867   4.564   5.484   3.699
 2968TIP3    H1 8868   4.652   5.495   3.663
 2968TIP3    H2 8869   4.507   5.532   3.639
 2969TIP3   OH2 8870   5.567   3.154   4.418
 2969TIP3    H1 8871   5.558   3.171   4.324
 2969TIP3    H2 8872   5.487   3.107   4.441
 2970TIP3   OH2 8873   1.249   4.295   1.074
 2970TIP3    H1 8874   1.339   4.326   1.059
 2970TIP3    H2 8875   1.205   4.307   0.990
 2971TIP3   OH2 8876   4.056   5.390   1.911
 2971TIP3    H1 8877   4.048   5.298   1.936
 2971TIP3    H2 8878   4.147   5.399   1.883
 2972TIP3   OH2 8879   5.991   1.536   1.767
 2972TIP3    H1 8880   5.967   1.626   1.791
 2972TIP3    H2 8881   6.084   1.530   1.788
 2973TIP3   OH2 8882   4.393   4.148   0.284
 2973TIP3    H1 8883   4.433   4.101   0.357
 2973TIP3    H2 8884   4.466   4.168   0.225
 2974TIP3   OH2 8885   6.040   2.435   2.374
 2974TIP3    H1 8886   5.957   2.421   2.329
 2974TIP3    H2 8887   6.033   2.385   2.455
 2975TIP3   OH2 8888   6.369   3.528   5.031
 2975TIP3    H1 8889   6.274   3.520   5.040
 2975TIP3    H2 8890   6.395   3.585   5.104
 2976TIP3   OH2 8891   1.731   4.440   0.662
 2976TIP3    H1 8892   1.809   4.385   0.662
 2976TIP3    H2 8893   1.764   4.528   0.640
 2977TIP3   OH2 8894   2.221   4.608   3.689
 2977TIP3    H1 8895   2.260   4.691   3.663
 2977TIP3    H2 8896   2.196   4.620   3.781
 2978TIP3   OH2 8897   3.432   5.174   0.151
 2978TIP3    H1 8898   3.472   5.115   0.088
 2978TIP3    H2 8899   3.390   5.241   0.098
 2979TIP3   OH2 8900   6.815   4.521   2.942
 2979TIP3    H1 8901   6.906   4.496   2.953
 2979TIP3    H2 8902   6.790   4.559   3.026
 2980TIP3   OH2 8903   3.134   5.521   0.249
 2980TIP3    H1 8904   3.169   5.477   0.171
 2980TIP3    H2 8905   3.211   5.553   0.295
 2981TIP3   OH2 8906   0.709   5.780   0.963
 2981TIP3    H1 8907   0.784   5.779   1.023
 2981TIP3    H2 8908   0.728   5.852   0.902
 2982TIP3   OH2 8909   2.730   2.972   3.679
 2982TIP3    H1 8910   2.721   3.067   3.673
 2982TIP3    H2 8911   2.643   2.938   3.662
 2983TIP3   OH2 8912   0.669   0.672   0.110
 2983TIP3    H1 8913   0.664   0.765   0.130
 2983TIP3    H2 8914   0.763   0.652   0.112
 2984TIP3   OH2 8915   5.955   4.824   1.419
 2984TIP3    H1 8916   5.923   4.906   1.456
 2984TIP3    H2 8917   6.013   4.788   1.485
 2985TIP3   OH2 8918   0.279   6.686   2.967
 2985TIP3    H1 8919   0.297   6.722   2.881
 2985TIP3    H2 8920   0.246   6.760   3.018
 2986TIP3   OH2 8921   5.173   0.417   4.230
 2986TIP3    H1 8922   5.085   0.415   4.192
 2986TIP3    H2 8923   5.225   0.468   4.169
 2987TIP3   OH2 8924   0.289   1.706   4.523
 2987TIP3    H1 8925   0.299   1.684   4.430
 2987TIP3    H2 8926   0.214   1.655   4.553
 2988TIP3   OH2 8927   6.699   0.454   3.330
 2988TIP3    H1 8928   6.794   0.450   3.342
 2988TIP3    H2 8929   6.688   0.464   3.235
 2989TIP3   OH2 8930   4.546   0.759   1.215
 2989TIP3    H1 8931   4.461   0.724   1.242
 2989TIP3    H2 8932   4.580   0.694   1.153
 2990TIP3   OH2 8933   1.379   2.864   0.881
 2990TIP3    H1 8934   1.355   2.829   0.795
 2990TIP3    H2 8935   1.408   2.787   0.930
 2991TIP3   OH2 8936   6.729   2.729   4.014
 2991TIP3    H1 8937   6.770   2.777   4.086
 2991TIP3    H2 8938   6.702   2.796   3.951
 2992TIP3   OH2 8939   5.535   3.556   0.616
 2992TIP3    H1 8940   5.443   3.540   0.635
 2992TIP3    H2 8941   5.543   3.652   0.617
 2993TIP3   OH2 8942   2.645   5.097   4.283
 2993TIP3    H1 8943   2.683   5.105   4.371
 2993TIP3    H2 8944   2.697   5.157   4.229
 2994TIP3   OH2 8945   3.483   5.722   2.728
 2994TIP3    H1 8946   3.417   5.682   2.671
 2994TIP3    H2 8947   3.564   5.677   2.707
 2995TIP3   OH2 8948   3.190   3.443   4.981
 2995TIP3    H1 8949   3.117   3.474   5.035
 2995TIP3    H2 8950   3.262   3.430   5.042
 2996TIP3   OH2 8951   4.141   6.564   2.762
 2996TIP3    H1 8952   4.209   6.589   2.699
 2996TIP3    H2 8953   4.105   6.482   2.726
 2997TIP3   OH2 8954   5.438   3.808   2.346
 2997TIP3    H1 8955   5.458   3.726   2.301
 2997TIP3    H2 8956   5.404   3.866   2.277
 2998TIP3   OH2 8957   6.645   4.587   2.106
 2998TIP3    H1 8958   6.705   4.521   2.141
 2998TIP3    H2 8959   6.694   4.630   2.036
 2999TIP3   OH2 8960   3.750   2.555   2.586
 2999TIP3    H1 8961   3.805   2.632   2.572
 2999TIP3    H2 8962   3.683   2.560   2.518
 3000TIP3   OH2 8963   4.034   1.193   1.391
 3000TIP3    H1 8964   3.977   1.120   1.369
 3000TIP3    H2 8965   4.101   1.155   1.448
 3001TIP3   OH2 8966   5.687   2.400   2.455
 3001TIP3    H1 8967   5.743   2.398   2.378
 3001TIP3    H2 8968   5.738   2.358   2.524
 3002TIP3   OH2 8969   3.135   2.986   2.346
 3002TIP3    H1 8970   3.214   3.004   2.295
 3002TIP3    H2 8971   3.082   2.931   2.288
 3003TIP3   OH2 8972   7.106   3.392   4.975
 3003TIP3    H1 8973   7.164   3.333   4.928
 3003TIP3    H2 8974   7.092   3.351   5.060
 3004TIP3   OH2 8975   1.749   4.621   2.147
 3004TIP3    H1 8976   1.815   4.679   2.110
 3004TIP3    H2 8977   1.783   4.533   2.132
 3005TIP3   OH2 8978   3.782   0.041   0.130
 3005TIP3    H1 8979   3.877   0.043   0.137
 3005TIP3    H2 8980   3.761   0.120   0.080
 3006TIP3   OH2 8981   5.611   4.922   3.246
 3006TIP3    H1 8982   5.554   4.963   3.181
 3006TIP3    H2 8983   5.699   4.932   3.211
 3007TIP3   OH2 8984   2.836   2.627   5.263
 3007TIP3    H1 8985   2.877   2.546   5.233
 3007TIP3    H2 8986   2.743   2.616   5.243
 3008TIP3   OH2 8987   0.186   0.900   3.198
 3008TIP3    H1 8988   0.152   0.822   3.241
 3008TIP3    H2 8989   0.252   0.866   3.136
 3009TIP3   OH2 8990   0.248   5.875   0.428
 3009TIP3    H1 8991   0.197   5.862   0.507
 3009TIP3    H2 8992   0.338   5.889   0.459
 3010TIP3   OH2 8993   2.065   3.210   0.246
 3010TIP3    H1 8994   2.113   3.276   0.296
 3010TIP3    H2 8995   2.130   3.143   0.226
 3011TIP3   OH2 8996   2.205   1.791   4.369
 3011TIP3    H1 8997   2.168   1.702   4.363
 3011TIP3    H2 8998   2.188   1.830   4.283
 3012TIP3   OH2 8999   7.092   4.488   3.491
 3012TIP3    H1 9000   7.181   4.491   3.526
 3012TIP3    H2 9001   7.062   4.399   3.508
 3013TIP3   OH2 9002   4.137   6.598   4.309
 3013TIP3    H1 9003   4.103   6.563   4.392
 3013TIP3    H2 9004   4.092   6.682   4.298
 3014TIP3   OH2 9005   5.526   0.293   4.898
 3014TIP3    H1 9006   5.542   0.387   4.911
 3014TIP3    H2 9007   5.532   0.281   4.803
 3015TIP3   OH2 9008   1.306   2.409   1.322
 3015TIP3    H1 9009   1.377   2.359   1.362
 3015TIP3    H2 9010   1.251   2.435   1.396
 3016TIP3   OH2 9011   1.171   6.062   3.235
 3016TIP3    H1 9012   1.209   6.145   3.205
 3016TIP3    H2 9013   1.128   6.084   3.318
 3017TIP3   OH2 9014   5.970   2.453   2.946
 3017TIP3    H1 9015   6.015   2.385   2.996
 3017TIP3    H2 9016   6.039   2.493   2.892
 3018TIP3   OH2 9017   2.617   0.803   4.896
 3018TIP3    H1 9018   2.682   0.857   4.851
 3018TIP3    H2 9019   2.638   0.714   4.870
 3019TIP3   OH2 9020   3.986   4.872   3.021
 3019TIP3    H1 9021   4.062   4.824   3.055
 3019TIP3    H2 9022   3.982   4.849   2.929
 3020TIP3   OH2 9023   5.935   6.482   1.476
 3020TIP3    H1 9024   5.875   6.537   1.427
 3020TIP3    H2 9025   6.012   6.474   1.419
 3021TIP3   OH2 9026   1.157   4.263   0.533
 3021TIP3    H1 9027   1.080   4.206   0.537
 3021TIP3    H2 9028   1.150   4.306   0.448
 3022TIP3   OH2 9029   5.663   0.289   3.814
 3022TIP3    H1 9030   5.715   0.235   3.754
 3022TIP3    H2 9031   5.592   0.324   3.759
 3023TIP3   OH2 9032   3.189   1.054   3.144
 3023TIP3    H1 9033   3.206   1.013   3.229
 3023TIP3    H2 9034   3.233   0.997   3.081
 3024TIP3   OH2 9035   0.685   5.774   4.811
 3024TIP3    H1 9036   0.763   5.732   4.773
 3024TIP3    H2 9037   0.698   5.867   4.795
 3025TIP3   OH2 9038   6.729   1.347   4.720
 3025TIP3    H1 9039   6.777   1.268   4.744
 3025TIP3    H2 9040   6.762   1.370   4.633
 3026TIP3   OH2 9041   3.563   0.481   1.453
 3026TIP3    H1 9042   3.631   0.547   1.469
 3026TIP3    H2 9043   3.534   0.456   1.541
 3027TIP3   OH2 9044   5.020   1.018   1.908
 3027TIP3    H1 9045   5.090   1.020   1.843
 3027TIP3    H2 9046   5.062   0.993   1.989
 3028TIP3   OH2 9047   7.099   5.430   1.678
 3028TIP3    H1 9048   7.110   5.342   1.712
 3028TIP3    H2 9049   7.076   5.483   1.754
 3029TIP3   OH2 9050   4.941   3.653   1.048
 3029TIP3    H1 9051   4.935   3.584   1.114
 3029TIP3    H2 9052   4.855   3.693   1.048
 3030TIP3   OH2 9053   1.512   4.724   3.822
 3030TIP3    H1 9054   1.594   4.701   3.865
 3030TIP3    H2 9055   1.478   4.642   3.788
 3031TIP3   OH2 9056   1.444   0.149   2.724
 3031TIP3    H1 9057   1.470   0.200   2.801
 3031TIP3    H2 9058   1.403   0.071   2.760
 3032TIP3   OH2 9059   4.884   5.044   4.301
 3032TIP3    H1 9060   4.829   5.122   4.288
 3032TIP3    H2 9061   4.864   4.988   4.226
 3033TIP3   OH2 9062   3.223   0.215   1.867
 3033TIP3    H1 9063   3.264   0.222   1.781
 3033TIP3    H2 9064   3.253   0.131   1.901
 3034TIP3   OH2 9065   5.027   0.658   2.043
 3034TIP3    H1 9066   5.119   0.655   2.067
 3034TIP3    H2 9067   4.984   0.699   2.118
 3035TIP3   OH2 9068   3.160   4.805   4.741
 3035TIP3    H1 9069   3.081   4.764   4.777
 3035TIP3    H2 9070   3.228   4.788   4.805
 3036TIP3   OH2 9071   5.875   0.118   4.322
 3036TIP3    H1 9072   5.966   0.089   4.319
 3036TIP3    H2 9073   5.849   0.106   4.413
 3037TIP3   OH2 9074   2.464   6.586   4.794
 3037TIP3    H1 9075   2.518   6.536   4.733
 3037TIP3    H2 9076   2.483   6.548   4.880
 3038TIP3   OH2 9077   5.926   0.148   0.581
 3038TIP3    H1 9078   5.924   0.230   0.631
 3038TIP3    H2 9079   5.895   0.082   0.643
 3039TIP3   OH2 9080   3.569   4.064   3.925
 3039TIP3    H1 9081   3.603   3.990   3.974
 3039TIP3    H2 9082   3.475   4.048   3.919
 3040TIP3   OH2 9083   5.091   3.232   4.179
 3040TIP3    H1 9084   5.046   3.273   4.104
 3040TIP3    H2 9085   5.144   3.163   4.139
 3041TIP3   OH2 9086   1.762   1.519   4.961
 3041TIP3    H1 9087   1.668   1.503   4.968
 3041TIP3    H2 9088   1.787   1.553   5.047
 3042TIP3   OH2 9089   0.796   2.270   4.391
 3042TIP3    H1 9090   0.853   2.314   4.328
 3042TIP3    H2 9091   0.717   2.249   4.341
 3043TIP3   OH2 9092   4.543   4.478   2.590
 3043TIP3    H1 9093   4.599   4.554   2.576
 3043TIP3    H2 9094   4.455   4.509   2.566
 3044TIP3   OH2 9095   3.368   3.253   1.003
 3044TIP3    H1 9096   3.394   3.285   0.916
 3044TIP3    H2 9097   3.450   3.243   1.051
 3045TIP3   OH2 9098   7.078   1.373   0.807
 3045TIP3    H1 9099   7.027   1.423   0.870
 3045TIP3    H2 9100   7.109   1.439   0.744
 3046TIP3   OH2 9101   2.225   4.908   1.888
 3046TIP3    H1 9102   2.156   4.848   1.917
 3046TIP3    H2 9103   2.285   4.852   1.838
 3047TIP3   OH2 9104   0.657   6.055   2.039
 3047TIP3    H1 9105   0.632   5.981   1.983
 3047TIP3    H2 9106   0.660   6.019   2.127
 3048TIP3   OH2 9107   2.493   3.375   1.531
 3048TIP3    H1 9108   2.415   3.378   1.476
 3048TIP3    H2 9109   2.563   3.347   1.472
 3049TIP3   OH2 9110   1.641   1.919   3.286
 3049TIP3    H1 9111   1.611   1.902   3.375
 3049TIP3    H2 9112   1.717   1.977   3.296
 3050TIP3   OH2 9113   1.373   3.920   1.061
 3050TIP3    H1 9114   1.296   3.976   1.070
 3050TIP3    H2 9115   1.442   3.980   1.032
 3051TIP3   OH2 9116   2.722   2.358   0.830
 3051TIP3    H1 9117   2.744   2.303   0.754
 3051TIP3    H2 9118   2.799   2.351   0.887
 3052TIP3   OH2 9119   4.674   3.869   2.584
 3052TIP3    H1 9120   4.646   3.873   2.675
 3052TIP3    H2 9121   4.763   3.834   2.588
 3053TIP3   OH2 9122   6.888   2.751   2.680
 3053TIP3    H1 9123   6.812   2.727   2.627
 3053TIP3    H2 9124   6.855   2.754   2.770
 3054TIP3   OH2 9125   6.883   4.483   4.963
 3054TIP3    H1 9126   6.803   4.431   4.969
 3054TIP3    H2 9127   6.860   4.566   5.006
 3055TIP3   OH2 9128   0.108   6.114   2.480
 3055TIP3    H1 9129   0.177   6.168   2.519
 3055TIP3    H2 9130   0.037   6.175   2.463
 3056TIP3   OH2 9131   4.966   5.161   2.757
 3056TIP3    H1 9132   4.999   5.250   2.757
 3056TIP3    H2 9133   5.020   5.114   2.821
 3057TIP3   OH2 9134   6.824   1.776   4.346
 3057TIP3    H1 9135   6.896   1.778   4.284
 3057TIP3    H2 9136   6.806   1.868   4.366
 3058TIP3   OH2 9137   6.215   4.794   1.079
 3058TIP3    H1 9138   6.296   4.749   1.055
 3058TIP3    H2 9139   6.235   4.887   1.069
 3059TIP3   OH2 9140   1.775   6.296   4.946
 3059TIP3    H1 9141   1.868   6.317   4.937
 3059TIP3    H2 9142   1.750   6.337   5.029
 3060TIP3   OH2 9143   4.475   0.307   0.754
 3060TIP3    H1 9144   4.490   0.221   0.793
 3060TIP3    H2 9145   4.528   0.367   0.806
 3061TIP3   OH2 9146   7.169   2.936   2.898
 3061TIP3    H1 9147   7.104   2.967   2.961
 3061TIP3    H2 9148   7.223   2.874   2.947
 3062TIP3   OH2 9149   5.155   1.955   1.852
 3062TIP3    H1 9150   5.160   1.868   1.811
 3062TIP3    H2 9151   5.128   1.938   1.942
 3063TIP3   OH2 9152   3.031   2.159   5.370
 3063TIP3    H1 9153   2.980   2.114   5.303
 3063TIP3    H2 9154   3.043   2.248   5.335
 3064TIP3   OH2 9155   5.313   1.677   0.697
 3064TIP3    H1 9156   5.255   1.752   0.691
 3064TIP3    H2 9157   5.331   1.668   0.791
 3065TIP3   OH2 9158   0.943   4.105   3.140
 3065TIP3    H1 9159   0.960   4.063   3.056
 3065TIP3    H2 9160   0.886   4.044   3.186
 3066TIP3   OH2 9161   7.072   1.397   4.694
 3066TIP3    H1 9162   7.000   1.438   4.646
 3066TIP3    H2 9163   7.060   1.426   4.785
 3067TIP3   OH2 9164   0.824   1.756   4.200
 3067TIP3    H1 9165   0.734   1.781   4.182
 3067TIP3    H2 9166   0.872   1.778   4.120
 3068TIP3   OH2 9167   2.926   2.967   0.925
 3068TIP3    H1 9168   2.909   3.025   0.999
 3068TIP3    H2 9169   2.979   3.020   0.865
 3069TIP3   OH2 9170   3.027   4.125   5.712
 3069TIP3    H1 9171   3.085   4.200   5.698
 3069TIP3    H2 9172   3.061   4.082   5.790
 3070TIP3   OH2 9173   2.883   1.254   3.981
 3070TIP3    H1 9174   2.844   1.283   4.064
 3070TIP3    H2 9175   2.837   1.173   3.960
 3071TIP3   OH2 9176   3.580   5.559   3.642
 3071TIP3    H1 9177   3.547   5.649   3.649
 3071TIP3    H2 9178   3.575   5.540   3.548
 3072TIP3   OH2 9179   2.717   3.675   1.385
 3072TIP3    H1 9180   2.645   3.706   1.330
 3072TIP3    H2 9181   2.796   3.706   1.341
 3073TIP3   OH2 9182   3.886   1.303   5.727
 3073TIP3    H1 9183   3.810   1.246   5.740
 3073TIP3    H2 9184   3.873   1.341   5.640
 3074TIP3   OH2 9185   1.268   4.823   0.281
 3074TIP3    H1 9186   1.213   4.901   0.271
 3074TIP3    H2 9187   1.260   4.777   0.197
 3075TIP3   OH2 9188   1.562   2.921   1.940
 3075TIP3    H1 9189   1.555   3.003   1.893
 3075TIP3    H2 9190   1.654   2.894   1.929
 3076TIP3   OH2 9191   0.390   0.229   5.640
 3076TIP3    H1 9192   0.443   0.292   5.689
 3076TIP3    H2 9193   0.454   0.174   5.595
 3077TIP3   OH2 9194   4.054   0.989   5.194
 3077TIP3    H1 9195   4.099   0.912   5.228
 3077TIP3    H2 9196   4.071   0.987   5.100
 3078TIP3   OH2 9197   5.982   6.558   4.076
 3078TIP3    H1 9198   6.072   6.584   4.058
 3078TIP3    H2 9199   5.972   6.570   4.171
 3079TIP3   OH2 9200   0.137   1.844   2.843
 3079TIP3    H1 9201   0.081   1.802   2.909
 3079TIP3    H2 9202   0.198   1.775   2.817
 3080TIP3   OH2 9203   0.298   2.065   4.455
 3080TIP3    H1 9204   0.278   2.118   4.378
 3080TIP3    H2 9205   0.231   2.089   4.519
 3081TIP3   OH2 9206   3.461   4.089   3.246
 3081TIP3    H1 9207   3.468   4.039   3.328
 3081TIP3    H2 9208   3.545   4.134   3.238
 3082TIP3   OH2 9209   3.315   4.836   4.387
 3082TIP3    H1 9210   3.350   4.753   4.419
 3082TIP3    H2 9211   3.362   4.852   4.305
 3083TIP3   OH2 9212   4.094   5.838   0.211
 3083TIP3    H1 9213   4.178   5.884   0.216
 3083TIP3    H2 9214   4.034   5.900   0.171
 3084TIP3   OH2 9215   5.820   6.214   3.283
 3084TIP3    H1 9216   5.736   6.185   3.320
 3084TIP3    H2 9217   5.882   6.147   3.310
 3085TIP3   OH2 9218   3.429   0.042   0.427
 3085TIP3    H1 9219   3.515   0.039   0.469
 3085TIP3    H2 9220   3.429  -0.033   0.367
 3086TIP3   OH2 9221   4.963   0.695   4.318
 3086TIP3    H1 9222   4.902   0.708   4.391
 3086TIP3    H2 9223   5.049   0.696   4.360
 3087TIP3   OH2 9224   0.496   1.736   3.313
 3087TIP3    H1 9225   0.536   1.798   3.374
 3087TIP3    H2 9226   0.518   1.770   3.227
 3088TIP3   OH2 9227   2.420   0.654   4.162
 3088TIP3    H1 9228   2.441   0.618   4.076
 3088TIP3    H2 9229   2.398   0.578   4.216
 3089TIP3   OH2 9230   1.945   6.575   4.525
 3089TIP3    H1 9231   1.927   6.652   4.470
 3089TIP3    H2 9232   1.999   6.609   4.596
 3090TIP3   OH2 9233   1.079   4.467   1.259
 3090TIP3    H1 9234   1.112   4.407   1.192
 3090TIP3    H2 9235   1.154   4.483   1.316
 3091TIP3   OH2 9236   4.431   2.278   1.381
 3091TIP3    H1 9237   4.514   2.231   1.373
 3091TIP3    H2 9238   4.429   2.307   1.472
 3092TIP3   OH2 9239   5.445   2.898   5.268
 3092TIP3    H1 9240   5.466   2.944   5.349
 3092TIP3    H2 9241   5.349   2.890   5.269
 3093TIP3   OH2 9242   2.477   5.330   0.485
 3093TIP3    H1 9243   2.482   5.357   0.576
 3093TIP3    H2 9244   2.394   5.282   0.478
 3094TIP3   OH2 9245   5.112   5.383   3.099
 3094TIP3    H1 9246   5.145   5.423   3.179
 3094TIP3    H2 9247   5.119   5.289   3.115
 3095TIP3   OH2 9248   2.561   5.275   2.001
 3095TIP3    H1 9249   2.510   5.195   2.005
 3095TIP3    H2 9250   2.615   5.266   1.923
 3096TIP3   OH2 9251   4.812   6.243   2.214
 3096TIP3    H1 9252   4.783   6.318   2.265
 3096TIP3    H2 9253   4.745   6.176   2.229
 3097TIP3   OH2 9254   3.880   4.732   4.680
 3097TIP3    H1 9255   3.958   4.755   4.731
 3097TIP3    H2 9256   3.865   4.807   4.623
 3098TIP3   OH2 9257   1.845   3.197   5.194
 3098TIP3    H1 9258   1.802   3.130   5.248
 3098TIP3    H2 9259   1.807   3.185   5.107
 3099TIP3   OH2 9260   3.924   2.767   2.562
 3099TIP3    H1 9261   4.018   2.787   2.561
 3099TIP3    H2 9262   3.887   2.830   2.623
 3100TIP3   OH2 9263  -0.019   3.790   2.572
 3100TIP3    H1 9264   0.038   3.866   2.579
 3100TIP3    H2 9265  -0.106   3.826   2.554
 3101TIP3   OH2 9266   3.537   0.577   4.833
 3101TIP3    H1 9267   3.616   0.527   4.854
 3101TIP3    H2 9268   3.548   0.601   4.741
 3102TIP3   OH2 9269   6.655   4.051   3.257
 3102TIP3    H1 9270   6.693   4.124   3.207
 3102TIP3    H2 9271   6.564   4.048   3.227
 3103TIP3   OH2 9272   5.248   4.528   3.973
 3103TIP3    H1 9273   5.253   4.573   4.058
 3103TIP3    H2 9274   5.269   4.596   3.909
 3104TIP3   OH2 9275   4.198   5.947   3.413
 3104TIP3    H1 9276   4.163   5.861   3.389
 3104TIP3    H2 9277   4.255   5.931   3.488
 3105TIP3   OH2 9278   0.050   0.253   2.567
 3105TIP3    H1 9279   0.132   0.281   2.608
 3105TIP3    H2 9280   0.010   0.335   2.536
 3106TIP3   OH2 9281   6.154   5.837   1.084
 3106TIP3    H1 9282   6.165   5.924   1.122
 3106TIP3    H2 9283   6.241   5.816   1.049
 3107TIP3   OH2 9284   2.324   1.808   1.246
 3107TIP3    H1 9285   2.348   1.748   1.316
 3107TIP3    H2 9286   2.332   1.756   1.166
 3108TIP3   OH2 9287   1.584   4.341   0.885
 3108TIP3    H1 9288   1.611   4.371   0.798
 3108TIP3    H2 9289   1.633   4.397   0.946
 3109TIP3   OH2 9290   0.411   6.298   1.283
 3109TIP3    H1 9291   0.337   6.237   1.273
 3109TIP3    H2 9292   0.478   6.247   1.329
 3110TIP3   OH2 9293   4.751   6.007   4.556
 3110TIP3    H1 9294   4.813   6.009   4.628
 3110TIP3    H2 9295   4.752   5.916   4.525
 3111TIP3   OH2 9296   4.094   0.638   4.713
 3111TIP3    H1 9297   4.114   0.551   4.679
 3111TIP3    H2 9298   4.062   0.622   4.802
 3112TIP3   OH2 9299   5.860   3.080   0.121
 3112TIP3    H1 9300   5.794   3.078   0.190
 3112TIP3    H2 9301   5.817   3.125   0.048
 3113TIP3   OH2 9302   0.715   1.821   2.105
 3113TIP3    H1 9303   0.706   1.858   2.018
 3113TIP3    H2 9304   0.717   1.726   2.091
 3114TIP3   OH2 9305   6.346   3.487   1.374
 3114TIP3    H1 9306   6.318   3.395   1.378
 3114TIP3    H2 9307   6.331   3.512   1.283
 3115TIP3   OH2 9308   6.576   0.851   1.163
 3115TIP3    H1 9309   6.576   0.882   1.253
 3115TIP3    H2 9310   6.568   0.756   1.169
 3116TIP3   OH2 9311   0.630   2.212   2.696
 3116TIP3    H1 9312   0.567   2.280   2.675
 3116TIP3    H2 9313   0.714   2.258   2.704
 3117TIP3   OH2 9314   5.581   0.222   0.704
 3117TIP3    H1 9315   5.628   0.235   0.786
 3117TIP3    H2 9316   5.632   0.271   0.640
 3118TIP3   OH2 9317   4.312   1.949   0.696
 3118TIP3    H1 9318   4.306   1.940   0.791
 3118TIP3    H2 9319   4.309   1.859   0.663
 3119TIP3   OH2 9320   5.790   1.804   4.026
 3119TIP3    H1 9321   5.799   1.877   3.965
 3119TIP3    H2 9322   5.821   1.839   4.110
 3120TIP3   OH2 9323   5.142   2.524   4.001
 3120TIP3    H1 9324   5.052   2.550   3.979
 3120TIP3    H2 9325   5.146   2.531   4.096
 3121TIP3   OH2 9326   6.036   2.859   3.917
 3121TIP3    H1 9327   6.038   2.951   3.943
 3121TIP3    H2 9328   5.978   2.858   3.841
 3122TIP3   OH2 9329   2.824   3.191   1.557
 3122TIP3    H1 9330   2.811   3.219   1.647
 3122TIP3    H2 9331   2.765   3.245   1.505
 3123TIP3   OH2 9332   5.094   1.795   4.289
 3123TIP3    H1 9333   5.056   1.785   4.202
 3123TIP3    H2 9334   5.174   1.743   4.287
 3124TIP3   OH2 9335   0.300   0.005   2.089
 3124TIP3    H1 9336   0.336   0.094   2.092
 3124TIP3    H2 9337   0.235   0.008   2.018
 3125TIP3   OH2 9338   5.759   0.506   1.498
 3125TIP3    H1 9339   5.854   0.511   1.513
 3125TIP3    H2 9340   5.726   0.458   1.575
 3126TIP3   OH2 9341   2.858   5.087   3.911
 3126TIP3    H1 9342   2.857   5.018   3.978
 3126TIP3    H2 9343   2.802   5.156   3.946
 3127TIP3   OH2 9344   1.140   0.272   2.755
 3127TIP3    H1 9345   1.142   0.259   2.849
 3127TIP3    H2 9346   1.185   0.196   2.718
 3128TIP3   OH2 9347   1.607   3.612   4.227
 3128TIP3    H1 9348   1.585   3.680   4.163
 3128TIP3    H2 9349   1.566   3.640   4.308
 3129TIP3   OH2 9350   0.806   3.936   5.454
 3129TIP3    H1 9351   0.820   4.024   5.419
 3129TIP3    H2 9352   0.730   3.903   5.406
 3130TIP3   OH2 9353   4.797   1.879   3.337
 3130TIP3    H1 9354   4.726   1.867   3.273
 3130TIP3    H2 9355   4.759   1.937   3.404
 3131TIP3   OH2 9356   3.805   3.872   1.334
 3131TIP3    H1 9357   3.877   3.912   1.384
 3131TIP3    H2 9358   3.777   3.798   1.386
 3132TIP3   OH2 9359   3.082   6.627   5.695
 3132TIP3    H1 9360   3.109   6.668   5.613
 3132TIP3    H2 9361   2.990   6.652   5.706
 3133TIP3   OH2 9362   6.057   2.459   5.861
 3133TIP3    H1 9363   6.096   2.544   5.842
 3133TIP3    H2 9364   6.059   2.412   5.778
 3134TIP3   OH2 9365   7.026   5.199   2.872
 3134TIP3    H1 9366   6.959   5.199   2.941
 3134TIP3    H2 9367   7.048   5.292   2.861
 3135TIP3   OH2 9368   0.549   3.092   2.120
 3135TIP3    H1 9369   0.566   3.009   2.076
 3135TIP3    H2 9370   0.608   3.092   2.195
 3136TIP3   OH2 9371   4.243   1.065   2.587
 3136TIP3    H1 9372   4.321   1.114   2.561
 3136TIP3    H2 9373   4.230   1.087   2.679
 3137TIP3   OH2 9374   0.277   5.088   1.505
 3137TIP3    H1 9375   0.299   5.167   1.456
 3137TIP3    H2 9376   0.222   5.120   1.577
 3138TIP3   OH2 9377   5.492   5.586   1.284
 3138TIP3    H1 9378   5.504   5.580   1.379
 3138TIP3    H2 9379   5.567   5.637   1.253
 3139TIP3   OH2 9380   6.713   5.322   3.841
 3139TIP3    H1 9381   6.646   5.261   3.871
 3139TIP3    H2 9382   6.767   5.338   3.918
 3140TIP3   OH2 9383   1.061   2.473   5.701
 3140TIP3    H1 9384   1.074   2.568   5.710
 3140TIP3    H2 9385   1.126   2.447   5.636
 3141TIP3   OH2 9386   1.854   4.055   3.071
 3141TIP3    H1 9387   1.918   4.124   3.087
 3141TIP3    H2 9388   1.774   4.087   3.112
 3142TIP3   OH2 9389   5.149   4.845   5.127
 3142TIP3    H1 9390   5.105   4.921   5.163
 3142TIP3    H2 9391   5.152   4.781   5.198
 3143TIP3   OH2 9392   5.672   2.866   2.824
 3143TIP3    H1 9393   5.652   2.774   2.809
 3143TIP3    H2 9394   5.750   2.865   2.879
 3144TIP3   OH2 9395   4.205   2.769   0.824
 3144TIP3    H1 9396   4.273   2.828   0.855
 3144TIP3    H2 9397   4.162   2.737   0.903
 3145TIP3   OH2 9398   7.237   1.295   1.292
 3145TIP3    H1 9399   7.224   1.311   1.198
 3145TIP3    H2 9400   7.204   1.374   1.334
 3146TIP3   OH2 9401   1.470   2.777   1.628
 3146TIP3    H1 9402   1.485   2.872   1.627
 3146TIP3    H2 9403   1.543   2.741   1.579
 3147TIP3   OH2 9404   7.174   3.654   1.679
 3147TIP3    H1 9405   7.259   3.623   1.648
 3147TIP3    H2 9406   7.120   3.575   1.683
 3148TIP3   OH2 9407   3.344   6.037   4.119
 3148TIP3    H1 9408   3.416   6.100   4.108
 3148TIP3    H2 9409   3.387   5.951   4.112
 3149TIP3   OH2 9410  -0.030   3.245   4.077
 3149TIP3    H1 9411   0.040   3.309   4.088
 3149TIP3    H2 9412  -0.059   3.256   3.987
 3150TIP3   OH2 9413   6.929   3.387   3.202
 3150TIP3    H1 9414   7.014   3.364   3.164
 3150TIP3    H2 9415   6.925   3.340   3.285
 3151TIP3   OH2 9416   3.208   1.410   3.985
 3151TIP3    H1 9417   3.177   1.486   4.034
 3151TIP3    H2 9418   3.135   1.349   3.985
 3152TIP3   OH2 9419   1.645   5.821   1.575
 3152TIP3    H1 9420   1.685   5.890   1.523
 3152TIP3    H2 9421   1.718   5.781   1.622
 3153TIP3   OH2 9422   3.155   0.667   1.124
 3153TIP3    H1 9423   3.194   0.697   1.206
 3153TIP3    H2 9424   3.091   0.602   1.151
 3154TIP3   OH2 9425   1.293   2.272   3.235
 3154TIP3    H1 9426   1.294   2.176   3.234
 3154TIP3    H2 9427   1.304   2.294   3.328
 3155TIP3   OH2 9428   4.925   1.617   5.647
 3155TIP3    H1 9429   4.992   1.571   5.597
 3155TIP3    H2 9430   4.865   1.651   5.581
 3156TIP3   OH2 9431   6.227   4.795   2.948
 3156TIP3    H1 9432   6.152   4.854   2.950
 3156TIP3    H2 9433   6.255   4.796   2.856
 3157TIP3   OH2 9434   1.057   3.262   1.099
 3157TIP3    H1 9435   1.005   3.282   1.021
 3157TIP3    H2 9436   1.115   3.192   1.072
 3158TIP3   OH2 9437   7.143   1.307   1.860
 3158TIP3    H1 9438   7.117   1.306   1.952
 3158TIP3    H2 9439   7.074   1.355   1.815
 3159TIP3   OH2 9440   2.758   6.145   3.692
 3159TIP3    H1 9441   2.749   6.117   3.783
 3159TIP3    H2 9442   2.703   6.223   3.685
 3160TIP3   OH2 9443   3.674   6.335   2.112
 3160TIP3    H1 9444   3.591   6.289   2.099
 3160TIP3    H2 9445   3.657   6.424   2.083
 3161TIP3   OH2 9446   4.219   3.563   3.618
 3161TIP3    H1 9447   4.224   3.652   3.655
 3161TIP3    H2 9448   4.152   3.519   3.672
 3162TIP3   OH2 9449   6.277   1.710   1.240
 3162TIP3    H1 9450   6.337   1.638   1.222
 3162TIP3    H2 9451   6.320   1.762   1.308
 3163TIP3   OH2 9452   0.540   3.503   5.262
 3163TIP3    H1 9453   0.521   3.567   5.194
 3163TIP3    H2 9454   0.618   3.537   5.306
 3164TIP3   OH2 9455   2.318   2.449   4.648
 3164TIP3    H1 9456   2.328   2.354   4.662
 3164TIP3    H2 9457   2.332   2.487   4.734
 3165TIP3   OH2 9458   0.265   2.916   5.009
 3165TIP3    H1 9459   0.212   2.939   5.085
 3165TIP3    H2 9460   0.269   2.820   5.010
 3166TIP3   OH2 9461   3.592   4.743   5.800
 3166TIP3    H1 9462   3.530   4.770   5.731
 3166TIP3    H2 9463   3.590   4.815   5.863
 3167TIP3   OH2 9464   3.810   4.964   4.540
 3167TIP3    H1 9465   3.762   5.028   4.593
 3167TIP3    H2 9466   3.766   4.966   4.455
 3168TIP3   OH2 9467   1.156   1.118   3.239
 3168TIP3    H1 9468   1.168   1.086   3.149
 3168TIP3    H2 9469   1.207   1.199   3.242
 3169TIP3   OH2 9470   1.971   4.462   1.724
 3169TIP3    H1 9471   2.053   4.508   1.743
 3169TIP3    H2 9472   1.918   4.526   1.678
 3170TIP3   OH2 9473   2.639   0.744   1.731
 3170TIP3    H1 9474   2.627   0.653   1.756
 3170TIP3    H2 9475   2.568   0.791   1.775
 3171TIP3   OH2 9476   0.256   2.603   1.744
 3171TIP3    H1 9477   0.224   2.565   1.826
 3171TIP3    H2 9478   0.351   2.609   1.756
 3172TIP3   OH2 9479   4.842   4.430   4.895
 3172TIP3    H1 9480   4.883   4.351   4.858
 3172TIP3    H2 9481   4.822   4.484   4.818
 3173TIP3   OH2 9482   4.277   3.779   1.519
 3173TIP3    H1 9483   4.369   3.753   1.516
 3173TIP3    H2 9484   4.239   3.723   1.586
 3174TIP3   OH2 9485   2.161   0.933   2.998
 3174TIP3    H1 9486   2.103   0.979   3.059
 3174TIP3    H2 9487   2.105   0.867   2.957
 3175TIP3   OH2 9488   1.384   0.329   1.514
 3175TIP3    H1 9489   1.384   0.421   1.488
 3175TIP3    H2 9490   1.311   0.321   1.576
 3176TIP3   OH2 9491   0.041   4.491   4.465
 3176TIP3    H1 9492   0.023   4.397   4.457
 3176TIP3    H2 9493  -0.036   4.533   4.428
 3177TIP3   OH2 9494   6.882   6.122   2.259
 3177TIP3    H1 9495   6.901   6.210   2.293
 3177TIP3    H2 9496   6.788   6.122   2.244
 3178TIP3   OH2 9497   5.964   0.602   2.445
 3178TIP3    H1 9498   5.872   0.583   2.465
 3178TIP3    H2 9499   5.978   0.690   2.479
 3179TIP3   OH2 9500   0.903   5.311   3.932
 3179TIP3    H1 9501   0.937   5.242   3.874
 3179TIP3    H2 9502   0.860   5.373   3.873
 3180TIP3   OH2 9503   2.790   5.010   2.353
 3180TIP3    H1 9504   2.790   4.992   2.259
 3180TIP3    H2 9505   2.791   4.924   2.394
 3181TIP3   OH2 9506   6.356   4.627   0.215
 3181TIP3    H1 9507   6.277   4.585   0.249
 3181TIP3    H2 9508   6.400   4.558   0.165
 3182TIP3   OH2 9509   0.163   5.230   4.500
 3182TIP3    H1 9510   0.171   5.291   4.427
 3182TIP3    H2 9511   0.096   5.168   4.472
 3183TIP3   OH2 9512   6.329   5.895   5.413
 3183TIP3    H1 9513   6.375   5.827   5.364
 3183TIP3    H2 9514   6.238   5.863   5.418
 3184TIP3   OH2 9515   2.718   4.909   0.111
 3184TIP3    H1 9516   2.728   5.004   0.124
 3184TIP3    H2 9517   2.799   4.873   0.148
 3185TIP3   OH2 9518   3.138   2.827   0.641
 3185TIP3    H1 9519   3.178   2.825   0.728
 3185TIP3    H2 9520   3.182   2.757   0.592
 3186TIP3   OH2 9521   6.513   2.611   3.481
 3186TIP3    H1 9522   6.579   2.552   3.445
 3186TIP3    H2 9523   6.528   2.610   3.575
 3187TIP3   OH2 9524   1.247   5.155   0.865
 3187TIP3    H1 9525   1.320   5.093   0.860
 3187TIP3    H2 9526   1.181   5.119   0.806
 3188TIP3   OH2 9527   6.252   2.559   2.850
 3188TIP3    H1 9528   6.315   2.518   2.909
 3188TIP3    H2 9529   6.305   2.596   2.779
 3189TIP3   OH2 9530   5.222   4.817   3.859
 3189TIP3    H1 9531   5.135   4.819   3.818
 3189TIP3    H2 9532   5.205   4.833   3.952
 3190TIP3   OH2 9533   2.565   3.771   1.142
 3190TIP3    H1 9534   2.500   3.761   1.072
 3190TIP3    H2 9535   2.587   3.865   1.141
 3191TIP3   OH2 9536   3.999   3.913   0.305
 3191TIP3    H1 9537   4.078   3.899   0.357
 3191TIP3    H2 9538   3.951   3.981   0.353
 3192TIP3   OH2 9539   0.413   4.060   1.004
 3192TIP3    H1 9540   0.322   4.063   0.977
 3192TIP3    H2 9541   0.433   3.966   1.010
 3193TIP3   OH2 9542   6.566   2.799   4.828
 3193TIP3    H1 9543   6.524   2.784   4.913
 3193TIP3    H2 9544   6.660   2.798   4.848
 3194TIP3   OH2 9545   4.503   6.532   5.503
 3194TIP3    H1 9546   4.540   6.620   5.512
 3194TIP3    H2 9547   4.487   6.502   5.592
 3195TIP3   OH2 9548   5.115   2.884   2.899
 3195TIP3    H1 9549   5.096   2.976   2.877
 3195TIP3    H2 9550   5.058   2.834   2.840
 3196TIP3   OH2 9551   5.429   0.614   4.417
 3196TIP3    H1 9552   5.389   0.538   4.373
 3196TIP3    H2 9553   5.378   0.689   4.386
 3197TIP3   OH2 9554   3.577   4.735   1.209
 3197TIP3    H1 9555   3.492   4.739   1.252
 3197TIP3    H2 9556   3.637   4.705   1.278
 3198TIP3   OH2 9557   6.623   2.428   3.804
 3198TIP3    H1 9558   6.655   2.367   3.870
 3198TIP3    H2 9559   6.645   2.388   3.720
 3199TIP3   OH2 9560   4.638   3.300   4.286
 3199TIP3    H1 9561   4.684   3.347   4.216
 3199TIP3    H2 9562   4.690   3.317   4.365
 3200TIP3   OH2 9563   4.747   3.229   5.488
 3200TIP3    H1 9564   4.744   3.172   5.565
 3200TIP3    H2 9565   4.719   3.173   5.416
 3201TIP3   OH2 9566   6.890   1.476   2.728
 3201TIP3    H1 9567   6.967   1.487   2.785
 3201TIP3    H2 9568   6.923   1.492   2.640
 3202TIP3   OH2 9569   5.382   4.987   5.100
 3202TIP3    H1 9570   5.340   5.059   5.053
 3202TIP3    H2 9571   5.310   4.930   5.126
 3203TIP3   OH2 9572   0.072   3.355   5.495
 3203TIP3    H1 9573   0.063   3.359   5.400
 3203TIP3    H2 9574   0.165   3.340   5.510
 3204TIP3   OH2 9575   0.450   1.349   1.622
 3204TIP3    H1 9576   0.464   1.436   1.584
 3204TIP3    H2 9577   0.355   1.340   1.626
 3205TIP3   OH2 9578   0.235   2.270   2.957
 3205TIP3    H1 9579   0.171   2.254   2.887
 3205TIP3    H2 9580   0.254   2.183   2.991
 3206TIP3   OH2 9581   4.828   1.228   2.256
 3206TIP3    H1 9582   4.829   1.323   2.246
 3206TIP3    H2 9583   4.735   1.204   2.251
 3207TIP3   OH2 9584   6.681   3.090   0.632
 3207TIP3    H1 9585   6.770   3.102   0.663
 3207TIP3    H2 9586   6.627   3.103   0.710
 3208TIP3   OH2 9587   1.432   1.613   0.346
 3208TIP3    H1 9588   1.454   1.524   0.320
 3208TIP3    H2 9589   1.356   1.604   0.403
 3209TIP3   OH2 9590   1.735   1.407   4.469
 3209TIP3    H1 9591   1.765   1.341   4.407
 3209TIP3    H2 9592   1.654   1.441   4.432
 3210TIP3   OH2 9593   4.797   5.026   5.044
 3210TIP3    H1 9594   4.778   4.949   4.990
 3210TIP3    H2 9595   4.712   5.069   5.055
 3211TIP3   OH2 9596   5.985   5.527   0.169
 3211TIP3    H1 9597   6.031   5.547   0.087
 3211TIP3    H2 9598   6.037   5.569   0.237
 3212TIP3   OH2 9599   1.369   3.495   0.492
 3212TIP3    H1 9600   1.383   3.587   0.470
 3212TIP3    H2 9601   1.453   3.453   0.475
 3213TIP3   OH2 9602   4.224   5.300   1.596
 3213TIP3    H1 9603   4.202   5.379   1.547
 3213TIP3    H2 9604   4.281   5.331   1.667
 3214TIP3   OH2 9605   4.217   6.106   1.864
 3214TIP3    H1 9606   4.221   6.112   1.959
 3214TIP3    H2 9607   4.218   6.197   1.833
 3215TIP3   OH2 9608   7.083   6.707   2.173
 3215TIP3    H1 9609   7.129   6.625   2.157
 3215TIP3    H2 9610   7.059   6.704   2.265
 3216TIP3   OH2 9611   1.550   2.537   2.400
 3216TIP3    H1 9612   1.482   2.601   2.421
 3216TIP3    H2 9613   1.630   2.575   2.436
 3217TIP3   OH2 9614   1.737   0.983   5.708
 3217TIP3    H1 9615   1.654   0.947   5.740
 3217TIP3    H2 9616   1.800   0.965   5.777
 3218TIP3   OH2 9617   2.195   3.953   1.001
 3218TIP3    H1 9618   2.180   3.992   1.088
 3218TIP3    H2 9619   2.151   3.868   1.006
 3219TIP3   OH2 9620   1.585   6.820   4.482
 3219TIP3    H1 9621   1.655   6.836   4.545
 3219TIP3    H2 9622   1.593   6.727   4.461
 3220TIP3   OH2 9623   6.078   6.579   4.524
 3220TIP3    H1 9624   6.040   6.618   4.603
 3220TIP3    H2 9625   6.153   6.528   4.556
 3221TIP3   OH2 9626   3.248   2.541   4.179
 3221TIP3    H1 9627   3.164   2.531   4.135
 3221TIP3    H2 9628   3.252   2.634   4.203
 3222TIP3   OH2 9629   4.178   2.513   2.715
 3222TIP3    H1 9630   4.174   2.545   2.625
 3222TIP3    H2 9631   4.119   2.437   2.716
 3223TIP3   OH2 9632   1.768   6.270   3.753
 3223TIP3    H1 9633   1.694   6.233   3.801
 3223TIP3    H2 9634   1.819   6.316   3.820
 3224TIP3   OH2 9635   4.066   4.065   3.943
 3224TIP3    H1 9636   3.982   4.097   3.976
 3224TIP3    H2 9637   4.053   4.059   3.848
 3225TIP3   OH2 9638   1.712   1.602   3.460
 3225TIP3    H1 9639   1.782   1.666   3.444
 3225TIP3    H2 9640   1.681   1.622   3.548
 3226TIP3   OH2 9641   1.436   2.650   3.912
 3226TIP3    H1 9642   1.524   2.631   3.945
 3226TIP3    H2 9643   1.389   2.567   3.918
 3227TIP3   OH2 9644   3.409   3.446   2.267
 3227TIP3    H1 9645   3.452   3.516   2.219
 3227TIP3    H2 9646   3.460   3.368   2.245
 3228TIP3   OH2 9647   3.972   6.048   4.802
 3228TIP3    H1 9648   4.042   6.008   4.854
 3228TIP3    H2 9649   4.009   6.055   4.714
 3229TIP3   OH2 9650   3.904   3.689   0.540
 3229TIP3    H1 9651   3.892   3.647   0.625
 3229TIP3    H2 9652   3.918   3.782   0.561
 3230TIP3   OH2 9653   6.915   4.390   4.722
 3230TIP3    H1 9654   6.927   4.423   4.811
 3230TIP3    H2 9655   6.874   4.462   4.675
 3231TIP3   OH2 9656   3.505   1.501   0.293
 3231TIP3    H1 9657   3.562   1.472   0.364
 3231TIP3    H2 9658   3.417   1.482   0.324
 3232TIP3   OH2 9659   6.640   1.162   4.166
 3232TIP3    H1 9660   6.616   1.249   4.197
 3232TIP3    H2 9661   6.734   1.156   4.182
 3233TIP3   OH2 9662   5.402   5.571   4.964
 3233TIP3    H1 9663   5.318   5.530   4.983
 3233TIP3    H2 9664   5.380   5.655   4.924
 3234TIP3   OH2 9665   4.906   3.747   2.587
 3234TIP3    H1 9666   4.873   3.663   2.619
 3234TIP3    H2 9667   4.987   3.761   2.635
 3235TIP3   OH2 9668   1.372   5.806   4.224
 3235TIP3    H1 9669   1.329   5.805   4.139
 3235TIP3    H2 9670   1.366   5.716   4.255
 3236TIP3   OH2 9671   1.648   3.541   3.009
 3236TIP3    H1 9672   1.648   3.456   3.053
 3236TIP3    H2 9673   1.630   3.520   2.917
 3237TIP3   OH2 9674   5.362   5.717   2.906
 3237TIP3    H1 9675   5.382   5.656   2.978
 3237TIP3    H2 9676   5.447   5.752   2.880
 3238TIP3   OH2 9677   6.266   1.442   5.144
 3238TIP3    H1 9678   6.286   1.435   5.050
 3238TIP3    H2 9679   6.339   1.398   5.187
 3239TIP3   OH2 9680   3.431   2.289   0.500
 3239TIP3    H1 9681   3.483   2.343   0.559
 3239TIP3    H2 9682   3.401   2.349   0.432
 3240TIP3   OH2 9683   2.125   0.227   4.314
 3240TIP3    H1 9684   2.127   0.225   4.410
 3240TIP3    H2 9685   2.089   0.314   4.293
 3241TIP3   OH2 9686   3.235   4.242   4.490
 3241TIP3    H1 9687   3.313   4.214   4.441
 3241TIP3    H2 9688   3.261   4.236   4.582
 3242TIP3   OH2 9689   4.384   5.659   0.734
 3242TIP3    H1 9690   4.439   5.737   0.744
 3242TIP3    H2 9691   4.444   5.591   0.705
 3243TIP3   OH2 9692   2.896   6.518  -0.010
 3243TIP3    H1 9693   2.977   6.565   0.009
 3243TIP3    H2 9694   2.885   6.458   0.063
 3244TIP3   OH2 9695   2.813   0.200   2.880
 3244TIP3    H1 9696   2.729   0.165   2.910
 3244TIP3    H2 9697   2.819   0.287   2.919
 3245TIP3   OH2 9698   3.194   1.620   4.392
 3245TIP3    H1 9699   3.243   1.614   4.310
 3245TIP3    H2 9700   3.153   1.534   4.401
 3246TIP3   OH2 9701   6.505   6.105   5.304
 3246TIP3    H1 9702   6.455   6.029   5.332
 3246TIP3    H2 9703   6.594   6.073   5.292
 3247TIP3   OH2 9704   6.058   3.588   5.029
 3247TIP3    H1 9705   6.063   3.502   5.070
 3247TIP3    H2 9706   5.983   3.582   4.970
 3248TIP3   OH2 9707   6.439   4.759   4.574
 3248TIP3    H1 9708   6.509   4.797   4.521
 3248TIP3    H2 9709   6.400   4.692   4.517
 3249TIP3   OH2 9710   4.091   2.068   2.465
 3249TIP3    H1 9711   4.149   2.011   2.517
 3249TIP3    H2 9712   4.006   2.058   2.506
 3250TIP3   OH2 9713   1.849   4.098   4.203
 3250TIP3    H1 9714   1.868   4.009   4.233
 3250TIP3    H2 9715   1.935   4.141   4.199
 3251TIP3   OH2 9716   1.344   2.114   1.003
 3251TIP3    H1 9717   1.363   2.050   1.072
 3251TIP3    H2 9718   1.404   2.092   0.932
 3252TIP3   OH2 9719   2.296   4.825   3.262
 3252TIP3    H1 9720   2.341   4.908   3.283
 3252TIP3    H2 9721   2.367   4.761   3.256
 3253TIP3   OH2 9722   0.283   5.901   1.009
 3253TIP3    H1 9723   0.240   5.843   1.071
 3253TIP3    H2 9724   0.285   5.986   1.052
 3254TIP3   OH2 9725   2.073   5.282   4.708
 3254TIP3    H1 9726   2.037   5.328   4.632
 3254TIP3    H2 9727   2.168   5.290   4.698
 3255TIP3   OH2 9728   6.126   4.309   5.094
 3255TIP3    H1 9729   6.127   4.308   5.190
 3255TIP3    H2 9730   6.085   4.393   5.072
 3256TIP3   OH2 9731   3.285   2.818   5.437
 3256TIP3    H1 9732   3.331   2.748   5.391
 3256TIP3    H2 9733   3.335   2.832   5.517
 3257TIP3   OH2 9734   2.792   3.522   3.911
 3257TIP3    H1 9735   2.738   3.443   3.906
 3257TIP3    H2 9736   2.796   3.553   3.820
 3258TIP3   OH2 9737   1.342   0.309   4.105
 3258TIP3    H1 9738   1.312   0.231   4.060
 3258TIP3    H2 9739   1.391   0.276   4.181
 3259TIP3   OH2 9740   5.296   0.046   5.620
 3259TIP3    H1 9741   5.219   0.032   5.675
 3259TIP3    H2 9742   5.274   0.123   5.567
 3260TIP3   OH2 9743   1.916   5.543   5.880
 3260TIP3    H1 9744   1.993   5.599   5.888
 3260TIP3    H2 9745   1.939   5.481   5.811
 3261TIP3   OH2 9746   2.000   0.936   0.102
 3261TIP3    H1 9747   1.973   0.980   0.183
 3261TIP3    H2 9748   1.964   0.848   0.109
 3262TIP3   OH2 9749   4.314   4.743   4.510
 3262TIP3    H1 9750   4.382   4.747   4.442
 3262TIP3    H2 9751   4.277   4.831   4.513
 3263TIP3   OH2 9752   6.652   6.744   3.937
 3263TIP3    H1 9753   6.630   6.746   4.030
 3263TIP3    H2 9754   6.637   6.653   3.910
 3264TIP3   OH2 9755   3.498   3.809   4.303
 3264TIP3    H1 9756   3.408   3.783   4.321
 3264TIP3    H2 9757   3.546   3.786   4.383
 3265TIP3   OH2 9758   4.173   2.895   0.440
 3265TIP3    H1 9759   4.173   2.985   0.473
 3265TIP3    H2 9760   4.227   2.898   0.361
 3266TIP3   OH2 9761   3.449   4.767   1.743
 3266TIP3    H1 9762   3.425   4.839   1.801
 3266TIP3    H2 9763   3.420   4.689   1.790
 3267TIP3   OH2 9764   7.127   3.562   0.146
 3267TIP3    H1 9765   7.187   3.499   0.106
 3267TIP3    H2 9766   7.157   3.647   0.112
 3268TIP3   OH2 9767   6.355   3.776   5.556
 3268TIP3    H1 9768   6.323   3.826   5.631
 3268TIP3    H2 9769   6.449   3.769   5.570
 3269TIP3   OH2 9770   0.756   1.478   4.123
 3269TIP3    H1 9771   0.806   1.557   4.142
 3269TIP3    H2 9772   0.665   1.507   4.118
 3270TIP3   OH2 9773   3.023   5.341   4.607
 3270TIP3    H1 9774   3.016   5.248   4.627
 3270TIP3    H2 9775   2.947   5.359   4.552
 3271TIP3   OH2 9776   6.496   5.158   3.850
 3271TIP3    H1 9777   6.529   5.120   3.769
 3271TIP3    H2 9778   6.406   5.183   3.831
 3272TIP3   OH2 9779   3.077   2.418   5.276
 3272TIP3    H1 9780   3.156   2.472   5.279
 3272TIP3    H2 9781   3.061   2.404   5.182
 3273TIP3   OH2 9782   2.372   5.494   1.307
 3273TIP3    H1 9783   2.289   5.449   1.292
 3273TIP3    H2 9784   2.418   5.490   1.223
 3274TIP3   OH2 9785   0.077   6.134   3.463
 3274TIP3    H1 9786   0.082   6.042   3.440
 3274TIP3    H2 9787  -0.005   6.142   3.512
 3275TIP3   OH2 9788   0.299   5.903   1.735
 3275TIP3    H1 9789   0.365   5.848   1.694
 3275TIP3    H2 9790   0.231   5.842   1.764
 3276TIP3   OH2 9791   2.359   0.856   4.930
 3276TIP3    H1 9792   2.438   0.833   4.881
 3276TIP3    H2 9793   2.386   0.858   5.021
 3277TIP3   OH2 9794   6.541   6.815   0.999
 3277TIP3    H1 9795   6.608   6.842   1.062
 3277TIP3    H2 9796   6.570   6.730   0.967
 3278TIP3   OH2 9797   0.701   1.863   0.346
 3278TIP3    H1 9798   0.795   1.877   0.359
 3278TIP3    H2 9799   0.695   1.790   0.285
 3279TIP3   OH2 9800   2.070   4.194   2.006
 3279TIP3    H1 9801   2.034   4.169   2.092
 3279TIP3    H2 9802   2.115   4.115   1.976
 3280TIP3   OH2 9803   1.434   3.191   3.083
 3280TIP3    H1 9804   1.368   3.150   3.027
 3280TIP3    H2 9805   1.448   3.129   3.154
 3281TIP3   OH2 9806   5.274   6.080   4.261
 3281TIP3    H1 9807   5.366   6.081   4.288
 3281TIP3    H2 9808   5.231   6.142   4.320
 3282TIP3   OH2 9809   0.214   1.799   3.803
 3282TIP3    H1 9810   0.174   1.715   3.825
 3282TIP3    H2 9811   0.224   1.796   3.708
 3283TIP3   OH2 9812   6.093   4.389   4.502
 3283TIP3    H1 9813   6.007   4.345   4.506
 3283TIP3    H2 9814   6.102   4.416   4.411
 3284TIP3   OH2 9815   2.302   5.253   4.023
 3284TIP3    H1 9816   2.323   5.233   3.931
 3284TIP3    H2 9817   2.210   5.280   4.021
 3285TIP3   OH2 9818   6.774   0.169   5.876
 3285TIP3    H1 9819   6.869   0.159   5.887
 3285TIP3    H2 9820   6.748   0.227   5.947
 3286TIP3   OH2 9821   2.814   4.240   1.765
 3286TIP3    H1 9822   2.834   4.170   1.827
 3286TIP3    H2 9823   2.762   4.303   1.816
 3287TIP3   OH2 9824   2.190   2.968   2.011
 3287TIP3    H1 9825   2.226   2.879   2.003
 3287TIP3    H2 9826   2.130   2.976   1.937
 3288TIP3   OH2 9827   0.950   4.565   2.844
 3288TIP3    H1 9828   0.981   4.653   2.864
 3288TIP3    H2 9829   0.860   4.577   2.813
 3289TIP3   OH2 9830   4.503   2.687   0.812
 3289TIP3    H1 9831   4.442   2.681   0.739
 3289TIP3    H2 9832   4.551   2.768   0.798
 3290TIP3   OH2 9833   0.288   3.290   3.782
 3290TIP3    H1 9834   0.224   3.360   3.794
 3290TIP3    H2 9835   0.251   3.215   3.828
 3291TIP3   OH2 9836   3.155   3.572   4.178
 3291TIP3    H1 9837   3.198   3.572   4.092
 3291TIP3    H2 9838   3.164   3.482   4.210
 3292TIP3   OH2 9839   2.605   4.215   0.508
 3292TIP3    H1 9840   2.628   4.131   0.468
 3292TIP3    H2 9841   2.513   4.227   0.487
 3293TIP3   OH2 9842   7.131   1.672   5.731
 3293TIP3    H1 9843   7.190   1.728   5.781
 3293TIP3    H2 9844   7.079   1.732   5.679
 3294TIP3   OH2 9845   2.695   4.823   3.470
 3294TIP3    H1 9846   2.713   4.883   3.542
 3294TIP3    H2 9847   2.674   4.740   3.513
 3295TIP3   OH2 9848   0.880   6.677   5.869
 3295TIP3    H1 9849   0.794   6.688   5.909
 3295TIP3    H2 9850   0.877   6.731   5.790
 3296TIP3   OH2 9851   6.528   4.130   1.032
 3296TIP3    H1 9852   6.465   4.065   0.998
 3296TIP3    H2 9853   6.514   4.129   1.127
 3297TIP3   OH2 9854   4.183   5.890   1.654
 3297TIP3    H1 9855   4.186   5.971   1.706
 3297TIP3    H2 9856   4.219   5.916   1.569
 3298TIP3   OH2 9857   6.706   5.704   0.862
 3298TIP3    H1 9858   6.724   5.684   0.953
 3298TIP3    H2 9859   6.719   5.621   0.815
 3299TIP3   OH2 9860   1.279   2.317   2.555
 3299TIP3    H1 9861   1.216   2.278   2.616
 3299TIP3    H2 9862   1.229   2.335   2.476
 3300TIP3   OH2 9863   1.828   2.829   5.551
 3300TIP3    H1 9864   1.869   2.847   5.636
 3300TIP3    H2 9865   1.881   2.758   5.514
 3301TIP3   OH2 9866   6.768   3.518   0.971
 3301TIP3    H1 9867   6.706   3.573   0.923
 3301TIP3    H2 9868   6.725   3.503   1.055
 3302TIP3   OH2 9869   3.940   1.032   5.828
 3302TIP3    H1 9870   3.861   1.029   5.775
 3302TIP3    H2 9871   3.939   0.950   5.877
 3303TIP3   OH2 9872   0.454   0.132   4.879
 3303TIP3    H1 9873   0.360   0.117   4.890
 3303TIP3    H2 9874   0.466   0.140   4.784
 3304TIP3   OH2 9875   1.448   3.513   5.544
 3304TIP3    H1 9876   1.416   3.441   5.490
 3304TIP3    H2 9877   1.510   3.472   5.605
 3305TIP3   OH2 9878   1.643   5.684   5.845
 3305TIP3    H1 9879   1.562   5.661   5.800
 3305TIP3    H2 9880   1.676   5.760   5.797
 3306TIP3   OH2 9881   4.948   2.329   0.509
 3306TIP3    H1 9882   5.032   2.358   0.545
 3306TIP3    H2 9883   4.942   2.237   0.533
 3307TIP3   OH2 9884   1.526   1.668   1.999
 3307TIP3    H1 9885   1.555   1.595   2.053
 3307TIP3    H2 9886   1.457   1.632   1.944
 3308TIP3   OH2 9887   6.093   6.551   0.679
 3308TIP3    H1 9888   6.008   6.516   0.652
 3308TIP3    H2 9889   6.116   6.502   0.757
 3309TIP3   OH2 9890   1.908   0.730   1.157
 3309TIP3    H1 9891   1.929   0.637   1.151
 3309TIP3    H2 9892   1.812   0.733   1.163
 3310TIP3   OH2 9893   5.967   5.566   4.486
 3310TIP3    H1 9894   5.878   5.549   4.516
 3310TIP3    H2 9895   6.018   5.578   4.566
 3311TIP3   OH2 9896   5.480   2.519   1.458
 3311TIP3    H1 9897   5.400   2.540   1.507
 3311TIP3    H2 9898   5.448   2.493   1.371
 3312TIP3   OH2 9899   2.797   2.035   0.893
 3312TIP3    H1 9900   2.723   2.024   0.952
 3312TIP3    H2 9901   2.769   1.997   0.811
 3313TIP3   OH2 9902   4.888   6.423   5.917
 3313TIP3    H1 9903   4.974   6.462   5.930
 3313TIP3    H2 9904   4.887   6.397   5.824
 3314TIP3   OH2 9905   6.303   1.917   1.651
 3314TIP3    H1 9906   6.360   1.856   1.603
 3314TIP3    H2 9907   6.256   1.964   1.582
 3315TIP3   OH2 9908   5.551   3.374   2.019
 3315TIP3    H1 9909   5.604   3.453   2.027
 3315TIP3    H2 9910   5.547   3.357   1.925
 3316TIP3   OH2 9911   4.587   3.618   1.836
 3316TIP3    H1 9912   4.547   3.643   1.753
 3316TIP3    H2 9913   4.601   3.523   1.829
 3317TIP3   OH2 9914   0.384   1.235   2.210
 3317TIP3    H1 9915   0.332   1.171   2.162
 3317TIP3    H2 9916   0.329   1.258   2.286
 3318TIP3   OH2 9917   5.788  -0.029   1.597
 3318TIP3    H1 9918   5.791   0.023   1.516
 3318TIP3    H2 9919   5.715   0.008   1.647
 3319TIP3   OH2 9920   0.426   3.116   0.928
 3319TIP3    H1 9921   0.412   3.149   0.839
 3319TIP3    H2 9922   0.462   3.190   0.976
 3320TIP3   OH2 9923   3.986   4.200   1.251
 3320TIP3    H1 9924   3.958   4.147   1.325
 3320TIP3    H2 9925   4.028   4.139   1.191
 3321TIP3   OH2 9926   1.539   3.065   2.758
 3321TIP3    H1 9927   1.447   3.092   2.751
 3321TIP3    H2 9928   1.576   3.083   2.672
 3322TIP3   OH2 9929   0.444   0.278   2.800
 3322TIP3    H1 9930   0.490   0.305   2.879
 3322TIP3    H2 9931   0.374   0.221   2.831
 3323TIP3   OH2 9932   6.863   2.193   0.489
 3323TIP3    H1 9933   6.876   2.099   0.498
 3323TIP3    H2 9934   6.945   2.226   0.451
 3324TIP3   OH2 9935   1.900   5.043   2.477
 3324TIP3    H1 9936   1.968   5.077   2.535
 3324TIP3    H2 9937   1.944   5.029   2.393
 3325TIP3   OH2 9938   5.460   2.864   0.153
 3325TIP3    H1 9939   5.387   2.925   0.166
 3325TIP3    H2 9940   5.498   2.890   0.069
 3326TIP3   OH2 9941   0.691   0.144   0.243
 3326TIP3    H1 9942   0.773   0.153   0.195
 3326TIP3    H2 9943   0.629   0.201   0.197
 3327TIP3   OH2 9944   0.782   6.234   0.641
 3327TIP3    H1 9945   0.822   6.261   0.723
 3327TIP3    H2 9946   0.857   6.211   0.584
 3328TIP3   OH2 9947   1.211   2.718   5.729
 3328TIP3    H1 9948   1.167   2.794   5.767
 3328TIP3    H2 9949   1.241   2.749   5.643
 3329TIP3   OH2 9950   4.260   1.539   0.042
 3329TIP3    H1 9951   4.345   1.577   0.064
 3329TIP3    H2 9952   4.242   1.477   0.112
 3330TIP3   OH2 9953   5.951   5.641   0.588
 3330TIP3    H1 9954   6.008   5.672   0.659
 3330TIP3    H2 9955   6.005   5.649   0.509
 3331TIP3   OH2 9956   5.829   3.534   3.304
 3331TIP3    H1 9957   5.790   3.612   3.342
 3331TIP3    H2 9958   5.880   3.565   3.229
 3332TIP3   OH2 9959   4.626   0.071   2.653
 3332TIP3    H1 9960   4.678  -0.008   2.636
 3332TIP3    H2 9961   4.689   0.133   2.690
 3333TIP3   OH2 9962   5.868   3.279   1.213
 3333TIP3    H1 9963   5.845   3.247   1.126
 3333TIP3    H2 9964   5.952   3.325   1.200
 3334TIP3   OH2 9965   4.744   2.511   0.568
 3334TIP3    H1 9966   4.720   2.543   0.481
 3334TIP3    H2 9967   4.811   2.445   0.551
 3335TIP3   OH2 9968   5.600   6.328   5.271
 3335TIP3    H1 9969   5.611   6.368   5.358
 3335TIP3    H2 9970   5.612   6.401   5.210
 3336TIP3   OH2 9971   2.598   0.395   2.096
 3336TIP3    H1 9972   2.631   0.432   2.178
 3336TIP3    H2 9973   2.602   0.300   2.110
 3337TIP3   OH2 9974   6.573   1.356   0.505
 3337TIP3    H1 9975   6.510   1.424   0.481
 3337TIP3    H2 9976   6.528   1.274   0.484
 3338TIP3   OH2 9977   5.608   2.333   2.771
 3338TIP3    H1 9978   5.513   2.341   2.773
 3338TIP3    H2 9979   5.629   2.281   2.849
 3339TIP3   OH2 9980   3.016   1.479   3.464
 3339TIP3    H1 9981   2.951   1.549   3.459
 3339TIP3    H2 9982   3.076   1.507   3.533
 3340TIP3   OH2 9983   5.959   4.194   5.332
 3340TIP3    H1 9984   5.928   4.153   5.251
 3340TIP3    H2 9985   5.910   4.275   5.338
 3341TIP3   OH2 9986   2.694   2.577   1.179
 3341TIP3    H1 9987   2.713   2.653   1.124
 3341TIP3    H2 9988   2.765   2.516   1.160
 3342TIP3   OH2 9989   6.451   5.915   1.698
 3342TIP3    H1 9990   6.399   5.995   1.703
 3342TIP3    H2 9991   6.402   5.859   1.638
 3343TIP3   OH2 9992   1.859   0.409   0.970
 3343TIP3    H1 9993   1.770   0.373   0.969
 3343TIP3    H2 9994   1.909   0.346   1.021
 3344TIP3   OH2 9995   5.193   3.025   3.393
 3344TIP3    H1 9996   5.150   2.960   3.338
 3344TIP3    H2 9997   5.268   2.979   3.431
 3345TIP3   OH2 9998   1.167   0.619   2.106
 3345TIP3    H1 9999   1.155   0.694   2.048
 3345TIP3    H210000   1.110   0.552   2.070
 3346TIP3   OH210001   7.057   4.908   0.927
 3346TIP3    H110002   7.031   4.867   1.009
 3346TIP3    H210003   7.091   4.994   0.952
 3347TIP3   OH210004   4.907   0.332   4.158
 3347TIP3    H110005   4.838   0.398   4.163
 3347TIP3    H210006   4.897   0.281   4.238
 3348TIP3   OH210007   6.881   3.482   4.878
 3348TIP3    H110008   6.959   3.429   4.894
 3348TIP3    H210009   6.818   3.452   4.944
 3349TIP3   OH210010   1.598   5.192   3.912
 3349TIP3    H110011   1.689   5.171   3.890
 3349TIP3    H210012   1.603   5.280   3.949
 3350TIP3   OH210013   1.278   5.775   4.511
 3350TIP3    H110014   1.219   5.829   4.458
 3350TIP3    H210015   1.365   5.813   4.497
 3351TIP3   OH210016   0.748   3.134   5.567
 3351TIP3    H110017   0.695   3.143   5.488
 3351TIP3    H210018   0.712   3.058   5.612
 3352TIP3   OH210019   6.927   2.316   3.523
 3352TIP3    H110020   6.933   2.408   3.551
 3352TIP3    H210021   6.882   2.272   3.596
 3353TIP3   OH210022   5.348   2.760   2.505
 3353TIP3    H110023   5.327   2.797   2.420
 3353TIP3    H210024   5.342   2.833   2.566
 3354TIP3   OH210025   0.654   1.613   4.428
 3354TIP3    H110026   0.748   1.629   4.418
 3354TIP3    H210027   0.613   1.696   4.404
 3355TIP3   OH210028   3.651   3.609   5.811
 3355TIP3    H110029   3.745   3.609   5.795
 3355TIP3    H210030   3.641   3.664   5.890
 3356TIP3   OH210031   3.693   1.033   2.660
 3356TIP3    H110032   3.676   1.105   2.600
 3356TIP3    H210033   3.640   0.960   2.626
 3357TIP3   OH210034   5.167   4.183   4.947
 3357TIP3    H110035   5.250   4.163   4.989
 3357TIP3    H210036   5.182   4.266   4.902
 3358TIP3   OH210037   5.089   5.473   0.122
 3358TIP3    H110038   5.144   5.546   0.094
 3358TIP3    H210039   5.151   5.406   0.151
 3359TIP3   OH210040   4.925   4.251   3.004
 3359TIP3    H110041   4.887   4.225   2.920
 3359TIP3    H210042   5.019   4.259   2.986
 3360TIP3   OH210043   0.189   1.524   1.632
 3360TIP3    H110044   0.195   1.464   1.707
 3360TIP3    H210045   0.203   1.611   1.669
 3361TIP3   OH210046   6.497   5.224   3.149
 3361TIP3    H110047   6.536   5.274   3.221
 3361TIP3    H210048   6.464   5.145   3.190
 3362TIP3   OH210049   6.575   1.869  -0.041
 3362TIP3    H110050   6.664   1.853  -0.009
 3362TIP3    H210051   6.518   1.828   0.024
 3363TIP3   OH210052   0.953   1.494   0.488
 3363TIP3    H110053   0.866   1.487   0.448
 3363TIP3    H210054   0.934   1.506   0.582
 3364TIP3   OH210055   0.620   3.200   4.707
 3364TIP3    H110056   0.661   3.274   4.751
 3364TIP3    H210057   0.630   3.127   4.768
 3365TIP3   OH210058   0.424   4.551   5.147
 3365TIP3    H110059   0.347   4.603   5.172
 3365TIP3    H210060   0.389   4.466   5.120
 3366TIP3   OH210061   4.976   5.034   0.083
 3366TIP3    H110062   4.936   4.959   0.038
 3366TIP3    H210063   4.902   5.084   0.116
 3367TIP3   OH210064   5.361   4.464   5.164
 3367TIP3    H110065   5.279   4.489   5.207
 3367TIP3    H210066   5.427   4.469   5.234
 3368TIP3   OH210067   2.401   5.774   5.429
 3368TIP3    H110068   2.462   5.800   5.498
 3368TIP3    H210069   2.317   5.762   5.475
 3369TIP3   OH210070   0.721   0.952   2.893
 3369TIP3    H110071   0.642   0.936   2.843
 3369TIP3    H210072   0.713   1.043   2.924
 3370TIP3   OH210073   4.109   2.246   5.594
 3370TIP3    H110074   4.148   2.198   5.521
 3370TIP3    H210075   4.076   2.178   5.653
 3371TIP3   OH210076   4.737   0.257   5.428
 3371TIP3    H110077   4.703   0.177   5.468
 3371TIP3    H210078   4.685   0.327   5.468
 3372TIP3   OH210079   2.582   2.747   4.579
 3372TIP3    H110080   2.518   2.766   4.647
 3372TIP3    H210081   2.542   2.678   4.527
 3373TIP3   OH210082   3.329   6.579   3.833
 3373TIP3    H110083   3.324   6.513   3.903
 3373TIP3    H210084   3.422   6.583   3.810
 3374TIP3   OH210085   6.691   4.610   5.839
 3374TIP3    H110086   6.685   4.555   5.917
 3374TIP3    H210087   6.768   4.664   5.853
 3375TIP3   OH210088   4.381   4.176   1.033
 3375TIP3    H110089   4.436   4.158   0.957
 3375TIP3    H210090   4.343   4.262   1.014
 3376TIP3   OH210091   6.601   3.772   3.309
 3376TIP3    H110092   6.675   3.737   3.258
 3376TIP3    H210093   6.608   3.867   3.299
 3377TIP3   OH210094   3.904   2.196   1.131
 3377TIP3    H110095   3.967   2.124   1.128
 3377TIP3    H210096   3.824   2.157   1.166
 3378TIP3   OH210097   6.061   5.239   0.171
 3378TIP3    H110098   5.998   5.275   0.109
 3378TIP3    H210099   6.009   5.209   0.244
 3379TIP3   OH210100   6.705   6.094   1.262
 3379TIP3    H110101   6.732   6.004   1.277
 3379TIP3    H210102   6.683   6.128   1.349
 3380TIP3   OH210103   2.686   1.037   3.740
 3380TIP3    H110104   2.622   1.102   3.709
 3380TIP3    H210105   2.634   0.976   3.793
 3381TIP3   OH210106   6.493   2.563   4.353
 3381TIP3    H110107   6.560   2.537   4.290
 3381TIP3    H210108   6.540   2.576   4.435
 3382TIP3   OH210109   2.217   1.501   1.742
 3382TIP3    H110110   2.285   1.444   1.778
 3382TIP3    H210111   2.205   1.569   1.808
 3383TIP3   OH210112   2.736   6.228   2.176
 3383TIP3    H110113   2.682   6.266   2.106
 3383TIP3    H210114   2.815   6.198   2.131
 3384TIP3   OH210115   4.663   6.612   1.714
 3384TIP3    H110116   4.635   6.576   1.630
 3384TIP3    H210117   4.716   6.543   1.754
 3385TIP3   OH210118   7.102   5.313   5.403
 3385TIP3    H110119   7.112   5.278   5.492
 3385TIP3    H210120   7.191   5.335   5.375
 3386TIP3   OH210121   3.431   0.198   5.165
 3386TIP3    H110122   3.357   0.174   5.221
 3386TIP3    H210123   3.478   0.264   5.215
 3387TIP3   OH210124   5.850   5.980   4.672
 3387TIP3    H110125   5.938   6.017   4.672
 3387TIP3    H210126   5.793   6.053   4.698
 3388TIP3   OH210127   3.035   0.090   3.930
 3388TIP3    H110128   3.101   0.144   3.973
 3388TIP3    H210129   3.055   0.098   3.837
 3389TIP3   OH210130   0.270   0.765   4.818
 3389TIP3    H110131   0.323   0.710   4.761
 3389TIP3    H210132   0.317   0.848   4.823
 3390TIP3   OH210133   2.635   6.616   0.066
 3390TIP3    H110134   2.583   6.579   0.138
 3390TIP3    H210135   2.698   6.673   0.109
 3391TIP3   OH210136   6.836   5.531   4.696
 3391TIP3    H110137   6.819   5.564   4.784
 3391TIP3    H210138   6.922   5.566   4.673
 3392TIP3   OH210139   3.806   4.459   4.782
 3392TIP3    H110140   3.833   4.533   4.727
 3392TIP3    H210141   3.887   4.428   4.823
 3393TIP3   OH210142   4.742   0.587   4.185
 3393TIP3    H110143   4.762   0.579   4.092
 3393TIP3    H210144   4.817   0.635   4.222
 3394TIP3   OH210145   0.273   1.277   3.157
 3394TIP3    H110146   0.234   1.219   3.092
 3394TIP3    H210147   0.281   1.224   3.236
 3395TIP3   OH210148   6.404   0.759   4.627
 3395TIP3    H110149   6.437   0.725   4.711
 3395TIP3    H210150   6.375   0.681   4.580
 3396TIP3   OH210151   6.880   4.356   3.883
 3396TIP3    H110152   6.865   4.409   3.962
 3396TIP3    H210153   6.974   4.339   3.884
 3397TIP3   OH210154   5.081   5.483   0.911
 3397TIP3    H110155   5.111   5.520   0.994
 3397TIP3    H210156   4.992   5.517   0.901
 3398TIP3   OH210157   3.878   0.743   3.752
 3398TIP3    H110158   3.840   0.811   3.696
 3398TIP3    H210159   3.926   0.791   3.819
 3399TIP3   OH210160   2.894   1.195   1.531
 3399TIP3    H110161   2.847   1.122   1.572
 3399TIP3    H210162   2.830   1.266   1.529
 3400TIP3   OH210163   2.435   1.513   2.596
 3400TIP3    H110164   2.356   1.460   2.607
 3400TIP3    H210165   2.421   1.561   2.515
 3401TIP3   OH210166   1.833   3.036   0.925
 3401TIP3    H110167   1.854   3.078   1.009
 3401TIP3    H210168   1.883   2.954   0.927
 3402TIP3   OH210169   5.211   0.499   2.218
 3402TIP3    H110170   5.170   0.419   2.185
 3402TIP3    H210171   5.302   0.492   2.190
 3403TIP3   OH210172   6.405   0.841   5.676
 3403TIP3    H110173   6.438   0.876   5.759
 3403TIP3    H210174   6.412   0.746   5.685
 3404TIP3   OH210175   4.939   5.616   0.467
 3404TIP3    H110176   5.006   5.664   0.419
 3404TIP3    H210177   4.873   5.595   0.401
 3405TIP3   OH210178   2.381   3.750   0.944
 3405TIP3    H110179   2.326   3.681   0.909
 3405TIP3    H210180   2.320   3.820   0.968
 3406TIP3   OH210181   1.424   4.764   3.556
 3406TIP3    H110182   1.485   4.825   3.514
 3406TIP3    H210183   1.460   4.751   3.644
 3407TIP3   OH210184   0.187   4.657   3.889
 3407TIP3    H110185   0.173   4.661   3.983
 3407TIP3    H210186   0.279   4.634   3.879
 3408TIP3   OH210187   0.192   1.553   0.910
 3408TIP3    H110188   0.254   1.599   0.967
 3408TIP3    H210189   0.247   1.498   0.854
 3409TIP3   OH210190   4.463   0.946   4.840
 3409TIP3    H110191   4.434   0.864   4.800
 3409TIP3    H210192   4.409   1.013   4.799
 3410TIP3   OH210193   3.327   1.280   4.263
 3410TIP3    H110194   3.248   1.234   4.235
 3410TIP3    H210195   3.324   1.363   4.216
 3411TIP3   OH210196   1.203   6.313   0.887
 3411TIP3    H110197   1.195   6.253   0.961
 3411TIP3    H210198   1.223   6.398   0.926
 3412TIP3   OH210199   6.645   1.735   2.003
 3412TIP3    H110200   6.555   1.703   2.011
 3412TIP3    H210201   6.651   1.807   2.065
 3413TIP3   OH210202   1.478   1.092   0.337
 3413TIP3    H110203   1.466   1.184   0.359
 3413TIP3    H210204   1.526   1.094   0.254
 3414TIP3   OH210205   6.552   3.030   0.934
 3414TIP3    H110206   6.602   3.111   0.942
 3414TIP3    H210207   6.618   2.962   0.924
 3415TIP3   OH210208   3.268   6.579   4.294
 3415TIP3    H110209   3.197   6.526   4.330
 3415TIP3    H210210   3.232   6.668   4.288
 3416TIP3   OH210211   0.137   2.974   5.255
 3416TIP3    H110212   0.046   2.953   5.273
 3416TIP3    H210213   0.140   3.070   5.254
 3417TIP3   OH210214   6.540   4.425   2.415
 3417TIP3    H110215   6.538   4.361   2.344
 3417TIP3    H210216   6.456   4.416   2.459
 3418TIP3   OH210217   7.036   4.497   0.733
 3418TIP3    H110218   6.942   4.508   0.714
 3418TIP3    H210219   7.039   4.445   0.813
 3419TIP3   OH210220   5.567   3.470   1.169
 3419TIP3    H110221   5.536   3.464   1.259
 3419TIP3    H210222   5.550   3.383   1.132
 3420TIP3   OH210223   2.927   0.496   5.169
 3420TIP3    H110224   2.882   0.534   5.095
 3420TIP3    H210225   2.905   0.402   5.165
 3421TIP3   OH210226   5.709   0.615   2.091
 3421TIP3    H110227   5.772   0.544   2.103
 3421TIP3    H210228   5.761   0.688   2.059
 3422TIP3   OH210229   5.494   6.327   4.939
 3422TIP3    H110230   5.567   6.388   4.931
 3422TIP3    H210231   5.427   6.377   4.986
 3423TIP3   OH210232   2.163   0.723   2.182
 3423TIP3    H110233   2.252   0.756   2.190
 3423TIP3    H210234   2.139   0.739   2.090
 3424TIP3   OH210235   1.154   4.109   1.621
 3424TIP3    H110236   1.162   4.096   1.526
 3424TIP3    H210237   1.234   4.072   1.657
 3425TIP3   OH210238   2.906   1.908   4.015
 3425TIP3    H110239   2.811   1.902   4.021
 3425TIP3    H210240   2.936   1.929   4.103
 3426TIP3   OH210241   5.710   1.411   5.775
 3426TIP3    H110242   5.652   1.345   5.737
 3426TIP3    H210243   5.798   1.381   5.752
 3427TIP3   OH210244   6.033   4.981   2.983
 3427TIP3    H110245   6.049   5.057   2.928
 3427TIP3    H210246   5.971   4.928   2.933
 3428TIP3   OH210247   4.562   5.388   4.512
 3428TIP3    H110248   4.645   5.401   4.559
 3428TIP3    H210249   4.523   5.311   4.553
 3429TIP3   OH210250   1.649   2.958   4.826
 3429TIP3    H110251   1.722   2.962   4.765
 3429TIP3    H210252   1.590   3.028   4.797
 3430TIP3   OH210253   2.312   6.533   2.499
 3430TIP3    H110254   2.339   6.606   2.554
 3430TIP3    H210255   2.217   6.533   2.502
 3431TIP3   OH210256   3.684   4.068   1.103
 3431TIP3    H110257   3.708   4.063   1.196
 3431TIP3    H210258   3.639   3.985   1.085
 3432TIP3   OH210259   2.732   2.793   3.126
 3432TIP3    H110260   2.723   2.698   3.123
 3432TIP3    H210261   2.803   2.809   3.188
 3433TIP3   OH210262   6.514   3.290   5.027
 3433TIP3    H110263   6.489   3.382   5.017
 3433TIP3    H210264   6.607   3.288   5.009
 3434TIP3   OH210265   4.891   0.710   3.234
 3434TIP3    H110266   4.911   0.770   3.162
 3434TIP3    H210267   4.938   0.630   3.212
 3435TIP3   OH210268   1.970   6.582   1.979
 3435TIP3    H110269   1.988   6.498   2.021
 3435TIP3    H210270   2.036   6.589   1.911
 3436TIP3   OH210271   4.144   4.538   1.589
 3436TIP3    H110272   4.183   4.619   1.557
 3436TIP3    H210273   4.093   4.566   1.666
 3437TIP3   OH210274   2.045   4.770   0.327
 3437TIP3    H110275   2.077   4.858   0.312
 3437TIP3    H210276   2.022   4.738   0.240
 3438TIP3   OH210277   5.163   5.778   3.178
 3438TIP3    H110278   5.161   5.856   3.123
 3438TIP3    H210279   5.104   5.716   3.135
 3439TIP3   OH210280   7.074   6.144   3.611
 3439TIP3    H110281   7.033   6.168   3.694
 3439TIP3    H210282   7.008   6.092   3.566
 3440TIP3   OH210283   6.417   6.277   2.931
 3440TIP3    H110284   6.448   6.334   3.000
 3440TIP3    H210285   6.363   6.333   2.875
 3441TIP3   OH210286   4.091   1.389   4.870
 3441TIP3    H110287   4.150   1.411   4.942
 3441TIP3    H210288   4.037   1.467   4.859
 3442TIP3   OH210289   5.282   5.824   1.809
 3442TIP3    H110290   5.188   5.807   1.816
 3442TIP3    H210291   5.294   5.852   1.718
 3443TIP3   OH210292   5.418   3.249   4.187
 3443TIP3    H110293   5.354   3.300   4.236
 3443TIP3    H210294   5.372   3.168   4.164
 3444TIP3   OH210295   2.915   1.372   3.730
 3444TIP3    H110296   2.896   1.329   3.813
 3444TIP3    H210297   3.001   1.412   3.742
 3445TIP3   OH210298   0.678   4.718   2.055
 3445TIP3    H110299   0.772   4.705   2.044
 3445TIP3    H210300   0.644   4.724   1.966
 3446TIP3   OH210301   5.158   3.290   3.362
 3446TIP3    H110302   5.217   3.306   3.289
 3446TIP3    H210303   5.161   3.195   3.375
 3447TIP3   OH210304   4.384   1.932   4.728
 3447TIP3    H110305   4.468   1.964   4.760
 3447TIP3    H210306   4.394   1.926   4.633
 3448TIP3   OH210307   4.473   6.018   3.486
 3448TIP3    H110308   4.441   6.108   3.479
 3448TIP3    H210309   4.563   6.022   3.456
 3449TIP3   OH210310   5.686   3.608   1.809
 3449TIP3    H110311   5.665   3.527   1.762
 3449TIP3    H210312   5.602   3.651   1.822
 3450TIP3   OH210313   4.046   0.248   5.221
 3450TIP3    H110314   4.121   0.298   5.254
 3450TIP3    H210315   3.975   0.270   5.281
 3451TIP3   OH210316   5.456   3.692   5.443
 3451TIP3    H110317   5.530   3.657   5.392
 3451TIP3    H210318   5.481   3.678   5.534
 3452TIP3   OH210319   0.476   2.561   2.086
 3452TIP3    H110320   0.476   2.540   2.179
 3452TIP3    H210321   0.447   2.481   2.043
 3453TIP3   OH210322   3.397   4.157   4.724
 3453TIP3    H110323   3.447   4.177   4.802
 3453TIP3    H210324   3.456   4.176   4.651
 3454TIP3   OH210325   0.646   0.989   3.632
 3454TIP3    H110326   0.573   0.995   3.570
 3454TIP3    H210327   0.691   0.908   3.608
 3455TIP3   OH210328   5.075   3.168   2.903
 3455TIP3    H110329   5.112   3.248   2.867
 3455TIP3    H210330   5.009   3.197   2.966
 3456TIP3   OH210331   5.791   2.907   4.809
 3456TIP3    H110332   5.885   2.922   4.797
 3456TIP3    H210333   5.770   2.951   4.891
 3457TIP3   OH210334   2.428   5.896   4.187
 3457TIP3    H110335   2.383   5.824   4.144
 3457TIP3    H210336   2.403   5.973   4.138
 3458TIP3   OH210337   6.428   3.310   1.044
 3458TIP3    H110338   6.386   3.247   0.985
 3458TIP3    H210339   6.481   3.257   1.103
 3459TIP3   OH210340   2.733   6.192   3.958
 3459TIP3    H110341   2.787   6.271   3.968
 3459TIP3    H210342   2.699   6.175   4.046
 3460TIP3   OH210343   0.179   5.736   2.909
 3460TIP3    H110344   0.271   5.716   2.927
 3460TIP3    H210345   0.182   5.810   2.849
 3461TIP3   OH210346   5.103   4.463   2.180
 3461TIP3    H110347   5.095   4.415   2.263
 3461TIP3    H210348   5.197   4.467   2.164
 3462TIP3   OH210349   2.869   3.778  -0.008
 3462TIP3    H110350   2.789   3.829   0.001
 3462TIP3    H210351   2.907   3.776   0.080
 3463TIP3   OH210352   4.678   3.707   1.059
 3463TIP3    H110353   4.625   3.627   1.062
 3463TIP3    H210354   4.674   3.734   0.967
 3464TIP3   OH210355   5.795   1.316   5.118
 3464TIP3    H110356   5.874   1.310   5.065
 3464TIP3    H210357   5.818   1.373   5.191
 3465TIP3   OH210358   2.194   3.337   3.947
 3465TIP3    H110359   2.119   3.349   4.005
 3465TIP3    H210360   2.254   3.409   3.968
 3466TIP3   OH210361   1.158   6.484   4.778
 3466TIP3    H110362   1.072   6.525   4.770
 3466TIP3    H210363   1.191   6.512   4.863
 3467TIP3   OH210364   6.058   2.283   4.497
 3467TIP3    H110365   6.143   2.269   4.539
 3467TIP3    H210366   5.996   2.232   4.549
 3468TIP3   OH210367   5.234   6.714   3.463
 3468TIP3    H110368   5.185   6.648   3.513
 3468TIP3    H210369   5.167   6.761   3.414
 3469TIP3   OH210370   2.066   6.402   0.714
 3469TIP3    H110371   2.118   6.431   0.639
 3469TIP3    H210372   2.121   6.338   0.759
 3470TIP3   OH210373   5.339   6.697   4.150
 3470TIP3    H110374   5.322   6.716   4.058
 3470TIP3    H210375   5.281   6.624   4.171
 3471TIP3   OH210376   4.583   4.923   0.473
 3471TIP3    H110377   4.564   4.829   0.468
 3471TIP3    H210378   4.664   4.928   0.524
 3472TIP3   OH210379   6.625   2.926   5.548
 3472TIP3    H110380   6.695   2.990   5.557
 3472TIP3    H210381   6.558   2.956   5.609
 3473TIP3   OH210382   2.231   1.365   3.618
 3473TIP3    H110383   2.220   1.290   3.559
 3473TIP3    H210384   2.173   1.432   3.583
 3474TIP3   OH210385   1.127   0.117   1.903
 3474TIP3    H110386   1.196   0.051   1.905
 3474TIP3    H210387   1.111   0.138   1.995
 3475TIP3   OH210388   7.181   3.102   0.842
 3475TIP3    H110389   7.191   3.194   0.863
 3475TIP3    H210390   7.254   3.059   0.887
 3476TIP3   OH210391   4.178   5.342   3.735
 3476TIP3    H110392   4.184   5.410   3.668
 3476TIP3    H210393   4.115   5.376   3.799
 3477TIP3   OH210394   4.620   3.878   5.802
 3477TIP3    H110395   4.559   3.817   5.761
 3477TIP3    H210396   4.686   3.822   5.843
 3478TIP3   OH210397   1.590   1.915   3.693
 3478TIP3    H110398   1.582   1.999   3.649
 3478TIP3    H210399   1.652   1.930   3.764
 3479TIP3   OH210400   1.846   6.497   3.389
 3479TIP3    H110401   1.927   6.446   3.395
 3479TIP3    H210402   1.846   6.551   3.468
 3480TIP3   OH210403   4.163   1.772   3.482
 3480TIP3    H110404   4.209   1.688   3.487
 3480TIP3    H210405   4.086   1.754   3.428
 3481TIP3   OH210406   1.634   0.675   1.132
 3481TIP3    H110407   1.623   0.610   1.063
 3481TIP3    H210408   1.554   0.727   1.130
 3482TIP3   OH210409   3.779   6.476   3.145
 3482TIP3    H110410   3.767   6.568   3.122
 3482TIP3    H210411   3.693   6.448   3.178
 3483TIP3   OH210412   6.891   2.973   1.863
 3483TIP3    H110413   6.806   2.937   1.838
 3483TIP3    H210414   6.870   3.035   1.934
 3484TIP3   OH210415   7.066   0.160   4.277
 3484TIP3    H110416   7.037   0.194   4.362
 3484TIP3    H210417   7.016   0.079   4.265
 3485TIP3   OH210418   0.514   2.244   5.119
 3485TIP3    H110419   0.420   2.246   5.133
 3485TIP3    H210420   0.526   2.188   5.042
 3486TIP3   OH210421   0.287   2.135   1.627
 3486TIP3    H110422   0.321   2.112   1.714
 3486TIP3    H210423   0.197   2.103   1.628
 3487TIP3   OH210424   5.555   5.237   5.434
 3487TIP3    H110425   5.511   5.208   5.514
 3487TIP3    H210426   5.485   5.254   5.372
 3488TIP3   OH210427   6.082   3.395   1.056
 3488TIP3    H110428   6.146   3.465   1.041
 3488TIP3    H210429   6.041   3.381   0.971
 3489TIP3   OH210430   5.332   2.281   1.625
 3489TIP3    H110431   5.343   2.341   1.699
 3489TIP3    H210432   5.384   2.204   1.648
 3490TIP3   OH210433   4.558   6.125   3.108
 3490TIP3    H110434   4.609   6.063   3.161
 3490TIP3    H210435   4.606   6.207   3.114
 3491TIP3   OH210436   5.769   5.168   2.299
 3491TIP3    H110437   5.684   5.213   2.307
 3491TIP3    H210438   5.769   5.104   2.370
 3492TIP3   OH210439   2.184   4.231   5.351
 3492TIP3    H110440   2.128   4.218   5.427
 3492TIP3    H210441   2.229   4.314   5.367
 3493TIP3   OH210442   1.400   0.585   5.738
 3493TIP3    H110443   1.307   0.568   5.721
 3493TIP3    H210444   1.446   0.532   5.673
 3494TIP3   OH210445   4.114   5.668   2.103
 3494TIP3    H110446   4.197   5.625   2.082
 3494TIP3    H210447   4.101   5.732   2.032
 3495TIP3   OH210448   4.537   1.145   2.294
 3495TIP3    H110449   4.476   1.170   2.225
 3495TIP3    H210450   4.518   1.204   2.367
 3496TIP3   OH210451   4.416   1.317   2.486
 3496TIP3    H110452   4.431   1.330   2.580
 3496TIP3    H210453   4.364   1.392   2.459
 3497TIP3   OH210454   4.854   5.992   0.968
 3497TIP3    H110455   4.899   6.063   0.921
 3497TIP3    H210456   4.763   5.997   0.937
 3498TIP3   OH210457   6.497   5.365   3.587
 3498TIP3    H110458   6.423   5.417   3.617
 3498TIP3    H210459   6.514   5.303   3.659
 3499TIP3   OH210460   6.201   4.994   0.112
 3499TIP3    H110461   6.164   5.082   0.123
 3499TIP3    H210462   6.125   4.936   0.114
 3500TIP3   OH210463   2.362   0.163   5.475
 3500TIP3    H110464   2.283   0.173   5.423
 3500TIP3    H210465   2.349   0.220   5.551
 3501TIP3   OH210466   4.603   3.724   2.945
 3501TIP3    H110467   4.634   3.644   2.902
 3501TIP3    H210468   4.514   3.736   2.914
 3502TIP3   OH210469   4.703   6.745   3.244
 3502TIP3    H110470   4.626   6.688   3.242
 3502TIP3    H210471   4.756   6.710   3.316
 3503TIP3   OH210472   4.616   3.220   2.682
 3503TIP3    H110473   4.558   3.297   2.680
 3503TIP3    H210474   4.557   3.146   2.694
 3504TIP3   OH210475   3.163   1.678   0.828
 3504TIP3    H110476   3.187   1.659   0.737
 3504TIP3    H210477   3.219   1.752   0.853
 3505TIP3   OH210478   2.408   5.023   4.668
 3505TIP3    H110479   2.382   5.115   4.666
 3505TIP3    H210480   2.332   4.977   4.703
 3506TIP3   OH210481   5.349   4.536   1.439
 3506TIP3    H110482   5.325   4.590   1.514
 3506TIP3    H210483   5.388   4.597   1.377
 3507TIP3   OH210484   0.627   4.103   1.590
 3507TIP3    H110485   0.622   4.198   1.601
 3507TIP3    H210486   0.721   4.085   1.584
 3508TIP3   OH210487   2.259   0.092   4.118
 3508TIP3    H110488   2.268   0.166   4.057
 3508TIP3    H210489   2.239   0.132   4.202
 3509TIP3   OH210490   0.096   1.942   3.253
 3509TIP3    H110491   0.069   1.866   3.201
 3509TIP3    H210492   0.182   1.965   3.219
 3510TIP3   OH210493   5.444   5.274   4.982
 3510TIP3    H110494   5.365   5.231   4.951
 3510TIP3    H210495   5.424   5.300   5.072
 3511TIP3   OH210496   6.251   5.353   1.028
 3511TIP3    H110497   6.157   5.373   1.035
 3511TIP3    H210498   6.282   5.355   1.118
 3512TIP3   OH210499   4.653   4.770   1.496
 3512TIP3    H110500   4.594   4.737   1.430
 3512TIP3    H210501   4.637   4.715   1.573
 3513TIP3   OH210502   0.856   5.972   4.739
 3513TIP3    H110503   0.845   6.007   4.827
 3513TIP3    H210504   0.947   5.991   4.717
 3514TIP3   OH210505   1.422   1.886   5.092
 3514TIP3    H110506   1.510   1.895   5.055
 3514TIP3    H210507   1.374   1.961   5.058
 3515TIP3   OH210508   4.250   1.524   2.409
 3515TIP3    H110509   4.212   1.561   2.329
 3515TIP3    H210510   4.174   1.494   2.460
 3516TIP3   OH210511   4.494   1.413   0.940
 3516TIP3    H110512   4.509   1.321   0.917
 3516TIP3    H210513   4.581   1.452   0.943
 3517TIP3   OH210514   5.476   6.690   0.993
 3517TIP3    H110515   5.493   6.622   0.928
 3517TIP3    H210516   5.422   6.754   0.948
 3518TIP3   OH210517   3.963   6.362   5.612
 3518TIP3    H110518   3.979   6.304   5.686
 3518TIP3    H210519   3.986   6.449   5.644
 3519TIP3   OH210520   5.967   1.514   0.203
 3519TIP3    H110521   5.979   1.514   0.298
 3519TIP3    H210522   5.915   1.436   0.186
 3520TIP3   OH210523   4.586   0.766   2.567
 3520TIP3    H110524   4.591   0.777   2.662
 3520TIP3    H210525   4.678   0.761   2.540
 3521TIP3   OH210526   3.121   3.701   5.817
 3521TIP3    H110527   3.205   3.710   5.862
 3521TIP3    H210528   3.141   3.720   5.725
 3522TIP3   OH210529   2.611   4.223   1.586
 3522TIP3    H110530   2.680   4.208   1.651
 3522TIP3    H210531   2.614   4.146   1.529
 3523TIP3   OH210532   6.443   1.571   2.151
 3523TIP3    H110533   6.418   1.514   2.223
 3523TIP3    H210534   6.360   1.603   2.115
 3524TIP3   OH210535   6.682   1.995   2.268
 3524TIP3    H110536   6.612   2.030   2.213
 3524TIP3    H210537   6.757   2.052   2.251
 3525TIP3   OH210538   0.104   5.775   5.532
 3525TIP3    H110539   0.012   5.766   5.554
 3525TIP3    H210540   0.147   5.793   5.616
 3526TIP3   OH210541   6.717   4.453   4.076
 3526TIP3    H110542   6.691   4.365   4.104
 3526TIP3    H210543   6.653   4.476   4.008
 3527TIP3   OH210544   6.829   4.785   5.553
 3527TIP3    H110545   6.924   4.785   5.547
 3527TIP3    H210546   6.806   4.693   5.565
 3528TIP3   OH210547   1.384   2.388   3.486
 3528TIP3    H110548   1.363   2.354   3.573
 3528TIP3    H210549   1.409   2.479   3.501
 3529TIP3   OH210550   4.420   0.666   1.989
 3529TIP3    H110551   4.330   0.698   1.987
 3529TIP3    H210552   4.424   0.601   1.918
 3530TIP3   OH210553   5.802   0.102   4.034
 3530TIP3    H110554   5.793   0.073   4.125
 3530TIP3    H210555   5.780   0.195   4.037
 3531TIP3   OH210556   6.342   2.521   1.103
 3531TIP3    H110557   6.376   2.610   1.106
 3531TIP3    H210558   6.334   2.502   1.009
 3532TIP3   OH210559   0.197   2.711   0.894
 3532TIP3    H110560   0.184   2.802   0.921
 3532TIP3    H210561   0.287   2.709   0.860
 3533TIP3   OH210562   3.748   2.141   0.557
 3533TIP3    H110563   3.730   2.233   0.575
 3533TIP3    H210564   3.776   2.139   0.465
 3534TIP3   OH210565   3.844   2.315   0.054
 3534TIP3    H110566   3.857   2.405   0.085
 3534TIP3    H210567   3.865   2.261   0.131
 3535TIP3   OH210568   6.615   4.902   2.914
 3535TIP3    H110569   6.581   4.981   2.871
 3535TIP3    H210570   6.710   4.911   2.909
 3536TIP3   OH210571   6.730   0.216   0.015
 3536TIP3    H110572   6.716   0.283   0.082
 3536TIP3    H210573   6.679   0.141   0.046
 3537TIP3   OH210574   4.905   0.332   5.201
 3537TIP3    H110575   4.815   0.314   5.173
 3537TIP3    H210576   4.897   0.400   5.267
 3538TIP3   OH210577   4.803   4.584   3.654
 3538TIP3    H110578   4.761   4.501   3.675
 3538TIP3    H210579   4.788   4.596   3.560
 3539TIP3   OH210580   3.745   5.912  -0.011
 3539TIP3    H110581   3.688   5.981  -0.044
 3539TIP3    H210582   3.686   5.853   0.036
 3540TIP3   OH210583   5.084   4.312   0.852
 3540TIP3    H110584   5.017   4.251   0.883
 3540TIP3    H210585   5.035   4.382   0.810
 3541TIP3   OH210586   6.975   4.111   1.394
 3541TIP3    H110587   6.995   4.019   1.414
 3541TIP3    H210588   7.011   4.160   1.468
 3542TIP3   OH210589   6.325   1.756   4.403
 3542TIP3    H110590   6.409   1.726   4.436
 3542TIP3    H210591   6.337   1.762   4.308
 3543TIP3   OH210592   6.386   6.198   4.047
 3543TIP3    H110593   6.411   6.261   4.114
 3543TIP3    H210594   6.370   6.117   4.096
 3544TIP3   OH210595   7.063   2.917   4.389
 3544TIP3    H110596   7.014   2.840   4.360
 3544TIP3    H210597   7.128   2.931   4.320
 3545TIP3   OH210598   3.659   5.295   3.405
 3545TIP3    H110599   3.600   5.355   3.360
 3545TIP3    H210600   3.718   5.263   3.337
 3546TIP3   OH210601   5.125   2.419   1.139
 3546TIP3    H110602   5.063   2.346   1.138
 3546TIP3    H210603   5.100   2.472   1.063
 3547TIP3   OH210604   4.848   4.126   0.901
 3547TIP3    H110605   4.824   4.054   0.842
 3547TIP3    H210606   4.888   4.082   0.977
 3548TIP3   OH210607   2.676   2.154   1.845
 3548TIP3    H110608   2.740   2.088   1.819
 3548TIP3    H210609   2.621   2.110   1.909
 3549TIP3   OH210610   4.465   2.760   3.802
 3549TIP3    H110611   4.473   2.847   3.840
 3549TIP3    H210612   4.401   2.771   3.731
 3550TIP3   OH210613   7.177   1.466   1.481
 3550TIP3    H110614   7.107   1.469   1.546
 3550TIP3    H210615   7.258   1.459   1.532
 3551TIP3   OH210616   1.990   1.427   5.535
 3551TIP3    H110617   1.903   1.461   5.514
 3551TIP3    H210618   2.009   1.462   5.622
 3552TIP3   OH210619   4.572   2.337   3.535
 3552TIP3    H110620   4.494   2.293   3.501
 3552TIP3    H210621   4.636   2.267   3.545
 3553TIP3   OH210622   4.261   1.630   4.620
 3553TIP3    H110623   4.189   1.684   4.654
 3553TIP3    H210624   4.297   1.586   4.697
 3554TIP3   OH210625   6.762   3.381   2.366
 3554TIP3    H110626   6.705   3.304   2.363
 3554TIP3    H210627   6.756   3.419   2.279
 3555TIP3   OH210628   6.091   0.327   4.490
 3555TIP3    H110629   6.008   0.352   4.450
 3555TIP3    H210630   6.158   0.368   4.435
 3556TIP3   OH210631   2.746   3.992   4.734
 3556TIP3    H110632   2.695   4.018   4.658
 3556TIP3    H210633   2.761   3.898   4.722
 3557TIP3   OH210634   4.119   1.152   1.893
 3557TIP3    H110635   4.127   1.152   1.989
 3557TIP3    H210636   4.116   1.244   1.869
 3558TIP3   OH210637   6.909   5.302   0.518
 3558TIP3    H110638   6.837   5.242   0.536
 3558TIP3    H210639   6.987   5.256   0.550
 3559TIP3   OH210640   3.962   2.711   2.287
 3559TIP3    H110641   3.913   2.762   2.223
 3559TIP3    H210642   3.952   2.760   2.369
 3560TIP3   OH210643   7.021   6.533   1.754
 3560TIP3    H110644   7.082   6.593   1.712
 3560TIP3    H210645   6.967   6.498   1.682
 3561TIP3   OH210646   6.255   1.594   3.179
 3561TIP3    H110647   6.215   1.616   3.095
 3561TIP3    H210648   6.263   1.498   3.177
 3562TIP3   OH210649   5.656   6.154   4.792
 3562TIP3    H110650   5.572   6.192   4.821
 3562TIP3    H210651   5.721   6.199   4.846
 3563TIP3   OH210652   5.389   2.213   3.344
 3563TIP3    H110653   5.358   2.285   3.289
 3563TIP3    H210654   5.357   2.235   3.432
 3564TIP3   OH210655   1.511   2.868   0.258
 3564TIP3    H110656   1.550   2.781   0.265
 3564TIP3    H210657   1.417   2.853   0.253
 3565TIP3   OH210658   4.371   6.652   5.289
 3565TIP3    H110659   4.365   6.738   5.330
 3565TIP3    H210660   4.419   6.598   5.353
 3566TIP3   OH210661   0.103   3.843   0.837
 3566TIP3    H110662   0.023   3.839   0.890
 3566TIP3    H210663   0.155   3.769   0.867
 3567TIP3   OH210664   1.686   4.552   4.729
 3567TIP3    H110665   1.697   4.619   4.795
 3567TIP3    H210666   1.664   4.600   4.649
 3568TIP3   OH210667   5.060   6.722   4.342
 3568TIP3    H110668   5.057   6.737   4.247
 3568TIP3    H210669   5.088   6.632   4.351
 3569TIP3   OH210670   2.265   3.708   1.933
 3569TIP3    H110671   2.254   3.732   1.841
 3569TIP3    H210672   2.229   3.782   1.981
 3570TIP3   OH210673   6.531   1.402   4.307
 3570TIP3    H110674   6.438   1.387   4.289
 3570TIP3    H210675   6.555   1.478   4.254
 3571TIP3   OH210676   0.392   5.959   3.703
 3571TIP3    H110677   0.298   5.980   3.705
 3571TIP3    H210678   0.397   5.877   3.655
 3572TIP3   OH210679   4.181   6.705   3.802
 3572TIP3    H110680   4.189   6.609   3.803
 3572TIP3    H210681   4.240   6.735   3.870
 3573TIP3   OH210682   7.130   4.794   5.520
 3573TIP3    H110683   7.214   4.838   5.505
 3573TIP3    H210684   7.150   4.701   5.509
 3574TIP3   OH210685   6.520   6.524   0.961
 3574TIP3    H110686   6.465   6.488   0.892
 3574TIP3    H210687   6.467   6.517   1.041
 3575TIP3   OH210688   5.912   5.173   3.328
 3575TIP3    H110689   5.864   5.218   3.397
 3575TIP3    H210690   5.903   5.230   3.251
 3576TIP3   OH210691   4.351   6.760   2.177
 3576TIP3    H110692   4.274   6.814   2.195
 3576TIP3    H210693   4.424   6.822   2.179
 3577TIP3   OH210694   0.471   1.537   4.649
 3577TIP3    H110695   0.527   1.523   4.573
 3577TIP3    H210696   0.398   1.589   4.615
 3578TIP3   OH210697   6.411   6.686   2.613
 3578TIP3    H110698   6.446   6.663   2.698
 3578TIP3    H210699   6.465   6.759   2.583
 3579TIP3   OH210700   5.204   4.952   1.312
 3579TIP3    H110701   5.138   4.932   1.246
 3579TIP3    H210702   5.167   4.922   1.394
 3580TIP3   OH210703   1.379   1.538   1.484
 3580TIP3    H110704   1.328   1.536   1.403
 3580TIP3    H210705   1.359   1.456   1.528
 3581TIP3   OH210706   7.204   1.054   2.355
 3581TIP3    H110707   7.121   1.006   2.346
 3581TIP3    H210708   7.207   1.081   2.446
 3582TIP3   OH210709   5.775   1.678   1.581
 3582TIP3    H110710   5.836   1.617   1.540
 3582TIP3    H210711   5.704   1.623   1.614
 3583TIP3   OH210712   4.730   5.818   1.238
 3583TIP3    H110713   4.759   5.732   1.207
 3583TIP3    H210714   4.654   5.838   1.184
 3584TIP3   OH210715   5.786   0.604   0.782
 3584TIP3    H110716   5.762   0.682   0.832
 3584TIP3    H210717   5.860   0.631   0.728
 3585TIP3   OH210718   5.779   5.390   0.396
 3585TIP3    H110719   5.756   5.301   0.371
 3585TIP3    H210720   5.864   5.381   0.439
 3586TIP3   OH210721   1.094   6.634   5.611
 3586TIP3    H110722   1.042   6.560   5.642
 3586TIP3    H210723   1.182   6.618   5.646
 3587TIP3   OH210724   2.920   2.707   2.572
 3587TIP3    H110725   3.005   2.671   2.547
 3587TIP3    H210726   2.868   2.630   2.597
 3588TIP3   OH210727   4.513   0.661   4.285
 3588TIP3    H110728   4.587   0.610   4.252
 3588TIP3    H210729   4.509   0.640   4.378
 3589TIP3   OH210730   3.230   1.079   0.812
 3589TIP3    H110731   3.265   1.001   0.855
 3589TIP3    H210732   3.168   1.116   0.875
 3590TIP3   OH210733   1.209   4.774   5.702
 3590TIP3    H110734   1.219   4.853   5.649
 3590TIP3    H210735   1.249   4.797   5.786
 3591TIP3   OH210736   5.940   3.120   1.585
 3591TIP3    H110737   5.932   3.053   1.517
 3591TIP3    H210738   5.950   3.202   1.538
 3592TIP3   OH210739   6.434   2.457   4.736
 3592TIP3    H110740   6.526   2.440   4.720
 3592TIP3    H210741   6.390   2.430   4.655
 3593TIP3   OH210742   5.143   2.054   1.134
 3593TIP3    H110743   5.051   2.056   1.107
 3593TIP3    H210744   5.148   2.116   1.207
 3594TIP3   OH210745   0.485   5.639   3.823
 3594TIP3    H110746   0.529   5.706   3.875
 3594TIP3    H210747   0.496   5.668   3.732
 3595TIP3   OH210748   2.719   3.174   0.009
 3595TIP3    H110749   2.782   3.184   0.080
 3595TIP3    H210750   2.740   3.244  -0.053
 3596TIP3   OH210751   2.237   3.292   5.622
 3596TIP3    H110752   2.267   3.332   5.540
 3596TIP3    H210753   2.175   3.225   5.595
 3597TIP3   OH210754   4.744   5.573   5.772
 3597TIP3    H110755   4.669   5.536   5.820
 3597TIP3    H210756   4.821   5.536   5.816
 3598TIP3   OH210757   5.024   5.432   5.581
 3598TIP3    H110758   4.941   5.476   5.562
 3598TIP3    H210759   5.046   5.386   5.500
 3599TIP3   OH210760   3.042   3.149   1.844
 3599TIP3    H110761   2.993   3.230   1.832
 3599TIP3    H210762   2.976   3.080   1.843
 3600TIP3   OH210763   3.638   1.604   4.107
 3600TIP3    H110764   3.661   1.617   4.015
 3600TIP3    H210765   3.672   1.517   4.129
 3601TIP3   OH210766   5.987   4.058   2.222
 3601TIP3    H110767   5.922   4.081   2.157
 3601TIP3    H210768   6.027   3.977   2.188
 3602TIP3   OH210769   2.754   3.036   4.808
 3602TIP3    H110770   2.785   3.103   4.870
 3602TIP3    H210771   2.762   3.077   4.722
 3603TIP3   OH210772   4.706   2.182   4.650
 3603TIP3    H110773   4.797   2.154   4.652
 3603TIP3    H210774   4.679   2.172   4.558
 3604TIP3   OH210775   0.079   4.723   1.238
 3604TIP3    H110776   0.159   4.670   1.235
 3604TIP3    H210777   0.083   4.769   1.322
 3605TIP3   OH210778   6.104   6.119   4.521
 3605TIP3    H110779   6.066   6.201   4.489
 3605TIP3    H210780   6.085   6.119   4.615
 3606TIP3   OH210781   1.735   6.452   2.898
 3606TIP3    H110782   1.775   6.516   2.839
 3606TIP3    H210783   1.798   6.443   2.969
 3607TIP3   OH210784   3.046   4.779   0.061
 3607TIP3    H110785   2.997   4.776   0.143
 3607TIP3    H210786   3.137   4.783   0.088
 3608TIP3   OH210787   0.174   5.009   1.141
 3608TIP3    H110788   0.189   4.983   1.050
 3608TIP3    H210789   0.161   4.926   1.188
 3609TIP3   OH210790   1.824   1.208   4.281
 3609TIP3    H110791   1.828   1.125   4.328
 3609TIP3    H210792   1.916   1.235   4.273
 3610TIP3   OH210793   3.580   5.245   1.030
 3610TIP3    H110794   3.523   5.221   0.957
 3610TIP3    H210795   3.603   5.162   1.071
 3611TIP3   OH210796   2.411   0.525   1.925
 3611TIP3    H110797   2.420   0.606   1.975
 3611TIP3    H210798   2.477   0.467   1.962
 3612TIP3   OH210799   0.208   6.486   0.489
 3612TIP3    H110800   0.137   6.421   0.479
 3612TIP3    H210801   0.283   6.435   0.517
 3613TIP3   OH210802   1.237   1.845   5.571
 3613TIP3    H110803   1.288   1.874   5.496
 3613TIP3    H210804   1.301   1.833   5.641
 3614TIP3   OH210805   0.785   1.950   5.679
 3614TIP3    H110806   0.693   1.943   5.654
 3614TIP3    H210807   0.832   1.957   5.596
 3615TIP3   OH210808   4.913   5.997   4.780
 3615TIP3    H110809   4.900   5.919   4.835
 3615TIP3    H210810   4.983   6.045   4.823
 3616TIP3   OH210811   5.611   6.331   4.514
 3616TIP3    H110812   5.552   6.371   4.578
 3616TIP3    H210813   5.694   6.319   4.561
 3617TIP3   OH210814   0.788   1.494   1.139
 3617TIP3    H110815   0.832   1.428   1.085
 3617TIP3    H210816   0.710   1.518   1.089
 3618TIP3   OH210817   0.330   4.746   3.465
 3618TIP3    H110818   0.298   4.832   3.491
 3618TIP3    H210819   0.424   4.759   3.450
 3619TIP3   OH210820   6.773   2.655   1.819
 3619TIP3    H110821   6.709   2.675   1.887
 3619TIP3    H210822   6.721   2.640   1.741
 3620TIP3   OH210823   1.915   1.722   5.716
 3620TIP3    H110824   1.937   1.644   5.766
 3620TIP3    H210825   1.983   1.728   5.649
 3621TIP3   OH210826   2.080   5.140   2.663
 3621TIP3    H110827   2.119   5.053   2.658
 3621TIP3    H210828   2.099   5.171   2.751
 3622TIP3   OH210829   0.618   5.899   5.788
 3622TIP3    H110830   0.631   5.983   5.744
 3622TIP3    H210831   0.703   5.877   5.826
 3623TIP3   OH210832   3.257   1.451   0.426
 3623TIP3    H110833   3.194   1.430   0.357
 3623TIP3    H210834   3.249   1.380   0.489
 3624TIP3   OH210835   6.580   1.036   3.909
 3624TIP3    H110836   6.520   0.961   3.912
 3624TIP3    H210837   6.597   1.056   4.001
 3625TIP3   OH210838   6.570   3.943   5.384
 3625TIP3    H110839   6.482   3.963   5.351
 3625TIP3    H210840   6.593   4.019   5.437
 3626TIP3   OH210841   3.582   4.783   4.749
 3626TIP3    H110842   3.669   4.747   4.736
 3626TIP3    H210843   3.571   4.845   4.676
 3627TIP3   OH210844   2.993   3.047   3.793
 3627TIP3    H110845   2.962   3.131   3.827
 3627TIP3    H210846   2.927   3.021   3.729
 3628TIP3   OH210847   5.106   1.448   4.091
 3628TIP3    H110848   5.192   1.408   4.098
 3628TIP3    H210849   5.071   1.445   4.180
 3629TIP3   OH210850   6.223   4.475   4.018
 3629TIP3    H110851   6.159   4.505   4.082
 3629TIP3    H210852   6.290   4.432   4.071
 3630TIP3   OH210853   1.372   1.905   5.881
 3630TIP3    H110854   1.444   1.954   5.921
 3630TIP3    H210855   1.384   1.815   5.912
 3631TIP3   OH210856   5.127   6.615   2.297
 3631TIP3    H110857   5.072   6.550   2.254
 3631TIP3    H210858   5.134   6.687   2.233
 3632TIP3   OH210859   4.089   3.269   3.083
 3632TIP3    H110860   4.102   3.362   3.102
 3632TIP3    H210861   3.994   3.258   3.083
 3633TIP3   OH210862   2.681   2.953   1.500
 3633TIP3    H110863   2.736   2.892   1.450
 3633TIP3    H210864   2.733   3.033   1.505
 3634TIP3   OH210865   3.053   2.056   1.353
 3634TIP3    H110866   2.972   2.075   1.401
 3634TIP3    H210867   3.024   2.038   1.263
 3635TIP3   OH210868   0.698   2.774   3.089
 3635TIP3    H110869   0.792   2.769   3.105
 3635TIP3    H210870   0.689   2.841   3.021
 3636TIP3   OH210871   5.312   1.885   0.404
 3636TIP3    H110872   5.303   1.915   0.494
 3636TIP3    H210873   5.316   1.790   0.410
 3637TIP3   OH210874   3.805   3.258   3.040
 3637TIP3    H110875   3.713   3.235   3.033
 3637TIP3    H210876   3.805   3.351   3.064
 3638TIP3   OH210877   6.332   5.928   4.447
 3638TIP3    H110878   6.256   5.985   4.445
 3638TIP3    H210879   6.302   5.848   4.490
 3639TIP3   OH210880   5.693   6.367   3.070
 3639TIP3    H110881   5.709   6.456   3.100
 3639TIP3    H210882   5.741   6.312   3.133
 3640TIP3   OH210883   5.980   2.793   1.616
 3640TIP3    H110884   5.908   2.832   1.566
 3640TIP3    H210885   6.002   2.714   1.567
 3641TIP3   OH210886   4.693   2.079   5.601
 3641TIP3    H110887   4.616   2.081   5.544
 3641TIP3    H210888   4.674   2.011   5.665
 3642TIP3   OH210889   0.949   2.925   2.685
 3642TIP3    H110890   0.857   2.944   2.672
 3642TIP3    H210891   0.995   2.989   2.630
 3643TIP3   OH210892   5.436   2.065   0.250
 3643TIP3    H110893   5.523   2.027   0.241
 3643TIP3    H210894   5.394   2.014   0.319
 3644TIP3   OH210895   2.336   3.136   1.773
 3644TIP3    H110896   2.420   3.117   1.816
 3644TIP3    H210897   2.292   3.052   1.769
 3645TIP3   OH210898   3.367   4.850   3.904
 3645TIP3    H110899   3.318   4.884   3.830
 3645TIP3    H210900   3.362   4.755   3.895
 3646TIP3   OH210901   4.199   2.446   0.899
 3646TIP3    H110902   4.245   2.490   0.969
 3646TIP3    H210903   4.253   2.370   0.878
 3647TIP3   OH210904   6.969   3.139   1.106
 3647TIP3    H110905   7.026   3.064   1.087
 3647TIP3    H210906   6.899   3.103   1.161
 3648TIP3   OH210907   3.820   6.679   0.236
 3648TIP3    H110908   3.902   6.639   0.206
 3648TIP3    H210909   3.809   6.648   0.325
 3649TIP3   OH210910   1.729   6.741   4.835
 3649TIP3    H110911   1.704   6.658   4.794
 3649TIP3    H210912   1.745   6.719   4.926
 3650TIP3   OH210913   5.902   0.438   5.730
 3650TIP3    H110914   5.820   0.485   5.743
 3650TIP3    H210915   5.936   0.470   5.647
 3651TIP3   OH210916   3.185   3.180   1.212
 3651TIP3    H110917   3.122   3.245   1.241
 3651TIP3    H210918   3.255   3.231   1.171
 3652TIP3   OH210919   4.752   4.874   5.398
 3652TIP3    H110920   4.714   4.834   5.476
 3652TIP3    H210921   4.688   4.938   5.370
 3653TIP3   OH210922   6.804   1.771   4.682
 3653TIP3    H110923   6.811   1.685   4.640
 3653TIP3    H210924   6.718   1.804   4.655
 3654TIP3   OH210925   0.630   2.721   4.115
 3654TIP3    H110926   0.612   2.815   4.121
 3654TIP3    H210927   0.558   2.686   4.063
 3655TIP3   OH210928   3.993   5.848   3.979
 3655TIP3    H110929   3.940   5.785   3.931
 3655TIP3    H210930   4.024   5.799   4.056
 3656TIP3   OH210931   3.368   3.338   3.845
 3656TIP3    H110932   3.433   3.318   3.912
 3656TIP3    H210933   3.318   3.258   3.835
 3657TIP3   OH210934   6.615   0.470   4.486
 3657TIP3    H110935   6.646   0.533   4.422
 3657TIP3    H210936   6.692   0.450   4.540
 3658TIP3   OH210937   1.787   1.410   2.685
 3658TIP3    H110938   1.799   1.500   2.655
 3658TIP3    H210939   1.695   1.405   2.710
 3659TIP3   OH210940   0.712   6.751   2.605
 3659TIP3    H110941   0.771   6.765   2.679
 3659TIP3    H210942   0.743   6.812   2.538
 3660TIP3   OH210943   0.555   0.859   1.433
 3660TIP3    H110944   0.556   0.954   1.442
 3660TIP3    H210945   0.551   0.827   1.523
 3661TIP3   OH210946   4.524   5.109   0.743
 3661TIP3    H110947   4.564   5.194   0.728
 3661TIP3    H210948   4.524   5.066   0.657
 3662TIP3   OH210949   4.760   2.618   2.115
 3662TIP3    H110950   4.847   2.595   2.147
 3662TIP3    H210951   4.777   2.677   2.041
 3663TIP3   OH210952   6.523   6.422   4.169
 3663TIP3    H110953   6.558   6.433   4.081
 3663TIP3    H210954   6.596   6.384   4.219
 3664TIP3   OH210955   6.298   6.668   5.130
 3664TIP3    H110956   6.244   6.707   5.199
 3664TIP3    H210957   6.243   6.671   5.052
 3665TIP3   OH210958   0.880   0.472   0.253
 3665TIP3    H110959   0.819   0.464   0.327
 3665TIP3    H210960   0.966   0.487   0.294
 3666TIP3   OH210961   3.756   0.692   5.371
 3666TIP3    H110962   3.842   0.664   5.339
 3666TIP3    H210963   3.726   0.757   5.307
 3667TIP3   OH210964   2.265   0.601   0.455
 3667TIP3    H110965   2.340   0.574   0.507
 3667TIP3    H210966   2.199   0.534   0.471
 3668TIP3   OH210967   3.840   1.769   0.815
 3668TIP3    H110968   3.814   1.860   0.826
 3668TIP3    H210969   3.928   1.773   0.776
 3669TIP3   OH210970   2.494   2.630   0.923
 3669TIP3    H110971   2.432   2.574   0.969
 3669TIP3    H210972   2.458   2.639   0.835
 3670TIP3   OH210973   2.786   1.627   3.441
 3670TIP3    H110974   2.795   1.701   3.500
 3670TIP3    H210975   2.721   1.656   3.376
 3671TIP3   OH210976   3.343   4.994   2.471
 3671TIP3    H110977   3.395   5.037   2.403
 3671TIP3    H210978   3.407   4.960   2.533
 3672TIP3   OH210979   1.787   1.002   4.082
 3672TIP3    H110980   1.731   1.050   4.021
 3672TIP3    H210981   1.862   1.060   4.096
 3673TIP3   OH210982   6.457   0.995   0.731
 3673TIP3    H110983   6.511   1.071   0.756
 3673TIP3    H210984   6.416   0.966   0.812
 3674TIP3   OH210985   7.065   6.589   2.745
 3674TIP3    H110986   7.151   6.548   2.754
 3674TIP3    H210987   7.003   6.525   2.780
 3675TIP3   OH210988   3.843   0.415   4.878
 3675TIP3    H110989   3.804   0.410   4.791
 3675TIP3    H210990   3.905   0.342   4.881
 3676TIP3   OH210991   3.491   2.353   1.383
 3676TIP3    H110992   3.410   2.303   1.396
 3676TIP3    H210993   3.468   2.418   1.317
 3677TIP3   OH210994   0.795   5.369   1.201
 3677TIP3    H110995   0.884   5.357   1.233
 3677TIP3    H210996   0.804   5.390   1.108
 3678TIP3   OH210997   5.505   5.123   1.038
 3678TIP3    H110998   5.590   5.084   1.054
 3678TIP3    H210999   5.500   5.196   1.099
 3679TIP3   OH211000   1.565   3.356   5.725
 3679TIP3    H111001   1.563   3.303   5.646
 3679TIP3    H211002   1.489   3.327   5.775
 3680TIP3   OH211003   3.117   5.893   2.590
 3680TIP3    H111004   3.107   5.802   2.563
 3680TIP3    H211005   3.162   5.935   2.516
 3681TIP3   OH211006   1.040   0.197   5.692
 3681TIP3    H111007   1.106   0.236   5.634
 3681TIP3    H211008   1.078   0.113   5.719
 3682TIP3   OH211009   2.287   3.000   4.086
 3682TIP3    H111010   2.216   3.064   4.096
 3682TIP3    H211011   2.310   2.976   4.176
 3683TIP3   OH211012   3.732   2.437   0.599
 3683TIP3    H111013   3.764   2.502   0.537
 3683TIP3    H211014   3.801   2.432   0.666
 3684TIP3   OH211015   5.663   2.733   5.440
 3684TIP3    H111016   5.568   2.724   5.430
 3684TIP3    H211017   5.699   2.655   5.396
 3685TIP3   OH211018   2.675   1.553   3.111
 3685TIP3    H111019   2.642   1.549   3.021
 3685TIP3    H211020   2.637   1.633   3.147
 3686TIP3   OH211021   0.768   0.457   5.867
 3686TIP3    H111022   0.684   0.498   5.849
 3686TIP3    H211023   0.832   0.526   5.851
 3687TIP3   OH211024   2.682   5.817   1.416
 3687TIP3    H111025   2.742   5.777   1.480
 3687TIP3    H211026   2.711   5.783   1.331
 3688TIP3   OH211027   6.832   0.111   1.087
 3688TIP3    H111028   6.766   0.145   1.027
 3688TIP3    H211029   6.836   0.018   1.067
 3689TIP3   OH211030   3.941   2.122   2.722
 3689TIP3    H111031   4.031   2.154   2.718
 3689TIP3    H211032   3.892   2.178   2.662
 3690TIP3   OH211033   1.540   4.349   4.862
 3690TIP3    H111034   1.604   4.393   4.807
 3690TIP3    H211035   1.483   4.420   4.893
 3691TIP3   OH211036   6.966   0.866   3.438
 3691TIP3    H111037   7.034   0.889   3.501
 3691TIP3    H211038   7.011   0.868   3.353
 3692TIP3   OH211039   5.815   2.858   3.277
 3692TIP3    H111040   5.788   2.934   3.328
 3692TIP3    H211041   5.891   2.824   3.323
 3693TIP3   OH211042   0.833   6.266   0.220
 3693TIP3    H111043   0.831   6.357   0.249
 3693TIP3    H211044   0.903   6.264   0.154
 3694TIP3   OH211045   4.123   2.431   1.665
 3694TIP3    H111046   4.082   2.416   1.580
 3694TIP3    H211047   4.165   2.516   1.656
 3695TIP3   OH211048   6.448   5.375   5.282
 3695TIP3    H111049   6.491   5.348   5.364
 3695TIP3    H211050   6.486   5.318   5.215
 3696TIP3   OH211051   3.512   1.935   5.839
 3696TIP3    H111052   3.503   1.889   5.756
 3696TIP3    H211053   3.535   2.025   5.815
 3697TIP3   OH211054   3.064   4.874   4.479
 3697TIP3    H111055   3.070   4.834   4.566
 3697TIP3    H211056   3.155   4.891   4.454
 3698TIP3   OH211057   5.561   1.798   4.913
 3698TIP3    H111058   5.473   1.822   4.942
 3698TIP3    H211059   5.590   1.873   4.861
 3699TIP3   OH211060   6.111   4.654   1.579
 3699TIP3    H111061   6.131   4.632   1.670
 3699TIP3    H211062   6.175   4.605   1.527
 3700TIP3   OH211063   2.588   4.850   3.906
 3700TIP3    H111064   2.532   4.773   3.910
 3700TIP3    H211065   2.567   4.900   3.985
 3701TIP3   OH211066   3.052   3.337   3.594
 3701TIP3    H111067   3.147   3.335   3.608
 3701TIP3    H211068   3.025   3.420   3.634
 3702TIP3   OH211069   3.754   0.317   2.970
 3702TIP3    H111070   3.839   0.356   2.991
 3702TIP3    H211071   3.717   0.377   2.905
 3703TIP3   OH211072   7.061   2.938   5.350
 3703TIP3    H111073   7.050   2.865   5.411
 3703TIP3    H211074   7.003   3.007   5.383
 3704TIP3   OH211075   3.105   1.842   4.554
 3704TIP3    H111076   3.196   1.872   4.552
 3704TIP3    H211077   3.103   1.767   4.496
 3705TIP3   OH211078   6.084   5.574   4.765
 3705TIP3    H111079   6.105   5.489   4.726
 3705TIP3    H211080   6.049   5.552   4.852
 3706TIP3   OH211081   6.026   0.558   4.653
 3706TIP3    H111082   6.103   0.595   4.609
 3706TIP3    H211083   6.003   0.482   4.601
 3707TIP3   OH211084   1.398   5.688   5.093
 3707TIP3    H111085   1.472   5.747   5.107
 3707TIP3    H211086   1.337   5.707   5.164
 3708TIP3   OH211087   3.332   3.170   4.387
 3708TIP3    H111088   3.301   3.196   4.474
 3708TIP3    H211089   3.426   3.155   4.399
 3709TIP3   OH211090   4.042   0.555   1.688
 3709TIP3    H111091   4.072   0.505   1.612
 3709TIP3    H211092   4.058   0.498   1.763
 3710TIP3   OH211093   3.942   0.420   2.200
 3710TIP3    H111094   3.935   0.444   2.292
 3710TIP3    H211095   4.009   0.478   2.165
 3711TIP3   OH211096   6.656   1.578   2.851
 3711TIP3    H111097   6.625   1.650   2.796
 3711TIP3    H211098   6.740   1.552   2.811
 3712TIP3   OH211099   2.513   0.251   5.861
 3712TIP3    H111100   2.516   0.178   5.799
 3712TIP3    H211101   2.439   0.231   5.918
 3713TIP3   OH211102   2.066   4.091   3.859
 3713TIP3    H111103   2.001   4.029   3.891
 3713TIP3    H211104   2.146   4.039   3.849
 3714TIP3   OH211105   2.086   3.508   1.993
 3714TIP3    H111106   2.140   3.429   1.994
 3714TIP3    H211107   2.147   3.579   1.974
 3715TIP3   OH211108   4.697   2.460   4.632
 3715TIP3    H111109   4.644   2.480   4.555
 3715TIP3    H211110   4.700   2.365   4.636
 3716TIP3   OH211111   3.243   4.003   3.686
 3716TIP3    H111112   3.210   4.080   3.639
 3716TIP3    H211113   3.259   3.938   3.617
 3717TIP3   OH211114   0.779   2.711   2.239
 3717TIP3    H111115   0.872   2.720   2.258
 3717TIP3    H211116   0.753   2.631   2.286
 3718TIP3   OH211117   2.786   1.773   4.646
 3718TIP3    H111118   2.792   1.865   4.621
 3718TIP3    H211119   2.875   1.740   4.637
 3719TIP3   OH211120   3.453   1.024   3.530
 3719TIP3    H111121   3.436   0.983   3.615
 3719TIP3    H211122   3.443   1.118   3.546
 3720TIP3   OH211123   6.308   6.651   0.335
 3720TIP3    H111124   6.218   6.641   0.366
 3720TIP3    H211125   6.310   6.737   0.293
 3721TIP3   OH211126   5.359   1.211   4.390
 3721TIP3    H111127   5.331   1.299   4.416
 3721TIP3    H211128   5.454   1.212   4.399
 3722TIP3   OH211129   6.991   4.758   0.147
 3722TIP3    H111130   6.907   4.790   0.180
 3722TIP3    H211131   7.046   4.836   0.141
 3723TIP3   OH211132   3.417   5.212   3.082
 3723TIP3    H111133   3.416   5.305   3.058
 3723TIP3    H211134   3.385   5.210   3.172
 3724TIP3   OH211135   1.641   1.564   1.158
 3724TIP3    H111136   1.580   1.625   1.200
 3724TIP3    H211137   1.718   1.617   1.137
 3725TIP3   OH211138   1.265   5.122   0.447
 3725TIP3    H111139   1.228   5.189   0.390
 3725TIP3    H211140   1.190   5.064   0.466
 3726TIP3   OH211141   1.732   6.564   4.093
 3726TIP3    H111142   1.823   6.592   4.089
 3726TIP3    H211143   1.737   6.469   4.102
 3727TIP3   OH211144   0.527   1.437   5.100
 3727TIP3    H111145   0.537   1.344   5.084
 3727TIP3    H211146   0.558   1.450   5.189
 3728TIP3   OH211147   6.371   4.652   3.305
 3728TIP3    H111148   6.427   4.704   3.247
 3728TIP3    H211149   6.415   4.655   3.390
 3729TIP3   OH211150   2.583   1.256   0.880
 3729TIP3    H111151   2.520   1.288   0.815
 3729TIP3    H211152   2.646   1.204   0.829
 3730TIP3   OH211153   6.210   3.182   4.779
 3730TIP3    H111154   6.147   3.132   4.728
 3730TIP3    H211155   6.233   3.125   4.852
 3731TIP3   OH211156   1.610   3.251   3.593
 3731TIP3    H111157   1.586   3.286   3.680
 3731TIP3    H211158   1.530   3.259   3.542
 3732TIP3   OH211159   4.600   3.908   3.924
 3732TIP3    H111160   4.626   3.815   3.919
 3732TIP3    H211161   4.583   3.933   3.834
 3733TIP3   OH211162   4.115   4.974   5.162
 3733TIP3    H111163   4.069   5.035   5.220
 3733TIP3    H211164   4.083   4.888   5.189
 3734TIP3   OH211165   2.021   2.599   3.635
 3734TIP3    H111166   2.072   2.603   3.554
 3734TIP3    H211167   1.979   2.685   3.642
 3735TIP3   OH211168   4.636   3.682   3.531
 3735TIP3    H111169   4.590   3.715   3.453
 3735TIP3    H211170   4.685   3.606   3.500
 3736TIP3   OH211171   6.920   2.051   2.700
 3736TIP3    H111172   6.898   2.143   2.711
 3736TIP3    H211173   6.974   2.048   2.621
 3737TIP3   OH211174   3.970   6.061   0.105
 3737TIP3    H111175   3.918   6.055   0.185
 3737TIP3    H211176   4.045   6.116   0.129
 3738TIP3   OH211177   2.591   3.431   4.769
 3738TIP3    H111178   2.665   3.490   4.753
 3738TIP3    H211179   2.631   3.344   4.773
 3739TIP3   OH211180   6.384   5.897   0.466
 3739TIP3    H111181   6.424   5.948   0.396
 3739TIP3    H211182   6.451   5.894   0.535
 3740TIP3   OH211183   2.974   6.393   2.453
 3740TIP3    H111184   2.992   6.480   2.417
 3740TIP3    H211185   2.979   6.335   2.377
 3741TIP3   OH211186   4.390   5.940   2.406
 3741TIP3    H111187   4.324   6.008   2.417
 3741TIP3    H211188   4.413   5.914   2.495
 3742TIP3   OH211189   6.656   4.957   2.547
 3742TIP3    H111190   6.613   4.990   2.468
 3742TIP3    H211191   6.664   4.863   2.533
 3743TIP3   OH211192   4.467   5.156   0.394
 3743TIP3    H111193   4.524   5.083   0.418
 3743TIP3    H211194   4.515   5.234   0.423
 3744TIP3   OH211195   5.348   2.832   3.495
 3744TIP3    H111196   5.392   2.758   3.453
 3744TIP3    H211197   5.383   2.835   3.584
 3745TIP3   OH211198   6.548   0.762   1.692
 3745TIP3    H111199   6.599   0.843   1.699
 3745TIP3    H211200   6.593   0.712   1.623
 3746TIP3   OH211201   0.689   0.726   3.508
 3746TIP3    H111202   0.693   0.746   3.414
 3746TIP3    H211203   0.725   0.638   3.516
 3747TIP3   OH211204   1.023   5.641   1.198
 3747TIP3    H111205   1.110   5.656   1.161
 3747TIP3    H211206   0.971   5.609   1.124
 3748TIP3   OH211207   2.062   4.771   5.298
 3748TIP3    H111208   2.125   4.829   5.342
 3748TIP3    H211209   2.010   4.829   5.243
 3749TIP3   OH211210   5.632   6.553   5.136
 3749TIP3    H111211   5.564   6.591   5.190
 3749TIP3    H211212   5.674   6.627   5.093
 3750TIP3   OH211213   2.361   1.240   5.322
 3750TIP3    H111214   2.274   1.272   5.345
 3750TIP3    H211215   2.352   1.206   5.233
 3751TIP3   OH211216   2.787   5.266   3.051
 3751TIP3    H111217   2.811   5.355   3.026
 3751TIP3    H211218   2.691   5.268   3.058
 3752TIP3   OH211219   6.912   2.440   0.116
 3752TIP3    H111220   6.993   2.393   0.099
 3752TIP3    H211221   6.913   2.514   0.056
 3753TIP3   OH211222   0.196   2.472   5.655
 3753TIP3    H111223   0.194   2.542   5.590
 3753TIP3    H211224   0.276   2.424   5.636
 3754TIP3   OH211225   6.620   6.200   1.520
 3754TIP3    H111226   6.658   6.131   1.574
 3754TIP3    H211227   6.580   6.260   1.584
 3755TIP3   OH211228   2.747   5.229   4.611
 3755TIP3    H111229   2.735   5.159   4.676
 3755TIP3    H211230   2.791   5.186   4.538
 3756TIP3   OH211231   2.505   0.527   5.810
 3756TIP3    H111232   2.522   0.433   5.817
 3756TIP3    H211233   2.479   0.554   5.898
 3757TIP3   OH211234   5.798   3.779   2.121
 3757TIP3    H111235   5.801   3.686   2.099
 3757TIP3    H211236   5.747   3.819   2.050
 3758TIP3   OH211237   4.111   0.779   4.281
 3758TIP3    H111238   4.172   0.706   4.295
 3758TIP3    H211239   4.162   0.845   4.235
 3759TIP3   OH211240   3.149   5.399   5.341
 3759TIP3    H111241   3.147   5.304   5.327
 3759TIP3    H211242   3.174   5.435   5.256
 3760TIP3   OH211243   0.638   4.656   5.009
 3760TIP3    H111244   0.688   4.683   5.086
 3760TIP3    H211245   0.565   4.606   5.044
 3761TIP3   OH211246   0.189   1.337   2.793
 3761TIP3    H111247   0.175   1.256   2.841
 3761TIP3    H211248   0.203   1.309   2.702
 3762TIP3   OH211249   7.175   6.191   3.050
 3762TIP3    H111250   7.270   6.199   3.042
 3762TIP3    H211251   7.161   6.106   3.092
 3763TIP3   OH211252   4.509   6.229   2.019
 3763TIP3    H111253   4.433   6.220   2.076
 3763TIP3    H211254   4.505   6.320   1.988
 3764TIP3   OH211255   7.013   1.366   2.492
 3764TIP3    H111256   7.033   1.378   2.399
 3764TIP3    H211257   6.963   1.285   2.496
 3765TIP3   OH211258   5.864   2.180   4.662
 3765TIP3    H111259   5.780   2.217   4.635
 3765TIP3    H211260   5.877   2.212   4.752
 3766TIP3   OH211261   2.786   0.791   1.107
 3766TIP3    H111262   2.812   0.737   1.182
 3766TIP3    H211263   2.804   0.736   1.031
 3767TIP3   OH211264   0.613   5.592   1.266
 3767TIP3    H111265   0.645   5.568   1.180
 3767TIP3    H211266   0.519   5.599   1.256
 3768TIP3   OH211267   7.267   3.322   1.216
 3768TIP3    H111268   7.222   3.347   1.296
 3768TIP3    H211269   7.202   3.274   1.165
 3769TIP3   OH211270   1.834   0.276   3.206
 3769TIP3    H111271   1.890   0.308   3.276
 3769TIP3    H211272   1.862   0.186   3.192
 3770TIP3   OH211273   2.453   0.104   0.938
 3770TIP3    H111274   2.377   0.085   0.992
 3770TIP3    H211275   2.453   0.036   0.870
 3771TIP3   OH211276   1.000   6.251   5.111
 3771TIP3    H111277   0.951   6.327   5.080
 3771TIP3    H211278   1.089   6.265   5.077
 3772TIP3   OH211279   5.478   3.304   3.896
 3772TIP3    H111280   5.404   3.284   3.953
 3772TIP3    H211281   5.547   3.333   3.955
 3773TIP3   OH211282   4.007   2.440   0.443
 3773TIP3    H111283   3.998   2.444   0.539
 3773TIP3    H211284   3.943   2.504   0.411
 3774TIP3   OH211285   1.527   1.384   1.781
 3774TIP3    H111286   1.521   1.320   1.710
 3774TIP3    H211287   1.564   1.462   1.740
 3775TIP3   OH211288   3.540   1.272   0.115
 3775TIP3    H111289   3.522   1.356   0.157
 3775TIP3    H211290   3.571   1.216   0.187
 3776TIP3   OH211291   3.486   5.748   5.282
 3776TIP3    H111292   3.487   5.738   5.187
 3776TIP3    H211293   3.395   5.728   5.307
 3777TIP3   OH211294   6.920   6.217   0.740
 3777TIP3    H111295   6.826   6.232   0.755
 3777TIP3    H211296   6.963   6.270   0.807
 3778TIP3   OH211297   3.762   6.057   3.521
 3778TIP3    H111298   3.715   6.113   3.582
 3778TIP3    H211299   3.845   6.103   3.505
 3779TIP3   OH211300   4.762   4.452   3.136
 3779TIP3    H111301   4.814   4.393   3.081
 3779TIP3    H211302   4.687   4.399   3.163
 3780TIP3   OH211303   4.580   3.788   2.356
 3780TIP3    H111304   4.588   3.868   2.304
 3780TIP3    H211305   4.614   3.812   2.442
 3781TIP3   OH211306   2.723   2.768   0.975
 3781TIP3    H111307   2.679   2.852   0.988
 3781TIP3    H211308   2.652   2.707   0.953
 3782TIP3   OH211309   7.082   2.837   4.639
 3782TIP3    H111310   7.157   2.882   4.677
 3782TIP3    H211311   7.083   2.862   4.546
 3783TIP3   OH211312   5.642   5.587   1.824
 3783TIP3    H111313   5.625   5.542   1.907
 3783TIP3    H211314   5.647   5.679   1.847
 3784TIP3   OH211315   2.764   6.373   4.718
 3784TIP3    H111316   2.791   6.308   4.783
 3784TIP3    H211317   2.760   6.324   4.635
 3785TIP3   OH211318   3.319   5.441   5.536
 3785TIP3    H111319   3.270   5.458   5.617
 3785TIP3    H211320   3.252   5.417   5.472
 3786TIP3   OH211321   0.598   0.453   4.146
 3786TIP3    H111322   0.615   0.502   4.065
 3786TIP3    H211323   0.537   0.385   4.120
 3787TIP3   OH211324   5.721   0.474   1.778
 3787TIP3    H111325   5.800   0.457   1.828
 3787TIP3    H211326   5.658   0.408   1.808
 3788TIP3   OH211327   5.522   4.651   5.000
 3788TIP3    H111328   5.464   4.585   5.037
 3788TIP3    H211329   5.530   4.717   5.068
 3789TIP3   OH211330   6.433   5.712   1.022
 3789TIP3    H111331   6.524   5.681   1.021
 3789TIP3    H211332   6.387   5.654   0.961
 3790TIP3   OH211333   0.702   2.188   1.297
 3790TIP3    H111334   0.714   2.098   1.327
 3790TIP3    H211335   0.785   2.231   1.316
 3791TIP3   OH211336   0.822   4.208   5.374
 3791TIP3    H111337   0.827   4.246   5.287
 3791TIP3    H211338   0.907   4.225   5.414
 3792TIP3   OH211339   5.821   6.602   2.838
 3792TIP3    H111340   5.810   6.594   2.933
 3792TIP3    H211341   5.853   6.516   2.811
 3793TIP3   OH211342   2.584   1.307   4.160
 3793TIP3    H111343   2.583   1.221   4.117
 3793TIP3    H211344   2.556   1.289   4.250
 3794TIP3   OH211345   5.591   0.910   4.267
 3794TIP3    H111346   5.550   0.872   4.189
 3794TIP3    H211347   5.517   0.932   4.324
 3795TIP3   OH211348   0.981   1.106   0.149
 3795TIP3    H111349   1.032   1.181   0.179
 3795TIP3    H211350   0.895   1.116   0.190
 3796TIP3   OH211351   5.909   2.265   2.595
 3796TIP3    H111352   5.971   2.194   2.582
 3796TIP3    H211353   5.922   2.293   2.685
 3797TIP3   OH211354   6.638   4.430   3.344
 3797TIP3    H111355   6.544   4.417   3.358
 3797TIP3    H211356   6.643   4.502   3.281
 3798TIP3   OH211357   3.504   6.002   5.832
 3798TIP3    H111358   3.452   5.972   5.758
 3798TIP3    H211359   3.444   6.056   5.884
 3799TIP3   OH211360   6.734   2.868   5.829
 3799TIP3    H111361   6.641   2.868   5.803
 3799TIP3    H211362   6.745   2.949   5.878
 3800TIP3   OH211363   0.344   1.273   5.815
 3800TIP3    H111364   0.373   1.252   5.904
 3800TIP3    H211365   0.280   1.343   5.827
 3801TIP3   OH211366   5.081   3.806   0.851
 3801TIP3    H111367   5.046   3.868   0.787
 3801TIP3    H211368   5.004   3.773   0.897
 3802TIP3   OH211369   6.142   5.734   0.769
 3802TIP3    H111370   6.207   5.666   0.754
 3802TIP3    H211371   6.115   5.722   0.860
 3803TIP3   OH211372   6.745   0.607   4.884
 3803TIP3    H111373   6.744   0.512   4.896
 3803TIP3    H211374   6.821   0.637   4.933
 3804TIP3   OH211375   6.568   3.187   3.506
 3804TIP3    H111376   6.599   3.200   3.596
 3804TIP3    H211377   6.485   3.139   3.517
 3805TIP3   OH211378   4.111   0.917   4.940
 3805TIP3    H111379   4.052   0.846   4.912
 3805TIP3    H211380   4.158   0.942   4.861
 3806TIP3   OH211381   7.104   4.245   5.560
 3806TIP3    H111382   7.039   4.178   5.540
 3806TIP3    H211383   7.133   4.277   5.475
 3807TIP3   OH211384   2.722   2.568   0.188
 3807TIP3    H111385   2.678   2.652   0.200
 3807TIP3    H211386   2.652   2.503   0.193
 3808TIP3   OH211387   5.928   1.312   0.634
 3808TIP3    H111388   5.957   1.376   0.699
 3808TIP3    H211389   5.954   1.228   0.670
 3809TIP3   OH211390   4.619   6.622   3.984
 3809TIP3    H111391   4.548   6.591   3.928
 3809TIP3    H211392   4.677   6.546   3.994
 3810TIP3   OH211393   7.128   4.211   1.609
 3810TIP3    H111394   7.209   4.259   1.596
 3810TIP3    H211395   7.144   4.154   1.684
 3811TIP3   OH211396   3.159   1.112   3.743
 3811TIP3    H111397   3.120   1.147   3.664
 3811TIP3    H211398   3.084   1.084   3.797
 3812TIP3   OH211399   4.938   5.185   3.309
 3812TIP3    H111400   5.031   5.163   3.304
 3812TIP3    H211401   4.893   5.114   3.263
 3813TIP3   OH211402   3.038   2.753  -0.051
 3813TIP3    H111403   2.960   2.807  -0.043
 3813TIP3    H211404   3.021   2.678   0.006
 3814TIP3   OH211405   2.045   1.254   2.342
 3814TIP3    H111406   1.999   1.300   2.272
 3814TIP3    H211407   2.113   1.203   2.297
 3815TIP3   OH211408   5.050   5.633   4.586
 3815TIP3    H111409   5.083   5.567   4.647
 3815TIP3    H211410   4.988   5.685   4.638
 3816TIP3   OH211411   7.153   2.976   0.570
 3816TIP3    H111412   7.157   3.019   0.656
 3816TIP3    H211413   7.081   2.913   0.578
 3817TIP3   OH211414   1.570   6.665   3.388
 3817TIP3    H111415   1.639   6.615   3.430
 3817TIP3    H211416   1.494   6.654   3.446
 3818TIP3   OH211417   5.594   5.201   4.717
 3818TIP3    H111418   5.635   5.146   4.783
 3818TIP3    H211419   5.551   5.270   4.766
 3819TIP3   OH211420   5.178   3.043   5.129
 3819TIP3    H111421   5.157   2.972   5.190
 3819TIP3    H211422   5.221   3.000   5.056
 3820TIP3   OH211423   6.635   4.384   1.335
 3820TIP3    H111424   6.584   4.447   1.283
 3820TIP3    H211425   6.680   4.331   1.269
 3821TIP3   OH211426   1.448   6.781   2.288
 3821TIP3    H111427   1.358   6.781   2.255
 3821TIP3    H211428   1.480   6.693   2.270
 3822TIP3   OH211429   5.190   3.368   5.742
 3822TIP3    H111430   5.235   3.286   5.763
 3822TIP3    H211431   5.116   3.342   5.688
 3823TIP3   OH211432   1.338   3.554   2.296
 3823TIP3    H111433   1.261   3.588   2.251
 3823TIP3    H211434   1.304   3.517   2.377
 3824TIP3   OH211435   1.492   6.663   2.668
 3824TIP3    H111436   1.485   6.644   2.762
 3824TIP3    H211437   1.554   6.598   2.635
 3825TIP3   OH211438   3.788   1.291   2.210
 3825TIP3    H111439   3.769   1.383   2.189
 3825TIP3    H211440   3.739   1.274   2.290
 3826TIP3   OH211441   3.919   0.861   2.004
 3826TIP3    H111442   3.901   0.832   2.094
 3826TIP3    H211443   3.839   0.842   1.956
 3827TIP3   OH211444   5.170   3.973   4.116
 3827TIP3    H111445   5.247   3.946   4.065
 3827TIP3    H211446   5.165   4.068   4.103
 3828TIP3   OH211447   2.347   3.312   3.187
 3828TIP3    H111448   2.405   3.241   3.215
 3828TIP3    H211449   2.334   3.365   3.265
 3829TIP3   OH211450   2.686   0.494   2.387
 3829TIP3    H111451   2.713   0.405   2.406
 3829TIP3    H211452   2.767   0.539   2.362
 3830TIP3   OH211453   4.769   5.883   1.515
 3830TIP3    H111454   4.695   5.942   1.526
 3830TIP3    H211455   4.785   5.882   1.420
 3831TIP3   OH211456   4.800   4.194   5.650
 3831TIP3    H111457   4.845   4.113   5.628
 3831TIP3    H211458   4.708   4.177   5.628
 3832TIP3   OH211459   2.840   2.023   4.563
 3832TIP3    H111460   2.833   2.117   4.550
 3832TIP3    H211461   2.888   2.014   4.646
 3833TIP3   OH211462   3.928   1.085   4.475
 3833TIP3    H111463   3.900   1.048   4.391
 3833TIP3    H211464   3.894   1.174   4.474
 3834TIP3   OH211465   1.108   5.389   5.183
 3834TIP3    H111466   1.126   5.297   5.166
 3834TIP3    H211467   1.012   5.394   5.190
 3835TIP3   OH211468   1.391   5.221   4.638
 3835TIP3    H111469   1.381   5.185   4.550
 3835TIP3    H211470   1.484   5.242   4.646
 3836TIP3   OH211471   2.850   6.355   3.491
 3836TIP3    H111472   2.822   6.264   3.502
 3836TIP3    H211473   2.797   6.403   3.554
 3837TIP3   OH211474   6.790   1.770   2.591
 3837TIP3    H111475   6.768   1.688   2.546
 3837TIP3    H211476   6.863   1.805   2.541
 3838TIP3   OH211477   4.891   4.338   5.446
 3838TIP3    H111478   4.894   4.419   5.496
 3838TIP3    H211479   4.860   4.272   5.508
 3839TIP3   OH211480   5.219   3.514   3.914
 3839TIP3    H111481   5.183   3.586   3.966
 3839TIP3    H211482   5.312   3.535   3.904
 3840TIP3   OH211483   3.892   3.890   5.197
 3840TIP3    H111484   3.907   3.894   5.103
 3840TIP3    H211485   3.978   3.908   5.236
 3841TIP3   OH211486   3.322   1.857   3.672
 3841TIP3    H111487   3.411   1.872   3.706
 3841TIP3    H211488   3.271   1.929   3.709
 3842TIP3   OH211489   1.339   6.564   0.675
 3842TIP3    H111490   1.329   6.568   0.770
 3842TIP3    H211491   1.275   6.499   0.647
 3843TIP3   OH211492   5.812   1.956   2.966
 3843TIP3    H111493   5.896   1.974   3.008
 3843TIP3    H211494   5.758   1.919   3.036
 3844TIP3   OH211495   0.299   0.067   3.254
 3844TIP3    H111496   0.235   0.038   3.189
 3844TIP3    H211497   0.254   0.136   3.303
 3845TIP3   OH211498   0.861   1.742   3.778
 3845TIP3    H111499   0.919   1.670   3.800
 3845TIP3    H211500   0.858   1.742   3.682
 3846TIP3   OH211501   2.307   5.359   3.131
 3846TIP3    H111502   2.237   5.346   3.068
 3846TIP3    H211503   2.386   5.329   3.086
 3847TIP3   OH211504   1.594   6.728   0.797
 3847TIP3    H111505   1.596   6.677   0.716
 3847TIP3    H211506   1.685   6.748   0.816
 3848TIP3   OH211507   6.255   5.919   2.196
 3848TIP3    H111508   6.229   5.974   2.122
 3848TIP3    H211509   6.187   5.852   2.201
 3849TIP3   OH211510   5.118   1.596   3.639
 3849TIP3    H111511   5.184   1.613   3.573
 3849TIP3    H211512   5.167   1.562   3.714
 3850TIP3   OH211513   6.277   6.558   4.068
 3850TIP3    H111514   6.295   6.550   3.974
 3850TIP3    H211515   6.328   6.488   4.108
 3851TIP3   OH211516   2.714   1.595   5.342
 3851TIP3    H111517   2.672   1.534   5.402
 3851TIP3    H211518   2.735   1.671   5.395
 3852TIP3   OH211519   3.433   3.879   1.517
 3852TIP3    H111520   3.511   3.824   1.518
 3852TIP3    H211521   3.401   3.876   1.607
 3853TIP3   OH211522   0.445   4.070   2.608
 3853TIP3    H111523   0.520   4.014   2.591
 3853TIP3    H211524   0.466   4.114   2.691
 3854TIP3   OH211525   3.679   4.137   1.995
 3854TIP3    H111526   3.605   4.187   1.961
 3854TIP3    H211527   3.709   4.187   2.071
 3855TIP3   OH211528   1.812   0.793   5.150
 3855TIP3    H111529   1.789   0.711   5.107
 3855TIP3    H211530   1.873   0.836   5.089
 3856TIP3   OH211531   1.286   4.376   4.512
 3856TIP3    H111532   1.346   4.303   4.525
 3856TIP3    H211533   1.209   4.354   4.565
 3857TIP3   OH211534   4.616   1.676   1.118
 3857TIP3    H111535   4.617   1.712   1.029
 3857TIP3    H211536   4.708   1.662   1.139
 3858TIP3   OH211537   6.347   3.851   2.895
 3858TIP3    H111538   6.440   3.874   2.895
 3858TIP3    H211539   6.336   3.791   2.822
 3859TIP3   OH211540   1.379   3.265   3.467
 3859TIP3    H111541   1.360   3.356   3.443
 3859TIP3    H211542   1.321   3.213   3.411
 3860TIP3   OH211543   3.975   1.322   0.025
 3860TIP3    H111544   3.934   1.405   0.001
 3860TIP3    H211545   4.040   1.346   0.091
 3861TIP3   OH211546   4.861   0.117   3.174
 3861TIP3    H111547   4.868   0.165   3.257
 3861TIP3    H211548   4.769   0.125   3.150
 3862TIP3   OH211549   0.571   3.137   1.417
 3862TIP3    H111550   0.496   3.188   1.386
 3862TIP3    H211551   0.601   3.089   1.340
 3863TIP3   OH211552   3.867   0.190   3.199
 3863TIP3    H111553   3.882   0.284   3.192
 3863TIP3    H211554   3.791   0.174   3.142
 3864TIP3   OH211555   3.241   1.537   3.043
 3864TIP3    H111556   3.196   1.452   3.039
 3864TIP3    H211557   3.173   1.599   3.070
 3865TIP3   OH211558   1.658   2.207   4.466
 3865TIP3    H111559   1.595   2.275   4.490
 3865TIP3    H211560   1.704   2.187   4.548
 3866TIP3   OH211561   5.057   4.304   0.264
 3866TIP3    H111562   5.131   4.339   0.214
 3866TIP3    H211563   5.001   4.263   0.198
 3867TIP3   OH211564   6.940   4.399   1.712
 3867TIP3    H111565   7.001   4.347   1.660
 3867TIP3    H211566   6.936   4.354   1.796
 3868TIP3   OH211567   0.978   6.631   0.842
 3868TIP3    H111568   0.960   6.538   0.856
 3868TIP3    H211569   0.891   6.671   0.832
 3869TIP3   OH211570   4.105   4.016   3.296
 3869TIP3    H111571   4.052   3.965   3.358
 3869TIP3    H211572   4.052   4.093   3.277
 3870TIP3   OH211573   0.088   3.425   2.017
 3870TIP3    H111574   0.105   3.332   2.006
 3870TIP3    H211575   0.036   3.449   1.940
 3871TIP3   OH211576   1.974   4.298   5.559
 3871TIP3    H111577   1.967   4.386   5.523
 3871TIP3    H211578   1.937   4.305   5.647
 3872TIP3   OH211579   2.644   2.658   2.187
 3872TIP3    H111580   2.710   2.605   2.144
 3872TIP3    H211581   2.654   2.745   2.149
 3873TIP3   OH211582   4.254   2.459   4.382
 3873TIP3    H111583   4.199   2.453   4.460
 3873TIP3    H211584   4.224   2.387   4.326
 3874TIP3   OH211585   3.586   5.894   0.568
 3874TIP3    H111586   3.645   5.819   0.566
 3874TIP3    H211587   3.499   5.855   0.579
 3875TIP3   OH211588   0.681   3.092   0.051
 3875TIP3    H111589   0.623   3.161   0.082
 3875TIP3    H211590   0.683   3.103  -0.044
 3876TIP3   OH211591   4.667   3.317   1.410
 3876TIP3    H111592   4.603   3.248   1.392
 3876TIP3    H211593   4.751   3.271   1.415
 3877TIP3   OH211594   7.109   3.838   1.010
 3877TIP3    H111595   7.050   3.773   1.047
 3877TIP3    H211596   7.181   3.844   1.073
 3878TIP3   OH211597   2.769   5.720   5.112
 3878TIP3    H111598   2.800   5.704   5.201
 3878TIP3    H211599   2.849   5.732   5.060
 3879TIP3   OH211600   3.428   1.275   5.794
 3879TIP3    H111601   3.440   1.369   5.805
 3879TIP3    H211602   3.346   1.255   5.839
 3880TIP3   OH211603   2.724   6.682   1.635
 3880TIP3    H111604   2.681   6.598   1.648
 3880TIP3    H211605   2.667   6.746   1.678
 3881TIP3   OH211606   2.039   6.722   1.278
 3881TIP3    H111607   2.054   6.809   1.241
 3881TIP3    H211608   1.996   6.673   1.207
 3882TIP3   OH211609   3.920   4.905   3.815
 3882TIP3    H111610   3.841   4.857   3.789
 3882TIP3    H211611   3.972   4.841   3.863
 3883TIP3   OH211612   1.770   0.597   4.989
 3883TIP3    H111613   1.827   0.558   4.922
 3883TIP3    H211614   1.682   0.590   4.952
 3884TIP3   OH211615   0.051   1.276   0.211
 3884TIP3    H111616   0.129   1.299   0.261
 3884TIP3    H211617  -0.019   1.330   0.249
 3885TIP3   OH211618   2.378   4.445   4.315
 3885TIP3    H111619   2.415   4.428   4.401
 3885TIP3    H211620   2.333   4.529   4.324
 3886TIP3   OH211621   1.461   0.866   5.749
 3886TIP3    H111622   1.426   0.779   5.768
 3886TIP3    H211623   1.479   0.865   5.655
 3887TIP3   OH211624   4.607   6.041   2.208
 3887TIP3    H111625   4.535   5.979   2.207
 3887TIP3    H211626   4.604   6.083   2.122
 3888TIP3   OH211627   7.147   1.484   2.858
 3888TIP3    H111628   7.158   1.543   2.783
 3888TIP3    H211629   7.224   1.427   2.856
 3889TIP3   OH211630   5.388   3.399   5.319
 3889TIP3    H111631   5.422   3.390   5.408
 3889TIP3    H211632   5.447   3.346   5.265
 3890TIP3   OH211633   3.126   2.793   3.937
 3890TIP3    H111634   3.086   2.869   3.896
 3890TIP3    H211635   3.149   2.736   3.864
 3891TIP3   OH211636   5.246   0.480   3.575
 3891TIP3    H111637   5.193   0.519   3.505
 3891TIP3    H211638   5.211   0.391   3.585
 3892TIP3   OH211639   3.860   0.786   3.457
 3892TIP3    H111640   3.859   0.873   3.417
 3892TIP3    H211641   3.778   0.746   3.428
 3893TIP3   OH211642   4.338   1.577   3.598
 3893TIP3    H111643   4.417   1.627   3.579
 3893TIP3    H211644   4.301   1.619   3.675
 3894TIP3   OH211645   0.125   3.821   4.437
 3894TIP3    H111646   0.047   3.806   4.491
 3894TIP3    H211647   0.197   3.784   4.489
 3895TIP3   OH211648   5.886   4.543   3.985
 3895TIP3    H111649   5.814   4.600   3.959
 3895TIP3    H211650   5.931   4.521   3.904
 3896TIP3   OH211651   6.763   4.584   0.714
 3896TIP3    H111652   6.739   4.635   0.791
 3896TIP3    H211653   6.680   4.555   0.677
 3897TIP3   OH211654   2.361   3.068   0.259
 3897TIP3    H111655   2.434   3.033   0.310
 3897TIP3    H211656   2.399   3.086   0.173
 3898TIP3   OH211657   5.103   1.406   5.597
 3898TIP3    H111658   5.092   1.391   5.691
 3898TIP3    H211659   5.195   1.385   5.581
 3899TIP3   OH211660   2.709   2.656   5.812
 3899TIP3    H111661   2.753   2.619   5.889
 3899TIP3    H211662   2.744   2.745   5.805
 3900TIP3   OH211663   1.762   1.813   1.507
 3900TIP3    H111664   1.790   1.805   1.599
 3900TIP3    H211665   1.807   1.891   1.476
 3901TIP3   OH211666   1.035   4.867   1.579
 3901TIP3    H111667   0.981   4.893   1.654
 3901TIP3    H211668   1.021   4.773   1.572
 3902TIP3   OH211669   6.942   0.663   3.935
 3902TIP3    H111670   6.895   0.581   3.952
 3902TIP3    H211671   7.031   0.646   3.966
 3903TIP3   OH211672   5.622   3.973   2.235
 3903TIP3    H111673   5.569   3.927   2.300
 3903TIP3    H211674   5.684   3.908   2.203
 3904TIP3   OH211675   1.169   2.792   2.585
 3904TIP3    H111676   1.188   2.704   2.617
 3904TIP3    H211677   1.110   2.829   2.651
 3905TIP3   OH211678   4.177   4.173   0.485
 3905TIP3    H111679   4.242   4.139   0.423
 3905TIP3    H211680   4.213   4.151   0.571
 3906TIP3   OH211681   2.912   1.101   5.338
 3906TIP3    H111682   2.949   1.019   5.371
 3906TIP3    H211683   2.819   1.096   5.359
 3907TIP3   OH211684   4.649   3.370   3.750
 3907TIP3    H111685   4.740   3.397   3.743
 3907TIP3    H211686   4.614   3.379   3.661
 3908TIP3   OH211687   6.210   4.991   0.763
 3908TIP3    H111688   6.293   4.990   0.812
 3908TIP3    H211689   6.217   4.916   0.704
 3909TIP3   OH211690   1.113   1.087   3.721
 3909TIP3    H111691   1.024   1.057   3.703
 3909TIP3    H211692   1.169   1.017   3.688
 3910TIP3   OH211693   5.525   3.577   4.704
 3910TIP3    H111694   5.548   3.642   4.771
 3910TIP3    H211695   5.430   3.567   4.712
 3911TIP3   OH211696   1.583   1.359   0.374
 3911TIP3    H111697   1.639   1.310   0.314
 3911TIP3    H211698   1.643   1.417   0.421
 3912TIP3   OH211699   4.089   5.166   0.785
 3912TIP3    H111700   4.135   5.240   0.744
 3912TIP3    H211701   4.158   5.109   0.816
 3913TIP3   OH211702   5.463   5.792   3.307
 3913TIP3    H111703   5.535   5.731   3.295
 3913TIP3    H211704   5.402   5.772   3.235
 3914TIP3   OH211705  -0.014   2.384   0.123
 3914TIP3    H111706   0.072   2.416   0.094
 3914TIP3    H211707   0.005   2.322   0.192
 3915TIP3   OH211708   0.218   4.728   0.112
 3915TIP3    H111709   0.276   4.682   0.174
 3915TIP3    H211710   0.278   4.771   0.051
 3916TIP3   OH211711   4.655   2.511   3.334
 3916TIP3    H111712   4.709   2.546   3.405
 3916TIP3    H211713   4.601   2.444   3.376
 3917TIP3   OH211714   5.654   3.371   4.801
 3917TIP3    H111715   5.612   3.440   4.750
 3917TIP3    H211716   5.582   3.332   4.852
 3918TIP3   OH211717   5.435   4.060   5.671
 3918TIP3    H111718   5.464   4.029   5.585
 3918TIP3    H211719   5.341   4.075   5.660
 3919TIP3   OH211720   2.868   1.630   2.450
 3919TIP3    H111721   2.878   1.580   2.369
 3919TIP3    H211722   2.836   1.567   2.514
 3920TIP3   OH211723   6.511   6.753   4.935
 3920TIP3    H111724   6.501   6.661   4.913
 3920TIP3    H211725   6.472   6.762   5.022
 3921TIP3   OH211726   2.867   1.971   1.720
 3921TIP3    H111727   2.952   2.004   1.750
 3921TIP3    H211728   2.875   1.876   1.726
 3922TIP3   OH211729   0.525   2.344   1.672
 3922TIP3    H111730   0.525   2.366   1.765
 3922TIP3    H211731   0.592   2.401   1.634
 3923TIP3   OH211732   2.728   1.370   5.163
 3923TIP3    H111733   2.732   1.450   5.216
 3923TIP3    H211734   2.704   1.301   5.226
 3924TIP3   OH211735   6.353   0.204   0.064
 3924TIP3    H111736   6.332   0.210   0.157
 3924TIP3    H211737   6.418   0.134   0.058
 3925TIP3   OH211738   1.977   4.818   0.583
 3925TIP3    H111739   1.980   4.790   0.491
 3925TIP3    H211740   1.900   4.774   0.619
 3926TIP3   OH211741   5.390   5.437   0.085
 3926TIP3    H111742   5.323   5.414   0.021
 3926TIP3    H211743   5.442   5.505   0.042
 3927TIP3   OH211744   3.340   3.602   3.098
 3927TIP3    H111745   3.428   3.573   3.124
 3927TIP3    H211746   3.350   3.696   3.081
 3928TIP3   OH211747   3.383   4.145   2.163
 3928TIP3    H111748   3.313   4.079   2.154
 3928TIP3    H211749   3.462   4.099   2.134
 3929TIP3   OH211750   5.000   2.267   1.579
 3929TIP3    H111751   4.982   2.176   1.557
 3929TIP3    H211752   5.094   2.269   1.597
 3930TIP3   OH211753   6.349   2.967   3.444
 3930TIP3    H111754   6.361   2.991   3.352
 3930TIP3    H211755   6.257   2.986   3.462
 3931TIP3   OH211756   6.513   0.545   0.725
 3931TIP3    H111757   6.523   0.588   0.810
 3931TIP3    H211758   6.427   0.505   0.728
 3932TIP3   OH211759   2.306   1.174   1.344
 3932TIP3    H111760   2.307   1.171   1.248
 3932TIP3    H211761   2.393   1.206   1.367
 3933TIP3   OH211762   5.380   1.958   1.217
 3933TIP3    H111763   5.425   2.039   1.242
 3933TIP3    H211764   5.290   1.985   1.198
 3934TIP3   OH211765   3.296   1.772   1.450
 3934TIP3    H111766   3.362   1.739   1.511
 3934TIP3    H211767   3.344   1.783   1.368
 3935TIP3   OH211768   1.014   1.634   5.318
 3935TIP3    H111769   1.060   1.695   5.260
 3935TIP3    H211770   0.927   1.626   5.280
 3936TIP3   OH211771   1.875   1.617   5.215
 3936TIP3    H111772   1.851   1.548   5.277
 3936TIP3    H211773   1.854   1.698   5.261
 3937TIP3   OH211774   3.060   5.511   1.282
 3937TIP3    H111775   3.003   5.588   1.285
 3937TIP3    H211776   3.008   5.441   1.320
 3938TIP3   OH211777   1.034   3.776   4.360
 3938TIP3    H111778   1.002   3.829   4.287
 3938TIP3    H211779   0.963   3.714   4.377
 3939TIP3   OH211780   5.917   3.165   0.550
 3939TIP3    H111781   5.971   3.089   0.531
 3939TIP3    H211782   5.834   3.129   0.582
 3940TIP3   OH211783   0.994   4.868   2.658
 3940TIP3    H111784   0.906   4.846   2.687
 3940TIP3    H211785   0.982   4.903   2.569
 3941TIP3   OH211786   3.235   1.156   5.232
 3941TIP3    H111787   3.293   1.188   5.163
 3941TIP3    H211788   3.147   1.172   5.198
 3942TIP3   OH211789   6.347   6.492   3.794
 3942TIP3    H111790   6.391   6.437   3.729
 3942TIP3    H211791   6.271   6.527   3.747
 3943TIP3   OH211792   5.471   0.539   1.360
 3943TIP3    H111793   5.409   0.548   1.433
 3943TIP3    H211794   5.551   0.506   1.401
 3944TIP3   OH211795   1.679   3.976   5.087
 3944TIP3    H111796   1.735   3.939   5.155
 3944TIP3    H211797   1.739   3.997   5.016
 3945TIP3   OH211798   5.631   3.423   4.084
 3945TIP3    H111799   5.547   3.459   4.113
 3945TIP3    H211800   5.689   3.435   4.159
 3946TIP3   OH211801   0.204   6.629   1.106
 3946TIP3    H111802   0.126   6.618   1.160
 3946TIP3    H211803   0.178   6.598   1.019
 3947TIP3   OH211804   1.710   0.220   2.980
 3947TIP3    H111805   1.616   0.201   2.990
 3947TIP3    H211806   1.737   0.251   3.067
 3948TIP3   OH211807   6.057   6.046   3.265
 3948TIP3    H111808   6.083   5.962   3.227
 3948TIP3    H211809   6.119   6.109   3.227
 3949TIP3   OH211810   7.045   5.149   1.916
 3949TIP3    H111811   6.980   5.197   1.966
 3949TIP3    H211812   7.000   5.070   1.886
 3950TIP3   OH211813   6.135   3.595   3.912
 3950TIP3    H111814   6.184   3.579   3.992
 3950TIP3    H211815   6.201   3.616   3.847
 3951TIP3   OH211816   0.721   4.647   1.550
 3951TIP3    H111817   0.672   4.668   1.630
 3951TIP3    H211818   0.696   4.558   1.529
 3952TIP3   OH211819   2.290   6.816   3.629
 3952TIP3    H111820   2.322   6.764   3.555
 3952TIP3    H211821   2.357   6.806   3.697
 3953TIP3   OH211822   5.697   3.826   0.585
 3953TIP3    H111823   5.724   3.818   0.677
 3953TIP3    H211824   5.778   3.811   0.535
 3954TIP3   OH211825   3.226   5.624   2.087
 3954TIP3    H111826   3.314   5.639   2.123
 3954TIP3    H211827   3.239   5.557   2.020
 3955TIP3   OH211828   3.006   6.495   4.646
 3955TIP3    H111829   2.929   6.452   4.682
 3955TIP3    H211830   2.984   6.513   4.554
 3956TIP3   OH211831   4.767   1.498   0.105
 3956TIP3    H111832   4.679   1.467   0.085
 3956TIP3    H211833   4.793   1.446   0.181
 3957TIP3   OH211834   5.374   2.368   4.766
 3957TIP3    H111835   5.287   2.363   4.805
 3957TIP3    H211836   5.421   2.432   4.820
 3958TIP3   OH211837   5.597   3.199   2.864
 3958TIP3    H111838   5.585   3.196   2.770
 3958TIP3    H211839   5.521   3.154   2.900
 3959TIP3   OH211840   6.832   6.439   0.120
 3959TIP3    H111841   6.866   6.351   0.134
 3959TIP3    H211842   6.897   6.481   0.063
 3960TIP3   OH211843   2.636   4.541   5.108
 3960TIP3    H111844   2.607   4.450   5.118
 3960TIP3    H211845   2.584   4.590   5.171
 3961TIP3   OH211846   6.727   5.163   3.037
 3961TIP3    H111847   6.713   5.197   2.949
 3961TIP3    H211848   6.641   5.170   3.080
 3962TIP3   OH211849   0.804   2.501   0.097
 3962TIP3    H111850   0.884   2.455   0.071
 3962TIP3    H211851   0.776   2.456   0.176
 3963TIP3   OH211852   6.645   2.311   0.196
 3963TIP3    H111853   6.733   2.347   0.186
 3963TIP3    H211854   6.588   2.387   0.203
 3964TIP3   OH211855   1.001   0.145   3.383
 3964TIP3    H111856   0.925   0.128   3.328
 3964TIP3    H211857   0.967   0.141   3.472
 3965TIP3   OH211858   2.096   4.625   3.301
 3965TIP3    H111859   2.130   4.559   3.240
 3965TIP3    H211860   2.169   4.686   3.313
 3966TIP3   OH211861   3.814   1.367   4.164
 3966TIP3    H111862   3.890   1.392   4.110
 3966TIP3    H211863   3.841   1.385   4.254
 3967TIP3   OH211864   4.302   3.405   2.016
 3967TIP3    H111865   4.297   3.500   2.029
 3967TIP3    H211866   4.239   3.368   2.078
 3968TIP3   OH211867   3.461   5.705   5.001
 3968TIP3    H111868   3.440   5.783   4.950
 3968TIP3    H211869   3.534   5.665   4.954
 3969TIP3   OH211870   1.621   1.271   4.684
 3969TIP3    H111871   1.654   1.279   4.595
 3969TIP3    H211872   1.653   1.185   4.714
 3970TIP3   OH211873   0.790   2.937   5.157
 3970TIP3    H111874   0.863   2.983   5.198
 3970TIP3    H211875   0.712   2.972   5.200
 3971TIP3   OH211876   5.115   4.955   3.558
 3971TIP3    H111877   5.074   4.905   3.487
 3971TIP3    H211878   5.205   4.923   3.561
 3972TIP3   OH211879   4.193   0.836   4.560
 3972TIP3    H111880   4.130   0.793   4.619
 3972TIP3    H211881   4.147   0.841   4.476
 3973TIP3   OH211882   1.112   0.128   2.187
 3973TIP3    H111883   1.175   0.057   2.193
 3973TIP3    H211884   1.057   0.119   2.265
 3974TIP3   OH211885   4.527   1.526   2.334
 3974TIP3    H111886   4.567   1.477   2.406
 3974TIP3    H211887   4.440   1.551   2.368
 3975TIP3   OH211888   0.381   2.025   2.705
 3975TIP3    H111889   0.298   2.035   2.751
 3975TIP3    H211890   0.367   1.950   2.647
 3976TIP3   OH211891   6.046   2.532   4.417
 3976TIP3    H111892   6.113   2.522   4.350
 3976TIP3    H211893   6.052   2.454   4.471
 3977TIP3   OH211894   2.295   4.714   4.338
 3977TIP3    H111895   2.374   4.753   4.377
 3977TIP3    H211896   2.253   4.786   4.291
 3978TIP3   OH211897   0.775   2.213   2.269
 3978TIP3    H111898   0.702   2.184   2.214
 3978TIP3    H211899   0.835   2.139   2.271
 3979TIP3   OH211900   4.408   1.196   1.808
 3979TIP3    H111901   4.416   1.103   1.787
 3979TIP3    H211902   4.373   1.198   1.898
 3980TIP3   OH211903   5.449   2.566   4.173
 3980TIP3    H111904   5.477   2.640   4.228
 3980TIP3    H211905   5.379   2.603   4.118
 3981TIP3   OH211906   1.441   1.205   5.509
 3981TIP3    H111907   1.402   1.286   5.544
 3981TIP3    H211908   1.434   1.142   5.581
 3982TIP3   OH211909   6.595   5.597   3.038
 3982TIP3    H111910   6.515   5.562   3.078
 3982TIP3    H211911   6.660   5.528   3.048
 3983TIP3   OH211912   0.307   3.348   3.058
 3983TIP3    H111913   0.342   3.409   3.122
 3983TIP3    H211914   0.251   3.289   3.108
 3984TIP3   OH211915   5.958   6.040   0.089
 3984TIP3    H111916   6.043   5.996   0.094
 3984TIP3    H211917   5.980   6.131   0.068
 3985TIP3   OH211918   5.239   3.494   4.949
 3985TIP3    H111919   5.335   3.491   4.951
 3985TIP3    H211920   5.212   3.403   4.943
 3986TIP3   OH211921   0.799   6.515   3.433
 3986TIP3    H111922   0.838   6.600   3.414
 3986TIP3    H211923   0.743   6.531   3.509
 3987TIP3   OH211924   6.874   2.629   3.681
 3987TIP3    H111925   6.929   2.554   3.706
 3987TIP3    H211926   6.801   2.627   3.743
 3988TIP3   OH211927   2.162   5.514   3.593
 3988TIP3    H111928   2.225   5.525   3.664
 3988TIP3    H211929   2.188   5.580   3.529
 3989TIP3   OH211930   3.094   3.138   1.527
 3989TIP3    H111931   3.094   3.075   1.599
 3989TIP3    H211932   3.009   3.125   1.484
 3990TIP3   OH211933   0.916   1.207   3.320
 3990TIP3    H111934   0.886   1.269   3.253
 3990TIP3    H211935   0.986   1.159   3.276
 3991TIP3   OH211936   5.542   4.556   0.300
 3991TIP3    H111937   5.552   4.641   0.342
 3991TIP3    H211938   5.475   4.510   0.351
 3992TIP3   OH211939   2.702   6.112   2.725
 3992TIP3    H111940   2.794   6.138   2.734
 3992TIP3    H211941   2.677   6.140   2.638
 3993TIP3   OH211942   2.325   1.132   4.184
 3993TIP3    H111943   2.310   1.113   4.091
 3993TIP3    H211944   2.381   1.061   4.215
 3994TIP3   OH211945   4.221   4.572   0.979
 3994TIP3    H111946   4.201   4.666   0.977
 3994TIP3    H211947   4.270   4.560   1.060
 3995TIP3   OH211948   7.167   1.180   2.127
 3995TIP3    H111949   7.195   1.155   2.215
 3995TIP3    H211950   7.071   1.181   2.132
 3996TIP3   OH211951   0.695   0.727   2.747
 3996TIP3    H111952   0.734   0.652   2.792
 3996TIP3    H211953   0.716   0.802   2.804
 3997TIP3   OH211954   1.479   3.639   4.915
 3997TIP3    H111955   1.417   3.710   4.899
 3997TIP3    H211956   1.450   3.600   4.998
 3998TIP3   OH211957   1.605   6.553   4.375
 3998TIP3    H111958   1.535   6.488   4.373
 3998TIP3    H211959   1.646   6.547   4.288
 3999TIP3   OH211960   6.454   2.393   2.954
 3999TIP3    H111961   6.431   2.388   3.046
 3999TIP3    H211962   6.440   2.305   2.920
 4000TIP3   OH211963   5.397   0.627   1.609
 4000TIP3    H111964   5.361   0.582   1.685
 4000TIP3    H211965   5.487   0.647   1.633
 4001TIP3   OH211966   1.391   0.057   1.550
 4001TIP3    H111967   1.377   0.150   1.536
 4001TIP3    H211968   1.356   0.041   1.638
 4002TIP3   OH211969   1.083  -0.012   0.228
 4002TIP3    H111970   1.110   0.068   0.272
 4002TIP3    H211971   1.136  -0.015   0.148
 4003TIP3   OH211972   4.702   3.191   4.776
 4003TIP3    H111973   4.646   3.138   4.832
 4003TIP3    H211974   4.649   3.268   4.755
 4004TIP3   OH211975   5.847   3.302   3.869
 4004TIP3    H111976   5.782   3.324   3.936
 4004TIP3    H211977   5.904   3.237   3.911
 4005TIP3   OH211978   3.963   4.546   5.586
 4005TIP3    H111979   4.029   4.485   5.617
 4005TIP3    H211980   3.974   4.624   5.641
 4006TIP3   OH211981   4.792   3.532   5.563
 4006TIP3    H111982   4.712   3.585   5.567
 4006TIP3    H211983   4.765   3.451   5.519
 4007TIP3   OH211984   4.275   2.677   0.272
 4007TIP3    H111985   4.272   2.606   0.336
 4007TIP3    H211986   4.208   2.654   0.207
 4008TIP3   OH211987   0.823   3.612   4.393
 4008TIP3    H111988   0.838   3.519   4.377
 4008TIP3    H211989   0.734   3.628   4.360
 4009TIP3   OH211990   4.772   5.085   4.614
 4009TIP3    H111991   4.729   5.002   4.633
 4009TIP3    H211992   4.827   5.067   4.538
 4010TIP3   OH211993   3.957   3.246   3.470
 4010TIP3    H111994   3.953   3.302   3.548
 4010TIP3    H211995   4.028   3.284   3.418
 4011TIP3   OH211996   1.098   6.462   4.088
 4011TIP3    H111997   1.104   6.445   3.994
 4011TIP3    H211998   1.157   6.536   4.102
 4012TIP3   OH211999   5.229   4.739   4.417
 4012TIP3    H112000   5.202   4.657   4.460
 4012TIP3    H212001   5.311   4.762   4.462
 4013TIP3   OH212002   3.885   5.585   4.224
 4013TIP3    H112003   3.874   5.541   4.308
 4013TIP3    H212004   3.945   5.657   4.242
 4014TIP3   OH212005   6.336   6.334   5.185
 4014TIP3    H112006   6.371   6.262   5.238
 4014TIP3    H212007   6.290   6.390   5.248
 4015TIP3   OH212008   3.792   5.032   0.050
 4015TIP3    H112009   3.791   5.066   0.140
 4015TIP3    H212010   3.871   4.978   0.046
 4016TIP3   OH212011   5.149   5.427   2.821
 4016TIP3    H112012   5.119   5.516   2.805
 4016TIP3    H212013   5.146   5.417   2.916
 4017TIP3   OH212014   2.947   3.298   3.306
 4017TIP3    H112015   2.865   3.345   3.288
 4017TIP3    H212016   2.997   3.304   3.224
 4018TIP3   OH212017   2.034   0.634   1.528
 4018TIP3    H112018   2.117   0.681   1.526
 4018TIP3    H212019   2.053   0.555   1.579
 4019TIP3   OH212020   0.201   5.604   3.900
 4019TIP3    H112021   0.286   5.570   3.874
 4019TIP3    H212022   0.163   5.639   3.820
 4020TIP3   OH212023   0.796   4.664   5.498
 4020TIP3    H112024   0.833   4.712   5.573
 4020TIP3    H212025   0.812   4.572   5.519
 4021TIP3   OH212026   1.284   1.628   3.721
 4021TIP3    H112027   1.253   1.552   3.673
 4021TIP3    H212028   1.220   1.639   3.792
 4022TIP3   OH212029   2.697   0.105   1.073
 4022TIP3    H112030   2.614   0.143   1.046
 4022TIP3    H212031   2.674   0.018   1.106
 4023TIP3   OH212032   5.748   1.427   3.643
 4023TIP3    H112033   5.656   1.431   3.667
 4023TIP3    H212034   5.792   1.483   3.707
 4024TIP3   OH212035   6.259   1.349   4.184
 4024TIP3    H112036   6.177   1.315   4.220
 4024TIP3    H212037   6.232   1.423   4.129
 4025TIP3   OH212038   3.621   5.319   0.543
 4025TIP3    H112039   3.694   5.360   0.589
 4025TIP3    H212040   3.619   5.363   0.458
 4026TIP3   OH212041   0.697   0.269   2.039
 4026TIP3    H112042   0.752   0.195   2.014
 4026TIP3    H212043   0.716   0.336   1.973
 4027TIP3   OH212044   6.452   2.756   0.717
 4027TIP3    H112045   6.391   2.825   0.688
 4027TIP3    H212046   6.523   2.758   0.652
 4028TIP3   OH212047   5.541   2.156   1.291
 4028TIP3    H112048   5.581   2.184   1.209
 4028TIP3    H212049   5.580   2.212   1.358
 4029TIP3   OH212050   4.456   2.071   4.255
 4029TIP3    H112051   4.399   2.105   4.186
 4029TIP3    H212052   4.413   1.990   4.284
 4030TIP3   OH212053   1.466   2.613   0.937
 4030TIP3    H112054   1.562   2.618   0.944
 4030TIP3    H212055   1.442   2.541   0.995
 4031TIP3   OH212056   6.514   1.989   3.732
 4031TIP3    H112057   6.591   1.980   3.788
 4031TIP3    H212058   6.469   1.905   3.739
 4032TIP3   OH212059   1.122   3.188   0.387
 4032TIP3    H112060   1.153   3.277   0.401
 4032TIP3    H212061   1.066   3.194   0.310
 4033TIP3   OH212062   3.558   6.761   0.165
 4033TIP3    H112063   3.502   6.774   0.242
 4033TIP3    H212064   3.641   6.729   0.202
 4034TIP3   OH212065   3.134   2.572   2.462
 4034TIP3    H112066   3.087   2.545   2.383
 4034TIP3    H212067   3.206   2.626   2.429
 4035TIP3   OH212068   3.094   4.188   3.906
 4035TIP3    H112069   3.021   4.132   3.880
 4035TIP3    H212070   3.166   4.160   3.850
 4036TIP3   OH212071   7.091   6.575   4.146
 4036TIP3    H112072   7.016   6.628   4.170
 4036TIP3    H212073   7.062   6.485   4.162
 4037TIP3   OH212074   7.052   5.987   1.618
 4037TIP3    H112075   7.147   5.971   1.622
 4037TIP3    H212076   7.017   5.940   1.693
 4038TIP3   OH212077   2.737   2.934   3.986
 4038TIP3    H112078   2.714   2.994   3.914
 4038TIP3    H212079   2.758   2.992   4.059
 4039TIP3   OH212080   2.414   5.726   1.485
 4039TIP3    H112081   2.505   5.752   1.470
 4039TIP3    H212082   2.408   5.638   1.447
 4040TIP3   OH212083   7.134   4.007   1.801
 4040TIP3    H112084   7.148   4.042   1.889
 4040TIP3    H212085   7.174   3.920   1.802
 4041TIP3   OH212086   5.187   1.413   0.754
 4041TIP3    H112087   5.257   1.398   0.817
 4041TIP3    H212088   5.197   1.504   0.727
 4042TIP3   OH212089   2.456   5.995   0.411
 4042TIP3    H112090   2.498   5.957   0.334
 4042TIP3    H212091   2.526   6.047   0.452
 4043TIP3   OH212092   1.561   1.631   3.711
 4043TIP3    H112093   1.468   1.614   3.694
 4043TIP3    H212094   1.570   1.725   3.699
 4044TIP3   OH212095   4.983   5.346   4.506
 4044TIP3    H112096   5.000   5.326   4.414
 4044TIP3    H212097   5.020   5.433   4.519
 4045TIP3   OH212098   0.357   3.080   5.477
 4045TIP3    H112099   0.303   3.157   5.500
 4045TIP3    H212100   0.305   3.033   5.412
 4046TIP3   OH212101   0.378   2.375   4.777
 4046TIP3    H112102   0.313   2.307   4.755
 4046TIP3    H212103   0.449   2.360   4.716
 4047TIP3   OH212104   2.545   5.718   4.912
 4047TIP3    H112105   2.621   5.758   4.953
 4047TIP3    H212106   2.577   5.636   4.874
 4048TIP3   OH212107   2.462   3.873   3.291
 4048TIP3    H112108   2.511   3.911   3.364
 4048TIP3    H212109   2.509   3.903   3.213
 4049TIP3   OH212110   5.935   3.457   5.679
 4049TIP3    H112111   5.898   3.541   5.652
 4049TIP3    H212112   6.006   3.480   5.739
 4050TIP3   OH212113   6.631   3.363   3.186
 4050TIP3    H112114   6.601   3.424   3.254
 4050TIP3    H212115   6.724   3.384   3.175
 4051TIP3   OH212116   7.095   5.700   4.532
 4051TIP3    H112117   7.064   5.688   4.442
 4051TIP3    H212118   7.121   5.612   4.560
 4052TIP3   OH212119   6.989   4.075   0.961
 4052TIP3    H112120   7.045   4.153   0.964
 4052TIP3    H212121   7.050   4.002   0.975
 4053TIP3   OH212122   6.999   1.074   5.158
 4053TIP3    H112123   7.056   1.143   5.124
 4053TIP3    H212124   6.992   1.093   5.252
 4054TIP3   OH212125   1.922   2.166   1.774
 4054TIP3    H112126   1.900   2.259   1.770
 4054TIP3    H212127   2.006   2.163   1.821
 4055TIP3   OH212128   0.993   4.374   5.220
 4055TIP3    H112129   0.965   4.410   5.136
 4055TIP3    H212130   1.048   4.442   5.258
 4056TIP3   OH212131   5.169   2.441   0.243
 4056TIP3    H112132   5.145   2.464   0.333
 4056TIP3    H212133   5.246   2.495   0.224
 4057TIP3   OH212134   2.983   5.240   1.904
 4057TIP3    H112135   2.912   5.176   1.915
 4057TIP3    H212136   2.976   5.269   1.813
 4058TIP3   OH212137   3.925   5.356   5.067
 4058TIP3    H112138   3.899   5.349   4.975
 4058TIP3    H212139   4.005   5.408   5.066
 4059TIP3   OH212140   4.929   5.329   5.814
 4059TIP3    H112141   4.988   5.358   5.745
 4059TIP3    H212142   4.896   5.244   5.783
 4060TIP3   OH212143   0.307   0.643   3.049
 4060TIP3    H112144   0.228   0.623   3.098
 4060TIP3    H212145   0.296   0.598   2.965
 4061TIP3   OH212146   0.839   0.829   4.609
 4061TIP3    H112147   0.794   0.906   4.644
 4061TIP3    H212148   0.930   0.841   4.634
 4062TIP3   OH212149   4.135   4.674   3.513
 4062TIP3    H112150   4.117   4.756   3.559
 4062TIP3    H212151   4.190   4.624   3.574
 4063TIP3   OH212152   6.903   2.798   0.655
 4063TIP3    H112153   6.935   2.716   0.692
 4063TIP3    H212154   6.838   2.829   0.718
 4064TIP3   OH212155   2.368   0.793   1.229
 4064TIP3    H112156   2.364   0.697   1.234
 4064TIP3    H212157   2.289   0.822   1.274
 4065TIP3   OH212158   4.140   2.102   0.017
 4065TIP3    H112159   4.116   2.167   0.084
 4065TIP3    H212160   4.172   2.154  -0.056
 4066TIP3   OH212161   6.282   3.977   4.632
 4066TIP3    H112162   6.324   4.026   4.703
 4066TIP3    H212163   6.316   4.017   4.552
 4067TIP3   OH212164   0.263   2.260   1.201
 4067TIP3    H112165   0.255   2.292   1.111
 4067TIP3    H212166   0.197   2.191   1.208
 4068TIP3   OH212167   6.709   1.381   0.266
 4068TIP3    H112168   6.698   1.476   0.257
 4068TIP3    H212169   6.649   1.356   0.335
 4069TIP3   OH212170   1.601   4.201   5.846
 4069TIP3    H112171   1.564   4.223   5.932
 4069TIP3    H212172   1.645   4.117   5.860
 4070TIP3   OH212173   2.776   3.046   1.184
 4070TIP3    H112174   2.685   3.026   1.159
 4070TIP3    H212175   2.810   2.964   1.218
 4071TIP3   OH212176   1.287   1.877   1.290
 4071TIP3    H112177   1.330   1.944   1.342
 4071TIP3    H212178   1.359   1.830   1.248
 4072TIP3   OH212179   6.534   2.211   2.164
 4072TIP3    H112180   6.505   2.240   2.077
 4072TIP3    H212181   6.457   2.220   2.219
 4073TIP3   OH212182   5.061   6.703   2.551
 4073TIP3    H112183   5.121   6.688   2.624
 4073TIP3    H212184   5.095   6.648   2.480
 4074TIP3   OH212185   1.882   1.741   2.872
 4074TIP3    H112186   1.798   1.706   2.843
 4074TIP3    H212187   1.898   1.816   2.814
 4075TIP3   OH212188   6.813   5.073   4.825
 4075TIP3    H112189   6.865   5.068   4.905
 4075TIP3    H212190   6.764   5.156   4.832
 4076TIP3   OH212191   2.376   1.023   5.825
 4076TIP3    H112192   2.315   1.066   5.885
 4076TIP3    H212193   2.358   1.063   5.740
 4077TIP3   OH212194   3.407   3.597   1.100
 4077TIP3    H112195   3.425   3.513   1.057
 4077TIP3    H212196   3.477   3.655   1.070
 4078TIP3   OH212197   2.216   5.623   4.639
 4078TIP3    H112198   2.235   5.579   4.722
 4078TIP3    H212199   2.233   5.716   4.656
 4079TIP3   OH212200   2.969   1.030   0.451
 4079TIP3    H112201   3.053   0.989   0.434
 4079TIP3    H212202   2.911   0.958   0.475
 4080TIP3   OH212203   0.580   2.843   0.017
 4080TIP3    H112204   0.624   2.928   0.028
 4080TIP3    H212205   0.601   2.796   0.098
 4081TIP3   OH212206   0.577   0.178   3.423
 4081TIP3    H112207   0.505   0.240   3.430
 4081TIP3    H212208   0.566   0.119   3.497
 4082TIP3   OH212209   0.831   5.577   4.692
 4082TIP3    H112210   0.926   5.588   4.682
 4082TIP3    H212211   0.795   5.600   4.607
 4083TIP3   OH212212   5.045   4.636   0.100
 4083TIP3    H112213   5.004   4.710   0.057
 4083TIP3    H212214   4.983   4.609   0.168
 4084TIP3   OH212215   3.055   1.037   4.783
 4084TIP3    H112216   3.146   1.007   4.781
 4084TIP3    H212217   3.004   0.962   4.752
 4085TIP3   OH212218   6.332   5.310   0.088
 4085TIP3    H112219   6.354   5.342   0.176
 4085TIP3    H212220   6.243   5.275   0.097
 4086TIP3   OH212221   7.200   2.638   5.563
 4086TIP3    H112222   7.157   2.581   5.626
 4086TIP3    H212223   7.135   2.706   5.545
 4087TIP3   OH212224   5.355   1.406   5.472
 4087TIP3    H112225   5.336   1.342   5.404
 4087TIP3    H212226   5.360   1.490   5.427
 4088TIP3   OH212227   0.161   0.073   3.841
 4088TIP3    H112228   0.079   0.082   3.889
 4088TIP3    H212229   0.135   0.040   3.755
 4089TIP3   OH212230   7.002   3.205   2.296
 4089TIP3    H112231   7.059   3.129   2.285
 4089TIP3    H212232   6.928   3.172   2.346
 4090TIP3   OH212233   3.520   5.912   1.241
 4090TIP3    H112234   3.549   5.823   1.223
 4090TIP3    H212235   3.553   5.931   1.329
 4091TIP3   OH212236   3.003   0.469   4.578
 4091TIP3    H112237   2.964   0.384   4.562
 4091TIP3    H212238   3.088   0.465   4.535
 4092TIP3   OH212239   2.706   6.718   3.469
 4092TIP3    H112240   2.687   6.648   3.532
 4092TIP3    H212241   2.786   6.689   3.424
 4093TIP3   OH212242   1.628   5.277   4.384
 4093TIP3    H112243   1.551   5.229   4.354
 4093TIP3    H212244   1.665   5.315   4.304
 4094TIP3   OH212245   5.388   6.159   1.250
 4094TIP3    H112246   5.477   6.124   1.247
 4094TIP3    H212247   5.366   6.178   1.159
 4095TIP3   OH212248   0.852   3.312   5.006
 4095TIP3    H112249   0.898   3.311   5.090
 4095TIP3    H212250   0.861   3.402   4.975
 4096TIP3   OH212251   4.887   5.720   0.951
 4096TIP3    H112252   4.901   5.813   0.967
 4096TIP3    H212253   4.793   5.713   0.932
 4097TIP3   OH212254   1.343   1.757   0.898
 4097TIP3    H112255   1.400   1.814   0.949
 4097TIP3    H212256   1.344   1.674   0.945
 4098TIP3   OH212257   5.475   6.369   3.752
 4098TIP3    H112258   5.389   6.379   3.710
 4098TIP3    H212259   5.472   6.282   3.792
 4099TIP3   OH212260   3.236   0.613   5.756
 4099TIP3    H112261   3.168   0.660   5.804
 4099TIP3    H212262   3.300   0.589   5.822
 4100TIP3   OH212263   5.924   6.111   5.037
 4100TIP3    H112264   5.978   6.101   5.116
 4100TIP3    H212265   5.834   6.114   5.069
 4101TIP3   OH212266   7.137   4.618   1.783
 4101TIP3    H112267   7.059   4.578   1.820
 4101TIP3    H212268   7.210   4.569   1.821
 4102TIP3   OH212269   2.956   2.386   5.688
 4102TIP3    H112270   2.990   2.297   5.693
 4102TIP3    H212271   3.030   2.439   5.659
 4103TIP3   OH212272   3.893   2.809   5.535
 4103TIP3    H112273   3.974   2.815   5.484
 4103TIP3    H212274   3.844   2.888   5.512
 4104TIP3   OH212275   7.168   1.719   3.468
 4104TIP3    H112276   7.179   1.749   3.378
 4104TIP3    H212277   7.154   1.799   3.519
 4105TIP3   OH212278   1.166   0.810   2.838
 4105TIP3    H112279   1.139   0.820   2.746
 4105TIP3    H212280   1.232   0.741   2.836
 4106TIP3   OH212281   1.976   5.054   4.559
 4106TIP3    H112282   2.038   5.076   4.490
 4106TIP3    H212283   1.970   5.134   4.612
 4107TIP3   OH212284  -0.022   6.087   4.781
 4107TIP3    H112285   0.019   6.172   4.800
 4107TIP3    H212286   0.051   6.031   4.756
 4108TIP3   OH212287   6.455   2.788   1.088
 4108TIP3    H112288   6.448   2.863   1.147
 4108TIP3    H212289   6.410   2.815   1.008
 4109TIP3   OH212290   6.843   5.321   5.313
 4109TIP3    H112291   6.935   5.331   5.337
 4109TIP3    H212292   6.839   5.349   5.221
 4110TIP3   OH212293   3.561   2.187   0.257
 4110TIP3    H112294   3.539   2.280   0.264
 4110TIP3    H212295   3.488   2.149   0.208
 4111TIP3   OH212296   3.788   5.866   5.740
 4111TIP3    H112297   3.789   5.798   5.807
 4111TIP3    H212298   3.711   5.846   5.686
 4112TIP3   OH212299   1.845   0.793   0.600
 4112TIP3    H112300   1.757   0.831   0.596
 4112TIP3    H212301   1.835   0.713   0.651
 4113TIP3   OH212302   5.647   2.201   3.014
 4113TIP3    H112303   5.725   2.151   2.993
 4113TIP3    H212304   5.658   2.225   3.106
 4114TIP3   OH212305   2.617   2.226   4.706
 4114TIP3    H112306   2.660   2.250   4.624
 4114TIP3    H212307   2.578   2.307   4.738
 4115TIP3   OH212308   6.501   4.228   1.597
 4115TIP3    H112309   6.522   4.263   1.510
 4115TIP3    H212310   6.554   4.149   1.604
 4116TIP3   OH212311   2.543   6.510   0.319
 4116TIP3    H112312   2.562   6.558   0.400
 4116TIP3    H212313   2.483   6.441   0.346
 4117TIP3   OH212314   5.786   2.472   5.341
 4117TIP3    H112315   5.849   2.518   5.396
 4117TIP3    H212316   5.840   2.426   5.276
 4118TIP3   OH212317   0.749   0.936   4.858
 4118TIP3    H112318   0.690   0.861   4.869
 4118TIP3    H212319   0.692   1.013   4.870
 4119TIP3   OH212320   1.780   3.432   4.302
 4119TIP3    H112321   1.805   3.477   4.382
 4119TIP3    H212322   1.716   3.490   4.261
 4120TIP3   OH212323   5.866   6.635   3.540
 4120TIP3    H112324   5.912   6.652   3.458
 4120TIP3    H212325   5.900   6.699   3.602
 4121TIP3   OH212326   4.066   4.429   4.550
 4121TIP3    H112327   4.091   4.450   4.460
 4121TIP3    H212328   4.041   4.337   4.547
 4122TIP3   OH212329   0.504   5.801   4.284
 4122TIP3    H112330   0.508   5.722   4.229
 4122TIP3    H212331   0.573   5.788   4.349
 4123TIP3   OH212332   0.880   3.901   1.323
 4123TIP3    H112333   0.928   3.839   1.268
 4123TIP3    H212334   0.804   3.852   1.353
 4124TIP3   OH212335   2.637   2.746   0.505
 4124TIP3    H112336   2.710   2.704   0.552
 4124TIP3    H212337   2.586   2.672   0.470
 4125TIP3   OH212338   5.755   1.389   1.838
 4125TIP3    H112339   5.718   1.428   1.918
 4125TIP3    H212340   5.833   1.442   1.820
 4126TIP3   OH212341   5.277   5.714   0.092
 4126TIP3    H112342   5.366   5.711   0.056
 4126TIP3    H212343   5.224   5.747   0.020
 4127TIP3   OH212344   3.607   0.523   2.840
 4127TIP3    H112345   3.521   0.481   2.838
 4127TIP3    H212346   3.629   0.536   2.748
 4128TIP3   OH212347   3.762   3.074   5.794
 4128TIP3    H112348   3.838   3.106   5.842
 4128TIP3    H212349   3.690   3.130   5.824
 4129TIP3   OH212350   3.793   2.403   3.952
 4129TIP3    H112351   3.701   2.430   3.943
 4129TIP3    H212352   3.798   2.362   4.038
 4130TIP3   OH212353   5.539   4.822   4.072
 4130TIP3    H112354   5.449   4.791   4.077
 4130TIP3    H212355   5.592   4.744   4.086
 4131TIP3   OH212356   1.451   6.348   1.397
 4131TIP3    H112357   1.398   6.419   1.361
 4131TIP3    H212358   1.443   6.358   1.492
 4132TIP3   OH212359   6.328   4.870   2.671
 4132TIP3    H112360   6.297   4.900   2.585
 4132TIP3    H212361   6.423   4.875   2.665
 4133TIP3   OH212362   2.864   4.362   2.379
 4133TIP3    H112363   2.872   4.272   2.409
 4133TIP3    H212364   2.937   4.408   2.421
 4134TIP3   OH212365   3.300   6.580   5.235
 4134TIP3    H112366   3.268   6.491   5.224
 4134TIP3    H212367   3.389   6.578   5.199
 4135TIP3   OH212368   5.378   0.530   5.273
 4135TIP3    H112369   5.407   0.591   5.205
 4135TIP3    H212370   5.289   0.504   5.246
 4136TIP3   OH212371   0.043   0.946   5.850
 4136TIP3    H112372   0.002   0.884   5.789
 4136TIP3    H212373   0.113   0.987   5.798
 4137TIP3   OH212374   0.500   5.578   4.109
 4137TIP3    H112375   0.511   5.484   4.094
 4137TIP3    H212376   0.513   5.618   4.023
 4138TIP3   OH212377   0.179   0.997   3.980
 4138TIP3    H112378   0.168   0.906   4.009
 4138TIP3    H212379   0.274   1.011   3.981
 4139TIP3   OH212380   4.040   4.343   4.852
 4139TIP3    H112381   4.099   4.281   4.895
 4139TIP3    H212382   4.053   4.327   4.759
 4140TIP3   OH212383   2.009   3.376   3.029
 4140TIP3    H112384   1.922   3.345   3.004
 4140TIP3    H212385   2.069   3.308   2.999
 4141TIP3   OH212386   4.037   6.643   5.680
 4141TIP3    H112387   3.990   6.677   5.756
 4141TIP3    H212388   4.118   6.694   5.676
 4142TIP3   OH212389   1.211   2.747   1.861
 4142TIP3    H112390   1.298   2.743   1.899
 4142TIP3    H212391   1.217   2.812   1.791
 4143TIP3   OH212392   6.671   1.050   4.455
 4143TIP3    H112393   6.626   1.100   4.523
 4143TIP3    H212394   6.606   0.986   4.425
 4144TIP3   OH212395   3.027   6.290   3.829
 4144TIP3    H112396   2.962   6.220   3.835
 4144TIP3    H212397   3.041   6.302   3.735
 4145TIP3   OH212398   1.982   0.901   0.942
 4145TIP3    H112399   1.911   0.965   0.937
 4145TIP3    H212400   1.968   0.855   1.025
 4146TIP3   OH212401   2.325   5.348   0.046
 4146TIP3    H112402   2.266   5.341   0.121
 4146TIP3    H212403   2.413   5.353   0.084
 4147TIP3   OH212404   5.669   0.664   2.855
 4147TIP3    H112405   5.706   0.739   2.901
 4147TIP3    H212406   5.738   0.597   2.859
 4148TIP3   OH212407   4.265   6.344   5.694
 4148TIP3    H112408   4.246   6.336   5.600
 4148TIP3    H212409   4.186   6.385   5.731
 4149TIP3   OH212410   5.048   0.823   3.043
 4149TIP3    H112411   5.086   0.908   3.066
 4149TIP3    H212412   5.113   0.783   2.984
 4150TIP3   OH212413   0.021   3.485   5.240
 4150TIP3    H112414  -0.060   3.436   5.233
 4150TIP3    H212415   0.017   3.547   5.167
 4151TIP3   OH212416   1.516   0.188   0.346
 4151TIP3    H112417   1.477   0.168   0.260
 4151TIP3    H212418   1.441   0.203   0.403
 4152TIP3   OH212419   2.567   2.446   4.937
 4152TIP3    H112420   2.646   2.452   4.883
 4152TIP3    H212421   2.595   2.478   5.023
 4153TIP3   OH212422   5.552   4.145   4.038
 4153TIP3    H112423   5.502   4.222   4.011
 4153TIP3    H212424   5.620   4.136   3.971
 4154TIP3   OH212425   3.128   3.194   5.701
 4154TIP3    H112426   3.110   3.151   5.618
 4154TIP3    H212427   3.110   3.287   5.684
 4155TIP3   OH212428   5.337   1.601   0.955
 4155TIP3    H112429   5.364   1.509   0.957
 4155TIP3    H212430   5.411   1.649   0.993
 4156TIP3   OH212431   5.766   1.685   3.227
 4156TIP3    H112432   5.834   1.694   3.293
 4156TIP3    H212433   5.795   1.612   3.172
 4157TIP3   OH212434   4.570   3.698   0.486
 4157TIP3    H112435   4.550   3.791   0.498
 4157TIP3    H212436   4.535   3.655   0.564
 4158TIP3   OH212437   2.799   5.844   3.356
 4158TIP3    H112438   2.755   5.846   3.271
 4158TIP3    H212439   2.732   5.817   3.418
 4159TIP3   OH212440   0.845   3.325   2.601
 4159TIP3    H112441   0.930   3.290   2.574
 4159TIP3    H212442   0.792   3.247   2.619
 4160TIP3   OH212443   0.695   3.821   5.006
 4160TIP3    H112444   0.730   3.869   5.082
 4160TIP3    H212445   0.710   3.879   4.932
 4161TIP3   OH212446   0.292   6.336   3.546
 4161TIP3    H112447   0.207   6.298   3.523
 4161TIP3    H212448   0.346   6.321   3.469
 4162TIP3   OH212449   6.284   4.485   5.421
 4162TIP3    H112450   6.272   4.421   5.492
 4162TIP3    H212451   6.195   4.512   5.398
 4163TIP3   OH212452   5.141   2.822   5.274
 4163TIP3    H112453   5.059   2.791   5.237
 4163TIP3    H212454   5.154   2.768   5.353
 4164TIP3   OH212455   3.760   3.387   1.613
 4164TIP3    H112456   3.700   3.447   1.569
 4164TIP3    H212457   3.831   3.442   1.645
 4165TIP3   OH212458   1.811   5.301   3.263
 4165TIP3    H112459   1.769   5.373   3.216
 4165TIP3    H212460   1.891   5.339   3.299
 4166TIP3   OH212461   5.277   6.385   0.093
 4166TIP3    H112462   5.341   6.456   0.086
 4166TIP3    H212463   5.252   6.366   0.003
 4167TIP3   OH212464   1.945   4.961   4.833
 4167TIP3    H112465   1.920   4.922   4.750
 4167TIP3    H212466   1.901   5.046   4.834
 4168TIP3   OH212467   1.747   0.575   2.563
 4168TIP3    H112468   1.705   0.495   2.594
 4168TIP3    H212469   1.682   0.615   2.505
 4169TIP3   OH212470   5.909   6.001   5.461
 4169TIP3    H112471   5.962   6.040   5.391
 4169TIP3    H212472   5.841   6.066   5.479
 4170TIP3   OH212473   5.830   0.175   1.424
 4170TIP3    H112474   5.869   0.262   1.421
 4170TIP3    H212475   5.851   0.136   1.339
 4171TIP3   OH212476   3.029   2.255   2.822
 4171TIP3    H112477   2.999   2.165   2.824
 4171TIP3    H212478   2.996   2.294   2.903
 4172TIP3   OH212479   5.262   0.837   1.500
 4172TIP3    H112480   5.306   0.755   1.522
 4172TIP3    H212481   5.241   0.877   1.585
 4173TIP3   OH212482   1.553   1.897   4.838
 4173TIP3    H112483   1.468   1.884   4.794
 4173TIP3    H212484   1.615   1.846   4.785
 4174TIP3   OH212485   6.413   3.514   0.473
 4174TIP3    H112486   6.400   3.428   0.513
 4174TIP3    H212487   6.436   3.495   0.382
 4175TIP3   OH212488   4.817   1.237   1.911
 4175TIP3    H112489   4.879   1.165   1.905
 4175TIP3    H212490   4.771   1.236   1.827
 4176TIP3   OH212491   6.821   2.307   5.661
 4176TIP3    H112492   6.857   2.220   5.641
 4176TIP3    H212493   6.726   2.294   5.662
 4177TIP3   OH212494   1.403   6.309   2.068
 4177TIP3    H112495   1.439   6.222   2.054
 4177TIP3    H212496   1.459   6.349   2.134
 4178TIP3   OH212497   6.156   6.506   1.977
 4178TIP3    H112498   6.140   6.438   1.912
 4178TIP3    H212499   6.115   6.473   2.057
 4179TIP3   OH212500   1.573   4.113   1.033
 4179TIP3    H112501   1.563   4.192   0.981
 4179TIP3    H212502   1.657   4.077   1.008
 4180TIP3   OH212503   1.746   5.582   2.256
 4180TIP3    H112504   1.658   5.547   2.266
 4180TIP3    H212505   1.781   5.585   2.345
 4181TIP3   OH212506   0.746   2.536   1.961
 4181TIP3    H112507   0.707   2.563   2.044
 4181TIP3    H212508   0.771   2.445   1.975
 4182TIP3   OH212509   4.636   4.497   0.888
 4182TIP3    H112510   4.708   4.479   0.948
 4182TIP3    H212511   4.570   4.543   0.940
 4183TIP3   OH212512   1.012   3.055   5.570
 4183TIP3    H112513   0.925   3.093   5.579
 4183TIP3    H212514   1.015   2.986   5.636
 4184TIP3   OH212515   6.358   5.076   1.892
 4184TIP3    H112516   6.268   5.094   1.864
 4184TIP3    H212517   6.350   5.051   1.984
 4185TIP3   OH212518   4.679   5.162   2.688
 4185TIP3    H112519   4.656   5.255   2.682
 4185TIP3    H212520   4.772   5.162   2.709
 4186TIP3   OH212521   6.834   0.848   5.695
 4186TIP3    H112522   6.804   0.758   5.684
 4186TIP3    H212523   6.769   0.901   5.648
 4187TIP3   OH212524   1.701   2.602   3.617
 4187TIP3    H112525   1.635   2.651   3.568
 4187TIP3    H212526   1.779   2.658   3.615
 4188TIP3   OH212527   7.020   6.193   4.141
 4188TIP3    H112528   7.010   6.099   4.158
 4188TIP3    H212529   7.088   6.198   4.074
 4189TIP3   OH212530   1.127   3.332   2.807
 4189TIP3    H112531   1.076   3.276   2.866
 4189TIP3    H212532   1.143   3.412   2.858
 4190TIP3   OH212533   6.035   3.865   2.560
 4190TIP3    H112534   6.080   3.792   2.603
 4190TIP3    H212535   5.970   3.823   2.504
 4191TIP3   OH212536   1.121   0.765   5.513
 4191TIP3    H112537   1.176   0.698   5.553
 4191TIP3    H212538   1.139   0.758   5.419
 4192TIP3   OH212539   4.253   4.672   0.029
 4192TIP3    H112540   4.225   4.630   0.110
 4192TIP3    H212541   4.171   4.699  -0.013
 4193TIP3   OH212542   7.110   5.935   0.040
 4193TIP3    H112543   7.188   5.905   0.088
 4193TIP3    H212544   7.101   5.872  -0.032
 4194TIP3   OH212545   4.752   4.330   3.488
 4194TIP3    H112546   4.771   4.416   3.449
 4194TIP3    H212547   4.836   4.284   3.487
 4195TIP3   OH212548   0.102   6.081   4.344
 4195TIP3    H112549   0.057   6.025   4.408
 4195TIP3    H212550   0.190   6.046   4.339
 4196TIP3   OH212551   5.367   1.627   4.260
 4196TIP3    H112552   5.436   1.693   4.259
 4196TIP3    H212553   5.381   1.577   4.179
 4197TIP3   OH212554   4.666   2.893   2.976
 4197TIP3    H112555   4.648   2.981   3.010
 4197TIP3    H212556   4.580   2.850   2.976
 4198TIP3   OH212557   7.195   2.732   3.292
 4198TIP3    H112558   7.153   2.659   3.337
 4198TIP3    H212559   7.194   2.803   3.356
 4199TIP3   OH212560   4.876   0.434   0.322
 4199TIP3    H112561   4.853   0.448   0.230
 4199TIP3    H212562   4.883   0.339   0.332
 4200TIP3   OH212563   2.027   4.274   3.102
 4200TIP3    H112564   2.105   4.221   3.115
 4200TIP3    H212565   2.031   4.302   3.010
 4201TIP3   OH212566   6.518   1.908   4.735
 4201TIP3    H112567   6.540   1.878   4.823
 4201TIP3    H212568   6.423   1.908   4.732
 4202TIP3   OH212569   6.519   6.144   4.981
 4202TIP3    H112570   6.530   6.176   5.070
 4202TIP3    H212571   6.570   6.063   4.977
 4203TIP3   OH212572   5.722   2.167   1.615
 4203TIP3    H112573   5.635   2.126   1.620
 4203TIP3    H212574   5.781   2.095   1.596
 4204TIP3   OH212575   6.777   4.323   2.385
 4204TIP3    H112576   6.785   4.379   2.308
 4204TIP3    H212577   6.713   4.368   2.441
 4205TIP3   OH212578   4.160   6.012   0.717
 4205TIP3    H112579   4.106   5.936   0.740
 4205TIP3    H212580   4.129   6.039   0.631
 4206TIP3   OH212581   3.862   0.774   4.396
 4206TIP3    H112582   3.956   0.772   4.380
 4206TIP3    H212583   3.833   0.859   4.363
 4207TIP3   OH212584   1.169   3.884   5.514
 4207TIP3    H112585   1.112   3.876   5.590
 4207TIP3    H212586   1.231   3.953   5.537
 4208TIP3   OH212587   5.955   3.417   0.447
 4208TIP3    H112588   5.925   3.328   0.464
 4208TIP3    H212589   6.026   3.408   0.384
 4209TIP3   OH212590   5.125   5.142   4.000
 4209TIP3    H112591   5.117   5.047   3.998
 4209TIP3    H212592   5.218   5.157   4.018
 4210TIP3   OH212593   2.705   2.839   2.871
 4210TIP3    H112594   2.644   2.767   2.855
 4210TIP3    H212595   2.724   2.835   2.964
 4211TIP3   OH212596   6.063   3.789   4.295
 4211TIP3    H112597   6.088   3.876   4.326
 4211TIP3    H212598   6.003   3.807   4.223
 4212TIP3   OH212599   3.830   5.683   2.367
 4212TIP3    H112600   3.915   5.715   2.399
 4212TIP3    H212601   3.846   5.591   2.345
 4213TIP3   OH212602   3.938   1.298   3.907
 4213TIP3    H112603   3.964   1.383   3.941
 4213TIP3    H212604   3.843   1.300   3.906
 4214TIP3   OH212605   6.334   3.927   0.554
 4214TIP3    H112606   6.339   3.863   0.625
 4214TIP3    H212607   6.360   4.010   0.595
 4215TIP3   OH212608   6.543   5.016   5.708
 4215TIP3    H112609   6.556   5.004   5.803
 4215TIP3    H212610   6.509   5.105   5.699
 4216TIP3   OH212611   1.775   5.513   1.519
 4216TIP3    H112612   1.867   5.487   1.529
 4216TIP3    H212613   1.779   5.609   1.508
 4217TIP3   OH212614   4.671   3.711   4.220
 4217TIP3    H112615   4.754   3.703   4.172
 4217TIP3    H212616   4.624   3.631   4.198
 4218TIP3   OH212617   4.317   5.622   5.419
 4218TIP3    H112618   4.357   5.706   5.397
 4218TIP3    H212619   4.222   5.638   5.415
 4219TIP3   OH212620   5.666   6.122   5.117
 4219TIP3    H112621   5.580   6.087   5.091
 4219TIP3    H212622   5.646   6.191   5.179
 4220TIP3   OH212623   4.958   1.614   2.657
 4220TIP3    H112624   4.899   1.561   2.711
 4220TIP3    H212625   4.988   1.683   2.717
 4221TIP3   OH212626   0.106   0.305   3.046
 4221TIP3    H112627   0.020   0.273   3.019
 4221TIP3    H212628   0.086   0.381   3.101
 4222TIP3   OH212629   4.394   0.861   3.582
 4222TIP3    H112630   4.320   0.898   3.631
 4222TIP3    H212631   4.445   0.938   3.556
 4223TIP3   OH212632   2.212   1.862   0.052
 4223TIP3    H112633   2.196   1.776   0.091
 4223TIP3    H212634   2.249   1.842  -0.034
 4224TIP3   OH212635   4.964   4.289   5.857
 4224TIP3    H112636   4.961   4.384   5.868
 4224TIP3    H212637   4.896   4.270   5.792
 4225TIP3   OH212638   2.333   3.112   4.542
 4225TIP3    H112639   2.374   3.171   4.478
 4225TIP3    H212640   2.405   3.086   4.600
 4226TIP3   OH212641   2.136   1.912   1.083
 4226TIP3    H112642   2.084   1.846   1.128
 4226TIP3    H212643   2.210   1.928   1.142
 4227TIP3   OH212644   2.976   5.362   2.188
 4227TIP3    H112645   2.999   5.289   2.245
 4227TIP3    H212646   3.014   5.340   2.103
 4228TIP3   OH212647   1.930   3.387   1.404
 4228TIP3    H112648   2.016   3.400   1.445
 4228TIP3    H212649   1.898   3.476   1.388
 4229TIP3   OH212650   3.497   6.169   0.535
 4229TIP3    H112651   3.540   6.084   0.549
 4229TIP3    H212652   3.530   6.225   0.605
 4230TIP3   OH212653   4.043   5.979   1.034
 4230TIP3    H112654   4.134   5.995   1.060
 4230TIP3    H212655   4.048   5.914   0.964
 4231TIP3   OH212656   5.759   2.024   2.148
 4231TIP3    H112657   5.684   1.985   2.103
 4231TIP3    H212658   5.787   1.956   2.210
 4232TIP3   OH212659   1.479   4.149   3.159
 4232TIP3    H112660   1.395   4.192   3.148
 4232TIP3    H212661   1.543   4.220   3.149
 4233TIP3   OH212662   2.182   2.416   2.799
 4233TIP3    H112663   2.143   2.336   2.762
 4233TIP3    H212664   2.108   2.463   2.837
 4234TIP3   OH212665   1.468   0.150   2.436
 4234TIP3    H112666   1.389   0.203   2.446
 4234TIP3    H212667   1.504   0.142   2.524
 4235TIP3   OH212668   3.788   4.438   4.231
 4235TIP3    H112669   3.815   4.530   4.230
 4235TIP3    H212670   3.869   4.389   4.224
 4236TIP3   OH212671   1.342   2.772   3.165
 4236TIP3    H112672   1.407   2.835   3.197
 4236TIP3    H212673   1.329   2.796   3.073
 4237TIP3   OH212674   3.491   2.079   2.673
 4237TIP3    H112675   3.501   2.034   2.756
 4237TIP3    H212676   3.422   2.144   2.688
 4238TIP3   OH212677   1.331   2.615   4.860
 4238TIP3    H112678   1.314   2.626   4.766
 4238TIP3    H212679   1.267   2.672   4.902
 4239TIP3   OH212680   7.037   3.174   3.800
 4239TIP3    H112681   6.970   3.123   3.846
 4239TIP3    H212682   7.100   3.109   3.768
 4240TIP3   OH212683   1.314   1.877   3.581
 4240TIP3    H112684   1.351   1.957   3.618
 4240TIP3    H212685   1.310   1.816   3.655
 4241TIP3   OH212686   5.435   6.682   4.808
 4241TIP3    H112687   5.406   6.772   4.823
 4241TIP3    H212688   5.434   6.672   4.713
 4242TIP3   OH212689   2.646   4.878   5.063
 4242TIP3    H112690   2.575   4.936   5.093
 4242TIP3    H212691   2.601   4.806   5.019
 4243TIP3   OH212692   3.704   2.930   4.368
 4243TIP3    H112693   3.719   2.962   4.279
 4243TIP3    H212694   3.698   3.010   4.421
 4244TIP3   OH212695   5.080   4.271   2.390
 4244TIP3    H112696   5.011   4.209   2.411
 4244TIP3    H212697   5.158   4.217   2.374
 4245TIP3   OH212698   5.986   4.015   3.440
 4245TIP3    H112699   6.009   4.085   3.378
 4245TIP3    H212700   5.895   4.032   3.462
 4246TIP3   OH212701   3.923   6.180   5.400
 4246TIP3    H112702   3.891   6.096   5.433
 4246TIP3    H212703   3.932   6.235   5.478
 4247TIP3   OH212704   2.972   2.132   3.819
 4247TIP3    H112705   2.925   2.073   3.878
 4247TIP3    H212706   2.906   2.160   3.755
 4248TIP3   OH212707   4.072   6.174   1.239
 4248TIP3    H112708   4.117   6.147   1.319
 4248TIP3    H212709   4.130   6.144   1.168
 4249TIP3   OH212710   5.065   0.565   0.131
 4249TIP3    H112711   5.112   0.499   0.080
 4249TIP3    H212712   5.034   0.519   0.209
 4250TIP3   OH212713   0.761   3.863   0.953
 4250TIP3    H112714   0.745   3.870   0.859
 4250TIP3    H212715   0.784   3.952   0.980
 4251TIP3   OH212716   4.999   1.180   4.282
 4251TIP3    H112717   5.002   1.275   4.289
 4251TIP3    H212718   4.941   1.153   4.353
 4252TIP3   OH212719   6.611   2.154   3.343
 4252TIP3    H112720   6.597   2.128   3.252
 4252TIP3    H212721   6.528   2.138   3.387
 4253TIP3   OH212722   4.765   5.695   2.209
 4253TIP3    H112723   4.684   5.648   2.186
 4253TIP3    H212724   4.746   5.736   2.294
 4254TIP3   OH212725   2.442   1.720   4.783
 4254TIP3    H112726   2.487   1.693   4.703
 4254TIP3    H212727   2.363   1.764   4.752
 4255TIP3   OH212728   4.014   5.205   5.319
 4255TIP3    H112729   3.948   5.226   5.386
 4255TIP3    H212730   3.983   5.247   5.240
 4256TIP3   OH212731   0.238   1.055   5.692
 4256TIP3    H112732   0.277   1.141   5.710
 4256TIP3    H212733   0.244   1.047   5.597
 4257TIP3   OH212734   5.604   4.662   0.033
 4257TIP3    H112735   5.554   4.742   0.050
 4257TIP3    H212736   5.582   4.603   0.105
 4258TIP3   OH212737   1.759   3.011   0.350
 4258TIP3    H112738   1.768   3.084   0.289
 4258TIP3    H212739   1.664   2.995   0.354
 4259TIP3   OH212740   5.295   0.107   0.738
 4259TIP3    H112741   5.379   0.154   0.747
 4259TIP3    H212742   5.265   0.128   0.650
 4260TIP3   OH212743   2.149   2.233   1.929
 4260TIP3    H112744   2.164   2.236   2.023
 4260TIP3    H212745   2.237   2.240   1.891
 4261TIP3   OH212746   5.256   6.377   5.091
 4261TIP3    H112747   5.288   6.304   5.144
 4261TIP3    H212748   5.211   6.434   5.154
 4262TIP3   OH212749   2.069   6.077   3.260
 4262TIP3    H112750   2.110   6.159   3.230
 4262TIP3    H212751   1.975   6.095   3.257
 4263TIP3   OH212752   1.149   0.652   2.386
 4263TIP3    H112753   1.219   0.598   2.422
 4263TIP3    H212754   1.167   0.654   2.292
 4264TIP3   OH212755   4.905   2.222   1.207
 4264TIP3    H112756   4.868   2.154   1.262
 4264TIP3    H212757   4.837   2.289   1.202
 4265TIP3   OH212758   2.141   1.176   4.601
 4265TIP3    H112759   2.143   1.119   4.679
 4265TIP3    H212760   2.157   1.264   4.635
 4266TIP3   OH212761   0.419   3.795   5.861
 4266TIP3    H112762   0.367   3.732   5.811
 4266TIP3    H212763   0.448   3.859   5.796
 4267TIP3   OH212764   0.213   1.633   0.566
 4267TIP3    H112765   0.259   1.624   0.483
 4267TIP3    H212766   0.275   1.600   0.631
 4268TIP3   OH212767   2.548   2.376   0.157
 4268TIP3    H112768   2.543   2.354   0.064
 4268TIP3    H212769   2.511   2.299   0.201
 4269TIP3   OH212770   5.204   0.807   0.532
 4269TIP3    H112771   5.286   0.846   0.562
 4269TIP3    H212772   5.175   0.865   0.461
 4270TIP3   OH212773   3.668   4.017   4.461
 4270TIP3    H112774   3.709   4.050   4.381
 4270TIP3    H212775   3.592   4.074   4.474
 4271TIP3   OH212776   6.768   0.054   4.529
 4271TIP3    H112777   6.737  -0.036   4.528
 4271TIP3    H212778   6.863   0.048   4.523
 4272TIP3   OH212779   0.571   4.244   2.329
 4272TIP3    H112780   0.565   4.151   2.352
 4272TIP3    H212781   0.664   4.263   2.328
 4273TIP3   OH212782   4.339   1.210   4.069
 4273TIP3    H112783   4.435   1.209   4.064
 4273TIP3    H212784   4.313   1.280   4.008
 4274TIP3   OH212785   0.420   5.451   4.741
 4274TIP3    H112786   0.451   5.432   4.652
 4274TIP3    H212787   0.420   5.546   4.747
 4275TIP3   OH212788   2.803   5.843   2.145
 4275TIP3    H112789   2.843   5.757   2.137
 4275TIP3    H212790   2.773   5.847   2.236
 4276TIP3   OH212791   3.032   6.336   0.183
 4276TIP3    H112792   3.062   6.309   0.270
 4276TIP3    H212793   3.092   6.293   0.122
 4277TIP3   OH212794   1.978   0.190   2.883
 4277TIP3    H112795   2.027   0.110   2.900
 4277TIP3    H212796   1.888   0.170   2.909
 4278TIP3   OH212797   0.720   2.769   1.452
 4278TIP3    H112798   0.728   2.816   1.535
 4278TIP3    H212799   0.634   2.728   1.456
 4279TIP3   OH212800   4.252   2.501   4.834
 4279TIP3    H112801   4.175   2.446   4.821
 4279TIP3    H212802   4.241   2.572   4.771
 4280TIP3   OH212803   4.677   0.130   1.389
 4280TIP3    H112804   4.602   0.126   1.330
 4280TIP3    H212805   4.735   0.196   1.349
 4281TIP3   OH212806   4.493   2.020   2.121
 4281TIP3    H112807   4.499   1.925   2.126
 4281TIP3    H212808   4.413   2.036   2.071
 4282TIP3   OH212809   2.021   3.619   3.727
 4282TIP3    H112810   1.966   3.543   3.706
 4282TIP3    H212811   2.007   3.634   3.820
 4283TIP3   OH212812   6.310   3.958   5.237
 4283TIP3    H112813   6.253   3.924   5.305
 4283TIP3    H212814   6.254   3.964   5.159
 4284TIP3   OH212815   3.248   3.931   2.035
 4284TIP3    H112816   3.321   3.923   1.974
 4284TIP3    H212817   3.216   3.841   2.046
 4285TIP3   OH212818   3.071   4.064   1.880
 4285TIP3    H112819   2.989   4.027   1.914
 4285TIP3    H212820   3.137   4.037   1.944
 4286TIP3   OH212821   5.367   0.593   3.848
 4286TIP3    H112822   5.297   0.599   3.784
 4286TIP3    H212823   5.444   0.567   3.798
 4287TIP3   OH212824   3.754   2.172   1.731
 4287TIP3    H112825   3.778   2.140   1.644
 4287TIP3    H212826   3.838   2.193   1.773
 4288TIP3   OH212827   1.836   0.726   0.155
 4288TIP3    H112828   1.750   0.706   0.192
 4288TIP3    H212829   1.897   0.675   0.209
 4289TIP3   OH212830   3.931   0.180   1.293
 4289TIP3    H112831   3.946   0.189   1.387
 4289TIP3    H212832   3.859   0.239   1.274
 4290TIP3   OH212833   5.795   6.464   0.458
 4290TIP3    H112834   5.775   6.411   0.535
 4290TIP3    H212835   5.748   6.421   0.387
 4291TIP3   OH212836   4.183   5.062   0.100
 4291TIP3    H112837   4.192   5.121   0.175
 4291TIP3    H212838   4.215   5.113   0.025
 4292TIP3   OH212839   7.255   6.732   3.995
 4292TIP3    H112840   7.210   6.655   4.030
 4292TIP3    H212841   7.195   6.805   4.014
 4293TIP3   OH212842   4.357   1.879   3.356
 4293TIP3    H112843   4.394   1.799   3.318
 4293TIP3    H212844   4.272   1.852   3.391
 4294TIP3   OH212845   5.814   3.736   2.428
 4294TIP3    H112846   5.777   3.658   2.469
 4294TIP3    H212847   5.827   3.710   2.336
 4295TIP3   OH212848   3.530   0.233   4.128
 4295TIP3    H112849   3.604   0.214   4.070
 4295TIP3    H212850   3.546   0.322   4.160
 4296TIP3   OH212851   3.006   5.128   1.021
 4296TIP3    H112852   2.989   5.207   0.969
 4296TIP3    H212853   3.094   5.141   1.057
 4297TIP3   OH212854   0.926   0.352   1.637
 4297TIP3    H112855   0.832   0.358   1.650
 4297TIP3    H212856   0.954   0.443   1.622
 4298TIP3   OH212857   3.338   4.575   1.917
 4298TIP3    H112858   3.304   4.504   1.863
 4298TIP3    H212859   3.271   4.588   1.984
 4299TIP3   OH212860   1.914   2.944   1.640
 4299TIP3    H112861   2.008   2.930   1.628
 4299TIP3    H212862   1.885   2.868   1.690
 4300TIP3   OH212863   1.510   2.782   4.598
 4300TIP3    H112864   1.552   2.761   4.681
 4300TIP3    H212865   1.583   2.787   4.535
 4301TIP3   OH212866   5.992   6.265   5.597
 4301TIP3    H112867   6.008   6.176   5.629
 4301TIP3    H212868   5.943   6.308   5.667
 4302TIP3   OH212869   4.516   2.182   2.603
 4302TIP3    H112870   4.544   2.093   2.625
 4302TIP3    H212871   4.516   2.184   2.507
 4303TIP3   OH212872   1.786   5.843   3.211
 4303TIP3    H112873   1.754   5.855   3.300
 4303TIP3    H212874   1.800   5.932   3.178
 4304TIP3   OH212875   1.164   0.941   5.252
 4304TIP3    H112876   1.216   0.890   5.191
 4304TIP3    H212877   1.217   1.019   5.269
 4305TIP3   OH212878   3.758   3.412   0.779
 4305TIP3    H112879   3.711   3.353   0.721
 4305TIP3    H212880   3.846   3.417   0.743
 4306TIP3   OH212881   1.785   2.541   4.626
 4306TIP3    H112882   1.795   2.535   4.722
 4306TIP3    H212883   1.868   2.508   4.592
 4307TIP3   OH212884   1.844   2.077   3.403
 4307TIP3    H112885   1.894   2.157   3.422
 4307TIP3    H212886   1.763   2.087   3.453
 4308TIP3   OH212887   7.230   3.959   5.011
 4308TIP3    H112888   7.154   3.921   5.054
 4308TIP3    H212889   7.211   3.950   4.917
 4309TIP3   OH212890   2.197   2.447   1.202
 4309TIP3    H112891   2.172   2.388   1.273
 4309TIP3    H212892   2.120   2.503   1.190
 4310TIP3   OH212893   1.596   0.352   1.194
 4310TIP3    H112894   1.629   0.281   1.250
 4310TIP3    H212895   1.553   0.307   1.121
 4311TIP3   OH212896   5.018   1.906   0.408
 4311TIP3    H112897   4.991   1.923   0.498
 4311TIP3    H212898   5.114   1.903   0.412
 4312TIP3   OH212899   4.835   6.493   3.746
 4312TIP3    H112900   4.808   6.488   3.837
 4312TIP3    H212901   4.841   6.401   3.718
 4313TIP3   OH212902   2.832   0.449   3.093
 4313TIP3    H112903   2.781   0.497   3.158
 4313TIP3    H212904   2.781   0.457   3.012
 4314TIP3   OH212905   0.740   1.575   5.266
 4314TIP3    H112906   0.708   1.662   5.288
 4314TIP3    H212907   0.691   1.516   5.323
 4315TIP3   OH212908   6.057   5.050   4.360
 4315TIP3    H112909   5.976   5.010   4.393
 4315TIP3    H212910   6.126   5.008   4.412
 4316TIP3   OH212911   5.959   4.706   1.832
 4316TIP3    H112912   5.898   4.708   1.907
 4316TIP3    H212913   6.042   4.678   1.870
 4317TIP3   OH212914   5.361   2.196   5.578
 4317TIP3    H112915   5.289   2.181   5.639
 4317TIP3    H212916   5.328   2.263   5.518
 4318TIP3   OH212917   3.812   0.993   0.303
 4318TIP3    H112918   3.859   0.995   0.220
 4318TIP3    H212919   3.820   0.903   0.334
 4319TIP3   OH212920   3.928   4.417   2.709
 4319TIP3    H112921   3.913   4.474   2.633
 4319TIP3    H212922   4.020   4.392   2.703
 4320TIP3   OH212923   2.409   0.037   1.338
 4320TIP3    H112924   2.393   0.128   1.363
 4320TIP3    H212925   2.342   0.018   1.273
 4321TIP3   OH212926   5.322   5.427   2.466
 4321TIP3    H112927   5.241   5.473   2.486
 4321TIP3    H212928   5.310   5.338   2.500
 4322TIP3   OH212929   1.092   2.845   1.335
 4322TIP3    H112930   1.049   2.807   1.258
 4322TIP3    H212931   1.060   2.936   1.338
 4323TIP3   OH212932   3.320   0.842   1.013
 4323TIP3    H112933   3.404   0.796   1.012
 4323TIP3    H212934   3.259   0.779   1.049
 4324TIP3   OH212935   1.285   5.513   2.688
 4324TIP3    H112936   1.249   5.425   2.676
 4324TIP3    H212937   1.233   5.551   2.757
 4325TIP3   OH212938   6.067   4.589   5.064
 4325TIP3    H112939   6.127   4.662   5.049
 4325TIP3    H212940   5.982   4.623   5.035
 4326TIP3   OH212941   5.269   5.371   0.326
 4326TIP3    H112942   5.311   5.396   0.408
 4326TIP3    H212943   5.326   5.407   0.258
 4327TIP3   OH212944   4.036   2.020   1.797
 4327TIP3    H112945   4.106   1.962   1.828
 4327TIP3    H212946   3.956   1.969   1.811
 4328TIP3   OH212947   3.606   2.304   5.346
 4328TIP3    H112948   3.693   2.330   5.376
 4328TIP3    H212949   3.547   2.326   5.418
 4329TIP3   OH212950   5.534   0.890   3.601
 4329TIP3    H112951   5.530   0.794   3.599
 4329TIP3    H212952   5.444   0.918   3.585
 4330TIP3   OH212953   0.147   3.495   4.476
 4330TIP3    H112954   0.061   3.494   4.435
 4330TIP3    H212955   0.137   3.550   4.553
 4331TIP3   OH212956   6.013   5.006   2.062
 4331TIP3    H112957   6.047   4.988   2.149
 4331TIP3    H212958   6.054   4.941   2.005
 4332TIP3   OH212959   3.898   1.786   4.163
 4332TIP3    H112960   3.944   1.710   4.128
 4332TIP3    H212961   3.861   1.756   4.247
 4333TIP3   OH212962   0.509   0.034   0.433
 4333TIP3    H112963   0.558   0.092   0.374
 4333TIP3    H212964   0.566  -0.042   0.445
 4334TIP3   OH212965   6.163   5.261   0.746
 4334TIP3    H112966   6.168   5.165   0.743
 4334TIP3    H212967   6.179   5.282   0.838
 4335TIP3   OH212968   3.089   2.389   3.700
 4335TIP3    H112969   3.075   2.308   3.749
 4335TIP3    H212970   3.048   2.373   3.615
 4336TIP3   OH212971   3.456   1.189   1.155
 4336TIP3    H112972   3.507   1.157   1.081
 4336TIP3    H212973   3.495   1.147   1.232
 4337TIP3   OH212974   4.259   1.731   5.170
 4337TIP3    H112975   4.266   1.794   5.099
 4337TIP3    H212976   4.321   1.763   5.236
 4338TIP3   OH212977   1.091   3.729   3.263
 4338TIP3    H112978   1.091   3.758   3.354
 4338TIP3    H212979   1.183   3.720   3.240
 4339TIP3   OH212980   2.130   2.275   0.318
 4339TIP3    H112981   2.101   2.290   0.228
 4339TIP3    H212982   2.225   2.269   0.312
 4340TIP3   OH212983   5.624   2.061   4.819
 4340TIP3    H112984   5.702   2.058   4.764
 4340TIP3    H212985   5.639   2.134   4.879
 4341TIP3   OH212986   5.865   1.661   5.164
 4341TIP3    H112987   5.879   1.575   5.204
 4341TIP3    H212988   5.887   1.724   5.232
 4342TIP3   OH212989   2.525   3.399   0.701
 4342TIP3    H112990   2.598   3.454   0.673
 4342TIP3    H212991   2.471   3.389   0.622
 4343TIP3   OH212992   5.287   2.732   1.832
 4343TIP3    H112993   5.213   2.765   1.882
 4343TIP3    H212994   5.363   2.779   1.866
 4344TIP3   OH212995   1.159   1.402   4.412
 4344TIP3    H112996   1.223   1.340   4.447
 4344TIP3    H212997   1.106   1.350   4.351
 4345TIP3   OH212998   7.144   3.826   0.046
 4345TIP3    H112999   7.171   3.917   0.054
 4345TIP3    H213000   7.050   3.828   0.066
 4346TIP3   OH213001   5.108   2.319   4.828
 4346TIP3    H113002   5.048   2.393   4.818
 4346TIP3    H213003   5.088   2.283   4.915
 4347TIP3   OH213004   5.315   1.971   2.565
 4347TIP3    H113005   5.285   2.005   2.649
 4347TIP3    H213006   5.346   2.049   2.518
 4348TIP3   OH213007   4.015   4.969   2.192
 4348TIP3    H113008   3.953   4.898   2.170
 4348TIP3    H213009   4.101   4.928   2.186
 4349TIP3   OH213010   1.052   2.919   5.831
 4349TIP3    H113011   0.976   2.891   5.881
 4349TIP3    H213012   1.081   2.999   5.874
 4350TIP3   OH213013   5.618   6.115   1.476
 4350TIP3    H113014   5.648   6.103   1.386
 4350TIP3    H213015   5.646   6.204   1.499
 4351TIP3   OH213016   0.686   0.479   2.227
 4351TIP3    H113017   0.621   0.542   2.194
 4351TIP3    H213018   0.704   0.421   2.153
 4352TIP3   OH213019   3.028   3.630   4.524
 4352TIP3    H113020   3.095   3.687   4.485
 4352TIP3    H213021   3.074   3.583   4.594
 4353TIP3   OH213022   0.418   1.388   1.199
 4353TIP3    H113023   0.349   1.448   1.228
 4353TIP3    H213024   0.374   1.304   1.186
 4354TIP3   OH213025   2.898   4.262   0.893
 4354TIP3    H113026   2.898   4.188   0.833
 4354TIP3    H213027   2.989   4.271   0.921
 4355TIP3   OH213028   6.548   5.683   5.703
 4355TIP3    H113029   6.538   5.654   5.612
 4355TIP3    H213030   6.537   5.778   5.699
 4356TIP3   OH213031   0.538   2.282   3.115
 4356TIP3    H113032   0.550   2.202   3.064
 4356TIP3    H213033   0.508   2.347   3.052
 4357TIP3   OH213034   0.519   2.299   4.341
 4357TIP3    H113035   0.514   2.395   4.339
 4357TIP3    H213036   0.428   2.271   4.328
 4358TIP3   OH213037   5.092   4.738   2.942
 4358TIP3    H113038   5.006   4.779   2.950
 4358TIP3    H213039   5.080   4.667   2.879
 4359TIP3   OH213040   4.921   5.957   0.374
 4359TIP3    H113041   4.976   5.883   0.347
 4359TIP3    H213042   4.904   6.005   0.293
 4360TIP3   OH213043   1.753   6.065   1.027
 4360TIP3    H113044   1.733   6.112   1.107
 4360TIP3    H213045   1.690   5.993   1.025
 4361TIP3   OH213046   1.989   2.691   1.807
 4361TIP3    H113047   1.899   2.698   1.840
 4361TIP3    H213048   2.043   2.685   1.886
 4362TIP3   OH213049   5.118   3.215   0.773
 4362TIP3    H113050   5.178   3.155   0.817
 4362TIP3    H213051   5.174   3.288   0.746
 4363TIP3   OH213052   1.454   5.433   5.504
 4363TIP3    H113053   1.535   5.434   5.555
 4363TIP3    H213054   1.425   5.524   5.505
 4364TIP3   OH213055   3.975   4.509   0.493
 4364TIP3    H113056   4.022   4.554   0.563
 4364TIP3    H213057   3.901   4.566   0.474
 4365TIP3   OH213058   3.249   5.610   3.666
 4365TIP3    H113059   3.182   5.676   3.650
 4365TIP3    H213060   3.325   5.660   3.698
 4366TIP3   OH213061   4.501   1.738   2.160
 4366TIP3    H113062   4.534   1.712   2.074
 4366TIP3    H213063   4.484   1.655   2.205
 4367TIP3   OH213064   1.021   0.697   1.109
 4367TIP3    H113065   1.102   0.684   1.158
 4367TIP3    H213066   0.955   0.647   1.158
 4368TIP3   OH213067   6.699   1.034   1.934
 4368TIP3    H113068   6.719   0.947   1.969
 4368TIP3    H213069   6.773   1.055   1.877
 4369TIP3   OH213070   4.321   0.126   4.768
 4369TIP3    H113071   4.252   0.059   4.766
 4369TIP3    H213072   4.398   0.079   4.800
 4370TIP3   OH213073   4.035   6.538   0.111
 4370TIP3    H113074   4.124   6.504   0.100
 4370TIP3    H213075   3.981   6.482   0.056
 4371TIP3   OH213076   5.789   2.529   4.922
 4371TIP3    H113077   5.815   2.615   4.955
 4371TIP3    H213078   5.805   2.533   4.828
 4372TIP3   OH213079   4.114   4.513   4.295
 4372TIP3    H113080   4.057   4.479   4.226
 4372TIP3    H213081   4.193   4.541   4.248
 4373TIP3   OH213082   5.462   5.383   0.591
 4373TIP3    H113083   5.395   5.447   0.614
 4373TIP3    H213084   5.428   5.300   0.623
 4374TIP3   OH213085   6.700   4.229   0.620
 4374TIP3    H113086   6.781   4.180   0.635
 4374TIP3    H213087   6.673   4.257   0.707
 4375TIP3   OH213088   3.547   1.094   4.695
 4375TIP3    H113089   3.517   1.181   4.669
 4375TIP3    H213090   3.635   1.108   4.732
 4376TIP3   OH213091   6.880   0.897   0.041
 4376TIP3    H113092   6.837   0.880   0.125
 4376TIP3    H213093   6.808   0.901  -0.022
 4377TIP3   OH213094   4.546   1.694   0.315
 4377TIP3    H113095   4.606   1.622   0.300
 4377TIP3    H213096   4.548   1.709   0.409
 4378TIP3   OH213097   6.682   4.046   3.532
 4378TIP3    H113098   6.678   4.132   3.574
 4378TIP3    H213099   6.668   4.065   3.439
 4379TIP3   OH213100   6.271   5.380   4.016
 4379TIP3    H113101   6.201   5.444   4.031
 4379TIP3    H213102   6.275   5.371   3.921
 4380TIP3   OH213103   5.068   0.445   2.847
 4380TIP3    H113104   4.991   0.492   2.816
 4380TIP3    H213105   5.067   0.363   2.798
 4381TIP3   OH213106   4.247   6.070   5.475
 4381TIP3    H113107   4.276   6.159   5.455
 4381TIP3    H213108   4.200   6.042   5.397
 4382TIP3   OH213109   2.544   3.762   2.838
 4382TIP3    H113110   2.505   3.843   2.872
 4382TIP3    H213111   2.528   3.698   2.907
 4383TIP3   OH213112   2.481   2.828   3.707
 4383TIP3    H113113   2.443   2.774   3.638
 4383TIP3    H213114   2.554   2.775   3.740
 4384TIP3   OH213115   0.066   4.423   3.225
 4384TIP3    H113116   0.148   4.435   3.178
 4384TIP3    H213117   0.061   4.329   3.242
 4385TIP3   OH213118   4.507   2.319   5.178
 4385TIP3    H113119   4.579   2.286   5.232
 4385TIP3    H213120   4.536   2.308   5.088
 4386TIP3   OH213121   2.109   3.409   5.898
 4386TIP3    H113122   2.028   3.380   5.855
 4386TIP3    H213123   2.080   3.456   5.976
 4387TIP3   OH213124   2.103   0.770   0.680
 4387TIP3    H113125   2.152   0.737   0.606
 4387TIP3    H213126   2.016   0.791   0.645
 4388TIP3   OH213127   5.709   4.456   2.543
 4388TIP3    H113128   5.667   4.414   2.468
 4388TIP3    H213129   5.774   4.392   2.573
 4389TIP3   OH213130   2.159   3.873   4.062
 4389TIP3    H113131   2.217   3.918   4.002
 4389TIP3    H213132   2.177   3.914   4.147
 4390TIP3   OH213133   4.022   0.225   4.888
 4390TIP3    H113134   4.020   0.222   4.984
 4390TIP3    H213135   3.991   0.139   4.861
 4391TIP3   OH213136   1.222   0.560   4.606
 4391TIP3    H113137   1.140   0.514   4.590
 4391TIP3    H213138   1.288   0.507   4.562
 4392TIP3   OH213139   5.169   4.271   4.096
 4392TIP3    H113140   5.187   4.353   4.049
 4392TIP3    H213141   5.076   4.277   4.119
 4393TIP3   OH213142   5.729   0.366   0.515
 4393TIP3    H113143   5.728   0.460   0.496
 4393TIP3    H213144   5.730   0.324   0.428
 4394TIP3   OH213145   5.248   0.312   3.916
 4394TIP3    H113146   5.280   0.375   3.852
 4394TIP3    H213147   5.323   0.294   3.972
 4395TIP3   OH213148   6.157   0.072   4.313
 4395TIP3    H113149   6.176   0.152   4.361
 4395TIP3    H213150   6.243   0.038   4.289
 4396TIP3   OH213151   4.526   5.537   1.110
 4396TIP3    H113152   4.542   5.622   1.069
 4396TIP3    H213153   4.554   5.474   1.045
 4397TIP3   OH213154   0.082   3.967   0.333
 4397TIP3    H113155   0.154   4.023   0.363
 4397TIP3    H213156   0.125   3.899   0.281
 4398TIP3   OH213157   5.112   1.666   5.869
 4398TIP3    H113158   5.041   1.635   5.813
 4398TIP3    H213159   5.188   1.671   5.812
 4399TIP3   OH213160   5.823   5.237   5.593
 4399TIP3    H113161   5.906   5.231   5.545
 4399TIP3    H213162   5.759   5.263   5.526
 4400TIP3   OH213163   2.720   3.687   5.047
 4400TIP3    H113164   2.789   3.716   5.108
 4400TIP3    H213165   2.766   3.633   4.983
 4401TIP3   OH213166   6.368   2.985   1.257
 4401TIP3    H113167   6.273   2.990   1.247
 4401TIP3    H213168   6.392   3.065   1.303
 4402TIP3   OH213169   0.247   0.671   4.086
 4402TIP3    H113170   0.332   0.636   4.115
 4402TIP3    H213171   0.194   0.675   4.166
 4403TIP3   OH213172   6.656   1.661   0.251
 4403TIP3    H113173   6.658   1.717   0.328
 4403TIP3    H213174   6.715   1.705   0.188
 4404TIP3   OH213175   2.821   0.596   1.488
 4404TIP3    H113176   2.826   0.501   1.495
 4404TIP3    H213177   2.887   0.628   1.550
 4405TIP3   OH213178   3.835   2.265   4.419
 4405TIP3    H113179   3.843   2.216   4.337
 4405TIP3    H213180   3.890   2.343   4.405
 4406TIP3   OH213181   2.853   6.070   1.945
 4406TIP3    H113182   2.846   6.016   2.023
 4406TIP3    H213183   2.811   6.019   1.876
 4407TIP3   OH213184   5.895   1.959   1.516
 4407TIP3    H113185   5.964   1.957   1.449
 4407TIP3    H213186   5.891   1.869   1.550
 4408TIP3   OH213187   6.274   3.952   3.317
 4408TIP3    H113188   6.306   3.958   3.227
 4408TIP3    H213189   6.186   3.989   3.313
 4409TIP3   OH213190   0.306   1.301   4.198
 4409TIP3    H113191   0.398   1.285   4.179
 4409TIP3    H213192   0.261   1.286   4.115
 4410TIP3   OH213193   3.625   3.572   0.435
 4410TIP3    H113194   3.689   3.623   0.485
 4410TIP3    H213195   3.596   3.631   0.365
 4411TIP3   OH213196   0.920   5.951   2.465
 4411TIP3    H113197   0.989   5.943   2.399
 4411TIP3    H213198   0.959   6.005   2.534
 4412TIP3   OH213199   1.874   0.885   1.392
 4412TIP3    H113200   1.797   0.931   1.357
 4412TIP3    H213201   1.920   0.853   1.314
 4413TIP3   OH213202   4.219   1.719   2.212
 4413TIP3    H113203   4.226   1.632   2.173
 4413TIP3    H213204   4.285   1.772   2.167
 4414TIP3   OH213205   1.482   5.251   1.708
 4414TIP3    H113206   1.402   5.265   1.657
 4414TIP3    H213207   1.454   5.199   1.783
 4415TIP3   OH213208   6.003   5.002   3.916
 4415TIP3    H113209   6.057   4.925   3.931
 4415TIP3    H213210   6.016   5.056   3.995
 4416TIP3   OH213211   6.801   1.049   5.898
 4416TIP3    H113212   6.883   1.094   5.920
 4416TIP3    H213213   6.828   0.981   5.836
 4417TIP3   OH213214   6.610   4.138   0.349
 4417TIP3    H113215   6.607   4.221   0.301
 4417TIP3    H213216   6.647   4.160   0.434
 4418TIP3   OH213217   5.656   3.056   2.468
 4418TIP3    H113218   5.596   3.045   2.395
 4418TIP3    H213219   5.601   3.049   2.546
 4419TIP3   OH213220   1.399   5.019   2.269
 4419TIP3    H113221   1.471   4.956   2.256
 4419TIP3    H213222   1.321   4.964   2.275
 4420TIP3   OH213223   0.065   5.899   0.665
 4420TIP3    H113224   0.009   5.943   0.729
 4420TIP3    H213225   0.014   5.897   0.585
 4421TIP3   OH213226   3.795   5.414   1.075
 4421TIP3    H113227   3.863   5.347   1.088
 4421TIP3    H213228   3.713   5.364   1.077
 4422TIP3   OH213229   0.547   5.747   0.580
 4422TIP3    H113230   0.613   5.812   0.553
 4422TIP3    H213231   0.477   5.799   0.619
 4423TIP3   OH213232   5.300   4.731   4.777
 4423TIP3    H113233   5.226   4.762   4.828
 4423TIP3    H213234   5.356   4.808   4.767
 4424TIP3   OH213235   1.295   6.171  -0.037
 4424TIP3    H113236   1.362   6.205  -0.097
 4424TIP3    H213237   1.344   6.138   0.038
 4425TIP3   OH213238   2.007   0.289   2.631
 4425TIP3    H113239   2.093   0.269   2.594
 4425TIP3    H213240   2.011   0.258   2.722
 4426TIP3   OH213241   3.225   2.735   0.273
 4426TIP3    H113242   3.277   2.679   0.330
 4426TIP3    H213243   3.155   2.678   0.240
 4427TIP3   OH213244   1.399   0.364   4.511
 4427TIP3    H113245   1.410   0.269   4.504
 4427TIP3    H213246   1.485   0.396   4.540
 4428TIP3   OH213247   0.166   5.228   2.507
 4428TIP3    H113248   0.086   5.184   2.535
 4428TIP3    H213249   0.200   5.269   2.587
 4429TIP3   OH213250   3.848   0.523   0.159
 4429TIP3    H113251   3.943   0.513   0.164
 4429TIP3    H213252   3.814   0.433   0.162
 4430TIP3   OH213253   1.530   5.858   4.527
 4430TIP3    H113254   1.531   5.799   4.602
 4430TIP3    H213255   1.620   5.886   4.517
 4431TIP3   OH213256   3.361   2.979   0.368
 4431TIP3    H113257   3.304   3.029   0.426
 4431TIP3    H213258   3.310   2.903   0.342
 4432TIP3   OH213259   4.216   0.296   4.205
 4432TIP3    H113260   4.183   0.283   4.294
 4432TIP3    H213261   4.165   0.235   4.152
 4433TIP3   OH213262   5.024   2.291   0.834
 4433TIP3    H113263   5.076   2.216   0.805
 4433TIP3    H213264   4.936   2.254   0.847
 4434TIP3   OH213265   4.435   3.455   5.283
 4434TIP3    H113266   4.365   3.480   5.223
 4434TIP3    H213267   4.507   3.426   5.226
 4435TIP3   OH213268   2.108   1.238   4.326
 4435TIP3    H113269   2.138   1.228   4.417
 4435TIP3    H213270   2.187   1.229   4.273
 4436TIP3   OH213271   0.622   6.613   5.337
 4436TIP3    H113272   0.647   6.691   5.288
 4436TIP3    H213273   0.653   6.629   5.426
 4437TIP3   OH213274   3.341   2.489   2.963
 4437TIP3    H113275   3.414   2.503   2.903
 4437TIP3    H213276   3.301   2.575   2.974
 4438TIP3   OH213277   6.697   3.645   1.674
 4438TIP3    H113278   6.780   3.635   1.720
 4438TIP3    H213279   6.675   3.557   1.644
 4439TIP3   OH213280   3.499   4.903   2.702
 4439TIP3    H113281   3.509   4.841   2.773
 4439TIP3    H213282   3.489   4.988   2.745
 4440TIP3   OH213283   2.354   6.194   2.968
 4440TIP3    H113284   2.274   6.245   2.957
 4440TIP3    H213285   2.324   6.108   3.000
 4441TIP3   OH213286   3.883   4.286   5.054
 4441TIP3    H113287   3.806   4.250   5.010
 4441TIP3    H213288   3.939   4.318   4.984
 4442TIP3   OH213289   5.950   4.676   2.147
 4442TIP3    H113290   6.044   4.674   2.165
 4442TIP3    H213291   5.909   4.687   2.232
 4443TIP3   OH213292   4.321   0.296   1.757
 4443TIP3    H113293   4.329   0.384   1.722
 4443TIP3    H213294   4.245   0.299   1.814
 4444TIP3   OH213295   3.962   5.359   5.825
 4444TIP3    H113296   3.870   5.369   5.850
 4444TIP3    H213297   3.973   5.265   5.811
 4445TIP3   OH213298   6.581   4.164   5.555
 4445TIP3    H113299   6.529   4.223   5.609
 4445TIP3    H213300   6.669   4.168   5.594
 4446TIP3   OH213301   3.819   2.949   0.457
 4446TIP3    H113302   3.883   2.971   0.524
 4446TIP3    H213303   3.735   2.952   0.502
 4447TIP3   OH213304   3.208   2.618   3.756
 4447TIP3    H113305   3.269   2.631   3.683
 4447TIP3    H213306   3.171   2.531   3.742
 4448TIP3   OH213307   2.961   5.721   0.285
 4448TIP3    H113308   2.986   5.759   0.370
 4448TIP3    H213309   3.033   5.663   0.263
 4449TIP3   OH213310   1.719   5.316   2.917
 4449TIP3    H113311   1.730   5.240   2.859
 4449TIP3    H213312   1.650   5.290   2.977
 4450TIP3   OH213313   3.441   1.294   4.523
 4450TIP3    H113314   3.402   1.260   4.443
 4450TIP3    H213315   3.440   1.389   4.511
 4451TIP3   OH213316   5.307   1.633   1.425
 4451TIP3    H113317   5.284   1.614   1.333
 4451TIP3    H213318   5.232   1.600   1.475
 4452TIP3   OH213319   5.153   5.449   5.054
 4452TIP3    H113320   5.108   5.530   5.079
 4452TIP3    H213321   5.141   5.391   5.129
 4453TIP3   OH213322   6.035   3.435   3.728
 4453TIP3    H113323   6.080   3.491   3.792
 4453TIP3    H213324   5.976   3.381   3.780
 4454TIP3   OH213325   1.402   2.238   5.574
 4454TIP3    H113326   1.450   2.174   5.626
 4454TIP3    H213327   1.374   2.190   5.497
 4455TIP3   OH213328   2.658   5.364   2.244
 4455TIP3    H113329   2.613   5.327   2.168
 4455TIP3    H213330   2.748   5.334   2.235
 4456TIP3   OH213331   0.084   2.991   0.089
 4456TIP3    H113332   0.059   3.060   0.150
 4456TIP3    H213333   0.174   3.009   0.066
 4457TIP3   OH213334   0.371   6.369   2.029
 4457TIP3    H113335   0.337   6.292   1.984
 4457TIP3    H213336   0.293   6.419   2.054
 4458TIP3   OH213337   6.082   2.079   2.331
 4458TIP3    H113338   6.063   2.067   2.424
 4458TIP3    H213339   6.060   1.995   2.291
 4459TIP3   OH213340   0.290   0.718   3.572
 4459TIP3    H113341   0.356   0.762   3.519
 4459TIP3    H213342   0.315   0.737   3.662
 4460TIP3   OH213343   4.038   0.968   2.334
 4460TIP3    H113344   4.067   0.940   2.420
 4460TIP3    H213345   4.007   0.887   2.292
 4461TIP3   OH213346   4.737   6.391   0.291
 4461TIP3    H113347   4.726   6.457   0.359
 4461TIP3    H213348   4.792   6.324   0.331
 4462TIP3   OH213349   5.509   5.597   0.980
 4462TIP3    H113350   5.456   5.607   1.059
 4462TIP3    H213351   5.460   5.645   0.913
 4463TIP3   OH213352   3.573   1.661   0.086
 4463TIP3    H113353   3.491   1.664   0.038
 4463TIP3    H213354   3.563   1.587   0.146
 4464TIP3   OH213355   3.470   6.255   2.374
 4464TIP3    H113356   3.531   6.278   2.444
 4464TIP3    H213357   3.438   6.168   2.397
 4465TIP3   OH213358   1.805   2.595   5.049
 4465TIP3    H113359   1.730   2.636   5.005
 4465TIP3    H213360   1.792   2.501   5.036
 4466TIP3   OH213361   1.751   4.602   0.169
 4466TIP3    H113362   1.835   4.624   0.129
 4466TIP3    H213363   1.700   4.682   0.164
 4467TIP3   OH213364   1.069   3.708   0.087
 4467TIP3    H113365   1.023   3.632   0.051
 4467TIP3    H213366   1.104   3.753   0.010
 4468TIP3   OH213367   3.714   1.165   2.907
 4468TIP3    H113368   3.714   1.110   2.828
 4468TIP3    H213369   3.793   1.137   2.955
 4469TIP3   OH213370   4.905   1.329   0.745
 4469TIP3    H113371   4.891   1.237   0.724
 4469TIP3    H213372   5.000   1.340   0.750
 4470TIP3   OH213373   1.515   5.901   0.328
 4470TIP3    H113374   1.572   5.843   0.278
 4470TIP3    H213375   1.435   5.850   0.343
 4471TIP3   OH213376   2.687   4.079   4.993
 4471TIP3    H113377   2.675   3.998   5.043
 4471TIP3    H213378   2.674   4.054   4.902
 4472TIP3   OH213379   3.367   1.692   4.941
 4472TIP3    H113380   3.289   1.673   4.889
 4472TIP3    H213381   3.400   1.606   4.967
 4473TIP3   OH213382   5.601   6.668   2.146
 4473TIP3    H113383   5.646   6.717   2.077
 4473TIP3    H213384   5.593   6.731   2.218
 4474TIP3   OH213385   7.021   4.721   2.508
 4474TIP3    H113386   7.079   4.645   2.502
 4474TIP3    H213387   6.953   4.695   2.571
 4475TIP3   OH213388   6.235   1.139   0.937
 4475TIP3    H113389   6.263   1.051   0.964
 4475TIP3    H213390   6.312   1.194   0.953
 4476TIP3   OH213391   5.566   1.720   2.177
 4476TIP3    H113392   5.602   1.706   2.265
 4476TIP3    H213393   5.583   1.637   2.131
 4477TIP3   OH213394   6.790   0.519   3.064
 4477TIP3    H113395   6.845   0.443   3.084
 4477TIP3    H213396   6.773   0.511   2.970
 4478TIP3   OH213397   2.306   3.493   3.368
 4478TIP3    H113398   2.254   3.566   3.333
 4478TIP3    H213399   2.299   3.503   3.463
 4479TIP3   OH213400   1.388   3.090   3.787
 4479TIP3    H113401   1.481   3.070   3.771
 4479TIP3    H213402   1.343   3.008   3.767
 4480TIP3   OH213403   4.030   3.551   2.264
 4480TIP3    H113404   4.019   3.611   2.190
 4480TIP3    H213405   4.026   3.464   2.224
 4481TIP3   OH213406   0.074   1.614   4.077
 4481TIP3    H113407   0.106   1.585   3.992
 4481TIP3    H213408   0.149   1.607   4.135
 4482TIP3   OH213409   5.595   5.606   5.739
 4482TIP3    H113410   5.665   5.655   5.696
 4482TIP3    H213411   5.521   5.612   5.678
 4483TIP3   OH213412   4.226   3.342   1.347
 4483TIP3    H113413   4.141   3.344   1.303
 4483TIP3    H213414   4.274   3.416   1.310
 4484TIP3   OH213415   1.673   1.752   0.388
 4484TIP3    H113416   1.601   1.698   0.355
 4484TIP3    H213417   1.685   1.819   0.321
 4485TIP3   OH213418   5.476   4.717   5.494
 4485TIP3    H113419   5.528   4.659   5.550
 4485TIP3    H213420   5.520   4.802   5.501
 4486TIP3   OH213421   1.318   1.037   0.811
 4486TIP3    H113422   1.237   1.035   0.761
 4486TIP3    H213423   1.372   0.969   0.770
 4487TIP3   OH213424   3.559   6.060   3.774
 4487TIP3    H113425   3.561   6.081   3.868
 4487TIP3    H213426   3.593   6.139   3.732
 4488TIP3   OH213427   4.947   6.269   5.422
 4488TIP3    H113428   4.961   6.174   5.429
 4488TIP3    H213429   4.866   6.278   5.372
 4489TIP3   OH213430   4.650   1.771   1.915
 4489TIP3    H113431   4.732   1.730   1.942
 4489TIP3    H213432   4.675   1.858   1.885
 4490TIP3   OH213433   4.601   1.558   2.972
 4490TIP3    H113434   4.520   1.515   2.945
 4490TIP3    H213435   4.613   1.629   2.910
 4491TIP3   OH213436   0.098   0.132   0.209
 4491TIP3    H113437   0.165   0.181   0.257
 4491TIP3    H213438   0.031   0.197   0.188
 4492TIP3   OH213439   0.419   5.518   2.919
 4492TIP3    H113440   0.472   5.597   2.929
 4492TIP3    H213441   0.458   5.456   2.981
 4493TIP3   OH213442   1.499   5.498   2.386
 4493TIP3    H113443   1.540   5.515   2.471
 4493TIP3    H213444   1.474   5.406   2.389
 4494TIP3   OH213445   5.303   6.020   0.111
 4494TIP3    H113446   5.342   5.933   0.103
 4494TIP3    H213447   5.357   6.065   0.176
 4495TIP3   OH213448   2.763   3.912   3.901
 4495TIP3    H113449   2.798   3.911   3.811
 4495TIP3    H213450   2.835   3.881   3.955
 4496TIP3   OH213451   2.507   6.477   4.150
 4496TIP3    H113452   2.424   6.512   4.182
 4496TIP3    H213453   2.528   6.531   4.074
 4497TIP3   OH213454   4.390   4.854   2.598
 4497TIP3    H113455   4.360   4.893   2.680
 4497TIP3    H213456   4.309   4.831   2.551
 4498TIP3   OH213457   3.780   2.042   2.909
 4498TIP3    H113458   3.820   2.067   2.826
 4498TIP3    H213459   3.841   2.075   2.976
 4499TIP3   OH213460   0.877   4.438   4.359
 4499TIP3    H113461   0.940   4.371   4.333
 4499TIP3    H213462   0.928   4.519   4.361
 4500TIP3   OH213463   3.259   0.832   2.959
 4500TIP3    H113464   3.283   0.760   2.900
 4500TIP3    H213465   3.164   0.826   2.966
 4501TIP3   OH213466   3.008   2.755   3.551
 4501TIP3    H113467   2.925   2.708   3.548
 4501TIP3    H213468   3.058   2.709   3.619
 4502TIP3   OH213469   3.035   5.596   4.993
 4502TIP3    H113470   3.056   5.589   4.900
 4502TIP3    H213471   2.981   5.519   5.011
 4503TIP3   OH213472   5.248   6.523   0.633
 4503TIP3    H113473   5.167   6.568   0.657
 4503TIP3    H213474   5.272   6.474   0.711
 4504TIP3   OH213475   2.393   1.125   0.371
 4504TIP3    H113476   2.355   1.086   0.292
 4504TIP3    H213477   2.320   1.128   0.433
 4505TIP3   OH213478   2.813   4.286  -0.073
 4505TIP3    H113479   2.783   4.292   0.018
 4505TIP3    H213480   2.760   4.350  -0.120
 4506TIP3   OH213481   4.703   5.711   2.491
 4506TIP3    H113482   4.655   5.774   2.544
 4506TIP3    H213483   4.795   5.736   2.501
 4507TIP3   OH213484   6.074   4.066   1.430
 4507TIP3    H113485   6.109   4.093   1.345
 4507TIP3    H213486   6.025   3.986   1.411
 4508TIP3   OH213487   5.663   6.090   1.196
 4508TIP3    H113488   5.692   6.112   1.107
 4508TIP3    H213489   5.743   6.091   1.248
 4509TIP3   OH213490   2.315   3.198   0.655
 4509TIP3    H113491   2.253   3.161   0.718
 4509TIP3    H213492   2.381   3.129   0.645
 4510TIP3   OH213493   1.051   3.987   2.314
 4510TIP3    H113494   0.983   3.982   2.381
 4510TIP3    H213495   1.003   4.006   2.233
 4511TIP3   OH213496   3.917   6.588   3.708
 4511TIP3    H113497   3.895   6.534   3.632
 4511TIP3    H213498   3.933   6.675   3.672
 4512TIP3   OH213499   3.788   5.106   2.157
 4512TIP3    H113500   3.749   5.064   2.080
 4512TIP3    H213501   3.870   5.059   2.170
 4513TIP3   OH213502   4.119   0.589   5.884
 4513TIP3    H113503   4.159   0.565   5.800
 4513TIP3    H213504   4.135   0.514   5.941
 4514TIP3   OH213505   2.555   2.996   4.395
 4514TIP3    H113506   2.592   2.939   4.462
 4514TIP3    H213507   2.463   2.970   4.390
 4515TIP3   OH213508   0.186   2.861   0.614
 4515TIP3    H113509   0.185   2.809   0.534
 4515TIP3    H213510   0.094   2.880   0.632
 4516TIP3   OH213511   1.406   0.705   0.929
 4516TIP3    H113512   1.390   0.763   0.855
 4516TIP3    H213513   1.428   0.620   0.890
 4517TIP3   OH213514   2.929   4.411   3.607
 4517TIP3    H113515   2.849   4.462   3.617
 4517TIP3    H213516   2.976   4.425   3.690
 4518TIP3   OH213517   6.008   0.472   1.608
 4518TIP3    H113518   6.048   0.437   1.528
 4518TIP3    H213519   6.059   0.435   1.679
 4519TIP3   OH213520   3.796   3.469   2.704
 4519TIP3    H113521   3.842   3.524   2.641
 4519TIP3    H213522   3.775   3.527   2.777
 4520TIP3   OH213523   5.493   2.902   5.735
 4520TIP3    H113524   5.549   2.972   5.700
 4520TIP3    H213525   5.531   2.881   5.820
 4521TIP3   OH213526   3.299   4.288   2.660
 4521TIP3    H113527   3.384   4.328   2.644
 4521TIP3    H213528   3.304   4.253   2.749
 4522TIP3   OH213529   2.174   3.970   2.676
 4522TIP3    H113530   2.257   3.930   2.648
 4522TIP3    H213531   2.193   4.005   2.763
 4523TIP3   OH213532   2.188   3.962   0.260
 4523TIP3    H113533   2.222   3.899   0.324
 4523TIP3    H213534   2.123   4.013   0.308
 4524TIP3   OH213535   4.710   1.460   3.690
 4524TIP3    H113536   4.750   1.441   3.775
 4524TIP3    H213537   4.778   1.437   3.626
 4525TIP3   OH213538   3.586   5.241   1.634
 4525TIP3    H113539   3.647   5.240   1.707
 4525TIP3    H213540   3.614   5.168   1.578
 4526TIP3   OH213541   4.140   0.592   2.795
 4526TIP3    H113542   4.050   0.619   2.813
 4526TIP3    H213543   4.190   0.673   2.796
 4527TIP3   OH213544   3.174   3.337   2.703
 4527TIP3    H113545   3.134   3.250   2.691
 4527TIP3    H213546   3.101   3.398   2.696
 4528TIP3   OH213547   4.839   5.173   3.570
 4528TIP3    H113548   4.896   5.131   3.635
 4528TIP3    H213549   4.898   5.194   3.497
 4529TIP3   OH213550   5.358   1.301   0.003
 4529TIP3    H113551   5.348   1.282  -0.090
 4529TIP3    H213552   5.428   1.243   0.032
 4530TIP3   OH213553   3.283   5.182   4.094
 4530TIP3    H113554   3.362   5.217   4.136
 4530TIP3    H213555   3.301   5.188   4.000
 4531TIP3   OH213556   1.175   2.431   5.384
 4531TIP3    H113557   1.270   2.437   5.394
 4531TIP3    H213558   1.159   2.342   5.354
 4532TIP3   OH213559   1.900   4.647   2.938
 4532TIP3    H113560   1.950   4.695   3.004
 4532TIP3    H213561   1.928   4.685   2.855
 4533TIP3   OH213562   5.305   4.009   1.345
 4533TIP3    H113563   5.236   3.955   1.307
 4533TIP3    H213564   5.352   4.044   1.269
 4534TIP3   OH213565   1.294   3.752   1.654
 4534TIP3    H113566   1.204   3.731   1.678
 4534TIP3    H213567   1.301   3.846   1.667
 4535TIP3   OH213568   0.974   3.103   5.294
 4535TIP3    H113569   1.000   3.195   5.298
 4535TIP3    H213570   1.040   3.058   5.347
 4536TIP3   OH213571   3.671   4.440   3.065
 4536TIP3    H113572   3.625   4.512   3.109
 4536TIP3    H213573   3.743   4.482   3.018
 4537TIP3   OH213574   7.173   5.045   3.127
 4537TIP3    H113575   7.245   5.065   3.068
 4537TIP3    H213576   7.116   5.122   3.122
 4538TIP3   OH213577   3.749   5.372   2.883
 4538TIP3    H113578   3.746   5.295   2.940
 4538TIP3    H213579   3.708   5.441   2.935
 4539TIP3   OH213580   6.258   2.594   5.625
 4539TIP3    H113581   6.317   2.606   5.550
 4539TIP3    H213582   6.194   2.530   5.595
 4540TIP3   OH213583   1.126   0.979   5.898
 4540TIP3    H113584   1.132   0.884   5.901
 4540TIP3    H213585   1.097   0.999   5.809
 4541TIP3   OH213586   2.741   1.697   5.733
 4541TIP3    H113587   2.724   1.757   5.661
 4541TIP3    H213588   2.706   1.742   5.810
 4542TIP3   OH213589   6.820   5.099   1.579
 4542TIP3    H113590   6.788   5.168   1.521
 4542TIP3    H213591   6.762   5.025   1.563
 4543TIP3   OH213592   5.387   1.187   4.860
 4543TIP3    H113593   5.390   1.229   4.774
 4543TIP3    H213594   5.467   1.217   4.904
 4544TIP3   OH213595   4.950   3.623   4.317
 4544TIP3    H113596   4.924   3.535   4.290
 4544TIP3    H213597   4.914   3.633   4.405
 4545TIP3   OH213598   2.169   1.682   4.090
 4545TIP3    H113599   2.082   1.651   4.112
 4545TIP3    H213600   2.218   1.603   4.066
 4546TIP3   OH213601   6.580   2.180   4.904
 4546TIP3    H113602   6.599   2.149   4.993
 4546TIP3    H213603   6.665   2.207   4.870
 4547TIP3   OH213604   2.699   2.717   1.850
 4547TIP3    H113605   2.787   2.756   1.851
 4547TIP3    H213606   2.710   2.633   1.895
 4548TIP3   OH213607   5.956   6.544   0.078
 4548TIP3    H113608   5.953   6.546   0.173
 4548TIP3    H213609   5.891   6.610   0.051
 4549TIP3   OH213610   4.288   6.081   3.166
 4549TIP3    H113611   4.374   6.120   3.151
 4549TIP3    H213612   4.292   6.047   3.255
 4550TIP3   OH213613   6.986   1.316   0.288
 4550TIP3    H113614   6.895   1.342   0.276
 4550TIP3    H213615   7.008   1.266   0.209
 4551TIP3   OH213616   1.346   3.239   5.861
 4551TIP3    H113617   1.336   3.280   5.948
 4551TIP3    H213618   1.337   3.145   5.878
 4552TIP3   OH213619   2.207   6.070   5.809
 4552TIP3    H113620   2.253   6.077   5.725
 4552TIP3    H213621   2.275   6.089   5.875
 4553TIP3   OH213622   2.475   2.911   5.111
 4553TIP3    H113623   2.429   2.838   5.153
 4553TIP3    H213624   2.546   2.869   5.063
 4554TIP3   OH213625   4.608   3.814   2.030
 4554TIP3    H113626   4.701   3.833   2.048
 4554TIP3    H213627   4.610   3.740   1.969
 4555TIP3   OH213628   4.741   5.718   2.776
 4555TIP3    H113629   4.818   5.767   2.805
 4555TIP3    H213630   4.666   5.773   2.801
 4556TIP3   OH213631   4.177   0.563   2.226
 4556TIP3    H113632   4.217   0.556   2.313
 4556TIP3    H213633   4.217   0.493   2.175
 4557TIP3   OH213634   4.110   6.212   0.304
 4557TIP3    H113635   4.154   6.283   0.257
 4557TIP3    H213636   4.054   6.257   0.367
 4558TIP3   OH213637   2.826   6.670   0.246
 4558TIP3    H113638   2.844   6.647   0.337
 4558TIP3    H213639   2.908   6.652   0.200
 4559TIP3   OH213640   5.929   0.169   5.379
 4559TIP3    H113641   5.972   0.107   5.320
 4559TIP3    H213642   5.960   0.145   5.467
 4560TIP3   OH213643   5.869   6.516   5.471
 4560TIP3    H113644   5.942   6.455   5.463
 4560TIP3    H213645   5.893   6.591   5.416
 4561TIP3   OH213646   6.664   3.840   2.967
 4561TIP3    H113647   6.685   3.786   2.891
 4561TIP3    H213648   6.731   3.818   3.031
 4562TIP3   OH213649   5.888   2.718   5.086
 4562TIP3    H113650   5.953   2.764   5.033
 4562TIP3    H213651   5.930   2.708   5.172
 4563TIP3   OH213652   4.228   2.849   3.293
 4563TIP3    H113653   4.274   2.868   3.375
 4563TIP3    H213654   4.150   2.904   3.296
 4564TIP3   OH213655   1.009   5.143   0.707
 4564TIP3    H113656   0.994   5.238   0.711
 4564TIP3    H213657   0.976   5.117   0.621
 4565TIP3   OH213658   5.577   6.731   1.748
 4565TIP3    H113659   5.611   6.718   1.659
 4565TIP3    H213660   5.482   6.740   1.737
 4566TIP3   OH213661   2.895   5.664   1.510
 4566TIP3    H113662   2.985   5.690   1.528
 4566TIP3    H213663   2.859   5.639   1.595
 4567TIP3   OH213664   1.312   6.228   4.709
 4567TIP3    H113665   1.275   6.315   4.726
 4567TIP3    H213666   1.389   6.223   4.765
 4568TIP3   OH213667   0.847   2.254   2.012
 4568TIP3    H113668   0.843   2.254   2.108
 4568TIP3    H213669   0.941   2.255   1.993
 4569TIP3   OH213670   6.833   5.362   5.041
 4569TIP3    H113671   6.790   5.436   4.999
 4569TIP3    H213672   6.913   5.350   4.990
 4570TIP3   OH213673   6.618   2.400   5.324
 4570TIP3    H113674   6.664   2.316   5.331
 4570TIP3    H213675   6.635   2.429   5.235
 4571TIP3   OH213676   1.218   4.324   1.904
 4571TIP3    H113677   1.236   4.231   1.893
 4571TIP3    H213678   1.142   4.341   1.848
 4572TIP3   OH213679   1.370   3.072   5.341
 4572TIP3    H113680   1.438   3.122   5.297
 4572TIP3    H213681   1.360   2.993   5.287
 4573TIP3   OH213682   5.680   0.124   2.537
 4573TIP3    H113683   5.711   0.054   2.479
 4573TIP3    H213684   5.666   0.080   2.621
 4574TIP3   OH213685   4.983   6.339   4.073
 4574TIP3    H113686   4.894   6.355   4.041
 4574TIP3    H213687   4.981   6.248   4.103
 4575TIP3   OH213688   0.349   4.281   3.484
 4575TIP3    H113689   0.254   4.266   3.482
 4575TIP3    H213690   0.359   4.362   3.534
 4576TIP3   OH213691   0.442   4.826   2.130
 4576TIP3    H113692   0.445   4.918   2.156
 4576TIP3    H213693   0.530   4.808   2.096
 4577TIP3   OH213694   6.156   0.170   1.680
 4577TIP3    H113695   6.061   0.171   1.697
 4577TIP3    H213696   6.187   0.255   1.712
 4578TIP3   OH213697   6.723   3.467   5.126
 4578TIP3    H113698   6.738   3.374   5.142
 4578TIP3    H213699   6.789   3.512   5.178
 4579TIP3   OH213700   6.205   3.092   1.685
 4579TIP3    H113701   6.130   3.131   1.641
 4579TIP3    H213702   6.204   3.000   1.658
 4580TIP3   OH213703   4.886   4.434   1.551
 4580TIP3    H113704   4.880   4.408   1.643
 4580TIP3    H213705   4.939   4.513   1.551
 4581TIP3   OH213706   5.935   2.674   1.854
 4581TIP3    H113707   5.967   2.717   1.775
 4581TIP3    H213708   5.919   2.584   1.827
 4582TIP3   OH213709   7.091   0.082   1.686
 4582TIP3    H113710   7.153   0.111   1.754
 4582TIP3    H213711   7.099  -0.013   1.686
 4583TIP3   OH213712   1.021   2.707   1.033
 4583TIP3    H113713   0.957   2.659   1.087
 4583TIP3    H213714   1.106   2.688   1.073
 4584TIP3   OH213715   0.355   5.557   1.149
 4584TIP3    H113716   0.301   5.479   1.149
 4584TIP3    H213717   0.380   5.570   1.057
 4585TIP3   OH213718   0.268   4.637   0.658
 4585TIP3    H113719   0.191   4.582   0.643
 4585TIP3    H213720   0.242   4.696   0.729
 4586TIP3   OH213721   5.889   0.747   5.165
 4586TIP3    H113722   5.803   0.776   5.196
 4586TIP3    H213723   5.948   0.819   5.188
 4587TIP3   OH213724   3.400   4.981   0.614
 4587TIP3    H113725   3.406   5.039   0.538
 4587TIP3    H213726   3.430   4.896   0.582
 4588TIP3   OH213727   2.781   5.027   1.959
 4588TIP3    H113728   2.794   4.977   1.878
 4588TIP3    H213729   2.836   4.981   2.023
 4589TIP3   OH213730   6.227   1.515   1.544
 4589TIP3    H113731   6.260   1.582   1.605
 4589TIP3    H213732   6.291   1.444   1.550
 4590TIP3   OH213733   3.373   1.129   2.611
 4590TIP3    H113734   3.429   1.197   2.573
 4590TIP3    H213735   3.289   1.139   2.566
 4591TIP3   OH213736   2.085   1.164   1.856
 4591TIP3    H113737   1.994   1.185   1.879
 4591TIP3    H213738   2.137   1.207   1.924
 4592TIP3   OH213739   5.476   2.619   2.699
 4592TIP3    H113740   5.560   2.650   2.665
 4592TIP3    H213741   5.416   2.625   2.624
 4593TIP3   OH213742   4.236   6.491   3.389
 4593TIP3    H113743   4.172   6.560   3.402
 4593TIP3    H213744   4.191   6.427   3.332
 4594TIP3   OH213745   1.678   5.146   2.568
 4594TIP3    H113746   1.652   5.098   2.647
 4594TIP3    H213747   1.765   5.112   2.547
 4595TIP3   OH213748   0.806   0.761   4.016
 4595TIP3    H113749   0.720   0.790   4.049
 4595TIP3    H213750   0.848   0.842   3.987
 4596TIP3   OH213751   5.184   2.175   5.819
 4596TIP3    H113752   5.274   2.141   5.822
 4596TIP3    H213753   5.131   2.104   5.857
 4597TIP3   OH213754   3.030   3.703   0.538
 4597TIP3    H113755   2.994   3.725   0.623
 4597TIP3    H213756   3.061   3.613   0.546
 4598TIP3   OH213757   2.234   4.769   0.680
 4598TIP3    H113758   2.165   4.762   0.615
 4598TIP3    H213759   2.194   4.816   0.753
 4599TIP3   OH213760   3.641   6.532   0.518
 4599TIP3    H113761   3.643   6.557   0.611
 4599TIP3    H213762   3.549   6.512   0.500
 4600TIP3   OH213763   2.959   6.492   4.374
 4600TIP3    H113764   3.001   6.429   4.315
 4600TIP3    H213765   2.869   6.499   4.342
 4601TIP3   OH213766   1.525   0.769   3.043
 4601TIP3    H113767   1.564   0.809   3.121
 4601TIP3    H213768   1.432   0.761   3.065
 4602TIP3   OH213769   2.721   4.665   1.061
 4602TIP3    H113770   2.636   4.699   1.088
 4602TIP3    H213771   2.714   4.570   1.071
 4603TIP3   OH213772   0.191   3.230   5.262
 4603TIP3    H113773   0.243   3.301   5.301
 4603TIP3    H213774   0.149   3.271   5.186
 4604TIP3   OH213775   1.536   4.480   2.590
 4604TIP3    H113776   1.589   4.501   2.513
 4604TIP3    H213777   1.568   4.540   2.658
 4605TIP3   OH213778   5.531   4.162   0.099
 4605TIP3    H113779   5.619   4.172   0.135
 4605TIP3    H213780   5.513   4.245   0.056
 4606TIP3   OH213781   1.010   2.616   3.817
 4606TIP3    H113782   1.034   2.696   3.771
 4606TIP3    H213783   0.928   2.589   3.776
 4607TIP3   OH213784   3.810   5.414   3.859
 4607TIP3    H113785   3.899   5.447   3.864
 4607TIP3    H213786   3.763   5.460   3.929
 4608TIP3   OH213787   2.780   3.181   2.457
 4608TIP3    H113788   2.728   3.104   2.481
 4608TIP3    H213789   2.869   3.161   2.488
 4609TIP3   OH213790   6.695   4.835   4.013
 4609TIP3    H113791   6.713   4.914   4.065
 4609TIP3    H213792   6.761   4.837   3.944
 4610TIP3   OH213793   4.167   5.400   5.555
 4610TIP3    H113794   4.249   5.368   5.516
 4610TIP3    H213795   4.098   5.356   5.505
 4611TIP3   OH213796   3.075   5.137   3.217
 4611TIP3    H113797   3.148   5.172   3.268
 4611TIP3    H213798   3.030   5.077   3.277
 4612TIP3   OH213799   5.399   6.144   3.874
 4612TIP3    H113800   5.319   6.107   3.911
 4612TIP3    H213801   5.447   6.178   3.950
 4613TIP3   OH213802   1.096   2.146   4.277
 4613TIP3    H113803   1.046   2.145   4.359
 4613TIP3    H213804   1.064   2.224   4.231
 4614TIP3   OH213805   0.664   5.379   2.299
 4614TIP3    H113806   0.586   5.433   2.314
 4614TIP3    H213807   0.673   5.375   2.204
 4615TIP3   OH213808   0.758   4.306   3.721
 4615TIP3    H113809   0.847   4.273   3.732
 4615TIP3    H213810   0.705   4.252   3.780
 4616TIP3   OH213811   6.379   2.571   2.351
 4616TIP3    H113812   6.374   2.490   2.401
 4616TIP3    H213813   6.338   2.636   2.408
 4617TIP3   OH213814   7.221   4.612   2.754
 4617TIP3    H113815   7.247   4.635   2.843
 4617TIP3    H213816   7.131   4.644   2.746
 4618TIP3   OH213817   7.001   5.570   0.896
 4618TIP3    H113818   7.088   5.608   0.910
 4618TIP3    H213819   6.947   5.608   0.965
 4619TIP3   OH213820   1.976   1.580   1.648
 4619TIP3    H113821   1.954   1.547   1.561
 4619TIP3    H213822   2.059   1.538   1.669
 4620TIP3   OH213823   4.928   2.537   0.127
 4620TIP3    H113824   5.008   2.510   0.173
 4620TIP3    H213825   4.929   2.487   0.046
 4621TIP3   OH213826   2.641   3.093   2.779
 4621TIP3    H113827   2.566   3.060   2.730
 4621TIP3    H213828   2.683   3.015   2.815
 4622TIP3   OH213829   3.156   6.751   1.961
 4622TIP3    H113830   3.068   6.757   1.998
 4622TIP3    H213831   3.159   6.824   1.898
 4623TIP3   OH213832   2.408   2.387   2.930
 4623TIP3    H113833   2.467   2.384   2.855
 4623TIP3    H213834   2.321   2.395   2.893
 4624TIP3   OH213835   2.687   1.571   4.162
 4624TIP3    H113836   2.613   1.626   4.188
 4624TIP3    H213837   2.652   1.482   4.161
 4625TIP3   OH213838   2.099   6.224   2.890
 4625TIP3    H113839   2.020   6.190   2.932
 4625TIP3    H213840   2.067   6.295   2.834
 4626TIP3   OH213841   2.478   0.376   3.086
 4626TIP3    H113842   2.465   0.424   3.005
 4626TIP3    H213843   2.518   0.440   3.146
 4627TIP3   OH213844   6.439   6.407   3.181
 4627TIP3    H113845   6.422   6.326   3.230
 4627TIP3    H213846   6.519   6.442   3.221
 4628TIP3   OH213847   0.868   6.382   0.922
 4628TIP3    H113848   0.887   6.290   0.936
 4628TIP3    H213849   0.863   6.419   1.011
 4629TIP3   OH213850   5.885   3.959   3.113
 4629TIP3    H113851   5.928   3.993   3.034
 4629TIP3    H213852   5.904   4.024   3.181
 4630TIP3   OH213853   6.332   3.650   0.021
 4630TIP3    H113854   6.292   3.662   0.108
 4630TIP3    H213855   6.296   3.722  -0.031
 4631TIP3   OH213856   7.007   0.922   3.168
 4631TIP3    H113857   7.001   0.923   3.072
 4631TIP3    H213858   6.940   0.983   3.197
 4632TIP3   OH213859   2.136   3.535   1.567
 4632TIP3    H113860   2.180   3.457   1.535
 4632TIP3    H213861   2.160   3.604   1.504
 4633TIP3   OH213862   0.916   6.336   3.653
 4633TIP3    H113863   0.869   6.400   3.599
 4633TIP3    H213864   0.859   6.259   3.653
 4634TIP3   OH213865   5.293   6.066   0.462
 4634TIP3    H113866   5.328   6.122   0.393
 4634TIP3    H213867   5.232   6.007   0.417
 4635TIP3   OH213868   4.093   1.959   3.678
 4635TIP3    H113869   4.038   2.034   3.655
 4635TIP3    H213870   4.112   1.917   3.594
 4636TIP3   OH213871   4.175   5.610   5.896
 4636TIP3    H113872   4.258   5.574   5.864
 4636TIP3    H213873   4.110   5.585   5.830
 4637TIP3   OH213874   2.873   6.634   5.062
 4637TIP3    H113875   2.835   6.679   4.986
 4637TIP3    H213876   2.924   6.702   5.107
 4638TIP3   OH213877   6.943   0.465   1.960
 4638TIP3    H113878   6.896   0.535   1.915
 4638TIP3    H213879   7.008   0.434   1.897
 4639TIP3   OH213880   6.106   3.960   5.417
 4639TIP3    H113881   6.056   4.040   5.402
 4639TIP3    H213882   6.086   3.904   5.342
 4640TIP3   OH213883   2.166   5.752   5.596
 4640TIP3    H113884   2.210   5.748   5.681
 4640TIP3    H213885   2.116   5.672   5.591
 4641TIP3   OH213886   3.605   3.783   3.338
 4641TIP3    H113887   3.579   3.705   3.290
 4641TIP3    H213888   3.670   3.825   3.282
 4642TIP3   OH213889   4.376   2.646   2.418
 4642TIP3    H113890   4.316   2.596   2.362
 4642TIP3    H213891   4.463   2.620   2.390
 4643TIP3   OH213892   5.541   6.087   4.371
 4643TIP3    H113893   5.587   6.020   4.422
 4643TIP3    H213894   5.542   6.165   4.427
 4644TIP3   OH213895   3.847   1.937   2.182
 4644TIP3    H113896   3.827   1.874   2.113
 4644TIP3    H213897   3.875   1.884   2.256
 4645TIP3   OH213898   3.433   4.727   0.960
 4645TIP3    H113899   3.497   4.765   1.021
 4645TIP3    H213900   3.486   4.690   0.890
 4646TIP3   OH213901   1.873   5.666   0.242
 4646TIP3    H113902   1.848   5.604   0.311
 4646TIP3    H213903   1.790   5.689   0.199
 4647TIP3   OH213904   0.976   0.143   2.421
 4647TIP3    H113905   0.921   0.066   2.435
 4647TIP3    H213906   0.924   0.216   2.454
 4648TIP3   OH213907   6.687   1.291   1.829
 4648TIP3    H113908   6.762   1.336   1.789
 4648TIP3    H213909   6.611   1.342   1.802
 4649TIP3   OH213910   2.511   0.909   2.452
 4649TIP3    H113911   2.568   0.933   2.525
 4649TIP3    H213912   2.440   0.973   2.455
 4650TIP3   OH213913   3.340   4.464   4.718
 4650TIP3    H113914   3.421   4.479   4.766
 4650TIP3    H213915   3.271   4.492   4.778
 4651TIP3   OH213916   4.701   2.893   2.687
 4651TIP3    H113917   4.608   2.892   2.667
 4651TIP3    H213918   4.705   2.880   2.782
 4652TIP3   OH213919   3.962   6.360   4.873
 4652TIP3    H113920   4.021   6.433   4.854
 4652TIP3    H213921   4.012   6.303   4.931
 4653TIP3   OH213922   0.576   4.675   1.793
 4653TIP3    H113923   0.491   4.633   1.808
 4653TIP3    H213924   0.557   4.745   1.730
 4654TIP3   OH213925   0.747   5.614   0.726
 4654TIP3    H113926   0.730   5.645   0.815
 4654TIP3    H213927   0.679   5.654   0.673
 4655TIP3   OH213928   5.196   3.162   2.612
 4655TIP3    H113929   5.218   3.217   2.688
 4655TIP3    H213930   5.274   3.166   2.556
 4656TIP3   OH213931   6.362   6.089   0.715
 4656TIP3    H113932   6.303   6.108   0.642
 4656TIP3    H213933   6.382   5.996   0.706
 4657TIP3   OH213934   3.970   2.627   3.972
 4657TIP3    H113935   3.932   2.542   3.948
 4657TIP3    H213936   3.901   2.690   3.951
 4658TIP3   OH213937   6.731   2.980   5.034
 4658TIP3    H113938   6.765   2.908   5.087
 4658TIP3    H213939   6.789   2.984   4.958
 4659TIP3   OH213940   3.763   4.030   3.246
 4659TIP3    H113941   3.772   4.119   3.279
 4659TIP3    H213942   3.824   3.978   3.299
 4660TIP3   OH213943   5.183   4.291   2.678
 4660TIP3    H113944   5.146   4.202   2.674
 4660TIP3    H213945   5.201   4.314   2.587
 4661TIP3   OH213946   5.972   1.018   2.400
 4661TIP3    H113947   5.884   1.050   2.384
 4661TIP3    H213948   6.014   1.015   2.314
 4662TIP3   OH213949   3.649   0.427   0.648
 4662TIP3    H113950   3.631   0.510   0.692
 4662TIP3    H213951   3.729   0.444   0.597
 4663TIP3   OH213952   6.288   0.359   1.207
 4663TIP3    H113953   6.254   0.301   1.138
 4663TIP3    H213954   6.383   0.359   1.193
 4664TIP3   OH213955   4.564   4.382   1.919
 4664TIP3    H113956   4.470   4.365   1.914
 4664TIP3    H213957   4.592   4.342   2.002
 4665TIP3   OH213958   6.952   4.623   4.183
 4665TIP3    H113959   6.957   4.528   4.193
 4665TIP3    H213960   6.860   4.640   4.162
 4666TIP3   OH213961   6.143   0.407   2.738
 4666TIP3    H113962   6.206   0.435   2.672
 4666TIP3    H213963   6.131   0.483   2.795
 4667TIP3   OH213964   3.732   4.115   5.704
 4667TIP3    H113965   3.701   4.026   5.719
 4667TIP3    H213966   3.661   4.157   5.654
 4668TIP3   OH213967   1.954   5.535   1.267
 4668TIP3    H113968   1.874   5.571   1.305
 4668TIP3    H213969   2.008   5.510   1.341
 4669TIP3   OH213970   5.613   1.171   1.700
 4669TIP3    H113971   5.690   1.133   1.658
 4669TIP3    H213972   5.648   1.240   1.756
 4670TIP3   OH213973   4.184   1.320   0.232
 4670TIP3    H113974   4.189   1.225   0.230
 4670TIP3    H213975   4.238   1.345   0.307
 4671TIP3   OH213976   6.445   4.902  -0.030
 4671TIP3    H113977   6.394   4.831  -0.069
 4671TIP3    H213978   6.381   4.952   0.020
 4672TIP3   OH213979   6.414   1.715   3.692
 4672TIP3    H113980   6.383   1.632   3.730
 4672TIP3    H213981   6.396   1.707   3.599
 4673TIP3   OH213982   2.568   1.862   1.597
 4673TIP3    H113983   2.570   1.799   1.525
 4673TIP3    H213984   2.650   1.909   1.589
 4674TIP3   OH213985   7.137   1.159   0.472
 4674TIP3    H113986   7.225   1.191   0.450
 4674TIP3    H213987   7.078   1.223   0.433
 4675TIP3   OH213988   1.137   2.564   2.096
 4675TIP3    H113989   1.116   2.657   2.108
 4675TIP3    H213990   1.125   2.549   2.002
 4676TIP3   OH213991   1.127   6.027   2.044
 4676TIP3    H113992   1.218   6.026   2.071
 4676TIP3    H213993   1.111   6.117   2.014
 4677TIP3   OH213994   5.238   2.081   0.873
 4677TIP3    H113995   5.308   2.143   0.896
 4677TIP3    H213996   5.218   2.038   0.956
 4678TIP3   OH213997   6.690   4.197   4.111
 4678TIP3    H113998   6.776   4.156   4.098
 4678TIP3    H213999   6.639   4.170   4.035
 4679TIP3   OH214000   1.405   1.271   0.926
 4679TIP3    H114001   1.384   1.193   0.874
 4679TIP3    H214002   1.343   1.337   0.896
 4680TIP3   OH214003   5.499   6.423   1.312
 4680TIP3    H114004   5.477   6.334   1.285
 4680TIP3    H214005   5.568   6.412   1.377
 4681TIP3   OH214006   2.108   6.137   0.542
 4681TIP3    H114007   2.154   6.053   0.543
 4681TIP3    H214008   2.172   6.200   0.572
 4682TIP3   OH214009   0.494   1.877   2.252
 4682TIP3    H114010   0.496   1.972   2.239
 4682TIP3    H214011   0.579   1.846   2.220
 4683TIP3   OH214012   4.198   4.964   4.709
 4683TIP3    H114013   4.124   5.015   4.743
 4683TIP3    H214014   4.180   4.954   4.616
 4684TIP3   OH214015   5.861   5.797   1.487
 4684TIP3    H114016   5.794   5.733   1.463
 4684TIP3    H214017   5.858   5.862   1.416
 4685TIP3   OH214018   1.845   5.686   3.972
 4685TIP3    H114019   1.777   5.727   4.026
 4685TIP3    H214020   1.927   5.725   4.003
 4686TIP3   OH214021   0.976   5.670   3.163
 4686TIP3    H114022   1.049   5.711   3.210
 4686TIP3    H214023   0.956   5.591   3.215
 4687TIP3   OH214024   6.875   6.074   1.984
 4687TIP3    H114025   6.943   6.141   1.971
 4687TIP3    H214026   6.874   6.059   2.079
 4688TIP3   OH214027   3.835   3.510   5.294
 4688TIP3    H114028   3.814   3.604   5.290
 4688TIP3    H214029   3.853   3.485   5.203
 4689TIP3   OH214030   2.663   4.411   0.923
 4689TIP3    H114031   2.742   4.361   0.904
 4689TIP3    H214032   2.620   4.420   0.838
 4690TIP3   OH214033   3.866   3.779   1.087
 4690TIP3    H114034   3.809   3.795   1.163
 4690TIP3    H214035   3.946   3.743   1.125
 4691TIP3   OH214036   2.412   4.017   2.889
 4691TIP3    H114037   2.327   4.025   2.933
 4691TIP3    H214038   2.428   4.105   2.853
 4692TIP3   OH214039   3.290   5.418   0.021
 4692TIP3    H114040   3.378   5.444  -0.008
 4692TIP3    H214041   3.240   5.408  -0.060
 4693TIP3   OH214042   0.355   6.465   2.346
 4693TIP3    H114043   0.338   6.539   2.404
 4693TIP3    H214044   0.325   6.494   2.260
 4694TIP3   OH214045   0.050   3.689   5.436
 4694TIP3    H114046   0.073   3.627   5.366
 4694TIP3    H214047   0.038   3.772   5.391
 4695TIP3   OH214048   1.976   3.831   3.550
 4695TIP3    H114049   2.010   3.766   3.612
 4695TIP3    H214050   2.045   3.839   3.484
 4696TIP3   OH214051   5.172   1.966   0.636
 4696TIP3    H114052   5.220   2.004   0.709
 4696TIP3    H214053   5.083   2.001   0.645
 4697TIP3   OH214054   3.343   5.105   4.998
 4697TIP3    H114055   3.311   5.131   4.912
 4697TIP3    H214056   3.362   5.188   5.043
 4698TIP3   OH214057   0.007   2.727   0.105
 4698TIP3    H114058   0.056   2.808   0.113
 4698TIP3    H214059   0.075   2.659   0.100
 4699TIP3   OH214060   1.734   0.234   2.141
 4699TIP3    H114061   1.795   0.213   2.071
 4699TIP3    H214062   1.651   0.195   2.113
 4700TIP3   OH214063   4.705   2.105   1.400
 4700TIP3    H114064   4.685   2.021   1.357
 4700TIP3    H214065   4.681   2.092   1.492
 4701TIP3   OH214066   2.588   5.441   1.486
 4701TIP3    H114067   2.657   5.452   1.420
 4701TIP3    H214068   2.509   5.423   1.435
 4702TIP3   OH214069   3.696   1.189   1.330
 4702TIP3    H114070   3.762   1.200   1.262
 4702TIP3    H214071   3.671   1.097   1.325
 4703TIP3   OH214072   6.073   1.355   2.180
 4703TIP3    H114073   6.114   1.395   2.257
 4703TIP3    H214074   6.052   1.429   2.123
 4704TIP3   OH214075   1.233   2.635   1.165
 4704TIP3    H114076   1.266   2.719   1.198
 4704TIP3    H214077   1.254   2.572   1.233
 4705TIP3   OH214078   5.987   0.207   2.618
 4705TIP3    H114079   6.029   0.271   2.675
 4705TIP3    H214080   5.899   0.197   2.654
 4706TIP3   OH214081   3.805   4.232   3.936
 4706TIP3    H114082   3.780   4.316   3.897
 4706TIP3    H214083   3.727   4.177   3.926
 4707TIP3   OH214084   5.748   1.127   1.994
 4707TIP3    H114085   5.830   1.105   2.038
 4707TIP3    H214086   5.772   1.192   1.928
 4708TIP3   OH214087   4.667   2.905   0.729
 4708TIP3    H114088   4.743   2.957   0.703
 4708TIP3    H214089   4.627   2.955   0.800
 4709TIP3   OH214090   4.720   5.874   1.977
 4709TIP3    H114091   4.668   5.798   2.004
 4709TIP3    H214092   4.787   5.883   2.045
 4710TIP3   OH214093   0.299   3.313   1.828
 4710TIP3    H114094   0.297   3.218   1.819
 4710TIP3    H214095   0.333   3.344   1.744
 4711TIP3   OH214096   4.527   3.070   1.307
 4711TIP3    H114097   4.597   3.007   1.322
 4711TIP3    H214098   4.464   3.053   1.377
 4712TIP3   OH214099   1.802   4.835   4.624
 4712TIP3    H114100   1.711   4.861   4.637
 4712TIP3    H214101   1.838   4.903   4.567
 4713TIP3   OH214102   0.658   0.110   4.557
 4713TIP3    H114103   0.707   0.192   4.567
 4713TIP3    H214104   0.601   0.126   4.482
 4714TIP3   OH214105   1.524   4.862   4.648
 4714TIP3    H114106   1.476   4.930   4.695
 4714TIP3    H214107   1.525   4.891   4.557
 4715TIP3   OH214108   6.737   3.839   0.879
 4715TIP3    H114109   6.676   3.826   0.951
 4715TIP3    H214110   6.808   3.892   0.917
 4716TIP3   OH214111   4.507   5.789   3.685
 4716TIP3    H114112   4.598   5.762   3.700
 4716TIP3    H214113   4.514   5.863   3.625
 4717TIP3   OH214114   5.436   6.410   1.691
 4717TIP3    H114115   5.410   6.500   1.708
 4717TIP3    H214116   5.505   6.417   1.624
 4718TIP3   OH214117   5.058   4.698   5.863
 4718TIP3    H114118   5.030   4.697   5.954
 4718TIP3    H214119   5.153   4.701   5.866
 4719TIP3   OH214120   6.419   3.274   0.609
 4719TIP3    H114121   6.360   3.225   0.666
 4719TIP3    H214122   6.480   3.208   0.576
 4720TIP3   OH214123   6.429   4.652   0.947
 4720TIP3    H114124   6.449   4.584   0.882
 4720TIP3    H214125   6.494   4.720   0.930
 4721TIP3   OH214126   0.579   4.451   4.702
 4721TIP3    H114127   0.497   4.442   4.750
 4721TIP3    H214128   0.570   4.394   4.626
 4722TIP3   OH214129   5.462   5.667   5.481
 4722TIP3    H114130   5.529   5.630   5.422
 4722TIP3    H214131   5.397   5.597   5.490
 4723TIP3   OH214132   4.077   0.355   1.898
 4723TIP3    H114133   4.116   0.363   1.984
 4723TIP3    H214134   4.046   0.264   1.893
 4724TIP3   OH214135   2.745   2.202   3.345
 4724TIP3    H114136   2.789   2.132   3.298
 4724TIP3    H214137   2.690   2.245   3.279
 4725TIP3   OH214138   6.035   3.726   3.181
 4725TIP3    H114139   5.980   3.799   3.152
 4725TIP3    H214140   6.079   3.759   3.260
 4726TIP3   OH214141   0.078   2.666   2.765
 4726TIP3    H114142   0.058   2.746   2.716
 4726TIP3    H214143  -0.006   2.639   2.802
 4727TIP3   OH214144   1.190   4.002   1.349
 4727TIP3    H114145   1.122   4.008   1.282
 4727TIP3    H214146   1.252   4.070   1.327
 4728TIP3   OH214147   2.578   6.344   0.793
 4728TIP3    H114148   2.662   6.299   0.800
 4728TIP3    H214149   2.601   6.434   0.766
 4729TIP3   OH214150   3.975   0.103   1.853
 4729TIP3    H114151   3.927   0.029   1.817
 4729TIP3    H214152   4.067   0.076   1.851
 4730TIP3   OH214153   5.567   0.993   4.699
 4730TIP3    H114154   5.581   1.025   4.788
 4730TIP3    H214155   5.624   1.047   4.645
 4731TIP3   OH214156   4.339   6.580   4.523
 4731TIP3    H114157   4.342   6.577   4.427
 4731TIP3    H214158   4.411   6.524   4.551
 4732TIP3   OH214159   5.591   0.629   3.617
 4732TIP3    H114160   5.569   0.609   3.526
 4732TIP3    H214161   5.656   0.564   3.641
 4733TIP3   OH214162   4.389   0.911   1.788
 4733TIP3    H114163   4.333   0.897   1.712
 4733TIP3    H214164   4.355   0.852   1.855
 4734TIP3   OH214165   3.988   0.320   3.607
 4734TIP3    H114166   4.076   0.282   3.613
 4734TIP3    H214167   3.930   0.251   3.640
 4735TIP3   OH214168   1.451   6.107   1.656
 4735TIP3    H114169   1.538   6.110   1.695
 4735TIP3    H214170   1.462   6.050   1.579
 4736TIP3   OH214171   6.628   1.072   2.939
 4736TIP3    H114172   6.633   1.092   2.845
 4736TIP3    H214173   6.538   1.091   2.962
 4737TIP3   OH214174   6.117   4.986   3.416
 4737TIP3    H114175   6.074   5.062   3.377
 4737TIP3    H214176   6.105   4.998   3.510
 4738TIP3   OH214177   1.560   0.020   3.260
 4738TIP3    H114178   1.654   0.030   3.242
 4738TIP3    H214179   1.541   0.087   3.326
 4739TIP3   OH214180   2.995   1.494   5.345
 4739TIP3    H114181   2.911   1.539   5.333
 4739TIP3    H214182   2.973   1.402   5.357
 4740TIP3   OH214183   2.035   2.025   2.219
 4740TIP3    H114184   1.942   2.036   2.197
 4740TIP3    H214185   2.036   1.952   2.281
 4741TIP3   OH214186   6.963   1.716   1.300
 4741TIP3    H114187   7.023   1.657   1.346
 4741TIP3    H214188   6.977   1.696   1.207
 4742TIP3   OH214189   4.237   5.491   3.505
 4742TIP3    H114190   4.316   5.485   3.452
 4742TIP3    H214191   4.247   5.572   3.555
 4743TIP3   OH214192   4.782   3.109   1.855
 4743TIP3    H114193   4.700   3.091   1.808
 4743TIP3    H214194   4.769   3.067   1.940
 4744TIP3   OH214195   3.395   0.856   3.756
 4744TIP3    H114196   3.305   0.834   3.731
 4744TIP3    H214197   3.436   0.771   3.772
 4745TIP3   OH214198   2.198   4.523   3.074
 4745TIP3    H114199   2.144   4.476   3.010
 4745TIP3    H214200   2.278   4.471   3.081
 4746TIP3   OH214201   6.201   3.602   0.881
 4746TIP3    H114202   6.286   3.601   0.836
 4746TIP3    H214203   6.137   3.597   0.811
 4747TIP3   OH214204   5.109   0.429   0.965
 4747TIP3    H114205   5.131   0.392   1.050
 4747TIP3    H214206   5.193   0.456   0.928
 4748TIP3   OH214207   4.786   5.412   4.678
 4748TIP3    H114208   4.856   5.365   4.631
 4748TIP3    H214209   4.793   5.381   4.768
 4749TIP3   OH214210   4.438   1.735   5.630
 4749TIP3    H114211   4.527   1.713   5.660
 4749TIP3    H214212   4.386   1.658   5.653
 4750TIP3   OH214213   4.329   5.060   0.942
 4750TIP3    H114214   4.345   5.127   1.008
 4750TIP3    H214215   4.404   5.065   0.883
 4751TIP3   OH214216   1.985   5.081   0.548
 4751TIP3    H114217   2.010   4.991   0.569
 4751TIP3    H214218   1.890   5.080   0.551
 4752TIP3   OH214219   2.278   3.591   2.784
 4752TIP3    H114220   2.199   3.643   2.800
 4752TIP3    H214221   2.311   3.570   2.871
 4753TIP3   OH214222   5.843   4.838   0.297
 4753TIP3    H114223   5.813   4.928   0.312
 4753TIP3    H214224   5.913   4.847   0.233
 4754TIP3   OH214225   0.831   0.053   4.923
 4754TIP3    H114226   0.765   0.123   4.916
 4754TIP3    H214227   0.800  -0.015   4.863
 4755TIP3   OH214228   4.301   3.911   4.035
 4755TIP3    H114229   4.228   3.971   4.016
 4755TIP3    H214230   4.373   3.943   3.982
 4756TIP3   OH214231   0.386   3.384   0.682
 4756TIP3    H114232   0.349   3.301   0.651
 4756TIP3    H214233   0.466   3.396   0.630
 4757TIP3   OH214234   2.157   0.530   3.565
 4757TIP3    H114235   2.132   0.620   3.587
 4757TIP3    H214236   2.244   0.520   3.603
 4758TIP3   OH214237   6.213   2.771   4.667
 4758TIP3    H114238   6.281   2.838   4.676
 4758TIP3    H214239   6.148   2.811   4.610
 4759TIP3   OH214240   6.280   5.662   3.349
 4759TIP3    H114241   6.316   5.642   3.263
 4759TIP3    H214242   6.228   5.741   3.336
 4760TIP3   OH214243   3.313   2.554   5.812
 4760TIP3    H114244   3.233   2.607   5.815
 4760TIP3    H214245   3.369   2.591   5.880
 4761TIP3   OH214246   0.627   1.168   5.028
 4761TIP3    H114247   0.715   1.163   5.064
 4761TIP3    H214248   0.639   1.180   4.934
 4762TIP3   OH214249   0.492   6.543   1.142
 4762TIP3    H114250   0.418   6.511   1.091
 4762TIP3    H214251   0.532   6.465   1.180
 4763TIP3   OH214252   6.626   5.179   3.399
 4763TIP3    H114253   6.691   5.110   3.412
 4763TIP3    H214254   6.678   5.259   3.387
 4764TIP3   OH214255   1.548   4.755   5.365
 4764TIP3    H114256   1.521   4.709   5.444
 4764TIP3    H214257   1.587   4.836   5.396
 4765TIP3   OH214258   0.640   0.290   1.658
 4765TIP3    H114259   0.560   0.264   1.705
 4765TIP3    H214260   0.622   0.268   1.567
 4766TIP3   OH214261   4.491   2.551   1.801
 4766TIP3    H114262   4.408   2.592   1.825
 4766TIP3    H214263   4.516   2.501   1.879
 4767TIP3   OH214264   0.390   1.724   1.144
 4767TIP3    H114265   0.351   1.671   1.214
 4767TIP3    H214266   0.327   1.795   1.130
 4768TIP3   OH214267   0.606   0.126   4.250
 4768TIP3    H114268   0.584   0.038   4.219
 4768TIP3    H214269   0.625   0.175   4.169
 4769TIP3   OH214270   1.578   6.170   5.274
 4769TIP3    H114271   1.664   6.159   5.316
 4769TIP3    H214272   1.566   6.264   5.270
 4770TIP3   OH214273   1.885   4.005   4.887
 4770TIP3    H114274   1.976   4.031   4.894
 4770TIP3    H214275   1.870   3.988   4.794
 4771TIP3   OH214276   2.778   1.274   5.566
 4771TIP3    H114277   2.746   1.207   5.627
 4771TIP3    H214278   2.863   1.240   5.537
 4772TIP3   OH214279   3.054   5.811   3.722
 4772TIP3    H114280   3.020   5.753   3.791
 4772TIP3    H214281   3.084   5.888   3.770
 4773TIP3   OH214282   0.345   4.018   0.416
 4773TIP3    H114283   0.367   4.002   0.508
 4773TIP3    H214284   0.390   3.948   0.368
 4774TIP3   OH214285   2.139   1.926   1.651
 4774TIP3    H114286   2.104   1.894   1.568
 4774TIP3    H214287   2.234   1.919   1.641
 4775TIP3   OH214288   0.067   6.730   5.153
 4775TIP3    H114289  -0.027   6.740   5.166
 4775TIP3    H214290   0.079   6.637   5.136
 4776TIP3   OH214291   1.263   6.474   5.032
 4776TIP3    H114292   1.283   6.386   5.063
 4776TIP3    H214293   1.323   6.531   5.079
 4777TIP3   OH214294   1.686   5.729   5.079
 4777TIP3    H114295   1.693   5.743   4.985
 4777TIP3    H214296   1.641   5.807   5.112
 4778TIP3   OH214297   6.003   2.299   3.999
 4778TIP3    H114298   6.042   2.217   3.967
 4778TIP3    H214299   5.916   2.301   3.960
 4779TIP3   OH214300   1.879   0.075   3.535
 4779TIP3    H114301   1.901   0.167   3.523
 4779TIP3    H214302   1.953   0.027   3.498
 4780TIP3   OH214303   4.416   0.123   3.543
 4780TIP3    H114304   4.507   0.106   3.567
 4780TIP3    H214305   4.412   0.218   3.527
 4781TIP3   OH214306   1.117   5.655   0.822
 4781TIP3    H114307   1.077   5.656   0.735
 4781TIP3    H214308   1.211   5.648   0.805
 4782TIP3   OH214309   2.008   1.876   3.673
 4782TIP3    H114310   1.955   1.927   3.733
 4782TIP3    H214311   1.999   1.786   3.703
 4783TIP3   OH214312   0.640   4.224   1.295
 4783TIP3    H114313   0.563   4.249   1.243
 4783TIP3    H214314   0.604   4.205   1.382
 4784TIP3   OH214315   0.499   2.846   2.400
 4784TIP3    H114316   0.435   2.786   2.438
 4784TIP3    H214317   0.470   2.857   2.309
 4785TIP3   OH214318   5.957   0.089   4.604
 4785TIP3    H114319   5.906   0.154   4.652
 4785TIP3    H214320   6.037   0.135   4.580
 4786TIP3   OH214321   7.200   2.207   3.931
 4786TIP3    H114322   7.272   2.264   3.902
 4786TIP3    H214323   7.145   2.264   3.984
 4787TIP3   OH214324   0.197   2.826   2.391
 4787TIP3    H114325   0.164   2.742   2.422
 4787TIP3    H214326   0.171   2.830   2.299
 4788TIP3   OH214327   5.844   1.081   0.862
 4788TIP3    H114328   5.814   1.037   0.942
 4788TIP3    H214329   5.843   1.013   0.795
 4789TIP3   OH214330   5.776   5.682   4.160
 4789TIP3    H114331   5.804   5.597   4.127
 4789TIP3    H214332   5.757   5.733   4.081
 4790TIP3   OH214333   5.162   2.237   1.971
 4790TIP3    H114334   5.156   2.157   1.918
 4790TIP3    H214335   5.119   2.304   1.918
 4791TIP3   OH214336   2.375   2.502   3.980
 4791TIP3    H114337   2.319   2.579   3.990
 4791TIP3    H214338   2.334   2.452   3.909
 4792TIP3   OH214339   0.662   6.328   2.079
 4792TIP3    H114340   0.687   6.240   2.051
 4792TIP3    H214341   0.574   6.340   2.044
 4793TIP3   OH214342   6.700   3.554   0.439
 4793TIP3    H114343   6.737   3.615   0.502
 4793TIP3    H214344   6.625   3.515   0.484
 4794TIP3   OH214345   1.621   4.425   2.315
 4794TIP3    H114346   1.566   4.473   2.254
 4794TIP3    H214347   1.594   4.334   2.306
 4795TIP3   OH214348   6.894   5.749   5.172
 4795TIP3    H114349   6.959   5.817   5.153
 4795TIP3    H214350   6.922   5.713   5.257
 4796TIP3   OH214351   7.126   2.150   0.354
 4796TIP3    H114352   7.161   2.071   0.393
 4796TIP3    H214353   7.201   2.210   0.350
 4797TIP3   OH214354   6.346   3.943   0.919
 4797TIP3    H114355   6.379   3.901   0.840
 4797TIP3    H214356   6.274   3.887   0.948
 4798TIP3   OH214357   6.863   6.407   2.476
 4798TIP3    H114358   6.809   6.376   2.403
 4798TIP3    H214359   6.842   6.500   2.484
 4799TIP3   OH214360   1.312   1.344   3.298
 4799TIP3    H114361   1.295   1.373   3.388
 4799TIP3    H214362   1.360   1.417   3.259
 4800TIP3   OH214363   3.345   1.390   0.759
 4800TIP3    H114364   3.269   1.390   0.817
 4800TIP3    H214365   3.380   1.479   0.765
 4801TIP3   OH214366   1.575   2.806   4.288
 4801TIP3    H114367   1.536   2.720   4.274
 4801TIP3    H214368   1.653   2.789   4.340
 4802TIP3   OH214369   4.671   1.937   4.146
 4802TIP3    H114370   4.735   1.965   4.080
 4802TIP3    H214371   4.614   2.013   4.157
 4803TIP3   OH214372   0.429   2.301   5.638
 4803TIP3    H114373   0.457   2.222   5.593
 4803TIP3    H214374   0.499   2.320   5.701
 4804TIP3   OH214375   5.710   3.066   3.440
 4804TIP3    H114376   5.696   3.159   3.428
 4804TIP3    H214377   5.779   3.060   3.506
 4805TIP3   OH214378   2.668   0.701   5.539
 4805TIP3    H114379   2.686   0.698   5.633
 4805TIP3    H214380   2.596   0.763   5.530
 4806TIP3   OH214381   3.674   6.747   5.302
 4806TIP3    H114382   3.660   6.669   5.248
 4806TIP3    H214383   3.764   6.737   5.334
 4807TIP3   OH214384   3.146   4.098   2.542
 4807TIP3    H114385   3.215   4.037   2.514
 4807TIP3    H214386   3.193   4.168   2.588
 4808TIP3   OH214387   0.706   5.594   5.075
 4808TIP3    H114388   0.717   5.678   5.031
 4808TIP3    H214389   0.752   5.532   5.018
 4809TIP3   OH214390   5.047   1.835   2.819
 4809TIP3    H114391   5.099   1.819   2.899
 4809TIP3    H214392   5.096   1.904   2.773
 4810TIP3   OH214393   4.077   6.709   3.433
 4810TIP3    H114394   3.992   6.711   3.390
 4810TIP3    H214395   4.065   6.761   3.512
 4811TIP3   OH214396   1.528   2.963   4.034
 4811TIP3    H114397   1.558   2.932   3.949
 4811TIP3    H214398   1.539   2.888   4.092
 4812TIP3   OH214399   3.336   2.577   5.305
 4812TIP3    H114400   3.408   2.543   5.358
 4812TIP3    H214401   3.375   2.593   5.219
 4813TIP3   OH214402   6.077   1.984   3.899
 4813TIP3    H114403   6.035   2.014   3.818
 4813TIP3    H214404   6.161   2.030   3.900
 4814TIP3   OH214405   7.181   0.830  -0.023
 4814TIP3    H114406   7.265   0.863   0.010
 4814TIP3    H214407   7.125   0.826   0.055
 4815TIP3   OH214408   7.161   3.410   2.566
 4815TIP3    H114409   7.073   3.427   2.531
 4815TIP3    H214410   7.219   3.425   2.491
 4816TIP3   OH214411   3.558   0.722   3.027
 4816TIP3    H114412   3.491   0.675   3.077
 4816TIP3    H214413   3.592   0.657   2.966
 4817TIP3   OH214414   2.916   2.914   0.436
 4817TIP3    H114415   2.864   2.840   0.467
 4817TIP3    H214416   2.986   2.924   0.500
 4818TIP3   OH214417   6.636   3.705   0.193
 4818TIP3    H114418   6.571   3.771   0.218
 4818TIP3    H214419   6.681   3.683   0.274
 4819TIP3   OH214420   1.681   6.535   0.545
 4819TIP3    H114421   1.727   6.471   0.490
 4819TIP3    H214422   1.750   6.582   0.591
 4820TIP3   OH214423   4.079   0.363   2.522
 4820TIP3    H114424   4.064   0.290   2.462
 4820TIP3    H214425   4.174   0.374   2.523
 4821TIP3   OH214426   4.528   2.196   3.942
 4821TIP3    H114427   4.434   2.179   3.954
 4821TIP3    H214428   4.533   2.291   3.931
 4822TIP3   OH214429   0.639   1.459   1.371
 4822TIP3    H114430   0.575   1.405   1.325
 4822TIP3    H214431   0.701   1.486   1.303
 4823TIP3   OH214432   1.423   4.183   2.035
 4823TIP3    H114433   1.392   4.263   1.994
 4823TIP3    H214434   1.344   4.132   2.053
 4824TIP3   OH214435   3.694   0.414   4.663
 4824TIP3    H114436   3.608   0.379   4.640
 4824TIP3    H214437   3.738   0.429   4.579
 4825TIP3   OH214438   4.040   5.296   1.063
 4825TIP3    H114439   4.046   5.265   0.973
 4825TIP3    H214440   4.130   5.318   1.087
 4826TIP3   OH214441   1.150   3.149   4.367
 4826TIP3    H114442   1.238   3.140   4.331
 4826TIP3    H214443   1.142   3.242   4.387
 4827TIP3   OH214444   4.986   3.835   0.479
 4827TIP3    H114445   4.928   3.909   0.461
 4827TIP3    H214446   4.946   3.790   0.554
 4828TIP3   OH214447   3.534   3.229   3.066
 4828TIP3    H114448   3.449   3.255   3.032
 4828TIP3    H214449   3.520   3.216   3.160
 4829TIP3   OH214450   2.740   5.722   1.175
 4829TIP3    H114451   2.702   5.726   1.087
 4829TIP3    H214452   2.817   5.780   1.170
 4830TIP3   OH214453   1.468   0.887   3.834
 4830TIP3    H114454   1.455   0.905   3.927
 4830TIP3    H214455   1.380   0.876   3.799
 4831TIP3   OH214456   3.058   3.098   2.646
 4831TIP3    H114457   3.131   3.084   2.586
 4831TIP3    H214458   3.032   3.010   2.673
 4832TIP3   OH214459   4.705   2.022   1.677
 4832TIP3    H114460   4.794   1.990   1.668
 4832TIP3    H214461   4.702   2.059   1.766
 4833TIP3   OH214462   4.621   0.678   5.752
 4833TIP3    H114463   4.543   0.724   5.782
 4833TIP3    H214464   4.681   0.680   5.827
 4834TIP3   OH214465   0.523   5.374   3.782
 4834TIP3    H114466   0.431   5.357   3.761
 4834TIP3    H214467   0.528   5.469   3.794
 4835TIP3   OH214468   2.930   5.307   2.681
 4835TIP3    H114469   2.968   5.233   2.633
 4835TIP3    H214470   2.973   5.304   2.766
 4836TIP3   OH214471   0.410   2.854   3.811
 4836TIP3    H114472   0.461   2.775   3.828
 4836TIP3    H214473   0.463   2.925   3.848
 4837TIP3   OH214474   5.549   4.564   2.834
 4837TIP3    H114475   5.473   4.506   2.835
 4837TIP3    H214476   5.607   4.529   2.767
 4838TIP3   OH214477   0.584   3.713   2.122
 4838TIP3    H114478   0.496   3.749   2.138
 4838TIP3    H214479   0.597   3.651   2.193
 4839TIP3   OH214480   5.856   6.699   3.852
 4839TIP3    H114481   5.939   6.709   3.899
 4839TIP3    H214482   5.800   6.651   3.913
 4840TIP3   OH214483   1.550   3.870   1.991
 4840TIP3    H114484   1.528   3.880   2.083
 4840TIP3    H214485   1.642   3.897   1.986
 4841TIP3   OH214486   5.085   0.058   0.904
 4841TIP3    H114487   5.022   0.031   0.837
 4841TIP3    H214488   5.155   0.101   0.855
 4842TIP3   OH214489   6.906   5.844   4.663
 4842TIP3    H114490   6.871   5.792   4.590
 4842TIP3    H214491   6.994   5.810   4.676
 4843TIP3   OH214492   1.182   5.352   3.941
 4843TIP3    H114493   1.206   5.338   3.849
 4843TIP3    H214494   1.089   5.374   3.938
 4844TIP3   OH214495   5.162   0.199   3.542
 4844TIP3    H114496   5.138   0.119   3.496
 4844TIP3    H214497   5.204   0.168   3.623
 4845TIP3   OH214498   2.934   6.580   3.340
 4845TIP3    H114499   2.905   6.521   3.410
 4845TIP3    H214500   2.890   6.547   3.262
 4846TIP3   OH214501   1.276   4.949   2.976
 4846TIP3    H114502   1.284   4.964   3.070
 4846TIP3    H214503   1.282   5.036   2.937
 4847TIP3   OH214504   2.900   1.701   1.169
 4847TIP3    H114505   2.960   1.638   1.208
 4847TIP3    H214506   2.824   1.649   1.143
 4848TIP3   OH214507   0.601   5.228   5.658
 4848TIP3    H114508   0.644   5.190   5.582
 4848TIP3    H214509   0.576   5.316   5.630
 4849TIP3   OH214510   6.917   4.688   2.752
 4849TIP3    H114511   6.895   4.777   2.776
 4849TIP3    H214512   6.871   4.633   2.816
 4850TIP3   OH214513   6.097   3.482   2.474
 4850TIP3    H114514   6.136   3.403   2.510
 4850TIP3    H214515   6.032   3.509   2.540
 4851TIP3   OH214516   6.448   1.757   5.416
 4851TIP3    H114517   6.411   1.781   5.331
 4851TIP3    H214518   6.417   1.667   5.431
 4852TIP3   OH214519   6.623   6.438   4.514
 4852TIP3    H114520   6.603   6.360   4.462
 4852TIP3    H214521   6.718   6.437   4.523
 4853TIP3   OH214522   6.468   5.981   5.642
 4853TIP3    H114523   6.516   6.049   5.594
 4853TIP3    H214524   6.404   5.948   5.580
 4854TIP3   OH214525   0.344   3.742   5.435
 4854TIP3    H114526   0.315   3.702   5.518
 4854TIP3    H214527   0.266   3.785   5.401
 4855TIP3   OH214528   2.500   3.729   5.790
 4855TIP3    H114529   2.485   3.822   5.773
 4855TIP3    H214530   2.592   3.715   5.770
 4856TIP3   OH214531   2.342   0.330   5.172
 4856TIP3    H114532   2.411   0.393   5.150
 4856TIP3    H214533   2.298   0.369   5.248
 4857TIP3   OH214534   4.155   4.061   1.104
 4857TIP3    H114535   4.170   3.970   1.132
 4857TIP3    H214536   4.241   4.091   1.075
 4858TIP3   OH214537   5.264   5.484   3.305
 4858TIP3    H114538   5.349   5.465   3.345
 4858TIP3    H214539   5.219   5.538   3.370
 4859TIP3   OH214540   0.407   3.331   2.068
 4859TIP3    H114541   0.355   3.322   1.989
 4859TIP3    H214542   0.442   3.243   2.085
 4860TIP3   OH214543   0.327   5.385   5.691
 4860TIP3    H114544   0.274   5.450   5.646
 4860TIP3    H214545   0.377   5.435   5.756
 4861TIP3   OH214546   4.039   3.001   2.440
 4861TIP3    H114547   4.008   3.065   2.504
 4861TIP3    H214548   3.976   3.007   2.367
 4862TIP3   OH214549   5.957   4.021   1.918
 4862TIP3    H114550   6.017   4.090   1.893
 4862TIP3    H214551   6.011   3.956   1.962
 4863TIP3   OH214552   0.980   2.862   0.362
 4863TIP3    H114553   0.898   2.908   0.346
 4863TIP3    H214554   0.985   2.854   0.457
 4864TIP3   OH214555   6.603   6.794   4.238
 4864TIP3    H114556   6.619   6.870   4.293
 4864TIP3    H214557   6.515   6.765   4.263
 4865TIP3   OH214558   0.232   4.712   1.850
 4865TIP3    H114559   0.232   4.684   1.941
 4865TIP3    H214560   0.266   4.801   1.852
 4866TIP3   OH214561   4.080   4.172   0.770
 4866TIP3    H114562   4.017   4.106   0.801
 4866TIP3    H214563   4.038   4.210   0.693
 4867TIP3   OH214564   3.809   5.147   0.313
 4867TIP3    H114565   3.886   5.184   0.355
 4867TIP3    H214566   3.767   5.094   0.381
 4868TIP3   OH214567   3.512   3.901   1.950
 4868TIP3    H114568   3.561   3.981   1.929
 4868TIP3    H214569   3.481   3.869   1.865
 4869TIP3   OH214570   4.464   2.506   3.857
 4869TIP3    H114571   4.385   2.500   3.910
 4869TIP3    H214572   4.464   2.595   3.823
 4870TIP3   OH214573   2.433   1.403   5.883
 4870TIP3    H114574   2.365   1.412   5.951
 4870TIP3    H214575   2.383   1.391   5.802
 4871TIP3   OH214576   2.088   3.871   2.096
 4871TIP3    H114577   2.083   3.819   2.176
 4871TIP3    H214578   1.998   3.878   2.066
 4872TIP3   OH214579   6.345   1.343   1.192
 4872TIP3    H114580   6.268   1.390   1.157
 4872TIP3    H214581   6.400   1.412   1.229
 4873TIP3   OH214582   4.245   6.464   3.676
 4873TIP3    H114583   4.191   6.390   3.704
 4873TIP3    H214584   4.214   6.484   3.587
 4874TIP3   OH214585   1.326   3.719   5.336
 4874TIP3    H114586   1.317   3.646   5.398
 4874TIP3    H214587   1.306   3.797   5.389
 4875TIP3   OH214588   2.800   0.290   0.250
 4875TIP3    H114589   2.793   0.354   0.179
 4875TIP3    H214590   2.793   0.205   0.206
 4876TIP3   OH214591   1.548   0.444   0.521
 4876TIP3    H114592   1.580   0.443   0.612
 4876TIP3    H214593   1.477   0.379   0.521
 4877TIP3   OH214594   1.389   0.936   4.097
 4877TIP3    H114595   1.441   0.862   4.128
 4877TIP3    H214596   1.420   1.011   4.147
 4878TIP3   OH214597   5.744   5.179   1.750
 4878TIP3    H114598   5.651   5.171   1.727
 4878TIP3    H214599   5.744   5.189   1.845
 4879TIP3   OH214600   6.382   5.370   0.593
 4879TIP3    H114601   6.387   5.321   0.511
 4879TIP3    H214602   6.323   5.319   0.648
 4880TIP3   OH214603   0.939   6.556   2.975
 4880TIP3    H114604   1.018   6.610   2.971
 4880TIP3    H214605   0.868   6.616   2.951
 4881TIP3   OH214606   1.020   3.461   3.666
 4881TIP3    H114607   0.944   3.434   3.615
 4881TIP3    H214608   1.083   3.390   3.656
 4882TIP3   OH214609   3.215   6.070   3.793
 4882TIP3    H114610   3.174   6.113   3.718
 4882TIP3    H214611   3.308   6.089   3.784
 4883TIP3   OH214612   5.320   4.328   3.395
 4883TIP3    H114613   5.263   4.313   3.470
 4883TIP3    H214614   5.361   4.413   3.412
 4884TIP3   OH214615   1.374   0.424   2.825
 4884TIP3    H114616   1.398   0.377   2.905
 4884TIP3    H214617   1.287   0.391   2.803
 4885TIP3   OH214618   2.209   6.453   5.047
 4885TIP3    H114619   2.246   6.539   5.065
 4885TIP3    H214620   2.217   6.406   5.130
 4886TIP3   OH214621   1.329   1.631   1.765
 4886TIP3    H114622   1.406   1.618   1.710
 4886TIP3    H214623   1.275   1.693   1.717
 4887TIP3   OH214624   5.982   2.661   2.124
 4887TIP3    H114625   5.895   2.635   2.155
 4887TIP3    H214626   5.976   2.656   2.029
 4888TIP3   OH214627   6.303   5.229   2.949
 4888TIP3    H114628   6.361   5.221   3.026
 4888TIP3    H214629   6.346   5.176   2.882
 4889TIP3   OH214630   0.594   5.859   3.999
 4889TIP3    H114631   0.684   5.837   4.023
 4889TIP3    H214632   0.551   5.877   4.083
 4890TIP3   OH214633   6.684   0.204   0.869
 4890TIP3    H114634   6.660   0.290   0.833
 4890TIP3    H214635   6.620   0.144   0.833
 4891TIP3   OH214636   2.049   3.041   4.857
 4891TIP3    H114637   2.054   3.124   4.811
 4891TIP3    H214638   2.126   3.040   4.914
 4892TIP3   OH214639   3.404   6.325   3.095
 4892TIP3    H114640   3.434   6.235   3.077
 4892TIP3    H214641   3.371   6.356   3.010
 4893TIP3   OH214642   2.285   2.244   3.871
 4893TIP3    H114643   2.204   2.225   3.917
 4893TIP3    H214644   2.351   2.189   3.914
 4894TIP3   OH214645   3.880   4.909   2.436
 4894TIP3    H114646   3.860   4.920   2.529
 4894TIP3    H214647   3.927   4.989   2.412
 4895TIP3   OH214648   5.725   5.569   0.190
 4895TIP3    H114649   5.725   5.519   0.272
 4895TIP3    H214650   5.813   5.556   0.154
 4896TIP3   OH214651   2.910   1.112   2.399
 4896TIP3    H114652   2.869   1.068   2.325
 4896TIP3    H214653   2.840   1.121   2.464
 4897TIP3   OH214654   4.292   4.050   1.528
 4897TIP3    H114655   4.371   4.032   1.477
 4897TIP3    H214656   4.248   3.965   1.535
 4898TIP3   OH214657   5.395   0.181   0.183
 4898TIP3    H114658   5.305   0.211   0.188
 4898TIP3    H214659   5.443   0.253   0.143
 4899TIP3   OH214660   3.239   4.579   4.236
 4899TIP3    H114661   3.224   4.581   4.330
 4899TIP3    H214662   3.331   4.557   4.227
 4900TIP3   OH214663   5.522   5.227   4.462
 4900TIP3    H114664   5.542   5.181   4.544
 4900TIP3    H214665   5.585   5.299   4.459
 4901TIP3   OH214666   4.656   5.055   1.518
 4901TIP3    H114667   4.667   4.960   1.519
 4901TIP3    H214668   4.563   5.069   1.500
 4902TIP3   OH214669   7.139   5.611   2.280
 4902TIP3    H114670   7.169   5.585   2.367
 4902TIP3    H214671   7.150   5.706   2.279
 4903TIP3   OH214672   3.023   1.812   5.052
 4903TIP3    H114673   3.113   1.787   5.033
 4903TIP3    H214674   2.975   1.729   5.057
 4904TIP3   OH214675   0.529   2.150  -0.034
 4904TIP3    H114676   0.455   2.097  -0.004
 4904TIP3    H214677   0.587   2.155   0.042
 4905TIP3   OH214678   3.115   6.671   3.666
 4905TIP3    H114679   3.072   6.716   3.739
 4905TIP3    H214680   3.171   6.605   3.708
 4906TIP3   OH214681   3.388   5.177   5.652
 4906TIP3    H114682   3.317   5.236   5.626
 4906TIP3    H214683   3.407   5.202   5.742
 4907TIP3   OH214684   6.626   6.159   1.961
 4907TIP3    H114685   6.711   6.115   1.964
 4907TIP3    H214686   6.645   6.249   1.988
 4908TIP3   OH214687   6.395   6.663   2.026
 4908TIP3    H114688   6.348   6.738   2.061
 4908TIP3    H214689   6.331   6.592   2.025
 4909TIP3   OH214690   0.470   4.928   1.067
 4909TIP3    H114691   0.519   5.002   1.032
 4909TIP3    H214692   0.506   4.851   1.022
 4910TIP3   OH214693   4.766   0.046   0.731
 4910TIP3    H114694   4.837   0.062   0.668
 4910TIP3    H214695   4.757  -0.049   0.734
 4911TIP3   OH214696   0.316   2.708   4.281
 4911TIP3    H114697   0.249   2.728   4.347
 4911TIP3    H214698   0.362   2.791   4.269
 4912TIP3   OH214699   5.982   6.426   3.325
 4912TIP3    H114700   5.974   6.392   3.414
 4912TIP3    H214701   5.942   6.359   3.270
 4913TIP3   OH214702   5.100   1.202   0.156
 4913TIP3    H114703   5.054   1.156   0.087
 4913TIP3    H214704   5.157   1.264   0.110
 4914TIP3   OH214705   6.278   5.646   0.197
 4914TIP3    H114706   6.325   5.563   0.182
 4914TIP3    H214707   6.321   5.709   0.139
 4915TIP3   OH214708   0.214   4.306   1.148
 4915TIP3    H114709   0.193   4.263   1.231
 4915TIP3    H214710   0.246   4.393   1.173
 4916TIP3   OH214711   5.298   2.408   4.492
 4916TIP3    H114712   5.313   2.390   4.585
 4916TIP3    H214713   5.280   2.323   4.453
 4917TIP3   OH214714   2.685   2.684   3.826
 4917TIP3    H114715   2.721   2.762   3.869
 4917TIP3    H214716   2.644   2.635   3.897
 4918TIP3   OH214717   5.915   4.314   1.630
 4918TIP3    H114718   5.880   4.381   1.689
 4918TIP3    H214719   5.838   4.270   1.595
 4919TIP3   OH214720   2.286   3.150   2.455
 4919TIP3    H114721   2.277   3.241   2.429
 4919TIP3    H214722   2.311   3.104   2.375
 4920TIP3   OH214723   3.999   4.150   4.295
 4920TIP3    H114724   4.083   4.195   4.301
 4920TIP3    H214725   4.014   4.065   4.336
 4921TIP3   OH214726   0.972   0.657   0.845
 4921TIP3    H114727   0.914   0.582   0.858
 4921TIP3    H214728   0.996   0.685   0.933
 4922TIP3   OH214729   6.313   3.297   5.337
 4922TIP3    H114730   6.298   3.311   5.430
 4922TIP3    H214731   6.383   3.359   5.314
 4923TIP3   OH214732   2.355   1.918   0.328
 4923TIP3    H114733   2.319   1.831   0.345
 4923TIP3    H214734   2.406   1.908   0.247
 4924TIP3   OH214735   4.028   5.230   0.487
 4924TIP3    H114736   4.112   5.231   0.441
 4924TIP3    H214737   4.046   5.186   0.570
 4925TIP3   OH214738   1.709   6.665  -0.049
 4925TIP3    H114739   1.666   6.749  -0.030
 4925TIP3    H214740   1.794   6.671  -0.005
 4926TIP3   OH214741   3.871   5.460   0.600
 4926TIP3    H114742   3.903   5.447   0.689
 4926TIP3    H214743   3.935   5.417   0.544
 4927TIP3   OH214744   6.315   1.217   1.829
 4927TIP3    H114745   6.333   1.199   1.736
 4927TIP3    H214746   6.310   1.130   1.869
 4928TIP3   OH214747   3.079   0.097   2.954
 4928TIP3    H114748   3.121   0.163   2.899
 4928TIP3    H214749   2.985   0.111   2.940
 4929TIP3   OH214750   1.049   3.284   0.731
 4929TIP3    H114751   1.109   3.358   0.731
 4929TIP3    H214752   1.105   3.207   0.724
 4930TIP3   OH214753   7.194   1.284   5.855
 4930TIP3    H114754   7.226   1.273   5.766
 4930TIP3    H214755   7.113   1.334   5.846
 4931TIP3   OH214756   6.476   2.958   2.884
 4931TIP3    H114757   6.402   3.015   2.865
 4931TIP3    H214758   6.530   3.008   2.945
 4932TIP3   OH214759   1.205   4.239   3.143
 4932TIP3    H114760   1.136   4.202   3.197
 4932TIP3    H214761   1.163   4.257   3.058
 4933TIP3   OH214762   4.815   0.354   4.834
 4933TIP3    H114763   4.796   0.283   4.773
 4933TIP3    H214764   4.773   0.326   4.916
 4934TIP3   OH214765   0.738   3.237   3.161
 4934TIP3    H114766   0.699   3.215   3.246
 4934TIP3    H214767   0.672   3.211   3.097
 4935TIP3   OH214768   3.552   0.505   4.276
 4935TIP3    H114769   3.637   0.521   4.318
 4935TIP3    H214770   3.516   0.592   4.261
 4936TIP3   OH214771   2.720   5.841   3.074
 4936TIP3    H114772   2.765   5.821   2.992
 4936TIP3    H214773   2.662   5.914   3.052
 4937TIP3   OH214774   3.119   5.701   3.024
 4937TIP3    H114775   3.202   5.710   3.071
 4937TIP3    H214776   3.116   5.609   2.998
 4938TIP3   OH214777   1.083   1.311   1.626
 4938TIP3    H114778   1.109   1.356   1.707
 4938TIP3    H214779   0.993   1.340   1.611
 4939TIP3   OH214780   2.743   4.748   0.759
 4939TIP3    H114781   2.684   4.811   0.716
 4939TIP3    H214782   2.799   4.716   0.688
 4940TIP3   OH214783   3.894   6.033   2.429
 4940TIP3    H114784   3.877   6.017   2.336
 4940TIP3    H214785   3.887   6.128   2.439
 4941TIP3   OH214786   1.866   3.491   3.365
 4941TIP3    H114787   1.938   3.524   3.313
 4941TIP3    H214788   1.804   3.455   3.302
 4942TIP3   OH214789   3.955   2.251   5.296
 4942TIP3    H114790   4.050   2.263   5.303
 4942TIP3    H214791   3.945   2.176   5.237
 4943TIP3   OH214792   1.046   6.272   0.012
 4943TIP3    H114793   0.997   6.221  -0.053
 4943TIP3    H214794   1.130   6.227   0.020
 4944TIP3   OH214795   4.146   0.378   4.679
 4944TIP3    H114796   4.226   0.327   4.689
 4944TIP3    H214797   4.083   0.335   4.737
 4945TIP3   OH214798   2.947   2.364   3.456
 4945TIP3    H114799   2.856   2.391   3.467
 4945TIP3    H214800   2.941   2.273   3.427
 4946TIP3   OH214801   0.469   0.640   4.640
 4946TIP3    H114802   0.502   0.573   4.580
 4946TIP3    H214803   0.514   0.720   4.614
 4947TIP3   OH214804   4.916   2.165   4.081
 4947TIP3    H114805   5.008   2.152   4.102
 4947TIP3    H214806   4.911   2.159   3.986
 4948TIP3   OH214807   2.605   1.729   1.356
 4948TIP3    H114808   2.682   1.692   1.312
 4948TIP3    H214809   2.597   1.817   1.320
 4949TIP3   OH214810   5.995   3.106   3.027
 4949TIP3    H114811   5.982   3.195   3.059
 4949TIP3    H214812   5.917   3.059   3.056
 4950TIP3   OH214813   2.440   0.640   2.415
 4950TIP3    H114814   2.458   0.732   2.432
 4950TIP3    H214815   2.527   0.598   2.413
 4951TIP3   OH214816   5.652   4.507   1.699
 4951TIP3    H114817   5.637   4.449   1.625
 4951TIP3    H214818   5.719   4.568   1.668
 4952TIP3   OH214819   6.229   3.374   5.622
 4952TIP3    H114820   6.320   3.398   5.642
 4952TIP3    H214821   6.210   3.302   5.683
 4953TIP3   OH214822   0.208   1.232   1.476
 4953TIP3    H114823   0.127   1.240   1.426
 4953TIP3    H214824   0.181   1.196   1.560
 4954TIP3   OH214825   6.194   1.109   1.590
 4954TIP3    H114826   6.176   1.163   1.513
 4954TIP3    H214827   6.179   1.019   1.561
 4955TIP3   OH214828   1.419   4.763   4.191
 4955TIP3    H114829   1.477   4.710   4.136
 4955TIP3    H214830   1.391   4.704   4.261
 4956TIP3   OH214831   3.656   2.254   3.089
 4956TIP3    H114832   3.686   2.165   3.071
 4956TIP3    H214833   3.580   2.243   3.145
 4957TIP3   OH214834   2.238   0.893   1.480
 4957TIP3    H114835   2.243   0.986   1.458
 4957TIP3    H214836   2.328   0.869   1.503
 4958TIP3   OH214837   3.790   3.123   5.223
 4958TIP3    H114838   3.837   3.110   5.140
 4958TIP3    H214839   3.700   3.099   5.203
 4959TIP3   OH214840   3.314   0.723   5.390
 4959TIP3    H114841   3.235   0.734   5.337
 4959TIP3    H214842   3.351   0.811   5.396
 4960TIP3   OH214843   1.781   5.541   2.536
 4960TIP3    H114844   1.858   5.494   2.567
 4960TIP3    H214845   1.721   5.541   2.610
 4961TIP3   OH214846   2.898   3.610   4.808
 4961TIP3    H114847   2.911   3.687   4.754
 4961TIP3    H214848   2.963   3.547   4.776
 4962TIP3   OH214849   5.178   0.945   2.500
 4962TIP3    H114850   5.258   0.909   2.462
 4962TIP3    H214851   5.134   0.870   2.540
 4963TIP3   OH214852   2.174   3.109   5.249
 4963TIP3    H114853   2.127   3.026   5.246
 4963TIP3    H214854   2.202   3.124   5.158
 4964TIP3   OH214855   0.811   5.564   2.917
 4964TIP3    H114856   0.807   5.654   2.950
 4964TIP3    H214857   0.830   5.573   2.824
 4965TIP3   OH214858   2.419   5.227   3.789
 4965TIP3    H114859   2.507   5.227   3.751
 4965TIP3    H214860   2.374   5.154   3.747
 4966TIP3   OH214861   2.032   5.041   2.213
 4966TIP3    H114862   1.961   5.041   2.149
 4966TIP3    H214863   2.079   5.123   2.196
 4967TIP3   OH214864   4.929   0.893   0.924
 4967TIP3    H114865   4.932   0.827   0.854
 4967TIP3    H214866   5.006   0.873   0.978
 4968TIP3   OH214867   3.845   4.930   5.318
 4968TIP3    H114868   3.818   4.841   5.294
 4968TIP3    H214869   3.800   4.986   5.255
 4969TIP3   OH214870   4.761   4.017   0.404
 4969TIP3    H114871   4.779   4.099   0.449
 4969TIP3    H214872   4.675   3.990   0.437
 4970TIP3   OH214873   1.813   5.131   3.485
 4970TIP3    H114874   1.832   5.175   3.568
 4970TIP3    H214875   1.837   5.195   3.418
 4971TIP3   OH214876   0.897   1.445   3.182
 4971TIP3    H114877   0.940   1.530   3.197
 4971TIP3    H214878   0.816   1.467   3.135
 4972TIP3   OH214879   0.609   5.483  -0.005
 4972TIP3    H114880   0.608   5.448   0.084
 4972TIP3    H214881   0.665   5.422  -0.054
 4973TIP3   OH214882   2.854   0.691   2.378
 4973TIP3    H114883   2.911   0.763   2.406
 4973TIP3    H214884   2.887   0.669   2.290
 4974TIP3   OH214885   6.542   5.627   4.467
 4974TIP3    H114886   6.558   5.611   4.560
 4974TIP3    H214887   6.448   5.644   4.461
 4975TIP3   OH214888   2.950   2.501   4.357
 4975TIP3    H114889   3.039   2.532   4.339
 4975TIP3    H214890   2.894   2.558   4.305
 4976TIP3   OH214891   6.286   0.386   3.342
 4976TIP3    H114892   6.287   0.463   3.398
 4976TIP3    H214893   6.242   0.319   3.394
 4977TIP3   OH214894   6.284   6.397   4.926
 4977TIP3    H114895   6.284   6.385   5.021
 4977TIP3    H214896   6.329   6.319   4.892
 4978TIP3   OH214897   5.658   4.930   5.450
 4978TIP3    H114898   5.664   5.017   5.410
 4978TIP3    H214899   5.740   4.919   5.497
 4979TIP3   OH214900   4.115   0.941   3.582
 4979TIP3    H114901   4.112   1.007   3.651
 4979TIP3    H214902   4.040   0.885   3.600
 4980TIP3   OH214903   2.172   4.510   5.167
 4980TIP3    H114904   2.145   4.472   5.083
 4980TIP3    H214905   2.107   4.578   5.185
 4981TIP3   OH214906   5.080   5.299   1.843
 4981TIP3    H114907   5.015   5.328   1.779
 4981TIP3    H214908   5.147   5.366   1.841
 4982TIP3   OH214909   2.233   5.064   3.607
 4982TIP3    H114910   2.288   4.990   3.584
 4982TIP3    H214911   2.200   5.097   3.523
 4983TIP3   OH214912   3.346   6.362   1.068
 4983TIP3    H114913   3.309   6.405   1.145
 4983TIP3    H214914   3.365   6.273   1.097
 4984TIP3   OH214915   2.905   1.708   0.849
 4984TIP3    H114916   2.998   1.724   0.829
 4984TIP3    H214917   2.902   1.705   0.945
 4985TIP3   OH214918   6.037   4.683   3.130
 4985TIP3    H114919   6.130   4.701   3.118
 4985TIP3    H214920   6.002   4.761   3.173
 4986TIP3   OH214921   4.623   5.529   0.119
 4986TIP3    H114922   4.544   5.578   0.140
 4986TIP3    H214923   4.642   5.478   0.197
 4987TIP3   OH214924   4.845   0.774   1.813
 4987TIP3    H114925   4.911   0.721   1.859
 4987TIP3    H214926   4.895   0.845   1.773
 4988TIP3   OH214927   2.730   3.904   3.465
 4988TIP3    H114928   2.814   3.881   3.425
 4988TIP3    H214929   2.744   3.991   3.502
 4989TIP3   OH214930   3.751   3.358   4.230
 4989TIP3    H114931   3.847   3.358   4.230
 4989TIP3    H214932   3.728   3.416   4.158
 4990TIP3   OH214933   5.539   2.091   2.336
 4990TIP3    H114934   5.606   2.068   2.401
 4990TIP3    H214935   5.588   2.117   2.258
 4991TIP3   OH214936   3.364   6.012   2.452
 4991TIP3    H114937   3.427   5.956   2.406
 4991TIP3    H214938   3.288   6.017   2.393
 4992TIP3   OH214939   0.823   6.120   1.638
 4992TIP3    H114940   0.892   6.183   1.618
 4992TIP3    H214941   0.865   6.056   1.695
 4993TIP3   OH214942   1.856   4.392   0.994
 4993TIP3    H114943   1.848   4.388   1.089
 4993TIP3    H214944   1.907   4.314   0.971
 4994TIP3   OH214945   4.096   6.190   5.152
 4994TIP3    H114946   4.146   6.110   5.170
 4994TIP3    H214947   4.027   6.189   5.218
 4995TIP3   OH214948   0.350   2.086   3.518
 4995TIP3    H114949   0.403   2.160   3.490
 4995TIP3    H214950   0.396   2.009   3.485
 4996TIP3   OH214951   5.401   4.317   1.587
 4996TIP3    H114952   5.363   4.383   1.530
 4996TIP3    H214953   5.485   4.295   1.546
 4997TIP3   OH214954   5.657   2.459   0.029
 4997TIP3    H114955   5.723   2.526   0.014
 4997TIP3    H214956   5.662   2.440   0.123
 4998TIP3   OH214957   3.514   2.569   4.212
 4998TIP3    H114958   3.512   2.497   4.148
 4998TIP3    H214959   3.424   2.574   4.244
 4999TIP3   OH214960   2.721   2.371   5.553
 4999TIP3    H114961   2.651   2.360   5.617
 4999TIP3    H214962   2.800   2.381   5.605
 5000TIP3   OH214963   3.832   3.674   0.837
 5000TIP3    H114964   3.846   3.706   0.926
 5000TIP3    H214965   3.797   3.585   0.848
 5001TIP3   OH214966   3.282   0.702   1.365
 5001TIP3    H114967   3.355   0.721   1.424
 5001TIP3    H214968   3.232   0.634   1.410
 5002TIP3   OH214969   3.997   3.353   1.154
 5002TIP3    H114970   3.976   3.267   1.189
 5002TIP3    H214971   3.923   3.408   1.179
 5003TIP3   OH214972   6.431   3.352   0.212
 5003TIP3    H114973   6.480   3.392   0.140
 5003TIP3    H214974   6.460   3.261   0.213
 5004TIP3   OH214975   0.217   5.612   0.327
 5004TIP3    H114976   0.210   5.640   0.418
 5004TIP3    H214977   0.302   5.567   0.322
 5005TIP3   OH214978   6.874   0.306   2.321
 5005TIP3    H114979   6.821   0.323   2.399
 5005TIP3    H214980   6.812   0.309   2.248
 5006TIP3   OH214981   5.324   0.130   1.931
 5006TIP3    H114982   5.398   0.141   1.872
 5006TIP3    H214983   5.272   0.059   1.892
 5007TIP3   OH214984   3.450   5.035   1.828
 5007TIP3    H114985   3.477   5.103   1.766
 5007TIP3    H214986   3.438   5.081   1.910
 5008TIP3   OH214987   2.772   4.759   1.361
 5008TIP3    H114988   2.770   4.664   1.372
 5008TIP3    H214989   2.681   4.787   1.378
 5009TIP3   OH214990   0.855   3.944   4.202
 5009TIP3    H114991   0.804   3.892   4.264
 5009TIP3    H214992   0.796   4.016   4.177
 5010TIP3   OH214993   6.720   0.872   3.525
 5010TIP3    H114994   6.669   0.806   3.478
 5010TIP3    H214995   6.805   0.872   3.483
 5011TIP3   OH214996   1.457   4.161   0.034
 5011TIP3    H114997   1.401   4.150  -0.043
 5011TIP3    H214998   1.450   4.254   0.055
 5012TIP3   OH214999   6.432   5.997   1.054
 5012TIP3    H115000   6.441   5.905   1.027
 5012TIP3    H215001   6.446   6.047   0.973
 5013TIP3   OH215002   2.496   4.992   1.182
 5013TIP3    H115003   2.566   5.037   1.134
 5013TIP3    H215004   2.486   4.909   1.136
 5014TIP3   OH215005   2.166   4.405   0.884
 5014TIP3    H115006   2.140   4.356   0.806
 5014TIP3    H215007   2.248   4.448   0.858
 5015TIP3   OH215008   1.975   2.745   0.643
 5015TIP3    H115009   1.945   2.835   0.630
 5015TIP3    H215010   1.899   2.691   0.619
 5016TIP3   OH215011   0.357   6.074   4.975
 5016TIP3    H115012   0.434   6.083   4.919
 5016TIP3    H215013   0.389   6.093   5.063
 5017TIP3   OH215014   0.738   4.011   4.788
 5017TIP3    H115015   0.662   4.041   4.738
 5017TIP3    H215016   0.786   3.954   4.728
 5018TIP3   OH215017   7.055   2.906   5.016
 5018TIP3    H115018   6.994   2.933   5.084
 5018TIP3    H215019   7.121   2.854   5.061
 5019TIP3   OH215020   2.538   0.070   5.656
 5019TIP3    H115021   2.489   0.124   5.593
 5019TIP3    H215022   2.483  -0.008   5.667
 5020TIP3   OH215023   2.198   6.138   4.756
 5020TIP3    H115024   2.284   6.179   4.742
 5020TIP3    H215025   2.143   6.207   4.792
 5021TIP3   OH215026   5.763   1.580   2.807
 5021TIP3    H115027   5.670   1.600   2.820
 5021TIP3    H215028   5.789   1.635   2.733
 5022TIP3   OH215029   1.870   2.561   0.186
 5022TIP3    H115030   1.957   2.592   0.212
 5022TIP3    H215031   1.870   2.567   0.090
 5023TIP3   OH215032   5.694   5.784   5.063
 5023TIP3    H115033   5.632   5.840   5.017
 5023TIP3    H215034   5.779   5.809   5.028
 5024TIP3   OH215035   3.403   3.821   0.539
 5024TIP3    H115036   3.473   3.813   0.475
 5024TIP3    H215037   3.360   3.904   0.519
 5025TIP3   OH215038   4.514   6.506   3.550
 5025TIP3    H115039   4.426   6.469   3.560
 5025TIP3    H215040   4.500   6.600   3.536
 5026TIP3   OH215041   6.355   4.049   5.754
 5026TIP3    H115042   6.411   4.126   5.742
 5026TIP3    H215043   6.307   4.068   5.835
 5027TIP3   OH215044   3.219   0.280   3.585
 5027TIP3    H115045   3.252   0.196   3.615
 5027TIP3    H215046   3.258   0.293   3.499
 5028TIP3   OH215047   7.052   1.968   3.779
 5028TIP3    H115048   7.071   2.061   3.793
 5028TIP3    H215049   7.110   1.943   3.707
 5029TIP3   OH215050   0.450   1.016   2.775
 5029TIP3    H115051   0.449   1.096   2.722
 5029TIP3    H215052   0.377   0.964   2.743
 5030TIP3   OH215053   0.999   4.135   3.599
 5030TIP3    H115054   1.050   4.055   3.610
 5030TIP3    H215055   1.054   4.191   3.544
 5031TIP3   OH215056   2.005   5.412   2.617
 5031TIP3    H115057   2.094   5.446   2.606
 5031TIP3    H215058   2.016   5.318   2.628
 5032TIP3   OH215059   3.213   2.380   5.030
 5032TIP3    H115060   3.273   2.350   5.099
 5032TIP3    H215061   3.266   2.439   4.976
 5033TIP3   OH215062   3.409   2.860   4.416
 5033TIP3    H115063   3.474   2.844   4.347
 5033TIP3    H215064   3.394   2.954   4.413
 5034TIP3   OH215065   3.951   4.215   1.641
 5034TIP3    H115066   3.901   4.288   1.677
 5034TIP3    H215067   4.042   4.243   1.645
 5035TIP3   OH215068   0.743   0.526   5.490
 5035TIP3    H115069   0.651   0.499   5.501
 5035TIP3    H215070   0.744   0.618   5.519
 5036TIP3   OH215071   5.229   4.330   3.703
 5036TIP3    H115072   5.247   4.422   3.682
 5036TIP3    H215073   5.142   4.331   3.744
 5037TIP3   OH215074   6.436   4.577   0.659
 5037TIP3    H115075   6.420   4.525   0.581
 5037TIP3    H215076   6.363   4.639   0.662
 5038TIP3   OH215077   4.203   1.711   1.752
 5038TIP3    H115078   4.237   1.752   1.832
 5038TIP3    H215079   4.274   1.654   1.722
 5039TIP3   OH215080   4.230   0.136   0.849
 5039TIP3    H115081   4.187   0.098   0.926
 5039TIP3    H215082   4.254   0.224   0.876
 5040TIP3   OH215083   0.726   4.611   2.654
 5040TIP3    H115084   0.773   4.635   2.574
 5040TIP3    H215085   0.634   4.627   2.634
 5041TIP3   OH215086   2.783   6.070   4.883
 5041TIP3    H115087   2.753   6.026   4.804
 5041TIP3    H215088   2.799   5.999   4.945
 5042TIP3   OH215089   6.700   1.314   1.491
 5042TIP3    H115090   6.770   1.370   1.525
 5042TIP3    H215091   6.745   1.233   1.465
 5043TIP3   OH215092   5.987   4.566   2.862
 5043TIP3    H115093   6.017   4.623   2.933
 5043TIP3    H215094   6.048   4.585   2.790
 5044TIP3   OH215095   5.885   4.919   3.232
 5044TIP3    H115096   5.919   4.937   3.144
 5044TIP3    H215097   5.884   5.004   3.275
 5045TIP3   OH215098   6.505   5.996   2.326
 5045TIP3    H115099   6.480   6.082   2.360
 5045TIP3    H215100   6.424   5.960   2.290
 5046TIP3   OH215101   4.775   3.159   2.401
 5046TIP3    H115102   4.758   3.176   2.494
 5046TIP3    H215103   4.780   3.064   2.394
 5047TIP3   OH215104   1.614   4.841   2.258
 5047TIP3    H115105   1.645   4.755   2.231
 5047TIP3    H215106   1.641   4.848   2.350
 5048TIP3   OH215107   2.241   3.008   3.600
 5048TIP3    H115108   2.306   2.959   3.651
 5048TIP3    H215109   2.289   3.038   3.523
 5049TIP3   OH215110   4.973   2.678   1.699
 5049TIP3    H115111   5.005   2.764   1.674
 5049TIP3    H215112   4.880   2.691   1.717
 5050TIP3   OH215113   3.558   6.579   2.634
 5050TIP3    H115114   3.617   6.623   2.694
 5050TIP3    H215115   3.601   6.496   2.612
 5051TIP3   OH215116   2.732   6.319   0.302
 5051TIP3    H115117   2.677   6.396   0.291
 5051TIP3    H215118   2.724   6.272   0.219
 5052TIP3   OH215119   6.867   2.774   5.173
 5052TIP3    H115120   6.867   2.684   5.142
 5052TIP3    H215121   6.920   2.772   5.252
 5053TIP3   OH215122   5.323   0.517   2.781
 5053TIP3    H115123   5.380   0.497   2.855
 5053TIP3    H215124   5.234   0.503   2.815
 5054TIP3   OH215125   2.611   1.881   0.156
 5054TIP3    H115126   2.652   1.965   0.176
 5054TIP3    H215127   2.574   1.892   0.069
 5055TIP3   OH215128   6.031   5.412   4.297
 5055TIP3    H115129   6.017   5.469   4.372
 5055TIP3    H215130   6.109   5.361   4.319
 5056TIP3   OH215131   7.199   6.742   4.430
 5056TIP3    H115132   7.211   6.668   4.488
 5056TIP3    H215133   7.180   6.703   4.344
 5057TIP3   OH215134   5.890   3.878   1.358
 5057TIP3    H115135   5.879   3.835   1.273
 5057TIP3    H215136   5.806   3.919   1.375
 5058TIP3   OH215137   5.670   1.415   1.395
 5058TIP3    H115138   5.749   1.362   1.395
 5058TIP3    H215139   5.631   1.400   1.481
 5059TIP3   OH215140   6.597   5.926   3.140
 5059TIP3    H115141   6.563   5.839   3.120
 5059TIP3    H215142   6.594   5.973   3.057
 5060TIP3   OH215143   2.493   3.783   3.847
 5060TIP3    H115144   2.579   3.815   3.872
 5060TIP3    H215145   2.508   3.738   3.764
 5061TIP3   OH215146   5.149   6.394   5.594
 5061TIP3    H115147   5.097   6.353   5.525
 5061TIP3    H215148   5.229   6.423   5.550
 5062TIP3   OH215149   3.848   0.307   0.327
 5062TIP3    H115150   3.905   0.246   0.374
 5062TIP3    H215151   3.785   0.252   0.282
 5063TIP3   OH215152   1.833   5.012   0.814
 5063TIP3    H115153   1.751   4.974   0.846
 5063TIP3    H215154   1.813   5.045   0.727
 5064TIP3   OH215155   3.594   2.641   3.112
 5064TIP3    H115156   3.555   2.724   3.087
 5064TIP3    H215157   3.529   2.575   3.088
 5065TIP3   OH215158   6.978   4.300   0.221
 5065TIP3    H115159   6.911   4.295   0.289
 5065TIP3    H215160   7.035   4.371   0.248
 5066TIP3   OH215161   3.405   3.843   3.520
 5066TIP3    H115162   3.429   3.800   3.439
 5066TIP3    H215163   3.485   3.887   3.549
 5067TIP3   OH215164   3.660   4.789   3.765
 5067TIP3    H115165   3.611   4.855   3.717
 5067TIP3    H215166   3.595   4.723   3.788
 5068TIP3   OH215167   5.371   5.169   4.105
 5068TIP3    H115168   5.370   5.132   4.193
 5068TIP3    H215169   5.463   5.192   4.090
 5069TIP3   OH215170   1.661   4.027   4.017
 5069TIP3    H115171   1.735   4.068   4.063
 5069TIP3    H215172   1.658   4.073   3.933
 5070TIP3   OH215173   7.123   2.156   0.654
 5070TIP3    H115174   7.136   2.247   0.630
 5070TIP3    H215175   7.212   2.119   0.654
 5071TIP3   OH215176   5.517   2.507   5.275
 5071TIP3    H115177   5.606   2.477   5.294
 5071TIP3    H215178   5.528   2.582   5.216
 5072TIP3   OH215179   1.903   6.035   3.016
 5072TIP3    H115180   1.879   5.961   2.961
 5072TIP3    H215181   1.821   6.064   3.055
 5073TIP3   OH215182   4.823   2.364   2.405
 5073TIP3    H115183   4.737   2.331   2.377
 5073TIP3    H215184   4.831   2.336   2.496
 5074TIP3   OH215185   2.044   4.623   4.408
 5074TIP3    H115186   2.123   4.615   4.353
 5074TIP3    H215187   2.009   4.533   4.412
 5075TIP3   OH215188   1.739   5.874   3.763
 5075TIP3    H115189   1.774   5.797   3.808
 5075TIP3    H215190   1.735   5.848   3.671
 5076TIP3   OH215191   3.299   6.088   4.943
 5076TIP3    H115192   3.387   6.087   4.982
 5076TIP3    H215193   3.315   6.075   4.850
 5077TIP3   OH215194   0.536   3.967   5.668
 5077TIP3    H115195   0.580   4.002   5.591
 5077TIP3    H215196   0.524   4.043   5.725
 5078TIP3   OH215197   2.938   3.552   2.519
 5078TIP3    H115198   2.943   3.561   2.614
 5078TIP3    H215199   3.029   3.561   2.489
 5079TIP3   OH215200   0.567   0.869   5.544
 5079TIP3    H115201   0.657   0.853   5.573
 5079TIP3    H215202   0.512   0.828   5.611
 5080TIP3   OH215203   0.775   3.980   3.564
 5080TIP3    H115204   0.824   4.060   3.582
 5080TIP3    H215205   0.779   3.930   3.646
 5081TIP3   OH215206   2.439   4.714   1.060
 5081TIP3    H115207   2.429   4.676   0.973
 5081TIP3    H215208   2.356   4.758   1.077
 5082TIP3   OH215209   0.070   5.442   1.968
 5082TIP3    H115210  -0.024   5.458   1.955
 5082TIP3    H215211   0.074   5.391   2.049
 5083TIP3   OH215212   4.855   2.585   1.094
 5083TIP3    H115213   4.803   2.529   1.036
 5083TIP3    H215214   4.884   2.658   1.038
 5084TIP3   OH215215   6.530   1.079   1.711
 5084TIP3    H115216   6.585   1.111   1.783
 5084TIP3    H215217   6.515   1.155   1.656
 5085TIP3   OH215218   4.251   2.173   1.984
 5085TIP3    H115219   4.286   2.261   1.969
 5085TIP3    H215220   4.185   2.185   2.052
 5086TIP3   OH215221   5.053   2.463   3.241
 5086TIP3    H115222   5.003   2.383   3.261
 5086TIP3    H215223   5.002   2.507   3.173
 5087TIP3   OH215224   5.305   4.161   2.285
 5087TIP3    H115225   5.358   4.129   2.358
 5087TIP3    H215226   5.363   4.155   2.209
 5088TIP3   OH215227   4.529   1.414   1.700
 5088TIP3    H115228   4.605   1.375   1.657
 5088TIP3    H215229   4.485   1.341   1.744
 5089TIP3   OH215230   6.278   2.489   4.221
 5089TIP3    H115231   6.348   2.525   4.276
 5089TIP3    H215232   6.284   2.539   4.140
 5090TIP3   OH215233   4.975   4.468   3.333
 5090TIP3    H115234   4.899   4.484   3.277
 5090TIP3    H215235   5.010   4.384   3.303
 5091TIP3   OH215236   1.086   0.286   4.876
 5091TIP3    H115237   1.075   0.380   4.888
 5091TIP3    H215238   1.068   0.249   4.963
 5092TIP3   OH215239   4.743   0.044   5.618
 5092TIP3    H115240   4.807   0.102   5.659
 5092TIP3    H215241   4.783  -0.043   5.622
 5093TIP3   OH215242   4.920   2.686   5.730
 5093TIP3    H115243   4.909   2.754   5.796
 5093TIP3    H215244   4.962   2.613   5.776
 5094TIP3   OH215245   1.425   4.392   3.490
 5094TIP3    H115246   1.519   4.407   3.481
 5094TIP3    H215247   1.385   4.449   3.424
 5095TIP3   OH215248   4.227   6.662   0.898
 5095TIP3    H115249   4.313   6.644   0.935
 5095TIP3    H215250   4.236   6.638   0.805
 5096TIP3   OH215251   1.844   0.082   1.233
 5096TIP3    H115252   1.881   0.041   1.311
 5096TIP3    H215253   1.750   0.062   1.237
 5097TIP3   OH215254   6.526   1.504   1.315
 5097TIP3    H115255   6.591   1.449   1.358
 5097TIP3    H215256   6.562   1.592   1.320
 5098TIP3   OH215257   1.115   1.735   0.343
 5098TIP3    H115258   1.176   1.739   0.416
 5098TIP3    H215259   1.059   1.660   0.362
 5099TIP3   OH215260   5.367   5.273   5.792
 5099TIP3    H115261   5.418   5.202   5.753
 5099TIP3    H215262   5.311   5.231   5.857
 5100TIP3   OH215263   3.004   0.111   3.323
 5100TIP3    H115264   2.917   0.150   3.320
 5100TIP3    H215265   3.008   0.067   3.408
 5101TIP3   OH215266   3.705   0.893   5.584
 5101TIP3    H115267   3.624   0.858   5.548
 5101TIP3    H215268   3.698   0.879   5.679
 5102TIP3   OH215269   0.209   0.484   2.855
 5102TIP3    H115270   0.161   0.426   2.915
 5102TIP3    H215271   0.206   0.438   2.771
 5103TIP3   OH215272   4.254   0.541   4.308
 5103TIP3    H115273   4.346   0.559   4.290
 5103TIP3    H215274   4.247   0.445   4.301
 5104TIP3   OH215275   5.644   0.066   2.796
 5104TIP3    H115276   5.626  -0.020   2.834
 5104TIP3    H215277   5.599   0.127   2.853
 5105TIP3   OH215278   2.303   5.746   2.760
 5105TIP3    H115279   2.264   5.659   2.754
 5105TIP3    H215280   2.293   5.771   2.852
 5106TIP3   OH215281   6.252   1.353   3.095
 5106TIP3    H115282   6.166   1.314   3.080
 5106TIP3    H215283   6.311   1.303   3.038
 5107TIP3   OH215284   0.378   1.776   0.765
 5107TIP3    H115285   0.361   1.682   0.772
 5107TIP3    H215286   0.433   1.784   0.688
 5108TIP3   OH215287   2.538   5.486   2.790
 5108TIP3    H115288   2.610   5.487   2.726
 5108TIP3    H215289   2.547   5.569   2.836
 5109TIP3   OH215290   6.474   3.703   5.258
 5109TIP3    H115291   6.499   3.753   5.336
 5109TIP3    H215292   6.440   3.769   5.197
 5110TIP3   OH215293   1.025   0.592   3.983
 5110TIP3    H115294   0.935   0.622   4.000
 5110TIP3    H215295   1.062   0.580   4.070
 5111TIP3   OH215296   5.852   1.917   2.661
 5111TIP3    H115297   5.842   1.901   2.755
 5111TIP3    H215298   5.778   1.974   2.639
 5112TIP3   OH215299   0.403   4.870   1.348
 5112TIP3    H115300   0.428   4.872   1.256
 5112TIP3    H215301   0.385   4.961   1.371
 5113TIP3   OH215302   0.143   0.985   0.176
 5113TIP3    H115303   0.127   1.069   0.219
 5113TIP3    H215304   0.224   0.999   0.127
 5114TIP3   OH215305   6.874   2.821   1.535
 5114TIP3    H115306   6.865   2.856   1.624
 5114TIP3    H215307   6.956   2.860   1.503
 5115TIP3   OH215308   3.017   1.310   0.027
 5115TIP3    H115309   2.992   1.387   0.079
 5115TIP3    H215310   3.071   1.258   0.086
 5116TIP3   OH215311   1.273   5.130   0.081
 5116TIP3    H115312   1.251   5.188   0.154
 5116TIP3    H215313   1.368   5.119   0.087
 5117TIP3   OH215314   2.920   5.340   0.834
 5117TIP3    H115315   2.907   5.422   0.881
 5117TIP3    H215316   2.895   5.359   0.744
 5118TIP3   OH215317   6.983   3.227   0.497
 5118TIP3    H115318   6.960   3.311   0.535
 5118TIP3    H215319   6.965   3.163   0.566
 5119TIP3   OH215320   0.453   1.019   3.984
 5119TIP3    H115321   0.484   1.092   4.038
 5119TIP3    H215322   0.525   1.004   3.922
 5120TIP3   OH215323   0.682   2.062   1.625
 5120TIP3    H115324   0.643   1.984   1.584
 5120TIP3    H215325   0.626   2.134   1.596
 5121TIP3   OH215326   3.227   2.072   3.819
 5121TIP3    H115327   3.274   2.112   3.892
 5121TIP3    H215328   3.136   2.098   3.833
 5122TIP3   OH215329   0.028   5.769   2.049
 5122TIP3    H115330   0.010   5.839   1.986
 5122TIP3    H215331  -0.058   5.745   2.083
 5123TIP3   OH215332   4.377   1.656   0.851
 5123TIP3    H115333   4.417   1.705   0.922
 5123TIP3    H215334   4.406   1.565   0.865
 5124TIP3   OH215335   1.706   6.191   5.732
 5124TIP3    H115336   1.746   6.183   5.646
 5124TIP3    H215337   1.738   6.275   5.765
 5125TIP3   OH215338   2.925   3.449   2.787
 5125TIP3    H115339   2.984   3.443   2.862
 5125TIP3    H215340   2.841   3.475   2.824
 5126TIP3   OH215341   1.676   5.299   1.337
 5126TIP3    H115342   1.746   5.271   1.397
 5126TIP3    H215343   1.671   5.394   1.349
 5127TIP3   OH215344   3.838   6.270   1.854
 5127TIP3    H115345   3.755   6.237   1.819
 5127TIP3    H215346   3.826   6.270   1.949
 5128TIP3   OH215347   1.250   2.840   0.248
 5128TIP3    H115348   1.169   2.869   0.290
 5128TIP3    H215349   1.238   2.745   0.236
 5129TIP3   OH215350   0.504   2.519   5.013
 5129TIP3    H115351   0.458   2.468   4.945
 5129TIP3    H215352   0.548   2.453   5.067
 5130TIP3   OH215353   3.177   3.777   5.544
 5130TIP3    H115354   3.242   3.824   5.491
 5130TIP3    H215355   3.094   3.790   5.497
 5131TIP3   OH215356   3.679   2.119   1.283
 5131TIP3    H115357   3.608   2.054   1.277
 5131TIP3    H215358   3.638   2.194   1.326
 5132TIP3   OH215359   7.166   1.742   2.201
 5132TIP3    H115360   7.250   1.699   2.213
 5132TIP3    H215361   7.182   1.808   2.132
 5133TIP3   OH215362   3.363   0.448   2.507
 5133TIP3    H115363   3.321   0.504   2.573
 5133TIP3    H215364   3.411   0.383   2.558
 5134TIP3   OH215365   0.385   4.033   1.721
 5134TIP3    H115366   0.469   4.040   1.676
 5134TIP3    H215367   0.399   4.076   1.805
 5135TIP3   OH215368   0.267   6.316   2.580
 5135TIP3    H115369   0.283   6.383   2.514
 5135TIP3    H215370   0.236   6.366   2.656
 5136TIP3   OH215371   6.913   0.583   0.525
 5136TIP3    H115372   6.949   0.598   0.612
 5136TIP3    H215373   6.845   0.649   0.515
 5137TIP3   OH215374   0.438   1.524   1.986
 5137TIP3    H115375   0.466   1.570   1.907
 5137TIP3    H215376   0.520   1.496   2.027
 5138TIP3   OH215377   0.788   2.787   5.917
 5138TIP3    H115378   0.748   2.822   5.837
 5138TIP3    H215379   0.787   2.692   5.904
 5139TIP3   OH215380   7.131   2.562   3.576
 5139TIP3    H115381   7.153   2.512   3.654
 5139TIP3    H215382   7.068   2.628   3.607
 5140TIP3   OH215383   3.957   1.716   2.287
 5140TIP3    H115384   3.975   1.631   2.328
 5140TIP3    H215385   4.038   1.737   2.240
 5141TIP3   OH215386   5.766   5.803   3.264
 5141TIP3    H115387   5.731   5.892   3.268
 5141TIP3    H215388   5.824   5.796   3.340
 5142TIP3   OH215389   2.590   3.682   3.124
 5142TIP3    H115390   2.518   3.622   3.106
 5142TIP3    H215391   2.557   3.737   3.195
 5143TIP3   OH215392   0.587   5.049   2.481
 5143TIP3    H115393   0.637   5.081   2.406
 5143TIP3    H215394   0.498   5.035   2.446
 5144TIP3   OH215395   2.036   6.376   4.827
 5144TIP3    H115396   2.078   6.398   4.911
 5144TIP3    H215397   2.083   6.429   4.763
 5145TIP3   OH215398   2.152   0.160   2.402
 5145TIP3    H115399   2.173   0.103   2.476
 5145TIP3    H215400   2.060   0.142   2.383
 5146TIP3   OH215401   7.030   0.634   3.161
 5146TIP3    H115402   6.952   0.595   3.123
 5146TIP3    H215403   7.017   0.729   3.152
 5147TIP3   OH215404   5.363   0.761   2.155
 5147TIP3    H115405   5.380   0.668   2.143
 5147TIP3    H215406   5.411   0.785   2.234
 5148TIP3   OH215407   1.982   3.382   1.775
 5148TIP3    H115408   2.043   3.415   1.709
 5148TIP3    H215409   2.029   3.393   1.858
 5149TIP3   OH215410   1.263   6.563   1.759
 5149TIP3    H115411   1.173   6.545   1.735
 5149TIP3    H215412   1.306   6.478   1.760
 5150TIP3   OH215413   4.291   0.951   4.129
 5150TIP3    H115414   4.380   0.932   4.158
 5150TIP3    H215415   4.287   1.047   4.123
 5151TIP3   OH215416   2.546   2.024   1.043
 5151TIP3    H115417   2.509   2.099   0.995
 5151TIP3    H215418   2.527   1.948   0.988
 5152TIP3   OH215419   3.240   1.139   0.141
 5152TIP3    H115420   3.329   1.175   0.136
 5152TIP3    H215421   3.244   1.074   0.211
 5153TIP3   OH215422   4.591   1.306   4.369
 5153TIP3    H115423   4.519   1.359   4.405
 5153TIP3    H215424   4.572   1.217   4.398
 5154TIP3   OH215425   0.034   0.719   2.611
 5154TIP3    H115426   0.091   0.795   2.599
 5154TIP3    H215427   0.043   0.696   2.704
 5155TIP3   OH215428   2.090   1.608   2.770
 5155TIP3    H115429   2.022   1.669   2.800
 5155TIP3    H215430   2.041   1.532   2.738
 5156TIP3   OH215431   5.047   0.651   2.351
 5156TIP3    H115432   5.079   0.658   2.441
 5156TIP3    H215433   5.110   0.595   2.307
 5157TIP3   OH215434   3.987   0.431   0.931
 5157TIP3    H115435   3.982   0.514   0.978
 5157TIP3    H215436   3.899   0.394   0.939
 5158TIP3   OH215437   5.049   5.626   5.239
 5158TIP3    H115438   4.987   5.679   5.188
 5158TIP3    H215439   5.125   5.684   5.251
 5159TIP3   OH215440   4.823   3.888   3.569
 5159TIP3    H115441   4.901   3.846   3.533
 5159TIP3    H215442   4.756   3.819   3.566
 5160TIP3   OH215443   3.187   5.802   0.963
 5160TIP3    H115444   3.272   5.816   0.921
 5160TIP3    H215445   3.165   5.711   0.941
 5161TIP3   OH215446   1.325   4.769   2.560
 5161TIP3    H115447   1.376   4.846   2.533
 5161TIP3    H215448   1.370   4.738   2.639
 5162TIP3   OH215449   6.046   4.159   3.234
 5162TIP3    H115450   6.135   4.161   3.200
 5162TIP3    H215451   6.011   4.246   3.215
 5163TIP3   OH215452   5.717   2.005   3.835
 5163TIP3    H115453   5.704   2.089   3.880
 5163TIP3    H215454   5.629   1.978   3.810
 5164TIP3   OH215455   3.535   0.301   2.671
 5164TIP3    H115456   3.554   0.230   2.732
 5164TIP3    H215457   3.600   0.290   2.601
 5165TIP3   OH215458   0.183   4.834   2.658
 5165TIP3    H115459   0.120   4.897   2.692
 5165TIP3    H215460   0.147   4.749   2.681
 5166TIP3   OH215461   6.521   1.616   0.955
 5166TIP3    H115462   6.575   1.689   0.988
 5166TIP3    H215463   6.577   1.539   0.966
 5167TIP3   OH215464   0.609   0.815   1.044
 5167TIP3    H115465   0.524   0.772   1.029
 5167TIP3    H215466   0.593   0.907   1.023
 5168TIP3   OH215467   2.123   6.677   0.868
 5168TIP3    H115468   2.206   6.640   0.839
 5168TIP3    H215469   2.090   6.615   0.933
 5169TIP3   OH215470   2.503   1.789   2.713
 5169TIP3    H115471   2.495   1.701   2.675
 5169TIP3    H215472   2.453   1.784   2.794
 5170TIP3   OH215473   1.679   5.056   4.847
 5170TIP3    H115474   1.678   5.102   4.763
 5170TIP3    H215475   1.609   5.097   4.897
 5171TIP3   OH215476   6.707   2.464   0.961
 5171TIP3    H115477   6.631   2.494   0.910
 5171TIP3    H215478   6.746   2.395   0.907
 5172TIP3   OH215479   0.148   5.155   2.930
 5172TIP3    H115480   0.097   5.236   2.936
 5172TIP3    H215481   0.214   5.174   2.862
 5173TIP3   OH215482   1.912   2.323   1.318
 5173TIP3    H115483   1.953   2.402   1.282
 5173TIP3    H215484   1.985   2.273   1.354
 5174TIP3   OH215485   4.751   1.299   4.811
 5174TIP3    H115486   4.752   1.204   4.816
 5174TIP3    H215487   4.659   1.321   4.795
 5175TIP3   OH215488   6.789   5.630   4.953
 5175TIP3    H115489   6.821   5.666   5.035
 5175TIP3    H215490   6.705   5.674   4.938
 5176TIP3   OH215491   6.161   5.359   4.623
 5176TIP3    H115492   6.159   5.343   4.529
 5176TIP3    H215493   6.242   5.317   4.653
 5177TIP3   OH215494   5.173   1.159   1.418
 5177TIP3    H115495   5.247   1.218   1.404
 5177TIP3    H215496   5.200   1.077   1.378
 5178TIP3   OH215497   1.768   6.235   1.262
 5178TIP3    H115498   1.859   6.251   1.288
 5178TIP3    H215499   1.750   6.301   1.196
 5179TIP3   OH215500   5.685   1.969   3.419
 5179TIP3    H115501   5.639   1.984   3.336
 5179TIP3    H215502   5.651   2.035   3.478
 5180TIP3   OH215503   5.094   5.609   2.495
 5180TIP3    H115504   5.081   5.702   2.477
 5180TIP3    H215505   5.078   5.601   2.589
 5181TIP3   OH215506   6.304   0.843   1.756
 5181TIP3    H115507   6.382   0.851   1.701
 5181TIP3    H215508   6.332   0.876   1.842
 5182TIP3   OH215509   5.349   4.192   2.976
 5182TIP3    H115510   5.381   4.274   2.938
 5182TIP3    H215511   5.429   4.144   2.999
 5183TIP3   OH215512   6.495   1.102   0.450
 5183TIP3    H115513   6.409   1.062   0.465
 5183TIP3    H215514   6.558   1.034   0.475
 5184TIP3   OH215515   0.988   1.244   3.019
 5184TIP3    H115516   0.991   1.316   3.082
 5184TIP3    H215517   0.903   1.254   2.976
 5185TIP3   OH215518   1.885   4.626   0.847
 5185TIP3    H115519   1.884   4.545   0.898
 5185TIP3    H215520   1.964   4.618   0.793
 5186TIP3   OH215521   1.726   6.440   1.966
 5186TIP3    H115522   1.811   6.446   1.923
 5186TIP3    H215523   1.737   6.372   2.033
 5187TIP3   OH215524   2.525   1.162   2.881
 5187TIP3    H115525   2.617   1.178   2.904
 5187TIP3    H215526   2.500   1.086   2.933
 5188TIP3   OH215527   4.942   2.988   0.227
 5188TIP3    H115528   4.930   3.000   0.321
 5188TIP3    H215529   4.854   2.990   0.190
 5189TIP3   OH215530   5.861   4.239   4.534
 5189TIP3    H115531   5.840   4.204   4.447
 5189TIP3    H215532   5.897   4.164   4.582
 5190TIP3   OH215533   6.320   1.152   5.004
 5190TIP3    H115534   6.336   1.238   4.964
 5190TIP3    H215535   6.399   1.134   5.054
 5191TIP3   OH215536   4.994   6.594   0.643
 5191TIP3    H115537   4.932   6.594   0.716
 5191TIP3    H215538   4.942   6.618   0.567
 5192TIP3   OH215539   3.917   6.422   1.450
 5192TIP3    H115540   3.844   6.388   1.397
 5192TIP3    H215541   3.876   6.485   1.510
 5193TIP3   OH215542   0.038   4.533   4.879
 5193TIP3    H115543   0.069   4.619   4.908
 5193TIP3    H215544  -0.057   4.537   4.888
 5194TIP3   OH215545   3.684   4.596   0.120
 5194TIP3    H115546   3.769   4.553   0.125
 5194TIP3    H215547   3.627   4.532   0.078
 5195TIP3   OH215548   1.325   1.931   3.877
 5195TIP3    H115549   1.405   1.983   3.868
 5195TIP3    H215550   1.264   1.987   3.924
 5196TIP3   OH215551   6.421   6.461   0.495
 5196TIP3    H115552   6.392   6.536   0.443
 5196TIP3    H215553   6.372   6.469   0.577
 5197TIP3   OH215554   5.914   1.728   3.622
 5197TIP3    H115555   6.003   1.758   3.604
 5197TIP3    H215556   5.897   1.660   3.558
 5198TIP3   OH215557   0.459   0.448   4.836
 5198TIP3    H115558   0.388   0.385   4.839
 5198TIP3    H215559   0.439   0.503   4.760
 5199TIP3   OH215560   0.946   6.098   0.423
 5199TIP3    H115561   1.037   6.121   0.403
 5199TIP3    H215562   0.897   6.126   0.345
 5200TIP3   OH215563   4.568   2.995   3.538
 5200TIP3    H115564   4.584   2.937   3.463
 5200TIP3    H215565   4.484   2.965   3.574
 5201TIP3   OH215566   6.475   2.045   0.196
 5201TIP3    H115567   6.382   2.065   0.187
 5201TIP3    H215568   6.480   1.950   0.184
 5202TIP3   OH215569   2.549   1.321   0.215
 5202TIP3    H115570   2.520   1.399   0.262
 5202TIP3    H215571   2.526   1.248   0.272
 5203TIP3   OH215572   1.575   2.849   3.545
 5203TIP3    H115573   1.650   2.908   3.554
 5203TIP3    H215574   1.500   2.908   3.534
 5204TIP3   OH215575   6.379   2.116   3.487
 5204TIP3    H115576   6.409   2.075   3.568
 5204TIP3    H215577   6.335   2.196   3.516
 5205TIP3   OH215578   4.968   5.247   3.829
 5205TIP3    H115579   5.001   5.299   3.756
 5205TIP3    H215580   5.047   5.218   3.875
 5206TIP3   OH215581   5.387   0.439   1.852
 5206TIP3    H115582   5.458   0.389   1.811
 5206TIP3    H215583   5.313   0.379   1.853
 5207TIP3   OH215584   4.342   4.803   5.190
 5207TIP3    H115585   4.265   4.746   5.196
 5207TIP3    H215586   4.311   4.880   5.143
 5208TIP3   OH215587   4.228   2.694   4.643
 5208TIP3    H115588   4.182   2.768   4.603
 5208TIP3    H215589   4.282   2.658   4.573
 5209TIP3   OH215590   5.473   1.463   2.102
 5209TIP3    H115591   5.500   1.375   2.129
 5209TIP3    H215592   5.378   1.463   2.116
 5210TIP3   OH215593   3.022   4.273   4.699
 5210TIP3    H115594   3.028   4.179   4.688
 5210TIP3    H215595   3.008   4.307   4.610
 5211TIP3   OH215596   3.012   0.087   0.455
 5211TIP3    H115597   3.001   0.143   0.378
 5211TIP3    H215598   3.038   0.147   0.525
 5212TIP3   OH215599   1.879   5.474   4.622
 5212TIP3    H115600   1.890   5.443   4.532
 5212TIP3    H215601   1.945   5.543   4.631
 5213TIP3   OH215602   5.799   6.210   1.754
 5213TIP3    H115603   5.813   6.277   1.821
 5213TIP3    H215604   5.722   6.161   1.784
 5214TIP3   OH215605   1.682   0.627   3.921
 5214TIP3    H115606   1.659   0.616   3.828
 5214TIP3    H215607   1.601   0.610   3.968
 5215TIP3   OH215608   4.919   0.303   3.403
 5215TIP3    H115609   4.873   0.327   3.484
 5215TIP3    H215610   5.009   0.286   3.431
 5216TIP3   OH215611   6.220   6.422   2.763
 5216TIP3    H115612   6.196   6.511   2.790
 5216TIP3    H215613   6.235   6.430   2.668
 5217TIP3   OH215614   0.184   2.630   4.051
 5217TIP3    H115615   0.244   2.673   4.111
 5217TIP3    H215616   0.106   2.686   4.049
 5218TIP3   OH215617   2.134   1.627   2.253
 5218TIP3    H115618   2.203   1.564   2.275
 5218TIP3    H215619   2.172   1.678   2.181
 5219TIP3   OH215620   2.687   3.931   0.564
 5219TIP3    H115621   2.629   3.908   0.637
 5219TIP3    H215622   2.700   3.848   0.517
 5220TIP3   OH215623   1.514   4.972   5.586
 5220TIP3    H115624   1.485   5.021   5.510
 5220TIP3    H215625   1.447   4.991   5.653
 5221TIP3   OH215626   3.457   2.311   2.061
 5221TIP3    H115627   3.480   2.307   1.968
 5221TIP3    H215628   3.523   2.257   2.104
 5222TIP3   OH215629   4.802   0.080   4.737
 5222TIP3    H115630   4.788   0.055   4.646
 5222TIP3    H215631   4.859   0.012   4.772
 5223TIP3   OH215632   1.285   0.637   3.171
 5223TIP3    H115633   1.203   0.608   3.130
 5223TIP3    H215634   1.330   0.557   3.196
 5224TIP3   OH215635   5.584   2.725   5.112
 5224TIP3    H115636   5.535   2.791   5.159
 5224TIP3    H215637   5.659   2.772   5.074
 5225TIP3   OH215638   6.419   0.570   5.672
 5225TIP3    H115639   6.456   0.506   5.610
 5225TIP3    H215640   6.330   0.538   5.688
 5226TIP3   OH215641   4.699   6.545  -0.005
 5226TIP3    H115642   4.715   6.502   0.079
 5226TIP3    H215643   4.719   6.478  -0.070
 5227TIP3   OH215644   2.395   2.536   2.272
 5227TIP3    H115645   2.325   2.592   2.305
 5227TIP3    H215646   2.457   2.596   2.230
 5228TIP3   OH215647   1.549   5.191   5.413
 5228TIP3    H115648   1.642   5.206   5.394
 5228TIP3    H215649   1.520   5.271   5.458
 5229TIP3   OH215650   0.155   6.085   1.499
 5229TIP3    H115651   0.116   6.007   1.459
 5229TIP3    H215652   0.250   6.069   1.494
 5230TIP3   OH215653   4.485   3.358   4.711
 5230TIP3    H115654   4.423   3.303   4.663
 5230TIP3    H215655   4.510   3.426   4.649
 5231TIP3   OH215656   3.394   2.207   3.650
 5231TIP3    H115657   3.323   2.148   3.677
 5231TIP3    H215658   3.407   2.189   3.557
 5232TIP3   OH215659   4.097   5.029   5.878
 5232TIP3    H115660   4.156   5.088   5.830
 5232TIP3    H215661   4.011   5.046   5.840
 5233TIP3   OH215662   2.063   2.694   1.511
 5233TIP3    H115663   2.026   2.669   1.595
 5233TIP3    H215664   2.155   2.669   1.516
 5234TIP3   OH215665   3.622   4.496   1.643
 5234TIP3    H115666   3.650   4.465   1.729
 5234TIP3    H215667   3.531   4.466   1.636
 5235TIP3   OH215668   1.693   6.246   0.168
 5235TIP3    H115669   1.754   6.173   0.177
 5235TIP3    H215670   1.744   6.315   0.125
 5236TIP3   OH215671   4.326   6.012   1.451
 5236TIP3    H115672   4.340   6.106   1.443
 5236TIP3    H215673   4.367   5.975   1.373
 5237TIP3   OH215674   4.594   1.782   5.137
 5237TIP3    H115675   4.659   1.718   5.110
 5237TIP3    H215676   4.553   1.743   5.214
 5238TIP3   OH215677   6.378   4.985   2.132
 5238TIP3    H115678   6.307   5.003   2.193
 5238TIP3    H215679   6.426   4.912   2.171
 5239TIP3   OH215680   2.163   2.015   0.513
 5239TIP3    H115681   2.229   2.039   0.578
 5239TIP3    H215682   2.214   1.988   0.436
 5240TIP3   OH215683   6.493   4.543   3.012
 5240TIP3    H115684   6.534   4.627   3.031
 5240TIP3    H215685   6.457   4.514   3.096
 5241TIP3   OH215686   4.266   6.242   2.139
 5241TIP3    H115687   4.242   6.334   2.134
 5241TIP3    H215688   4.231   6.212   2.223
 5242TIP3   OH215689   6.427   3.464   1.883
 5242TIP3    H115690   6.485   3.526   1.928
 5242TIP3    H215691   6.339   3.488   1.913
 5243TIP3   OH215692   6.054   2.950   1.258
 5243TIP3    H115693   6.087   2.860   1.253
 5243TIP3    H215694   6.056   2.982   1.168
 5244TIP3   OH215695   2.878   0.309   1.507
 5244TIP3    H115696   2.906   0.243   1.570
 5244TIP3    H215697   2.919   0.283   1.425
 5245TIP3   OH215698   6.879  -0.022   1.828
 5245TIP3    H115699   6.836  -0.090   1.776
 5245TIP3    H215700   6.933   0.025   1.765
 5246TIP3   OH215701   3.503   6.252   5.575
 5246TIP3    H115702   3.557   6.299   5.511
 5246TIP3    H215703   3.564   6.232   5.646
 5247TIP3   OH215704   1.771   5.187   5.147
 5247TIP3    H115705   1.677   5.182   5.129
 5247TIP3    H215706   1.809   5.219   5.065
 5248TIP3   OH215707   3.673   6.021   1.002
 5248TIP3    H115708   3.742   6.082   1.028
 5248TIP3    H215709   3.612   6.022   1.076
 5249TIP3   OH215710   3.712   3.297   5.438
 5249TIP3    H115711   3.714   3.390   5.417
 5249TIP3    H215712   3.737   3.253   5.357
 5250TIP3   OH215713   3.192   6.760   5.078
 5250TIP3    H115714   3.212   6.678   5.123
 5250TIP3    H215715   3.191   6.826   5.148
 5251TIP3   OH215716   0.851   4.040   0.159
 5251TIP3    H115717   0.877   3.971   0.220
 5251TIP3    H215718   0.794   4.097   0.211
 5252TIP3   OH215719   5.991   1.839   5.698
 5252TIP3    H115720   6.042   1.829   5.779
 5252TIP3    H215721   6.052   1.877   5.635
 5253TIP3   OH215722   2.058   5.596   3.181
 5253TIP3    H115723   1.970   5.569   3.153
 5253TIP3    H215724   2.089   5.526   3.237
 5254TIP3   OH215725   2.337   6.109   4.054
 5254TIP3    H115726   2.254   6.099   4.007
 5254TIP3    H215727   2.373   6.192   4.021
 5255TIP3   OH215728   0.704   4.347   2.624
 5255TIP3    H115729   0.699   4.440   2.647
 5255TIP3    H215730   0.630   4.306   2.669
 5256TIP3   OH215731   0.884   5.902   3.445
 5256TIP3    H115732   0.879   5.828   3.506
 5256TIP3    H215733   0.813   5.887   3.383
 5257TIP3   OH215734   4.570   5.562   4.312
 5257TIP3    H115735   4.581   5.529   4.401
 5257TIP3    H215736   4.478   5.589   4.307
 5258TIP3   OH215737   1.704   2.109   4.735
 5258TIP3    H115738   1.656   2.030   4.758
 5258TIP3    H215739   1.795   2.089   4.757
 5259TIP3   OH215740   4.002   6.580   1.039
 5259TIP3    H115741   4.080   6.584   0.983
 5259TIP3    H215742   4.028   6.524   1.113
 5260TIP3   OH215743   5.303   6.189   3.233
 5260TIP3    H115744   5.360   6.206   3.307
 5260TIP3    H215745   5.355   6.215   3.156
 5261TIP3   OH215746   4.915   1.100   3.989
 5261TIP3    H115747   4.962   1.121   4.070
 5261TIP3    H215748   4.845   1.166   3.985
 5262TIP3   OH215749   6.588   5.978   5.902
 5262TIP3    H115750   6.637   5.897   5.912
 5262TIP3    H215751   6.563   5.981   5.809
 5263TIP3   OH215752   0.718   1.748   0.757
 5263TIP3    H115753   0.645   1.750   0.695
 5263TIP3    H215754   0.748   1.838   0.761
 5264TIP3   OH215755   0.353   3.435   4.809
 5264TIP3    H115756   0.354   3.350   4.853
 5264TIP3    H215757   0.261   3.448   4.784
 5265TIP3   OH215758   5.181   4.157   1.897
 5265TIP3    H115759   5.097   4.178   1.938
 5265TIP3    H215760   5.225   4.242   1.888
 5266TIP3   OH215761   1.076   4.563   4.907
 5266TIP3    H115762   1.062   4.657   4.917
 5266TIP3    H215763   1.171   4.552   4.917
 5267TIP3   OH215764   0.824   2.649   5.208
 5267TIP3    H115765   0.767   2.704   5.155
 5267TIP3    H215766   0.793   2.560   5.191
 5268TIP3   OH215767   7.138   6.754   3.664
 5268TIP3    H115768   7.144   6.690   3.592
 5268TIP3    H215769   7.142   6.700   3.743
 5269TIP3   OH215770   6.436   2.717   4.096
 5269TIP3    H115771   6.532   2.710   4.094
 5269TIP3    H215772   6.417   2.763   4.178
 5270TIP3   OH215773   1.926   6.695   0.104
 5270TIP3    H115774   2.018   6.679   0.128
 5270TIP3    H215775   1.930   6.764   0.038
 5271TIP3   OH215776   5.767   0.646   1.229
 5271TIP3    H115777   5.744   0.620   1.318
 5271TIP3    H215778   5.847   0.597   1.210
 5272TIP3   OH215779   3.012   4.814   3.614
 5272TIP3    H115780   3.063   4.734   3.602
 5272TIP3    H215781   2.957   4.796   3.691
 5273TIP3   OH215782   6.737   0.660   1.913
 5273TIP3    H115783   6.647   0.690   1.905
 5273TIP3    H215784   6.778   0.724   1.972
 5274TIP3   OH215785   1.646   2.400   3.805
 5274TIP3    H115786   1.734   2.380   3.839
 5274TIP3    H215787   1.657   2.482   3.757
 5275TIP3   OH215788   2.584   3.828   1.812
 5275TIP3    H115789   2.608   3.738   1.834
 5275TIP3    H215790   2.494   3.821   1.780
 5276TIP3   OH215791   4.187   4.345   2.709
 5276TIP3    H115792   4.240   4.372   2.633
 5276TIP3    H215793   4.214   4.255   2.725
 5277TIP3   OH215794   6.456   3.483   0.799
 5277TIP3    H115795   6.456   3.429   0.720
 5277TIP3    H215796   6.438   3.422   0.870
 5278TIP3   OH215797   2.725   4.995   3.191
 5278TIP3    H115798   2.753   5.065   3.132
 5278TIP3    H215799   2.804   4.943   3.207
 5279TIP3   OH215800   5.125   6.613   5.189
 5279TIP3    H115801   5.149   6.694   5.143
 5279TIP3    H215802   5.101   6.642   5.277
 5280TIP3   OH215803   0.783   3.272   2.056
 5280TIP3    H115804   0.695   3.235   2.052
 5280TIP3    H215805   0.799   3.306   1.969
 5281TIP3   OH215806   6.028   3.089   1.009
 5281TIP3    H115807   5.976   3.082   0.929
 5281TIP3    H215808   6.036   3.183   1.024
 5282TIP3   OH215809   2.538   4.456   4.556
 5282TIP3    H115810   2.624   4.489   4.527
 5282TIP3    H215811   2.515   4.511   4.630
 5283TIP3   OH215812   2.207   5.969   2.186
 5283TIP3    H115813   2.272   6.017   2.237
 5283TIP3    H215814   2.126   6.020   2.196
 5284TIP3   OH215815   5.537   6.088   0.877
 5284TIP3    H115816   5.506   6.120   0.792
 5284TIP3    H215817   5.461   6.043   0.914
 5285TIP3   OH215818   1.078   2.152   4.795
 5285TIP3    H115819   1.006   2.122   4.739
 5285TIP3    H215820   1.066   2.247   4.802
 5286TIP3   OH215821   2.904   4.784   3.284
 5286TIP3    H115822   2.840   4.787   3.355
 5286TIP3    H215823   2.955   4.705   3.302
 5287TIP3   OH215824   3.801   2.210   4.824
 5287TIP3    H115825   3.788   2.199   4.730
 5287TIP3    H215826   3.750   2.139   4.864
 5288TIP3   OH215827   1.620   2.962   2.206
 5288TIP3    H115828   1.621   3.051   2.170
 5288TIP3    H215829   1.594   2.907   2.133
 5289TIP3   OH215830   1.134   5.639   2.880
 5289TIP3    H115831   1.042   5.666   2.893
 5289TIP3    H215832   1.184   5.718   2.899
 5290TIP3   OH215833   3.696   5.181   4.674
 5290TIP3    H115834   3.740   5.261   4.703
 5290TIP3    H215835   3.603   5.201   4.677
 5291TIP3   OH215836   6.596   6.610   2.226
 5291TIP3    H115837   6.520   6.626   2.170
 5291TIP3    H215838   6.669   6.650   2.178
 5292TIP3   OH215839   5.656   6.687   0.245
 5292TIP3    H115840   5.744   6.720   0.268
 5292TIP3    H215841   5.598   6.729   0.308
 5293TIP3   OH215842   7.114   5.213   4.441
 5293TIP3    H115843   7.077   5.153   4.377
 5293TIP3    H215844   7.053   5.212   4.515
 5294TIP3   OH215845   4.518   2.127  -0.038
 5294TIP3    H115846   4.508   2.051   0.019
 5294TIP3    H215847   4.608   2.120  -0.071
 5295TIP3   OH215848   5.630   3.262   2.243
 5295TIP3    H115849   5.582   3.180   2.249
 5295TIP3    H215850   5.608   3.297   2.157
 5296TIP3   OH215851   2.881   5.094   4.432
 5296TIP3    H115852   2.939   5.117   4.359
 5296TIP3    H215853   2.923   5.020   4.474
 5297TIP3   OH215854   5.452   0.058   5.862
 5297TIP3    H115855   5.444   0.034   5.770
 5297TIP3    H215856   5.361   0.064   5.893
 5298TIP3   OH215857   3.474   2.714   3.875
 5298TIP3    H115858   3.450   2.633   3.828
 5298TIP3    H215859   3.497   2.775   3.806
 5299TIP3   OH215860   2.332   1.451   0.792
 5299TIP3    H115861   2.297   1.367   0.762
 5299TIP3    H215862   2.257   1.511   0.785
 5300TIP3   OH215863   5.395   5.830   3.607
 5300TIP3    H115864   5.417   5.787   3.525
 5300TIP3    H215865   5.307   5.797   3.628
 5301TIP3   OH215866   1.941   6.749   2.416
 5301TIP3    H115867   1.958   6.666   2.461
 5301TIP3    H215868   1.890   6.801   2.479
 5302TIP3   OH215869   4.905   2.631   5.187
 5302TIP3    H115870   4.852   2.641   5.266
 5302TIP3    H215871   4.858   2.682   5.121
 5303TIP3   OH215872   2.901   1.247   4.769
 5303TIP3    H115873   2.831   1.200   4.723
 5303TIP3    H215874   2.971   1.183   4.777
 5304TIP3   OH215875   4.944   2.591   2.370
 5304TIP3    H115876   4.892   2.510   2.361
 5304TIP3    H215877   5.021   2.564   2.420
 5305TIP3   OH215878   2.605   2.054   4.286
 5305TIP3    H115879   2.696   2.026   4.297
 5305TIP3    H215880   2.562   2.027   4.367
 5306TIP3   OH215881   3.669   1.313   5.368
 5306TIP3    H115882   3.582   1.293   5.402
 5306TIP3    H215883   3.706   1.375   5.430
 5307TIP3   OH215884   4.257   6.026   0.455
 5307TIP3    H115885   4.345   6.060   0.440
 5307TIP3    H215886   4.204   6.066   0.386
 5308TIP3   OH215887   4.862   3.929   1.730
 5308TIP3    H115888   4.927   3.999   1.737
 5308TIP3    H215889   4.883   3.885   1.647
 5309TIP3   OH215890   5.368   2.554   5.766
 5309TIP3    H115891   5.277   2.544   5.793
 5309TIP3    H215892   5.364   2.579   5.674
 5310TIP3   OH215893   2.922   6.686   2.123
 5310TIP3    H115894   2.986   6.717   2.186
 5310TIP3    H215895   2.837   6.705   2.164
 5311TIP3   OH215896   3.364   6.526   0.492
 5311TIP3    H115897   3.363   6.619   0.467
 5311TIP3    H215898   3.290   6.487   0.447
 5312TIP3   OH215899   0.394   3.141   2.782
 5312TIP3    H115900   0.334   3.103   2.718
 5312TIP3    H215901   0.373   3.096   2.864
 5313TIP3   OH215902   0.220   5.670   1.887
 5313TIP3    H115903   0.215   5.575   1.895
 5313TIP3    H215904   0.156   5.703   1.950
 5314TIP3   OH215905   1.205   2.348   1.788
 5314TIP3    H115906   1.193   2.330   1.881
 5314TIP3    H215907   1.277   2.411   1.785
 5315TIP3   OH215908   2.131   5.154   4.320
 5315TIP3    H115909   2.146   5.103   4.240
 5315TIP3    H215910   2.218   5.168   4.357
 5316TIP3   OH215911   5.405   6.236   0.283
 5316TIP3    H115912   5.346   6.275   0.218
 5316TIP3    H215913   5.490   6.273   0.262
 5317TIP3   OH215914   0.573   0.432   4.483
 5317TIP3    H115915   0.568   0.442   4.388
 5317TIP3    H215916   0.663   0.455   4.505
 5318TIP3   OH215917   4.265   5.660   4.883
 5318TIP3    H115918   4.242   5.663   4.976
 5318TIP3    H215919   4.354   5.627   4.881
 5319TIP3   OH215920   2.584   1.447   3.896
 5319TIP3    H115921   2.671   1.409   3.889
 5319TIP3    H215922   2.590   1.531   3.850
 5320TIP3   OH215923   1.534   5.604   3.720
 5320TIP3    H115924   1.544   5.554   3.638
 5320TIP3    H215925   1.519   5.694   3.690
 5321TIP3   OH215926   2.783   4.657   1.772
 5321TIP3    H115927   2.778   4.569   1.734
 5321TIP3    H215928   2.853   4.700   1.722
 5322TIP3   OH215929   7.246   0.882   4.290
 5322TIP3    H115930   7.318   0.896   4.350
 5322TIP3    H215931   7.169   0.913   4.338
 5323TIP3   OH215932   0.454   3.852   1.300
 5323TIP3    H115933   0.535   3.891   1.266
 5323TIP3    H215934   0.398   3.840   1.223
 5324TIP3   OH215935   7.056   2.092   0.104
 5324TIP3    H115936   7.070   2.139   0.186
 5324TIP3    H215937   7.143   2.060   0.080
 5325TIP3   OH215938   4.903   4.051   3.258
 5325TIP3    H115939   4.892   4.103   3.179
 5325TIP3    H215940   4.942   3.969   3.228
 5326TIP3   OH215941   2.867   6.315   2.878
 5326TIP3    H115942   2.912   6.366   2.811
 5326TIP3    H215943   2.934   6.259   2.917
 5327TIP3   OH215944   3.715   4.961   4.041
 5327TIP3    H115945   3.715   4.948   3.946
 5327TIP3    H215946   3.708   5.056   4.052
 5328TIP3   OH215947   1.304   2.576   0.186
 5328TIP3    H115948   1.251   2.585   0.107
 5328TIP3    H215949   1.394   2.577   0.154
 5329TIP3   OH215950   5.126   0.311   1.831
 5329TIP3    H115951   5.083   0.234   1.794
 5329TIP3    H215952   5.059   0.352   1.887
 5330TIP3   OH215953   3.341   0.487   3.055
 5330TIP3    H115954   3.261   0.442   3.082
 5330TIP3    H215955   3.330   0.500   2.961
 5331TIP3   OH215956   3.148   2.294   2.163
 5331TIP3    H115957   3.134   2.204   2.193
 5331TIP3    H215958   3.241   2.298   2.140
 5332TIP3   OH215959   4.078   0.785   2.569
 5332TIP3    H115960   4.110   0.696   2.584
 5332TIP3    H215961   4.139   0.841   2.617
 5333TIP3   OH215962   4.469   5.110   4.302
 5333TIP3    H115963   4.507   5.161   4.372
 5333TIP3    H215964   4.500   5.020   4.318
 5334TIP3   OH215965   4.690   5.792   4.880
 5334TIP3    H115966   4.603   5.752   4.883
 5334TIP3    H215967   4.673   5.886   4.867
 5335TIP3   OH215968   4.651   1.120   3.211
 5335TIP3    H115969   4.658   1.108   3.305
 5335TIP3    H215970   4.738   1.098   3.177
 5336TIP3   OH215971   3.242   2.432   1.825
 5336TIP3    H115972   3.322   2.402   1.868
 5336TIP3    H215973   3.272   2.477   1.746
 5337TIP3   OH215974   5.157   4.309   3.156
 5337TIP3    H115975   5.208   4.269   3.085
 5337TIP3    H215976   5.220   4.324   3.226
 5338TIP3   OH215977   3.701   1.037   3.368
 5338TIP3    H115978   3.623   1.025   3.422
 5338TIP3    H215979   3.669   1.037   3.278
 5339TIP3   OH215980   6.052   0.096   3.903
 5339TIP3    H115981   5.968   0.090   3.948
 5339TIP3    H215982   6.117   0.085   3.972
 5340TIP3   OH215983   1.292   1.748   0.127
 5340TIP3    H115984   1.365   1.714   0.177
 5340TIP3    H215985   1.221   1.758   0.191
 5341TIP3   OH215986   0.274   4.932   4.494
 5341TIP3    H115987   0.302   4.884   4.416
 5341TIP3    H215988   0.337   5.003   4.502
 5342TIP3   OH215989   4.628   4.183   0.127
 5342TIP3    H115990   4.718   4.211   0.111
 5342TIP3    H215991   4.623   4.095   0.090
 5343TIP3   OH215992   6.411   3.676   2.103
 5343TIP3    H115993   6.347   3.637   2.163
 5343TIP3    H215994   6.403   3.770   2.119
 5344TIP3   OH215995   3.919   2.603   4.716
 5344TIP3    H115996   3.905   2.642   4.803
 5344TIP3    H215997   4.002   2.640   4.687
 5345TIP3   OH215998   0.933   3.040   3.216
 5345TIP3    H115999   0.890   3.125   3.204
 5345TIP3    H216000   0.956   3.013   3.127
 5346TIP3   OH216001   1.362   5.189   3.394
 5346TIP3    H116002   1.331   5.138   3.319
 5346TIP3    H216003   1.408   5.126   3.449
 5347TIP3   OH216004   4.734   2.292   0.295
 5347TIP3    H116005   4.718   2.377   0.253
 5347TIP3    H216006   4.826   2.294   0.319
 5348TIP3   OH216007   5.710   0.106   5.645
 5348TIP3    H116008   5.756   0.130   5.725
 5348TIP3    H216009   5.652   0.179   5.627
 5349TIP3   OH216010   0.458   0.217   2.197
 5349TIP3    H116011   0.530   0.224   2.134
 5349TIP3    H216012   0.442   0.307   2.224
 5350TIP3   OH216013   0.271   6.801   2.702
 5350TIP3    H116014   0.342   6.738   2.689
 5350TIP3    H216015   0.314   6.887   2.697
 5351TIP3   OH216016   0.074   0.289   4.468
 5351TIP3    H116017   0.047   0.219   4.528
 5351TIP3    H216018   0.161   0.262   4.437
 5352TIP3   OH216019   2.442   3.487   3.002
 5352TIP3    H116020   2.405   3.406   3.038
 5352TIP3    H216021   2.520   3.459   2.954
 5353TIP3   OH216022   4.328   1.085   3.321
 5353TIP3    H116023   4.360   1.157   3.374
 5353TIP3    H216024   4.404   1.056   3.271
 5354TIP3   OH216025   0.934   0.812   3.002
 5354TIP3    H116026   0.862   0.854   2.955
 5354TIP3    H216027   1.009   0.823   2.944
 5355TIP3   OH216028   1.416   3.670   3.120
 5355TIP3    H116029   1.360   3.722   3.063
 5355TIP3    H216030   1.487   3.640   3.063
 5356TIP3   OH216031   2.661   6.692   2.240
 5356TIP3    H116032   2.643   6.621   2.303
 5356TIP3    H216033   2.708   6.757   2.292
 5357TIP3   OH216034   4.590   3.051   4.986
 5357TIP3    H116035   4.635   2.996   5.049
 5357TIP3    H216036   4.497   3.039   5.005
 5358TIP3   OH216037   1.897   5.775   1.491
 5358TIP3    H116038   1.882   5.846   1.429
 5358TIP3    H216039   1.966   5.807   1.548
 5359TIP3   OH216040   2.473   3.001   4.776
 5359TIP3    H116041   2.561   3.013   4.810
 5359TIP3    H216042   2.464   2.907   4.763
 5360TIP3   OH216043   2.440   6.751   2.546
 5360TIP3    H116044   2.489   6.674   2.516
 5360TIP3    H216045   2.493   6.786   2.618
 5361TIP3   OH216046   6.124   0.641   5.484
 5361TIP3    H116047   6.119   0.679   5.396
 5361TIP3    H216048   6.112   0.547   5.470
 5362TIP3   OH216049   0.509   0.815   5.279
 5362TIP3    H116050   0.556   0.823   5.362
 5362TIP3    H216051   0.506   0.905   5.245
 5363TIP3   OH216052   7.044   5.905   2.347
 5363TIP3    H116053   6.999   5.989   2.333
 5363TIP3    H216054   7.003   5.869   2.425
 5364TIP3   OH216055   6.537   4.379   0.227
 5364TIP3    H116056   6.452   4.398   0.266
 5364TIP3    H216057   6.516   4.341   0.142
 5365TIP3   OH216058   5.200   1.561   0.053
 5365TIP3    H116059   5.124   1.544  -0.004
 5365TIP3    H216060   5.251   1.480   0.049
 5366TIP3   OH216061   5.785   2.510   4.360
 5366TIP3    H116062   5.880   2.509   4.372
 5366TIP3    H216063   5.750   2.495   4.448
 5367TIP3   OH216064   5.930   1.033   5.210
 5367TIP3    H116065   5.844   1.069   5.187
 5367TIP3    H216066   5.985   1.054   5.135
 5368TIP3   OH216067   4.371   0.824   5.792
 5368TIP3    H116068   4.367   0.891   5.724
 5368TIP3    H216069   4.281   0.792   5.798
 5369TIP3   OH216070   4.573   4.470   5.426
 5369TIP3    H116071   4.555   4.376   5.421
 5369TIP3    H216072   4.635   4.486   5.354
 5370TIP3   OH216073   1.268   1.624   0.553
 5370TIP3    H116074   1.331   1.654   0.619
 5370TIP3    H216075   1.187   1.609   0.601
 5371TIP3   OH216076   0.713   5.103   5.438
 5371TIP3    H116077   0.788   5.059   5.399
 5371TIP3    H216078   0.677   5.157   5.368
 5372TIP3   OH216079   2.464   6.304   3.926
 5372TIP3    H116080   2.517   6.316   4.005
 5372TIP3    H216081   2.524   6.323   3.854
 5373TIP3   OH216082   0.288   2.381   3.347
 5373TIP3    H116083   0.277   2.403   3.439
 5373TIP3    H216084   0.379   2.351   3.340
 5374TIP3   OH216085   5.849   4.125   5.612
 5374TIP3    H116086   5.878   4.155   5.526
 5374TIP3    H216087   5.779   4.186   5.637
 5375TIP3   OH216088   1.006   5.225   1.545
 5375TIP3    H116089   1.011   5.296   1.481
 5375TIP3    H216090   0.913   5.216   1.563
 5376TIP3   OH216091   0.695   2.472   2.365
 5376TIP3    H116092   0.757   2.407   2.331
 5376TIP3    H216093   0.636   2.421   2.420
 5377TIP3   OH216094   5.764   2.970   5.076
 5377TIP3    H116095   5.781   3.051   5.125
 5377TIP3    H216096   5.796   2.900   5.133
 5378TIP3   OH216097   1.535   5.381   3.541
 5378TIP3    H116098   1.500   5.339   3.463
 5378TIP3    H216099   1.482   5.347   3.613
 5379TIP3   OH216100   7.181   3.314   3.136
 5379TIP3    H116101   7.233   3.371   3.192
 5379TIP3    H216102   7.232   3.234   3.129
 5380TIP3   OH216103   6.757   5.387   2.000
 5380TIP3    H116104   6.830   5.432   2.042
 5380TIP3    H216105   6.763   5.297   2.031
 5381TIP3   OH216106   4.782   1.041   4.922
 5381TIP3    H116107   4.848   1.048   4.992
 5381TIP3    H216108   4.782   0.948   4.899
 5382TIP3   OH216109   3.310   5.262   3.312
 5382TIP3    H116110   3.346   5.196   3.371
 5382TIP3    H216111   3.281   5.333   3.370
 5383TIP3   OH216112   0.636   5.256   4.354
 5383TIP3    H116113   0.684   5.190   4.304
 5383TIP3    H216114   0.660   5.339   4.313
 5384TIP3   OH216115   3.117   5.084   2.606
 5384TIP3    H116116   3.159   5.148   2.663
 5384TIP3    H216117   3.189   5.031   2.572
 5385TIP3   OH216118   4.887   3.206   1.534
 5385TIP3    H116119   4.925   3.294   1.534
 5385TIP3    H216120   4.953   3.150   1.575
 5386TIP3   OH216121   0.562   6.777   2.048
 5386TIP3    H116122   0.594   6.721   1.977
 5386TIP3    H216123   0.537   6.717   2.117
 5387TIP3   OH216124   3.849   3.491   5.009
 5387TIP3    H116125   3.796   3.469   4.932
 5387TIP3    H216126   3.939   3.491   4.977
 5388TIP3   OH216127   6.001   6.367   4.379
 5388TIP3    H116128   6.085   6.411   4.368
 5388TIP3    H216129   5.959   6.412   4.453
 5389TIP3   OH216130   6.316   2.675   1.616
 5389TIP3    H116131   6.291   2.602   1.673
 5389TIP3    H216132   6.287   2.649   1.529
 5390TIP3   OH216133   3.026   6.586   3.975
 5390TIP3    H116134   3.064   6.671   3.955
 5390TIP3    H216135   3.030   6.537   3.893
 5391TIP3   OH216136   6.162   4.790   3.885
 5391TIP3    H116137   6.226   4.795   3.814
 5391TIP3    H216138   6.121   4.704   3.875
 5392TIP3   OH216139   0.547   5.124   3.620
 5392TIP3    H116140   0.544   5.151   3.712
 5392TIP3    H216141   0.577   5.033   3.623
 5393TIP3   OH216142   2.190   2.304   1.435
 5393TIP3    H116143   2.204   2.375   1.497
 5393TIP3    H216144   2.273   2.256   1.433
 5394TIP3   OH216145   1.961   2.431   1.721
 5394TIP3    H116146   2.050   2.421   1.688
 5394TIP3    H216147   1.966   2.503   1.784
 5395TIP3   OH216148   0.575   3.687   1.842
 5395TIP3    H116149   0.565   3.719   1.931
 5395TIP3    H216150   0.504   3.623   1.831
 5396TIP3   OH216151   6.261   6.703   0.921
 5396TIP3    H116152   6.278   6.657   0.838
 5396TIP3    H216153   6.347   6.737   0.946
 5397TIP3   OH216154   5.271   2.660   1.551
 5397TIP3    H116155   5.191   2.616   1.523
 5397TIP3    H216156   5.255   2.683   1.642
 5398TIP3   OH216157   2.620   4.193   3.837
 5398TIP3    H116158   2.665   4.259   3.890
 5398TIP3    H216159   2.625   4.113   3.890
 5399TIP3   OH216160   3.335   4.397   3.333
 5399TIP3    H116161   3.259   4.356   3.293
 5399TIP3    H216162   3.313   4.403   3.426
 5400TIP3   OH216163   1.618   2.602   0.255
 5400TIP3    H116164   1.593   2.516   0.220
 5400TIP3    H216165   1.713   2.602   0.250
 5401TIP3   OH216166   0.400   5.479   4.452
 5401TIP3    H116167   0.458   5.517   4.386
 5401TIP3    H216168   0.324   5.537   4.454
 5402TIP3   OH216169   0.337   4.301   5.193
 5402TIP3    H116170   0.381   4.216   5.200
 5402TIP3    H216171   0.269   4.287   5.127
 5403TIP3   OH216172   1.789   6.454   2.370
 5403TIP3    H116173   1.764   6.387   2.307
 5403TIP3    H216174   1.780   6.537   2.323
 5404TIP3   OH216175   1.215   5.658   2.434
 5404TIP3    H116176   1.237   5.595   2.503
 5404TIP3    H216177   1.179   5.605   2.363
 5405TIP3   OH216178   3.055   0.055   1.538
 5405TIP3    H116179   3.074   0.074   1.630
 5405TIP3    H216180   2.962   0.035   1.536
 5406TIP3   OH216181   5.591   3.953   4.660
 5406TIP3    H116182   5.542   4.035   4.667
 5406TIP3    H216183   5.572   3.906   4.741
 5407TIP3   OH216184   4.588   0.098   4.510
 5407TIP3    H116185   4.675   0.065   4.488
 5407TIP3    H216186   4.593   0.192   4.493
 5408TIP3   OH216187   5.724   6.799   1.045
 5408TIP3    H116188   5.638   6.765   1.020
 5408TIP3    H216189   5.748   6.860   0.975
 5409TIP3   OH216190   4.965   2.935   2.148
 5409TIP3    H116191   4.938   2.892   2.229
 5409TIP3    H216192   4.884   2.946   2.098
 5410TIP3   OH216193   2.994   1.142   1.266
 5410TIP3    H116194   2.961   1.163   1.354
 5410TIP3    H216195   3.069   1.085   1.282
 5411TIP3   OH216196   1.691   5.434   5.628
 5411TIP3    H116197   1.759   5.422   5.562
 5411TIP3    H216198   1.718   5.377   5.701
 5412TIP3   OH216199   2.366   1.495   2.288
 5412TIP3    H116200   2.447   1.544   2.299
 5412TIP3    H216201   2.390   1.404   2.306
 5413TIP3   OH216202   4.985   2.837   0.940
 5413TIP3    H116203   4.944   2.826   0.854
 5413TIP3    H216204   5.025   2.923   0.936
 5414TIP3   OH216205   1.831   2.142   3.096
 5414TIP3    H116206   1.752   2.163   3.145
 5414TIP3    H216207   1.878   2.225   3.090
 5415TIP3   OH216208   7.214   0.752   2.231
 5415TIP3    H116209   7.169   0.676   2.196
 5415TIP3    H216210   7.152   0.790   2.293
 5416TIP3   OH216211   7.189   4.198   3.994
 5416TIP3    H116212   7.236   4.268   4.039
 5416TIP3    H216213   7.234   4.190   3.910
 5417TIP3   OH216214   6.174   1.493   0.010
 5417TIP3    H116215   6.208   1.582   0.005
 5417TIP3    H216216   6.130   1.488   0.095
 5418TIP3   OH216217   5.459   5.619   2.619
 5418TIP3    H116218   5.404   5.579   2.551
 5418TIP3    H216219   5.418   5.703   2.636
 5419TIP3   OH216220   2.623   1.175   5.300
 5419TIP3    H116221   2.529   1.195   5.301
 5419TIP3    H216222   2.626   1.079   5.304
 5420TIP3   OH216223   5.898   3.125   2.323
 5420TIP3    H116224   5.844   3.165   2.255
 5420TIP3    H216225   5.836   3.093   2.389
 5421TIP3   OH216226   3.198   6.463   1.320
 5421TIP3    H116227   3.117   6.420   1.293
 5421TIP3    H216228   3.183   6.556   1.301
 5422TIP3   OH216229   0.379   1.233   4.553
 5422TIP3    H116230   0.297   1.283   4.545
 5422TIP3    H216231   0.430   1.258   4.476
 5423TIP3   OH216232   3.849   6.475   4.240
 5423TIP3    H116233   3.875   6.390   4.275
 5423TIP3    H216234   3.871   6.471   4.147
 5424TIP3   OH216235   3.410   3.489   2.567
 5424TIP3    H116236   3.326   3.442   2.560
 5424TIP3    H216237   3.439   3.498   2.476
 5425TIP3   OH216238   1.010   2.632   3.062
 5425TIP3    H116239   1.091   2.585   3.042
 5425TIP3    H216240   0.996   2.617   3.156
 5426TIP3   OH216241   6.103   3.986   0.086
 5426TIP3    H116242   6.109   3.930   0.008
 5426TIP3    H216243   6.105   3.924   0.160
 5427TIP3   OH216244   4.291   2.523   2.156
 5427TIP3    H116245   4.234   2.541   2.081
 5427TIP3    H216246   4.359   2.466   2.121
 5428TIP3   OH216247   2.731   2.463   1.981
 5428TIP3    H116248   2.816   2.419   1.982
 5428TIP3    H216249   2.671   2.398   2.017
 5429TIP3   OH216250   3.606   6.602   4.237
 5429TIP3    H116251   3.695   6.569   4.253
 5429TIP3    H216252   3.611   6.695   4.259
 5430TIP3   OH216253   6.919   4.542   5.297
 5430TIP3    H116254   6.906   4.623   5.248
 5430TIP3    H216255   6.839   4.533   5.350
 5431TIP3   OH216256   0.026   0.122   1.918
 5431TIP3    H116257  -0.002   0.050   1.974
 5431TIP3    H216258   0.039   0.196   1.977
 5432TIP3   OH216259   4.501   3.279   3.505
 5432TIP3    H116260   4.545   3.330   3.437
 5432TIP3    H216261   4.548   3.196   3.508
 5433TIP3   OH216262   6.896   5.673   1.547
 5433TIP3    H116263   6.837   5.599   1.555
 5433TIP3    H216264   6.898   5.712   1.635
 5434TIP3   OH216265   0.324   4.187   3.093
 5434TIP3    H116266   0.350   4.279   3.103
 5434TIP3    H216267   0.269   4.169   3.168
 5435TIP3   OH216268   6.283   3.042   3.174
 5435TIP3    H116269   6.369   3.084   3.180
 5435TIP3    H216270   6.223   3.113   3.153
 5436TIP3   OH216271   1.387   1.932   1.882
 5436TIP3    H116272   1.448   1.987   1.832
 5436TIP3    H216273   1.420   1.934   1.972
 5437TIP3   OH216274   2.607   5.327   1.727
 5437TIP3    H116275   2.587   5.366   1.642
 5437TIP3    H216276   2.549   5.372   1.789
 5438TIP3   OH216277   0.529   4.549   2.272
 5438TIP3    H116278   0.537   4.614   2.201
 5438TIP3    H216279   0.568   4.469   2.236
 5439TIP3   OH216280   0.935   0.084   3.680
 5439TIP3    H116281   0.860   0.103   3.737
 5439TIP3    H216282   0.977   0.008   3.719
 5440TIP3   OH216283   6.344   0.873   3.933
 5440TIP3    H116284   6.298   0.905   4.010
 5440TIP3    H216285   6.361   0.780   3.952
 5441TIP3   OH216286   6.073   6.148   1.954
 5441TIP3    H116287   5.984   6.148   1.991
 5441TIP3    H216288   6.095   6.056   1.943
 5442TIP3   OH216289   1.206   6.026   3.831
 5442TIP3    H116290   1.145   6.067   3.892
 5442TIP3    H216291   1.247   6.100   3.784
 5443TIP3   OH216292   2.206   0.805   4.640
 5443TIP3    H116293   2.181   0.755   4.563
 5443TIP3    H216294   2.254   0.743   4.695
 5444TIP3   OH216295   2.012   2.865   0.327
 5444TIP3    H116296   1.994   2.893   0.237
 5444TIP3    H216297   1.934   2.891   0.377
 5445TIP3   OH216298   1.871   6.678   3.591
 5445TIP3    H116299   1.896   6.762   3.552
 5445TIP3    H216300   1.822   6.702   3.670
 5446TIP3   OH216301   4.820   5.397   1.689
 5446TIP3    H116302   4.783   5.476   1.649
 5446TIP3    H216303   4.799   5.405   1.782
 5447TIP3   OH216304   4.647   4.081   3.390
 5447TIP3    H116305   4.725   4.025   3.385
 5447TIP3    H216306   4.677   4.160   3.435
 5448TIP3   OH216307   3.018   0.741   0.599
 5448TIP3    H116308   3.097   0.688   0.608
 5448TIP3    H216309   2.996   0.766   0.689
 5449TIP3   OH216310   5.125   4.422   5.328
 5449TIP3    H116311   5.041   4.395   5.365
 5449TIP3    H216312   5.191   4.373   5.378
 5450TIP3   OH216313   6.299   2.195   4.587
 5450TIP3    H116314   6.348   2.225   4.664
 5450TIP3    H216315   6.367   2.165   4.526
 5451TIP3   OH216316   1.608   0.271   4.026
 5451TIP3    H116317   1.671   0.340   4.047
 5451TIP3    H216318   1.558   0.259   4.106
 5452TIP3   OH216319   5.715   5.114   5.241
 5452TIP3    H116320   5.676   5.179   5.300
 5452TIP3    H216321   5.783   5.162   5.194
 5453TIP3   OH216322   0.655   6.233   1.436
 5453TIP3    H116323   0.711   6.197   1.505
 5453TIP3    H216324   0.678   6.182   1.358
 5454TIP3   OH216325   1.577   2.037   4.262
 5454TIP3    H116326   1.604   1.948   4.239
 5454TIP3    H216327   1.653   2.075   4.307
 5455TIP3   OH216328   2.089   5.251   3.764
 5455TIP3    H116329   2.163   5.198   3.733
 5455TIP3    H216330   2.095   5.332   3.714
 5456TIP3   OH216331   1.896   4.191   0.684
 5456TIP3    H116332   1.945   4.130   0.630
 5456TIP3    H216333   1.926   4.176   0.773
 5457TIP3   OH216334   3.093   4.284   0.462
 5457TIP3    H116335   3.015   4.288   0.517
 5457TIP3    H216336   3.149   4.355   0.494
 5458TIP3   OH216337   1.976   2.428   2.392
 5458TIP3    H116338   1.937   2.478   2.321
 5458TIP3    H216339   2.043   2.486   2.429
 5459TIP3   OH216340   3.808   0.508   4.439
 5459TIP3    H116341   3.834   0.597   4.415
 5459TIP3    H216342   3.890   0.458   4.438
 5460TIP3   OH216343   6.855   3.864   0.089
 5460TIP3    H116344   6.803   3.817   0.154
 5460TIP3    H216345   6.896   3.935   0.138
 5461TIP3   OH216346   6.398   1.270   1.554
 5461TIP3    H116347   6.451   1.268   1.475
 5461TIP3    H216348   6.330   1.204   1.539
 5462TIP3   OH216349   2.919   3.027   3.466
 5462TIP3    H116350   2.900   2.982   3.548
 5462TIP3    H216351   2.928   2.958   3.401
 5463TIP3   OH216352   1.891   1.891   4.615
 5463TIP3    H116353   1.851   1.835   4.681
 5463TIP3    H216354   1.860   1.856   4.531
 5464TIP3   OH216355   4.012   5.619   5.656
 5464TIP3    H116356   3.923   5.594   5.634
 5464TIP3    H216357   4.063   5.539   5.643
 5465TIP3   OH216358   0.547   1.745   3.773
 5465TIP3    H116359   0.629   1.790   3.753
 5465TIP3    H216360   0.491   1.812   3.812
 5466TIP3   OH216361   2.804   5.077   0.459
 5466TIP3    H116362   2.888   5.084   0.415
 5466TIP3    H216363   2.825   5.077   0.552
 5467TIP3   OH216364   4.477   5.396   2.824
 5467TIP3    H116365   4.431   5.335   2.765
 5467TIP3    H216366   4.424   5.396   2.903
 5468TIP3   OH216367   4.414   1.306   3.501
 5468TIP3    H116368   4.477   1.349   3.443
 5468TIP3    H216369   4.399   1.368   3.572
 5469TIP3   OH216370   5.847   2.605   1.129
 5469TIP3    H116371   5.761   2.638   1.155
 5469TIP3    H216372   5.829   2.530   1.073
 5470TIP3   OH216373   6.998   1.850   5.543
 5470TIP3    H116374   6.926   1.901   5.580
 5470TIP3    H216375   6.971   1.833   5.453
 5471TIP3   OH216376   4.178   4.650   0.300
 5471TIP3    H116377   4.177   4.741   0.327
 5471TIP3    H216378   4.130   4.603   0.368
 5472TIP3   OH216379   5.097   0.964   4.829
 5472TIP3    H116380   5.049   0.882   4.844
 5472TIP3    H216381   5.105   0.969   4.734
 5473TIP3   OH216382   0.584   0.562   0.435
 5473TIP3    H116383   0.606   0.497   0.367
 5473TIP3    H216384   0.611   0.521   0.517
 5474TIP3   OH216385   1.259   2.482   3.049
 5474TIP3    H116386   1.279   2.417   3.116
 5474TIP3    H216387   1.312   2.456   2.974
 5475TIP3   OH216388   1.017   0.908   2.120
 5475TIP3    H116389   0.986   0.910   2.211
 5475TIP3    H216390   1.103   0.949   2.123
 5476TIP3   OH216391   4.658   5.896   4.154
 5476TIP3    H116392   4.708   5.852   4.086
 5476TIP3    H216393   4.688   5.858   4.236
 5477TIP3   OH216394   0.104   6.495   0.101
 5477TIP3    H116395   0.153   6.546   0.165
 5477TIP3    H216396   0.134   6.405   0.112
 5478TIP3   OH216397   4.543   6.696   4.276
 5478TIP3    H116398   4.560   6.673   4.184
 5478TIP3    H216399   4.608   6.647   4.326
 5479TIP3   OH216400   3.653   0.556   3.393
 5479TIP3    H116401   3.575   0.580   3.441
 5479TIP3    H216402   3.629   0.476   3.346
 5480TIP3   OH216403   5.670   5.777   1.214
 5480TIP3    H116404   5.755   5.767   1.171
 5480TIP3    H216405   5.639   5.864   1.187
 5481TIP3   OH216406   5.216   2.174   1.375
 5481TIP3    H116407   5.208   2.085   1.411
 5481TIP3    H216408   5.282   2.216   1.429
 5482TIP3   OH216409   6.414   0.407   2.932
 5482TIP3    H116410   6.328   0.383   2.968
 5482TIP3    H216411   6.412   0.503   2.929
 5483TIP3   OH216412   4.608   0.468   5.561
 5483TIP3    H116413   4.550   0.405   5.605
 5483TIP3    H216414   4.623   0.536   5.626
 5484TIP3   OH216415   6.931   2.464   5.443
 5484TIP3    H116416   6.871   2.538   5.442
 5484TIP3    H216417   6.916   2.422   5.527
 5485TIP3   OH216418   4.824   3.803   1.463
 5485TIP3    H116419   4.849   3.895   1.451
 5485TIP3    H216420   4.884   3.755   1.406
 5486TIP3   OH216421   5.592   4.801   4.781
 5486TIP3    H116422   5.616   4.873   4.839
 5486TIP3    H216423   5.545   4.739   4.838
 5487TIP3   OH216424   4.531   4.563   3.936
 5487TIP3    H116425   4.593   4.621   3.980
 5487TIP3    H216426   4.576   4.479   3.930
 5488TIP3   OH216427   4.791   2.091   5.057
 5488TIP3    H116428   4.785   2.184   5.037
 5488TIP3    H216429   4.755   2.082   5.145
 5489TIP3   OH216430   3.473   6.601   5.559
 5489TIP3    H116431   3.557   6.560   5.581
 5489TIP3    H216432   3.471   6.680   5.612
 5490TIP3   OH216433   3.736   1.766   1.530
 5490TIP3    H116434   3.727   1.711   1.452
 5490TIP3    H216435   3.782   1.844   1.499
 5491TIP3   OH216436   1.545   6.230   3.912
 5491TIP3    H116437   1.550   6.276   3.996
 5491TIP3    H216438   1.579   6.143   3.930
 5492TIP3   OH216439   2.428   6.763   4.483
 5492TIP3    H116440   2.498   6.778   4.419
 5492TIP3    H216441   2.423   6.668   4.491
 5493TIP3   OH216442   3.402   1.692   2.864
 5493TIP3    H116443   3.433   1.772   2.907
 5493TIP3    H216444   3.395   1.628   2.935
 5494TIP3   OH216445   2.468   5.861   4.463
 5494TIP3    H116446   2.476   5.868   4.367
 5494TIP3    H216447   2.467   5.767   4.480
 5495TIP3   OH216448   6.225   3.672   5.891
 5495TIP3    H116449   6.310   3.716   5.887
 5495TIP3    H216450   6.178   3.703   5.813
 5496TIP3   OH216451   5.513   0.521   3.379
 5496TIP3    H116452   5.549   0.434   3.360
 5496TIP3    H216453   5.422   0.515   3.353
 5497TIP3   OH216454   4.954   5.294   0.413
 5497TIP3    H116455   5.034   5.332   0.377
 5497TIP3    H216456   4.984   5.244   0.489
 5498TIP3   OH216457   0.635   1.284   2.209
 5498TIP3    H116458   0.670   1.198   2.187
 5498TIP3    H216459   0.540   1.273   2.204
 5499TIP3   OH216460   3.445   6.338   4.411
 5499TIP3    H116461   3.401   6.334   4.496
 5499TIP3    H216462   3.491   6.254   4.404
 5500TIP3   OH216463   1.652   5.489   5.223
 5500TIP3    H116464   1.561   5.459   5.218
 5500TIP3    H216465   1.649   5.579   5.189
 5501TIP3   OH216466   0.753   0.096   3.938
 5501TIP3    H116467   0.734   0.011   3.898
 5501TIP3    H216468   0.812   0.077   4.011
 5502TIP3   OH216469   1.706   6.850   4.091
 5502TIP3    H116470   1.722   6.762   4.124
 5502TIP3    H216471   1.720   6.843   3.996
 5503TIP3   OH216472   4.534   4.649   5.043
 5503TIP3    H116473   4.458   4.702   5.065
 5503TIP3    H216474   4.593   4.659   5.118
 5504TIP3   OH216475   4.139   4.381   2.976
 5504TIP3    H116476   4.210   4.438   3.006
 5504TIP3    H216477   4.151   4.376   2.881
 5505TIP3   OH216478   0.536   1.313   3.781
 5505TIP3    H116479   0.489   1.242   3.737
 5505TIP3    H216480   0.476   1.387   3.778
 5506TIP3   OH216481   2.206   4.854   1.076
 5506TIP3    H116482   2.172   4.857   0.987
 5506TIP3    H216483   2.128   4.850   1.132
 5507TIP3   OH216484   6.306   5.849   4.937
 5507TIP3    H116485   6.307   5.927   4.882
 5507TIP3    H216486   6.216   5.844   4.970
 5508TIP3   OH216487   1.708   4.372   4.210
 5508TIP3    H116488   1.754   4.374   4.127
 5508TIP3    H216489   1.753   4.303   4.260
 5509TIP3   OH216490   2.389   4.594   0.826
 5509TIP3    H116491   2.341   4.662   0.778
 5509TIP3    H216492   2.457   4.564   0.765
 5510TIP3   OH216493   5.424   0.860   2.401
 5510TIP3    H116494   5.441   0.948   2.435
 5510TIP3    H216495   5.428   0.803   2.477
 5511TIP3   OH216496   6.195   3.040   5.008
 5511TIP3    H116497   6.123   3.090   5.045
 5511TIP3    H216498   6.262   3.041   5.077
 5512TIP3   OH216499   2.459   3.389   3.782
 5512TIP3    H116500   2.453   3.447   3.858
 5512TIP3    H216501   2.450   3.301   3.819
 5513TIP3   OH216502   1.781   1.438   4.036
 5513TIP3    H116503   1.791   1.344   4.051
 5513TIP3    H216504   1.690   1.447   4.009
 5514TIP3   OH216505   6.566   6.575   0.231
 5514TIP3    H116506   6.526   6.512   0.291
 5514TIP3    H216507   6.636   6.527   0.188
 5515TIP3   OH216508   4.656   2.327   3.119
 5515TIP3    H116509   4.653   2.408   3.170
 5515TIP3    H216510   4.565   2.300   3.111
 5516TIP3   OH216511   1.048   1.573   3.867
 5516TIP3    H116512   1.077   1.589   3.957
 5516TIP3    H216513   1.008   1.485   3.870
 5517TIP3   OH216514   0.293   2.378   3.962
 5517TIP3    H116515   0.247   2.456   3.993
 5517TIP3    H216516   0.369   2.371   4.019
 5518TIP3   OH216517   1.674   1.995   0.209
 5518TIP3    H116518   1.722   2.072   0.239
 5518TIP3    H216519   1.684   1.996   0.113
 5519TIP3   OH216520   2.786   2.910   5.762
 5519TIP3    H116521   2.711   2.956   5.725
 5519TIP3    H216522   2.848   2.903   5.689
 5520TIP3   OH216523   2.614   2.035   2.672
 5520TIP3    H116524   2.676   2.031   2.598
 5520TIP3    H216525   2.569   1.951   2.669
 5521TIP3   OH216526   1.951   4.784   2.683
 5521TIP3    H116527   1.953   4.695   2.647
 5521TIP3    H216528   2.032   4.824   2.652
 5522TIP3   OH216529   2.737   4.437   5.399
 5522TIP3    H116530   2.685   4.419   5.321
 5522TIP3    H216531   2.827   4.423   5.372
 5523TIP3   OH216532   4.056   2.232   0.244
 5523TIP3    H116533   4.073   2.309   0.298
 5523TIP3    H216534   3.982   2.189   0.287
 5524TIP3   OH216535   0.513   0.799   4.151
 5524TIP3    H116536   0.476   0.874   4.105
 5524TIP3    H216537   0.493   0.815   4.243
 5525TIP3   OH216538   4.707   3.852   4.467
 5525TIP3    H116539   4.713   3.806   4.384
 5525TIP3    H216540   4.669   3.937   4.445
 5526TIP3   OH216541   6.730   0.511   0.193
 5526TIP3    H116542   6.738   0.592   0.244
 5526TIP3    H216543   6.815   0.469   0.203
 5527TIP3   OH216544   2.008   1.477   5.832
 5527TIP3    H116545   1.945   1.407   5.850
 5527TIP3    H216546   2.052   1.491   5.915
 5528TIP3   OH216547   1.358   0.940   4.495
 5528TIP3    H116548   1.405   0.867   4.453
 5528TIP3    H216549   1.397   0.947   4.582
 5529TIP3   OH216550   4.269   6.759   1.544
 5529TIP3    H116551   4.234   6.848   1.540
 5529TIP3    H216552   4.281   6.734   1.452
 5530TIP3   OH216553   2.279   3.514   3.630
 5530TIP3    H116554   2.200   3.546   3.673
 5530TIP3    H216555   2.339   3.493   3.702
 5531TIP3   OH216556   4.387   4.903   3.984
 5531TIP3    H116557   4.358   4.992   3.964
 5531TIP3    H216558   4.306   4.851   3.982
 5532TIP3   OH216559   1.145   3.083   3.400
 5532TIP3    H116560   1.071   3.138   3.424
 5532TIP3    H216561   1.119   3.042   3.317
 5533TIP3   OH216562   1.397   3.072   4.286
 5533TIP3    H116563   1.445   2.991   4.301
 5533TIP3    H216564   1.464   3.140   4.288
 5534TIP3   OH216565   2.563   6.264   3.481
 5534TIP3    H116566   2.555   6.293   3.572
 5534TIP3    H216567   2.514   6.329   3.430
 5535TIP3   OH216568   4.616   2.726   4.285
 5535TIP3    H116569   4.580   2.810   4.314
 5535TIP3    H216570   4.624   2.734   4.190
 5536TIP3   OH216571   2.731   3.878   4.371
 5536TIP3    H116572   2.649   3.917   4.401
 5536TIP3    H216573   2.764   3.939   4.305
 5537TIP3   OH216574   5.479   4.004   0.802
 5537TIP3    H116575   5.541   4.070   0.772
 5537TIP3    H216576   5.408   4.007   0.737
 5538TIP3   OH216577   5.902   4.284   2.906
 5538TIP3    H116578   5.917   4.377   2.889
 5538TIP3    H216579   5.963   4.239   2.848
 5539TIP3   OH216580   4.729   6.298   1.570
 5539TIP3    H116581   4.784   6.309   1.648
 5539TIP3    H216582   4.693   6.209   1.579
 5540TIP3   OH216583   5.876   3.969   5.137
 5540TIP3    H116584   5.871   3.878   5.168
 5540TIP3    H216585   5.958   3.973   5.089
 5541TIP3   OH216586   0.327   6.748   5.851
 5541TIP3    H116587   0.325   6.818   5.915
 5541TIP3    H216588   0.287   6.786   5.772
 5542TIP3   OH216589   0.205   1.056   5.413
 5542TIP3    H116590   0.272   1.069   5.346
 5542TIP3    H216591   0.123   1.057   5.365
 5543TIP3   OH216592   3.658   0.510   5.536
 5543TIP3    H116593   3.570   0.547   5.531
 5543TIP3    H216594   3.707   0.553   5.466
 5544TIP3   OH216595   0.614   3.219   3.408
 5544TIP3    H116596   0.567   3.302   3.415
 5544TIP3    H216597   0.547   3.152   3.421
 5545TIP3   OH216598   2.745   2.373   1.719
 5545TIP3    H116599   2.738   2.281   1.744
 5545TIP3    H216600   2.731   2.422   1.800
 5546TIP3   OH216601   4.812   1.680   4.218
 5546TIP3    H116602   4.884   1.676   4.156
 5546TIP3    H216603   4.778   1.591   4.221
 5547TIP3   OH216604   2.464   4.465   3.739
 5547TIP3    H116605   2.387   4.500   3.694
 5547TIP3    H216606   2.456   4.370   3.730
 5548TIP3   OH216607   1.480   2.965   5.619
 5548TIP3    H116608   1.546   3.030   5.596
 5548TIP3    H216609   1.409   2.980   5.557
 5549TIP3   OH216610   0.429   3.420   2.498
 5549TIP3    H116611   0.453   3.412   2.590
 5549TIP3    H216612   0.412   3.513   2.486
 5550TIP3   OH216613   5.675   2.676   2.509
 5550TIP3    H116614   5.610   2.700   2.443
 5550TIP3    H216615   5.692   2.583   2.493
 5551TIP3   OH216616   3.713   5.688   4.872
 5551TIP3    H116617   3.705   5.781   4.851
 5551TIP3    H216618   3.717   5.645   4.787
 5552TIP3   OH216619   4.680   5.965   0.532
 5552TIP3    H116620   4.660   6.053   0.564
 5552TIP3    H216621   4.773   5.969   0.510
 5553TIP3   OH216622   0.306   0.415   2.607
 5553TIP3    H116623   0.326   0.498   2.649
 5553TIP3    H216624   0.361   0.351   2.654
 5554TIP3   OH216625   1.611   2.247   2.084
 5554TIP3    H116626   1.524   2.246   2.043
 5554TIP3    H216627   1.652   2.327   2.052
 5555TIP3   OH216628   5.414   6.679   5.266
 5555TIP3    H116629   5.475   6.742   5.302
 5555TIP3    H216630   5.337   6.731   5.241
 5556TIP3   OH216631   1.790   2.769   4.491
 5556TIP3    H116632   1.823   2.826   4.561
 5556TIP3    H216633   1.764   2.689   4.536
 5557TIP3   OH216634   1.933   5.159   4.091
 5557TIP3    H116635   1.920   5.230   4.028
 5557TIP3    H216636   1.917   5.079   4.040
 5558TIP3   OH216637   3.999   4.271   3.195
 5558TIP3    H116638   3.925   4.327   3.220
 5558TIP3    H216639   4.034   4.312   3.116
 5559TIP3   OH216640   0.382   5.418   1.945
 5559TIP3    H116641   0.424   5.332   1.953
 5559TIP3    H216642   0.339   5.431   2.029
 5560TIP3   OH216643   0.992   4.455   0.864
 5560TIP3    H116644   0.961   4.374   0.823
 5560TIP3    H216645   0.914   4.492   0.906
 5561TIP3   OH216646   6.720   5.919   4.271
 5561TIP3    H116647   6.762   5.938   4.188
 5561TIP3    H216648   6.760   5.837   4.301
 5562TIP3   OH216649   3.619   3.791   2.429
 5562TIP3    H116650   3.646   3.763   2.517
 5562TIP3    H216651   3.640   3.717   2.373
 5563TIP3   OH216652   3.217   2.963   0.016
 5563TIP3    H116653   3.211   2.993   0.107
 5563TIP3    H216654   3.149   2.896   0.008
 5564TIP3   OH216655   0.017   4.115   0.057
 5564TIP3    H116656   0.107   4.115   0.092
 5564TIP3    H216657  -0.003   4.208   0.045
 5565TIP3   OH216658   5.791   5.304   2.637
 5565TIP3    H116659   5.761   5.358   2.710
 5565TIP3    H216660   5.810   5.366   2.567
 5566TIP3   OH216661   6.428   5.076   0.897
 5566TIP3    H116662   6.458   5.162   0.866
 5566TIP3    H216663   6.363   5.097   0.964
 5567TIP3   OH216664   5.410   0.270   2.291
 5567TIP3    H116665   5.433   0.319   2.212
 5567TIP3    H216666   5.435   0.329   2.363
 5568TIP3   OH216667   6.736   4.732   0.935
 5568TIP3    H116668   6.746   4.827   0.941
 5568TIP3    H216669   6.758   4.700   1.022
 5569TIP3   OH216670   1.474   6.338   0.467
 5569TIP3    H116671   1.513   6.412   0.513
 5569TIP3    H216672   1.380   6.350   0.475
 5570TIP3   OH216673   2.452   3.685   4.745
 5570TIP3    H116674   2.364   3.698   4.710
 5570TIP3    H216675   2.455   3.592   4.769
 5571TIP3   OH216676   2.696   1.243   2.566
 5571TIP3    H116677   2.722   1.204   2.649
 5571TIP3    H216678   2.719   1.335   2.574
 5572TIP3   OH216679   2.904   2.045   5.161
 5572TIP3    H116680   2.946   1.967   5.125
 5572TIP3    H216681   2.885   2.099   5.084
 5573TIP3   OH216682   2.143   4.060   1.246
 5573TIP3    H116683   2.162   4.139   1.195
 5573TIP3    H216684   2.077   4.088   1.308
 5574TIP3   OH216685   5.707   4.454   4.584
 5574TIP3    H116686   5.768   4.493   4.646
 5574TIP3    H216687   5.749   4.372   4.558
 5575TIP3   OH216688   1.770   5.948   4.579
 5575TIP3    H116689   1.769   5.985   4.667
 5575TIP3    H216690   1.854   5.903   4.573
 5576TIP3   OH216691   2.586   1.236   4.938
 5576TIP3    H116692   2.497   1.220   4.970
 5576TIP3    H216693   2.631   1.276   5.013
 5577TIP3   OH216694   3.686   6.405   1.287
 5577TIP3    H116695   3.622   6.408   1.358
 5577TIP3    H216696   3.651   6.465   1.220
 5578TIP3   OH216697   6.228   5.952   0.115
 5578TIP3    H116698   6.299   5.977   0.174
 5578TIP3    H216699   6.272   5.928   0.033
 5579TIP3   OH216700   2.556   1.767   3.221
 5579TIP3    H116701   2.540   1.858   3.196
 5579TIP3    H216702   2.484   1.745   3.280
 5580TIP3   OH216703   2.821   1.035   0.187
 5580TIP3    H116704   2.876   1.068   0.258
 5580TIP3    H216705   2.744   0.999   0.231
 5581TIP3   OH216706   2.369   6.577   0.832
 5581TIP3    H116707   2.383   6.488   0.801
 5581TIP3    H216708   2.402   6.577   0.921
 5582TIP3   OH216709   4.373   3.980   4.713
 5582TIP3    H116710   4.438   4.026   4.767
 5582TIP3    H216711   4.291   3.988   4.763
 5583TIP3   OH216712   2.226   4.631   5.667
 5583TIP3    H116713   2.205   4.625   5.760
 5583TIP3    H216714   2.292   4.565   5.652
 5584TIP3   OH216715   2.035   0.560   2.699
 5584TIP3    H116716   1.945   0.591   2.695
 5584TIP3    H216717   2.033   0.473   2.659
 5585TIP3   OH216718   3.221   4.807   2.322
 5585TIP3    H116719   3.287   4.840   2.383
 5585TIP3    H216720   3.207   4.878   2.260
 5586TIP3   OH216721   1.995   6.345   3.909
 5586TIP3    H116722   1.956   6.326   3.995
 5586TIP3    H216723   2.073   6.397   3.929
 5587TIP3   OH216724   3.297   2.210   2.802
 5587TIP3    H116725   3.331   2.275   2.865
 5587TIP3    H216726   3.209   2.241   2.782
 5588TIP3   OH216727   6.085   1.686   2.961
 5588TIP3    H116728   6.122   1.658   2.877
 5588TIP3    H216729   6.055   1.775   2.945
 5589TIP3   OH216730   1.862   4.264   0.134
 5589TIP3    H116731   1.773   4.299   0.125
 5589TIP3    H216732   1.918   4.336   0.107
 5590TIP3   OH216733   4.282   2.015   5.890
 5590TIP3    H116734   4.328   2.097   5.877
 5590TIP3    H216735   4.329   1.972   5.962
 5591TIP3   OH216736   1.005   5.304   4.495
 5591TIP3    H116737   0.993   5.388   4.538
 5591TIP3    H216738   0.919   5.263   4.498
 5592TIP3   OH216739   0.947   1.458   3.498
 5592TIP3    H116740   0.879   1.454   3.566
 5592TIP3    H216741   0.921   1.391   3.435
 5593TIP3   OH216742   0.963   5.640   0.037
 5593TIP3    H116743   0.945   5.558   0.083
 5593TIP3    H216744   0.877   5.681   0.026
 5594TIP3   OH216745   6.591   3.179   2.355
 5594TIP3    H116746   6.582   3.192   2.261
 5594TIP3    H216747   6.624   3.089   2.363
 5595TIP3   OH216748   4.317   3.085   5.024
 5595TIP3    H116749   4.264   3.064   4.948
 5595TIP3    H216750   4.262   3.143   5.077
 5596TIP3   OH216751   5.972   5.254   4.791
 5596TIP3    H116752   5.904   5.249   4.724
 5596TIP3    H216753   6.044   5.301   4.749
 5597TIP3   OH216754   6.628   4.963   5.435
 5597TIP3    H116755   6.602   4.995   5.521
 5597TIP3    H216756   6.686   4.889   5.453
 5598TIP3   OH216757   0.641   4.379   0.562
 5598TIP3    H116758   0.570   4.366   0.499
 5598TIP3    H216759   0.629   4.310   0.627
 5599TIP3   OH216760   6.493   0.349   5.071
 5599TIP3    H116761   6.520   0.266   5.110
 5599TIP3    H216762   6.527   0.345   4.981
 5600TIP3   OH216763   2.363   4.321   4.069
 5600TIP3    H116764   2.376   4.372   4.149
 5600TIP3    H216765   2.422   4.246   4.079
 5601TIP3   OH216766   5.038   1.258   3.711
 5601TIP3    H116767   4.958   1.282   3.758
 5601TIP3    H216768   5.014   1.179   3.663
 5602TIP3   OH216769   2.521   4.088   4.149
 5602TIP3    H116770   2.615   4.103   4.159
 5602TIP3    H216771   2.497   4.032   4.223
 5603TIP3   OH216772   1.939   4.373   4.441
 5603TIP3    H116773   1.891   4.341   4.364
 5603TIP3    H216774   1.977   4.294   4.480
 5604TIP3   OH216775   0.856   5.813   2.766
 5604TIP3    H116776   0.902   5.894   2.746
 5604TIP3    H216777   0.767   5.827   2.732
 5605TIP3   OH216778   5.687   0.670   4.530
 5605TIP3    H116779   5.697   0.766   4.532
 5605TIP3    H216780   5.598   0.657   4.496
 5606TIP3   OH216781   3.171   1.439   4.970
 5606TIP3    H116782   3.164   1.465   4.878
 5606TIP3    H216783   3.105   1.371   4.981
 5607TIP3   OH216784   2.082   0.759   1.922
 5607TIP3    H116785   1.992   0.748   1.892
 5607TIP3    H216786   2.122   0.817   1.857
 5608TIP3   OH216787   2.216   2.885   1.740
 5608TIP3    H116788   2.293   2.830   1.726
 5608TIP3    H216789   2.144   2.822   1.747
 5609TIP3   OH216790   4.543   3.024   4.277
 5609TIP3    H116791   4.484   3.093   4.247
 5609TIP3    H216792   4.617   3.027   4.216
 5610TIP3   OH216793   5.396   6.526   3.104
 5610TIP3    H116794   5.424   6.552   3.191
 5610TIP3    H216795   5.464   6.465   3.074
 5611TIP3   OH216796   0.279   2.303   5.263
 5611TIP3    H116797   0.368   2.334   5.283
 5611TIP3    H216798   0.222   2.369   5.304
 5612TIP3   OH216799   3.913   5.260   4.080
 5612TIP3    H116800   3.988   5.209   4.051
 5612TIP3    H216801   3.857   5.266   4.002
 5613TIP3   OH216802   6.181   4.097   2.506
 5613TIP3    H116803   6.270   4.076   2.476
 5613TIP3    H216804   6.140   4.012   2.521
 5614TIP3   OH216805   6.832   5.957   0.878
 5614TIP3    H116806   6.928   5.955   0.888
 5614TIP3    H216807   6.811   5.873   0.838
 5615TIP3   OH216808   2.976   5.339   1.637
 5615TIP3    H116809   3.001   5.431   1.649
 5615TIP3    H216810   2.965   5.329   1.543
 5616TIP3   OH216811   5.814   4.557   0.264
 5616TIP3    H116812   5.816   4.652   0.277
 5616TIP3    H216813   5.723   4.532   0.279
 5617TIP3   OH216814   6.358   3.219   1.427
 5617TIP3    H116815   6.317   3.198   1.511
 5617TIP3    H216816   6.450   3.194   1.439
 5618TIP3   OH216817   2.679   0.208   0.523
 5618TIP3    H116818   2.751   0.199   0.461
 5618TIP3    H216819   2.606   0.241   0.470
 5619TIP3   OH216820   2.782   3.721   4.582
 5619TIP3    H116821   2.862   3.683   4.544
 5619TIP3    H216822   2.747   3.776   4.512
 5620TIP3   OH216823   5.414   1.390   3.155
 5620TIP3    H116824   5.377   1.302   3.152
 5620TIP3    H216825   5.485   1.385   3.219
 5621TIP3   OH216826   4.551   3.478   1.131
 5621TIP3    H116827   4.460   3.493   1.109
 5621TIP3    H216828   4.560   3.383   1.134
 5622TIP3   OH216829   6.791   5.101   2.079
 5622TIP3    H116830   6.752   5.039   2.017
 5622TIP3    H216831   6.720   5.123   2.139
 5623TIP3   OH216832   6.426   2.463   0.410
 5623TIP3    H116833   6.388   2.514   0.338
 5623TIP3    H216834   6.354   2.450   0.472
 5624TIP3   OH216835   1.020   3.693   1.191
 5624TIP3    H116836   1.057   3.633   1.125
 5624TIP3    H216837   1.095   3.716   1.246
 5625TIP3   OH216838   0.003   6.017   2.736
 5625TIP3    H116839   0.096   6.015   2.711
 5625TIP3    H216840  -0.039   6.071   2.669
 5626TIP3   OH216841   3.332   3.984   5.433
 5626TIP3    H116842   3.263   3.991   5.367
 5626TIP3    H216843   3.399   4.047   5.405
 5627TIP3   OH216844   2.048   3.712   5.700
 5627TIP3    H116845   2.040   3.804   5.725
 5627TIP3    H216846   2.011   3.664   5.774
 5628TIP3   OH216847   5.170   5.974   0.747
 5628TIP3    H116848   5.193   6.004   0.659
 5628TIP3    H216849   5.096   5.914   0.733
 5629TIP3   OH216850   2.288   1.531   4.866
 5629TIP3    H116851   2.212   1.518   4.923
 5629TIP3    H216852   2.308   1.624   4.874
 5630TIP3   OH216853   6.988   0.895   2.279
 5630TIP3    H116854   6.910   0.865   2.325
 5630TIP3    H216855   6.963   0.980   2.243
 5631TIP3   OH216856   3.863   2.705   3.184
 5631TIP3    H116857   3.773   2.699   3.152
 5631TIP3    H216858   3.912   2.745   3.112
 5632TIP3   OH216859   5.279   6.385   0.900
 5632TIP3    H116860   5.282   6.298   0.940
 5632TIP3    H216861   5.187   6.411   0.906
 5633TIP3   OH216862   4.976   3.337   2.341
 5633TIP3    H116863   4.940   3.388   2.268
 5633TIP3    H216864   4.907   3.273   2.362
 5634TIP3   OH216865   1.546   3.269   1.810
 5634TIP3    H116866   1.537   3.332   1.882
 5634TIP3    H216867   1.575   3.321   1.735
 5635TIP3   OH216868   2.242   1.306   2.024
 5635TIP3    H116869   2.321   1.358   2.013
 5635TIP3    H216870   2.180   1.365   2.066
 5636TIP3   OH216871   4.877   4.439   0.692
 5636TIP3    H116872   4.793   4.433   0.738
 5636TIP3    H216873   4.862   4.393   0.609
 5637TIP3   OH216874   4.548   3.278   0.474
 5637TIP3    H116875   4.519   3.192   0.504
 5637TIP3    H216876   4.538   3.334   0.552
 5638TIP3   OH216877   1.881   0.955   0.351
 5638TIP3    H116878   1.797   0.960   0.305
 5638TIP3    H216879   1.868   0.886   0.417
 5639TIP3   OH216880   6.099   2.801   4.933
 5639TIP3    H116881   6.134   2.882   4.970
 5639TIP3    H216882   6.166   2.770   4.873
 5640TIP3   OH216883   5.224   4.357   1.261
 5640TIP3    H116884   5.264   4.365   1.175
 5640TIP3    H216885   5.278   4.412   1.318
 5641TIP3   OH216886   4.091   5.878   2.871
 5641TIP3    H116887   4.094   5.973   2.859
 5641TIP3    H216888   4.046   5.845   2.792
 5642TIP3   OH216889   6.722   4.510   5.495
 5642TIP3    H116890   6.767   4.469   5.569
 5642TIP3    H216891   6.636   4.534   5.529
 5643TIP3   OH216892   0.714   6.626   4.010
 5643TIP3    H116893   0.673   6.705   4.045
 5643TIP3    H216894   0.641   6.564   4.000
 5644TIP3   OH216895   1.938   2.063   0.977
 5644TIP3    H116896   1.897   2.008   0.910
 5644TIP3    H216897   2.027   2.027   0.986
 5645TIP3   OH216898   0.357   5.071   2.306
 5645TIP3    H116899   0.311   5.128   2.367
 5645TIP3    H216900   0.288   5.021   2.263
 5646TIP3   OH216901   6.335   3.957   3.843
 5646TIP3    H116902   6.245   3.935   3.868
 5646TIP3    H216903   6.331   3.965   3.747
 5647TIP3   OH216904   1.908   2.650   2.215
 5647TIP3    H116905   1.824   2.674   2.254
 5647TIP3    H216906   1.946   2.734   2.188
 5648TIP3   OH216907   6.258   4.130   1.200
 5648TIP3    H116908   6.273   4.035   1.201
 5648TIP3    H216909   6.307   4.162   1.276
 5649TIP3   OH216910   3.560   3.510   3.215
 5649TIP3    H116911   3.653   3.490   3.200
 5649TIP3    H216912   3.527   3.434   3.262
 5650TIP3   OH216913   5.660   4.225   1.536
 5650TIP3    H116914   5.665   4.142   1.489
 5650TIP3    H216915   5.662   4.292   1.467
 5651TIP3   OH216916   3.002   0.458   2.624
 5651TIP3    H116917   2.937   0.523   2.650
 5651TIP3    H216918   3.084   0.488   2.663
 5652TIP3   OH216919   4.779   4.935   0.697
 5652TIP3    H116920   4.745   4.947   0.786
 5652TIP3    H216921   4.848   5.001   0.689
 5653TIP3   OH216922   6.382   0.776   3.215
 5653TIP3    H116923   6.315   0.761   3.281
 5653TIP3    H216924   6.373   0.869   3.193
 5654TIP3   OH216925   0.729   2.990   0.325
 5654TIP3    H116926   0.655   2.934   0.345
 5654TIP3    H216927   0.702   3.040   0.248
 5655TIP3   OH216928   2.010   6.051   2.433
 5655TIP3    H116929   2.047   6.022   2.517
 5655TIP3    H216930   1.942   5.986   2.414
 5656TIP3   OH216931   1.218   4.148   5.056
 5656TIP3    H116932   1.301   4.145   5.104
 5656TIP3    H216933   1.165   4.212   5.103
 5657TIP3   OH216934   1.422   3.897   4.983
 5657TIP3    H116935   1.502   3.924   5.028
 5657TIP3    H216936   1.351   3.931   5.038
 5658TIP3   OH216937   6.364   0.107   3.989
 5658TIP3    H116938   6.296   0.174   3.987
 5658TIP3    H216939   6.444   0.153   3.965
 5659TIP3   OH216940   4.413   5.825   1.830
 5659TIP3    H116941   4.367   5.811   1.748
 5659TIP3    H216942   4.385   5.911   1.860
 5660TIP3   OH216943   6.355   4.354   0.933
 5660TIP3    H116944   6.280   4.391   0.888
 5660TIP3    H216945   6.327   4.345   1.024
 5661TIP3   OH216946   1.781   3.196   0.136
 5661TIP3    H116947   1.874   3.216   0.149
 5661TIP3    H216948   1.737   3.279   0.153
 5662TIP3   OH216949   4.997   4.259   3.850
 5662TIP3    H116950   4.969   4.257   3.942
 5662TIP3    H216951   4.929   4.210   3.804
 5663TIP3   OH216952   7.001   3.354   4.240
 5663TIP3    H116953   6.936   3.285   4.251
 5663TIP3    H216954   7.070   3.314   4.188
 5664TIP3   OH216955   7.123   2.616   4.809
 5664TIP3    H116956   7.171   2.648   4.885
 5664TIP3    H216957   7.087   2.694   4.768
 5665TIP3   OH216958   1.948   3.967   5.685
 5665TIP3    H116959   1.948   3.962   5.590
 5665TIP3    H216960   2.032   4.007   5.707
 5666TIP3   OH216961   1.632   0.255   5.810
 5666TIP3    H116962   1.539   0.279   5.808
 5666TIP3    H216963   1.678   0.337   5.829
 5667TIP3   OH216964   5.779   0.408   3.590
 5667TIP3    H116965   5.787   0.384   3.498
 5667TIP3    H216966   5.853   0.366   3.633
 5668TIP3   OH216967   1.643   0.990   4.458
 5668TIP3    H116968   1.703   0.932   4.411
 5668TIP3    H216969   1.582   1.021   4.392
 5669TIP3   OH216970   1.206   4.629   5.427
 5669TIP3    H116971   1.262   4.648   5.502
 5669TIP3    H216972   1.233   4.541   5.399
 5670TIP3   OH216973   1.033   5.678   1.692
 5670TIP3    H116974   1.010   5.714   1.606
 5670TIP3    H216975   0.990   5.737   1.754
 5671TIP3   OH216976   4.908   0.266   2.519
 5671TIP3    H116977   4.994   0.254   2.560
 5671TIP3    H216978   4.922   0.240   2.428
 5672TIP3   OH216979   4.617   2.788   4.836
 5672TIP3    H116980   4.699   2.809   4.882
 5672TIP3    H216981   4.549   2.801   4.901
 5673TIP3   OH216982   5.948   6.396   2.715
 5673TIP3    H116983   6.037   6.390   2.750
 5673TIP3    H216984   5.904   6.318   2.749
 5674TIP3   OH216985   3.506   4.581   3.229
 5674TIP3    H116986   3.425   4.536   3.252
 5674TIP3    H216987   3.550   4.597   3.312
 5675TIP3   OH216988   1.296   6.227   5.127
 5675TIP3    H116989   1.284   6.136   5.102
 5675TIP3    H216990   1.379   6.228   5.176
 5676TIP3   OH216991   1.557   6.074   2.001
 5676TIP3    H116992   1.576   6.121   1.920
 5676TIP3    H216993   1.627   6.009   2.007
 5677TIP3   OH216994   4.953   1.347   5.101
 5677TIP3    H116995   5.001   1.270   5.071
 5677TIP3    H216996   4.972   1.352   5.195
 5678TIP3   OH216997   0.743   5.782   2.055
 5678TIP3    H116998   0.831   5.744   2.065
 5678TIP3    H216999   0.695   5.718   2.002
 5679TIP3   OH217000   6.114   2.353   5.566
 5679TIP3    H117001   6.030   2.313   5.590
 5679TIP3    H217002   6.109   2.362   5.471
 5680TIP3   OH217003   0.750   1.047   2.132
 5680TIP3    H117004   0.808   1.074   2.061
 5680TIP3    H217005   0.674   1.009   2.089
 5681TIP3   OH217006   6.146   6.072   0.525
 5681TIP3    H117007   6.059   6.078   0.486
 5681TIP3    H217008   6.186   5.997   0.481
 5682TIP3   OH217009   0.758   3.674   1.146
 5682TIP3    H117010   0.849   3.690   1.173
 5682TIP3    H217011   0.735   3.749   1.093
 5683TIP3   OH217012   4.871   1.066   3.053
 5683TIP3    H117013   4.965   1.073   3.066
 5683TIP3    H217014   4.861   1.050   2.959
 5684TIP3   OH217015   4.171   4.716   2.844
 5684TIP3    H117016   4.237   4.652   2.870
 5684TIP3    H217017   4.159   4.702   2.750
 5685TIP3   OH217018   6.095   3.374   2.126
 5685TIP3    H117019   6.114   3.336   2.211
 5685TIP3    H217020   6.107   3.303   2.064
 5686TIP3   OH217021   6.398   1.060   3.254
 5686TIP3    H117022   6.469   1.114   3.289
 5686TIP3    H217023   6.385   1.092   3.165
 5687TIP3   OH217024   3.468   1.872   5.140
 5687TIP3    H117025   3.561   1.889   5.124
 5687TIP3    H217026   3.441   1.815   5.068
 5688TIP3   OH217027   2.849   0.479   5.776
 5688TIP3    H117028   2.833   0.395   5.733
 5688TIP3    H217029   2.921   0.518   5.726
 5689TIP3   OH217030   1.577   2.342   0.157
 5689TIP3    H117031   1.654   2.308   0.111
 5689TIP3    H217032   1.502   2.308   0.109
 5690TIP3   OH217033   5.422   4.765   1.294
 5690TIP3    H117034   5.457   4.797   1.377
 5690TIP3    H217035   5.350   4.826   1.274
 5691TIP3   OH217036   7.204   5.207   3.769
 5691TIP3    H117037   7.190   5.217   3.675
 5691TIP3    H217038   7.245   5.121   3.778
 5692TIP3   OH217039   7.270   1.454   3.438
 5692TIP3    H117040   7.227   1.513   3.500
 5692TIP3    H217041   7.206   1.384   3.424
 5693TIP3   OH217042   1.169   3.199   1.781
 5693TIP3    H117043   1.073   3.197   1.778
 5693TIP3    H217044   1.195   3.107   1.769
 5694TIP3   OH217045   5.477   5.421   3.448
 5694TIP3    H117046   5.528   5.340   3.454
 5694TIP3    H217047   5.499   5.469   3.527
 5695TIP3   OH217048   4.848   4.921   0.379
 5695TIP3    H117049   4.938   4.955   0.381
 5695TIP3    H217050   4.854   4.835   0.419
 5696TIP3   OH217051   6.598   1.497   4.914
 5696TIP3    H117052   6.620   1.489   5.006
 5696TIP3    H217053   6.674   1.464   4.867
 5697TIP3   OH217054   4.128   0.395   0.027
 5697TIP3    H117055   4.182   0.468  -0.003
 5697TIP3    H217056   4.155   0.382   0.118
 5698TIP3   OH217057   1.938   4.621   3.557
 5698TIP3    H117058   1.959   4.619   3.464
 5698TIP3    H217059   2.021   4.605   3.601
 5699TIP3   OH217060   4.418   4.809   0.738
 5699TIP3    H117061   4.508   4.829   0.762
 5699TIP3    H217062   4.369   4.817   0.820
 5700TIP3   OH217063   5.426   5.432   4.732
 5700TIP3    H117064   5.409   5.472   4.817
 5700TIP3    H217065   5.340   5.433   4.688
 5701TIP3   OH217066   1.276   0.208   3.604
 5701TIP3    H117067   1.295   0.168   3.519
 5701TIP3    H217068   1.340   0.168   3.664
 5702TIP3   OH217069   1.973   6.660   4.064
 5702TIP3    H117070   2.009   6.740   4.102
 5702TIP3    H217071   2.009   6.657   3.976
 5703TIP3   OH217072   0.343   1.238   0.647
 5703TIP3    H117073   0.300   1.245   0.732
 5703TIP3    H217074   0.402   1.163   0.656
 5704TIP3   OH217075   4.053   6.370   1.670
 5704TIP3    H117076   3.987   6.363   1.738
 5704TIP3    H217077   4.004   6.391   1.590
 5705TIP3   OH217078   6.873   4.973   2.719
 5705TIP3    H117079   6.782   4.967   2.692
 5705TIP3    H217080   6.879   5.059   2.762
 5706TIP3   OH217081   0.896   6.447   5.365
 5706TIP3    H117082   0.865   6.452   5.275
 5706TIP3    H217083   0.990   6.432   5.357
 5707TIP3   OH217084   0.761   4.842   0.339
 5707TIP3    H117085   0.692   4.864   0.402
 5707TIP3    H217086   0.794   4.757   0.368
 5708TIP3   OH217087   1.216   3.498   4.863
 5708TIP3    H117088   1.144   3.543   4.818
 5708TIP3    H217089   1.223   3.542   4.948
 5709TIP3   OH217090   3.524   3.927   4.985
 5709TIP3    H117091   3.585   3.997   5.007
 5709TIP3    H217092   3.558   3.850   5.031
 5710TIP3   OH217093   1.337   3.128   2.081
 5710TIP3    H117094   1.333   3.205   2.024
 5710TIP3    H217095   1.430   3.120   2.104
 5711TIP3   OH217096   3.049   5.144   5.102
 5711TIP3    H117097   3.076   5.128   5.193
 5711TIP3    H217098   3.129   5.132   5.051
 5712TIP3   OH217099   4.608   6.417   4.644
 5712TIP3    H117100   4.597   6.354   4.573
 5712TIP3    H217101   4.700   6.445   4.638
 5713TIP3   OH217102   3.316   1.800   3.988
 5713TIP3    H117103   3.391   1.837   3.941
 5713TIP3    H217104   3.262   1.876   4.011
 5714TIP3   OH217105   1.626   4.414   0.002
 5714TIP3    H117106   1.693   4.479   0.023
 5714TIP3    H217107   1.566   4.416   0.076
 5715TIP3   OH217108   4.108   5.884   5.696
 5715TIP3    H117109   4.132   5.888   5.603
 5715TIP3    H217110   4.052   5.807   5.703
 5716TIP3   OH217111   1.196   6.074   5.906
 5716TIP3    H117112   1.198   6.000   5.846
 5716TIP3    H217113   1.113   6.118   5.886
 5717TIP3   OH217114   7.212   3.764   4.046
 5717TIP3    H117115   7.127   3.727   4.069
 5717TIP3    H217116   7.215   3.757   3.950
 5718TIP3   OH217117   1.044   3.138   2.464
 5718TIP3    H117118   1.119   3.187   2.431
 5718TIP3    H217119   1.005   3.099   2.385
 5719TIP3   OH217120   2.798   5.246   3.346
 5719TIP3    H117121   2.834   5.166   3.385
 5719TIP3    H217122   2.830   5.245   3.256
 5720TIP3   OH217123   4.669   1.008   1.110
 5720TIP3    H117124   4.642   0.916   1.105
 5720TIP3    H217125   4.710   1.015   1.197
 5721TIP3   OH217126   6.485   5.658   2.587
 5721TIP3    H117127   6.547   5.667   2.515
 5721TIP3    H217128   6.477   5.563   2.600
 5722TIP3   OH217129   4.320   4.282   5.058
 5722TIP3    H117130   4.377   4.345   5.014
 5722TIP3    H217131   4.375   4.241   5.124
 5723TIP3   OH217132   2.407   4.308   3.504
 5723TIP3    H117133   2.327   4.256   3.503
 5723TIP3    H217134   2.457   4.280   3.428
 5724TIP3   OH217135   4.873   5.995   5.126
 5724TIP3    H117136   4.964   6.025   5.124
 5724TIP3    H217137   4.857   5.973   5.218
 5725TIP3   OH217138   1.611   0.660   0.307
 5725TIP3    H117139   1.580   0.589   0.364
 5725TIP3    H217140   1.559   0.736   0.334
 5726TIP3   OH217141   6.054   6.132   4.784
 5726TIP3    H117142   6.035   6.110   4.875
 5726TIP3    H217143   6.148   6.118   4.774
 5727TIP3   OH217144   0.075   1.233   4.630
 5727TIP3    H117145   0.065   1.155   4.686
 5727TIP3    H217146  -0.003   1.286   4.648
 5728TIP3   OH217147   6.862   1.165   4.884
 5728TIP3    H117148   6.927   1.115   4.835
 5728TIP3    H217149   6.897   1.169   4.973
 5729TIP3   OH217150   1.782   2.320   5.019
 5729TIP3    H117151   1.846   2.259   4.983
 5729TIP3    H217152   1.709   2.318   4.958
 5730TIP3   OH217153   0.401   0.161   1.079
 5730TIP3    H117154   0.428   0.119   1.161
 5730TIP3    H217155   0.306   0.161   1.083
 5731TIP3   OH217156   6.932   5.120   3.439
 5731TIP3    H117157   6.899   5.130   3.529
 5731TIP3    H217158   7.011   5.067   3.449
 5732TIP3   OH217159   6.800   1.184   1.098
 5732TIP3    H117160   6.819   1.169   1.190
 5732TIP3    H217161   6.857   1.122   1.051
 5733TIP3   OH217162   4.480   1.397   5.287
 5733TIP3    H117163   4.555   1.396   5.228
 5733TIP3    H217164   4.443   1.308   5.281
 5734TIP3   OH217165   6.545   2.495   1.324
 5734TIP3    H117166   6.565   2.417   1.273
 5734TIP3    H217167   6.531   2.564   1.259
 5735TIP3   OH217168   2.329   2.470   2.006
 5735TIP3    H117169   2.377   2.404   1.955
 5735TIP3    H217170   2.305   2.425   2.087
 5736TIP3   OH217171   6.566   2.010   5.463
 5736TIP3    H117172   6.500   1.942   5.477
 5736TIP3    H217173   6.517   2.092   5.460
 5737TIP3   OH217174   6.852   3.866   1.950
 5737TIP3    H117175   6.919   3.927   1.980
 5737TIP3    H217176   6.882   3.780   1.978
 5738TIP3   OH217177   5.192   4.892   3.138
 5738TIP3    H117178   5.148   4.876   3.222
 5738TIP3    H217179   5.176   4.812   3.087
 5739TIP3   OH217180   4.056   3.684   3.826
 5739TIP3    H117181   4.081   3.760   3.879
 5739TIP3    H217182   4.023   3.621   3.889
 5740TIP3   OH217183   7.234   0.661   2.891
 5740TIP3    H117184   7.168   0.592   2.896
 5740TIP3    H217185   7.317   0.614   2.881
 5741TIP3   OH217186   1.716   4.179   3.492
 5741TIP3    H117187   1.811   4.170   3.499
 5741TIP3    H217188   1.700   4.273   3.497
 5742TIP3   OH217189   5.229   3.486   1.249
 5742TIP3    H117190   5.260   3.525   1.167
 5742TIP3    H217191   5.304   3.491   1.308
 5743TIP3   OH217192   5.912   2.550   3.242
 5743TIP3    H117193   5.942   2.533   3.153
 5743TIP3    H217194   5.976   2.611   3.278
 5744TIP3   OH217195   1.596   0.247   0.908
 5744TIP3    H117196   1.567   0.224   0.820
 5744TIP3    H217197   1.646   0.171   0.938
 5745TIP3   OH217198   4.971   4.253   5.125
 5745TIP3    H117199   5.002   4.295   5.206
 5745TIP3    H217200   5.048   4.248   5.069
 5746TIP3   OH217201   4.299   0.778   1.544
 5746TIP3    H117202   4.348   0.841   1.492
 5746TIP3    H217203   4.207   0.800   1.529
 5747TIP3   OH217204   5.642   1.465   3.351
 5747TIP3    H117205   5.698   1.526   3.302
 5747TIP3    H217206   5.610   1.516   3.425
 5748TIP3   OH217207   4.432   0.623   3.344
 5748TIP3    H117208   4.491   0.693   3.371
 5748TIP3    H217209   4.358   0.629   3.405
 5749TIP3   OH217210   0.090   5.645   0.592
 5749TIP3    H117211   0.078   5.732   0.630
 5749TIP3    H217212   0.006   5.602   0.602
 5750TIP3   OH217213   5.466   4.809   4.525
 5750TIP3    H117214   5.523   4.743   4.486
 5750TIP3    H217215   5.503   4.822   4.613
 5751TIP3   OH217216   4.885   5.210   1.476
 5751TIP3    H117217   4.798   5.171   1.477
 5751TIP3    H217218   4.883   5.277   1.543
 5752TIP3   OH217219   2.591   1.542   0.893
 5752TIP3    H117220   2.638   1.520   0.813
 5752TIP3    H217221   2.504   1.502   0.882
 5753TIP3   OH217222   0.121   4.155   3.285
 5753TIP3    H117223   0.037   4.111   3.275
 5753TIP3    H217224   0.182   4.085   3.307
 5754TIP3   OH217225   3.509   4.516   4.193
 5754TIP3    H117226   3.588   4.469   4.167
 5754TIP3    H217227   3.527   4.607   4.171
 5755TIP3   OH217228   5.460   3.024   2.240
 5755TIP3    H117229   5.366   3.037   2.225
 5755TIP3    H217230   5.475   2.931   2.221
 5756TIP3   OH217231   2.933   2.701   1.586
 5756TIP3    H117232   2.956   2.758   1.660
 5756TIP3    H217233   2.837   2.706   1.581
 5757TIP3   OH217234   5.180   6.058   3.986
 5757TIP3    H117235   5.127   5.978   3.982
 5757TIP3    H217236   5.208   6.063   4.077
 5758TIP3   OH217237   4.054   1.772   2.742
 5758TIP3    H117238   3.976   1.775   2.686
 5758TIP3    H217239   4.122   1.814   2.689
 5759TIP3   OH217240   2.382   2.280   2.369
 5759TIP3    H117241   2.360   2.373   2.379
 5759TIP3    H217242   2.306   2.234   2.403
 5760TIP3   OH217243   2.798   4.118   4.204
 5760TIP3    H117244   2.862   4.166   4.258
 5760TIP3    H217245   2.816   4.146   4.115
 5761TIP3   OH217246   1.836   3.369   5.516
 5761TIP3    H117247   1.797   3.454   5.497
 5761TIP3    H217248   1.898   3.354   5.444
 5762TIP3   OH217249   7.121   0.040   0.946
 5762TIP3    H117250   7.052   0.085   0.898
 5762TIP3    H217251   7.075  -0.017   1.008
 5763TIP3   OH217252   3.487   6.328   0.782
 5763TIP3    H117253   3.467   6.404   0.837
 5763TIP3    H217254   3.561   6.286   0.825
 5764TIP3   OH217255   4.921   4.599   5.592
 5764TIP3    H117256   4.859   4.669   5.571
 5764TIP3    H217257   4.981   4.637   5.656
 5765TIP3   OH217258   5.240   0.778   2.847
 5765TIP3    H117259   5.297   0.854   2.840
 5765TIP3    H217260   5.299   0.703   2.846
 5766TIP3   OH217261   4.567   3.402   2.110
 5766TIP3    H117262   4.568   3.401   2.206
 5766TIP3    H217263   4.477   3.380   2.086
 5767TIP3   OH217264   6.869   6.570   3.698
 5767TIP3    H117265   6.878   6.598   3.789
 5767TIP3    H217266   6.957   6.579   3.661
 5768TIP3   OH217267   3.167   3.421   0.622
 5768TIP3    H117268   3.161   3.419   0.717
 5768TIP3    H217269   3.094   3.367   0.592
 5769TIP3   OH217270   1.179   5.908   2.359
 5769TIP3    H117271   1.186   5.815   2.379
 5769TIP3    H217272   1.200   5.914   2.265
 5770TIP3   OH217273   2.863   2.806   1.310
 5770TIP3    H117274   2.844   2.746   1.382
 5770TIP3    H217275   2.951   2.838   1.328
 5771TIP3   OH217276   5.946   0.424   1.254
 5771TIP3    H117277   6.024   0.378   1.285
 5771TIP3    H217278   5.891   0.355   1.217
 5772TIP3   OH217279   4.459   2.531   5.011
 5772TIP3    H117280   4.379   2.525   4.960
 5772TIP3    H217281   4.451   2.461   5.076
 5773TIP3   OH217282   6.920   4.928   4.477
 5773TIP3    H117283   6.972   4.898   4.402
 5773TIP3    H217284   6.917   5.024   4.466
 5774TIP3   OH217285   1.299   2.932   3.568
 5774TIP3    H117286   1.259   2.989   3.502
 5774TIP3    H217287   1.224   2.886   3.607
 5775TIP3   OH217288   5.348   4.779   2.073
 5775TIP3    H117289   5.407   4.838   2.119
 5775TIP3    H217290   5.405   4.717   2.028
 5776TIP3   OH217291   6.248   6.606   3.099
 5776TIP3    H117292   6.282   6.666   3.165
 5776TIP3    H217293   6.304   6.528   3.107
 5777TIP3   OH217294   4.381   5.906   2.147
 5777TIP3    H117295   4.379   5.909   2.242
 5777TIP3    H217296   4.292   5.927   2.120
 5778TIP3   OH217297   0.259   6.786   4.304
 5778TIP3    H117298   0.236   6.865   4.256
 5778TIP3    H217299   0.292   6.818   4.388
 5779TIP3   OH217300   3.821   2.040   1.489
 5779TIP3    H117301   3.767   2.067   1.415
 5779TIP3    H217302   3.907   2.021   1.451
 5780TIP3   OH217303   6.823   5.899   1.418
 5780TIP3    H117304   6.888   5.954   1.462
 5780TIP3    H217305   6.835   5.812   1.455
 5781TIP3   OH217306   4.474   2.909   1.553
 5781TIP3    H117307   4.499   2.818   1.537
 5781TIP3    H217308   4.472   2.917   1.649
 5782TIP3   OH217309   1.720   3.165   2.574
 5782TIP3    H117310   1.666   3.233   2.534
 5782TIP3    H217311   1.805   3.206   2.587
 5783TIP3   OH217312   2.731   5.447   1.257
 5783TIP3    H117313   2.750   5.538   1.236
 5783TIP3    H217314   2.658   5.423   1.199
 5784TIP3   OH217315   2.891   4.139   2.583
 5784TIP3    H117316   2.980   4.107   2.570
 5784TIP3    H217317   2.898   4.204   2.653
 5785TIP3   OH217318   0.261   3.509   1.187
 5785TIP3    H117319   0.283   3.550   1.270
 5785TIP3    H217320   0.173   3.474   1.200
 5786TIP3   OH217321   6.386   1.075   4.234
 5786TIP3    H117322   6.349   1.163   4.226
 5786TIP3    H217323   6.480   1.089   4.237
 5787TIP3   OH217324   0.112   3.075   0.381
 5787TIP3    H117325   0.182   3.010   0.369
 5787TIP3    H217326   0.061   3.042   0.455
 5788TIP3   OH217327   0.513   4.903   5.619
 5788TIP3    H117328   0.437   4.957   5.639
 5788TIP3    H217329   0.541   4.932   5.532
 5789TIP3   OH217330   1.169   4.638   3.585
 5789TIP3    H117331   1.180   4.638   3.681
 5789TIP3    H217332   1.247   4.684   3.553
 5790TIP3   OH217333   1.631   4.210   1.392
 5790TIP3    H117334   1.707   4.265   1.372
 5790TIP3    H217335   1.628   4.207   1.487
 5791TIP3   OH217336   4.296   1.565   5.800
 5791TIP3    H117337   4.203   1.579   5.814
 5791TIP3    H217338   4.313   1.477   5.835
 5792TIP3   OH217339   1.390   3.546   5.143
 5792TIP3    H117340   1.363   3.611   5.207
 5792TIP3    H217341   1.383   3.462   5.189
 5793TIP3   OH217342   5.281   0.713   0.051
 5793TIP3    H117343   5.192   0.677   0.055
 5793TIP3    H217344   5.275   0.785  -0.011
 5794TIP3   OH217345   2.567   3.159   5.122
 5794TIP3    H117346   2.545   3.188   5.210
 5794TIP3    H217347   2.524   3.074   5.113
 5795TIP3   OH217348   2.243   0.037   2.667
 5795TIP3    H117349   2.287   0.083   2.739
 5795TIP3    H217350   2.236  -0.054   2.699
 5796TIP3   OH217351   1.331   2.101   4.976
 5796TIP3    H117352   1.346   2.193   4.997
 5796TIP3    H217353   1.297   2.101   4.887
 5797TIP3   OH217354   4.169   0.501   3.254
 5797TIP3    H117355   4.259   0.477   3.232
 5797TIP3    H217356   4.175   0.592   3.283
 5798TIP3   OH217357   2.580   4.893   0.599
 5798TIP3    H117358   2.635   4.946   0.541
 5798TIP3    H217359   2.516   4.852   0.541
 5799TIP3   OH217360   1.882   0.891   2.410
 5799TIP3    H117361   1.830   0.902   2.330
 5799TIP3    H217362   1.834   0.941   2.477
 5800TIP3   OH217363   6.735   1.718   1.717
 5800TIP3    H117364   6.714   1.710   1.810
 5800TIP3    H217365   6.781   1.637   1.695
 5801TIP3   OH217366   3.496   0.961   4.437
 5801TIP3    H117367   3.535   1.014   4.367
 5801TIP3    H217368   3.539   0.991   4.517
 5802TIP3   OH217369   4.709   5.693   3.406
 5802TIP3    H117370   4.709   5.781   3.445
 5802TIP3    H217371   4.802   5.671   3.398
 5803TIP3   OH217372   3.574   5.302   2.048
 5803TIP3    H117373   3.644   5.264   1.994
 5803TIP3    H217374   3.606   5.295   2.138
 5804TIP3   OH217375   0.087   2.331   1.792
 5804TIP3    H117376   0.173   2.323   1.834
 5804TIP3    H217377   0.035   2.261   1.830
 5805TIP3   OH217378   2.536   6.680   1.981
 5805TIP3    H117379   2.603   6.645   2.039
 5805TIP3    H217380   2.456   6.680   2.033
 5806TIP3   OH217381   1.888   6.104   2.057
 5806TIP3    H117382   1.901   6.069   1.969
 5806TIP3    H217383   1.848   6.032   2.106
 5807TIP3   OH217384   3.017   4.647   1.596
 5807TIP3    H117385   3.111   4.637   1.580
 5807TIP3    H217386   2.978   4.566   1.562
 5808TIP3   OH217387   3.474   3.001   4.875
 5808TIP3    H117388   3.386   2.976   4.902
 5808TIP3    H217389   3.518   2.918   4.857
 5809TIP3   OH217390   4.732   4.697   1.076
 5809TIP3    H117391   4.674   4.753   1.023
 5809TIP3    H217392   4.803   4.674   1.017
 5810TIP3   OH217393   1.104   0.931   4.640
 5810TIP3    H117394   1.064   1.015   4.620
 5810TIP3    H217395   1.180   0.926   4.582
 5811TIP3   OH217396   6.412   3.965   2.467
 5811TIP3    H117397   6.505   3.977   2.483
 5811TIP3    H217398   6.388   3.888   2.518
 5812TIP3   OH217399   6.569   0.164   2.877
 5812TIP3    H117400   6.525   0.094   2.926
 5812TIP3    H217401   6.543   0.244   2.923
 5813TIP3   OH217402   2.333   0.408   1.635
 5813TIP3    H117403   2.428   0.406   1.630
 5813TIP3    H217404   2.314   0.445   1.721
 5814TIP3   OH217405   0.028   5.821   1.428
 5814TIP3    H117406  -0.065   5.807   1.415
 5814TIP3    H217407   0.055   5.753   1.489
 5815TIP3   OH217408   6.418   0.692   5.400
 5815TIP3    H117409   6.385   0.675   5.488
 5815TIP3    H217410   6.362   0.762   5.367
 5816TIP3   OH217411   6.484   1.769   3.255
 5816TIP3    H117412   6.431   1.691   3.239
 5816TIP3    H217413   6.573   1.736   3.267
 5817TIP3   OH217414   6.290   4.111   4.091
 5817TIP3    H117415   6.345   4.043   4.053
 5817TIP3    H217416   6.202   4.091   4.060
 5818TIP3   OH217417   3.712   3.264   3.595
 5818TIP3    H117418   3.622   3.260   3.564
 5818TIP3    H217419   3.764   3.274   3.515
 5819TIP3   OH217420   5.692   0.570   2.429
 5819TIP3    H117421   5.613   0.599   2.474
 5819TIP3    H217422   5.674   0.586   2.336
 5820TIP3   OH217423   2.708   2.654   4.264
 5820TIP3    H117424   2.672   2.626   4.348
 5820TIP3    H217425   2.642   2.712   4.227
 5821TIP3   OH217426   2.914   5.744   0.589
 5821TIP3    H117427   2.821   5.744   0.566
 5821TIP3    H217428   2.941   5.835   0.579
 5822TIP3   OH217429   1.815   1.877   2.114
 5822TIP3    H117430   1.801   1.792   2.156
 5822TIP3    H217431   1.842   1.856   2.025
 5823TIP3   OH217432   5.866   2.876   2.519
 5823TIP3    H117433   5.813   2.798   2.535
 5823TIP3    H217434   5.803   2.948   2.516
 5824TIP3   OH217435   3.069   0.234   1.030
 5824TIP3    H117436   3.164   0.238   1.044
 5824TIP3    H217437   3.050   0.308   0.973
 5825TIP3   OH217438   2.805   1.862   2.339
 5825TIP3    H117439   2.838   1.781   2.377
 5825TIP3    H217440   2.849   1.931   2.388
 5826TIP3   OH217441   2.337   3.726   2.368
 5826TIP3    H117442   2.369   3.763   2.450
 5826TIP3    H217443   2.242   3.717   2.380
 5827TIP3   OH217444   5.221   0.953   3.912
 5827TIP3    H117445   5.142   0.904   3.893
 5827TIP3    H217446   5.195   1.013   3.983
 5828TIP3   OH217447   3.030   3.407   1.521
 5828TIP3    H117448   3.021   3.312   1.523
 5828TIP3    H217449   2.978   3.437   1.596
 5829TIP3   OH217450   5.658   4.281   2.332
 5829TIP3    H117451   5.724   4.233   2.381
 5829TIP3    H217452   5.594   4.215   2.306
 5830TIP3   OH217453   5.904   1.056   1.634
 5830TIP3    H117454   5.923   1.025   1.546
 5830TIP3    H217455   5.900   1.151   1.626
 5831TIP3   OH217456   2.385   0.687   5.625
 5831TIP3    H117457   2.402   0.621   5.693
 5831TIP3    H217458   2.366   0.635   5.547
 5832TIP3   OH217459   6.121   1.701   4.993
 5832TIP3    H117460   6.108   1.629   4.932
 5832TIP3    H217461   6.042   1.701   5.048
 5833TIP3   OH217462   6.054   2.316   1.615
 5833TIP3    H117463   5.978   2.373   1.604
 5833TIP3    H217464   6.036   2.269   1.697
 5834TIP3   OH217465   0.272   5.335   3.677
 5834TIP3    H117466   0.244   5.328   3.768
 5834TIP3    H217467   0.244   5.253   3.636
 5835TIP3   OH217468   1.013   1.705   3.254
 5835TIP3    H117469   1.003   1.799   3.268
 5835TIP3    H217470   1.103   1.694   3.222
 5836TIP3   OH217471   6.313   4.431   1.483
 5836TIP3    H117472   6.362   4.406   1.561
 5836TIP3    H217473   6.376   4.478   1.429
 5837TIP3   OH217474   3.835   4.751   4.246
 5837TIP3    H117475   3.925   4.758   4.279
 5837TIP3    H217476   3.814   4.838   4.214
 5838TIP3   OH217477   4.611   6.217   0.647
 5838TIP3    H117478   4.651   6.303   0.644
 5838TIP3    H217479   4.531   6.226   0.595
 5839TIP3   OH217480   3.362   0.763   0.502
 5839TIP3    H117481   3.452   0.770   0.535
 5839TIP3    H217482   3.364   0.686   0.445
 5840TIP3   OH217483   2.877   4.666   4.773
 5840TIP3    H117484   2.840   4.742   4.729
 5840TIP3    H217485   2.881   4.691   4.865
 5841TIP3   OH217486   7.166   1.930   4.762
 5841TIP3    H117487   7.170   1.899   4.671
 5841TIP3    H217488   7.114   1.864   4.807
 5842TIP3   OH217489   4.548   3.119   3.048
 5842TIP3    H117490   4.466   3.110   3.096
 5842TIP3    H217491   4.539   3.200   2.999
 5843TIP3   OH217492   4.353   4.157   2.776
 5843TIP3    H117493   4.433   4.120   2.738
 5843TIP3    H217494   4.384   4.208   2.850
 5844TIP3   OH217495   6.056   5.834   2.856
 5844TIP3    H117496   6.127   5.899   2.856
 5844TIP3    H217497   6.095   5.757   2.815
 5845TIP3   OH217498   0.862   3.345   4.063
 5845TIP3    H117499   0.826   3.395   3.990
 5845TIP3    H217500   0.939   3.300   4.026
 5846TIP3   OH217501   3.777   4.820   3.210
 5846TIP3    H117502   3.840   4.757   3.244
 5846TIP3    H217503   3.807   4.839   3.122
 5847TIP3   OH217504   2.382   1.738   5.340
 5847TIP3    H117505   2.359   1.645   5.330
 5847TIP3    H217506   2.424   1.743   5.426
 5848TIP3   OH217507   6.683   1.637   3.666
 5848TIP3    H117508   6.588   1.640   3.678
 5848TIP3    H217509   6.717   1.698   3.731
 5849TIP3   OH217510   0.168   6.100   1.186
 5849TIP3    H117511   0.219   6.039   1.239
 5849TIP3    H217512   0.103   6.135   1.246
 5850TIP3   OH217513   2.658   1.047   5.706
 5850TIP3    H117514   2.609   1.057   5.788
 5850TIP3    H217515   2.597   1.074   5.638
 5851TIP3   OH217516   3.767   2.042   0.846
 5851TIP3    H117517   3.769   2.054   0.751
 5851TIP3    H217518   3.714   2.115   0.879
 5852TIP3   OH217519   2.699   1.461   1.159
 5852TIP3    H117520   2.717   1.368   1.146
 5852TIP3    H217521   2.667   1.491   1.074
 5853TIP3   OH217522   1.979   6.064   1.547
 5853TIP3    H117523   1.982   6.054   1.451
 5853TIP3    H217524   2.071   6.068   1.573
 5854TIP3   OH217525   4.010   1.332   2.677
 5854TIP3    H117526   4.004   1.272   2.602
 5854TIP3    H217527   3.921   1.364   2.689
 5855TIP3   OH217528   2.388   1.907   4.963
 5855TIP3    H117529   2.437   1.862   4.895
 5855TIP3    H217530   2.437   1.890   5.043
 5856TIP3   OH217531   4.797   6.614   3.469
 5856TIP3    H117532   4.751   6.552   3.524
 5856TIP3    H217533   4.824   6.684   3.528
 5857TIP3   OH217534   3.558   1.413   1.996
 5857TIP3    H117535   3.551   1.341   2.058
 5857TIP3    H217536   3.615   1.477   2.039
 5858TIP3   OH217537   4.670   2.452   1.276
 5858TIP3    H117538   4.581   2.488   1.277
 5858TIP3    H217539   4.724   2.521   1.237
 5859TIP3   OH217540   5.305   4.803   5.690
 5859TIP3    H117541   5.342   4.744   5.757
 5859TIP3    H217542   5.299   4.749   5.611
 5860TIP3   OH217543   2.545   1.908   5.850
 5860TIP3    H117544   2.534   1.859   5.931
 5860TIP3    H217545   2.596   1.985   5.875
 5861TIP3   OH217546   4.314   5.988   0.111
 5861TIP3    H117547   4.333   6.082   0.108
 5861TIP3    H217548   4.398   5.948   0.131
 5862TIP3   OH217549   6.735   0.819   2.373
 5862TIP3    H117550   6.648   0.817   2.332
 5862TIP3    H217551   6.723   0.875   2.451
 5863TIP3   OH217552   2.784   4.151   3.560
 5863TIP3    H117553   2.738   4.149   3.644
 5863TIP3    H217554   2.817   4.241   3.554
 5864TIP3   OH217555   1.065   6.025   1.389
 5864TIP3    H117556   1.089   6.095   1.450
 5864TIP3    H217557   1.032   6.070   1.312
 5865TIP3   OH217558   5.137   1.154   0.597
 5865TIP3    H117559   5.207   1.137   0.660
 5865TIP3    H217560   5.057   1.126   0.642
 5866TIP3   OH217561   5.422   4.190   4.705
 5866TIP3    H117562   5.432   4.278   4.668
 5866TIP3    H217563   5.355   4.148   4.651
 5867TIP3   OH217564   6.824   2.898   3.582
 5867TIP3    H117565   6.868   2.898   3.497
 5867TIP3    H217566   6.839   2.810   3.617
 5868TIP3   OH217567   0.342   4.442   1.716
 5868TIP3    H117568   0.293   4.521   1.741
 5868TIP3    H217569   0.280   4.370   1.729
 5869TIP3   OH217570   5.447   3.847   0.414
 5869TIP3    H117571   5.486   3.934   0.410
 5869TIP3    H217572   5.517   3.791   0.449
 5870TIP3   OH217573   4.451   2.829   1.904
 5870TIP3    H117574   4.434   2.855   1.994
 5870TIP3    H217575   4.364   2.812   1.867
 5871TIP3   OH217576   1.818   0.469   1.819
 5871TIP3    H117577   1.822   0.561   1.791
 5871TIP3    H217578   1.829   0.419   1.738
 5872TIP3   OH217579   1.724   0.719   5.407
 5872TIP3    H117580   1.664   0.785   5.442
 5872TIP3    H217581   1.740   0.746   5.316
 5873TIP3   OH217582   6.871   3.117   4.248
 5873TIP3    H117583   6.781   3.089   4.233
 5873TIP3    H217584   6.910   3.048   4.301
 5874TIP3   OH217585   5.334   6.494   5.438
 5874TIP3    H117586   5.415   6.495   5.489
 5874TIP3    H217587   5.351   6.551   5.364
 5875TIP3   OH217588   3.185   5.053   1.489
 5875TIP3    H117589   3.116   5.011   1.437
 5875TIP3    H217590   3.142   5.075   1.572
 5876TIP3   OH217591   3.918   5.539   0.870
 5876TIP3    H117592   3.875   5.481   0.932
 5876TIP3    H217593   4.002   5.560   0.912
 5877TIP3   OH217594   4.294   5.186   5.411
 5877TIP3    H117595   4.199   5.175   5.421
 5877TIP3    H217596   4.304   5.243   5.335
 5878TIP3   OH217597   3.587   0.158   2.108
 5878TIP3    H117598   3.558   0.138   2.197
 5878TIP3    H217599   3.619   0.074   2.074
 5879TIP3   OH217600   7.053   2.620   1.880
 5879TIP3    H117601   7.031   2.527   1.870
 5879TIP3    H217602   6.972   2.666   1.861
 5880TIP3   OH217603   6.706   2.517   3.115
 5880TIP3    H117604   6.641   2.474   3.059
 5880TIP3    H217605   6.660   2.593   3.150
 5881TIP3   OH217606   0.343   2.438   0.933
 5881TIP3    H117607   0.356   2.533   0.925
 5881TIP3    H217608   0.417   2.407   0.985
 5882TIP3   OH217609   5.410   0.183   2.590
 5882TIP3    H117610   5.499   0.160   2.561
 5882TIP3    H217611   5.387   0.261   2.538
 5883TIP3   OH217612   3.414   5.895   2.941
 5883TIP3    H117613   3.322   5.870   2.927
 5883TIP3    H217614   3.464   5.839   2.882
 5884TIP3   OH217615   3.604   4.655   0.761
 5884TIP3    H117616   3.634   4.568   0.787
 5884TIP3    H217617   3.683   4.701   0.733
 5885TIP3   OH217618   1.843   1.247   1.953
 5885TIP3    H117619   1.820   1.334   1.920
 5885TIP3    H217620   1.870   1.262   2.044
 5886TIP3   OH217621   0.333   3.200   4.962
 5886TIP3    H117622   0.401   3.241   5.015
 5886TIP3    H217623   0.347   3.106   4.973
 5887TIP3   OH217624   0.983   2.990   4.217
 5887TIP3    H117625   1.040   2.985   4.141
 5887TIP3    H217626   1.031   3.044   4.280
 5888TIP3   OH217627   2.521   1.803   0.820
 5888TIP3    H117628   2.552   1.713   0.828
 5888TIP3    H217629   2.426   1.797   0.834
 5889TIP3   OH217630   1.383   5.508   4.729
 5889TIP3    H117631   1.347   5.500   4.817
 5889TIP3    H217632   1.355   5.429   4.684
 5890TIP3   OH217633   6.348   1.442   3.796
 5890TIP3    H117634   6.400   1.362   3.783
 5890TIP3    H217635   6.288   1.421   3.867
 5891TIP3   OH217636   6.268   0.520   3.762
 5891TIP3    H117637   6.180   0.546   3.736
 5891TIP3    H217638   6.325   0.586   3.722
 5892TIP3   OH217639   6.946   3.113   0.246
 5892TIP3    H117640   6.980   3.133   0.334
 5892TIP3    H217641   7.023   3.122   0.189
 5893TIP3   OH217642   0.863   1.565   0.117
 5893TIP3    H117643   0.819   1.640   0.077
 5893TIP3    H217644   0.807   1.541   0.191
 5894TIP3   OH217645   6.200   4.743   0.598
 5894TIP3    H117646   6.247   4.748   0.515
 5894TIP3    H217647   6.107   4.751   0.574
 5895TIP3   OH217648   5.639   5.852   0.181
 5895TIP3    H117649   5.646   5.765   0.222
 5895TIP3    H217650   5.671   5.838   0.091
 5896TIP3   OH217651   2.771   2.598   3.571
 5896TIP3    H117652   2.763   2.606   3.666
 5896TIP3    H217653   2.689   2.634   3.537
 5897TIP3   OH217654   2.167   6.414   4.426
 5897TIP3    H117655   2.237   6.462   4.381
 5897TIP3    H217656   2.099   6.478   4.441
 5898TIP3   OH217657   6.101   6.348   1.768
 5898TIP3    H117658   6.098   6.267   1.820
 5898TIP3    H217659   6.018   6.392   1.787
 5899TIP3   OH217660   5.448   4.304   5.851
 5899TIP3    H117661   5.456   4.219   5.807
 5899TIP3    H217662   5.365   4.298   5.900
 5900TIP3   OH217663   2.585   1.635   1.760
 5900TIP3    H117664   2.678   1.615   1.766
 5900TIP3    H217665   2.580   1.719   1.714
 5901TIP3   OH217666   1.186   4.542   2.095
 5901TIP3    H117667   1.203   4.470   2.034
 5901TIP3    H217668   1.269   4.590   2.100
 5902TIP3   OH217669   5.665   5.979   2.520
 5902TIP3    H117670   5.741   6.008   2.470
 5902TIP3    H217671   5.702   5.951   2.604
 5903TIP3   OH217672   4.435   0.761   4.635
 5903TIP3    H117673   4.437   0.666   4.622
 5903TIP3    H217674   4.361   0.791   4.581
 5904TIP3   OH217675   4.240   1.082   0.675
 5904TIP3    H117676   4.318   1.025   0.670
 5904TIP3    H217677   4.183   1.050   0.605
 5905TIP3   OH217678   0.226   5.041   0.828
 5905TIP3    H117679   0.291   5.100   0.867
 5905TIP3    H217680   0.153   5.098   0.803
 5906TIP3   OH217681   1.396   4.992   3.835
 5906TIP3    H117682   1.429   4.903   3.827
 5906TIP3    H217683   1.475   5.047   3.838
 5907TIP3   OH217684   2.750   6.719   1.110
 5907TIP3    H117685   2.723   6.769   1.033
 5907TIP3    H217686   2.750   6.783   1.181
 5908TIP3   OH217687   6.213   0.649   3.462
 5908TIP3    H117688   6.119   0.644   3.441
 5908TIP3    H217689   6.218   0.717   3.529
 5909TIP3   OH217690   5.295   5.456   5.620
 5909TIP3    H117691   5.205   5.423   5.628
 5909TIP3    H217692   5.348   5.394   5.671
 5910TIP3   OH217693   5.513   0.238   3.339
 5910TIP3    H117694   5.552   0.156   3.371
 5910TIP3    H217695   5.552   0.250   3.252
 5911TIP3   OH217696   5.814   5.924   2.757
 5911TIP3    H117697   5.898   5.883   2.777
 5911TIP3    H217698   5.819   6.011   2.797
 5912TIP3   OH217699   5.508   5.307   2.253
 5912TIP3    H117700   5.462   5.386   2.279
 5912TIP3    H217701   5.447   5.236   2.271
 5913TIP3   OH217702   5.874   0.457   2.882
 5913TIP3    H117703   5.841   0.369   2.867
 5913TIP3    H217704   5.881   0.496   2.794
 5914TIP3   OH217705   5.538   3.061   5.472
 5914TIP3    H117706   5.516   3.152   5.454
 5914TIP3    H217707   5.633   3.056   5.464
 5915TIP3   OH217708   2.016   0.549   4.807
 5915TIP3    H117709   2.054   0.615   4.865
 5915TIP3    H217710   2.045   0.466   4.844
 5916TIP3   OH217711   2.258   2.796   3.881
 5916TIP3    H117712   2.262   2.862   3.950
 5916TIP3    H217713   2.348   2.787   3.852
 5917TIP3   OH217714   5.184   6.525   4.880
 5917TIP3    H117715   5.214   6.476   4.957
 5917TIP3    H217716   5.255   6.587   4.861
 5918TIP3   OH217717   5.394   3.086   0.468
 5918TIP3    H117718   5.379   3.025   0.396
 5918TIP3    H217719   5.322   3.149   0.461
 5919TIP3   OH217720   3.915   2.390   2.109
 5919TIP3    H117721   3.974   2.333   2.159
 5919TIP3    H217722   3.930   2.366   2.018
 5920TIP3   OH217723   4.130   1.150   3.780
 5920TIP3    H117724   4.194   1.218   3.760
 5920TIP3    H217725   4.053   1.198   3.811
 5921TIP3   OH217726   5.506   1.000   5.602
 5921TIP3    H117727   5.497   1.034   5.691
 5921TIP3    H217728   5.548   0.914   5.613
 5922TIP3   OH217729   6.458   3.076   0.246
 5922TIP3    H117730   6.546   3.040   0.241
 5922TIP3    H217731   6.409   3.014   0.300
 5923TIP3   OH217732   4.029   4.289   3.592
 5923TIP3    H117733   4.115   4.260   3.624
 5923TIP3    H217734   4.049   4.336   3.511
 5924TIP3   OH217735   2.561   0.215   4.747
 5924TIP3    H117736   2.641   0.249   4.787
 5924TIP3    H217737   2.521   0.161   4.816
 5925TIP3   OH217738   4.381   1.160   5.039
 5925TIP3    H117739   4.316   1.098   5.009
 5925TIP3    H217740   4.464   1.111   5.037
 5926TIP3   OH217741   6.298   3.681   3.116
 5926TIP3    H117742   6.314   3.755   3.057
 5926TIP3    H217743   6.202   3.675   3.121
 5927TIP3   OH217744   5.834   5.424   4.115
 5927TIP3    H117745   5.897   5.429   4.187
 5927TIP3    H217746   5.884   5.389   4.042
 5928TIP3   OH217747   5.096   6.050   5.799
 5928TIP3    H117748   5.098   6.125   5.858
 5928TIP3    H217749   5.110   5.974   5.855
 5929TIP3   OH217750   6.990   3.822   0.482
 5929TIP3    H117751   6.958   3.752   0.426
 5929TIP3    H217752   6.984   3.901   0.427
 5930TIP3   OH217753   4.441   4.718   3.491
 5930TIP3    H117754   4.419   4.810   3.476
 5930TIP3    H217755   4.418   4.702   3.582
 5931TIP3   OH217756   4.774   3.443   2.893
 5931TIP3    H117757   4.811   3.386   2.960
 5931TIP3    H217758   4.792   3.398   2.810
 5932TIP3   OH217759   6.861   3.861   5.441
 5932TIP3    H117760   6.856   3.952   5.411
 5932TIP3    H217761   6.779   3.822   5.413
 5933TIP3   OH217762   3.628   3.859   5.662
 5933TIP3    H117763   3.606   3.770   5.689
 5933TIP3    H217764   3.659   3.850   5.572
 5934TIP3   OH217765   3.310   0.857   3.350
 5934TIP3    H117766   3.364   0.881   3.425
 5934TIP3    H217767   3.220   0.870   3.380
 5935TIP3   OH217768   5.310   1.726   5.712
 5935TIP3    H117769   5.302   1.786   5.638
 5935TIP3    H217770   5.379   1.665   5.686
 5936TIP3   OH217771   6.656   1.883   4.102
 5936TIP3    H117772   6.627   1.957   4.154
 5936TIP3    H217773   6.719   1.921   4.040
 5937TIP3   OH217774   3.460   1.470   1.389
 5937TIP3    H117775   3.555   1.477   1.402
 5937TIP3    H217776   3.449   1.465   1.294
 5938TIP3   OH217777   1.580   1.684   4.524
 5938TIP3    H117778   1.517   1.692   4.453
 5938TIP3    H217779   1.646   1.751   4.506
 5939TIP3   OH217780   1.446   1.203   3.682
 5939TIP3    H117781   1.475   1.151   3.608
 5939TIP3    H217782   1.372   1.254   3.649
 5940TIP3   OH217783   4.894   0.239   4.426
 5940TIP3    H117784   4.941   0.185   4.491
 5940TIP3    H217785   4.882   0.323   4.469
 5941TIP3   OH217786   0.962   3.906   5.682
 5941TIP3    H117787   0.927   3.956   5.756
 5941TIP3    H217788   0.908   3.934   5.608
 5942TIP3   OH217789   0.239   0.861   1.746
 5942TIP3    H117790   0.198   0.914   1.815
 5942TIP3    H217791   0.307   0.918   1.710
 5943TIP3   OH217792   2.460   1.957   4.499
 5943TIP3    H117793   2.491   1.877   4.541
 5943TIP3    H217794   2.396   1.927   4.435
 5944TIP3   OH217795   2.049   6.724   3.317
 5944TIP3    H117796   2.005   6.759   3.394
 5944TIP3    H217797   2.132   6.689   3.349
 5945TIP3   OH217798   6.519   0.114   2.113
 5945TIP3    H117799   6.600   0.148   2.075
 5945TIP3    H217800   6.463   0.191   2.122
 5946TIP3   OH217801   2.925   3.990   5.505
 5946TIP3    H117802   2.841   3.949   5.520
 5946TIP3    H217803   2.945   4.034   5.587
 5947TIP3   OH217804   3.530   3.721   3.830
 5947TIP3    H117805   3.520   3.781   3.756
 5947TIP3    H217806   3.551   3.777   3.904
 5948TIP3   OH217807   3.538   3.668   5.341
 5948TIP3    H117808   3.537   3.645   5.248
 5948TIP3    H217809   3.475   3.607   5.381
 5949TIP3   OH217810   5.868   0.892   2.622
 5949TIP3    H117811   5.785   0.937   2.609
 5949TIP3    H217812   5.924   0.922   2.550
 5950TIP3   OH217813   5.737   3.901   3.637
 5950TIP3    H117814   5.814   3.846   3.645
 5950TIP3    H217815   5.664   3.846   3.664
 5951TIP3   OH217816   1.905   2.149   0.363
 5951TIP3    H117817   1.866   2.235   0.382
 5951TIP3    H217818   1.999   2.165   0.361
 5952TIP3   OH217819   7.113   1.288   4.146
 5952TIP3    H117820   7.188   1.269   4.090
 5952TIP3    H217821   7.074   1.367   4.108
 5953TIP3   OH217822   4.528   3.418   0.218
 5953TIP3    H117823   4.447   3.458   0.251
 5953TIP3    H217824   4.556   3.359   0.288
 5954TIP3   OH217825   0.286   6.266   0.035
 5954TIP3    H117826   0.232   6.253   0.113
 5954TIP3    H217827   0.375   6.248   0.064
 5955TIP3   OH217828   1.642   4.861   1.223
 5955TIP3    H117829   1.575   4.794   1.240
 5955TIP3    H217830   1.698   4.822   1.156
 5956TIP3   OH217831   1.009   1.186   4.571
 5956TIP3    H117832   1.093   1.231   4.560
 5956TIP3    H217833   0.944   1.255   4.561
 5957TIP3   OH217834   6.781   2.777   4.371
 5957TIP3    H117835   6.744   2.741   4.452
 5957TIP3    H217836   6.804   2.700   4.319
 5958TIP3   OH217837   0.958   2.208   0.242
 5958TIP3    H117838   1.052   2.228   0.241
 5958TIP3    H217839   0.928   2.239   0.328
 5959TIP3   OH217840   6.743   0.778   0.274
 5959TIP3    H117841   6.647   0.785   0.280
 5959TIP3    H217842   6.775   0.845   0.334
 5960TIP3   OH217843   4.079   4.641   5.206
 5960TIP3    H117844   4.015   4.599   5.263
 5960TIP3    H217845   4.035   4.646   5.121
 5961TIP3   OH217846   6.504   0.027   1.155
 5961TIP3    H117847   6.482  -0.018   1.074
 5961TIP3    H217848   6.566  -0.031   1.199
 5962TIP3   OH217849   3.148   3.125   0.223
 5962TIP3    H117850   3.174   3.123   0.315
 5962TIP3    H217851   3.202   3.194   0.184
 5963TIP3   OH217852   1.457   3.481   2.006
 5963TIP3    H117853   1.417   3.554   2.054
 5963TIP3    H217854   1.388   3.448   1.949
 5964TIP3   OH217855   6.896   1.124   2.183
 5964TIP3    H117856   6.915   1.202   2.131
 5964TIP3    H217857   6.801   1.118   2.183
 5965TIP3   OH217858   4.145   6.567   0.447
 5965TIP3    H117859   4.143   6.494   0.508
 5965TIP3    H217860   4.075   6.548   0.384
 5966TIP3   OH217861   3.081   0.725   5.244
 5966TIP3    H117862   3.073   0.775   5.163
 5966TIP3    H217863   3.055   0.636   5.221
 5967TIP3   OH217864   4.693   2.547   4.902
 5967TIP3    H117865   4.665   2.604   4.831
 5967TIP3    H217866   4.625   2.556   4.969
 5968TIP3   OH217867   0.552   6.057   2.493
 5968TIP3    H117868   0.571   5.989   2.429
 5968TIP3    H217869   0.550   6.138   2.443
 5969TIP3   OH217870   1.290   0.143   3.321
 5969TIP3    H117871   1.319   0.052   3.312
 5969TIP3    H217872   1.195   0.138   3.328
 5970TIP3   OH217873   3.412   1.306   3.547
 5970TIP3    H117874   3.389   1.350   3.629
 5970TIP3    H217875   3.497   1.342   3.523
 5971TIP3   OH217876   3.313   4.526   5.365
 5971TIP3    H117877   3.329   4.569   5.281
 5971TIP3    H217878   3.269   4.444   5.342
 5972TIP3   OH217879   6.695   6.356   2.265
 5972TIP3    H117880   6.672   6.440   2.227
 5972TIP3    H217881   6.612   6.319   2.294
 5973TIP3   OH217882   0.924   1.087   4.110
 5973TIP3    H117883   0.996   1.024   4.103
 5973TIP3    H217884   0.870   1.071   4.032
 5974TIP3   OH217885   1.011   0.283   5.198
 5974TIP3    H117886   1.061   0.358   5.165
 5974TIP3    H217887   0.935   0.322   5.240
 5975TIP3   OH217888   2.156   2.838   5.495
 5975TIP3    H117889   2.133   2.762   5.548
 5975TIP3    H217890   2.112   2.823   5.411
 5976TIP3   OH217891   4.721   3.863   4.911
 5976TIP3    H117892   4.757   3.836   4.995
 5976TIP3    H217893   4.792   3.851   4.848
 5977TIP3   OH217894   3.989   4.738   0.022
 5977TIP3    H117895   3.964   4.647   0.038
 5977TIP3    H217896   3.965   4.784   0.103
 5978TIP3   OH217897   2.701   1.942   0.656
 5978TIP3    H117898   2.759   1.876   0.619
 5978TIP3    H217899   2.636   1.892   0.706
 5979TIP3   OH217900   6.190   0.437   4.250
 5979TIP3    H117901   6.224   0.389   4.175
 5979TIP3    H217902   6.095   0.441   4.235
 5980TIP3   OH217903   6.862   3.536   4.581
 5980TIP3    H117904   6.877   3.580   4.665
 5980TIP3    H217905   6.770   3.510   4.583
 5981TIP3   OH217906   5.457   0.882   5.084
 5981TIP3    H117907   5.437   0.957   5.028
 5981TIP3    H217908   5.406   0.810   5.048
 5982TIP3   OH217909   5.107   6.510   4.587
 5982TIP3    H117910   5.137   6.500   4.677
 5982TIP3    H217911   5.165   6.577   4.550
 5983TIP3   OH217912   5.267   2.274   3.596
 5983TIP3    H117913   5.245   2.252   3.687
 5983TIP3    H217914   5.230   2.361   3.583
 5984TIP3   OH217915   4.723   2.593   2.677
 5984TIP3    H117916   4.634   2.563   2.662
 5984TIP3    H217917   4.725   2.683   2.646
 5985TIP3   OH217918   4.186   4.844   0.982
 5985TIP3    H117919   4.240   4.916   0.948
 5985TIP3    H217920   4.124   4.886   1.040
 5986TIP3   OH217921   1.239   0.287   5.502
 5986TIP3    H117922   1.291   0.281   5.422
 5986TIP3    H217923   1.171   0.351   5.481
 5987TIP3   OH217924   3.946   2.631   5.730
 5987TIP3    H117925   3.919   2.694   5.797
 5987TIP3    H217926   3.943   2.680   5.648
 5988TIP3   OH217927   3.132   4.953   3.986
 5988TIP3    H117928   3.109   5.022   3.924
 5988TIP3    H217929   3.226   4.940   3.974
 5989TIP3   OH217930   5.579   0.152   1.069
 5989TIP3    H117931   5.518   0.221   1.098
 5989TIP3    H217932   5.523   0.088   1.025
 5990TIP3   OH217933   1.486   2.521   3.254
 5990TIP3    H117934   1.417   2.463   3.286
 5990TIP3    H217935   1.439   2.596   3.218
 5991TIP3   OH217936   0.944   0.266   0.083
 5991TIP3    H117937   1.034   0.297   0.087
 5991TIP3    H217938   0.893   0.336   0.125
 5992TIP3   OH217939   1.734   3.234   3.953
 5992TIP3    H117940   1.687   3.152   3.939
 5992TIP3    H217941   1.675   3.302   3.919
 5993TIP3   OH217942   6.928   2.325   1.837
 5993TIP3    H117943   6.880   2.348   1.917
 5993TIP3    H217944   6.861   2.311   1.771
 5994TIP3   OH217945   1.228   0.264   2.472
 5994TIP3    H117946   1.144   0.226   2.445
 5994TIP3    H217947   1.219   0.278   2.566
 5995TIP3   OH217948   0.353   3.334   5.737
 5995TIP3    H117949   0.445   3.311   5.733
 5995TIP3    H217950   0.315   3.274   5.801
 5996TIP3   OH217951   1.269   1.235   1.455
 5996TIP3    H117952   1.244   1.153   1.413
 5996TIP3    H217953   1.189   1.265   1.498
 5997TIP3   OH217954   4.152   3.803   1.235
 5997TIP3    H117955   4.206   3.843   1.303
 5997TIP3    H217956   4.099   3.738   1.281
 5998TIP3   OH217957   7.185   6.456   2.151
 5998TIP3    H117958   7.181   6.397   2.075
 5998TIP3    H217959   7.220   6.401   2.221
 5999TIP3   OH217960   4.970   6.219   3.514
 5999TIP3    H117961   4.969   6.212   3.418
 5999TIP3    H217962   4.879   6.239   3.537
 6000TIP3   OH217963   7.209   3.514   5.707
 6000TIP3    H117964   7.146   3.445   5.727
 6000TIP3    H217965   7.241   3.492   5.619
 6001TIP3   OH217966   6.627   4.897   4.371
 6001TIP3    H117967   6.696   4.957   4.342
 6001TIP3    H217968   6.646   4.816   4.324
 6002TIP3   OH217969   1.451   5.605   0.961
 6002TIP3    H117970   1.502   5.578   0.884
 6002TIP3    H217971   1.427   5.523   1.004
 6003TIP3   OH217972   3.515   2.385   4.003
 6003TIP3    H117973   3.476   2.298   4.004
 6003TIP3    H217974   3.484   2.424   3.921
 6004TIP3   OH217975   2.126   2.301   2.200
 6004TIP3    H117976   2.078   2.336   2.276
 6004TIP3    H217977   2.095   2.211   2.193
 6005TIP3   OH217978   6.916   2.459   2.419
 6005TIP3    H117979   6.950   2.548   2.408
 6005TIP3    H217980   6.865   2.443   2.340
 6006TIP3   OH217981   7.065   4.445   3.030
 6006TIP3    H117982   7.116   4.402   2.962
 6006TIP3    H217983   7.126   4.458   3.102
 6007TIP3   OH217984   3.305   1.069   1.595
 6007TIP3    H117985   3.310   1.125   1.517
 6007TIP3    H217986   3.361   0.994   1.574
 6008TIP3   OH217987   5.477   3.576   5.117
 6008TIP3    H117988   5.431   3.633   5.179
 6008TIP3    H217989   5.496   3.497   5.167
 6009TIP3   OH217990   6.335   4.865   0.327
 6009TIP3    H117991   6.291   4.906   0.253
 6009TIP3    H217992   6.369   4.782   0.292
 6010TIP3   OH217993   1.767   1.513   0.498
 6010TIP3    H117994   1.764   1.509   0.593
 6010TIP3    H217995   1.758   1.606   0.477
 6011TIP3   OH217996   1.059   5.910   4.370
 6011TIP3    H117997   0.972   5.923   4.408
 6011TIP3    H217998   1.069   5.983   4.309
 6012TIP3   OH217999   6.376   1.602   0.503
 6012TIP3    H118000   6.311   1.642   0.560
 6012TIP3    H218001   6.447   1.666   0.499
 6013TIP3   OH218002   4.010   6.659   1.601
 6013TIP3    H118003   4.104   6.654   1.585
 6013TIP3    H218004   3.981   6.732   1.545
 6014TIP3   OH218005   0.613   2.322   4.614
 6014TIP3    H118006   0.708   2.330   4.602
 6014TIP3    H218007   0.580   2.299   4.527
 6015TIP3   OH218008   2.829   3.136   5.305
 6015TIP3    H118009   2.855   3.075   5.236
 6015TIP3    H218010   2.877   3.106   5.382
 6016TIP3   OH218011   0.198   3.326   0.468
 6016TIP3    H118012   0.180   3.232   0.464
 6016TIP3    H218013   0.117   3.367   0.437
 6017TIP3   OH218014   5.933   4.477   4.756
 6017TIP3    H118015   5.972   4.450   4.673
 6017TIP3    H218016   5.992   4.544   4.790
 6018TIP3   OH218017   7.065   6.376   5.410
 6018TIP3    H118018   7.152   6.372   5.449
 6018TIP3    H218019   7.047   6.470   5.402
 6019TIP3   OH218020   2.234   5.896   0.505
 6019TIP3    H118021   2.322   5.906   0.469
 6019TIP3    H218022   2.179   5.875   0.429
 6020TIP3   OH218023   6.396   3.099   5.197
 6020TIP3    H118024   6.345   3.156   5.253
 6020TIP3    H218025   6.452   3.158   5.147
 6021TIP3   OH218026   3.957   0.641   4.994
 6021TIP3    H118027   3.969   0.640   5.089
 6021TIP3    H218028   3.907   0.562   4.975
 6022TIP3   OH218029   4.233   2.568   1.866
 6022TIP3    H118030   4.203   2.648   1.822
 6022TIP3    H218031   4.173   2.500   1.835
 6023TIP3   OH218032   2.278   1.690   1.528
 6023TIP3    H118033   2.342   1.634   1.482
 6023TIP3    H218034   2.257   1.642   1.608
 6024TIP3   OH218035   3.675   0.645   2.600
 6024TIP3    H118036   3.672   0.707   2.673
 6024TIP3    H218037   3.623   0.686   2.532
 6025TIP3   OH218038   4.440   2.281   0.305
 6025TIP3    H118039   4.416   2.190   0.288
 6025TIP3    H218040   4.525   2.276   0.349
 6026TIP3   OH218041   3.900   0.710   5.681
 6026TIP3    H118042   3.887   0.757   5.763
 6026TIP3    H218043   3.828   0.738   5.625
 6027TIP3   OH218044   4.741   3.068   4.491
 6027TIP3    H118045   4.663   3.070   4.434
 6027TIP3    H218046   4.757   3.160   4.512
 6028TIP3   OH218047   2.420   3.320   4.356
 6028TIP3    H118048   2.433   3.409   4.389
 6028TIP3    H218049   2.335   3.323   4.311
 6029TIP3   OH218050   0.836   1.721   3.499
 6029TIP3    H118051   0.803   1.632   3.511
 6029TIP3    H218052   0.904   1.712   3.432
 6030TIP3   OH218053   3.888   0.958   1.422
 6030TIP3    H118054   3.842   0.911   1.353
 6030TIP3    H218055   3.833   0.946   1.500
 6031TIP3   OH218056   3.779   3.029   4.097
 6031TIP3    H118057   3.859   2.979   4.114
 6031TIP3    H218058   3.730   2.974   4.036
 6032TIP3   OH218059   0.901   5.613   5.422
 6032TIP3    H118060   0.982   5.597   5.471
 6032TIP3    H218061   0.930   5.652   5.339
 6033TIP3   OH218062   6.422   4.242   3.465
 6033TIP3    H118063   6.369   4.280   3.535
 6033TIP3    H218064   6.389   4.285   3.385
 6034TIP3   OH218065   5.572   1.148   1.043
 6034TIP3    H118066   5.637   1.089   1.080
 6034TIP3    H218067   5.619   1.231   1.033
 6035TIP3   OH218068   6.384   5.528   1.242
 6035TIP3    H118069   6.411   5.585   1.169
 6035TIP3    H218070   6.430   5.445   1.226
 6036TIP3   OH218071   1.178   5.138   5.023
 6036TIP3    H118072   1.200   5.192   4.947
 6036TIP3    H218073   1.085   5.119   5.014
 6037TIP3   OH218074   2.833   0.316   4.411
 6037TIP3    H118075   2.866   0.290   4.325
 6037TIP3    H218076   2.771   0.247   4.435
 6038TIP3   OH218077   4.475   0.972   0.558
 6038TIP3    H118078   4.512   0.898   0.511
 6038TIP3    H218079   4.535   0.987   0.631
 6039TIP3   OH218080   0.276   3.586   5.733
 6039TIP3    H118081   0.183   3.575   5.710
 6039TIP3    H218082   0.312   3.498   5.730
 6040TIP3   OH218083   1.765   4.643   1.665
 6040TIP3    H118084   1.696   4.674   1.607
 6040TIP3    H218085   1.721   4.628   1.749
 6041TIP3   OH218086   0.155   4.037   4.266
 6041TIP3    H118087   0.060   4.034   4.258
 6041TIP3    H218088   0.175   3.980   4.341
 6042TIP3   OH218089   6.763   4.829   4.667
 6042TIP3    H118090   6.771   4.888   4.742
 6042TIP3    H218091   6.806   4.875   4.595
 6043TIP3   OH218092   6.926   6.068   4.825
 6043TIP3    H118093   6.906   5.983   4.785
 6043TIP3    H218094   7.021   6.070   4.831
 6044TIP3   OH218095   4.181   0.780   0.080
 6044TIP3    H118096   4.216   0.774   0.169
 6044TIP3    H218097   4.228   0.713   0.031
 6045TIP3   OH218098   6.552   1.124   4.715
 6045TIP3    H118099   6.585   1.052   4.770
 6045TIP3    H218100   6.597   1.201   4.749
 6046TIP3   OH218101   5.643   1.337   0.786
 6046TIP3    H118102   5.703   1.265   0.808
 6046TIP3    H218103   5.695   1.416   0.799
 6047TIP3   OH218104   0.487   0.463   5.452
 6047TIP3    H118105   0.422   0.441   5.519
 6047TIP3    H218106   0.437   0.469   5.371
 6048TIP3   OH218107   1.018   4.188   4.323
 6048TIP3    H118108   0.933   4.144   4.315
 6048TIP3    H218109   1.073   4.147   4.256
 6049TIP3   OH218110   2.529   3.967   2.045
 6049TIP3    H118111   2.543   3.930   2.132
 6049TIP3    H218112   2.560   3.899   1.985
 6050TIP3   OH218113   2.147   5.331   1.288
 6050TIP3    H118114   2.169   5.291   1.203
 6050TIP3    H218115   2.151   5.258   1.350
 6051TIP3   OH218116   3.172   0.081   2.218
 6051TIP3    H118117   3.124   0.007   2.182
 6051TIP3    H218118   3.169   0.147   2.149
 6052TIP3   OH218119   0.310   2.901   0.338
 6052TIP3    H118120   0.377   2.892   0.406
 6052TIP3    H218121   0.342   2.847   0.266
 6053TIP3   OH218122   6.078   6.287   3.730
 6053TIP3    H118123   6.083   6.375   3.692
 6053TIP3    H218124   6.006   6.293   3.793
 6054TIP3   OH218125   6.960   0.942   0.406
 6054TIP3    H118126   7.014   0.882   0.354
 6054TIP3    H218127   7.017   1.018   0.422
 6055TIP3   OH218128   4.890   2.048   0.639
 6055TIP3    H118129   4.825   2.009   0.580
 6055TIP3    H218130   4.839   2.107   0.695
 6056TIP3   OH218131   1.190   4.036   2.780
 6056TIP3    H118132   1.219   4.034   2.689
 6056TIP3    H218133   1.198   4.128   2.805
 6057TIP3   OH218134   2.281   2.952   3.193
 6057TIP3    H118135   2.322   2.894   3.130
 6057TIP3    H218136   2.354   3.002   3.231
 6058TIP3   OH218137   6.441   4.809   5.062
 6058TIP3    H118138   6.450   4.743   5.131
 6058TIP3    H218139   6.467   4.891   5.104
 6059TIP3   OH218140   3.388   1.938   4.562
 6059TIP3    H118141   3.450   2.006   4.538
 6059TIP3    H218142   3.421   1.902   4.644
 6060TIP3   OH218143   5.000   3.354   3.952
 6060TIP3    H118144   4.991   3.311   3.867
 6060TIP3    H218145   5.082   3.403   3.945
 6061TIP3   OH218146   4.241   1.043   0.246
 6061TIP3    H118147   4.170   1.043   0.310
 6061TIP3    H218148   4.309   0.989   0.285
 6062TIP3   OH218149   4.527   4.112   5.618
 6062TIP3    H118150   4.528   4.044   5.685
 6062TIP3    H218151   4.436   4.143   5.617
 6063TIP3   OH218152   6.678   5.593   1.124
 6063TIP3    H118153   6.738   5.519   1.121
 6063TIP3    H218154   6.670   5.613   1.217
 6064TIP3   OH218155   3.206   2.910   1.679
 6064TIP3    H118156   3.264   2.884   1.607
 6064TIP3    H218157   3.265   2.947   1.745
 6065TIP3   OH218158   4.225   1.745   0.508
 6065TIP3    H118159   4.189   1.774   0.592
 6065TIP3    H218160   4.152   1.701   0.465
 6066TIP3   OH218161   3.832   3.432   2.001
 6066TIP3    H118162   3.814   3.497   1.932
 6066TIP3    H218163   3.746   3.410   2.036
 6067TIP3   OH218164   7.029   6.776   1.054
 6067TIP3    H118165   7.024   6.722   1.132
 6067TIP3    H218166   7.043   6.714   0.982
 6068TIP3   OH218167   0.697   6.640   0.841
 6068TIP3    H118168   0.613   6.685   0.843
 6068TIP3    H218169   0.691   6.581   0.766
 6069TIP3   OH218170   5.240   2.059   2.291
 6069TIP3    H118171   5.240   1.972   2.250
 6069TIP3    H218172   5.332   2.080   2.304
 6070TIP3   OH218173   1.464   6.133   1.215
 6070TIP3    H118174   1.465   6.203   1.280
 6070TIP3    H218175   1.485   6.054   1.265
 6071TIP3   OH218176   3.347   0.391   1.094
 6071TIP3    H118177   3.411   0.346   1.039
 6071TIP3    H218178   3.358   0.484   1.073
 6072TIP3   OH218179   5.838   0.679   3.206
 6072TIP3    H118180   5.870   0.684   3.296
 6072TIP3    H218181   5.802   0.590   3.199
 6073TIP3   OH218182   3.251   0.316   0.762
 6073TIP3    H118183   3.277   0.277   0.678
 6073TIP3    H218184   3.318   0.286   0.824
 6074TIP3   OH218185   3.233   2.136   0.356
 6074TIP3    H118186   3.259   2.093   0.274
 6074TIP3    H218187   3.313   2.137   0.409
 6075TIP3   OH218188   1.117   6.257   2.294
 6075TIP3    H118189   1.130   6.336   2.242
 6075TIP3    H218190   1.029   6.266   2.330
 6076TIP3   OH218191   4.262   5.347   0.717
 6076TIP3    H118192   4.320   5.295   0.661
 6076TIP3    H218193   4.320   5.385   0.782
 6077TIP3   OH218194   2.351   5.725   3.519
 6077TIP3    H118195   2.367   5.642   3.474
 6077TIP3    H218196   2.331   5.787   3.449
 6078TIP3   OH218197   5.728   4.250   0.594
 6078TIP3    H118198   5.700   4.339   0.573
 6078TIP3    H218199   5.812   4.261   0.638
 6079TIP3   OH218200   1.341   4.227   1.340
 6079TIP3    H118201   1.323   4.253   1.250
 6079TIP3    H218202   1.436   4.221   1.345
 6080TIP3   OH218203   6.549   1.189   2.270
 6080TIP3    H118204   6.495   1.125   2.317
 6080TIP3    H218205   6.489   1.230   2.207
 6081TIP3   OH218206   3.622   3.304   0.377
 6081TIP3    H118207   3.634   3.383   0.430
 6081TIP3    H218208   3.528   3.301   0.360
 6082TIP3   OH218209   4.399   6.255   0.499
 6082TIP3    H118210   4.309   6.257   0.529
 6082TIP3    H218211   4.406   6.330   0.439
 6083TIP3   OH218212   0.705   4.351   5.826
 6083TIP3    H118213   0.611   4.359   5.808
 6083TIP3    H218214   0.747   4.391   5.750
 6084TIP3   OH218215   6.928   3.203   4.802
 6084TIP3    H118216   6.919   3.162   4.716
 6084TIP3    H218217   6.873   3.281   4.797
 6085TIP3   OH218218   4.160   3.198   4.788
 6085TIP3    H118219   4.175   3.226   4.698
 6085TIP3    H218220   4.174   3.104   4.786
 6086TIP3   OH218221   1.199   5.916   2.923
 6086TIP3    H118222   1.125   5.958   2.966
 6086TIP3    H218223   1.238   5.986   2.870
 6087TIP3   OH218224   3.459   3.250   5.563
 6087TIP3    H118225   3.540   3.273   5.516
 6087TIP3    H218226   3.470   3.288   5.650
 6088TIP3   OH218227   5.233   5.881   2.398
 6088TIP3    H118228   5.307   5.933   2.368
 6088TIP3    H218229   5.156   5.930   2.370
 6089TIP3   OH218230   6.832   1.835   0.104
 6089TIP3    H118231   6.890   1.878   0.041
 6089TIP3    H218232   6.840   1.886   0.184
 6090TIP3   OH218233   0.814   6.217   3.356
 6090TIP3    H118234   0.848   6.299   3.321
 6090TIP3    H218235   0.891   6.169   3.386
 6091TIP3   OH218236   0.826   5.154   0.163
 6091TIP3    H118237   0.819   5.075   0.216
 6091TIP3    H218238   0.906   5.141   0.111
 6092TIP3   OH218239   4.880   1.302   0.290
 6092TIP3    H118240   4.918   1.349   0.365
 6092TIP3    H218241   4.955   1.262   0.247
 6093TIP3   OH218242   1.064   2.418   4.744
 6093TIP3    H118243   1.025   2.486   4.800
 6093TIP3    H218244   1.144   2.458   4.711
 6094TIP3   OH218245   2.584   3.471   3.404
 6094TIP3    H118246   2.491   3.482   3.384
 6094TIP3    H218247   2.624   3.449   3.320
 6095TIP3   OH218248   1.412   4.567   5.693
 6095TIP3    H118249   1.338   4.625   5.711
 6095TIP3    H218250   1.487   4.612   5.734
 6096TIP3   OH218251   2.687   4.969   5.367
 6096TIP3    H118252   2.701   4.874   5.366
 6096TIP3    H218253   2.693   4.994   5.275
 6097TIP3   OH218254   0.634   5.775   5.458
 6097TIP3    H118255   0.634   5.797   5.551
 6097TIP3    H218256   0.722   5.740   5.441
 6098TIP3   OH218257   2.620   5.755   3.555
 6098TIP3    H118258   2.526   5.759   3.535
 6098TIP3    H218259   2.631   5.816   3.628
 6099TIP3   OH218260   3.974   2.285   1.868
 6099TIP3    H118261   4.016   2.199   1.869
 6099TIP3    H218262   4.011   2.328   1.792
 6100TIP3   OH218263   2.915   3.821   2.886
 6100TIP3    H118264   3.003   3.852   2.867
 6100TIP3    H218265   2.885   3.780   2.805
 6101TIP3   OH218266   4.109   2.279   4.241
 6101TIP3    H118267   4.070   2.195   4.217
 6101TIP3    H218268   4.165   2.302   4.167
 6102TIP3   OH218269   5.791   4.506   4.986
 6102TIP3    H118270   5.696   4.511   4.978
 6102TIP3    H218271   5.823   4.524   4.897
 6103TIP3   OH218272   3.824   5.405   4.426
 6103TIP3    H118273   3.881   5.332   4.402
 6103TIP3    H218274   3.736   5.375   4.402
 6104TIP3   OH218275   6.488   1.243   0.973
 6104TIP3    H118276   6.579   1.265   0.956
 6104TIP3    H218277   6.469   1.285   1.057
 6105TIP3   OH218278   3.073   2.019   2.203
 6105TIP3    H118279   3.077   1.927   2.230
 6105TIP3    H218280   3.023   2.062   2.272
 6106TIP3   OH218281   6.805   5.379   2.462
 6106TIP3    H118282   6.766   5.463   2.438
 6106TIP3    H218283   6.886   5.403   2.509
 6107TIP3   OH218284   5.531   5.751   3.838
 6107TIP3    H118285   5.479   5.810   3.783
 6107TIP3    H218286   5.607   5.803   3.864
 6108TIP3   OH218287   2.154   0.637   0.961
 6108TIP3    H118288   2.203   0.615   1.040
 6108TIP3    H218289   2.119   0.554   0.929
 6109TIP3   OH218290   6.037   5.054   3.660
 6109TIP3    H118291   6.039   5.036   3.754
 6109TIP3    H218292   5.945   5.073   3.642
 6110TIP3   OH218293   5.246   1.344   3.519
 6110TIP3    H118294   5.233   1.358   3.425
 6110TIP3    H218295   5.162   1.313   3.551
 6111TIP3   OH218296   1.535   4.808   0.196
 6111TIP3    H118297   1.482   4.834   0.121
 6111TIP3    H218298   1.477   4.816   0.271
 6112TIP3   OH218299   2.560   5.346   3.423
 6112TIP3    H118300   2.627   5.296   3.376
 6112TIP3    H218301   2.596   5.355   3.512
 6113TIP3   OH218302   1.608   1.336   5.304
 6113TIP3    H118303   1.559   1.270   5.353
 6113TIP3    H218304   1.567   1.337   5.217
 6114TIP3   OH218305   2.887   4.709   3.851
 6114TIP3    H118306   2.874   4.769   3.924
 6114TIP3    H218307   2.965   4.659   3.873
 6115TIP3   OH218308   3.290   5.117   1.072
 6115TIP3    H118309   3.334   5.151   0.994
 6115TIP3    H218310   3.288   5.022   1.059
 6116TIP3   OH218311   5.614   6.205   4.021
 6116TIP3    H118312   5.661   6.152   4.085
 6116TIP3    H218313   5.682   6.260   3.982
 6117TIP3   OH218314   5.601   3.662   3.571
 6117TIP3    H118315   5.566   3.682   3.484
 6117TIP3    H218316   5.611   3.567   3.571
 6118TIP3   OH218317   3.393   1.720   5.367
 6118TIP3    H118318   3.334   1.662   5.320
 6118TIP3    H218319   3.435   1.773   5.299
 6119TIP3   OH218320   1.450   5.783   1.299
 6119TIP3    H118321   1.430   5.708   1.354
 6119TIP3    H218322   1.546   5.788   1.299
 6120TIP3   OH218323   2.135   0.146   0.485
 6120TIP3    H118324   2.215   0.191   0.513
 6120TIP3    H218325   2.134   0.066   0.536
 6121TIP3   OH218326   4.326   3.351   2.546
 6121TIP3    H118327   4.325   3.444   2.566
 6121TIP3    H218328   4.396   3.341   2.481
 6122TIP3   OH218329   1.798   0.704   2.839
 6122TIP3    H118330   1.775   0.656   2.918
 6122TIP3    H218331   1.741   0.667   2.771
 6123TIP3   OH218332   7.078   5.534   0.631
 6123TIP3    H118333   7.014   5.487   0.577
 6123TIP3    H218334   7.046   5.524   0.721
 6124TIP3   OH218335   5.275   3.313   0.325
 6124TIP3    H118336   5.362   3.290   0.295
 6124TIP3    H218337   5.258   3.399   0.285
 6125TIP3   OH218338   7.232   2.655   0.686
 6125TIP3    H118339   7.313   2.683   0.730
 6125TIP3    H218340   7.163   2.673   0.749
 6126TIP3   OH218341   5.682   0.944   1.220
 6126TIP3    H118342   5.611   0.971   1.278
 6126TIP3    H218343   5.710   0.859   1.253
 6127TIP3   OH218344   1.362  -0.012   5.446
 6127TIP3    H118345   1.359  -0.059   5.529
 6127TIP3    H218346   1.449   0.028   5.444
 6128TIP3   OH218347   3.414   3.071   2.807
 6128TIP3    H118348   3.428   3.160   2.839
 6128TIP3    H218349   3.439   3.015   2.881
 6129TIP3   OH218350   1.400   1.281   2.982
 6129TIP3    H118351   1.419   1.259   3.073
 6129TIP3    H218352   1.339   1.213   2.953
 6130TIP3   OH218353   2.930   0.802   4.667
 6130TIP3    H118354   2.979   0.766   4.742
 6130TIP3    H218355   2.865   0.736   4.647
 6131TIP3   OH218356   4.466   1.141   2.784
 6131TIP3    H118357   4.460   1.085   2.861
 6131TIP3    H218358   4.551   1.121   2.746
 6132TIP3   OH218359   5.859   6.655   4.737
 6132TIP3    H118360   5.795   6.698   4.794
 6132TIP3    H218361   5.845   6.695   4.652
 6133TIP3   OH218362   0.327   5.673   1.389
 6133TIP3    H118363   0.234   5.672   1.414
 6133TIP3    H218364   0.328   5.637   1.301
 6134TIP3   OH218365   3.231   0.422   2.264
 6134TIP3    H118366   3.280   0.423   2.182
 6134TIP3    H218367   3.297   0.418   2.332
 6135TIP3   OH218368   0.953   2.725   0.112
 6135TIP3    H118369   0.874   2.671   0.103
 6135TIP3    H218370   0.958   2.744   0.206
 6136TIP3   OH218371   5.209   5.121   4.931
 6136TIP3    H118372   5.223   5.148   4.840
 6136TIP3    H218373   5.114   5.124   4.943
 6137TIP3   OH218374   6.430   5.572   3.856
 6137TIP3    H118375   6.485   5.586   3.779
 6137TIP3    H218376   6.423   5.659   3.896
 6138TIP3   OH218377   7.138   2.132   1.874
 6138TIP3    H118378   7.056   2.179   1.891
 6138TIP3    H218379   7.144   2.068   1.945
 6139TIP3   OH218380   3.386   1.611   4.201
 6139TIP3    H118381   3.477   1.588   4.183
 6139TIP3    H218382   3.362   1.671   4.130
 6140TIP3   OH218383   5.919   0.973   1.381
 6140TIP3    H118384   5.848   1.005   1.326
 6140TIP3    H218385   5.987   0.945   1.320
 6141TIP3   OH218386   3.281   5.676   0.612
 6141TIP3    H118387   3.228   5.596   0.619
 6141TIP3    H218388   3.301   5.684   0.519
 6142TIP3   OH218389   3.057   3.437   3.032
 6142TIP3    H118390   3.115   3.435   3.109
 6142TIP3    H218391   2.987   3.497   3.057
 6143TIP3   OH218392   7.066   2.210   5.338
 6143TIP3    H118393   7.100   2.253   5.416
 6143TIP3    H218394   6.980   2.250   5.324
 6144TIP3   OH218395   0.876   5.630   2.402
 6144TIP3    H118396   0.885   5.719   2.369
 6144TIP3    H218397   0.925   5.575   2.341
 6145TIP3   OH218398   0.488   4.609   0.486
 6145TIP3    H118399   0.546   4.673   0.526
 6145TIP3    H218400   0.407   4.614   0.537
 6146TIP3   OH218401   5.515   0.352   5.682
 6146TIP3    H118402   5.578   0.424   5.684
 6146TIP3    H218403   5.456   0.370   5.756
 6147TIP3   OH218404   1.125   2.093   3.989
 6147TIP3    H118405   1.174   2.127   4.064
 6147TIP3    H218406   1.115   2.169   3.931
 6148TIP3   OH218407   5.165   5.294   4.259
 6148TIP3    H118408   5.238   5.246   4.298
 6148TIP3    H218409   5.152   5.253   4.173
 6149TIP3   OH218410   1.677   3.004   3.808
 6149TIP3    H118411   1.665   2.916   3.772
 6149TIP3    H218412   1.769   3.007   3.835
 6150TIP3   OH218413   3.840   6.255   2.887
 6150TIP3    H118414   3.783   6.331   2.891
 6150TIP3    H218415   3.782   6.181   2.904
 6151TIP3   OH218416   7.077   5.122   4.128
 6151TIP3    H118417   7.062   5.032   4.101
 6151TIP3    H218418   7.173   5.131   4.128
 6152TIP3   OH218419   6.618   2.919   3.376
 6152TIP3    H118420   6.661   2.991   3.422
 6152TIP3    H218421   6.573   2.870   3.445
 6153TIP3   OH218422   7.097   1.512   5.451
 6153TIP3    H118423   7.186   1.547   5.455
 6153TIP3    H218424   7.071   1.501   5.542
 6154TIP3   OH218425   2.237   2.446   1.675
 6154TIP3    H118426   2.297   2.521   1.664
 6154TIP3    H218427   2.283   2.388   1.735
 6155TIP3   OH218428   2.935   6.042   3.473
 6155TIP3    H118429   2.868   6.062   3.539
 6155TIP3    H218430   2.909   5.957   3.437
 6156TIP3   OH218431   3.080   2.431   0.576
 6156TIP3    H118432   3.094   2.338   0.559
 6156TIP3    H218433   3.020   2.459   0.506
 6157TIP3   OH218434   4.662   4.971   2.458
 6157TIP3    H118435   4.750   5.007   2.444
 6157TIP3    H218436   4.625   5.024   2.529
 6158TIP3   OH218437   1.213   4.407   1.532
 6158TIP3    H118438   1.305   4.420   1.555
 6158TIP3    H218439   1.212   4.323   1.486
 6159TIP3   OH218440   4.725   4.803   5.859
 6159TIP3    H118441   4.682   4.800   5.773
 6159TIP3    H218442   4.815   4.778   5.841
 6160TIP3   OH218443   4.743   2.475   0.853
 6160TIP3    H118444   4.661   2.518   0.876
 6160TIP3    H218445   4.747   2.480   0.758
 6161TIP3   OH218446   0.617   6.529   3.663
 6161TIP3    H118447   0.591   6.522   3.755
 6161TIP3    H218448   0.548   6.581   3.622
 6162TIP3   OH218449   4.632   0.314   5.078
 6162TIP3    H118450   4.540   0.303   5.055
 6162TIP3    H218451   4.641   0.407   5.098
 6163TIP3   OH218452   4.164   4.424   5.800
 6163TIP3    H118453   4.219   4.499   5.824
 6163TIP3    H218454   4.206   4.387   5.723
 6164TIP3   OH218455   6.907   1.591   2.084
 6164TIP3    H118456   6.838   1.639   2.040
 6164TIP3    H218457   6.979   1.654   2.092
 6165TIP3   OH218458   3.218   2.955   5.854
 6165TIP3    H118459   3.191   3.028   5.798
 6165TIP3    H218460   3.167   2.881   5.822
 6166TIP3   OH218461   6.033   2.761   5.318
 6166TIP3    H118462   6.024   2.737   5.410
 6166TIP3    H218463   6.055   2.854   5.320
 6167TIP3   OH218464   3.121   3.246   2.202
 6167TIP3    H118465   3.200   3.238   2.148
 6167TIP3    H218466   3.113   3.162   2.245
 6168TIP3   OH218467   2.438   4.089   5.323
 6168TIP3    H118468   2.361   4.144   5.307
 6168TIP3    H218469   2.401   4.002   5.342
 6169TIP3   OH218470   1.044   0.609   3.722
 6169TIP3    H118471   1.038   0.608   3.818
 6169TIP3    H218472   1.016   0.522   3.695
 6170TIP3   OH218473   6.568   5.219   4.900
 6170TIP3    H118474   6.473   5.212   4.886
 6170TIP3    H218475   6.581   5.194   4.992
 6171TIP3   OH218476   6.142   5.553   2.304
 6171TIP3    H118477   6.122   5.474   2.353
 6171TIP3    H218478   6.225   5.533   2.260
 6172TIP3   OH218479   2.835   6.254   0.673
 6172TIP3    H118480   2.875   6.262   0.759
 6172TIP3    H218481   2.908   6.243   0.613
 6173TIP3   OH218482   3.223   6.353   3.998
 6173TIP3    H118483   3.157   6.331   3.932
 6173TIP3    H218484   3.176   6.410   4.059
 6174TIP3   OH218485   4.475   6.468   1.902
 6174TIP3    H118486   4.525   6.540   1.940
 6174TIP3    H218487   4.472   6.487   1.809
 6175TIP3   OH218488   2.406   6.041   2.366
 6175TIP3    H118489   2.444   5.980   2.429
 6175TIP3    H218490   2.382   6.118   2.418
 6176TIP3   OH218491   1.922   6.770   5.332
 6176TIP3    H118492   2.002   6.811   5.299
 6176TIP3    H218493   1.945   6.740   5.420
 6177TIP3   OH218494   4.714   2.074   1.958
 6177TIP3    H118495   4.634   2.070   2.009
 6177TIP3    H218496   4.742   2.166   1.964
 6178TIP3   OH218497   3.617   5.005   4.942
 6178TIP3    H118498   3.640   4.934   4.882
 6178TIP3    H218499   3.528   5.029   4.918
 6179TIP3   OH218500   4.045   6.476   2.249
 6179TIP3    H118501   3.997   6.555   2.224
 6179TIP3    H218502   4.126   6.480   2.199
 6180TIP3   OH218503   5.615   0.528   4.947
 6180TIP3    H118504   5.664   0.572   4.878
 6180TIP3    H218505   5.681   0.500   5.010
 6181TIP3   OH218506   6.691   0.670   4.301
 6181TIP3    H118507   6.747   0.731   4.252
 6181TIP3    H218508   6.604   0.710   4.296
 6182TIP3   OH218509   3.302   6.023   1.126
 6182TIP3    H118510   3.254   5.962   1.070
 6182TIP3    H218511   3.369   5.969   1.168
 6183TIP3   OH218512   6.429   0.157   5.492
 6183TIP3    H118513   6.469   0.109   5.565
 6183TIP3    H218514   6.357   0.100   5.463
 6184TIP3   OH218515   1.320   3.058   4.724
 6184TIP3    H118516   1.361   2.982   4.683
 6184TIP3    H218517   1.268   3.098   4.654
 6185TIP3   OH218518   2.706   0.918   2.242
 6185TIP3    H118519   2.646   0.915   2.317
 6185TIP3    H218520   2.728   0.826   2.226
 6186TIP3   OH218521   1.419   2.374   5.022
 6186TIP3    H118522   1.380   2.459   5.003
 6186TIP3    H218523   1.488   2.364   4.956
 6187TIP3   OH218524   3.353   1.469   2.707
 6187TIP3    H118525   3.440   1.435   2.730
 6187TIP3    H218526   3.335   1.534   2.774
 6188TIP3   OH218527   6.221   5.730   4.098
 6188TIP3    H118528   6.144   5.741   4.155
 6188TIP3    H218529   6.264   5.652   4.132
 6189TIP3   OH218530   3.461   4.371   5.545
 6189TIP3    H118531   3.425   4.439   5.489
 6189TIP3    H218532   3.445   4.402   5.634
 6190TIP3   OH218533   6.806   0.111   5.014
 6190TIP3    H118534   6.894   0.128   5.046
 6190TIP3    H218535   6.757   0.085   5.092
 6191TIP3   OH218536   1.444   2.266   1.589
 6191TIP3    H118537   1.532   2.246   1.558
 6191TIP3    H218538   1.457   2.325   1.663
 6192TIP3   OH218539   6.991   2.565   0.800
 6192TIP3    H118540   6.938   2.489   0.775
 6192TIP3    H218541   6.965   2.584   0.890
 6193TIP3   OH218542   0.662   3.959   2.229
 6193TIP3    H118543   0.685   3.894   2.163
 6193TIP3    H218544   0.569   3.977   2.213
 6194TIP3   OH218545   3.393   2.313   4.772
 6194TIP3    H118546   3.338   2.250   4.725
 6194TIP3    H218547   3.341   2.394   4.772
 6195TIP3   OH218548   1.461   4.168   4.196
 6195TIP3    H118549   1.535   4.138   4.143
 6195TIP3    H218550   1.501   4.193   4.280
 6196TIP3   OH218551   1.686   6.832   2.591
 6196TIP3    H118552   1.694   6.885   2.512
 6196TIP3    H218553   1.597   6.798   2.588
 6197TIP3   OH218554   3.227   0.812   4.087
 6197TIP3    H118555   3.193   0.756   4.018
 6197TIP3    H218556   3.166   0.803   4.159
 6198TIP3   OH218557   4.977   4.715   2.244
 6198TIP3    H118558   5.050   4.656   2.225
 6198TIP3    H218559   4.904   4.681   2.192
 6199TIP3   OH218560   6.891   3.909   1.697
 6199TIP3    H118561   6.867   3.865   1.778
 6199TIP3    H218562   6.961   3.970   1.722
 6200TIP3   OH218563   1.278   5.674   0.172
 6200TIP3    H118564   1.193   5.684   0.217
 6200TIP3    H218565   1.278   5.743   0.106
 6201TIP3   OH218566   2.284   0.322   5.679
 6201TIP3    H118567   2.317   0.289   5.762
 6201TIP3    H218568   2.269   0.415   5.695
 6202TIP3   OH218569   0.087   4.973   2.224
 6202TIP3    H118570   0.108   4.891   2.270
 6202TIP3    H218571  -0.005   4.989   2.246
 6203TIP3   OH218572   5.124   5.717   2.795
 6203TIP3    H118573   5.093   5.807   2.789
 6203TIP3    H218574   5.213   5.724   2.829
 6204TIP3   OH218575   6.078   3.717   2.812
 6204TIP3    H118576   6.080   3.665   2.892
 6204TIP3    H218577   6.013   3.673   2.757
 6205TIP3   OH218578   4.437   5.836   5.108
 6205TIP3    H118579   4.520   5.796   5.134
 6205TIP3    H218580   4.461   5.924   5.079
 6206TIP3   OH218581   4.667   4.418   2.164
 6206TIP3    H118582   4.755   4.379   2.168
 6206TIP3    H218583   4.633   4.408   2.252
 6207TIP3   OH218584   3.206   5.405   0.642
 6207TIP3    H118585   3.205   5.320   0.685
 6207TIP3    H218586   3.127   5.407   0.589
 6208TIP3   OH218587   6.157   3.749   3.494
 6208TIP3    H118588   6.083   3.801   3.525
 6208TIP3    H218589   6.211   3.812   3.444
 6209TIP3   OH218590   0.491   5.767   2.463
 6209TIP3    H118591   0.507   5.674   2.478
 6209TIP3    H218592   0.425   5.770   2.395
 6210TIP3   OH218593   0.658   3.949   2.499
 6210TIP3    H118594   0.748   3.932   2.526
 6210TIP3    H218595   0.663   3.961   2.404
 6211TIP3   OH218596   4.325   6.133   3.881
 6211TIP3    H118597   4.248   6.112   3.827
 6211TIP3    H218598   4.292   6.194   3.946
 6212TIP3   OH218599   5.257   3.215   4.663
 6212TIP3    H118600   5.164   3.208   4.686
 6212TIP3    H218601   5.266   3.167   4.581
 6213TIP3   OH218602   4.850   1.437   4.575
 6213TIP3    H118603   4.789   1.415   4.646
 6213TIP3    H218604   4.919   1.488   4.618
 6214TIP3   OH218605   5.411   6.348   4.113
 6214TIP3    H118606   5.498   6.312   4.096
 6214TIP3    H218607   5.405   6.352   4.209
 6215TIP3   OH218608   0.148   3.709   4.680
 6215TIP3    H118609   0.093   3.682   4.753
 6215TIP3    H218610   0.213   3.767   4.719
 6216TIP3   OH218611   2.664   2.754   4.987
 6216TIP3    H118612   2.744   2.797   5.016
 6216TIP3    H218613   2.692   2.696   4.916
 6217TIP3   OH218614   1.470   5.471   3.939
 6217TIP3    H118615   1.509   5.512   3.862
 6217TIP3    H218616   1.383   5.509   3.945
 6218TIP3   OH218617   1.485   2.029   1.424
 6218TIP3    H118618   1.515   2.019   1.515
 6218TIP3    H218619   1.525   2.111   1.395
 6219TIP3   OH218620   5.207   5.921   1.537
 6219TIP3    H118621   5.244   5.877   1.461
 6219TIP3    H218622   5.189   6.010   1.507
 6220TIP3   OH218623   4.408   4.701   1.809
 6220TIP3    H118624   4.404   4.647   1.730
 6220TIP3    H218625   4.326   4.683   1.855
 6221TIP3   OH218626   2.093   2.772   3.320
 6221TIP3    H118627   2.053   2.844   3.369
 6221TIP3    H218628   2.135   2.814   3.245
 6222TIP3   OH218629   4.147   3.489   5.294
 6222TIP3    H118630   4.121   3.412   5.345
 6222TIP3    H218631   4.090   3.559   5.326
 6223TIP3   OH218632   6.104   2.029   5.058
 6223TIP3    H118633   6.148   2.079   4.990
 6223TIP3    H218634   6.024   1.997   5.016
 6224TIP3   OH218635   4.142   3.160   0.263
 6224TIP3    H118636   4.149   3.089   0.200
 6224TIP3    H218637   4.050   3.158   0.291
 6225TIP3   OH218638   4.112  -0.021   5.197
 6225TIP3    H118639   4.099   0.072   5.211
 6225TIP3    H218640   4.195  -0.041   5.241
 6226TIP3   OH218641   1.267   1.191   1.906
 6226TIP3    H118642   1.224   1.276   1.895
 6226TIP3    H218643   1.255   1.170   1.998
 6227TIP3   OH218644   0.128   0.176   5.566
 6227TIP3    H118645   0.221   0.153   5.565
 6227TIP3    H218646   0.128   0.272   5.559
 6228TIP3   OH218647   0.854   3.140   0.525
 6228TIP3    H118648   0.802   3.077   0.475
 6228TIP3    H218649   0.937   3.144   0.478
 6229TIP3   OH218650   5.201   5.499   1.600
 6229TIP3    H118651   5.203   5.551   1.681
 6229TIP3    H218652   5.118   5.522   1.559
 6230TIP3   OH218653   5.353   1.357   5.188
 6230TIP3    H118654   5.423   1.366   5.123
 6230TIP3    H218655   5.361   1.267   5.220
 6231TIP3   OH218656   4.860   3.995   5.463
 6231TIP3    H118657   4.883   3.908   5.431
 6231TIP3    H218658   4.905   4.055   5.404
 6232TIP3   OH218659   4.135   3.957   5.296
 6232TIP3    H118660   4.154   3.995   5.381
 6232TIP3    H218661   4.221   3.939   5.258
 6233TIP3   OH218662   2.252   3.643   5.084
 6233TIP3    H118663   2.177   3.584   5.090
 6233TIP3    H218664   2.232   3.701   5.010
 6234TIP3   OH218665   0.014   2.977   3.714
 6234TIP3    H118666   0.068   2.999   3.790
 6234TIP3    H218667   0.055   2.898   3.678
 6235TIP3   OH218668   5.984   6.120   1.578
 6235TIP3    H118669   5.923   6.145   1.648
 6235TIP3    H218670   6.064   6.094   1.625
 6236TIP3   OH218671   4.813   4.641   2.759
 6236TIP3    H118672   4.908   4.636   2.743
 6236TIP3    H218673   4.779   4.692   2.686
 6237TIP3   OH218674   4.995   0.458   3.158
 6237TIP3    H118675   4.954   0.438   3.073
 6237TIP3    H218676   4.972   0.383   3.213
 6238TIP3   OH218677   3.772   5.215   1.825
 6238TIP3    H118678   3.864   5.225   1.801
 6238TIP3    H218679   3.757   5.121   1.828
 6239TIP3   OH218680   4.822   0.392   1.276
 6239TIP3    H118681   4.885   0.464   1.271
 6239TIP3    H218682   4.874   0.314   1.255
 6240TIP3   OH218683   1.428   0.023   0.119
 6240TIP3    H118684   1.463  -0.061   0.093
 6240TIP3    H218685   1.449   0.082   0.047
 6241TIP3   OH218686   1.678   5.864   3.457
 6241TIP3    H118687   1.689   5.769   3.459
 6241TIP3    H218688   1.590   5.877   3.420
 6242TIP3   OH218689   4.115   6.238   0.896
 6242TIP3    H118690   4.133   6.171   0.831
 6242TIP3    H218691   4.037   6.207   0.943
 6243TIP3   OH218692   2.128   1.732   0.485
 6243TIP3    H118693   2.069   1.716   0.411
 6243TIP3    H218694   2.109   1.823   0.511
 6244TIP3   OH218695   6.163   6.332   0.390
 6244TIP3    H118696   6.144   6.417   0.430
 6244TIP3    H218697   6.201   6.280   0.461
 6245TIP3   OH218698   6.811   6.709   1.384
 6245TIP3    H118699   6.883   6.686   1.325
 6245TIP3    H218700   6.771   6.625   1.406
 6246TIP3   OH218701   4.881   2.462   3.017
 6246TIP3    H118702   4.849   2.552   3.010
 6246TIP3    H218703   4.804   2.411   3.041
 6247TIP3   OH218704   3.536   0.054   3.562
 6247TIP3    H118705   3.563   0.146   3.562
 6247TIP3    H218706   3.615   0.005   3.541
 6248TIP3   OH218707   0.281   0.676   5.424
 6248TIP3    H118708   0.349   0.705   5.363
 6248TIP3    H218709   0.320   0.684   5.510
 6249TIP3   OH218710   0.841   0.744   2.288
 6249TIP3    H118711   0.764   0.775   2.240
 6249TIP3    H218712   0.837   0.649   2.280
 6250TIP3   OH218713   7.154   4.557   0.276
 6250TIP3    H118714   7.119   4.633   0.228
 6250TIP3    H218715   7.179   4.593   0.361
 6251TIP3   OH218716   6.911   3.722   1.162
 6251TIP3    H118717   6.871   3.764   1.238
 6251TIP3    H218718   6.855   3.646   1.144
 6252TIP3   OH218719   0.761   4.792   4.746
 6252TIP3    H118720   0.793   4.703   4.760
 6252TIP3    H218721   0.779   4.809   4.653
 6253TIP3   OH218722   0.424  -0.034   3.902
 6253TIP3    H118723   0.501  -0.042   3.846
 6253TIP3    H218724   0.350  -0.044   3.842
 6254TIP3   OH218725   1.102   2.410   2.375
 6254TIP3    H118726   1.047   2.488   2.367
 6254TIP3    H218727   1.123   2.386   2.285
 6255TIP3   OH218728   1.732   2.589   1.686
 6255TIP3    H118729   1.798   2.522   1.672
 6255TIP3    H218730   1.685   2.594   1.602
 6256TIP3   OH218731   3.969   1.838   5.299
 6256TIP3    H118732   3.998   1.754   5.336
 6256TIP3    H218733   3.873   1.836   5.308
 6257TIP3   OH218734   4.737   1.803   2.862
 6257TIP3    H118735   4.830   1.824   2.861
 6257TIP3    H218736   4.700   1.856   2.791
 6258TIP3   OH218737   4.530   1.151   0.872
 6258TIP3    H118738   4.463   1.135   0.939
 6258TIP3    H218739   4.593   1.080   0.884
 6259TIP3   OH218740   0.075   2.652   0.423
 6259TIP3    H118741   0.016   2.636   0.350
 6259TIP3    H218742   0.019   2.645   0.501
 6260TIP3   OH218743   5.392   5.133   0.157
 6260TIP3    H118744   5.446   5.142   0.235
 6260TIP3    H218745   5.391   5.220   0.118
 6261TIP3   OH218746   1.450   5.457   3.145
 6261TIP3    H118747   1.368   5.440   3.100
 6261TIP3    H218748   1.468   5.378   3.195
 6262TIP3   OH218749   0.027   3.664   1.339
 6262TIP3    H118750  -0.056   3.710   1.353
 6262TIP3    H218751   0.082   3.728   1.294
 6263TIP3   OH218752   2.311   5.947   3.145
 6263TIP3    H118753   2.359   5.979   3.221
 6263TIP3    H218754   2.219   5.959   3.169
 6264TIP3   OH218755   5.343   4.575   3.569
 6264TIP3    H118756   5.386   4.654   3.535
 6264TIP3    H218757   5.254   4.603   3.588
 6265TIP3   OH218758   2.533   5.144   2.394
 6265TIP3    H118759   2.617   5.130   2.352
 6265TIP3    H218760   2.512   5.235   2.377
 6266TIP3   OH218761   1.733   6.052   3.962
 6266TIP3    H118762   1.739   6.011   3.875
 6266TIP3    H218763   1.727   5.978   4.022
 6267TIP3   OH218764   7.111   0.997   0.684
 6267TIP3    H118765   7.040   1.055   0.712
 6267TIP3    H218766   7.133   1.027   0.596
 6268TIP3   OH218767   2.404   0.251   2.291
 6268TIP3    H118768   2.383   0.238   2.199
 6268TIP3    H218769   2.321   0.239   2.336
 6269TIP3   OH218770   6.622   0.049   5.671
 6269TIP3    H118771   6.693  -0.014   5.681
 6269TIP3    H218772   6.653   0.127   5.717
 6270TIP3   OH218773   0.645   0.957   0.204
 6270TIP3    H118774   0.687   1.009   0.273
 6270TIP3    H218775   0.552   0.956   0.228
 6271TIP3   OH218776   5.388   0.045   5.286
 6271TIP3    H118777   5.475   0.065   5.322
 6271TIP3    H218778   5.333   0.031   5.363
 6272TIP3   OH218779   1.114   5.423   1.731
 6272TIP3    H118780   1.030   5.384   1.706
 6272TIP3    H218781   1.100   5.517   1.721
 6273TIP3   OH218782   0.015   4.827   0.412
 6273TIP3    H118783   0.091   4.883   0.397
 6273TIP3    H218784  -0.009   4.841   0.503
 6274TIP3   OH218785   0.058   3.557   3.190
 6274TIP3    H118786   0.105   3.619   3.134
 6274TIP3    H218787  -0.034   3.583   3.182
 6275TIP3   OH218788   0.409   1.215   3.403
 6275TIP3    H118789   0.430   1.240   3.493
 6275TIP3    H218790   0.443   1.126   3.395
 6276TIP3   OH218791   2.576   4.422   0.654
 6276TIP3    H118792   2.619   4.341   0.627
 6276TIP3    H218793   2.552   4.465   0.571
 6277TIP3   OH218794   1.401   2.631   3.608
 6277TIP3    H118795   1.393   2.647   3.702
 6277TIP3    H218796   1.402   2.719   3.569
 6278TIP3   OH218797   2.686   6.537   4.357
 6278TIP3    H118798   2.615   6.526   4.295
 6278TIP3    H218799   2.647   6.518   4.442
 6279TIP3   OH218800   5.312   5.444   1.846
 6279TIP3    H118801   5.389   5.388   1.835
 6279TIP3    H218802   5.344   5.521   1.892
 6280TIP3   OH218803   2.151   3.614   4.666
 6280TIP3    H118804   2.171   3.531   4.709
 6280TIP3    H218805   2.097   3.662   4.729
 6281TIP3   OH218806   4.733   5.447   0.352
 6281TIP3    H118807   4.670   5.446   0.425
 6281TIP3    H218808   4.797   5.380   0.376
 6282TIP3   OH218809   4.990   6.368   0.148
 6282TIP3    H118810   5.084   6.385   0.162
 6282TIP3    H218811   4.946   6.434   0.201
 6283TIP3   OH218812   1.341   2.681   2.250
 6283TIP3    H118813   1.260   2.633   2.233
 6283TIP3    H218814   1.387   2.682   2.166
 6284TIP3   OH218815   5.589   1.673   5.747
 6284TIP3    H118816   5.577   1.651   5.839
 6284TIP3    H218817   5.636   1.599   5.710
 6285TIP3   OH218818   6.451   5.268   5.768
 6285TIP3    H118819   6.390   5.336   5.739
 6285TIP3    H218820   6.513   5.314   5.824
 6286TIP3   OH218821   5.682   2.115   2.590
 6286TIP3    H118822   5.636   2.159   2.661
 6286TIP3    H218823   5.752   2.176   2.566
 6287TIP3   OH218824   6.774   5.470   5.644
 6287TIP3    H118825   6.706   5.532   5.617
 6287TIP3    H218826   6.789   5.490   5.736
 6288TIP3   OH218827   7.185   6.359   0.461
 6288TIP3    H118828   7.116   6.425   0.454
 6288TIP3    H218829   7.191   6.341   0.555
 6289TIP3   OH218830   6.924   4.563   2.255
 6289TIP3    H118831   6.885   4.635   2.304
 6289TIP3    H218832   7.011   4.595   2.230
 6290TIP3   OH218833   2.078   5.343   5.122
 6290TIP3    H118834   2.039   5.428   5.144
 6290TIP3    H218835   2.026   5.310   5.049
 6291TIP3   OH218836   7.066   2.619   4.253
 6291TIP3    H118837   7.031   2.557   4.188
 6291TIP3    H218838   7.155   2.589   4.269
 6292TIP3   OH218839   4.033   3.934   0.008
 6292TIP3    H118840   3.962   3.978  -0.039
 6292TIP3    H218841   4.011   3.943   0.100
 6293TIP3   OH218842   4.316   4.948   3.423
 6293TIP3    H118843   4.237   4.978   3.378
 6293TIP3    H218844   4.324   5.007   3.498
 6294TIP3   OH218845   2.295   1.063   2.743
 6294TIP3    H118846   2.375   1.101   2.780
 6294TIP3    H218847   2.238   1.049   2.819
 6295TIP3   OH218848   1.859   4.330   1.290
 6295TIP3    H118849   1.844   4.422   1.311
 6295TIP3    H218850   1.955   4.322   1.284
 6296TIP3   OH218851   2.076   5.017   0.255
 6296TIP3    H118852   2.037   5.075   0.320
 6296TIP3    H218853   2.089   5.072   0.177
 6297TIP3   OH218854   5.630   0.998   3.305
 6297TIP3    H118855   5.634   0.945   3.385
 6297TIP3    H218856   5.707   1.055   3.310
 6298TIP3   OH218857   7.207   3.912   3.325
 6298TIP3    H118858   7.243   3.859   3.254
 6298TIP3    H218859   7.112   3.909   3.312
 6299TIP3   OH218860   4.855   1.536   1.731
 6299TIP3    H118861   4.878   1.625   1.759
 6299TIP3    H218862   4.792   1.549   1.660
 6300TIP3   OH218863   5.893   2.227   4.256
 6300TIP3    H118864   5.959   2.263   4.316
 6300TIP3    H218865   5.904   2.277   4.175
 6301TIP3   OH218866   6.624   4.715   1.773
 6301TIP3    H118867   6.661   4.675   1.694
 6301TIP3    H218868   6.671   4.674   1.845
 6302TIP3   OH218869   3.709   5.948   4.795
 6302TIP3    H118870   3.796   5.987   4.812
 6302TIP3    H218871   3.671   6.003   4.727
 6303TIP3   OH218872   4.840   1.520   2.257
 6303TIP3    H118873   4.831   1.603   2.305
 6303TIP3    H218874   4.776   1.527   2.185
 6304TIP3   OH218875   1.176   2.712   3.368
 6304TIP3    H118876   1.222   2.658   3.432
 6304TIP3    H218877   1.245   2.740   3.306
 6305TIP3   OH218878   2.829   5.384   5.336
 6305TIP3    H118879   2.844   5.322   5.407
 6305TIP3    H218880   2.836   5.470   5.378
 6306TIP3   OH218881   0.570   6.176   3.667
 6306TIP3    H118882   0.514   6.099   3.663
 6306TIP3    H218883   0.519   6.245   3.624
 6307TIP3   OH218884   3.810   5.586   4.627
 6307TIP3    H118885   3.897   5.620   4.648
 6307TIP3    H218886   3.826   5.520   4.559
 6308TIP3   OH218887   3.250   5.221   4.418
 6308TIP3    H118888   3.195   5.274   4.476
 6308TIP3    H218889   3.187   5.169   4.367
 6309TIP3   OH218890   3.530   5.325   3.806
 6309TIP3    H118891   3.603   5.351   3.863
 6309TIP3    H218892   3.531   5.390   3.736
 6310TIP3   OH218893   0.654   3.437   4.824
 6310TIP3    H118894   0.566   3.455   4.792
 6310TIP3    H218895   0.674   3.509   4.883
 6311TIP3   OH218896   4.633   4.773   4.063
 6311TIP3    H118897   4.563   4.828   4.029
 6311TIP3    H218898   4.710   4.829   4.064
 6312TIP3   OH218899   4.001   3.023   3.310
 6312TIP3    H118900   3.946   3.080   3.365
 6312TIP3    H218901   3.953   3.016   3.228
 6313TIP3   OH218902   2.943   6.139   5.389
 6313TIP3    H118903   2.981   6.171   5.307
 6313TIP3    H218904   2.997   6.179   5.457
 6314TIP3   OH218905   0.837   3.645   1.849
 6314TIP3    H118906   0.751   3.677   1.822
 6314TIP3    H218907   0.825   3.621   1.941
 6315TIP3   OH218908   6.556   3.895   1.831
 6315TIP3    H118909   6.469   3.876   1.798
 6315TIP3    H218910   6.606   3.814   1.817
 6316TIP3   OH218911   6.148   0.896   0.197
 6316TIP3    H118912   6.223   0.857   0.243
 6316TIP3    H218913   6.160   0.990   0.207
 6317TIP3   OH218914   5.857   2.829   3.025
 6317TIP3    H118915   5.951   2.844   3.034
 6317TIP3    H218916   5.824   2.824   3.115
 6318TIP3   OH218917   5.119   6.238   4.432
 6318TIP3    H118918   5.111   6.329   4.461
 6318TIP3    H218919   5.029   6.207   4.425
 6319TIP3   OH218920   0.895   6.313   2.845
 6319TIP3    H118921   0.864   6.271   2.925
 6319TIP3    H218922   0.939   6.393   2.875
 6320TIP3   OH218923   5.497   1.967   0.617
 6320TIP3    H118924   5.524   1.929   0.534
 6320TIP3    H218925   5.555   2.042   0.629
 6321TIP3   OH218926   5.151   2.949   1.967
 6321TIP3    H118927   5.126   3.028   1.919
 6321TIP3    H218928   5.079   2.934   2.028
 6322TIP3   OH218929   1.829   1.243   5.094
 6322TIP3    H118930   1.782   1.299   5.032
 6322TIP3    H218931   1.772   1.240   5.171
 6323TIP3   OH218932   5.411   5.687   2.030
 6323TIP3    H118933   5.381   5.752   1.966
 6323TIP3    H218934   5.336   5.677   2.090
 6324TIP3   OH218935   4.809   3.186   3.486
 6324TIP3    H118936   4.755   3.128   3.541
 6324TIP3    H218937   4.778   3.170   3.397
 6325TIP3   OH218938   4.995   5.950   1.713
 6325TIP3    H118939   5.072   5.955   1.658
 6325TIP3    H218940   4.921   5.944   1.652
 6326TIP3   OH218941   2.639   6.123   1.354
 6326TIP3    H118942   2.710   6.060   1.371
 6326TIP3    H218943   2.605   6.098   1.268
 6327TIP3   OH218944   6.922   6.027   3.420
 6327TIP3    H118945   6.828   6.021   3.404
 6327TIP3    H218946   6.952   6.097   3.363
 6328TIP3   OH218947   6.584   2.580   1.609
 6328TIP3    H118948   6.589   2.578   1.513
 6328TIP3    H218949   6.495   2.612   1.627
 6329TIP3   OH218950   0.678   3.640   0.679
 6329TIP3    H118951   0.610   3.594   0.729
 6329TIP3    H218952   0.752   3.646   0.739
 6330TIP3   OH218953   4.230   2.283   5.287
 6330TIP3    H118954   4.206   2.207   5.233
 6330TIP3    H218955   4.322   2.299   5.266
 6331TIP3   OH218956   1.344   3.429   1.495
 6331TIP3    H118957   1.365   3.439   1.402
 6331TIP3    H218958   1.253   3.460   1.501
 6332TIP3   OH218959   1.084   1.047   1.301
 6332TIP3    H118960   1.126   1.069   1.218
 6332TIP3    H218961   0.990   1.050   1.282
 6333TIP3   OH218962   1.278   6.803   1.243
 6333TIP3    H118963   1.267   6.898   1.239
 6333TIP3    H218964   1.353   6.786   1.186
 6334TIP3   OH218965   4.362   5.177   1.178
 6334TIP3    H118966   4.355   5.271   1.161
 6334TIP3    H218967   4.284   5.156   1.228
 6335TIP3   OH218968   0.836   2.439   0.835
 6335TIP3    H118969   0.755   2.417   0.881
 6335TIP3    H218970   0.906   2.407   0.893
 6336TIP3   OH218971   0.946   1.934   0.300
 6336TIP3    H118972   1.011   1.875   0.339
 6336TIP3    H218973   0.987   2.020   0.304
 6337TIP3   OH218974   2.380   5.684   2.105
 6337TIP3    H118975   2.304   5.712   2.155
 6337TIP3    H218976   2.440   5.759   2.110
 6338TIP3   OH218977   3.791   6.488   3.487
 6338TIP3    H118978   3.703   6.451   3.482
 6338TIP3    H218979   3.806   6.525   3.400
 6339TIP3   OH218980   5.432   2.643   0.745
 6339TIP3    H118981   5.510   2.621   0.796
 6339TIP3    H218982   5.359   2.612   0.798
 6340TIP3   OH218983   3.036   1.879   0.582
 6340TIP3    H118984   2.967   1.813   0.580
 6340TIP3    H218985   3.117   1.829   0.568
 6341TIP3   OH218986   0.296   2.477   3.606
 6341TIP3    H118987   0.296   2.541   3.535
 6341TIP3    H218988   0.385   2.479   3.641
 6342TIP3   OH218989   5.754   5.571   2.542
 6342TIP3    H118990   5.821   5.633   2.572
 6342TIP3    H218991   5.671   5.616   2.559
 6343TIP3   OH218992   0.332   5.829   2.253
 6343TIP3    H118993   0.359   5.850   2.163
 6343TIP3    H218994   0.292   5.910   2.285
 6344TIP3   OH218995   3.227   6.257   2.645
 6344TIP3    H118996   3.297   6.302   2.694
 6344TIP3    H218997   3.267   6.235   2.561
 6345TIP3   OH218998   1.280   6.576   2.490
 6345TIP3    H118999   1.355   6.625   2.524
 6345TIP3    H219000   1.205   6.613   2.535
 6346TIP3   OH219001   6.630   2.022   2.532
 6346TIP3    H119002   6.696   1.955   2.551
 6346TIP3    H219003   6.620   2.019   2.437
 6347TIP3   OH219004   1.334   1.229   4.845
 6347TIP3    H119005   1.262   1.274   4.890
 6347TIP3    H219006   1.403   1.294   4.839
 6348TIP3   OH219007   0.723   3.830   1.605
 6348TIP3    H119008   0.643   3.778   1.611
 6348TIP3    H219009   0.695   3.911   1.562
 6349TIP3   OH219010   1.893   1.080   1.612
 6349TIP3    H119011   1.867   1.014   1.549
 6349TIP3    H219012   1.989   1.079   1.611
 6350TIP3   OH219013   6.231   0.625   1.364
 6350TIP3    H119014   6.220   0.545   1.313
 6350TIP3    H219015   6.289   0.600   1.436
 6351TIP3   OH219016   0.989   6.511   1.697
 6351TIP3    H119017   0.914   6.512   1.638
 6351TIP3    H219018   0.952   6.532   1.783
 6352TIP3   OH219019   1.126   2.179   2.011
 6352TIP3    H119020   1.105   2.099   1.963
 6352TIP3    H219021   1.191   2.152   2.076
 6353TIP3   OH219022   6.771   1.036   1.505
 6353TIP3    H119023   6.743   1.044   1.596
 6353TIP3    H219024   6.857   1.079   1.503
 6354TIP3   OH219025   5.169   6.627   0.274
 6354TIP3    H119026   5.250   6.678   0.275
 6354TIP3    H219027   5.197   6.538   0.293
 6355TIP3   OH219028   4.212   6.781   3.209
 6355TIP3    H119029   4.163   6.749   3.284
 6355TIP3    H219030   4.148   6.787   3.139
 6356TIP3   OH219031   5.039   2.766   3.686
 6356TIP3    H119032   5.101   2.826   3.728
 6356TIP3    H219033   5.072   2.755   3.597
 6357TIP3   OH219034   5.075   2.795   4.748
 6357TIP3    H119035   5.028   2.840   4.678
 6357TIP3    H219036   5.019   2.720   4.770
 6358TIP3   OH219037   1.315   3.897   3.696
 6358TIP3    H119038   1.381   3.854   3.642
 6358TIP3    H219039   1.231   3.871   3.658
 6359TIP3   OH219040   4.452   5.682   4.621
 6359TIP3    H119041   4.456   5.595   4.660
 6359TIP3    H219042   4.395   5.671   4.544
 6360TIP3   OH219043   0.709   3.702   2.679
 6360TIP3    H119044   0.702   3.676   2.587
 6360TIP3    H219045   0.787   3.656   2.711
 6361TIP3   OH219046   0.885   4.435   0.435
 6361TIP3    H119047   0.825   4.458   0.506
 6361TIP3    H219048   0.949   4.507   0.434
 6362TIP3   OH219049   0.025   0.636   3.874
 6362TIP3    H119050   0.095   0.646   3.939
 6362TIP3    H219051   0.049   0.556   3.827
 6363TIP3   OH219052   5.292   3.709   3.532
 6363TIP3    H119053   5.327   3.713   3.443
 6363TIP3    H219054   5.302   3.617   3.558
 6364TIP3   OH219055   3.591   6.499   5.164
 6364TIP3    H119056   3.525   6.450   5.115
 6364TIP3    H219057   3.624   6.437   5.229
 6365TIP3   OH219058   4.847   4.289   0.459
 6365TIP3    H119059   4.774   4.311   0.401
 6365TIP3    H219060   4.925   4.302   0.405
 6366TIP3   OH219061   5.167   6.192   1.425
 6366TIP3    H119062   5.251   6.211   1.382
 6366TIP3    H219063   5.104   6.247   1.379
 6367TIP3   OH219064   4.873   4.771   2.489
 6367TIP3    H119065   4.899   4.734   2.405
 6367TIP3    H219066   4.900   4.863   2.485
 6368TIP3   OH219067   1.826   1.847   4.346
 6368TIP3    H119068   1.830   1.754   4.325
 6368TIP3    H219069   1.872   1.890   4.274
 6369TIP3   OH219070   1.129   6.620   5.333
 6369TIP3    H119071   1.225   6.609   5.334
 6369TIP3    H219072   1.105   6.623   5.426
 6370TIP3   OH219073   0.602   6.477   3.240
 6370TIP3    H119074   0.679   6.469   3.297
 6370TIP3    H219075   0.633   6.525   3.164
 6371TIP3   OH219076   6.440   1.864   1.405
 6371TIP3    H119077   6.527   1.826   1.393
 6371TIP3    H219078   6.453   1.958   1.392
 6372TIP3   OH219079   6.766   4.566   4.586
 6372TIP3    H119080   6.770   4.659   4.608
 6372TIP3    H219081   6.755   4.563   4.491
 6373TIP3   OH219082   5.301   6.590   2.689
 6373TIP3    H119083   5.326   6.523   2.626
 6373TIP3    H219084   5.370   6.655   2.683
 6374TIP3   OH219085   0.949   6.168   5.868
 6374TIP3    H119086   0.885   6.235   5.894
 6374TIP3    H219087   0.924   6.145   5.778
 6375TIP3   OH219088   3.709   0.262   1.841
 6375TIP3    H119089   3.727   0.223   1.926
 6375TIP3    H219090   3.792   0.256   1.794
 6376TIP3   OH219091   5.520   3.442   3.191
 6376TIP3    H119092   5.586   3.487   3.139
 6376TIP3    H219093   5.535   3.349   3.174
 6377TIP3   OH219094   0.986   4.129   4.817
 6377TIP3    H119095   0.894   4.101   4.820
 6377TIP3    H219096   0.982   4.218   4.781
 6378TIP3   OH219097   4.635   0.985   1.632
 6378TIP3    H119098   4.582   0.946   1.563
 6378TIP3    H219099   4.598   0.951   1.713
 6379TIP3   OH219100   2.869   3.405   4.468
 6379TIP3    H119101   2.864   3.382   4.375
 6379TIP3    H219102   2.927   3.482   4.470
 6380TIP3   OH219103   0.362   2.914   5.688
 6380TIP3    H119104   0.291   2.931   5.750
 6380TIP3    H219105   0.352   2.982   5.621
 6381TIP3   OH219106   0.746   0.311   2.469
 6381TIP3    H119107   0.756   0.376   2.538
 6381TIP3    H219108   0.700   0.357   2.399
 6382TIP3   OH219109   4.311   2.075   1.211
 6382TIP3    H119110   4.284   2.017   1.283
 6382TIP3    H219111   4.346   2.152   1.255
 6383TIP3   OH219112   0.962   4.598   2.262
 6383TIP3    H119113   1.012   4.616   2.343
 6383TIP3    H219114   1.024   4.551   2.206
 6384TIP3   OH219115   1.486   6.683   1.398
 6384TIP3    H119116   1.434   6.746   1.348
 6384TIP3    H219117   1.577   6.709   1.383
 6385TIP3   OH219118   3.398   1.046   2.865
 6385TIP3    H119119   3.364   0.965   2.903
 6385TIP3    H219120   3.380   1.038   2.771
 6386TIP3   OH219121   7.151   5.876   0.420
 6386TIP3    H119122   7.210   5.839   0.355
 6386TIP3    H219123   7.070   5.826   0.412
 6387TIP3   OH219124   6.427   3.402   4.009
 6387TIP3    H119125   6.372   3.413   4.087
 6387TIP3    H219126   6.517   3.407   4.043
 6388TIP3   OH219127   6.817   2.233   4.809
 6388TIP3    H119128   6.795   2.306   4.751
 6388TIP3    H219129   6.911   2.240   4.822
 6389TIP3   OH219130   0.349   4.319   4.829
 6389TIP3    H119131   0.269   4.269   4.848
 6389TIP3    H219132   0.324   4.378   4.758
 6390TIP3   OH219133   5.564   3.250   0.281
 6390TIP3    H119134   5.599   3.305   0.350
 6390TIP3    H219135   5.598   3.162   0.300
 6391TIP3   OH219136   1.883   4.364   3.992
 6391TIP3    H119137   1.796   4.383   3.958
 6391TIP3    H219138   1.942   4.379   3.919
 6392TIP3   OH219139   3.213   1.566   5.207
 6392TIP3    H119140   3.213   1.523   5.122
 6392TIP3    H219141   3.129   1.541   5.247
 6393TIP3   OH219142   2.054   0.342   1.580
 6393TIP3    H119143   2.145   0.323   1.599
 6393TIP3    H219144   2.023   0.265   1.532
 6394TIP3   OH219145   1.851   6.173   4.397
 6394TIP3    H119146   1.792   6.101   4.419
 6394TIP3    H219147   1.828   6.243   4.458
 6395TIP3   OH219148   6.471   6.581   5.326
 6395TIP3    H119149   6.410   6.511   5.350
 6395TIP3    H219150   6.434   6.617   5.245
 6396TIP3   OH219151   4.280   5.022   0.580
 6396TIP3    H119152   4.343   4.962   0.619
 6396TIP3    H219153   4.331   5.074   0.518
 6397TIP3   OH219154   2.027   2.883   5.228
 6397TIP3    H119155   2.057   2.801   5.189
 6397TIP3    H219156   1.955   2.912   5.172
 6398TIP3   OH219157   4.548   3.727   1.585
 6398TIP3    H119158   4.559   3.819   1.608
 6398TIP3    H219159   4.638   3.692   1.583
 6399TIP3   OH219160   4.534   3.675   5.445
 6399TIP3    H119161   4.555   3.756   5.398
 6399TIP3    H219162   4.495   3.619   5.378
 6400TIP3   OH219163   1.831   2.884   1.940
 6400TIP3    H119164   1.815   2.977   1.925
 6400TIP3    H219165   1.896   2.883   2.010
 6401TIP3   OH219166   3.998   3.996   5.621
 6401TIP3    H119167   4.008   4.066   5.556
 6401TIP3    H219168   3.909   4.006   5.654
 6402TIP3   OH219169   6.588   6.511   1.432
 6402TIP3    H119170   6.524   6.568   1.473
 6402TIP3    H219171   6.594   6.435   1.491
 6403TIP3   OH219172   6.664   5.017   1.314
 6403TIP3    H119173   6.658   4.997   1.221
 6403TIP3    H219174   6.691   4.935   1.355
 6404TIP3   OH219175   0.026   1.000   0.928
 6404TIP3    H119176   0.112   0.958   0.927
 6404TIP3    H219177  -0.005   0.994   0.838
 6405TIP3   OH219178   2.359   2.592   0.677
 6405TIP3    H119179   2.291   2.567   0.615
 6405TIP3    H219180   2.441   2.572   0.633
 6406TIP3   OH219181   0.253   3.686   3.907
 6406TIP3    H119182   0.238   3.772   3.946
 6406TIP3    H219183   0.173   3.667   3.859
 6407TIP3   OH219184   5.284   3.947   3.094
 6407TIP3    H119185   5.256   4.023   3.042
 6407TIP3    H219186   5.346   3.901   3.037
 6408TIP3   OH219187   2.444   6.273   5.699
 6408TIP3    H119188   2.419   6.302   5.787
 6408TIP3    H219189   2.524   6.222   5.713
 6409TIP3   OH219190   6.908   4.610   3.689
 6409TIP3    H119191   6.988   4.578   3.647
 6409TIP3    H219192   6.886   4.543   3.754
 6410TIP3   OH219193   6.035   0.729   2.764
 6410TIP3    H119194   5.978   0.789   2.717
 6410TIP3    H219195   6.123   0.750   2.732
 6411TIP3   OH219196   5.707   6.008   4.182
 6411TIP3    H119197   5.780   6.014   4.244
 6411TIP3    H219198   5.629   6.013   4.237
 6412TIP3   OH219199   3.057   1.548   1.304
 6412TIP3    H119200   3.058   1.452   1.299
 6412TIP3    H219201   3.142   1.571   1.343
 6413TIP3   OH219202   1.481   2.386   4.565
 6413TIP3    H119203   1.429   2.322   4.615
 6413TIP3    H219204   1.435   2.469   4.578
 6414TIP3   OH219205   2.184   5.092   5.193
 6414TIP3    H119206   2.173   5.185   5.174
 6414TIP3    H219207   2.110   5.069   5.249
 6415TIP3   OH219208   6.271   1.356   0.403
 6415TIP3    H119209   6.270   1.451   0.414
 6415TIP3    H219210   6.249   1.321   0.489
 6416TIP3   OH219211   0.757   6.782   5.148
 6416TIP3    H119212   0.726   6.868   5.177
 6416TIP3    H219213   0.832   6.801   5.092
 6417TIP3   OH219214   3.450   4.596   2.836
 6417TIP3    H119215   3.397   4.611   2.758
 6417TIP3    H219216   3.540   4.607   2.806
 6418TIP3   OH219217   6.053   1.455   2.555
 6418TIP3    H119218   6.000   1.406   2.618
 6418TIP3    H219219   6.000   1.531   2.531
 6419TIP3   OH219220   0.881   5.414   0.210
 6419TIP3    H119221   0.861   5.321   0.198
 6419TIP3    H219222   0.840   5.436   0.294
 6420TIP3   OH219223   6.123   0.594   5.139
 6420TIP3    H119224   6.139   0.611   5.046
 6420TIP3    H219225   6.033   0.622   5.153
 6421TIP3   OH219226   2.110   1.244   0.998
 6421TIP3    H119227   2.084   1.317   1.055
 6421TIP3    H219228   2.205   1.240   1.007
 6422TIP3   OH219229   0.542   6.131   5.604
 6422TIP3    H119230   0.631   6.128   5.571
 6422TIP3    H219231   0.502   6.049   5.573
 6423TIP3   OH219232   3.731   5.694   0.525
 6423TIP3    H119233   3.747   5.609   0.565
 6423TIP3    H219234   3.810   5.711   0.473
 6424TIP3   OH219235   5.713   2.282   1.971
 6424TIP3    H119236   5.681   2.222   2.038
 6424TIP3    H219237   5.647   2.278   1.902
 6425TIP3   OH219238   5.470   1.730   4.005
 6425TIP3    H119239   5.508   1.792   4.068
 6425TIP3    H219240   5.531   1.656   4.005
 6426TIP3   OH219241   2.339   4.092   4.927
 6426TIP3    H119242   2.410   4.031   4.947
 6426TIP3    H219243   2.376   4.152   4.862
 6427TIP3   OH219244   7.073   4.885   4.738
 6427TIP3    H119245   7.021   4.889   4.658
 6427TIP3    H219246   7.163   4.896   4.709
 6428TIP3   OH219247   5.927   0.035   3.471
 6428TIP3    H119248   5.851   0.047   3.528
 6428TIP3    H219249   6.002   0.058   3.525
 6429TIP3   OH219250   2.679   0.726   3.606
 6429TIP3    H119251   2.661   0.743   3.698
 6429TIP3    H219252   2.621   0.786   3.559
 6430TIP3   OH219253   2.086   6.613   3.792
 6430TIP3    H119254   2.169   6.616   3.743
 6430TIP3    H219255   2.019   6.622   3.725
 6431TIP3   OH219256   2.685   0.272   0.787
 6431TIP3    H119257   2.763   0.218   0.803
 6431TIP3    H219258   2.667   0.262   0.693
 6432TIP3   OH219259   4.360   5.499   0.420
 6432TIP3    H119260   4.317   5.573   0.463
 6432TIP3    H219261   4.408   5.455   0.490
 6433TIP3   OH219262   0.259   1.892   0.503
 6433TIP3    H119263   0.283   1.801   0.521
 6433TIP3    H219264   0.332   1.926   0.451
 6434TIP3   OH219265   5.775   4.226   0.188
 6434TIP3    H119266   5.823   4.255   0.266
 6434TIP3    H219267   5.826   4.261   0.115
 6435TIP3   OH219268   6.075   1.699   4.561
 6435TIP3    H119269   6.046   1.790   4.558
 6435TIP3    H219270   6.150   1.695   4.501
 6436TIP3   OH219271   7.087   2.850   2.021
 6436TIP3    H119272   7.011   2.881   1.973
 6436TIP3    H219273   7.115   2.771   1.974
 6437TIP3   OH219274   6.332   1.952   2.610
 6437TIP3    H119275   6.418   1.985   2.585
 6437TIP3    H219276   6.332   1.860   2.582
 6438TIP3   OH219277   3.395   2.682   2.423
 6438TIP3    H119278   3.414   2.730   2.504
 6438TIP3    H219279   3.457   2.609   2.424
 6439TIP3   OH219280   5.104   2.754   0.200
 6439TIP3    H119281   5.036   2.794   0.146
 6439TIP3    H219282   5.141   2.685   0.145
 6440TIP3   OH219283   2.570   1.214   1.387
 6440TIP3    H119284   2.624   1.212   1.308
 6440TIP3    H219285   2.547   1.122   1.403
 6441TIP3   OH219286   6.256   3.329   4.199
 6441TIP3    H119287   6.172   3.376   4.200
 6441TIP3    H219288   6.260   3.285   4.283
 6442TIP3   OH219289   2.516   5.448   4.104
 6442TIP3    H119290   2.444   5.387   4.089
 6442TIP3    H219291   2.569   5.406   4.171
 6443TIP3   OH219292   0.399   3.446   1.613
 6443TIP3    H119293   0.368   3.531   1.582
 6443TIP3    H219294   0.490   3.442   1.583
 6444TIP3   OH219295   5.931   0.249   0.963
 6444TIP3    H119296   5.839   0.267   0.943
 6444TIP3    H219297   5.930   0.220   1.054
 6445TIP3   OH219298   4.814   3.581   4.713
 6445TIP3    H119299   4.887   3.641   4.699
 6445TIP3    H219300   4.823   3.554   4.805
 6446TIP3   OH219301   0.448   3.732   2.466
 6446TIP3    H119302   0.414   3.791   2.398
 6446TIP3    H219303   0.505   3.787   2.520
 6447TIP3   OH219304   3.365   4.398   1.640
 6447TIP3    H119305   3.345   4.444   1.558
 6447TIP3    H219306   3.307   4.322   1.639
 6448TIP3   OH219307   5.180   3.903   1.107
 6448TIP3    H119308   5.157   3.858   1.026
 6448TIP3    H219309   5.260   3.951   1.086
 6449TIP3   OH219310   1.735   5.324   0.863
 6449TIP3    H119311   1.660   5.272   0.892
 6449TIP3    H219312   1.794   5.325   0.938
 6450TIP3   OH219313   0.355   3.121   4.639
 6450TIP3    H119314   0.437   3.167   4.656
 6450TIP3    H219315   0.313   3.171   4.569
 6451TIP3   OH219316   6.538   5.300   1.173
 6451TIP3    H119317   6.562   5.216   1.210
 6451TIP3    H219318   6.607   5.319   1.108
 6452TIP3   OH219319   4.778   6.336   5.221
 6452TIP3    H119320   4.785   6.420   5.175
 6452TIP3    H219321   4.830   6.276   5.168
 6453TIP3   OH219322   3.952   6.516   3.983
 6453TIP3    H119323   3.943   6.534   3.890
 6453TIP3    H219324   3.988   6.596   4.020
 6454TIP3   OH219325   3.736   2.969   0.841
 6454TIP3    H119326   3.827   2.998   0.832
 6454TIP3    H219327   3.740   2.874   0.826
 6455TIP3   OH219328   6.385   4.205   0.612
 6455TIP3    H119329   6.479   4.219   0.595
 6455TIP3    H219330   6.365   4.264   0.684
 6456TIP3   OH219331   0.633   6.623   3.012
 6456TIP3    H119332   0.641   6.713   2.979
 6456TIP3    H219333   0.628   6.569   2.933
 6457TIP3   OH219334   1.707   0.189   0.624
 6457TIP3    H119335   1.753   0.221   0.546
 6457TIP3    H219336   1.614   0.198   0.603
 6458TIP3   OH219337   3.537   1.653   0.786
 6458TIP3    H119338   3.581   1.648   0.701
 6458TIP3    H219339   3.520   1.747   0.799
 6459TIP3   OH219340   3.227  -0.003   3.173
 6459TIP3    H119341   3.151   0.018   3.227
 6459TIP3    H219342   3.199   0.013   3.083
 6460TIP3   OH219343   4.064   6.276   3.709
 6460TIP3    H119344   4.060   6.252   3.617
 6460TIP3    H219345   4.060   6.192   3.756
 6461TIP3   OH219346   0.172   0.798   2.036
 6461TIP3    H119347   0.127   0.793   2.120
 6461TIP3    H219348   0.237   0.728   2.040
 6462TIP3   OH219349   1.138   2.948   2.173
 6462TIP3    H119350   1.061   3.004   2.189
 6462TIP3    H219351   1.206   3.008   2.143
 6463TIP3   OH219352   5.248   5.811   5.098
 6463TIP3    H119353   5.215   5.899   5.113
 6463TIP3    H219354   5.329   5.806   5.148
 6464TIP3   OH219355   4.858   3.129   0.865
 6464TIP3    H119356   4.878   3.102   0.954
 6464TIP3    H219357   4.938   3.172   0.834
 6465TIP3   OH219358   2.740   0.483   1.816
 6465TIP3    H119359   2.782   0.414   1.867
 6465TIP3    H219360   2.680   0.437   1.757
 6466TIP3   OH219361   2.506   2.960   1.163
 6466TIP3    H119362   2.465   3.035   1.121
 6466TIP3    H219363   2.472   2.884   1.116
 6467TIP3   OH219364   3.241   5.753   4.227
 6467TIP3    H119365   3.160   5.764   4.177
 6467TIP3    H219366   3.296   5.696   4.172
 6468TIP3   OH219367   1.496   3.340   4.364
 6468TIP3    H119368   1.526   3.431   4.355
 6468TIP3    H219369   1.458   3.336   4.451
 6469TIP3   OH219370   3.223   5.432   1.860
 6469TIP3    H119371   3.135   5.454   1.829
 6469TIP3    H219372   3.274   5.423   1.780
 6470TIP3   OH219373   6.831   2.168   2.994
 6470TIP3    H119374   6.859   2.083   3.027
 6470TIP3    H219375   6.741   2.178   3.024
 6471TIP3   OH219376   3.980   4.912   0.245
 6471TIP3    H119377   4.013   4.905   0.334
 6471TIP3    H219378   4.050   4.954   0.195
 6472TIP3   OH219379   5.035   1.105   5.648
 6472TIP3    H119380   5.065   1.116   5.739
 6472TIP3    H219381   4.959   1.047   5.654
 6473TIP3   OH219382   7.048   4.817   0.635
 6473TIP3    H119383   7.014   4.730   0.656
 6473TIP3    H219384   7.080   4.851   0.718
 6474TIP3   OH219385   5.491   3.731   1.491
 6474TIP3    H119386   5.553   3.776   1.548
 6474TIP3    H219387   5.405   3.755   1.525
 6475TIP3   OH219388   2.361   4.946   0.348
 6475TIP3    H119389   2.384   4.854   0.334
 6475TIP3    H219390   2.335   4.978   0.262
 6476TIP3   OH219391   5.127   4.039   3.693
 6476TIP3    H119392   5.162   4.124   3.664
 6476TIP3    H219393   5.060   4.062   3.758
 6477TIP3   OH219394   3.207   6.730   5.449
 6477TIP3    H119395   3.278   6.767   5.503
 6477TIP3    H219396   3.252   6.689   5.376
 6478TIP3   OH219397   2.629   6.233   4.224
 6478TIP3    H119398   2.580   6.315   4.226
 6478TIP3    H219399   2.564   6.165   4.240
 6479TIP3   OH219400   6.561   1.773   4.973
 6479TIP3    H119401   6.490   1.756   5.034
 6479TIP3    H219402   6.578   1.689   4.931
 6480TIP3   OH219403   3.460   3.421   5.780
 6480TIP3    H119404   3.393   3.464   5.833
 6480TIP3    H219405   3.531   3.485   5.773
 6481TIP3   OH219406   1.891   1.621   4.212
 6481TIP3    H119407   1.957   1.570   4.259
 6481TIP3    H219408   1.851   1.559   4.151
 6482TIP3   OH219409   3.248   4.472   0.605
 6482TIP3    H119410   3.280   4.562   0.607
 6482TIP3    H219411   3.313   4.421   0.654
 6483TIP3   OH219412   1.437   1.000   4.743
 6483TIP3    H119413   1.376   1.050   4.797
 6483TIP3    H219414   1.519   1.003   4.792
 6484TIP3   OH219415   1.704   3.869   3.509
 6484TIP3    H119416   1.789   3.827   3.503
 6484TIP3    H219417   1.722   3.963   3.498
 6485TIP3   OH219418   5.086   4.546   2.721
 6485TIP3    H119419   5.134   4.574   2.643
 6485TIP3    H219420   5.081   4.451   2.714
 6486TIP3   OH219421   2.059   0.431   2.968
 6486TIP3    H119422   2.036   0.339   2.957
 6486TIP3    H219423   2.067   0.464   2.879
 6487TIP3   OH219424   1.467   2.895   5.077
 6487TIP3    H119425   1.486   2.975   5.027
 6487TIP3    H219426   1.375   2.877   5.060
 6488TIP3   OH219427   6.935   4.115   0.676
 6488TIP3    H119428   7.013   4.077   0.636
 6488TIP3    H219429   6.944   4.096   0.769
 6489TIP3   OH219430   2.735   5.566   1.973
 6489TIP3    H119431   2.649   5.593   1.939
 6489TIP3    H219432   2.714   5.502   2.041
 6490TIP3   OH219433   1.090   0.872   4.078
 6490TIP3    H119434   1.178   0.904   4.101
 6490TIP3    H219435   1.106   0.790   4.033
 6491TIP3   OH219436   1.987   2.072   4.824
 6491TIP3    H119437   2.020   2.003   4.883
 6491TIP3    H219438   2.031   2.054   4.740
 6492TIP3   OH219439   3.487   2.940   3.729
 6492TIP3    H119440   3.421   3.005   3.752
 6492TIP3    H219441   3.570   2.980   3.753
 6493TIP3   OH219442   1.824   5.002   4.319
 6493TIP3    H119443   1.876   4.999   4.399
 6493TIP3    H219444   1.875   5.056   4.259
 6494TIP3   OH219445   0.158   6.570   0.845
 6494TIP3    H119446   0.203   6.619   0.777
 6494TIP3    H219447   0.085   6.526   0.800
 6495TIP3   OH219448   6.582   5.625   5.443
 6495TIP3    H119449   6.557   5.688   5.376
 6495TIP3    H219450   6.575   5.539   5.401
 6496TIP3   OH219451   0.226   4.548   5.696
 6496TIP3    H119452   0.189   4.538   5.608
 6496TIP3    H219453   0.304   4.602   5.683
 6497TIP3   OH219454   6.433   3.846   5.000
 6497TIP3    H119455   6.485   3.876   4.926
 6497TIP3    H219456   6.354   3.809   4.961
 6498TIP3   OH219457   3.083   3.773   3.107
 6498TIP3    H119458   3.012   3.725   3.064
 6498TIP3    H219459   3.148   3.705   3.127
 6499TIP3   OH219460   0.154   5.494   5.485
 6499TIP3    H119461   0.189   5.458   5.403
 6499TIP3    H219462   0.122   5.581   5.460
 6500TIP3   OH219463   0.146   5.431   4.268
 6500TIP3    H119464   0.096   5.415   4.187
 6500TIP3    H219465   0.139   5.525   4.282
 6501TIP3   OH219466   7.137   1.878   4.498
 6501TIP3    H119467   7.138   1.951   4.436
 6501TIP3    H219468   7.111   1.803   4.445
 6502TIP3   OH219469   4.484   1.004   3.895
 6502TIP3    H119470   4.510   0.913   3.904
 6502TIP3    H219471   4.404   1.012   3.946
 6503TIP3   OH219472   0.162   1.778   1.751
 6503TIP3    H119473   0.161   1.804   1.843
 6503TIP3    H219474   0.153   1.860   1.703
 6504TIP3   OH219475   2.671   0.686   2.080
 6504TIP3    H119476   2.760   0.723   2.079
 6504TIP3    H219477   2.676   0.611   2.021
 6505TIP3   OH219478   2.303   0.815   3.878
 6505TIP3    H119479   2.298   0.771   3.792
 6505TIP3    H219480   2.227   0.781   3.925
 6506TIP3   OH219481   0.670   4.560   3.802
 6506TIP3    H119482   0.613   4.526   3.872
 6506TIP3    H219483   0.720   4.484   3.773
 6507TIP3   OH219484   1.725   3.607   5.429
 6507TIP3    H119485   1.738   3.696   5.460
 6507TIP3    H219486   1.631   3.590   5.440
 6508TIP3   OH219487   4.864   3.741   5.119
 6508TIP3    H119488   4.880   3.796   5.196
 6508TIP3    H219489   4.876   3.651   5.151
 6509TIP3   OH219490   5.655   3.885   1.658
 6509TIP3    H119491   5.582   3.943   1.634
 6509TIP3    H219492   5.729   3.944   1.671
 6510TIP3   OH219493   6.965   0.299   5.160
 6510TIP3    H119494   6.977   0.373   5.100
 6510TIP3    H219495   7.053   0.262   5.170
 6511TIP3   OH219496   2.264   2.742   1.201
 6511TIP3    H119497   2.340   2.773   1.251
 6511TIP3    H219498   2.244   2.656   1.239
 6512TIP3   OH219499   2.698   3.269   3.946
 6512TIP3    H119500   2.695   3.305   4.035
 6512TIP3    H219501   2.638   3.195   3.948
 6513TIP3   OH219502   4.697   6.290   3.590
 6513TIP3    H119503   4.621   6.349   3.581
 6513TIP3    H219504   4.674   6.233   3.663
 6514TIP3   OH219505   5.351   2.048  -0.026
 6514TIP3    H119506   5.331   1.959   0.002
 6514TIP3    H219507   5.388   2.090   0.052
 6515TIP3   OH219508   5.059   4.246   1.430
 6515TIP3    H119509   5.130   4.263   1.368
 6515TIP3    H219510   5.034   4.333   1.462
 6516TIP3   OH219511   3.074   3.480   0.059
 6516TIP3    H119512   2.980   3.467   0.052
 6516TIP3    H219513   3.099   3.527  -0.020
 6517TIP3   OH219514   6.164   0.936   4.116
 6517TIP3    H119515   6.139   0.887   4.194
 6517TIP3    H219516   6.228   1.000   4.147
 6518TIP3   OH219517   3.040   4.497   0.195
 6518TIP3    H119518   3.109   4.492   0.260
 6518TIP3    H219519   3.074   4.448   0.120
 6519TIP3   OH219520   2.847   2.730   0.685
 6519TIP3    H119521   2.833   2.764   0.773
 6519TIP3    H219522   2.942   2.722   0.677
 6520TIP3   OH219523   0.510   6.256   3.398
 6520TIP3    H119524   0.585   6.196   3.393
 6520TIP3    H219525   0.546   6.342   3.376
 6521TIP3   OH219526   5.281   5.140   4.670
 6521TIP3    H119527   5.356   5.140   4.611
 6521TIP3    H219528   5.210   5.103   4.618
 6522TIP3   OH219529   5.487   2.377   0.458
 6522TIP3    H119530   5.485   2.467   0.425
 6522TIP3    H219531   5.399   2.363   0.494
 6523TIP3   OH219532   4.735   0.762   4.511
 6523TIP3    H119533   4.715   0.845   4.555
 6523TIP3    H219534   4.732   0.697   4.581
 6524TIP3   OH219535   6.684   6.805   3.167
 6524TIP3    H119536   6.679   6.717   3.205
 6524TIP3    H219537   6.759   6.801   3.108
 6525TIP3   OH219538   2.368   4.642   1.425
 6525TIP3    H119539   2.412   4.724   1.446
 6525TIP3    H219540   2.406   4.579   1.487
 6526TIP3   OH219541   1.062   5.481   2.275
 6526TIP3    H119542   1.108   5.403   2.306
 6526TIP3    H219543   1.064   5.474   2.180
 6527TIP3   OH219544   7.004   6.761   4.878
 6527TIP3    H119545   6.953   6.698   4.929
 6527TIP3    H219546   7.060   6.804   4.943
 6528TIP3   OH219547   2.513   5.414   0.228
 6528TIP3    H119548   2.601   5.451   0.231
 6528TIP3    H219549   2.497   5.383   0.317
 6529TIP3   OH219550   1.352   3.236   4.955
 6529TIP3    H119551   1.332   3.185   4.876
 6529TIP3    H219552   1.341   3.327   4.928
 6530TIP3   OH219553   1.376   1.724   4.054
 6530TIP3    H119554   1.305   1.659   4.058
 6530TIP3    H219555   1.350   1.783   3.983
 6531TIP3   OH219556   5.964   5.167   1.580
 6531TIP3    H119557   6.032   5.100   1.587
 6531TIP3    H219558   5.903   5.134   1.514
 6532TIP3   OH219559   6.727   2.943   2.439
 6532TIP3    H119560   6.698   2.859   2.475
 6532TIP3    H219561   6.822   2.935   2.432
 6533TIP3   OH219562   2.402   4.728   5.469
 6533TIP3    H119563   2.355   4.680   5.538
 6533TIP3    H219564   2.348   4.806   5.453
 6534TIP3   OH219565   1.872   3.598   4.527
 6534TIP3    H119566   1.941   3.663   4.545
 6534TIP3    H219567   1.808   3.612   4.598
 6535TIP3   OH219568   5.212   2.071   2.803
 6535TIP3    H119569   5.264   2.001   2.842
 6535TIP3    H219570   5.143   2.088   2.867
 6536TIP3   OH219571   0.806   5.145   0.502
 6536TIP3    H119572   0.739   5.110   0.561
 6536TIP3    H219573   0.793   5.240   0.505
 6537TIP3   OH219574   2.203   2.736   2.345
 6537TIP3    H119575   2.128   2.774   2.390
 6537TIP3    H219576   2.266   2.807   2.340
 6538TIP3   OH219577   7.031   4.035   0.265
 6538TIP3    H119578   7.114   4.018   0.308
 6538TIP3    H219579   7.039   4.124   0.232
 6539TIP3   OH219580   1.898   5.775   0.512
 6539TIP3    H119581   1.861   5.857   0.476
 6539TIP3    H219582   1.952   5.740   0.441
 6540TIP3   OH219583   0.758   0.493   1.894
 6540TIP3    H119584   0.744   0.578   1.936
 6540TIP3    H219585   0.683   0.483   1.835
 6541TIP3   OH219586   0.854   2.201   5.153
 6541TIP3    H119587   0.821   2.267   5.092
 6541TIP3    H219588   0.842   2.240   5.240
 6542TIP3   OH219589   5.959   5.025   0.922
 6542TIP3    H119590   6.019   4.985   0.859
 6542TIP3    H219591   5.975   4.979   1.004
 6543TIP3   OH219592   1.556   2.074   0.840
 6543TIP3    H119593   1.588   2.087   0.751
 6543TIP3    H219594   1.634   2.056   0.891
 6544TIP3   OH219595   5.411   3.722   2.928
 6544TIP3    H119596   5.342   3.660   2.900
 6544TIP3    H219597   5.393   3.802   2.878
 6545TIP3   OH219598   2.842   0.246   5.107
 6545TIP3    H119599   2.804   0.219   5.024
 6545TIP3    H219600   2.777   0.221   5.173
 6546TIP3   OH219601   2.583   0.128   3.748
 6546TIP3    H119602   2.491   0.104   3.752
 6546TIP3    H219603   2.627   0.052   3.712
 6547TIP3   OH219604   6.853   0.620   2.549
 6547TIP3    H119605   6.806   0.537   2.554
 6547TIP3    H219606   6.803   0.672   2.486
 6548TIP3   OH219607   1.993   1.190   4.019
 6548TIP3    H119608   2.076   1.147   4.037
 6548TIP3    H219609   2.014   1.258   3.956
 6549TIP3   OH219610   6.805   0.456   4.068
 6549TIP3    H119611   6.727   0.409   4.099
 6549TIP3    H219612   6.816   0.528   4.130
 6550TIP3   OH219613   2.196   2.704   2.024
 6550TIP3    H119614   2.255   2.635   1.997
 6550TIP3    H219615   2.155   2.672   2.104
 6551TIP3   OH219616   4.037   1.987   5.762
 6551TIP3    H119617   4.132   1.982   5.773
 6551TIP3    H219618   4.001   1.956   5.845
 6552TIP3   OH219619   4.161   6.339   4.013
 6552TIP3    H119620   4.205   6.424   4.014
 6552TIP3    H219621   4.076   6.356   3.974
 6553TIP3   OH219622   6.744   5.451   1.512
 6553TIP3    H119623   6.815   5.415   1.459
 6553TIP3    H219624   6.696   5.507   1.452
 6554TIP3   OH219625   4.740   2.349   1.927
 6554TIP3    H119626   4.777   2.371   1.841
 6554TIP3    H219627   4.814   2.356   1.987
 6555TIP3   OH219628   6.089   3.448   3.001
 6555TIP3    H119629   6.111   3.386   3.071
 6555TIP3    H219630   6.002   3.421   2.972
 6556TIP3   OH219631   6.863   5.696   3.162
 6556TIP3    H119632   6.798   5.637   3.124
 6556TIP3    H219633   6.835   5.706   3.253
 6557TIP3   OH219634   2.042   3.330   5.320
 6557TIP3    H119635   2.126   3.287   5.336
 6557TIP3    H219636   1.989   3.264   5.275
 6558TIP3   OH219637   2.834   0.307   3.311
 6558TIP3    H119638   2.872   0.351   3.387
 6558TIP3    H219639   2.850   0.368   3.238
 6559TIP3   OH219640   5.325   2.089   4.781
 6559TIP3    H119641   5.341   2.184   4.775
 6559TIP3    H219642   5.413   2.051   4.790
 6560TIP3   OH219643   2.989   5.055   3.457
 6560TIP3    H119644   2.974   4.966   3.490
 6560TIP3    H219645   2.991   5.110   3.535
 6561TIP3   OH219646   0.319   6.713   3.635
 6561TIP3    H119647   0.404   6.749   3.611
 6561TIP3    H219648   0.263   6.733   3.559
 6562TIP3   OH219649   5.914   5.933   3.466
 6562TIP3    H119650   5.962   5.986   3.402
 6562TIP3    H219651   5.858   5.996   3.511
 6563TIP3   OH219652   0.900   2.257   5.430
 6563TIP3    H119653   0.913   2.162   5.427
 6563TIP3    H219654   0.955   2.287   5.502
 6564TIP3   OH219655   6.141   5.798   5.138
 6564TIP3    H119656   6.065   5.763   5.093
 6564TIP3    H219657   6.204   5.726   5.138
 6565TIP3   OH219658   4.452   2.645   1.273
 6565TIP3    H119659   4.517   2.669   1.339
 6565TIP3    H219660   4.368   2.670   1.313
 6566TIP3   OH219661   2.878   2.906   5.485
 6566TIP3    H119662   2.799   2.911   5.431
 6566TIP3    H219663   2.902   2.813   5.482
 6567TIP3   OH219664   1.479   4.112   3.756
 6567TIP3    H119665   1.490   4.117   3.661
 6567TIP3    H219666   1.408   4.049   3.769
 6568TIP3   OH219667   7.057   0.071   2.221
 6568TIP3    H119668   7.130   0.042   2.276
 6568TIP3    H219669   7.029   0.154   2.261
 6569TIP3   OH219670   5.649   5.804   2.195
 6569TIP3    H119671   5.593   5.739   2.155
 6569TIP3    H219672   5.590   5.874   2.223
 6570TIP3   OH219673   0.378   0.665   1.030
 6570TIP3    H119674   0.385   0.576   0.995
 6570TIP3    H219675   0.359   0.654   1.123
 6571TIP3   OH219676   4.510   5.031   5.716
 6571TIP3    H119677   4.475   4.992   5.636
 6571TIP3    H219678   4.466   4.984   5.787
 6572TIP3   OH219679   3.400   5.235   4.699
 6572TIP3    H119680   3.401   5.152   4.651
 6572TIP3    H219681   3.309   5.262   4.698
 6573TIP3   OH219682   5.910   1.334   1.583
 6573TIP3    H119683   5.940   1.397   1.649
 6573TIP3    H219684   5.897   1.387   1.504
 6574TIP3   OH219685   6.611   4.090   2.036
 6574TIP3    H119686   6.573   4.030   1.972
 6574TIP3    H219687   6.704   4.094   2.015
 6575TIP3   OH219688   2.104   5.425   4.013
 6575TIP3    H119689   2.092   5.507   4.061
 6575TIP3    H219690   2.017   5.404   3.980
 6576TIP3   OH219691   3.829   0.434   5.735
 6576TIP3    H119692   3.866   0.521   5.750
 6576TIP3    H219693   3.779   0.443   5.653
 6577TIP3   OH219694   3.571   2.069   4.888
 6577TIP3    H119695   3.564   2.132   4.816
 6577TIP3    H219696   3.542   2.118   4.965
 6578TIP3   OH219697   4.917   1.604   3.230
 6578TIP3    H119698   4.872   1.684   3.257
 6578TIP3    H219699   4.847   1.549   3.194
 6579TIP3   OH219700   1.678   1.799   5.606
 6579TIP3    H119701   1.611   1.746   5.649
 6579TIP3    H219702   1.758   1.780   5.654
 6580TIP3   OH219703   1.714   2.048   1.121
 6580TIP3    H119704   1.675   2.131   1.149
 6580TIP3    H219705   1.799   2.073   1.084
 6581TIP3   OH219706   3.737   6.514   2.839
 6581TIP3    H119707   3.809   6.558   2.795
 6581TIP3    H219708   3.737   6.551   2.928
 6582TIP3   OH219709   4.847   1.473   2.862
 6582TIP3    H119710   4.778   1.484   2.927
 6582TIP3    H219711   4.928   1.491   2.910
 6583TIP3   OH219712   2.126   4.473   4.880
 6583TIP3    H119713   2.045   4.503   4.922
 6583TIP3    H219714   2.121   4.508   4.791
 6584TIP3   OH219715   2.517   4.749   0.210
 6584TIP3    H119716   2.476   4.736   0.124
 6584TIP3    H219717   2.605   4.782   0.189
 6585TIP3   OH219718   3.943   4.596   0.882
 6585TIP3    H119719   3.984   4.541   0.948
 6585TIP3    H219720   3.996   4.676   0.880
 6586TIP3   OH219721   0.114   2.074   4.967
 6586TIP3    H119722   0.065   2.011   4.914
 6586TIP3    H219723   0.186   2.022   5.005
 6587TIP3   OH219724   2.628   4.013   2.573
 6587TIP3    H119725   2.572   4.089   2.559
 6587TIP3    H219726   2.711   4.050   2.603
 6588TIP3   OH219727   4.398   0.599   3.706
 6588TIP3    H119728   4.406   0.684   3.663
 6588TIP3    H219729   4.365   0.619   3.793
 6589TIP3   OH219730   1.848   3.468   2.790
 6589TIP3    H119731   1.876   3.483   2.880
 6589TIP3    H219732   1.760   3.431   2.798
 6590TIP3   OH219733   6.113   5.782   3.145
 6590TIP3    H119734   6.066   5.701   3.164
 6590TIP3    H219735   6.115   5.787   3.049
 6591TIP3   OH219736   6.344   5.869   3.845
 6591TIP3    H119737   6.312   5.952   3.811
 6591TIP3    H219738   6.376   5.890   3.933
 6592TIP3   OH219739   6.913   1.317   2.006
 6592TIP3    H119740   6.905   1.412   2.008
 6592TIP3    H219741   6.825   1.286   1.983
 6593TIP3   OH219742   4.272   6.399   0.166
 6593TIP3    H119743   4.325   6.450   0.228
 6593TIP3    H219744   4.324   6.319   0.152
 6594TIP3   OH219745   5.173   5.242   0.845
 6594TIP3    H119746   5.141   5.320   0.889
 6594TIP3    H219747   5.257   5.223   0.887
 6595TIP3   OH219748   6.151   0.430   3.072
 6595TIP3    H119749   6.123   0.518   3.046
 6595TIP3    H219750   6.168   0.437   3.166
 6596TIP3   OH219751   1.537   4.712   1.824
 6596TIP3    H119752   1.597   4.775   1.862
 6596TIP3    H219753   1.450   4.752   1.834
 6597TIP3   OH219754   2.450   3.241   1.007
 6597TIP3    H119755   2.478   3.262   0.918
 6597TIP3    H219756   2.486   3.311   1.061
 6598TIP3   OH219757   5.726   1.687   1.256
 6598TIP3    H119758   5.732   1.731   1.340
 6598TIP3    H219759   5.691   1.601   1.276
 6599TIP3   OH219760   4.054   4.171   4.610
 6599TIP3    H119761   4.004   4.090   4.619
 6599TIP3    H219762   4.138   4.151   4.652
 6600TIP3   OH219763   1.297   3.062   0.022
 6600TIP3    H119764   1.316   2.969   0.010
 6600TIP3    H219765   1.203   3.065   0.035
 6601TIP3   OH219766   5.083   0.566   1.757
 6601TIP3    H119767   5.010   0.545   1.815
 6601TIP3    H219768   5.148   0.498   1.775
 6602TIP3   OH219769   6.742   5.718   3.426
 6602TIP3    H119770   6.652   5.735   3.454
 6602TIP3    H219771   6.791   5.706   3.507
 6603TIP3   OH219772   4.967   3.172   4.689
 6603TIP3    H119773   4.943   3.089   4.650
 6603TIP3    H219774   4.889   3.201   4.736
 6604TIP3   OH219775   2.441   2.736   4.820
 6604TIP3    H119776   2.493   2.709   4.896
 6604TIP3    H219777   2.351   2.714   4.843
 6605TIP3   OH219778   4.467   3.339   5.533
 6605TIP3    H119779   4.436   3.383   5.454
 6605TIP3    H219780   4.557   3.313   5.512
 6606TIP3   OH219781   6.874   5.888   0.317
 6606TIP3    H119782   6.863   5.960   0.379
 6606TIP3    H219783   6.804   5.901   0.252
 6607TIP3   OH219784   0.470   3.523   3.860
 6607TIP3    H119785   0.484   3.489   3.949
 6607TIP3    H219786   0.398   3.585   3.869
 6608TIP3   OH219787   2.458   2.657   0.292
 6608TIP3    H119788   2.406   2.579   0.307
 6608TIP3    H219789   2.400   2.715   0.241
 6609TIP3   OH219790   2.618   0.050   1.501
 6609TIP3    H119791   2.557   0.055   1.427
 6609TIP3    H219792   2.691  -0.002   1.467
 6610TIP3   OH219793   2.101   5.160   1.499
 6610TIP3    H119794   2.158   5.099   1.453
 6610TIP3    H219795   2.017   5.114   1.504
 6611TIP3   OH219796   2.003   0.406   0.575
 6611TIP3    H119797   2.082   0.382   0.527
 6611TIP3    H219798   1.930   0.381   0.518
 6612TIP3   OH219799   4.413   2.059   2.834
 6612TIP3    H119800   4.329   2.074   2.791
 6612TIP3    H219801   4.461   2.003   2.773
 6613TIP3   OH219802   2.289   5.223   1.088
 6613TIP3    H119803   2.295   5.133   1.121
 6613TIP3    H219804   2.268   5.214   0.995
 6614TIP3   OH219805   5.317   4.290   5.524
 6614TIP3    H119806   5.322   4.363   5.586
 6614TIP3    H219807   5.248   4.234   5.558
 6615TIP3   OH219808   3.122   3.886   5.110
 6615TIP3    H119809   3.177   3.929   5.045
 6615TIP3    H219810   3.130   3.793   5.090
 6616TIP3   OH219811   3.237   3.770   4.358
 6616TIP3    H119812   3.202   3.705   4.298
 6616TIP3    H219813   3.180   3.846   4.347
 6617TIP3   OH219814   1.021   4.868   2.921
 6617TIP3    H119815   1.039   4.877   2.828
 6617TIP3    H219816   1.103   4.892   2.964
 6618TIP3   OH219817   5.093   3.979   4.462
 6618TIP3    H119818   5.163   3.936   4.511
 6618TIP3    H219819   5.121   3.973   4.370
 6619TIP3   OH219820   7.036   0.876   2.891
 6619TIP3    H119821   7.099   0.804   2.901
 6619TIP3    H219822   7.022   0.881   2.796
 6620TIP3   OH219823   7.084   4.436   0.032
 6620TIP3    H119824   7.102   4.498   0.102
 6620TIP3    H219825   7.020   4.376   0.070
 6621TIP3   OH219826   5.312   4.428   2.852
 6621TIP3    H119827   5.237   4.486   2.859
 6621TIP3    H219828   5.281   4.355   2.799
 6622TIP3   OH219829   3.629   4.523   1.956
 6622TIP3    H119830   3.641   4.567   2.040
 6622TIP3    H219831   3.536   4.537   1.935
 6623TIP3   OH219832   2.004   3.052   2.757
 6623TIP3    H119833   2.068   3.099   2.811
 6623TIP3    H219834   1.971   3.118   2.696
 6624TIP3   OH219835   2.709   0.552   4.852
 6624TIP3    H119836   2.730   0.565   4.759
 6624TIP3    H219837   2.723   0.458   4.867
 6625TIP3   OH219838   0.468   2.015   0.378
 6625TIP3    H119839   0.537   1.948   0.381
 6625TIP3    H219840   0.503   2.088   0.429
 6626TIP3   OH219841   4.967   1.783   5.161
 6626TIP3    H119842   4.968   1.833   5.079
 6626TIP3    H219843   5.016   1.704   5.141
 6627TIP3   OH219844   6.569   2.284   5.674
 6627TIP3    H119845   6.534   2.365   5.710
 6627TIP3    H219846   6.516   2.268   5.595
 6628TIP3   OH219847   2.614   3.760   0.775
 6628TIP3    H119848   2.541   3.732   0.829
 6628TIP3    H219849   2.654   3.832   0.825
 6629TIP3   OH219850   0.511   4.206   0.046
 6629TIP3    H119851   0.496   4.220  -0.048
 6629TIP3    H219852   0.425   4.183   0.081
 6630TIP3   OH219853   6.560   1.646   4.191
 6630TIP3    H119854   6.597   1.724   4.150
 6630TIP3    H219855   6.469   1.645   4.162
 6631TIP3   OH219856   1.950   4.804   0.076
 6631TIP3    H119857   1.920   4.882   0.029
 6631TIP3    H219858   2.044   4.800   0.057
 6632TIP3   OH219859   2.875   6.729   2.619
 6632TIP3    H119860   2.914   6.814   2.642
 6632TIP3    H219861   2.938   6.689   2.560
 6633TIP3   OH219862   2.022   2.591   5.503
 6633TIP3    H119863   2.070   2.564   5.425
 6633TIP3    H219864   1.946   2.534   5.505
 6634TIP3   OH219865   1.602   4.150   2.276
 6634TIP3    H119866   1.608   4.115   2.365
 6634TIP3    H219867   1.518   4.117   2.244
 6635TIP3   OH219868   3.519   0.529   5.250
 6635TIP3    H119869   3.592   0.580   5.284
 6635TIP3    H219870   3.448   0.593   5.240
 6636TIP3   OH219871   4.341   4.434   1.192
 6636TIP3    H119872   4.309   4.370   1.255
 6636TIP3    H219873   4.412   4.479   1.237
 6637TIP3   OH219874   2.040   3.638   3.115
 6637TIP3    H119875   2.079   3.670   3.034
 6637TIP3    H219876   2.031   3.543   3.102
 6638TIP3   OH219877   2.813   1.044   3.251
 6638TIP3    H119878   2.877   1.005   3.192
 6638TIP3    H219879   2.849   1.130   3.272
 6639TIP3   OH219880   5.601   6.606   3.626
 6639TIP3    H119881   5.600   6.520   3.667
 6639TIP3    H219882   5.684   6.609   3.578
 6640TIP3   OH219883   5.241   2.714   3.062
 6640TIP3    H119884   5.319   2.768   3.071
 6640TIP3    H219885   5.202   2.741   2.979
 6641TIP3   OH219886   6.897   0.672   5.260
 6641TIP3    H119887   6.835   0.600   5.270
 6641TIP3    H219888   6.971   0.634   5.214
 6642TIP3   OH219889   5.486   4.057   3.691
 6642TIP3    H119890   5.483   4.022   3.601
 6642TIP3    H219891   5.448   4.145   3.683
 6643TIP3   OH219892   1.280   4.800   1.811
 6643TIP3    H119893   1.198   4.792   1.860
 6643TIP3    H219894   1.254   4.828   1.724
 6644TIP3   OH219895   7.192   6.345   2.438
 6644TIP3    H119896   7.231   6.421   2.481
 6644TIP3    H219897   7.120   6.319   2.495
 6645TIP3   OH219898   1.540   6.608   2.032
 6645TIP3    H119899   1.635   6.613   2.046
 6645TIP3    H219900   1.526   6.520   1.996
 6646TIP3   OH219901   6.553   5.668   4.176
 6646TIP3    H119902   6.578   5.758   4.199
 6646TIP3    H219903   6.581   5.615   4.250
 6647TIP3   OH219904   4.436   1.614   1.867
 6647TIP3    H119905   4.462   1.544   1.806
 6647TIP3    H219906   4.518   1.658   1.889
 6648TIP3   OH219907   5.836   1.909   5.007
 6648TIP3    H119908   5.774   1.959   5.061
 6648TIP3    H219909   5.835   1.821   5.045
 6649TIP3   OH219910   4.102   6.460   1.255
 6649TIP3    H119911   4.040   6.470   1.327
 6649TIP3    H219912   4.093   6.369   1.228
 6650TIP3   OH219913   3.169   4.299   2.349
 6650TIP3    H119914   3.202   4.246   2.276
 6650TIP3    H219915   3.145   4.236   2.416
 6651TIP3   OH219916   6.926   4.867   2.994
 6651TIP3    H119917   7.003   4.858   3.051
 6651TIP3    H219918   6.950   4.938   2.934
 6652TIP3   OH219919   6.989   0.504   2.803
 6652TIP3    H119920   7.019   0.414   2.797
 6652TIP3    H219921   6.942   0.520   2.721
 6653TIP3   OH219922   0.282   2.077   3.777
 6653TIP3    H119923   0.289   2.167   3.809
 6653TIP3    H219924   0.299   2.083   3.684
 6654TIP3   OH219925   4.229   0.357   5.420
 6654TIP3    H119926   4.290   0.397   5.358
 6654TIP3    H219927   4.284   0.306   5.479
 6655TIP3   OH219928   1.968   5.312   0.697
 6655TIP3    H119929   1.901   5.308   0.765
 6655TIP3    H219930   1.980   5.221   0.670
 6656TIP3   OH219931   3.074   1.368   4.410
 6656TIP3    H119932   3.083   1.282   4.452
 6656TIP3    H219933   3.016   1.352   4.335
 6657TIP3   OH219934   6.489   2.149   1.379
 6657TIP3    H119935   6.529   2.195   1.306
 6657TIP3    H219936   6.457   2.218   1.437
 6658TIP3   OH219937   5.268   0.521   3.236
 6658TIP3    H119938   5.173   0.507   3.235
 6658TIP3    H219939   5.291   0.540   3.145
 6659TIP3   OH219940   4.669   1.753   0.823
 6659TIP3    H119941   4.653   1.838   0.865
 6659TIP3    H219942   4.742   1.771   0.762
 6660TIP3   OH219943   2.732   6.161   2.455
 6660TIP3    H119944   2.827   6.153   2.456
 6660TIP3    H219945   2.712   6.197   2.369
 6661TIP3   OH219946   6.204   2.418   3.367
 6661TIP3    H119947   6.141   2.386   3.431
 6661TIP3    H219948   6.205   2.513   3.380
 6662TIP3   OH219949   5.898   6.325   5.854
 6662TIP3    H119950   5.810   6.360   5.866
 6662TIP3    H219951   5.946   6.355   5.931
 6663TIP3   OH219952   5.336   1.165   1.947
 6663TIP3    H119953   5.307   1.239   1.893
 6663TIP3    H219954   5.364   1.099   1.884
 6664TIP3   OH219955   3.909   3.565   5.728
 6664TIP3    H119956   3.989   3.545   5.776
 6664TIP3    H219957   3.939   3.596   5.643
 6665TIP3   OH219958   6.949   3.785   2.832
 6665TIP3    H119959   7.025   3.750   2.787
 6665TIP3    H219960   6.874   3.756   2.780
 6666TIP3   OH219961   1.751   2.620   1.141
 6666TIP3    H119962   1.758   2.586   1.051
 6666TIP3    H219963   1.729   2.712   1.130
 6667TIP3   OH219964   6.746   5.849   2.858
 6667TIP3    H119965   6.680   5.909   2.893
 6667TIP3    H219966   6.821   5.859   2.917
 6668TIP3   OH219967   2.327   0.192   2.875
 6668TIP3    H119968   2.415   0.157   2.891
 6668TIP3    H219969   2.342   0.283   2.851
 6669TIP3   OH219970   2.084   3.118   0.792
 6669TIP3    H119971   2.052   3.181   0.857
 6669TIP3    H219972   2.011   3.057   0.781
 6670TIP3   OH219973   0.659   3.313   0.609
 6670TIP3    H119974   0.671   3.395   0.562
 6670TIP3    H219975   0.733   3.258   0.582
 6671TIP3   OH219976   6.268   2.893   0.330
 6671TIP3    H119977   6.274   2.836   0.253
 6671TIP3    H219978   6.211   2.965   0.303
 6672TIP3   OH219979   0.214   3.946   3.995
 6672TIP3    H119980   0.227   4.033   4.032
 6672TIP3    H219981   0.137   3.912   4.041
 6673TIP3   OH219982   1.634   2.884   1.097
 6673TIP3    H119983   1.595   2.971   1.096
 6673TIP3    H219984   1.598   2.842   1.176
 6674TIP3   OH219985   5.155   2.487   2.879
 6674TIP3    H119986   5.187   2.529   2.958
 6674TIP3    H219987   5.062   2.474   2.895
 6675TIP3   OH219988   4.695   0.148   1.673
 6675TIP3    H119989   4.714   0.241   1.681
 6675TIP3    H219990   4.706   0.129   1.579
 6676TIP3   OH219991   3.248   2.072   1.025
 6676TIP3    H119992   3.229   2.097   0.934
 6676TIP3    H219993   3.164   2.042   1.060
 6677TIP3   OH219994   0.714   0.195   0.721
 6677TIP3    H119995   0.699   0.286   0.697
 6677TIP3    H219996   0.765   0.159   0.648
 6678TIP3   OH219997   2.052   0.236   0.198
 6678TIP3    H119998   2.015   0.170   0.140
 6678TIP3    H219999   2.057   0.193   0.283
 6679TIP3   OH220000   0.287   3.597   2.125
 6679TIP3    H120001   0.205   3.639   2.152
 6679TIP3    H220002   0.270   3.503   2.133
 6680TIP3   OH220003   5.598   3.535   4.388
 6680TIP3    H120004   5.570   3.568   4.474
 6680TIP3    H220005   5.519   3.540   4.334
 6681TIP3   OH220006   3.472   2.526   5.539
 6681TIP3    H120007   3.452   2.494   5.627
 6681TIP3    H220008   3.533   2.598   5.552
 6682TIP3   OH220009   4.551   5.654   1.996
 6682TIP3    H120010   4.508   5.724   1.947
 6682TIP3    H220011   4.479   5.611   2.043
 6683TIP3   OH220012   1.515   0.188   4.291
 6683TIP3    H120013   1.594   0.187   4.345
 6683TIP3    H220014   1.492   0.096   4.281
 6684TIP3   OH220015   6.091   6.034   5.746
 6684TIP3    H120016   6.171   6.086   5.757
 6684TIP3    H220017   6.086   5.981   5.825
 6685TIP3   OH220018   3.167   4.243   1.367
 6685TIP3    H120019   3.148   4.255   1.460
 6685TIP3    H220020   3.096   4.288   1.321
 6686TIP3   OH220021   2.212   2.631   4.893
 6686TIP3    H120022   2.134   2.638   4.838
 6686TIP3    H220023   2.211   2.540   4.924
 6687TIP3   OH220024   5.214   5.228   1.550
 6687TIP3    H120025   5.168   5.235   1.466
 6687TIP3    H220026   5.229   5.319   1.577
 6688TIP3   OH220027   0.856   5.096   2.981
 6688TIP3    H120028   0.786   5.073   2.919
 6688TIP3    H220029   0.905   5.016   2.994
 6689TIP3   OH220030   1.095   5.550   4.635
 6689TIP3    H120031   1.135   5.574   4.551
 6689TIP3    H220032   1.157   5.581   4.701
 6690TIP3   OH220033   4.390   1.618   4.876
 6690TIP3    H120034   4.389   1.599   4.970
 6690TIP3    H220035   4.390   1.714   4.871
 6691TIP3   OH220036   2.271   1.405   3.032
 6691TIP3    H120037   2.218   1.402   2.952
 6691TIP3    H220038   2.288   1.314   3.053
 6692TIP3   OH220039   2.646   0.835   3.300
 6692TIP3    H120040   2.555   0.852   3.275
 6692TIP3    H220041   2.680   0.921   3.323
 6693TIP3   OH220042   6.641   2.802   0.515
 6693TIP3    H120043   6.629   2.864   0.443
 6693TIP3    H220044   6.734   2.804   0.534
 6694TIP3   OH220045   1.544   1.540   5.700
 6694TIP3    H120046   1.586   1.493   5.772
 6694TIP3    H220047   1.460   1.494   5.688
 6695TIP3   OH220048   3.950   1.491   2.425
 6695TIP3    H120049   3.929   1.469   2.516
 6695TIP3    H220050   3.922   1.415   2.375
 6696TIP3   OH220051   1.304   6.760   3.209
 6696TIP3    H120052   1.341   6.817   3.276
 6696TIP3    H220053   1.351   6.677   3.219
 6697TIP3   OH220054   6.537   3.992   4.263
 6697TIP3    H120055   6.528   3.906   4.223
 6697TIP3    H220056   6.602   4.037   4.209
 6698TIP3   OH220057   5.880   6.596   1.713
 6698TIP3    H120058   5.826   6.672   1.693
 6698TIP3    H220059   5.895   6.553   1.628
 6699TIP3   OH220060   0.861   6.531   0.247
 6699TIP3    H120061   0.953   6.536   0.275
 6699TIP3    H220062   0.811   6.551   0.326
 6700TIP3   OH220063   3.546   0.635   0.846
 6700TIP3    H120064   3.562   0.729   0.835
 6700TIP3    H220065   3.566   0.618   0.938
 6701TIP3   OH220066   5.478   3.012   2.669
 6701TIP3    H120067   5.399   3.017   2.723
 6701TIP3    H220068   5.542   2.969   2.724
 6702TIP3   OH220069   0.916   3.926   2.541
 6702TIP3    H120070   0.935   3.962   2.628
 6702TIP3    H220071   0.954   3.838   2.542
 6703TIP3   OH220072   4.994   6.745   4.083
 6703TIP3    H120073   5.066   6.742   4.019
 6703TIP3    H220074   4.927   6.799   4.041
 6704TIP3   OH220075   2.108   2.735   2.908
 6704TIP3    H120076   2.132   2.750   2.816
 6704TIP3    H220077   2.189   2.706   2.950
 6705TIP3   OH220078   0.186   1.871   1.043
 6705TIP3    H120079   0.155   1.949   1.088
 6705TIP3    H220080   0.117   1.850   0.981
 6706TIP3   OH220081   5.520   1.094   3.961
 6706TIP3    H120082   5.556   1.164   4.016
 6706TIP3    H220083   5.447   1.134   3.914
 6707TIP3   OH220084   4.760   6.319   3.077
 6707TIP3    H120085   4.833   6.306   3.016
 6707TIP3    H220086   4.791   6.388   3.137
 6708TIP3   OH220087   4.612   0.087   2.042
 6708TIP3    H120088   4.691   0.057   2.088
 6708TIP3    H220089   4.541   0.073   2.104
 6709TIP3   OH220090   1.732   4.756   4.907
 6709TIP3    H120091   1.721   4.835   4.855
 6709TIP3    H220092   1.670   4.766   4.979
 6710TIP3   OH220093   7.077   4.878   3.584
 6710TIP3    H120094   7.139   4.816   3.622
 6710TIP3    H220095   7.077   4.857   3.490
 6711TIP3   OH220096   6.098   2.059   2.605
 6711TIP3    H120097   6.036   1.998   2.644
 6711TIP3    H220098   6.182   2.016   2.611
 6712TIP3   OH220099   5.454   2.572   4.916
 6712TIP3    H120100   5.363   2.599   4.924
 6712TIP3    H220101   5.503   2.640   4.962
 6713TIP3   OH220102   0.741   5.638   1.540
 6713TIP3    H120103   0.687   5.611   1.466
 6713TIP3    H220104   0.796   5.708   1.505
 6714TIP3   OH220105   5.824   0.003   0.386
 6714TIP3    H120106   5.733   0.033   0.394
 6714TIP3    H220107   5.873   0.061   0.444
 6715TIP3   OH220108   0.726   5.625   5.691
 6715TIP3    H120109   0.755   5.614   5.781
 6715TIP3    H220110   0.803   5.604   5.638
 6716TIP3   OH220111   3.856   3.622   2.959
 6716TIP3    H120112   3.945   3.656   2.969
 6716TIP3    H220113   3.839   3.576   3.041
 6717TIP3   OH220114   0.690   1.348   1.785
 6717TIP3    H120115   0.600   1.353   1.754
 6717TIP3    H220116   0.740   1.323   1.708
 6718TIP3   OH220117   3.941   1.859   1.296
 6718TIP3    H120118   3.942   1.794   1.226
 6718TIP3    H220119   4.033   1.881   1.309
 6719TIP3   OH220120   3.102   4.417   1.889
 6719TIP3    H120121   3.074   4.382   1.974
 6719TIP3    H220122   3.024   4.460   1.854
 6720TIP3   OH220123   2.855   1.446   5.785
 6720TIP3    H120124   2.805   1.408   5.713
 6720TIP3    H220125   2.821   1.536   5.793
 6721TIP3   OH220126   0.965   4.932   4.134
 6721TIP3    H120127   1.043   4.914   4.083
 6721TIP3    H220128   0.998   4.967   4.217
 6722TIP3   OH220129   3.703   6.506   4.640
 6722TIP3    H120130   3.624   6.526   4.590
 6722TIP3    H220131   3.686   6.542   4.727
 6723TIP3   OH220132   1.283   3.770   0.839
 6723TIP3    H120133   1.296   3.676   0.848
 6723TIP3    H220134   1.301   3.805   0.927
 6724TIP3   OH220135   3.311   2.823   0.842
 6724TIP3    H120136   3.361   2.751   0.803
 6724TIP3    H220137   3.318   2.810   0.936
 6725TIP3   OH220138   4.115   3.062   5.755
 6725TIP3    H120139   4.181   3.044   5.688
 6725TIP3    H220140   4.106   2.980   5.803
 6726TIP3   OH220141   4.675   0.929   0.813
 6726TIP3    H120142   4.749   0.946   0.871
 6726TIP3    H220143   4.665   0.834   0.814
 6727TIP3   OH220144   1.671   5.935   2.522
 6727TIP3    H120145   1.731   5.861   2.532
 6727TIP3    H220146   1.586   5.895   2.506
 6728TIP3   OH220147   0.250   1.848   5.524
 6728TIP3    H120148   0.225   1.917   5.462
 6728TIP3    H220149   0.217   1.767   5.485
 6729TIP3   OH220150   0.747   3.993   1.853
 6729TIP3    H120151   0.696   3.931   1.801
 6729TIP3    H220152   0.817   4.021   1.795
 6730TIP3   OH220153   1.359   2.251   0.032
 6730TIP3    H120154   1.342   2.168  -0.013
 6730TIP3    H220155   1.307   2.247   0.112
 6731TIP3   OH220156   5.196   1.252   2.849
 6731TIP3    H120157   5.168   1.265   2.759
 6731TIP3    H220158   5.146   1.316   2.900
 6732TIP3   OH220159   1.636   3.192   5.512
 6732TIP3    H120160   1.710   3.252   5.513
 6732TIP3    H220161   1.658   3.128   5.445
 6733TIP3   OH220162   2.092   4.604   2.483
 6733TIP3    H120163   2.020   4.565   2.434
 6733TIP3    H220164   2.115   4.683   2.433
 6734TIP3   OH220165   2.901   4.604   2.021
 6734TIP3    H120166   2.832   4.601   1.954
 6734TIP3    H220167   2.918   4.512   2.041
 6735TIP3   OH220168   3.171   1.946   2.892
 6735TIP3    H120169   3.142   1.858   2.869
 6735TIP3    H220170   3.200   1.985   2.809
 6736TIP3   OH220171   6.292   6.125   3.787
 6736TIP3    H120172   6.312   6.152   3.876
 6736TIP3    H220173   6.239   6.196   3.751
 6737TIP3   OH220174   6.013   1.955   4.547
 6737TIP3    H120175   6.061   1.985   4.470
 6737TIP3    H220176   5.975   2.035   4.584
 6738TIP3   OH220177   2.468   1.254   3.715
 6738TIP3    H120178   2.514   1.326   3.758
 6738TIP3    H220179   2.376   1.281   3.714
 6739TIP3   OH220180   0.604   6.092   0.779
 6739TIP3    H120181   0.656   6.131   0.709
 6739TIP3    H220182   0.664   6.085   0.853
 6740TIP3   OH220183   0.033   0.672   0.543
 6740TIP3    H120184  -0.028   0.667   0.617
 6740TIP3    H220185   0.118   0.687   0.583
 6741TIP3   OH220186   3.086   5.418   3.773
 6741TIP3    H120187   3.134   5.342   3.805
 6741TIP3    H220188   3.154   5.478   3.741
 6742TIP3   OH220189   4.087   5.559   4.676
 6742TIP3    H120190   4.145   5.557   4.600
 6742TIP3    H220191   4.143   5.584   4.749
 6743TIP3   OH220192   6.218   1.677   3.449
 6743TIP3    H120193   6.186   1.587   3.451
 6743TIP3    H220194   6.246   1.691   3.358
 6744TIP3   OH220195   1.541   1.144   4.262
 6744TIP3    H120196   1.488   1.219   4.287
 6744TIP3    H220197   1.630   1.179   4.257
 6745TIP3   OH220198   5.145   2.573   2.561
 6745TIP3    H120199   5.223   2.622   2.533
 6745TIP3    H220200   5.180   2.489   2.592
 6746TIP3   OH220201   6.369   0.287   5.909
 6746TIP3    H120202   6.324   0.344   5.846
 6746TIP3    H220203   6.370   0.338   5.990
 6747TIP3   OH220204   1.746   0.420   5.199
 6747TIP3    H120205   1.759   0.482   5.127
 6747TIP3    H220206   1.828   0.372   5.205
 6748TIP3   OH220207   4.027   5.043   2.686
 6748TIP3    H120208   4.026   5.090   2.603
 6748TIP3    H220209   4.079   5.098   2.745
 6749TIP3   OH220210   1.112   1.874   4.858
 6749TIP3    H120211   1.131   1.965   4.833
 6749TIP3    H220212   1.029   1.855   4.815
 6750TIP3   OH220213   2.911   0.542   1.203
 6750TIP3    H120214   2.858   0.472   1.164
 6750TIP3    H220215   2.874   0.554   1.291
 6751TIP3   OH220216   5.245   3.022   0.207
 6751TIP3    H120217   5.179   2.955   0.225
 6751TIP3    H220218   5.207   3.103   0.241
 6752TIP3   OH220219   0.646   6.699   5.584
 6752TIP3    H120220   0.646   6.668   5.675
 6752TIP3    H220221   0.734   6.735   5.571
 6753TIP3   OH220222   4.263   4.554   4.708
 6753TIP3    H120223   4.187   4.514   4.667
 6753TIP3    H220224   4.299   4.612   4.641
 6754TIP3   OH220225   4.679   1.387   5.108
 6754TIP3    H120226   4.657   1.349   5.023
 6754TIP3    H220227   4.773   1.403   5.104
 6755TIP3   OH220228   4.977   2.699   2.754
 6755TIP3    H120229   5.019   2.644   2.688
 6755TIP3    H220230   4.889   2.662   2.764
 6756TIP3   OH220231   5.194   6.718   5.677
 6756TIP3    H120232   5.150   6.730   5.593
 6756TIP3    H220233   5.283   6.692   5.655
 6757TIP3   OH220234   1.983   1.683   0.250
 6757TIP3    H120235   1.925   1.661   0.176
 6757TIP3    H220236   2.071   1.671   0.215
 6758TIP3   OH220237   1.142   1.341   0.771
 6758TIP3    H120238   1.107   1.252   0.772
 6758TIP3    H220239   1.065   1.397   0.762
 6759TIP3   OH220240   1.877   4.773   3.789
 6759TIP3    H120241   1.883   4.731   3.703
 6759TIP3    H220242   1.832   4.708   3.844
 6760TIP3   OH220243   0.330   5.491   1.675
 6760TIP3    H120244   0.321   5.586   1.674
 6760TIP3    H220245   0.337   5.469   1.768
 6761TIP3   OH220246   1.777   2.173   4.063
 6761TIP3    H120247   1.797   2.247   4.006
 6761TIP3    H220248   1.681   2.170   4.067
 6762TIP3   OH220249   5.216   5.832   4.659
 6762TIP3    H120250   5.308   5.808   4.674
 6762TIP3    H220251   5.187   5.772   4.590
 6763TIP3   OH220252   2.128   3.260   4.669
 6763TIP3    H120253   2.179   3.323   4.720
 6763TIP3    H220254   2.192   3.216   4.614
 6764TIP3   OH220255   4.558   1.915   2.644
 6764TIP3    H120256   4.597   1.896   2.559
 6764TIP3    H220257   4.505   1.837   2.664
 6765TIP3   OH220258   4.700   0.786   2.044
 6765TIP3    H120259   4.719   0.798   1.951
 6765TIP3    H220260   4.774   0.825   2.089
 6766TIP3   OH220261   6.602   3.495   3.416
 6766TIP3    H120262   6.576   3.582   3.386
 6766TIP3    H220263   6.520   3.445   3.418
 6767TIP3   OH220264   4.079   3.871   1.744
 6767TIP3    H120265   4.072   3.964   1.764
 6767TIP3    H220266   4.022   3.828   1.809
 6768TIP3   OH220267   0.493   4.495   0.766
 6768TIP3    H120268   0.416   4.517   0.713
 6768TIP3    H220269   0.558   4.465   0.703
 6769TIP3   OH220270   6.180   0.198   2.924
 6769TIP3    H120271   6.207   0.236   2.840
 6769TIP3    H220272   6.157   0.274   2.977
 6770TIP3   OH220273   0.677   0.571   1.149
 6770TIP3    H120274   0.650   0.652   1.105
 6770TIP3    H220275   0.717   0.601   1.231
 6771TIP3   OH220276   4.554   4.335   3.235
 6771TIP3    H120277   4.517   4.416   3.269
 6771TIP3    H220278   4.533   4.269   3.301
 6772TIP3   OH220279   5.659   4.127   1.082
 6772TIP3    H120280   5.692   4.209   1.119
 6772TIP3    H220281   5.642   4.147   0.990
 6773TIP3   OH220282   4.502   0.349   4.294
 6773TIP3    H120283   4.534   0.348   4.204
 6773TIP3    H220284   4.416   0.307   4.290
 6774TIP3   OH220285   6.686   0.467   5.255
 6774TIP3    H120286   6.596   0.460   5.222
 6774TIP3    H220287   6.741   0.438   5.182
 6775TIP3   OH220288   6.423   3.068   3.723
 6775TIP3    H120289   6.382   3.066   3.810
 6775TIP3    H220290   6.378   3.000   3.674
 6776TIP3   OH220291   2.643   1.043   4.741
 6776TIP3    H120292   2.635   1.094   4.821
 6776TIP3    H220293   2.555   1.043   4.703
 6777TIP3   OH220294   4.391   2.022   5.584
 6777TIP3    H120295   4.415   1.942   5.630
 6777TIP3    H220296   4.308   2.001   5.542
 6778TIP3   OH220297   7.111   1.713   1.813
 6778TIP3    H120298   7.206   1.704   1.807
 6778TIP3    H220299   7.076   1.631   1.778
 6779TIP3   OH220300   1.360   5.118   4.385
 6779TIP3    H120301   1.415   5.040   4.390
 6779TIP3    H220302   1.361   5.143   4.293
 6780TIP3   OH220303   1.977   2.915   2.165
 6780TIP3    H120304   2.065   2.928   2.129
 6780TIP3    H220305   1.974   2.971   2.243
 6781TIP3   OH220306   1.480   4.434   0.548
 6781TIP3    H120307   1.434   4.447   0.631
 6781TIP3    H220308   1.569   4.410   0.573
 6782TIP3   OH220309   4.494   4.057   1.964
 6782TIP3    H120310   4.530   3.969   1.978
 6782TIP3    H220311   4.510   4.074   1.871
 6783TIP3   OH220312  -0.006   4.916   0.088
 6783TIP3    H120313   0.033   4.941   0.172
 6783TIP3    H220314   0.034   4.832   0.067
 6784TIP3   OH220315   5.762   2.152   1.061
 6784TIP3    H120316   5.814   2.179   0.985
 6784TIP3    H220317   5.824   2.151   1.133
 6785TIP3   OH220318   1.627   2.884   0.729
 6785TIP3    H120319   1.682   2.957   0.760
 6785TIP3    H220320   1.547   2.891   0.781
 6786TIP3   OH220321   5.821   0.096   1.168
 6786TIP3    H120322   5.850   0.005   1.153
 6786TIP3    H220323   5.734   0.100   1.130
 6787TIP3   OH220324   7.124   0.494   2.535
 6787TIP3    H120325   7.045   0.530   2.495
 6787TIP3    H220326   7.183   0.568   2.545
 6788TIP3   OH220327   5.685   6.376   1.556
 6788TIP3    H120328   5.680   6.351   1.649
 6788TIP3    H220329   5.779   6.382   1.539
 6789TIP3   OH220330   3.344   5.373   2.657
 6789TIP3    H120331   3.397   5.320   2.597
 6789TIP3    H220332   3.331   5.317   2.733
 6790TIP3   OH220333   2.075   0.264   4.910
 6790TIP3    H120334   2.053   0.252   5.002
 6790TIP3    H220335   1.998   0.231   4.863
 6791TIP3   OH220336   1.935   1.399   1.438
 6791TIP3    H120337   2.015   1.359   1.473
 6791TIP3    H220338   1.864   1.353   1.483
 6792TIP3   OH220339   1.323   5.781   3.897
 6792TIP3    H120340   1.369   5.790   3.813
 6792TIP3    H220341   1.276   5.864   3.908
 6793TIP3   OH220342   1.298   0.544   1.855
 6793TIP3    H120343   1.218   0.525   1.904
 6793TIP3    H220344   1.299   0.480   1.784
 6794TIP3   OH220345   2.109   5.984   3.606
 6794TIP3    H120346   2.074   5.912   3.553
 6794TIP3    H220347   2.041   6.052   3.602
 6795TIP3   OH220348   6.426   0.816   2.703
 6795TIP3    H120349   6.400   0.750   2.767
 6795TIP3    H220350   6.376   0.894   2.726
 6796TIP3   OH220351   1.132   6.295   1.985
 6796TIP3    H120352   1.078   6.373   1.978
 6796TIP3    H220353   1.211   6.324   2.031
 6797TIP3   OH220354   0.658   2.701   0.248
 6797TIP3    H120355   0.665   2.609   0.223
 6797TIP3    H220356   0.675   2.701   0.342
 6798TIP3   OH220357   2.454   0.519   5.428
 6798TIP3    H120358   2.498   0.443   5.389
 6798TIP3    H220359   2.524   0.582   5.443
 6799TIP3   OH220360   4.846   4.934   4.021
 6799TIP3    H120361   4.809   5.017   3.988
 6799TIP3    H220362   4.908   4.907   3.953
 6800TIP3   OH220363   2.000   1.137   3.512
 6800TIP3    H120364   1.969   1.063   3.564
 6800TIP3    H220365   2.075   1.103   3.463
 6801TIP3   OH220366   1.021   3.024   0.062
 6801TIP3    H120367   0.970   3.045  -0.016
 6801TIP3    H220368   0.985   2.941   0.093
 6802TIP3   OH220369   1.740   5.215   1.636
 6802TIP3    H120370   1.645   5.228   1.637
 6802TIP3    H220371   1.770   5.254   1.718
 6803TIP3   OH220372   3.776   3.092   1.582
 6803TIP3    H120373   3.760   3.088   1.676
 6803TIP3    H220374   3.786   3.186   1.564
 6804TIP3   OH220375   0.036   1.308   5.339
 6804TIP3    H120376  -0.009   1.384   5.377
 6804TIP3    H220377   0.089   1.343   5.268
 6805TIP3   OH220378   1.399   0.823   0.366
 6805TIP3    H120379   1.333   0.776   0.315
 6805TIP3    H220380   1.404   0.909   0.325
 6806TIP3   OH220381   5.496   5.819   5.257
 6806TIP3    H120382   5.575   5.826   5.203
 6806TIP3    H220383   5.515   5.748   5.318
 6807TIP3   OH220384   1.924   2.551   2.856
 6807TIP3    H120385   1.931   2.641   2.889
 6807TIP3    H220386   1.884   2.560   2.769
 6808TIP3   OH220387   5.299   3.131   5.770
 6808TIP3    H120388   5.363   3.073   5.728
 6808TIP3    H220389   5.215   3.088   5.757
 6809TIP3   OH220390   5.244   6.115   0.941
 6809TIP3    H120391   5.219   6.059   1.014
 6809TIP3    H220392   5.191   6.083   0.867
 6810TIP3   OH220393   1.044   3.691   2.459
 6810TIP3    H120394   1.090   3.685   2.375
 6810TIP3    H220395   0.959   3.649   2.443
 6811TIP3   OH220396   5.092   1.367   1.865
 6811TIP3    H120397   5.092   1.459   1.839
 6811TIP3    H220398   5.005   1.353   1.902
 6812TIP3   OH220399   1.254   1.198   5.263
 6812TIP3    H120400   1.186   1.265   5.274
 6812TIP3    H220401   1.299   1.196   5.348
 6813TIP3   OH220402   4.631   3.220   1.087
 6813TIP3    H120403   4.589   3.185   1.166
 6813TIP3    H220404   4.620   3.152   1.021
 6814TIP3   OH220405   2.164   4.309   1.132
 6814TIP3    H120406   2.230   4.371   1.161
 6814TIP3    H220407   2.166   4.315   1.036
 6815TIP3   OH220408   4.920   0.128   1.239
 6815TIP3    H120409   4.925   0.044   1.193
 6815TIP3    H220410   5.008   0.142   1.272
 6816TIP3   OH220411   6.514   0.531   3.930
 6816TIP3    H120412   6.461   0.585   3.988
 6816TIP3    H220413   6.540   0.589   3.859
 6817TIP3   OH220414   2.185   6.736   1.831
 6817TIP3    H120415   2.242   6.794   1.781
 6817TIP3    H220416   2.181   6.776   1.918
 6818TIP3   OH220417   3.588   1.957   3.530
 6818TIP3    H120418   3.677   1.945   3.497
 6818TIP3    H220419   3.549   2.019   3.469
 6819TIP3   OH220420   0.004   5.924   3.110
 6819TIP3    H120421   0.022   5.895   3.199
 6819TIP3    H220422   0.057   5.866   3.055
 6820TIP3   OH220423   6.784   1.709   3.095
 6820TIP3    H120424   6.772   1.681   3.186
 6820TIP3    H220425   6.727   1.650   3.045
 6821TIP3   OH220426   5.412   1.131   2.468
 6821TIP3    H120427   5.419   1.156   2.376
 6821TIP3    H220428   5.353   1.196   2.507
 6822TIP3   OH220429   7.193   2.474   2.936
 6822TIP3    H120430   7.267   2.506   2.988
 6822TIP3    H220431   7.116   2.515   2.977
 6823TIP3   OH220432   5.794   3.873   3.997
 6823TIP3    H120433   5.750   3.946   3.953
 6823TIP3    H220434   5.750   3.866   4.082
 6824TIP3   OH220435   0.761   1.206   0.338
 6824TIP3    H120436   0.761   1.174   0.428
 6824TIP3    H220437   0.706   1.284   0.340
 6825TIP3   OH220438   2.766   4.353   4.008
 6825TIP3    H120439   2.851   4.366   4.050
 6825TIP3    H220440   2.707   4.413   4.053
 6826TIP3   OH220441   1.054   2.726   2.342
 6826TIP3    H120442   1.074   2.758   2.430
 6826TIP3    H220443   1.095   2.790   2.284
 6827TIP3   OH220444   5.042   3.485   1.931
 6827TIP3    H120445   5.137   3.474   1.926
 6827TIP3    H220446   5.017   3.514   1.843
 6828TIP3   OH220447   2.022   6.093   0.910
 6828TIP3    H120448   2.073   6.084   0.991
 6828TIP3    H220449   2.083   6.071   0.840
 6829TIP3   OH220450   4.455   6.633   3.234
 6829TIP3    H120451   4.389   6.698   3.208
 6829TIP3    H220452   4.406   6.569   3.287
 6830TIP3   OH220453   0.255   3.092   2.186
 6830TIP3    H120454   0.303   3.162   2.231
 6830TIP3    H220455   0.322   3.027   2.165
 6831TIP3   OH220456   6.495   4.299   2.174
 6831TIP3    H120457   6.534   4.221   2.135
 6831TIP3    H220458   6.467   4.352   2.100
 6832TIP3   OH220459   4.354   6.265   1.361
 6832TIP3    H120460   4.440   6.270   1.319
 6832TIP3    H220461   4.363   6.318   1.441
 6833TIP3   OH220462   3.709   4.625   2.761
 6833TIP3    H120463   3.744   4.688   2.698
 6833TIP3    H220464   3.781   4.611   2.823
 6834TIP3   OH220465   1.376   3.987   1.757
 6834TIP3    H120466   1.455   3.972   1.706
 6834TIP3    H220467   1.396   3.952   1.844
 6835TIP3   OH220468   3.452   1.448   5.126
 6835TIP3    H120469   3.380   1.492   5.171
 6835TIP3    H220470   3.497   1.399   5.195
 6836TIP3   OH220471   1.800   1.922   5.062
 6836TIP3    H120472   1.778   1.856   5.127
 6836TIP3    H220473   1.831   1.997   5.114
 6837TIP3   OH220474   0.954   4.079   0.485
 6837TIP3    H120475   0.889   4.012   0.506
 6837TIP3    H220476   1.005   4.042   0.413
 6838TIP3   OH220477   6.239   0.433   1.750
 6838TIP3    H120478   6.303   0.463   1.686
 6838TIP3    H220479   6.239   0.500   1.818
 6839TIP3   OH220480   4.870   0.798   5.289
 6839TIP3    H120481   4.938   0.841   5.239
 6839TIP3    H220482   4.823   0.869   5.333
 6840TIP3   OH220483   2.618   0.883   0.780
 6840TIP3    H120484   2.626   0.793   0.812
 6840TIP3    H220485   2.570   0.875   0.698
 6841TIP3   OH220486   1.885   4.388   2.379
 6841TIP3    H120487   1.790   4.400   2.375
 6841TIP3    H220488   1.905   4.330   2.306
 6842TIP3   OH220489   0.273   3.207   2.415
 6842TIP3    H120490   0.265   3.156   2.495
 6842TIP3    H220491   0.331   3.279   2.437
 6843TIP3   OH220492   0.331   3.824   0.595
 6843TIP3    H120493   0.266   3.805   0.664
 6843TIP3    H220494   0.339   3.741   0.548
 6844TIP3   OH220495   0.962   4.713   3.128
 6844TIP3    H120496   0.936   4.625   3.100
 6844TIP3    H220497   0.979   4.760   3.046
 6845TIP3   OH220498   3.565   2.877   5.859
 6845TIP3    H120499   3.540   2.939   5.928
 6845TIP3    H220500   3.546   2.923   5.778
 6846TIP3   OH220501   5.402   6.326   4.698
 6846TIP3    H120502   5.420   6.328   4.792
 6846TIP3    H220503   5.355   6.243   4.685
 6847TIP3   OH220504   5.736   4.889   3.854
 6847TIP3    H120505   5.816   4.925   3.892
 6847TIP3    H220506   5.681   4.867   3.929
 6848TIP3   OH220507   5.283  -0.003   4.109
 6848TIP3    H120508   5.357  -0.063   4.111
 6848TIP3    H220509   5.306   0.067   4.170
 6849TIP3   OH220510   3.236   1.702   0.552
 6849TIP3    H120511   3.323   1.737   0.536
 6849TIP3    H220512   3.235   1.617   0.509
 6850TIP3   OH220513   7.235   5.245   3.483
 6850TIP3    H120514   7.282   5.294   3.416
 6850TIP3    H220515   7.147   5.284   3.484
 6851TIP3   OH220516   5.674   1.688   4.502
 6851TIP3    H120517   5.647   1.779   4.506
 6851TIP3    H220518   5.681   1.661   4.594
 6852TIP3   OH220519   5.811   5.086   0.387
 6852TIP3    H120520   5.861   5.098   0.468
 6852TIP3    H220521   5.726   5.126   0.405
 6853TIP3   OH220522   0.223   4.532   4.670
 6853TIP3    H120523   0.160   4.511   4.601
 6853TIP3    H220524   0.170   4.536   4.750
 6854TIP3   OH220525   6.975   1.437   5.793
 6854TIP3    H120526   6.906   1.440   5.726
 6854TIP3    H220527   7.018   1.522   5.788
 6855TIP3   OH220528   1.911   4.000   0.056
 6855TIP3    H120529   1.899   4.017  -0.038
 6855TIP3    H220530   1.912   4.087   0.095
 6856TIP3   OH220531   2.615   4.797   4.339
 6856TIP3    H120532   2.635   4.891   4.335
 6856TIP3    H220533   2.589   4.782   4.430
 6857TIP3   OH220534   3.441   5.833   0.802
 6857TIP3    H120535   3.398   5.762   0.754
 6857TIP3    H220536   3.519   5.792   0.840
 6858TIP3   OH220537   0.564   1.474   3.292
 6858TIP3    H120538   0.629   1.538   3.263
 6858TIP3    H220539   0.495   1.527   3.333
 6859TIP3   OH220540   5.608   6.760   2.427
 6859TIP3    H120541   5.518   6.778   2.399
 6859TIP3    H220542   5.601   6.680   2.479
 6860TIP3   OH220543   7.141   4.377   5.311
 6860TIP3    H120544   7.131   4.355   5.218
 6860TIP3    H220545   7.073   4.442   5.327
 6861TIP3   OH220546   4.993   0.028   5.173
 6861TIP3    H120547   4.979   0.122   5.183
 6861TIP3    H220548   5.000   0.016   5.078
 6862TIP3   OH220549   0.838   5.380   5.236
 6862TIP3    H120550   0.821   5.456   5.180
 6862TIP3    H220551   0.758   5.328   5.230
 6863TIP3   OH220552   5.542   6.030   3.675
 6863TIP3    H120553   5.501   5.961   3.622
 6863TIP3    H220554   5.470   6.068   3.725
 6864TIP3   OH220555   0.382   2.586   2.383
 6864TIP3    H120556   0.400   2.667   2.334
 6864TIP3    H220557   0.288   2.574   2.377
 6865TIP3   OH220558   2.145   3.619   4.236
 6865TIP3    H120559   2.107   3.685   4.179
 6865TIP3    H220560   2.240   3.633   4.229
 6866TIP3   OH220561   3.059   0.954   3.456
 6866TIP3    H120562   2.995   1.018   3.486
 6866TIP3    H220563   3.008   0.878   3.429
 6867TIP3   OH220564   0.605   2.603   5.614
 6867TIP3    H120565   0.678   2.646   5.568
 6867TIP3    H220566   0.647   2.549   5.680
 6868TIP3   OH220567   4.920   6.316   1.379
 6868TIP3    H120568   4.895   6.234   1.335
 6868TIP3    H220569   4.860   6.321   1.454
 6869TIP3   OH220570   1.478   2.604   0.502
 6869TIP3    H120571   1.403   2.544   0.506
 6869TIP3    H220572   1.519   2.585   0.417
 6870TIP3   OH220573   2.219   6.304   1.835
 6870TIP3    H120574   2.195   6.371   1.770
 6870TIP3    H220575   2.170   6.328   1.913
 6871TIP3   OH220576   5.410   0.781   1.194
 6871TIP3    H120577   5.437   0.696   1.229
 6871TIP3    H220578   5.417   0.840   1.269
 6872TIP3   OH220579   2.727   5.431   2.538
 6872TIP3    H120580   2.755   5.397   2.452
 6872TIP3    H220581   2.785   5.387   2.600
 6873TIP3   OH220582   3.080   0.714   4.891
 6873TIP3    H120583   3.174   0.706   4.908
 6873TIP3    H220584   3.053   0.792   4.939
 6874TIP3   OH220585   3.429   0.020   1.336
 6874TIP3    H120586   3.470  -0.024   1.410
 6874TIP3    H220587   3.502   0.045   1.279
 6875TIP3   OH220588   6.050   2.253   1.910
 6875TIP3    H120589   6.099   2.291   1.983
 6875TIP3    H220590   5.961   2.242   1.944
 6876TIP3   OH220591   5.780   3.758   4.266
 6876TIP3    H120592   5.709   3.705   4.300
 6876TIP3    H220593   5.786   3.832   4.326
 6877TIP3   OH220594   4.677   0.536   3.726
 6877TIP3    H120595   4.585   0.564   3.728
 6877TIP3    H220596   4.673   0.443   3.706
 6878TIP3   OH220597   4.663   2.655   5.582
 6878TIP3    H120598   4.742   2.657   5.636
 6878TIP3    H220599   4.591   2.647   5.644
 6879TIP3   OH220600   2.464   2.603   3.516
 6879TIP3    H120601   2.427   2.594   3.428
 6879TIP3    H220602   2.413   2.543   3.570
 6880TIP3   OH220603   4.747   5.678   4.608
 6880TIP3    H120604   4.707   5.698   4.693
 6880TIP3    H220605   4.766   5.585   4.611
 6881TIP3   OH220606   2.656   0.318   5.328
 6881TIP3    H120607   2.746   0.352   5.326
 6881TIP3    H220608   2.665   0.228   5.358
 6882TIP3   OH220609   2.101   4.333   2.858
 6882TIP3    H120610   2.172   4.349   2.796
 6882TIP3    H220611   2.021   4.351   2.809
 6883TIP3   OH220612   6.221   3.181   4.460
 6883TIP3    H120613   6.212   3.115   4.529
 6883TIP3    H220614   6.134   3.220   4.451
 6884TIP3   OH220615   4.647   2.947   5.609
 6884TIP3    H120616   4.653   2.978   5.700
 6884TIP3    H220617   4.624   2.854   5.617
 6885TIP3   OH220618   6.589   1.813   0.456
 6885TIP3    H120619   6.598   1.841   0.547
 6885TIP3    H220620   6.537   1.882   0.415
 6886TIP3   OH220621   2.332   3.672   0.133
 6886TIP3    H120622   2.377   3.731   0.194
 6886TIP3    H220623   2.374   3.688   0.048
 6887TIP3   OH220624   6.731   1.662   5.412
 6887TIP3    H120625   6.653   1.705   5.447
 6887TIP3    H220626   6.755   1.597   5.478
 6888TIP3   OH220627   5.034   0.734   1.342
 6888TIP3    H120628   5.041   0.790   1.264
 6888TIP3    H220629   5.107   0.761   1.397
 6889TIP3   OH220630   6.665   3.753   3.844
 6889TIP3    H120631   6.612   3.718   3.772
 6889TIP3    H220632   6.725   3.682   3.867
 6890TIP3   OH220633   0.034   6.743   0.540
 6890TIP3    H120634   0.070   6.827   0.567
 6890TIP3    H220635   0.106   6.681   0.556
 6891TIP3   OH220636   7.138   2.407   0.554
 6891TIP3    H120637   7.126   2.475   0.621
 6891TIP3    H220638   7.100   2.444   0.475
 6892TIP3   OH220639   4.344   4.598   3.722
 6892TIP3    H120640   4.269   4.645   3.759
 6892TIP3    H220641   4.388   4.560   3.798
 6893TIP3   OH220642   5.904   3.455   0.074
 6893TIP3    H120643   5.891   3.383   0.013
 6893TIP3    H220644   5.843   3.436   0.146
 6894TIP3   OH220645   2.548   6.647   0.559
 6894TIP3    H120646   2.584   6.733   0.538
 6894TIP3    H220647   2.606   6.613   0.627
 6895TIP3   OH220648   4.711   6.572   0.532
 6895TIP3    H120649   4.673   6.608   0.452
 6895TIP3    H220650   4.640   6.574   0.596
 6896TIP3   OH220651   4.923   0.208   5.773
 6896TIP3    H120652   4.951   0.256   5.695
 6896TIP3    H220653   4.913   0.276   5.840
 6897TIP3   OH220654   0.025   4.046   2.369
 6897TIP3    H120655   0.072   4.035   2.451
 6897TIP3    H220656  -0.011   4.135   2.373
 6898TIP3   OH220657   3.323   1.106   4.921
 6898TIP3    H120658   3.398   1.074   4.870
 6898TIP3    H220659   3.277   1.165   4.861
 6899TIP3   OH220660   5.156   0.181   3.043
 6899TIP3    H120661   5.082   0.121   3.039
 6899TIP3    H220662   5.139   0.244   2.973
 6900TIP3   OH220663   4.060   6.304   2.709
 6900TIP3    H120664   4.110   6.223   2.702
 6900TIP3    H220665   3.992   6.285   2.774
 6901TIP3   OH220666   5.585   1.136   0.108
 6901TIP3    H120667   5.646   1.103   0.174
 6901TIP3    H220668   5.561   1.058   0.057
 6902TIP3   OH220669   3.956   3.214   3.935
 6902TIP3    H120670   3.999   3.253   4.011
 6902TIP3    H220671   3.875   3.177   3.969
 6903TIP3   OH220672   3.714   3.525   3.751
 6903TIP3    H120673   3.664   3.443   3.751
 6903TIP3    H220674   3.650   3.593   3.770
 6904TIP3   OH220675   1.995   5.969   1.281
 6904TIP3    H120676   2.026   6.019   1.206
 6904TIP3    H220677   2.046   5.888   1.278
 6905TIP3   OH220678   4.650   3.380   5.112
 6905TIP3    H120679   4.741   3.410   5.108
 6905TIP3    H220680   4.656   3.286   5.099
 6906TIP3   OH220681   1.008   2.830   1.678
 6906TIP3    H120682   1.036   2.787   1.758
 6906TIP3    H220683   1.081   2.887   1.653
 6907TIP3   OH220684   2.451   5.956   1.858
 6907TIP3    H120685   2.366   5.915   1.877
 6907TIP3    H220686   2.505   5.934   1.934
 6908TIP3   OH220687   2.983   6.776   1.524
 6908TIP3    H120688   3.016   6.819   1.603
 6908TIP3    H220689   2.909   6.723   1.554
 6909TIP3   OH220690  -0.016   6.394   3.910
 6909TIP3    H120691  -0.007   6.374   4.003
 6909TIP3    H220692   0.072   6.419   3.882
 6910TIP3   OH220693   0.105   6.460   1.339
 6910TIP3    H120694   0.080   6.369   1.322
 6910TIP3    H220695   0.188   6.453   1.386
 6911TIP3   OH220696   2.513   3.646   2.179
 6911TIP3    H120697   2.449   3.671   2.247
 6911TIP3    H220698   2.597   3.648   2.224
 6912TIP3   OH220699   1.369   5.572   1.656
 6912TIP3    H120700   1.287   5.526   1.673
 6912TIP3    H220701   1.343   5.662   1.638
 6913TIP3   OH220702   6.377   6.622   0.035
 6913TIP3    H120703   6.426   6.565  -0.024
 6913TIP3    H220704   6.424   6.617   0.118
 6914TIP3   OH220705   4.306   0.626   1.295
 6914TIP3    H120706   4.262   0.541   1.304
 6914TIP3    H220707   4.319   0.655   1.386
 6915TIP3   OH220708   6.641   2.248   1.156
 6915TIP3    H120709   6.709   2.225   1.219
 6915TIP3    H220710   6.687   2.296   1.088
 6916TIP3   OH220711   2.066   3.733   2.318
 6916TIP3    H120712   2.010   3.680   2.375
 6916TIP3    H220713   2.062   3.821   2.355
 6917TIP3   OH220714   0.026   5.298   1.431
 6917TIP3    H120715   0.034   5.281   1.525
 6917TIP3    H220716   0.108   5.343   1.409
 6918TIP3   OH220717   5.843   3.236   5.176
 6918TIP3    H120718   5.859   3.271   5.264
 6918TIP3    H220719   5.916   3.270   5.123
 6919TIP3   OH220720   5.783   2.524   3.473
 6919TIP3    H120721   5.812   2.518   3.382
 6919TIP3    H220722   5.737   2.607   3.478
 6920TIP3   OH220723   5.529   2.731   2.268
 6920TIP3    H120724   5.436   2.747   2.280
 6920TIP3    H220725   5.534   2.666   2.198
 6921TIP3   OH220726   3.898   5.348   1.357
 6921TIP3    H120727   3.808   5.315   1.360
 6921TIP3    H220728   3.943   5.290   1.295
 6922TIP3   OH220729   0.262   3.792   0.183
 6922TIP3    H120730   0.244   3.729   0.253
 6922TIP3    H220731   0.348   3.827   0.203
 6923TIP3   OH220732   0.135   2.949   4.753
 6923TIP3    H120733   0.209   2.976   4.698
 6923TIP3    H220734   0.171   2.945   4.841
 6924TIP3   OH220735   6.314   3.424   4.693
 6924TIP3    H120736   6.307   3.360   4.765
 6924TIP3    H220737   6.274   3.380   4.618
 6925TIP3   OH220738   1.727   0.144   4.453
 6925TIP3    H120739   1.678   0.077   4.500
 6925TIP3    H220740   1.759   0.202   4.522
 6926TIP3   OH220741   6.264   3.625   4.147
 6926TIP3    H120742   6.296   3.561   4.210
 6926TIP3    H220743   6.199   3.676   4.196
 6927TIP3   OH220744   1.986   5.791   4.522
 6927TIP3    H120745   2.028   5.826   4.444
 6927TIP3    H220746   2.058   5.761   4.577
 6928TIP3   OH220747   0.604   5.866   1.277
 6928TIP3    H120748   0.666   5.794   1.280
 6928TIP3    H220749   0.654   5.940   1.241
 6929TIP3   OH220750   2.201   6.024   1.764
 6929TIP3    H120751   2.179   5.955   1.827
 6929TIP3    H220752   2.190   6.105   1.813
 6930TIP3   OH220753   1.971   5.626   4.917
 6930TIP3    H120754   2.057   5.585   4.906
 6930TIP3    H220755   1.964   5.640   5.012
 6931TIP3   OH220756   5.495   1.918   1.957
 6931TIP3    H120757   5.559   1.861   1.915
 6931TIP3    H220758   5.461   1.867   2.030
 6932TIP3   OH220759   2.940   2.447   1.092
 6932TIP3    H120760   2.941   2.403   1.007
 6932TIP3    H220761   2.950   2.540   1.070
 6933TIP3   OH220762   6.225   2.379   0.639
 6933TIP3    H120763   6.152   2.381   0.577
 6933TIP3    H220764   6.275   2.301   0.615
 6934TIP3   OH220765   3.029   0.627   2.953
 6934TIP3    H120766   3.000   0.543   2.988
 6934TIP3    H220767   3.101   0.604   2.893
 6935TIP3   OH220768   3.355   4.340   4.010
 6935TIP3    H120769   3.393   4.295   3.935
 6935TIP3    H220770   3.396   4.300   4.087
 6936TIP3   OH220771   3.645   3.531   0.079
 6936TIP3    H120772   3.578   3.600   0.082
 6936TIP3    H220773   3.711   3.560   0.142
 6937TIP3   OH220774   0.929   1.567   0.749
 6937TIP3    H120775   0.861   1.634   0.758
 6937TIP3    H220776   0.989   1.584   0.822
 6938TIP3   OH220777   6.407   1.177   2.613
 6938TIP3    H120778   6.313   1.156   2.613
 6938TIP3    H220779   6.412   1.259   2.662
 6939TIP3   OH220780   0.139   6.339   1.620
 6939TIP3    H120781   0.133   6.271   1.553
 6939TIP3    H220782   0.184   6.411   1.577
 6940TIP3   OH220783   3.463   2.184   4.453
 6940TIP3    H120784   3.493   2.274   4.441
 6940TIP3    H220785   3.367   2.189   4.446
 6941TIP3   OH220786   1.210   3.813   0.575
 6941TIP3    H120787   1.175   3.734   0.534
 6941TIP3    H220788   1.231   3.786   0.665
 6942TIP3   OH220789   4.303   5.662   2.876
 6942TIP3    H120790   4.223   5.714   2.879
 6942TIP3    H220791   4.343   5.674   2.962
 6943TIP3   OH220792   3.280   4.820   0.202
 6943TIP3    H120793   3.299   4.911   0.178
 6943TIP3    H220794   3.356   4.771   0.171
 6944TIP3   OH220795   5.883   5.248   2.050
 6944TIP3    H120796   5.919   5.159   2.053
 6944TIP3    H220797   5.853   5.265   2.139
 6945TIP3   OH220798   4.375   0.056   1.603
 6945TIP3    H120799   4.469   0.054   1.586
 6945TIP3    H220800   4.359   0.145   1.637
 6946TIP3   OH220801   7.189   2.129   2.246
 6946TIP3    H120802   7.177   2.091   2.333
 6946TIP3    H220803   7.281   2.114   2.226
 6947TIP3   OH220804   5.484   2.928   1.871
 6947TIP3    H120805   5.577   2.925   1.891
 6947TIP3    H220806   5.454   3.010   1.910
 6948TIP3   OH220807   3.121   4.138   0.213
 6948TIP3    H120808   3.137   4.046   0.235
 6948TIP3    H220809   3.098   4.178   0.296
 6949TIP3   OH220810   6.196   0.418   5.733
 6949TIP3    H120811   6.102   0.408   5.748
 6949TIP3    H220812   6.208   0.396   5.641
 6950TIP3   OH220813   7.029   2.568   0.360
 6950TIP3    H120814   7.032   2.502   0.291
 6950TIP3    H220815   6.950   2.619   0.342
 6951TIP3   OH220816   2.149   4.248   4.729
 6951TIP3    H120817   2.140   4.320   4.792
 6951TIP3    H220818   2.228   4.201   4.757
 6952TIP3   OH220819   1.704   3.386   0.640
 6952TIP3    H120820   1.787   3.388   0.593
 6952TIP3    H220821   1.638   3.368   0.573
 6953TIP3   OH220822   4.236   6.088   2.685
 6953TIP3    H120823   4.307   6.148   2.711
 6953TIP3    H220824   4.268   6.001   2.708
 6954TIP3   OH220825   4.046   5.150   2.418
 6954TIP3    H120826   4.040   5.245   2.409
 6954TIP3    H220827   4.085   5.121   2.335
 6955TIP3   OH220828   1.369   0.290   5.766
 6955TIP3    H120829   1.307   0.294   5.693
 6955TIP3    H220830   1.332   0.225   5.826
 6956TIP3   OH220831   4.083   3.978   3.660
 6956TIP3    H120832   4.151   3.911   3.663
 6956TIP3    H220833   4.128   4.056   3.626
 6957TIP3   OH220834   0.125   5.082   4.164
 6957TIP3    H120835   0.169   5.077   4.079
 6957TIP3    H220836   0.174   5.149   4.212
 6958TIP3   OH220837   5.303   1.026   3.655
 6958TIP3    H120838   5.264   0.986   3.733
 6958TIP3    H220839   5.338   1.109   3.686
 6959TIP3   OH220840   0.209   4.642   1.588
 6959TIP3    H120841   0.208   4.689   1.671
 6959TIP3    H220842   0.243   4.706   1.525
 6960TIP3   OH220843   1.854   0.921   3.605
 6960TIP3    H120844   1.771   0.963   3.583
 6960TIP3    H220845   1.842   0.891   3.696
 6961TIP3   OH220846   6.418   2.981   4.635
 6961TIP3    H120847   6.461   2.923   4.698
 6961TIP3    H220848   6.460   3.066   4.649
 6962TIP3   OH220849   4.975   2.163   3.813
 6962TIP3    H120850   4.982   2.180   3.719
 6962TIP3    H220851   5.065   2.166   3.844
 6963TIP3   OH220852   2.761   6.114   5.814
 6963TIP3    H120853   2.764   6.151   5.725
 6963TIP3    H220854   2.839   6.150   5.857
 6964TIP3   OH220855   4.501   5.253   2.243
 6964TIP3    H120856   4.543   5.274   2.327
 6964TIP3    H220857   4.566   5.276   2.177
 6965TIP3   OH220858   1.198   4.684   4.628
 6965TIP3    H120859   1.154   4.605   4.597
 6965TIP3    H220860   1.275   4.692   4.572
 6966TIP3   OH220861   5.653   1.297   4.133
 6966TIP3    H120862   5.740   1.264   4.114
 6966TIP3    H220863   5.667   1.385   4.169
 6967TIP3   OH220864   0.782   5.626   3.503
 6967TIP3    H120865   0.754   5.560   3.439
 6967TIP3    H220866   0.708   5.632   3.564
 6968TIP3   OH220867   5.909   3.521   4.775
 6968TIP3    H120868   5.815   3.514   4.762
 6968TIP3    H220869   5.946   3.523   4.686
 6969TIP3   OH220870   5.033   0.681   4.640
 6969TIP3    H120871   5.055   0.769   4.609
 6969TIP3    H220872   5.041   0.626   4.562
 6970TIP3   OH220873   5.647   2.798   3.529
 6970TIP3    H120874   5.620   2.806   3.437
 6970TIP3    H220875   5.621   2.881   3.569
 6971TIP3   OH220876   0.721   6.115   3.096
 6971TIP3    H120877   0.639   6.076   3.066
 6971TIP3    H220878   0.698   6.161   3.177
 6972TIP3   OH220879   3.222   2.292   4.329
 6972TIP3    H120880   3.261   2.367   4.285
 6972TIP3    H220881   3.180   2.242   4.259
 6973TIP3   OH220882   3.467   5.071   2.239
 6973TIP3    H120883   3.552   5.052   2.201
 6973TIP3    H220884   3.421   5.123   2.173
 6974TIP3   OH220885   2.540   2.334   3.161
 6974TIP3    H120886   2.470   2.346   3.096
 6974TIP3    H220887   2.605   2.400   3.139
 6975TIP3   OH220888   7.094   5.950   5.110
 6975TIP3    H120889   7.103   6.022   5.047
 6975TIP3    H220890   7.107   5.991   5.195
 6976TIP3   OH220891   0.562   5.359   3.425
 6976TIP3    H120892   0.616   5.331   3.352
 6976TIP3    H220893   0.581   5.296   3.495
 6977TIP3   OH220894   2.051   5.476   1.533
 6977TIP3    H120895   2.101   5.538   1.585
 6977TIP3    H220896   2.115   5.411   1.505
 6978TIP3   OH220897   1.983   0.479   1.299
 6978TIP3    H120898   1.895   0.443   1.298
 6978TIP3    H220899   2.001   0.496   1.391
 6979TIP3   OH220900   2.009   4.746   1.998
 6979TIP3    H120901   2.054   4.677   2.045
 6979TIP3    H220902   1.967   4.702   1.924
 6980TIP3   OH220903   1.968   3.297   2.563
 6980TIP3    H120904   1.949   3.362   2.631
 6980TIP3    H220905   1.989   3.350   2.485
 6981TIP3   OH220906   0.103   2.701   4.511
 6981TIP3    H120907   0.114   2.796   4.513
 6981TIP3    H220908   0.104   2.674   4.603
 6982TIP3   OH220909   6.727   3.700   2.669
 6982TIP3    H120910   6.694   3.790   2.666
 6982TIP3    H220911   6.670   3.651   2.610
 6983TIP3   OH220912   5.813   0.881   3.544
 6983TIP3    H120913   5.763   0.893   3.625
 6983TIP3    H220914   5.794   0.792   3.517
 6984TIP3   OH220915   5.882   0.354   3.337
 6984TIP3    H120916   5.942   0.282   3.319
 6984TIP3    H220917   5.828   0.361   3.258
 6985TIP3   OH220918   4.680   4.612   3.424
 6985TIP3    H120919   4.713   4.684   3.371
 6985TIP3    H220920   4.595   4.642   3.456
 6986TIP3   OH220921   1.945   5.409   4.352
 6986TIP3    H120922   2.010   5.444   4.291
 6986TIP3    H220923   1.948   5.314   4.337
 6987TIP3   OH220924   3.274   0.817   1.722
 6987TIP3    H120925   3.363   0.837   1.751
 6987TIP3    H220926   3.248   0.894   1.671
 6988TIP3   OH220927   0.765   4.899   1.473
 6988TIP3    H120928   0.721   4.825   1.513
 6988TIP3    H220929   0.854   4.895   1.508
 6989TIP3   OH220930   1.630   1.120   3.872
 6989TIP3    H120931   1.583   1.179   3.814
 6989TIP3    H220932   1.591   1.034   3.856
 6990TIP3   OH220933   0.963   6.399   3.189
 6990TIP3    H120934   0.936   6.456   3.117
 6990TIP3    H220935   1.058   6.410   3.193
 6991TIP3   OH220936   5.475   2.667   3.309
 6991TIP3    H120937   5.552   2.614   3.286
 6991TIP3    H220938   5.482   2.745   3.253
 6992TIP3   OH220939   0.704   4.466   3.488
 6992TIP3    H120940   0.705   4.416   3.570
 6992TIP3    H220941   0.793   4.500   3.479
 6993TIP3   OH220942   4.497   6.304   5.336
 6993TIP3    H120943   4.505   6.369   5.406
 6993TIP3    H220944   4.576   6.315   5.284
 6994TIP3   OH220945   4.563   3.347   5.832
 6994TIP3    H120946   4.484   3.376   5.878
 6994TIP3    H220947   4.555   3.385   5.744
 6995TIP3   OH220948   3.551   2.167   0.977
 6995TIP3    H120949   3.533   2.109   1.050
 6995TIP3    H220950   3.482   2.233   0.981
 6996TIP3   OH220951   1.038   0.409   4.524
 6996TIP3    H120952   1.027   0.332   4.579
 6996TIP3    H220953   0.990   0.388   4.443
 6997TIP3   OH220954   3.527   4.110   0.129
 6997TIP3    H120955   3.514   4.120   0.224
 6997TIP3    H220956   3.598   4.045   0.123
 6998TIP3   OH220957   1.114   5.441   2.006
 6998TIP3    H120958   1.155   5.527   1.989
 6998TIP3    H220959   1.123   5.394   1.923
 6999TIP3   OH220960   4.651   0.787   3.342
 6999TIP3    H120961   4.684   0.870   3.377
 6999TIP3    H220962   4.727   0.747   3.300
 7000TIP3   OH220963   6.906   1.683   0.756
 7000TIP3    H120964   6.895   1.617   0.689
 7000TIP3    H220965   6.906   1.766   0.708
 7001TIP3   OH220966   1.037   4.562   5.774
 7001TIP3    H120967   1.080   4.523   5.850
 7001TIP3    H220968   1.102   4.624   5.740
 7002TIP3   OH220969   0.394   5.173   1.189
 7002TIP3    H120970   0.334   5.102   1.167
 7002TIP3    H220971   0.481   5.132   1.190
 7003TIP3   OH220972   5.083   0.721   3.457
 7003TIP3    H120973   5.015   0.679   3.510
 7003TIP3    H220974   5.041   0.737   3.373
 7004TIP3   OH220975   4.181   6.154   2.401
 7004TIP3    H120976   4.086   6.145   2.398
 7004TIP3    H220977   4.199   6.199   2.484
 7005TIP3   OH220978   3.135   6.214   0.979
 7005TIP3    H120979   3.142   6.300   1.021
 7005TIP3    H220980   3.194   6.158   1.029
 7006TIP3   OH220981   2.660   6.802   4.328
 7006TIP3    H120982   2.707   6.719   4.333
 7006TIP3    H220983   2.728   6.869   4.324
 7007TIP3   OH220984   2.394   3.442   2.616
 7007TIP3    H120985   2.338   3.499   2.669
 7007TIP3    H220986   2.481   3.453   2.653
 7008TIP3   OH220987   7.096   2.036   4.157
 7008TIP3    H120988   7.109   2.100   4.087
 7008TIP3    H220989   7.032   2.077   4.215
 7009TIP3   OH220990   1.103   3.093   5.017
 7009TIP3    H120991   1.061   3.127   5.096
 7009TIP3    H220992   1.197   3.096   5.036
 7010TIP3   OH220993   2.150   2.256   4.174
 7010TIP3    H120994   2.131   2.350   4.166
 7010TIP3    H220995   2.080   2.222   4.230
 7011TIP3   OH220996   6.120   5.678   3.837
 7011TIP3    H120997   6.191   5.740   3.818
 7011TIP3    H220998   6.120   5.671   3.932
 7012TIP3   OH220999   3.571   0.258   4.948
 7012TIP3    H121000   3.509   0.222   5.012
 7012TIP3    H221001   3.586   0.348   4.977
 7013TIP3   OH221002   3.717   4.035   2.367
 7013TIP3    H121003   3.685   4.080   2.446
 7013TIP3    H221004   3.643   3.982   2.339
 7014TIP3   OH221005   4.699   2.094   3.586
 7014TIP3    H121006   4.640   2.056   3.651
 7014TIP3    H221007   4.787   2.082   3.622
 7015TIP3   OH221008   1.023   4.503   3.388
 7015TIP3    H121009   1.054   4.541   3.470
 7015TIP3    H221010   1.100   4.503   3.331
 7016TIP3   OH221011   5.911   2.806   3.663
 7016TIP3    H121012   5.829   2.760   3.643
 7016TIP3    H221013   5.971   2.780   3.593
 7017TIP3   OH221014   4.501   0.383   3.563
 7017TIP3    H121015   4.517   0.410   3.472
 7017TIP3    H221016   4.439   0.446   3.597
 7018TIP3   OH221017   6.393   4.821   1.321
 7018TIP3    H121018   6.397   4.906   1.364
 7018TIP3    H221019   6.300   4.807   1.304
 7019TIP3   OH221020   7.132   4.291   1.243
 7019TIP3    H121021   7.129   4.256   1.154
 7019TIP3    H221022   7.088   4.225   1.297
 7020TIP3   OH221023   6.172   6.799   3.811
 7020TIP3    H121024   6.141   6.801   3.901
 7020TIP3    H221025   6.261   6.834   3.816
 7021TIP3   OH221026   4.788   1.430   0.977
 7021TIP3    H121027   4.830   1.429   0.891
 7021TIP3    H221028   4.766   1.339   0.994
 7022TIP3   OH221029   3.170   6.721   1.263
 7022TIP3    H121030   3.112   6.747   1.334
 7022TIP3    H221031   3.169   6.796   1.203
 7023TIP3   OH221032   0.140   1.262   3.978
 7023TIP3    H121033   0.150   1.168   3.991
 7023TIP3    H221034   0.140   1.273   3.882
 7024TIP3   OH221035   2.427   1.542   1.336
 7024TIP3    H121036   2.451   1.449   1.335
 7024TIP3    H221037   2.510   1.589   1.338
 7025TIP3   OH221038   4.352   0.830   2.460
 7025TIP3    H121039   4.321   0.912   2.499
 7025TIP3    H221040   4.439   0.817   2.497
 7026TIP3   OH221041   6.050   1.068   1.851
 7026TIP3    H121042   6.006   1.045   1.769
 7026TIP3    H221043   6.129   1.116   1.823
 7027TIP3   OH221044   5.201   1.034   4.212
 7027TIP3    H121045   5.137   1.090   4.257
 7027TIP3    H221046   5.284   1.081   4.222
 7028TIP3   OH221047   0.882   1.813   4.726
 7028TIP3    H121048   0.801   1.778   4.763
 7028TIP3    H221049   0.857   1.848   4.641
 7029TIP3   OH221050   3.720   1.690   0.562
 7029TIP3    H121051   3.756   1.687   0.651
 7029TIP3    H221052   3.779   1.748   0.514
 7030TIP3   OH221053   5.873   4.021   1.647
 7030TIP3    H121054   5.897   4.064   1.729
 7030TIP3    H221055   5.932   4.060   1.582
 7031TIP3   OH221056   3.512   0.274   0.927
 7031TIP3    H121057   3.546   0.184   0.925
 7031TIP3    H221058   3.582   0.326   0.888
 7032TIP3   OH221059   4.023   6.628   1.881
 7032TIP3    H121060   4.105   6.592   1.915
 7032TIP3    H221061   4.014   6.588   1.795
 7033TIP3   OH221062   2.441   4.359   3.033
 7033TIP3    H121063   2.427   4.353   2.938
 7033TIP3    H221064   2.532   4.330   3.045
 7034TIP3   OH221065   6.099   0.820   4.360
 7034TIP3    H121066   6.007   0.849   4.363
 7034TIP3    H221067   6.145   0.880   4.419
 7035TIP3   OH221068   0.754   0.308   5.311
 7035TIP3    H121069   0.717   0.360   5.382
 7035TIP3    H221070   0.683   0.300   5.248
 7036TIP3   OH221071   5.716   2.360   0.280
 7036TIP3    H121072   5.791   2.348   0.339
 7036TIP3    H221073   5.641   2.367   0.338
 7037TIP3   OH221074   6.799   3.794   1.410
 7037TIP3    H121075   6.783   3.886   1.428
 7037TIP3    H221076   6.736   3.747   1.465
 7038TIP3   OH221077   1.028   5.003   0.429
 7038TIP3    H121078   0.953   5.061   0.442
 7038TIP3    H221079   0.991   4.922   0.396
 7039TIP3   OH221080   2.195   5.830   1.956
 7039TIP3    H121081   2.217   5.835   2.049
 7039TIP3    H221082   2.141   5.751   1.949
 7040TIP3   OH221083   4.834   3.108   3.996
 7040TIP3    H121084   4.824   3.199   4.022
 7040TIP3    H221085   4.761   3.091   3.937
 7041TIP3   OH221086   5.609   1.160   4.469
 7041TIP3    H121087   5.638   1.213   4.542
 7041TIP3    H221088   5.688   1.142   4.418
 7042TIP3   OH221089   6.326   0.897   1.023
 7042TIP3    H121090   6.418   0.905   1.048
 7042TIP3    H221091   6.313   0.804   1.004
 7043TIP3   OH221092   3.220   2.151   1.769
 7043TIP3    H121093   3.262   2.138   1.683
 7043TIP3    H221094   3.216   2.246   1.779
 7044TIP3   OH221095   6.048   4.089   4.280
 7044TIP3    H121096   6.068   4.161   4.220
 7044TIP3    H221097   5.966   4.114   4.321
 7045TIP3   OH221098   4.478   3.029   0.901
 7045TIP3    H121099   4.430   2.985   0.971
 7045TIP3    H221100   4.411   3.077   0.852
 7046TIP3   OH221101   5.008   1.447   4.356
 7046TIP3    H121102   5.086   1.466   4.409
 7046TIP3    H221103   4.936   1.449   4.419
 7047TIP3   OH221104   6.540   2.697   3.755
 7047TIP3    H121105   6.560   2.620   3.807
 7047TIP3    H221106   6.478   2.747   3.809
 7048TIP3   OH221107   0.253   1.516   3.272
 7048TIP3    H121108   0.257   1.427   3.237
 7048TIP3    H221109   0.201   1.508   3.352
 7049TIP3   OH221110   3.098   4.487   3.805
 7049TIP3    H121111   3.108   4.541   3.883
 7049TIP3    H221112   3.160   4.415   3.818
 7050TIP3   OH221113   6.588   1.673   4.467
 7050TIP3    H121114   6.581   1.582   4.437
 7050TIP3    H221115   6.661   1.709   4.418
 7051TIP3   OH221116   0.929   2.905   0.856
 7051TIP3    H121117   0.984   2.843   0.903
 7051TIP3    H221118   0.987   2.947   0.793
 7052TIP3   OH221119   3.884   1.148   3.574
 7052TIP3    H121120   3.801   1.127   3.529
 7052TIP3    H221121   3.875   1.109   3.661
 7053TIP3   OH221122   0.727   1.131   1.405
 7053TIP3    H121123   0.632   1.136   1.399
 7053TIP3    H221124   0.754   1.079   1.329
 7054TIP3   OH221125   7.085   0.787   5.746
 7054TIP3    H121126   6.992   0.803   5.762
 7054TIP3    H221127   7.092   0.777   5.651
 7055TIP3   OH221128   0.988   3.553   0.627
 7055TIP3    H121129   1.017   3.486   0.565
 7055TIP3    H221130   0.947   3.504   0.698
 7056TIP3   OH221131   3.743   4.692   5.276
 7056TIP3    H121132   3.789   4.683   5.192
 7056TIP3    H221133   3.774   4.619   5.328
 7057TIP3   OH221134   3.929   6.211   2.134
 7057TIP3    H121135   3.838   6.236   2.120
 7057TIP3    H221136   3.975   6.293   2.149
 7058TIP3   OH221137   6.384   0.472   2.588
 7058TIP3    H121138   6.452   0.510   2.645
 7058TIP3    H221139   6.410   0.499   2.500
 7059TIP3   OH221140   4.855   1.970   5.337
 7059TIP3    H121141   4.903   1.939   5.260
 7059TIP3    H221142   4.868   1.902   5.403
 7060TIP3   OH221143   4.527   6.186   0.144
 7060TIP3    H121144   4.579   6.253   0.189
 7060TIP3    H221145   4.589   6.117   0.123
 7061TIP3   OH221146   1.364   4.452   0.082
 7061TIP3    H121147   1.279   4.498   0.081
 7061TIP3    H221148   1.377   4.430   0.175
 7062TIP3   OH221149   6.623   0.666   0.507
 7062TIP3    H121150   6.564   0.609   0.557
 7062TIP3    H221151   6.625   0.748   0.557
 7063TIP3   OH221152   1.415   4.130   0.547
 7063TIP3    H121153   1.391   4.045   0.509
 7063TIP3    H221154   1.333   4.179   0.549
 7064TIP3   OH221155   5.186   5.976   2.018
 7064TIP3    H121156   5.111   6.029   1.989
 7064TIP3    H221157   5.208   5.922   1.942
 7065TIP3   OH221158   4.075   4.351   0.292
 7065TIP3    H121159   4.109   4.281   0.347
 7065TIP3    H221160   4.037   4.414   0.354
 7066TIP3   OH221161   5.140   5.700   5.681
 7066TIP3    H121162   5.205   5.748   5.629
 7066TIP3    H221163   5.159   5.608   5.663
 7067TIP3   OH221164   4.520   0.319   1.938
 7067TIP3    H121165   4.518   0.305   1.843
 7067TIP3    H221166   4.583   0.255   1.971
 7068TIP3   OH221167   6.715   5.492   0.660
 7068TIP3    H121168   6.644   5.544   0.622
 7068TIP3    H221169   6.758   5.451   0.585
 7069TIP3   OH221170   3.150   5.077   4.769
 7069TIP3    H121171   3.170   4.984   4.761
 7069TIP3    H221172   3.058   5.080   4.795
 7070TIP3   OH221173   5.869   0.480   4.417
 7070TIP3    H121174   5.897   0.499   4.327
 7070TIP3    H221175   5.789   0.531   4.429
 7071TIP3   OH221176   3.099   6.267   0.440
 7071TIP3    H121177   3.132   6.323   0.510
 7071TIP3    H221178   3.151   6.187   0.446
 7072TIP3   OH221179   4.112   2.711   1.065
 7072TIP3    H121180   4.080   2.621   1.069
 7072TIP3    H221181   4.182   2.715   1.130
 7073TIP3   OH221182   5.913   1.004   4.638
 7073TIP3    H121183   5.992   0.981   4.589
 7073TIP3    H221184   5.923   1.097   4.659
 7074TIP3   OH221185   1.513   1.188   5.087
 7074TIP3    H121186   1.546   1.138   5.013
 7074TIP3    H221187   1.419   1.194   5.072
 7075TIP3   OH221188   1.327   4.967   3.243
 7075TIP3    H121189   1.261   4.899   3.255
 7075TIP3    H221190   1.400   4.941   3.300
 7076TIP3   OH221191   2.124   1.866   4.998
 7076TIP3    H121192   2.128   1.888   5.091
 7076TIP3    H221193   2.210   1.890   4.964
 7077TIP3   OH221194   2.015   5.542   5.489
 7077TIP3    H121195   2.033   5.591   5.409
 7077TIP3    H221196   1.973   5.462   5.459
 7078TIP3   OH221197   1.315   0.182   1.065
 7078TIP3    H121198   1.266   0.123   1.007
 7078TIP3    H221199   1.272   0.267   1.054
 7079TIP3   OH221200   3.957   3.894   4.893
 7079TIP3    H121201   3.945   3.933   4.807
 7079TIP3    H221202   3.990   3.806   4.875
 7080TIP3   OH221203   5.249   0.785   4.274
 7080TIP3    H121204   5.184   0.742   4.219
 7080TIP3    H221205   5.241   0.878   4.253
 7081TIP3   OH221206   7.229   3.621   4.878
 7081TIP3    H121207   7.184   3.539   4.897
 7081TIP3    H221208   7.279   3.640   4.958
 7082TIP3   OH221209   1.083   6.029   5.268
 7082TIP3    H121210   1.016   5.969   5.235
 7082TIP3    H221211   1.056   6.115   5.235
 7083TIP3   OH221212   4.360   3.742   4.230
 7083TIP3    H121213   4.411   3.796   4.290
 7083TIP3    H221214   4.333   3.801   4.160
 7084TIP3   OH221215   5.084   3.578   1.680
 7084TIP3    H121216   5.042   3.544   1.601
 7084TIP3    H221217   5.122   3.662   1.653
 7085TIP3   OH221218   4.393   3.003   3.908
 7085TIP3    H121219   4.302   2.975   3.918
 7085TIP3    H221220   4.388   3.099   3.903
 7086TIP3   OH221221   3.125   1.231   5.675
 7086TIP3    H121222   3.161   1.258   5.760
 7086TIP3    H221223   3.124   1.312   5.623
 7087TIP3   OH221224   4.870   3.948   2.886
 7087TIP3    H121225   4.806   3.976   2.952
 7087TIP3    H221226   4.869   3.853   2.890
 7088TIP3   OH221227   1.475   1.068   2.738
 7088TIP3    H121228   1.400   1.009   2.729
 7088TIP3    H221229   1.436   1.155   2.738
 7089TIP3   OH221230   0.914   4.842   3.827
 7089TIP3    H121231   0.914   4.851   3.923
 7089TIP3    H221232   0.984   4.778   3.810
 7090TIP3   OH221233   4.912   0.553   3.578
 7090TIP3    H121234   4.822   0.576   3.600
 7090TIP3    H221235   4.947   0.515   3.659
 7091TIP3   OH221236   3.325   0.266   1.331
 7091TIP3    H121237   3.337   0.318   1.251
 7091TIP3    H221238   3.382   0.190   1.319
 7092TIP3   OH221239   1.788   1.861   0.824
 7092TIP3    H121240   1.779   1.889   0.733
 7092TIP3    H221241   1.734   1.782   0.831
 7093TIP3   OH221242   2.880   4.271   1.235
 7093TIP3    H121243   2.881   4.224   1.152
 7093TIP3    H221244   2.858   4.204   1.300
 7094TIP3   OH221245   5.171   3.527   2.451
 7094TIP3    H121246   5.175   3.583   2.373
 7094TIP3    H221247   5.111   3.457   2.426
 7095TIP3   OH221248   3.668   6.340   2.573
 7095TIP3    H121249   3.757   6.331   2.538
 7095TIP3    H221250   3.654   6.260   2.623
 7096TIP3   OH221251   5.313   3.430   3.571
 7096TIP3    H121252   5.401   3.395   3.589
 7096TIP3    H221253   5.273   3.367   3.512
 7097TIP3   OH221254   3.767   1.869   0.053
 7097TIP3    H121255   3.823   1.814  -0.001
 7097TIP3    H221256   3.699   1.810   0.087
 7098TIP3   OH221257   6.411   4.208   4.815
 7098TIP3    H121258   6.441   4.180   4.901
 7098TIP3    H221259   6.487   4.248   4.774
 7099TIP3   OH221260   1.716   2.133   2.308
 7099TIP3    H121261   1.693   2.161   2.219
 7099TIP3    H221262   1.642   2.162   2.362
 7100TIP3   OH221263   1.113   2.124   5.585
 7100TIP3    H121264   1.083   2.038   5.555
 7100TIP3    H221265   1.179   2.149   5.521
 7101TIP3   OH221266   1.103   0.696   0.615
 7101TIP3    H121267   1.071   0.767   0.559
 7101TIP3    H221268   1.038   0.691   0.686
 7102TIP3   OH221269   6.484   0.222   1.558
 7102TIP3    H121270   6.487   0.203   1.652
 7102TIP3    H221271   6.434   0.150   1.521
 7103TIP3   OH221272   6.325   6.098   4.809
 7103TIP3    H121273   6.384   6.119   4.881
 7103TIP3    H221274   6.380   6.106   4.731
 7104TIP3   OH221275   6.361   6.011   2.622
 7104TIP3    H121276   6.436   6.060   2.656
 7104TIP3    H221277   6.400   5.933   2.582
 7105TIP3   OH221278   4.191   2.437   1.369
 7105TIP3    H121279   4.187   2.482   1.284
 7105TIP3    H221280   4.267   2.380   1.361
 7106TIP3   OH221281   4.025   3.617   1.407
 7106TIP3    H121282   3.957   3.549   1.400
 7106TIP3    H221283   4.034   3.632   1.501
 7107TIP3   OH221284  -0.013   3.962   2.999
 7107TIP3    H121285  -0.012   3.908   2.920
 7107TIP3    H221286   0.040   3.913   3.063
 7108TIP3   OH221287   1.584   0.356   2.605
 7108TIP3    H121288   1.509   0.313   2.646
 7108TIP3    H221289   1.636   0.284   2.569
 7109TIP3   OH221290   0.091   5.872   4.548
 7109TIP3    H121291   0.139   5.891   4.629
 7109TIP3    H221292   0.011   5.827   4.578
 7110TIP3   OH221293   4.163   3.907   0.717
 7110TIP3    H121294   4.218   3.985   0.720
 7110TIP3    H221295   4.096   3.922   0.783
 7111TIP3   OH221296   2.745   0.461   0.041
 7111TIP3    H121297   2.717   0.469  -0.050
 7111TIP3    H221298   2.802   0.536   0.056
 7112TIP3   OH221299   4.938   5.356   2.322
 7112TIP3    H121300   5.006   5.420   2.343
 7112TIP3    H221301   4.982   5.289   2.270
 7113TIP3   OH221302   1.189   5.398   3.469
 7113TIP3    H121303   1.267   5.361   3.428
 7113TIP3    H221304   1.220   5.429   3.555
 7114TIP3   OH221305   0.628   4.384   1.691
 7114TIP3    H121306   0.534   4.402   1.685
 7114TIP3    H221307   0.642   4.361   1.783
 7115TIP3   OH221308   2.751   4.196   5.782
 7115TIP3    H121309   2.744   4.282   5.740
 7115TIP3    H221310   2.843   4.174   5.776
 7116TIP3   OH221311   1.986   5.333   5.683
 7116TIP3    H121312   2.023   5.254   5.722
 7116TIP3    H221313   2.061   5.382   5.652
 7117TIP3   OH221314   0.431   3.453   3.307
 7117TIP3    H121315   0.417   3.451   3.402
 7117TIP3    H221316   0.495   3.522   3.294
 7118TIP3   OH221317   4.290   1.837   4.406
 7118TIP3    H121318   4.288   1.763   4.467
 7118TIP3    H221319   4.224   1.897   4.440
 7119TIP3   OH221320   3.025   0.944   5.062
 7119TIP3    H121321   3.036   1.010   5.131
 7119TIP3    H221322   3.021   0.995   4.981
 7120TIP3   OH221323   2.582   2.951   1.758
 7120TIP3    H121324   2.616   2.969   1.670
 7120TIP3    H221325   2.628   2.872   1.785
 7121TIP3   OH221326   5.590   3.358   1.720
 7121TIP3    H121327   5.503   3.396   1.708
 7121TIP3    H221328   5.591   3.283   1.661
 7122TIP3   OH221329   6.254   4.805   4.207
 7122TIP3    H121330   6.287   4.893   4.225
 7122TIP3    H221331   6.212   4.812   4.121
 7123TIP3   OH221332   4.329   5.115   3.714
 7123TIP3    H121333   4.416   5.153   3.705
 7123TIP3    H221334   4.269   5.190   3.711
 7124TIP3   OH221335   4.042   0.289   4.413
 7124TIP3    H121336   4.097   0.334   4.476
 7124TIP3    H221337   4.026   0.203   4.451
 7125TIP3   OH221338   4.201   6.344   5.416
 7125TIP3    H121339   4.239   6.417   5.368
 7125TIP3    H221340   4.107   6.357   5.408
 7126TIP3   OH221341   7.046   1.594   0.374
 7126TIP3    H121342   6.961   1.637   0.375
 7126TIP3    H221343   7.026   1.500   0.378
 7127TIP3   OH221344   2.200   6.070   1.098
 7127TIP3    H121345   2.235   6.133   1.161
 7127TIP3    H221346   2.276   6.023   1.066
 7128TIP3   OH221347   5.647   0.844   5.278
 7128TIP3    H121348   5.564   0.843   5.231
 7128TIP3    H221349   5.674   0.936   5.278
 7129TIP3   OH221350   3.673   0.804   1.759
 7129TIP3    H121351   3.612   0.860   1.809
 7129TIP3    H221352   3.648   0.715   1.782
 7130TIP3   OH221353   2.175   4.514   0.343
 7130TIP3    H121354   2.161   4.607   0.331
 7130TIP3    H221355   2.224   4.486   0.265
 7131TIP3   OH221356   5.444   1.268   1.314
 7131TIP3    H121357   5.510   1.329   1.281
 7131TIP3    H221358   5.495   1.199   1.356
 7132TIP3   OH221359   4.401   5.857   2.678
 7132TIP3    H121360   4.447   5.896   2.753
 7132TIP3    H221361   4.378   5.769   2.707
 7133TIP3   OH221362   5.749   3.563   5.330
 7133TIP3    H121363   5.777   3.473   5.345
 7133TIP3    H221364   5.785   3.612   5.404
 7134TIP3   OH221365   0.850   3.556   0.877
 7134TIP3    H121366   0.821   3.477   0.923
 7134TIP3    H221367   0.851   3.624   0.944
 7135TIP3   OH221368   4.148   4.626   1.860
 7135TIP3    H121369   4.133   4.557   1.924
 7135TIP3    H221370   4.107   4.703   1.898
 7136TIP3   OH221371   1.833   1.516   1.883
 7136TIP3    H121372   1.900   1.534   1.817
 7136TIP3    H221373   1.755   1.562   1.852
 7137TIP3   OH221374   1.068   6.095   4.666
 7137TIP3    H121375   1.143   6.139   4.706
 7137TIP3    H221376   1.048   6.146   4.588
 7138TIP3   OH221377   3.071   2.630   1.996
 7138TIP3    H121378   3.086   2.542   1.961
 7138TIP3    H221379   3.158   2.665   2.009
 7139TIP3   OH221380   0.271   4.184   0.167
 7139TIP3    H121381   0.345   4.171   0.227
 7139TIP3    H221382   0.228   4.263   0.199
 7140TIP3   OH221383   4.732   0.615   2.951
 7140TIP3    H121384   4.709   0.547   2.887
 7140TIP3    H221385   4.650   0.636   2.994
 7141TIP3   OH221386   2.914   6.280   5.004
 7141TIP3    H121387   2.859   6.331   5.064
 7141TIP3    H221388   2.852   6.220   4.961
 7142TIP3   OH221389   6.909   4.192   4.426
 7142TIP3    H121390   6.965   4.120   4.395
 7142TIP3    H221391   6.927   4.264   4.367
 7143TIP3   OH221392   3.044   0.225   1.315
 7143TIP3    H121393   3.135   0.198   1.330
 7143TIP3    H221394   3.037   0.233   1.220
 7144TIP3   OH221395   3.579   3.268   3.991
 7144TIP3    H121396   3.538   3.197   4.041
 7144TIP3    H221397   3.658   3.289   4.040
 7145TIP3   OH221398   3.070   5.729   3.424
 7145TIP3    H121399   3.019   5.722   3.505
 7145TIP3    H221400   3.004   5.749   3.357
 7146TIP3   OH221401   3.729   1.837   4.998
 7146TIP3    H121402   3.797   1.783   5.038
 7146TIP3    H221403   3.712   1.795   4.914
 7147TIP3   OH221404   4.270   3.163   0.776
 7147TIP3    H121405   4.272   3.192   0.685
 7147TIP3    H221406   4.259   3.244   0.826
 7148TIP3   OH221407   6.354   0.040   1.388
 7148TIP3    H121408   6.418   0.024   1.319
 7148TIP3    H221409   6.269   0.039   1.343
 7149TIP3   OH221410   6.525   4.730   5.656
 7149TIP3    H121411   6.542   4.820   5.681
 7149TIP3    H221412   6.575   4.677   5.719
 7150TIP3   OH221413   0.984   6.012   3.042
 7150TIP3    H121414   0.902   6.055   3.066
 7150TIP3    H221415   1.038   6.018   3.122
 7151TIP3   OH221416   6.172   0.905   1.295
 7151TIP3    H121417   6.217   0.908   1.211
 7151TIP3    H221418   6.200   0.822   1.334
 7152TIP3   OH221419   2.565   4.151   0.916
 7152TIP3    H121420   2.590   4.237   0.950
 7152TIP3    H221421   2.488   4.168   0.862
 7153TIP3   OH221422   5.575   1.675   3.526
 7153TIP3    H121423   5.535   1.748   3.574
 7153TIP3    H221424   5.648   1.715   3.479
 7154TIP3   OH221425   4.902   2.649   3.906
 7154TIP3    H121426   4.838   2.586   3.874
 7154TIP3    H221427   4.954   2.672   3.829
 7155TIP3   OH221428   2.531   3.151   3.555
 7155TIP3    H121429   2.456   3.211   3.560
 7155TIP3    H221430   2.607   3.209   3.550
 7156TIP3   OH221431   1.913   1.510   4.655
 7156TIP3    H121432   1.864   1.544   4.730
 7156TIP3    H221433   1.846   1.475   4.597
 7157TIP3   OH221434   1.602   4.562   1.323
 7157TIP3    H121435   1.546   4.586   1.249
 7157TIP3    H221436   1.540   4.542   1.394
 7158TIP3   OH221437   6.409   5.682   1.533
 7158TIP3    H121438   6.391   5.615   1.468
 7158TIP3    H221439   6.365   5.651   1.613
 7159TIP3   OH221440   6.537   4.612   1.207
 7159TIP3    H121441   6.491   4.685   1.249
 7159TIP3    H221442   6.497   4.604   1.120
 7160TIP3   OH221443   5.581   6.032   1.862
 7160TIP3    H121444   5.666   5.987   1.862
 7160TIP3    H221445   5.528   5.983   1.799
 7161TIP3   OH221446   1.403   4.683   0.835
 7161TIP3    H121447   1.327   4.633   0.806
 7161TIP3    H221448   1.373   4.774   0.838
 7162TIP3   OH221449   1.042   1.363   5.291
 7162TIP3    H121450   0.965   1.362   5.235
 7162TIP3    H221451   1.052   1.455   5.317
 7163TIP3   OH221452   4.963   1.778   1.426
 7163TIP3    H121453   4.878   1.734   1.423
 7163TIP3    H221454   5.007   1.752   1.345
 7164TIP3   OH221455   6.330   2.531   0.828
 7164TIP3    H121456   6.356   2.614   0.789
 7164TIP3    H221457   6.322   2.471   0.753
 7165TIP3   OH221458   2.367   4.251   0.754
 7165TIP3    H121459   2.422   4.317   0.711
 7165TIP3    H221460   2.340   4.193   0.684
 7166TIP3   OH221461   2.235   4.892   2.674
 7166TIP3    H121462   2.262   4.853   2.757
 7166TIP3    H221463   2.296   4.857   2.610
 7167TIP3   OH221464   3.092   6.162   4.402
 7167TIP3    H121465   3.035   6.218   4.350
 7167TIP3    H221466   3.039   6.086   4.424
 7168TIP3   OH221467   7.171   6.756   0.268
 7168TIP3    H121468   7.081   6.725   0.276
 7168TIP3    H221469   7.214   6.727   0.348
 7169TIP3   OH221470   5.903   3.560   2.662
 7169TIP3    H121471   5.833   3.584   2.723
 7169TIP3    H221472   5.879   3.473   2.630
 7170TIP3   OH221473   5.897   2.618   0.240
 7170TIP3    H121474   5.952   2.634   0.163
 7170TIP3    H221475   5.934   2.539   0.280
 7171TIP3   OH221476   0.435   2.665   3.172
 7171TIP3    H121477   0.501   2.671   3.103
 7171TIP3    H221478   0.375   2.597   3.142
 7172TIP3   OH221479   0.526   2.238   3.381
 7172TIP3    H121480   0.616   2.208   3.396
 7172TIP3    H221481   0.518   2.242   3.285
 7173TIP3   OH221482   1.361   0.704   5.314
 7173TIP3    H121483   1.376   0.610   5.306
 7173TIP3    H221484   1.366   0.737   5.224
 7174TIP3   OH221485   4.867   2.818   4.974
 7174TIP3    H121486   4.885   2.901   5.018
 7174TIP3    H221487   4.939   2.807   4.912
 7175TIP3   OH221488   5.110   0.214   2.699
 7175TIP3    H121489   5.082   0.144   2.759
 7175TIP3    H221490   5.204   0.201   2.691
 7176TIP3   OH221491   1.300   4.234   3.945
 7176TIP3    H121492   1.382   4.198   3.911
 7176TIP3    H221493   1.282   4.182   4.023
 7177TIP3   OH221494   4.400   2.242   0.891
 7177TIP3    H121495   4.454   2.266   0.816
 7177TIP3    H221496   4.397   2.146   0.887
 7178TIP3   OH221497   4.840   5.944   3.896
 7178TIP3    H121498   4.856   5.978   3.984
 7178TIP3    H221499   4.919   5.967   3.847
 7179TIP3   OH221500   6.122   5.588   2.745
 7179TIP3    H121501   6.179   5.522   2.784
 7179TIP3    H221502   6.109   5.559   2.655
 7180TIP3   OH221503   4.654   5.716   5.280
 7180TIP3    H121504   4.718   5.787   5.276
 7180TIP3    H221505   4.592   5.743   5.347
 7181TIP3   OH221506   2.533   0.587   1.353
 7181TIP3    H121507   2.613   0.570   1.402
 7181TIP3    H221508   2.556   0.571   1.261
 7182TIP3   OH221509   1.284   5.652   5.517
 7182TIP3    H121510   1.292   5.733   5.466
 7182TIP3    H221511   1.190   5.640   5.529
 7183TIP3   OH221512   0.920   0.683   5.834
 7183TIP3    H121513   0.849   0.731   5.876
 7183TIP3    H221514   0.988   0.676   5.901
 7184TIP3   OH221515   0.044   0.385   2.085
 7184TIP3    H121516  -0.042   0.427   2.093
 7184TIP3    H221517   0.081   0.391   2.173
 7185TIP3   OH221518   5.763   4.208   3.473
 7185TIP3    H121519   5.700   4.136   3.470
 7185TIP3    H221520   5.740   4.263   3.399
 7186TIP3   OH221521   2.569   5.915   3.822
 7186TIP3    H121522   2.541   6.006   3.823
 7186TIP3    H221523   2.488   5.865   3.812
 7187TIP3   OH221524   2.599   3.580   1.926
 7187TIP3    H121525   2.529   3.605   1.987
 7187TIP3    H221526   2.562   3.508   1.875
 7188TIP3   OH221527   0.631   3.458   1.305
 7188TIP3    H121528   0.645   3.531   1.244
 7188TIP3    H221529   0.684   3.387   1.269
 7189TIP3   OH221530   4.890   6.076   0.124
 7189TIP3    H121531   4.905   6.058   0.031
 7189TIP3    H221532   4.932   6.161   0.139
 7190TIP3   OH221533   2.069   1.611   5.022
 7190TIP3    H121534   2.073   1.701   4.989
 7190TIP3    H221535   1.991   1.609   5.078
 7191TIP3   OH221536   2.721   0.647   4.559
 7191TIP3    H121537   2.628   0.642   4.539
 7191TIP3    H221538   2.763   0.664   4.475
 7192TIP3   OH221539   1.887   3.588   0.836
 7192TIP3    H121540   1.866   3.532   0.761
 7192TIP3    H221541   1.816   3.652   0.839
 7193TIP3   OH221542   1.426   5.247   2.076
 7193TIP3    H121543   1.420   5.199   2.159
 7193TIP3    H221544   1.369   5.199   2.016
 7194TIP3   OH221545   6.873   2.831   4.815
 7194TIP3    H121546   6.926   2.854   4.739
 7194TIP3    H221547   6.932   2.842   4.890
 7195TIP3   OH221548   6.579   2.111   0.465
 7195TIP3    H121549   6.655   2.146   0.512
 7195TIP3    H221550   6.582   2.155   0.380
 7196TIP3   OH221551   2.174   3.695   1.365
 7196TIP3    H121552   2.234   3.767   1.350
 7196TIP3    H221553   2.172   3.647   1.282
 7197TIP3   OH221554   6.211   6.417   1.502
 7197TIP3    H121555   6.180   6.359   1.433
 7197TIP3    H221556   6.154   6.398   1.577
 7198TIP3   OH221557   5.016   1.957   5.841
 7198TIP3    H121558   5.068   1.877   5.845
 7198TIP3    H221559   4.937   1.937   5.891
 7199TIP3   OH221560   6.218   0.765   2.023
 7199TIP3    H121561   6.155   0.790   1.956
 7199TIP3    H221562   6.166   0.755   2.103
 7200TIP3   OH221563   4.482   5.886   2.952
 7200TIP3    H121564   4.498   5.960   3.010
 7200TIP3    H221565   4.500   5.809   3.005
 7201TIP3   OH221566   2.039   2.805   4.697
 7201TIP3    H121567   2.100   2.824   4.769
 7201TIP3    H221568   2.000   2.890   4.675
 7202TIP3   OH221569   5.535   2.346   5.856
 7202TIP3    H121570   5.474   2.415   5.828
 7202TIP3    H221571   5.482   2.266   5.856
 7203TIP3   OH221572   2.697   1.813   2.000
 7203TIP3    H121573   2.648   1.733   1.981
 7203TIP3    H221574   2.788   1.785   2.007
 7204TIP3   OH221575   3.604   6.269   3.606
 7204TIP3    H121576   3.588   6.282   3.513
 7204TIP3    H221577   3.657   6.345   3.632
 7205TIP3   OH221578   3.125   1.735   2.251
 7205TIP3    H121579   3.198   1.690   2.209
 7205TIP3    H221580   3.141   1.725   2.345
 7206TIP3   OH221581   3.905   5.130   2.997
 7206TIP3    H121582   3.935   5.041   2.979
 7206TIP3    H221583   3.823   5.139   2.948
 7207TIP3   OH221584   2.887   5.612   0.854
 7207TIP3    H121585   2.821   5.674   0.887
 7207TIP3    H221586   2.901   5.638   0.763
 7208TIP3   OH221587   6.406   2.142   2.838
 7208TIP3    H121588   6.330   2.103   2.795
 7208TIP3    H221589   6.480   2.088   2.809
 7209TIP3   OH221590   6.028   6.599   0.383
 7209TIP3    H121591   5.949   6.563   0.424
 7209TIP3    H221592   6.003   6.688   0.358
 7210TIP3   OH221593   1.703   2.071   2.837
 7210TIP3    H121594   1.620   2.054   2.880
 7210TIP3    H221595   1.753   2.124   2.899
 7211TIP3   OH221596   5.646   2.210   0.623
 7211TIP3    H121597   5.585   2.262   0.571
 7211TIP3    H221598   5.727   2.262   0.623
 7212TIP3   OH221599   0.520   5.046   3.889
 7212TIP3    H121600   0.514   5.000   3.973
 7212TIP3    H221601   0.541   4.978   3.825
 7213TIP3   OH221602   2.086   2.282   0.629
 7213TIP3    H121603   2.106   2.219   0.560
 7213TIP3    H221604   2.091   2.367   0.585
 7214TIP3   OH221605   1.676   1.598   0.845
 7214TIP3    H121606   1.634   1.617   0.929
 7214TIP3    H221607   1.769   1.587   0.867
 7215TIP3   OH221608   1.549   3.887   2.818
 7215TIP3    H121609   1.617   3.859   2.878
 7215TIP3    H221610   1.537   3.980   2.835
 7216TIP3   OH221611   1.014   0.457   5.470
 7216TIP3    H121612   0.923   0.461   5.499
 7216TIP3    H221613   1.021   0.524   5.402
 7217TIP3   OH221614   0.986   6.499   4.351
 7217TIP3    H121615   1.009   6.500   4.258
 7217TIP3    H221616   1.043   6.565   4.390
 7218TIP3   OH221617   1.894   3.523   2.389
 7218TIP3    H121618   1.810   3.510   2.345
 7218TIP3    H221619   1.871   3.557   2.475
 7219TIP3   OH221620   3.058   4.587   3.355
 7219TIP3    H121621   3.085   4.504   3.317
 7219TIP3    H221622   3.096   4.587   3.443
 7220TIP3   OH221623   0.909   2.779   4.060
 7220TIP3    H121624   0.819   2.746   4.067
 7220TIP3    H221625   0.911   2.854   4.120
 7221TIP3   OH221626   6.154   5.815   3.551
 7221TIP3    H121627   6.069   5.849   3.522
 7221TIP3    H221628   6.138   5.782   3.640
 7222TIP3   OH221629   1.929   3.045   2.406
 7222TIP3    H121630   1.974   3.115   2.452
 7222TIP3    H221631   1.842   3.042   2.444
 7223TIP3   OH221632   0.704   0.301   3.773
 7223TIP3    H121633   0.614   0.330   3.788
 7223TIP3    H221634   0.722   0.240   3.844
 7224TIP3   OH221635   0.675   1.620   3.030
 7224TIP3    H121636   0.630   1.703   3.047
 7224TIP3    H221637   0.606   1.562   2.997
 7225TIP3   OH221638   2.798   2.517   4.797
 7225TIP3    H121639   2.860   2.461   4.750
 7225TIP3    H221640   2.827   2.606   4.778
 7226TIP3   OH221641   2.754   0.054   0.103
 7226TIP3    H121642   2.708  -0.009   0.159
 7226TIP3    H221643   2.740   0.022   0.014
 7227TIP3   OH221644   3.116   6.521   3.142
 7227TIP3    H121645   3.043   6.537   3.202
 7227TIP3    H221646   3.124   6.425   3.139
 7228TIP3   OH221647   1.188   4.664   3.865
 7228TIP3    H121648   1.236   4.724   3.922
 7228TIP3    H221649   1.146   4.602   3.926
 7229TIP3   OH221650   0.350   4.396   4.203
 7229TIP3    H121651   0.386   4.407   4.115
 7229TIP3    H221652   0.346   4.484   4.239
 7230TIP3   OH221653   5.436   2.881   1.552
 7230TIP3    H121654   5.445   2.909   1.643
 7230TIP3    H221655   5.371   2.811   1.554
 7231TIP3   OH221656   5.297   3.022   4.458
 7231TIP3    H121657   5.339   2.937   4.471
 7231TIP3    H221658   5.225   3.005   4.397
 7232TIP3   OH221659   3.297   3.343   0.142
 7232TIP3    H121660   3.310   3.373   0.232
 7232TIP3    H221661   3.219   3.389   0.112
 7233TIP3   OH221662   4.925   1.331   5.421
 7233TIP3    H121663   4.989   1.351   5.489
 7233TIP3    H221664   4.840   1.352   5.460
 7234TIP3   OH221665   0.015   3.651   3.749
 7234TIP3    H121666  -0.075   3.664   3.718
 7234TIP3    H221667   0.070   3.687   3.680
 7235TIP3   OH221668   0.283   2.918   2.896
 7235TIP3    H121669   0.211   2.870   2.936
 7235TIP3    H221670   0.345   2.850   2.869
 7236TIP3   OH221671   4.822   5.557   1.251
 7236TIP3    H121672   4.779   5.560   1.336
 7236TIP3    H221673   4.838   5.464   1.236
 7237TIP3   OH221674   3.620   2.418   3.444
 7237TIP3    H121675   3.590   2.334   3.410
 7237TIP3    H221676   3.704   2.432   3.400
 7238TIP3   OH221677   3.593   1.382   2.781
 7238TIP3    H121678   3.606   1.345   2.694
 7238TIP3    H221679   3.621   1.312   2.841
 7239TIP3   OH221680   4.228   6.499   2.050
 7239TIP3    H121681   4.261   6.586   2.072
 7239TIP3    H221682   4.288   6.467   1.983
 7240TIP3   OH221683   5.027   3.179   5.573
 7240TIP3    H121684   4.937   3.202   5.550
 7240TIP3    H221685   5.079   3.204   5.497
 7241TIP3   OH221686   6.235   3.798   0.267
 7241TIP3    H121687   6.326   3.827   0.265
 7241TIP3    H221688   6.230   3.741   0.343
 7242TIP3   OH221689   4.157   3.546   5.891
 7242TIP3    H121690   4.193   3.509   5.811
 7242TIP3    H221691   4.182   3.484   5.959
 7243TIP3   OH221692   0.161   3.594   0.931
 7243TIP3    H121693   0.151   3.523   0.868
 7243TIP3    H221694   0.196   3.552   1.010
 7244TIP3   OH221695   2.407   2.673   5.727
 7244TIP3    H121696   2.489   2.658   5.679
 7244TIP3    H221697   2.346   2.609   5.691
 7245TIP3   OH221698   4.917   6.216   0.820
 7245TIP3    H121699   4.859   6.232   0.746
 7245TIP3    H221700   4.965   6.298   0.832
 7246TIP3   OH221701   4.883   6.627   0.261
 7246TIP3    H121702   4.899   6.673   0.178
 7246TIP3    H221703   4.962   6.645   0.313
 7247TIP3   OH221704   0.954   0.745   1.876
 7247TIP3    H121705   1.027   0.805   1.858
 7247TIP3    H221706   0.926   0.768   1.965
 7248TIP3   OH221707   1.805   3.880   0.410
 7248TIP3    H121708   1.853   3.874   0.493
 7248TIP3    H221709   1.772   3.970   0.409
 7249TIP3   OH221710   4.974   4.501   4.426
 7249TIP3    H121711   5.049   4.531   4.477
 7249TIP3    H221712   4.963   4.409   4.451
 7250TIP3   OH221713   1.497   4.770   5.097
 7250TIP3    H121714   1.411   4.808   5.119
 7250TIP3    H221715   1.539   4.755   5.182
 7251TIP3   OH221716   0.958   2.278   1.302
 7251TIP3    H121717   0.994   2.315   1.383
 7251TIP3    H221718   1.028   2.290   1.238
 7252TIP3   OH221719   4.286   4.344   0.052
 7252TIP3    H121720   4.312   4.256   0.077
 7252TIP3    H221721   4.229   4.374   0.123
 7253TIP3   OH221722   5.176   2.703   0.452
 7253TIP3    H121723   5.134   2.706   0.366
 7253TIP3    H221724   5.267   2.681   0.433
 7254TIP3   OH221725   2.221   4.567   1.752
 7254TIP3    H121726   2.286   4.637   1.748
 7254TIP3    H221727   2.253   4.508   1.820
 7255TIP3   OH221728   5.736   3.861   0.857
 7255TIP3    H121729   5.647   3.894   0.873
 7255TIP3    H221730   5.738   3.775   0.898
 7256TIP3   OH221731   0.208   2.095   0.661
 7256TIP3    H121732   0.220   2.025   0.598
 7256TIP3    H221733   0.248   2.062   0.742
 7257TIP3   OH221734   0.134   4.935   4.713
 7257TIP3    H121735   0.184   4.915   4.634
 7257TIP3    H221736   0.134   5.031   4.717
 7258TIP3   OH221737   1.982  -0.029   4.704
 7258TIP3    H121738   2.064  -0.020   4.754
 7258TIP3    H221739   1.926   0.041   4.737
 7259TIP3   OH221740   3.057   6.266   2.221
 7259TIP3    H121741   3.014   6.325   2.159
 7259TIP3    H221742   3.146   6.300   2.230
 7260TIP3   OH221743   3.727   0.104   1.535
 7260TIP3    H121744   3.647   0.093   1.588
 7260TIP3    H221745   3.790   0.043   1.574
 7261TIP3   OH221746   2.522   3.723   3.557
 7261TIP3    H121747   2.519   3.644   3.503
 7261TIP3    H221748   2.602   3.767   3.529
 7262TIP3   OH221749   2.861   5.714   4.565
 7262TIP3    H121750   2.927   5.690   4.630
 7262TIP3    H221751   2.866   5.643   4.500
 7263TIP3   OH221752   2.636   4.428   2.196
 7263TIP3    H121753   2.709   4.409   2.255
 7263TIP3    H221754   2.599   4.511   2.229
 7264TIP3   OH221755   2.656   4.584   3.060
 7264TIP3    H121756   2.594   4.512   3.073
 7264TIP3    H221757   2.741   4.541   3.054
 7265TIP3   OH221758   6.636   3.112   1.541
 7265TIP3    H121759   6.618   3.035   1.595
 7265TIP3    H221760   6.732   3.114   1.533
 7266TIP3   OH221761   0.737   6.097   1.198
 7266TIP3    H121762   0.689   6.142   1.129
 7266TIP3    H221763   0.829   6.112   1.179
 7267TIP3   OH221764   1.104   1.332   5.559
 7267TIP3    H121765   1.108   1.428   5.556
 7267TIP3    H221766   1.063   1.308   5.476
 7268TIP3   OH221767   3.381   1.008   5.409
 7268TIP3    H121768   3.431   1.073   5.458
 7268TIP3    H221769   3.338   1.059   5.340
 7269TIP3   OH221770   6.927   3.214   2.008
 7269TIP3    H121771   6.952   3.214   2.100
 7269TIP3    H221772   6.847   3.266   2.005
 7270TIP3   OH221773   3.278   3.194   1.988
 7270TIP3    H121774   3.344   3.199   1.919
 7270TIP3    H221775   3.194   3.193   1.941
 7271TIP3   OH221776   1.654   5.735   2.890
 7271TIP3    H121777   1.589   5.704   2.827
 7271TIP3    H221778   1.733   5.685   2.870
 7272TIP3   OH221779   3.610   1.205   4.281
 7272TIP3    H121780   3.518   1.228   4.264
 7272TIP3    H221781   3.659   1.283   4.257
 7273TIP3   OH221782   1.440   1.894   5.367
 7273TIP3    H121783   1.411   1.877   5.278
 7273TIP3    H221784   1.525   1.849   5.374
 7274TIP3   OH221785   2.531   4.792   4.588
 7274TIP3    H121786   2.483   4.874   4.601
 7274TIP3    H221787   2.508   4.739   4.665
 7275TIP3   OH221788   5.317   1.983   5.186
 7275TIP3    H121789   5.346   1.970   5.276
 7275TIP3    H221790   5.239   2.037   5.193
 7276TIP3   OH221791   1.996   6.124   5.660
 7276TIP3    H121792   1.944   6.060   5.707
 7276TIP3    H221793   2.082   6.122   5.702
 7277TIP3   OH221794   5.396   1.090   3.231
 7277TIP3    H121795   5.488   1.066   3.244
 7277TIP3    H221796   5.350   1.047   3.303
 7278TIP3   OH221797   5.509   1.769   1.082
 7278TIP3    H121798   5.582   1.752   1.142
 7278TIP3    H221799   5.463   1.844   1.120
 7279TIP3   OH221800   5.167   0.846   1.749
 7279TIP3    H121801   5.236   0.849   1.815
 7279TIP3    H221802   5.131   0.758   1.756
 7280TIP3   OH221803   5.447   6.604   0.451
 7280TIP3    H121804   5.368   6.576   0.496
 7280TIP3    H221805   5.508   6.531   0.462
 7281TIP3   OH221806   1.668   3.702   3.859
 7281TIP3    H121807   1.745   3.757   3.875
 7281TIP3    H221808   1.594   3.762   3.867
 7282TIP3   OH221809   0.312   0.302   0.257
 7282TIP3    H121810   0.269   0.376   0.299
 7282TIP3    H221811   0.405   0.325   0.257
 7283TIP3   OH221812   4.615   5.193   1.789
 7283TIP3    H121813   4.644   5.172   1.700
 7283TIP3    H221814   4.630   5.113   1.838
 7284TIP3   OH221815   1.537   3.332   2.487
 7284TIP3    H121816   1.454   3.305   2.447
 7284TIP3    H221817   1.582   3.380   2.418
 7285TIP3   OH221818   3.675   2.177   2.140
 7285TIP3    H121819   3.750   2.236   2.134
 7285TIP3    H221820   3.714   2.090   2.146
 7286TIP3   OH221821   4.030   5.421   0.059
 7286TIP3    H121822   4.075   5.496   0.019
 7286TIP3    H221823   4.096   5.381   0.115
 7287TIP3   OH221824   4.613   3.442   0.690
 7287TIP3    H121825   4.661   3.435   0.772
 7287TIP3    H221826   4.678   3.470   0.625
 7288TIP3   OH221827   5.431   2.494   1.770
 7288TIP3    H121828   5.417   2.588   1.784
 7288TIP3    H221829   5.507   2.489   1.713
 7289TIP3   OH221830   2.000   1.392   0.479
 7289TIP3    H121831   2.033   1.401   0.389
 7289TIP3    H221832   1.936   1.463   0.487
 7290TIP3   OH221833   5.194   6.577   2.931
 7290TIP3    H121834   5.238   6.588   2.846
 7290TIP3    H221835   5.265   6.564   2.993
 7291TIP3   OH221836   0.886   4.198   0.736
 7291TIP3    H121837   0.880   4.182   0.642
 7291TIP3    H221838   0.941   4.127   0.769
 7292TIP3   OH221839   1.803   1.237   0.263
 7292TIP3    H121840   1.881   1.283   0.232
 7292TIP3    H221841   1.814   1.231   0.358
 7293TIP3   OH221842   3.070   1.632   4.096
 7293TIP3    H121843   3.063   1.723   4.068
 7293TIP3    H221844   3.018   1.628   4.176
 7294TIP3   OH221845   1.683   3.886   5.481
 7294TIP3    H121846   1.595   3.922   5.486
 7294TIP3    H221847   1.740   3.961   5.468
 7295TIP3   OH221848   5.666   4.934   2.064
 7295TIP3    H121849   5.736   4.927   1.999
 7295TIP3    H221850   5.711   4.942   2.147
 7296TIP3   OH221851   2.883   1.241   0.734
 7296TIP3    H121852   2.938   1.264   0.809
 7296TIP3    H221853   2.893   1.146   0.726
 7297TIP3   OH221854   1.079   3.273   3.930
 7297TIP3    H121855   1.128   3.200   3.967
 7297TIP3    H221856   1.108   3.277   3.838
 7298TIP3   OH221857   2.557   6.474   1.704
 7298TIP3    H121858   2.518   6.528   1.772
 7298TIP3    H221859   2.486   6.417   1.674
 7299TIP3   OH221860   6.657   3.468   1.218
 7299TIP3    H121861   6.605   3.520   1.279
 7299TIP3    H221862   6.657   3.379   1.254
 7300TIP3   OH221863   4.918   5.736   4.120
 7300TIP3    H121864   4.832   5.702   4.143
 7300TIP3    H221865   4.980   5.670   4.151
 7301TIP3   OH221866   1.119   1.876   1.841
 7301TIP3    H121867   1.213   1.886   1.853
 7301TIP3    H221868   1.107   1.880   1.746
 7302TIP3   OH221869   0.010   2.696   5.051
 7302TIP3    H121870   0.103   2.675   5.058
 7302TIP3    H221871  -0.029   2.659   5.130
 7303TIP3   OH221872   1.264   1.985   0.006
 7303TIP3    H121873   1.169   1.986  -0.006
 7303TIP3    H221874   1.278   1.946   0.092
 7304TIP3   OH221875   2.339   2.679   1.526
 7304TIP3    H121876   2.409   2.618   1.504
 7304TIP3    H221877   2.364   2.761   1.483
 7305TIP3   OH221878   1.466   6.675   5.076
 7305TIP3    H121879   1.544   6.714   5.115
 7305TIP3    H221880   1.424   6.747   5.029
 7306TIP3   OH221881   1.602   2.640   1.423
 7306TIP3    H121882   1.689   2.675   1.403
 7306TIP3    H221883   1.544   2.683   1.360
 7307TIP3   OH221884   4.907   1.472   3.499
 7307TIP3    H121885   4.956   1.455   3.419
 7307TIP3    H221886   4.964   1.528   3.552
 7308TIP3   OH221887   6.325   3.477   2.858
 7308TIP3    H121888   6.361   3.524   2.933
 7308TIP3    H221889   6.238   3.447   2.888
 7309TIP3   OH221890   1.823   6.002   5.060
 7309TIP3    H121891   1.761   6.065   5.021
 7309TIP3    H221892   1.843   5.941   4.989
 7310TIP3   OH221893   1.456   6.425   2.339
 7310TIP3    H121894   1.373   6.436   2.385
 7310TIP3    H221895   1.522   6.422   2.408
 7311TIP3   OH221896   2.899   4.053   0.682
 7311TIP3    H121897   2.896   4.000   0.762
 7311TIP3    H221898   2.825   4.022   0.629
 7312TIP3   OH221899   1.095   2.309   3.807
 7312TIP3    H121900   1.180   2.353   3.811
 7312TIP3    H221901   1.032   2.381   3.807
 7313TIP3   OH221902   6.479   1.325   5.243
 7313TIP3    H121903   6.551   1.384   5.263
 7313TIP3    H221904   6.519   1.257   5.188
 7314TIP3   OH221905   5.844   5.129   0.686
 7314TIP3    H121906   5.812   5.219   0.695
 7314TIP3    H221907   5.910   5.120   0.755
 7315TIP3   OH221908   0.888   2.933   4.824
 7315TIP3    H121909   0.885   3.018   4.781
 7315TIP3    H221910   0.915   2.951   4.914
 7316TIP3   OH221911   1.650   0.356   4.833
 7316TIP3    H121912   1.608   0.431   4.790
 7316TIP3    H221913   1.581   0.290   4.839
 7317TIP3   OH221914   4.099   4.733   4.888
 7317TIP3    H121915   4.144   4.669   4.833
 7317TIP3    H221916   4.137   4.817   4.862
 7318TIP3   OH221917   4.762   4.630   2.004
 7318TIP3    H121918   4.718   4.696   2.057
 7318TIP3    H221919   4.711   4.550   2.017
 7319TIP3   OH221920   2.615   1.696   3.748
 7319TIP3    H121921   2.526   1.729   3.732
 7319TIP3    H221922   2.671   1.751   3.692
 7320TIP3   OH221923   1.229   5.009   5.569
 7320TIP3    H121924   1.231   5.099   5.602
 7320TIP3    H221925   1.261   5.016   5.479
 7321TIP3   OH221926   4.844   3.481   3.532
 7321TIP3    H121927   4.930   3.513   3.560
 7321TIP3    H221928   4.864   3.418   3.462
 7322TIP3   OH221929   1.879   5.430   0.426
 7322TIP3    H121930   1.836   5.357   0.383
 7322TIP3    H221931   1.898   5.397   0.514
 7323TIP3   OH221932   6.314   4.399   3.241
 7323TIP3    H121933   6.297   4.493   3.247
 7323TIP3    H221934   6.227   4.360   3.229
 7324TIP3   OH221935   4.692   6.470   4.368
 7324TIP3    H121936   4.758   6.401   4.359
 7324TIP3    H221937   4.628   6.450   4.301
 7325TIP3   OH221938   4.133   4.053   3.017
 7325TIP3    H121939   4.216   4.099   3.025
 7325TIP3    H221940   4.095   4.056   3.104
 7326TIP3   OH221941   6.995   5.177   0.266
 7326TIP3    H121942   6.986   5.169   0.171
 7326TIP3    H221943   6.913   5.217   0.295
 7327TIP3   OH221944   1.413   5.926   3.356
 7327TIP3    H121945   1.425   5.893   3.267
 7327TIP3    H221946   1.331   5.975   3.353
 7328TIP3   OH221947   3.172   0.567   1.767
 7328TIP3    H121948   3.184   0.545   1.675
 7328TIP3    H221949   3.206   0.656   1.775
 7329TIP3   OH221950   1.542   1.843   1.063
 7329TIP3    H121951   1.531   1.807   1.151
 7329TIP3    H221952   1.593   1.923   1.076
 7330TIP3   OH221953   7.029   1.841   2.856
 7330TIP3    H121954   6.982   1.898   2.796
 7330TIP3    H221955   7.060   1.769   2.801
 7331TIP3   OH221956   2.182   4.316   2.518
 7331TIP3    H121957   2.097   4.322   2.474
 7331TIP3    H221958   2.196   4.404   2.553
 7332TIP3   OH221959   0.365   1.817   2.531
 7332TIP3    H121960   0.421   1.758   2.581
 7332TIP3    H221961   0.406   1.823   2.446
 7333TIP3   OH221962   1.575   3.561   0.801
 7333TIP3    H121963   1.622   3.501   0.744
 7333TIP3    H221964   1.608   3.648   0.778
 7334TIP3   OH221965   4.008   0.094   2.963
 7334TIP3    H121966   3.996   0.130   3.051
 7334TIP3    H221967   3.993   0.168   2.904
 7335TIP3   OH221968   0.841   0.111   0.495
 7335TIP3    H121969   0.930   0.146   0.485
 7335TIP3    H221970   0.828   0.059   0.415
 7336TIP3   OH221971   6.178   0.138   3.532
 7336TIP3    H121972   6.249   0.110   3.589
 7336TIP3    H221973   6.181   0.079   3.457
 7337TIP3   OH221974   4.542   4.031   3.635
 7337TIP3    H121975   4.532   3.983   3.553
 7337TIP3    H221976   4.527   4.123   3.611
 7338TIP3   OH221977   3.419   6.245   0.276
 7338TIP3    H121978   3.404   6.164   0.228
 7338TIP3    H221979   3.443   6.216   0.364
 7339TIP3   OH221980   7.036   5.821   3.516
 7339TIP3    H121981   6.968   5.800   3.580
 7339TIP3    H221982   7.006   5.900   3.473
 7340TIP3   OH221983   0.996   3.549   5.492
 7340TIP3    H121984   1.007   3.629   5.544
 7340TIP3    H221985   1.054   3.485   5.534
 7341TIP3   OH221986   3.725   1.436   1.449
 7341TIP3    H121987   3.786   1.424   1.522
 7341TIP3    H221988   3.699   1.347   1.425
 7342TIP3   OH221989   1.312   4.350   5.385
 7342TIP3    H121990   1.347   4.314   5.466
 7342TIP3    H221991   1.382   4.338   5.321
 7343TIP3   OH221992   0.096   0.422   5.025
 7343TIP3    H121993   0.105   0.362   4.950
 7343TIP3    H221994   0.014   0.468   5.009
 7344TIP3   OH221995   0.743   1.104   0.595
 7344TIP3    H121996   0.754   1.154   0.675
 7344TIP3    H221997   0.731   1.014   0.625
 7345TIP3   OH221998   2.999   2.713   1.070
 7345TIP3    H121999   2.949   2.739   1.147
 7345TIP3    H222000   2.984   2.783   1.007
 7346TIP3   OH222001   1.731   3.663   2.555
 7346TIP3    H122002   1.726   3.607   2.633
 7346TIP3    H222003   1.655   3.720   2.562
 7347TIP3   OH222004   1.121   2.255   0.660
 7347TIP3    H122005   1.215   2.267   0.664
 7347TIP3    H222006   1.105   2.173   0.708
 7348TIP3   OH222007   5.698   5.474   4.605
 7348TIP3    H122008   5.632   5.490   4.537
 7348TIP3    H222009   5.659   5.405   4.660
 7349TIP3   OH222010   2.935   0.469   2.207
 7349TIP3    H122011   2.953   0.430   2.122
 7349TIP3    H222012   3.021   0.481   2.248
 7350TIP3   OH222013   0.730   2.939   1.234
 7350TIP3    H122014   0.733   2.882   1.311
 7350TIP3    H222015   0.802   3.000   1.245
 7351TIP3   OH222016   1.295   1.786   3.303
 7351TIP3    H122017   1.371   1.731   3.320
 7351TIP3    H222018   1.257   1.801   3.390
 7352TIP3   OH222019   0.781   6.723   1.321
 7352TIP3    H122020   0.869   6.759   1.309
 7352TIP3    H222021   0.733   6.792   1.367
 7353TIP3   OH222022   6.034   4.513   5.337
 7353TIP3    H122023   5.946   4.548   5.347
 7353TIP3    H222024   6.057   4.530   5.246
 7354TIP3   OH222025   6.191   0.640   4.863
 7354TIP3    H122026   6.278   0.607   4.840
 7354TIP3    H222027   6.133   0.603   4.797
 7355TIP3   OH222028   6.045   3.518   0.689
 7355TIP3    H122029   6.003   3.488   0.608
 7355TIP3    H222030   6.034   3.445   0.750
 7356TIP3   OH222031   4.750   0.410   1.711
 7356TIP3    H122032   4.794   0.442   1.790
 7356TIP3    H222033   4.693   0.482   1.685
 7357TIP3   OH222034   6.673   5.507   1.775
 7357TIP3    H122035   6.723   5.464   1.844
 7357TIP3    H222036   6.711   5.473   1.693
 7358TIP3   OH222037   7.179   1.597   0.628
 7358TIP3    H122038   7.136   1.614   0.544
 7358TIP3    H222039   7.263   1.644   0.622
 7359TIP3   OH222040   5.822   4.863   5.062
 7359TIP3    H122041   5.854   4.878   5.151
 7359TIP3    H222042   5.740   4.814   5.074
 7360TIP3   OH222043   6.018   5.740   4.292
 7360TIP3    H122044   6.022   5.691   4.375
 7360TIP3    H222045   5.930   5.723   4.259
 7361TIP3   OH222046   5.971   5.421   5.787
 7361TIP3    H122047   5.927   5.355   5.733
 7361TIP3    H222048   6.021   5.371   5.851
 7362TIP3   OH222049   2.208   4.949   5.455
 7362TIP3    H122050   2.176   5.033   5.421
 7362TIP3    H222051   2.161   4.936   5.537
 7363TIP3   OH222052   3.296   3.019   5.248
 7363TIP3    H122053   3.204   3.015   5.222
 7363TIP3    H222054   3.308   2.945   5.307
 7364TIP3   OH222055   3.380   6.101   4.686
 7364TIP3    H122056   3.367   6.057   4.602
 7364TIP3    H222057   3.378   6.194   4.664
 7365TIP3   OH222058   1.992   2.875   5.826
 7365TIP3    H122059   2.025   2.965   5.822
 7365TIP3    H222060   2.048   2.832   5.890
 7366TIP3   OH222061   1.490   1.386   2.052
 7366TIP3    H122062   1.499   1.361   1.960
 7366TIP3    H222063   1.458   1.306   2.095
 7367TIP3   OH222064   6.116   1.506   3.998
 7367TIP3    H122065   6.144   1.589   3.959
 7367TIP3    H222066   6.038   1.482   3.949
 7368TIP3   OH222067   0.286   6.180   1.832
 7368TIP3    H122068   0.242   6.219   1.757
 7368TIP3    H222069   0.306   6.090   1.804
 7369TIP3   OH222070   5.503   0.688   2.609
 7369TIP3    H122071   5.439   0.660   2.674
 7369TIP3    H222072   5.587   0.689   2.656
 7370TIP3   OH222073   1.436   5.835   3.632
 7370TIP3    H122074   1.421   5.929   3.626
 7370TIP3    H222075   1.431   5.803   3.542
 7371TIP3   OH222076   5.010   5.765   0.705
 7371TIP3    H122077   4.947   5.731   0.769
 7371TIP3    H222078   4.969   5.749   0.620
 7372TIP3   OH222079   6.037   4.166   1.034
 7372TIP3    H122080   6.017   4.074   1.017
 7372TIP3    H222081   6.122   4.164   1.079
 7373TIP3   OH222082   0.558   1.735   0.556
 7373TIP3    H122083   0.558   1.647   0.519
 7373TIP3    H222084   0.626   1.782   0.506
 7374TIP3   OH222085   2.503   1.615   0.242
 7374TIP3    H122086   2.524   1.701   0.205
 7374TIP3    H222087   2.585   1.586   0.282
 7375TIP3   OH222088   2.928   1.972   3.313
 7375TIP3    H122089   2.940   1.883   3.281
 7375TIP3    H222090   2.945   1.967   3.407
 7376TIP3   OH222091   3.375   4.740   4.905
 7376TIP3    H122092   3.398   4.659   4.950
 7376TIP3    H222093   3.455   4.766   4.860
 7377TIP3   OH222094   0.233   1.605   1.321
 7377TIP3    H122095   0.238   1.586   1.415
 7377TIP3    H222096   0.170   1.677   1.315
 7378TIP3   OH222097   5.632   4.359   5.646
 7378TIP3    H122098   5.576   4.335   5.720
 7378TIP3    H222099   5.659   4.449   5.665
 7379TIP3   OH222100   2.045   3.755   1.723
 7379TIP3    H122101   2.076   3.671   1.690
 7379TIP3    H222102   1.952   3.740   1.744
 7380TIP3   OH222103   3.706   1.557   4.581
 7380TIP3    H122104   3.615   1.572   4.556
 7380TIP3    H222105   3.712   1.589   4.671
 7381TIP3   OH222106   0.657   5.939   5.218
 7381TIP3    H122107   0.651   5.877   5.291
 7381TIP3    H222108   0.574   5.986   5.218
 7382TIP3   OH222109   2.641   5.619   3.271
 7382TIP3    H122110   2.620   5.672   3.193
 7382TIP3    H222111   2.557   5.584   3.300
 7383TIP3   OH222112   6.022   2.730   0.846
 7383TIP3    H122113   5.943   2.775   0.874
 7383TIP3    H222114   6.006   2.638   0.867
 7384TIP3   OH222115   1.309   2.889   2.893
 7384TIP3    H122116   1.397   2.861   2.866
 7384TIP3    H222117   1.286   2.959   2.832
 7385TIP3   OH222118   0.918   1.452   5.048
 7385TIP3    H122119   0.847   1.493   5.098
 7385TIP3    H222120   0.907   1.486   4.959
 7386TIP3   OH222121   6.478   6.037   0.256
 7386TIP3    H122122   6.415   6.099   0.292
 7386TIP3    H222123   6.549   6.092   0.224
 7387TIP3   OH222124   3.178   4.897   2.822
 7387TIP3    H122125   3.090   4.908   2.786
 7387TIP3    H222126   3.218   4.983   2.813
 7388TIP3   OH222127   5.780   6.447   2.216
 7388TIP3    H122128   5.824   6.471   2.298
 7388TIP3    H222129   5.721   6.520   2.199
 7389TIP3   OH222130   4.996   4.573   1.251
 7389TIP3    H122131   5.066   4.513   1.225
 7389TIP3    H222132   4.925   4.555   1.191
 7390TIP3   OH222133   5.286   1.117   1.135
 7390TIP3    H122134   5.299   1.180   1.205
 7390TIP3    H222135   5.375   1.094   1.106
 7391TIP3   OH222136   3.662   5.169   1.340
 7391TIP3    H122137   3.670   5.075   1.353
 7391TIP3    H222138   3.569   5.182   1.322
 7392TIP3   OH222139   2.016   2.809   0.924
 7392TIP3    H122140   2.079   2.868   0.882
 7392TIP3    H222141   2.029   2.725   0.881
 7393TIP3   OH222142   3.590   2.726   5.095
 7393TIP3    H122143   3.587   2.739   5.190
 7393TIP3    H222144   3.499   2.725   5.068
 7394TIP3   OH222145   2.141   0.417   2.208
 7394TIP3    H122146   2.148   0.415   2.112
 7394TIP3    H222147   2.211   0.360   2.238
 7395TIP3   OH222148   1.344   6.565   5.703
 7395TIP3    H122149   1.400   6.625   5.751
 7395TIP3    H222150   1.356   6.481   5.748
 7396TIP3   OH222151   6.582   3.143   2.096
 7396TIP3    H122152   6.627   3.099   2.024
 7396TIP3    H222153   6.491   3.115   2.088
 7397TIP3   OH222154   1.970   4.172   1.709
 7397TIP3    H122155   1.952   4.146   1.799
 7397TIP3    H222156   1.977   4.267   1.712
 7398TIP3   OH222157   6.020   5.969   0.851
 7398TIP3    H122158   5.994   5.944   0.762
 7398TIP3    H222159   6.069   5.893   0.883
 7399TIP3   OH222160   6.923   4.764   5.117
 7399TIP3    H122161   6.998   4.754   5.059
 7399TIP3    H222162   6.920   4.858   5.137
 7400TIP3   OH222163   2.397   2.178   0.320
 7400TIP3    H122164   2.463   2.174   0.389
 7400TIP3    H222165   2.348   2.096   0.329
 7401TIP3   OH222166   4.145   2.003   5.424
 7401TIP3    H122167   4.066   1.949   5.420
 7401TIP3    H222168   4.162   2.027   5.333
 7402TIP3   OH222169   3.033   3.027   3.007
 7402TIP3    H122170   3.073   3.104   2.967
 7402TIP3    H222171   3.026   2.964   2.936
 7403TIP3   OH222172   6.986   1.681   2.415
 7403TIP3    H122173   7.030   1.705   2.334
 7403TIP3    H222174   6.924   1.612   2.390
 7404TIP3   OH222175   0.802   1.131   5.568
 7404TIP3    H122176   0.765   1.098   5.487
 7404TIP3    H222177   0.739   1.197   5.599
 7405TIP3   OH222178   6.747   4.808   1.457
 7405TIP3    H122179   6.816   4.785   1.520
 7405TIP3    H222180   6.758   4.745   1.386
 7406TIP3   OH222181   3.489   1.202   2.167
 7406TIP3    H122182   3.520   1.238   2.250
 7406TIP3    H222183   3.479   1.108   2.185
 7407TIP3   OH222184   1.387   0.449   0.845
 7407TIP3    H122185   1.440   0.386   0.894
 7407TIP3    H222186   1.349   0.398   0.774
 7408TIP3   OH222187   0.308   5.365   1.435
 7408TIP3    H122188   0.305   5.430   1.505
 7408TIP3    H222189   0.400   5.361   1.409
 7409TIP3   OH222190   2.768   3.432   5.247
 7409TIP3    H122191   2.680   3.462   5.268
 7409TIP3    H222192   2.772   3.342   5.277
 7410TIP3   OH222193   4.118   1.216   5.611
 7410TIP3    H122194   4.047   1.218   5.675
 7410TIP3    H222195   4.086   1.158   5.542
 7411TIP3   OH222196   0.310   6.143   2.261
 7411TIP3    H122197   0.243   6.153   2.329
 7411TIP3    H222198   0.363   6.222   2.268
 7412TIP3   OH222199   2.238   1.927   3.961
 7412TIP3    H122200   2.197   1.844   3.984
 7412TIP3    H222201   2.286   1.953   4.039
 7413TIP3   OH222202   1.756   2.546   2.641
 7413TIP3    H122203   1.738   2.458   2.608
 7413TIP3    H222204   1.677   2.596   2.619
 7414TIP3   OH222205   6.248   1.156   0.232
 7414TIP3    H122206   6.247   1.215   0.307
 7414TIP3    H222207   6.293   1.205   0.164
 7415TIP3   OH222208   4.658   2.780   4.022
 7415TIP3    H122209   4.741   2.732   4.026
 7415TIP3    H222210   4.630   2.772   3.931
 7416TIP3   OH222211   0.459   4.805   2.629
 7416TIP3    H122212   0.373   4.835   2.659
 7416TIP3    H222213   0.464   4.837   2.538
 7417TIP3   OH222214   2.947   2.413   1.507
 7417TIP3    H122215   2.884   2.409   1.579
 7417TIP3    H222216   2.976   2.504   1.506
 7418TIP3   OH222217   6.010   0.886   3.886
 7418TIP3    H122218   5.978   0.965   3.843
 7418TIP3    H222219   6.084   0.916   3.939
 7419TIP3   OH222220   4.101   1.995   1.064
 7419TIP3    H122221   4.095   1.902   1.083
 7419TIP3    H222222   4.179   2.024   1.112
 7420TIP3   OH222223   2.417   0.604   3.637
 7420TIP3    H122224   2.499   0.630   3.678
 7420TIP3    H222225   2.442   0.539   3.571
 7421TIP3   OH222226   6.042   3.388   1.608
 7421TIP3    H122227   6.065   3.475   1.574
 7421TIP3    H222228   6.029   3.402   1.701
 7422TIP3   OH222229   3.755   5.771   1.535
 7422TIP3    H122230   3.755   5.818   1.618
 7422TIP3    H222231   3.692   5.700   1.547
 7423TIP3   OH222232   0.140   2.307   0.362
 7423TIP3    H122233   0.106   2.351   0.440
 7423TIP3    H222234   0.235   2.314   0.370
 7424TIP3   OH222235   3.489   6.567   3.529
 7424TIP3    H122236   3.497   6.625   3.454
 7424TIP3    H222237   3.417   6.508   3.506
 7425TIP3   OH222238   0.086   3.240   2.789
 7425TIP3    H122239   0.166   3.239   2.842
 7425TIP3    H222240   0.075   3.149   2.761
 7426TIP3   OH222241   6.099   0.174   2.032
 7426TIP3    H122242   6.123   0.109   1.967
 7426TIP3    H222243   6.018   0.141   2.071
 7427TIP3   OH222244   4.319   3.211   2.777
 7427TIP3    H122245   4.339   3.282   2.838
 7427TIP3    H222246   4.309   3.255   2.692
 7428TIP3   OH222247   0.709   5.120   1.109
 7428TIP3    H122248   0.750   5.033   1.110
 7428TIP3    H222249   0.782   5.181   1.100
 7429TIP3   OH222250   1.801   6.144   5.434
 7429TIP3    H122251   1.825   6.236   5.430
 7429TIP3    H222252   1.872   6.102   5.483
 7430TIP3   OH222253   6.932   3.639   3.954
 7430TIP3    H122254   6.931   3.544   3.952
 7430TIP3    H222255   6.960   3.665   3.866
 7431TIP3   OH222256   6.692   5.290   2.742
 7431TIP3    H122257   6.680   5.380   2.771
 7431TIP3    H222258   6.736   5.297   2.658
 7432TIP3   OH222259   3.490   0.945   2.249
 7432TIP3    H122260   3.484   0.946   2.344
 7432TIP3    H222261   3.402   0.923   2.219
 7433TIP3   OH222262   6.991   5.624   5.429
 7433TIP3    H122263   7.043   5.601   5.352
 7433TIP3    H222264   6.950   5.541   5.455
 7434TIP3   OH222265   3.573   3.044   0.191
 7434TIP3    H122266   3.647   3.071   0.245
 7434TIP3    H222267   3.497   3.050   0.249
 7435TIP3   OH222268   0.124   0.432   5.492
 7435TIP3    H122269   0.064   0.497   5.455
 7435TIP3    H222270   0.162   0.476   5.568
 7436TIP3   OH222271   0.599   4.680   3.014
 7436TIP3    H122272   0.682   4.726   3.026
 7436TIP3    H222273   0.532   4.746   3.026
 7437TIP3   OH222274   1.314   2.189   4.645
 7437TIP3    H122275   1.221   2.182   4.668
 7437TIP3    H222276   1.344   2.099   4.641
 7438TIP3   OH222277   0.671   5.146   1.897
 7438TIP3    H122278   0.616   5.201   1.841
 7438TIP3    H222279   0.737   5.206   1.931
 7439TIP3   OH222280   2.972   4.565   0.925
 7439TIP3    H122281   3.044   4.563   0.988
 7439TIP3    H222282   2.993   4.495   0.863
 7440TIP3   OH222283   5.360   3.494   1.724
 7440TIP3    H122284   5.268   3.500   1.699
 7440TIP3    H222285   5.386   3.585   1.741
 7441TIP3   OH222286   6.307   2.181   4.897
 7441TIP3    H122287   6.337   2.095   4.864
 7441TIP3    H222288   6.382   2.239   4.882
 7442TIP3   OH222289   2.704   6.553   5.623
 7442TIP3    H122290   2.748   6.628   5.662
 7442TIP3    H222291   2.678   6.583   5.536
 7443TIP3   OH222292   4.004   0.574   5.307
 7443TIP3    H122293   4.087   0.621   5.318
 7443TIP3    H222294   4.010   0.500   5.367
 7444TIP3   OH222295   4.098   6.093   4.149
 7444TIP3    H122296   4.186   6.059   4.164
 7444TIP3    H222297   4.111   6.176   4.104
 7445TIP3   OH222298   7.135   4.790   4.975
 7445TIP3    H122299   7.175   4.861   5.026
 7445TIP3    H222300   7.125   4.826   4.887
 7446TIP3   OH222301   5.827   3.373   2.950
 7446TIP3    H122302   5.772   3.296   2.967
 7446TIP3    H222303   5.767   3.447   2.956
 7447TIP3   OH222304   4.276   2.151   4.904
 7447TIP3    H122305   4.319   2.233   4.929
 7447TIP3    H222306   4.344   2.101   4.858
 7448TIP3   OH222307   0.078   5.612   1.617
 7448TIP3    H122308  -0.006   5.567   1.609
 7448TIP3    H222309   0.114   5.581   1.700
 7449TIP3   OH222310   2.318   4.001   3.888
 7449TIP3    H122311   2.371   4.080   3.899
 7449TIP3    H222312   2.383   3.930   3.883
 7450TIP3   OH222313   2.196   2.096   2.466
 7450TIP3    H122314   2.199   2.000   2.464
 7450TIP3    H222315   2.105   2.116   2.490
 7451TIP3   OH222316   0.902   5.344   5.587
 7451TIP3    H122317   0.834   5.356   5.521
 7451TIP3    H222318   0.982   5.330   5.537
 7452TIP3   OH222319   6.118   5.676   1.325
 7452TIP3    H122320   6.129   5.744   1.258
 7452TIP3    H222321   6.178   5.607   1.298
 7453TIP3   OH222322   1.400   4.617   4.424
 7453TIP3    H122323   1.367   4.542   4.474
 7453TIP3    H222324   1.495   4.613   4.436
 7454TIP3   OH222325   4.930   5.059   5.285
 7454TIP3    H122326   4.925   4.978   5.337
 7454TIP3    H222327   4.869   5.045   5.213
 7455TIP3   OH222328   4.205   1.862   4.942
 7455TIP3    H122329   4.148   1.799   4.897
 7455TIP3    H222330   4.256   1.902   4.872
 7456TIP3   OH222331   4.274   0.575   2.469
 7456TIP3    H122332   4.283   0.668   2.448
 7456TIP3    H222333   4.353   0.554   2.519
 7457TIP3   OH222334   2.164   1.731   5.515
 7457TIP3    H122335   2.201   1.703   5.431
 7457TIP3    H222336   2.238   1.729   5.576
 7458TIP3   OH222337   6.957   1.880   1.963
 7458TIP3    H122338   6.923   1.937   1.893
 7458TIP3    H222339   7.009   1.814   1.916
 7459TIP3   OH222340   5.521   3.791   1.211
 7459TIP3    H122341   5.561   3.705   1.199
 7459TIP3    H222342   5.478   3.786   1.296
 7460TIP3   OH222343   1.864   4.989   1.516
 7460TIP3    H122344   1.833   5.062   1.569
 7460TIP3    H222345   1.787   4.932   1.506
 7461TIP3   OH222346   3.410   0.540   3.529
 7461TIP3    H122347   3.347   0.569   3.595
 7461TIP3    H222348   3.360   0.481   3.472
 7462TIP3   OH222349   7.079   6.507   3.511
 7462TIP3    H122350   7.040   6.536   3.429
 7462TIP3    H222351   7.091   6.413   3.500
 7463TIP3   OH222352   5.296   3.935   2.781
 7463TIP3    H122353   5.221   3.987   2.811
 7463TIP3    H222354   5.273   3.907   2.693
 7464TIP3   OH222355   5.966   3.283   4.197
 7464TIP3    H122356   5.983   3.276   4.291
 7464TIP3    H222357   5.937   3.373   4.184
 7465TIP3   OH222358   5.449   6.601   0.093
 7465TIP3    H122359   5.451   6.630   0.002
 7465TIP3    H222360   5.532   6.630   0.130
 7466TIP3   OH222361   5.437   5.417   3.838
 7466TIP3    H122362   5.403   5.334   3.806
 7466TIP3    H222363   5.497   5.446   3.769
 7467TIP3   OH222364   0.782   4.903   3.221
 7467TIP3    H122365   0.811   4.905   3.312
 7467TIP3    H222366   0.836   4.836   3.180
 7468TIP3   OH222367   2.513   5.018   3.376
 7468TIP3    H122368   2.537   4.930   3.405
 7468TIP3    H222369   2.580   5.042   3.312
 7469TIP3   OH222370   6.234   0.904   5.288
 7469TIP3    H122371   6.253   0.993   5.319
 7469TIP3    H222372   6.197   0.916   5.201
 7470TIP3   OH222373   5.288   3.446   3.038
 7470TIP3    H122374   5.203   3.472   3.072
 7470TIP3    H222375   5.345   3.440   3.115
 7471TIP3   OH222376   6.831   4.428   1.079
 7471TIP3    H122377   6.765   4.425   1.009
 7471TIP3    H222378   6.861   4.338   1.087
 7472TIP3   OH222379   6.794   3.629   3.149
 7472TIP3    H122380   6.848   3.555   3.176
 7472TIP3    H222381   6.745   3.598   3.073
 7473TIP3   OH222382   5.919   1.461   4.503
 7473TIP3    H122383   5.945   1.551   4.524
 7473TIP3    H222384   5.838   1.472   4.452
 7474TIP3   OH222385   4.100   5.085   3.944
 7474TIP3    H122386   4.034   5.050   3.884
 7474TIP3    H222387   4.149   5.149   3.891
 7475TIP3   OH222388   1.153   2.060   5.858
 7475TIP3    H122389   1.147   2.097   5.770
 7475TIP3    H222390   1.234   2.010   5.858
 7476TIP3   OH222391   3.395   2.792   3.541
 7476TIP3    H122392   3.445   2.840   3.607
 7476TIP3    H222393   3.461   2.752   3.485
 7477TIP3   OH222394   1.999   4.853   1.293
 7477TIP3    H122395   1.961   4.767   1.308
 7477TIP3    H222396   1.994   4.896   1.379
 7478TIP3   OH222397   5.533   3.817   4.897
 7478TIP3    H122398   5.598   3.871   4.942
 7478TIP3    H222399   5.486   3.772   4.967
 7479TIP3   OH222400   5.472   4.598   2.365
 7479TIP3    H122401   5.463   4.566   2.275
 7479TIP3    H222402   5.523   4.678   2.356
 7480TIP3   OH222403   2.096   2.570   3.901
 7480TIP3    H122404   2.147   2.649   3.884
 7480TIP3    H222405   2.077   2.535   3.814
 7481TIP3   OH222406   5.484   5.206   3.204
 7481TIP3    H122407   5.561   5.232   3.153
 7481TIP3    H222408   5.518   5.196   3.294
 7482TIP3   OH222409   6.531   4.708   3.551
 7482TIP3    H122410   6.510   4.791   3.594
 7482TIP3    H222411   6.626   4.701   3.557
 7483TIP3   OH222412   5.783   5.079   1.377
 7483TIP3    H122413   5.776   5.066   1.282
 7483TIP3    H222414   5.693   5.095   1.406
 7484TIP3   OH222415   0.940   5.347   3.036
 7484TIP3    H122416   0.874   5.409   3.006
 7484TIP3    H222417   0.908   5.261   3.008
 7485TIP3   OH222418   6.432   5.483   4.808
 7485TIP3    H122419   6.463   5.565   4.845
 7485TIP3    H222420   6.414   5.428   4.883
 7486TIP3   OH222421   1.126   1.533   0.078
 7486TIP3    H122422   1.171   1.618   0.084
 7486TIP3    H222423   1.033   1.556   0.081
 7487TIP3   OH222424   5.925   0.754   0.328
 7487TIP3    H122425   5.998   0.813   0.313
 7487TIP3    H222426   5.915   0.706   0.245
 7488TIP3   OH222427   2.330   4.204   0.485
 7488TIP3    H122428   2.298   4.210   0.395
 7488TIP3    H222429   2.294   4.282   0.528
 7489TIP3   OH222430   1.608   1.639   1.678
 7489TIP3    H122431   1.617   1.715   1.736
 7489TIP3    H222432   1.611   1.675   1.590
 7490TIP3   OH222433   1.452   2.960   5.904
 7490TIP3    H122434   1.448   2.973   5.810
 7490TIP3    H222435   1.489   2.873   5.915
 7491TIP3   OH222436   4.103   0.120   0.069
 7491TIP3    H122437   4.169   0.119   0.138
 7491TIP3    H222438   4.122   0.199   0.019
 7492TIP3   OH222439   0.824   4.111   1.136
 7492TIP3    H122440   0.796   4.040   1.194
 7492TIP3    H222441   0.771   4.186   1.161
 7493TIP3   OH222442   1.739   5.550   3.174
 7493TIP3    H122443   1.657   5.542   3.124
 7493TIP3    H222444   1.748   5.644   3.190
 7494TIP3   OH222445   3.319   5.849   3.424
 7494TIP3    H122446   3.230   5.812   3.426
 7494TIP3    H222447   3.311   5.928   3.371
 7495TIP3   OH222448   2.589   2.325   3.812
 7495TIP3    H122449   2.525   2.323   3.883
 7495TIP3    H222450   2.629   2.411   3.818
 7496TIP3   OH222451   5.202   4.872   0.571
 7496TIP3    H122452   5.180   4.870   0.478
 7496TIP3    H222453   5.216   4.780   0.594
 7497TIP3   OH222454   3.807   2.756   1.089
 7497TIP3    H122455   3.760   2.726   1.010
 7497TIP3    H222456   3.899   2.737   1.071
 7498TIP3   OH222457   6.837   1.446   0.607
 7498TIP3    H122458   6.868   1.369   0.654
 7498TIP3    H222459   6.749   1.422   0.577
 7499TIP3   OH222460   6.850   3.044   4.526
 7499TIP3    H122461   6.844   2.958   4.484
 7499TIP3    H222462   6.944   3.061   4.533
 7500TIP3   OH222463   4.269   5.223   2.114
 7500TIP3    H122464   4.339   5.220   2.180
 7500TIP3    H222465   4.250   5.131   2.094
 7501TIP3   OH222466   4.348   2.955   5.553
 7501TIP3    H122467   4.414   3.023   5.569
 7501TIP3    H222468   4.384   2.903   5.482
 7502TIP3   OH222469   6.653   2.422   2.332
 7502TIP3    H122470   6.612   2.354   2.279
 7502TIP3    H222471   6.610   2.503   2.304
 7503TIP3   OH222472   3.174   5.462   3.437
 7503TIP3    H122473   3.090   5.499   3.410
 7503TIP3    H222474   3.199   5.512   3.514
 7504TIP3   OH222475   7.054   1.146   3.716
 7504TIP3    H122476   6.967   1.107   3.715
 7504TIP3    H222477   7.114   1.071   3.725
 7505TIP3   OH222478   4.952   4.072   1.150
 7505TIP3    H122479   5.030   4.018   1.154
 7505TIP3    H222480   4.915   4.068   1.239
 7506TIP3   OH222481   0.324   1.898   4.716
 7506TIP3    H122482   0.329   1.818   4.665
 7506TIP3    H222483   0.331   1.968   4.651
 7507TIP3   OH222484   4.918   3.256   2.644
 7507TIP3    H122485   4.850   3.207   2.690
 7507TIP3    H222486   4.996   3.201   2.652
 7508TIP3   OH222487   4.656   1.903   5.822
 7508TIP3    H122488   4.705   1.893   5.903
 7508TIP3    H222489   4.640   1.814   5.792
 7509TIP3   OH222490   3.052   0.404   1.976
 7509TIP3    H122491   3.109   0.334   1.944
 7509TIP3    H222492   3.077   0.481   1.925
 7510TIP3   OH222493   1.480   0.464   5.269
 7510TIP3    H122494   1.484   0.434   5.360
 7510TIP3    H222495   1.569   0.452   5.237
 7511TIP3   OH222496   6.478   1.681   1.668
 7511TIP3    H122497   6.478   1.618   1.739
 7511TIP3    H222498   6.569   1.710   1.661
 7512TIP3   OH222499   6.059   2.840   4.231
 7512TIP3    H122500   6.059   2.777   4.159
 7512TIP3    H222501   6.032   2.922   4.190
 7513TIP3   OH222502   4.499   5.515   4.842
 7513TIP3    H122503   4.446   5.436   4.832
 7513TIP3    H222504   4.532   5.511   4.932
 7514TIP3   OH222505   5.849   5.459   3.449
 7514TIP3    H122506   5.845   5.531   3.512
 7514TIP3    H222507   5.931   5.473   3.401
 7515TIP3   OH222508   3.610   6.132   1.796
 7515TIP3    H122509   3.549   6.173   1.858
 7515TIP3    H222510   3.564   6.133   1.712
 7516TIP3   OH222511   4.052   3.498   4.029
 7516TIP3    H122512   4.007   3.529   4.107
 7516TIP3    H222513   4.136   3.465   4.061
 7517TIP3   OH222514   4.021   2.994   0.819
 7517TIP3    H122515   4.054   2.910   0.789
 7517TIP3    H222516   4.088   3.025   0.880
 7518TIP3   OH222517   3.185   1.483   5.553
 7518TIP3    H122518   3.217   1.564   5.593
 7518TIP3    H222519   3.148   1.510   5.469
 7519TIP3   OH222520   3.445   1.999   1.204
 7519TIP3    H122521   3.373   2.022   1.145
 7519TIP3    H222522   3.452   1.904   1.197
 7520TIP3   OH222523   3.525   5.669   4.381
 7520TIP3    H122524   3.446   5.700   4.337
 7520TIP3    H222525   3.499   5.585   4.419
 7521TIP3   OH222526   1.658   6.008   2.806
 7521TIP3    H122527   1.667   5.913   2.820
 7521TIP3    H222528   1.647   6.017   2.711
 7522TIP3   OH222529   3.700   4.407   0.811
 7522TIP3    H122530   3.697   4.312   0.822
 7522TIP3    H222531   3.766   4.436   0.874
 7523TIP3   OH222532   0.540   1.413   5.389
 7523TIP3    H122533   0.545   1.320   5.409
 7523TIP3    H222534   0.501   1.453   5.467
 7524TIP3   OH222535   0.845   3.499   0.371
 7524TIP3    H122536   0.928   3.543   0.385
 7524TIP3    H222537   0.867   3.425   0.314
 7525TIP3   OH222538   0.522   5.359   3.114
 7525TIP3    H122539   0.537   5.449   3.143
 7525TIP3    H222540   0.590   5.308   3.159
 7526TIP3   OH222541   0.333   2.548   0.408
 7526TIP3    H122542   0.332   2.511   0.497
 7526TIP3    H222543   0.247   2.590   0.399
 7527TIP3   OH222544   5.848   0.917   0.621
 7527TIP3    H122545   5.910   0.845   0.619
 7527TIP3    H222546   5.873   0.973   0.547
 7528TIP3   OH222547   5.412   4.056   1.064
 7528TIP3    H122548   5.422   4.038   0.971
 7528TIP3    H222549   5.497   4.036   1.103
 7529TIP3   OH222550   1.047   1.064   0.702
 7529TIP3    H122551   0.974   1.002   0.706
 7529TIP3    H222552   1.077   1.059   0.611
 7530TIP3   OH222553   1.869   2.890   2.953
 7530TIP3    H122554   1.942   2.833   2.975
 7530TIP3    H222555   1.903   2.947   2.884
 7531TIP3   OH222556   0.788   0.459   0.899
 7531TIP3    H122557   0.779   0.364   0.893
 7531TIP3    H222558   0.764   0.479   0.989
 7532TIP3   OH222559   1.111   5.215   2.333
 7532TIP3    H122560   1.127   5.189   2.242
 7532TIP3    H222561   1.017   5.229   2.338
 7533TIP3   OH222562   5.816   4.940   4.683
 7533TIP3    H122563   5.800   4.962   4.591
 7533TIP3    H222564   5.742   4.885   4.709
 7534TIP3   OH222565   0.826   3.268   0.876
 7534TIP3    H122566   0.900   3.270   0.816
 7534TIP3    H222567   0.749   3.271   0.818
 7535TIP3   OH222568   3.628   5.736   3.229
 7535TIP3    H122569   3.684   5.727   3.306
 7535TIP3    H222570   3.663   5.814   3.184
 7536TIP3   OH222571   1.607   4.803   1.504
 7536TIP3    H122572   1.550   4.878   1.521
 7536TIP3    H222573   1.630   4.810   1.411
 7537TIP3   OH222574   2.600   6.642   5.364
 7537TIP3    H122575   2.648   6.578   5.311
 7537TIP3    H222576   2.620   6.726   5.323
 7538TIP3   OH222577   2.268   0.255   3.799
 7538TIP3    H122578   2.184   0.213   3.817
 7538TIP3    H222579   2.279   0.245   3.704
 7539TIP3   OH222580   4.255   4.080   5.688
 7539TIP3    H122581   4.260   4.060   5.781
 7539TIP3    H222582   4.167   4.054   5.662
 7540TIP3   OH222583   5.776   1.591   0.997
 7540TIP3    H122584   5.745   1.662   0.940
 7540TIP3    H222585   5.809   1.636   1.075
 7541TIP3   OH222586   0.405   5.203   0.454
 7541TIP3    H122587   0.428   5.158   0.535
 7541TIP3    H222588   0.333   5.261   0.478
 7542TIP3   OH222589   2.130   2.385   3.261
 7542TIP3    H122590   2.102   2.347   3.178
 7542TIP3    H222591   2.128   2.312   3.323
 7543TIP3   OH222592   4.832   4.107   2.507
 7543TIP3    H122593   4.760   4.052   2.536
 7543TIP3    H222594   4.792   4.193   2.491
 7544TIP3   OH222595   6.342   3.123   3.981
 7544TIP3    H122596   6.342   3.218   3.996
 7544TIP3    H222597   6.356   3.085   4.068
 7545TIP3   OH222598   4.418   1.549   4.411
 7545TIP3    H122599   4.365   1.499   4.348
 7545TIP3    H222600   4.356   1.576   4.479
 7546TIP3   OH222601   2.216   1.064   3.367
 7546TIP3    H122602   2.249   1.148   3.336
 7546TIP3    H222603   2.294   1.008   3.372
 7547TIP3   OH222604   6.115   6.748   1.798
 7547TIP3    H122605   6.034   6.706   1.769
 7547TIP3    H222606   6.166   6.678   1.838
 7548TIP3   OH222607   5.312   2.375   3.143
 7548TIP3    H122608   5.359   2.443   3.094
 7548TIP3    H222609   5.226   2.414   3.160
 7549TIP3   OH222610   1.035   4.523   4.036
 7549TIP3    H122611   1.077   4.486   4.113
 7549TIP3    H222612   1.016   4.447   3.981
 7550TIP3   OH222613   3.949   0.355   5.477
 7550TIP3    H122614   3.900   0.378   5.556
 7550TIP3    H222615   4.005   0.282   5.504
 7551TIP3   OH222616   5.142   0.895   1.134
 7551TIP3    H122617   5.228   0.858   1.116
 7551TIP3    H222618   5.155   0.990   1.131
 7552TIP3   OH222619   5.382   4.206   0.543
 7552TIP3    H122620   5.316   4.137   0.541
 7552TIP3    H222621   5.458   4.169   0.498
 7553TIP3   OH222622   7.019   0.882   2.612
 7553TIP3    H122623   6.955   0.812   2.620
 7553TIP3    H222624   7.104   0.838   2.621
 7554TIP3   OH222625   5.579   3.300   5.174
 7554TIP3    H122626   5.674   3.292   5.161
 7554TIP3    H222627   5.540   3.265   5.094
 7555TIP3   OH222628   4.069   4.881   0.482
 7555TIP3    H122629   4.021   4.859   0.562
 7555TIP3    H222630   4.134   4.946   0.511
 7556TIP3   OH222631   0.093   1.559   2.421
 7556TIP3    H122632   0.162   1.501   2.452
 7556TIP3    H222633   0.012   1.507   2.429
 7557TIP3   OH222634   2.622   1.801   5.101
 7557TIP3    H122635   2.634   1.751   5.182
 7557TIP3    H222636   2.688   1.765   5.041
 7558TIP3   OH222637   5.086   4.993   4.467
 7558TIP3    H122638   5.148   4.937   4.420
 7558TIP3    H222639   5.030   5.028   4.397
 7559TIP3   OH222640   2.287   0.353   4.762
 7559TIP3    H122641   2.216   0.313   4.813
 7559TIP3    H222642   2.367   0.313   4.796
 7560TIP3   OH222643   5.904   1.791   0.070
 7560TIP3    H122644   5.923   1.708   0.113
 7560TIP3    H222645   5.975   1.849   0.099
 7561TIP3   OH222646   2.936   2.106   2.421
 7561TIP3    H122647   2.905   2.194   2.400
 7561TIP3    H222648   2.949   2.106   2.516
 7562TIP3   OH222649   3.669   6.268   5.344
 7562TIP3    H122650   3.642   6.184   5.306
 7562TIP3    H222651   3.764   6.259   5.355
 7563TIP3   OH222652   2.239   4.520   2.695
 7563TIP3    H122653   2.191   4.560   2.622
 7563TIP3    H222654   2.270   4.594   2.747
 7564TIP3   OH222655   3.018   5.167   2.367
 7564TIP3    H122656   2.940   5.117   2.391
 7564TIP3    H222657   3.075   5.160   2.444
 7565TIP3   OH222658   3.098   0.967   5.828
 7565TIP3    H122659   3.030   0.939   5.766
 7565TIP3    H222660   3.134   1.047   5.790
 7566TIP3   OH222661   0.168   2.768   3.663
 7566TIP3    H122662   0.226   2.789   3.736
 7566TIP3    H222663   0.165   2.672   3.661
 7567TIP3   OH222664  -0.067   4.848   3.329
 7567TIP3    H122665   0.024   4.838   3.355
 7567TIP3    H222666  -0.065   4.912   3.258
 7568TIP3   OH222667   1.102   2.671   5.261
 7568TIP3    H122668   1.115   2.585   5.301
 7568TIP3    H222669   1.011   2.668   5.229
 7569TIP3   OH222670   6.945   0.298   3.095
 7569TIP3    H122671   6.983   0.233   3.036
 7569TIP3    H222672   6.908   0.247   3.167
 7570TIP3   OH222673   1.510   1.206   1.590
 7570TIP3    H122674   1.561   1.232   1.513
 7570TIP3    H222675   1.420   1.200   1.558
 7571TIP3   OH222676   1.804   4.402   5.788
 7571TIP3    H122677   1.819   4.421   5.881
 7571TIP3    H222678   1.732   4.339   5.788
 7572TIP3   OH222679   4.490   5.937   4.462
 7572TIP3    H122680   4.449   5.888   4.533
 7572TIP3    H222681   4.577   5.959   4.495
 7573TIP3   OH222682   1.563   4.437   5.234
 7573TIP3    H122683   1.519   4.511   5.193
 7573TIP3    H222684   1.633   4.476   5.287
 7574TIP3   OH222685   6.594   4.018   3.911
 7574TIP3    H122686   6.654   3.949   3.885
 7574TIP3    H222687   6.506   3.982   3.896
 7575TIP3   OH222688   3.729   6.026   3.234
 7575TIP3    H122689   3.788   5.969   3.184
 7575TIP3    H222690   3.754   6.013   3.325
 7576TIP3   OH222691   2.294   0.725   3.340
 7576TIP3    H122692   2.335   0.694   3.421
 7576TIP3    H222693   2.252   0.648   3.303
 7577TIP3   OH222694   3.384   3.295   1.573
 7577TIP3    H122695   3.316   3.230   1.553
 7577TIP3    H222696   3.384   3.354   1.498
 7578TIP3   OH222697   3.833   6.041   0.371
 7578TIP3    H122698   3.780   6.107   0.325
 7578TIP3    H222699   3.769   5.977   0.403
 7579TIP3   OH222700   0.688   5.925   2.300
 7579TIP3    H122701   0.776   5.945   2.332
 7579TIP3    H222702   0.700   5.852   2.240
 7580TIP3   OH222703   1.549   1.952   2.096
 7580TIP3    H122704   1.562   1.881   2.033
 7580TIP3    H222705   1.634   1.961   2.139
 7581TIP3   OH222706   1.862   3.311   4.687
 7581TIP3    H122707   1.955   3.307   4.664
 7581TIP3    H222708   1.845   3.403   4.702
 7582TIP3   OH222709   0.627   4.780   0.900
 7582TIP3    H122710   0.702   4.786   0.959
 7582TIP3    H222711   0.599   4.689   0.908
 7583TIP3   OH222712   6.056   3.048   3.507
 7583TIP3    H122713   5.987   3.035   3.572
 7583TIP3    H222714   6.106   3.123   3.540
 7584TIP3   OH222715   4.598   5.005   2.115
 7584TIP3    H122716   4.573   4.992   2.023
 7584TIP3    H222717   4.643   5.089   2.115
 7585TIP3   OH222718   0.058   5.524   2.516
 7585TIP3    H122719   0.053   5.620   2.524
 7585TIP3    H222720   0.117   5.497   2.586
 7586TIP3   OH222721   6.525   0.933   1.410
 7586TIP3    H122722   6.512   0.895   1.496
 7586TIP3    H222723   6.595   0.997   1.422
 7587TIP3   OH222724   2.825   3.479   0.632
 7587TIP3    H122725   2.874   3.427   0.697
 7587TIP3    H222726   2.835   3.431   0.550
 7588TIP3   OH222727   0.180   3.900   5.267
 7588TIP3    H122728   0.094   3.939   5.249
 7588TIP3    H222729   0.241   3.974   5.266
 7589TIP3   OH222730   7.112   3.252   5.688
 7589TIP3    H122731   7.031   3.243   5.639
 7589TIP3    H222732   7.180   3.263   5.621
 7590TIP3   OH222733   1.790   1.457   3.168
 7590TIP3    H122734   1.878   1.486   3.144
 7590TIP3    H222735   1.785   1.469   3.263
 7591TIP3   OH222736   2.935   0.779   2.105
 7591TIP3    H122737   2.947   0.830   2.026
 7591TIP3    H222738   2.971   0.833   2.175
 7592TIP3   OH222739   2.470   5.073   5.149
 7592TIP3    H122740   2.375   5.071   5.143
 7592TIP3    H222741   2.490   5.160   5.184
 7593TIP3   OH222742   2.912   0.840   3.076
 7593TIP3    H122743   2.945   0.768   3.022
 7593TIP3    H222744   2.887   0.908   3.013
 7594TIP3   OH222745   5.608   0.930   5.937
 7594TIP3    H122746   5.541   0.873   5.974
 7594TIP3    H222747   5.651   0.876   5.870
 7595TIP3   OH222748   4.751   3.928   0.755
 7595TIP3    H122749   4.662   3.926   0.790
 7595TIP3    H222750   4.774   3.835   0.743
 7596TIP3   OH222751   3.067   0.415   4.861
 7596TIP3    H122752   3.038   0.463   4.783
 7596TIP3    H222753   3.106   0.483   4.917
 7597TIP3   OH222754   5.252   3.605   0.961
 7597TIP3    H122755   5.172   3.653   0.937
 7597TIP3    H222756   5.323   3.654   0.920
 7598TIP3   OH222757   3.320   4.363   0.234
 7598TIP3    H122758   3.252   4.301   0.211
 7598TIP3    H222759   3.366   4.380   0.151
 7599TIP3   OH222760   1.684   2.482   1.930
 7599TIP3    H122761   1.772   2.449   1.947
 7599TIP3    H222762   1.693   2.540   1.855
 7600TIP3   OH222763   4.772   2.392   4.079
 7600TIP3    H122764   4.826   2.314   4.093
 7600TIP3    H222765   4.783   2.412   3.986
 7601TIP3   OH222766   5.779   5.882   1.743
 7601TIP3    H122767   5.853   5.866   1.685
 7601TIP3    H222768   5.702   5.882   1.686
 7602TIP3   OH222769   7.118   5.190   5.663
 7602TIP3    H122770   7.039   5.137   5.663
 7602TIP3    H222771   7.166   5.162   5.741
 7603TIP3   OH222772   0.750   5.417   0.457
 7603TIP3    H122773   0.681   5.402   0.522
 7603TIP3    H222774   0.721   5.494   0.409
 7604TIP3   OH222775   0.564   0.509   0.742
 7604TIP3    H122776   0.489   0.459   0.776
 7604TIP3    H222777   0.623   0.518   0.816
 7605TIP3   OH222778   3.658   2.510   4.739
 7605TIP3    H122779   3.747   2.543   4.741
 7605TIP3    H222780   3.650   2.458   4.819
 7606TIP3   OH222781   2.210   5.740   0.954
 7606TIP3    H122782   2.176   5.658   0.921
 7606TIP3    H222783   2.229   5.723   1.047
 7607TIP3   OH222784   6.475   5.108   2.767
 7607TIP3    H122785   6.533   5.181   2.746
 7607TIP3    H222786   6.407   5.112   2.700
 7608TIP3   OH222787   4.825   4.725   3.188
 7608TIP3    H122788   4.846   4.771   3.106
 7608TIP3    H222789   4.791   4.640   3.160
 7609TIP3   OH222790   7.095   5.780   2.738
 7609TIP3    H122791   7.148   5.855   2.764
 7609TIP3    H222792   7.139   5.746   2.659
 7610TIP3   OH222793   6.102   2.668   2.482
 7610TIP3    H122794   6.085   2.589   2.430
 7610TIP3    H222795   6.090   2.740   2.421
 7611TIP3   OH222796   1.579   0.943   3.551
 7611TIP3    H122797   1.538   0.930   3.637
 7611TIP3    H222798   1.528   0.887   3.492
 7612TIP3   OH222799   4.756   5.748   4.335
 7612TIP3    H122800   4.793   5.717   4.418
 7612TIP3    H222801   4.673   5.700   4.327
 7613TIP3   OH222802   3.842   0.867   0.703
 7613TIP3    H122803   3.836   0.962   0.693
 7613TIP3    H222804   3.756   0.841   0.737
 7614TIP3   OH222805   3.270   6.043   0.700
 7614TIP3    H122806   3.338   6.107   0.679
 7614TIP3    H222807   3.317   5.962   0.720
 7615TIP3   OH222808   6.495   1.033   3.522
 7615TIP3    H122809   6.544   1.092   3.466
 7615TIP3    H222810   6.550   0.955   3.530
 7616TIP3   OH222811   3.209   0.260   2.744
 7616TIP3    H122812   3.166   0.287   2.662
 7616TIP3    H222813   3.258   0.338   2.771
 7617TIP3   OH222814   5.072   3.825   3.216
 7617TIP3    H122815   5.164   3.848   3.206
 7617TIP3    H222816   5.047   3.786   3.132
 7618TIP3   OH222817   1.137   5.825   5.776
 7618TIP3    H122818   1.062   5.773   5.806
 7618TIP3    H222819   1.117   5.848   5.686
 7619TIP3   OH222820   7.082   2.235   4.818
 7619TIP3    H122821   7.138   2.171   4.775
 7619TIP3    H222822   7.107   2.232   4.910
 7620TIP3   OH222823   2.957   5.796   4.165
 7620TIP3    H122824   2.967   5.886   4.132
 7620TIP3    H222825   2.894   5.756   4.105
 7621TIP3   OH222826   5.938   4.425   0.076
 7621TIP3    H122827   5.953   4.477  -0.003
 7621TIP3    H222828   5.904   4.488   0.140
 7622TIP3   OH222829   3.458   4.268   1.889
 7622TIP3    H122830   3.401   4.300   1.959
 7622TIP3    H222831   3.429   4.314   1.811
 7623TIP3   OH222832   1.513   2.983   3.259
 7623TIP3    H122833   1.593   3.020   3.222
 7623TIP3    H222834   1.542   2.937   3.338
 7624TIP3   OH222835   3.898   1.759   2.965
 7624TIP3    H122836   3.834   1.830   2.971
 7624TIP3    H222837   3.957   1.787   2.895
 7625TIP3   OH222838   7.002   0.209   0.257
 7625TIP3    H122839   6.911   0.191   0.282
 7625TIP3    H222840   7.017   0.299   0.286
 7626TIP3   OH222841   5.913   4.453   3.529
 7626TIP3    H122842   5.922   4.431   3.436
 7626TIP3    H222843   5.857   4.384   3.564
 7627TIP3   OH222844   6.032   0.065   5.039
 7627TIP3    H122845   6.048   0.049   5.132
 7627TIP3    H222846   5.963   0.131   5.037
 7628TIP3   OH222847   3.393   1.205   1.843
 7628TIP3    H122848   3.443   1.135   1.885
 7628TIP3    H222849   3.332   1.160   1.785
 7629TIP3   OH222850   2.786   3.262   4.994
 7629TIP3    H122851   2.712   3.214   5.032
 7629TIP3    H222852   2.810   3.325   5.062
 7630TIP3   OH222853   4.229   3.537   4.336
 7630TIP3    H122854   4.253   3.558   4.426
 7630TIP3    H222855   4.273   3.604   4.283
 7631TIP3   OH222856   6.018   0.451   2.210
 7631TIP3    H122857   6.017   0.360   2.241
 7631TIP3    H222858   6.011   0.504   2.290
 7632TIP3   OH222859   4.513   0.355   1.396
 7632TIP3    H122860   4.580   0.376   1.461
 7632TIP3    H222861   4.560   0.354   1.312
 7633TIP3   OH222862   4.451   5.595   1.596
 7633TIP3    H122863   4.432   5.620   1.687
 7633TIP3    H222864   4.436   5.501   1.594
 7634TIP3   OH222865   3.495   3.872   1.130
 7634TIP3    H122866   3.406   3.840   1.115
 7634TIP3    H222867   3.489   3.920   1.213
 7635TIP3   OH222868   0.406   1.536   5.591
 7635TIP3    H122869   0.330   1.585   5.620
 7635TIP3    H222870   0.420   1.471   5.660
 7636TIP3   OH222871   5.424   0.893   0.277
 7636TIP3    H122872   5.406   0.958   0.345
 7636TIP3    H222873   5.352   0.902   0.215
 7637TIP3   OH222874   7.035   5.022   5.364
 7637TIP3    H122875   7.037   4.938   5.410
 7637TIP3    H222876   7.041   5.088   5.433
 7638TIP3   OH222877   2.999   4.639   3.033
 7638TIP3    H122878   2.938   4.676   3.097
 7638TIP3    H222879   3.081   4.684   3.048
 7639TIP3   OH222880   2.323   2.021   2.205
 7639TIP3    H122881   2.228   2.017   2.198
 7639TIP3    H222882   2.339   2.074   2.283
 7640TIP3   OH222883   4.467   0.265   3.815
 7640TIP3    H122884   4.400   0.198   3.799
 7640TIP3    H222885   4.485   0.301   3.728
 7641TIP3   OH222886   3.993   4.950   1.156
 7641TIP3    H122887   3.938   4.981   1.085
 7641TIP3    H222888   3.969   4.858   1.166
 7642TIP3   OH222889   0.711   4.935   5.842
 7642TIP3    H122890   0.653   4.862   5.863
 7642TIP3    H222891   0.780   4.897   5.788
 7643TIP3   OH222892   6.891   5.117   1.212
 7643TIP3    H122893   6.805   5.102   1.252
 7643TIP3    H222894   6.937   5.034   1.223
 7644TIP3   OH222895   4.547   6.267   4.884
 7644TIP3    H122896   4.562   6.344   4.829
 7644TIP3    H222897   4.476   6.294   4.944
 7645TIP3   OH222898   0.506   6.148   3.961
 7645TIP3    H122899   0.434   6.086   3.947
 7645TIP3    H222900   0.550   6.153   3.876
 7646TIP3   OH222901   0.219   5.732   4.334
 7646TIP3    H122902   0.298   5.783   4.320
 7646TIP3    H222903   0.187   5.762   4.420
 7647TIP3   OH222904   1.804   4.313   4.940
 7647TIP3    H122905   1.844   4.235   4.900
 7647TIP3    H222906   1.713   4.310   4.912
 7648TIP3   OH222907   0.789   1.096   4.365
 7648TIP3    H122908   0.854   1.090   4.295
 7648TIP3    H222909   0.839   1.121   4.442
 7649TIP3   OH222910   1.594   0.094   3.555
 7649TIP3    H122911   1.687   0.073   3.545
 7649TIP3    H222912   1.578   0.089   3.650
 7650TIP3   OH222913   5.237   4.178   0.026
 7650TIP3    H122914   5.225   4.266  -0.010
 7650TIP3    H222915   5.315   4.185   0.081
 7651TIP3   OH222916   4.506   4.375   4.395
 7651TIP3    H122917   4.557   4.402   4.319
 7651TIP3    H222918   4.568   4.377   4.468
 7652TIP3   OH222919   2.690   2.542   3.058
 7652TIP3    H122920   2.770   2.491   3.069
 7652TIP3    H222921   2.676   2.546   2.964
 7653TIP3   OH222922   5.778   3.172   4.625
 7653TIP3    H122923   5.709   3.178   4.559
 7653TIP3    H222924   5.743   3.218   4.701
 7654TIP3   OH222925   6.015   1.175   3.807
 7654TIP3    H122926   6.056   1.174   3.721
 7654TIP3    H222927   5.938   1.231   3.797
 7655TIP3   OH222928   4.558   6.467   1.465
 7655TIP3    H122929   4.589   6.490   1.378
 7655TIP3    H222930   4.619   6.399   1.494
 7656TIP3   OH222931   1.218   4.858   5.028
 7656TIP3    H122932   1.154   4.849   4.957
 7656TIP3    H222933   1.210   4.949   5.057
 7657TIP3   OH222934   2.744   1.198   1.164
 7657TIP3    H122935   2.696   1.122   1.130
 7657TIP3    H222936   2.830   1.163   1.188
 7658TIP3   OH222937   1.176   0.711   0.211
 7658TIP3    H122938   1.222   0.743   0.133
 7658TIP3    H222939   1.084   0.733   0.195
 7659TIP3   OH222940   4.867   0.850   2.852
 7659TIP3    H122941   4.909   0.819   2.932
 7659TIP3    H222942   4.812   0.776   2.824
 7660TIP3   OH222943   4.644   4.489   0.198
 7660TIP3    H122944   4.596   4.418   0.240
 7660TIP3    H222945   4.589   4.515   0.124
 7661TIP3   OH222946   6.954   0.991   0.935
 7661TIP3    H122947   7.045   0.963   0.945
 7661TIP3    H222948   6.902   0.913   0.951
 7662TIP3   OH222949   0.782   1.080   2.410
 7662TIP3    H122950   0.874   1.054   2.402
 7662TIP3    H222951   0.733   1.009   2.368
 7663TIP3   OH222952   0.760   6.566   2.180
 7663TIP3    H122953   0.719   6.482   2.161
 7663TIP3    H222954   0.772   6.566   2.275
 7664TIP3   OH222955   2.775   3.634   4.252
 7664TIP3    H122956   2.842   3.643   4.184
 7664TIP3    H222957   2.777   3.718   4.299
 7665TIP3   OH222958   3.269   2.761   1.089
 7665TIP3    H122959   3.180   2.724   1.088
 7665TIP3    H222960   3.266   2.828   1.157
 7666TIP3   OH222961   5.382   1.346   4.142
 7666TIP3    H122962   5.471   1.357   4.109
 7666TIP3    H222963   5.393   1.298   4.224
 7667TIP3   OH222964   4.393   1.622   1.245
 7667TIP3    H122965   4.400   1.622   1.341
 7667TIP3    H222966   4.482   1.636   1.214
 7668TIP3   OH222967   4.743   1.247   1.640
 7668TIP3    H122968   4.799   1.245   1.562
 7668TIP3    H222969   4.710   1.158   1.649
 7669TIP3   OH222970   3.562   4.840   0.179
 7669TIP3    H122971   3.618   4.909   0.143
 7669TIP3    H222972   3.576   4.765   0.120
 7670TIP3   OH222973   2.713   3.111   4.207
 7670TIP3    H122974   2.646   3.074   4.263
 7670TIP3    H222975   2.707   3.205   4.220
 7671TIP3   OH222976   4.076   4.193   5.425
 7671TIP3    H122977   4.154   4.215   5.477
 7671TIP3    H222978   4.102   4.213   5.335
 7672TIP3   OH222979   0.998   4.574   1.629
 7672TIP3    H122980   0.913   4.556   1.590
 7672TIP3    H222981   1.054   4.502   1.600
 7673TIP3   OH222982   3.437   3.408   1.817
 7673TIP3    H122983   3.443   3.368   1.731
 7673TIP3    H222984   3.482   3.492   1.808
 7674TIP3   OH222985   1.651   6.090   3.113
 7674TIP3    H122986   1.576   6.032   3.096
 7674TIP3    H222987   1.612   6.178   3.118
 7675TIP3   OH222988   6.728   3.160   2.617
 7675TIP3    H122989   6.741   3.082   2.563
 7675TIP3    H222990   6.686   3.223   2.558
 7676TIP3   OH222991   5.470   5.315   1.224
 7676TIP3    H122992   5.470   5.407   1.252
 7676TIP3    H222993   5.482   5.266   1.305
 7677TIP3   OH222994   3.980   1.241   5.060
 7677TIP3    H122995   4.026   1.276   4.984
 7677TIP3    H222996   4.028   1.161   5.083
 7678TIP3   OH222997   3.462   4.782   3.582
 7678TIP3    H122998   3.473   4.866   3.537
 7678TIP3    H222999   3.520   4.722   3.535
 7679TIP3   OH223000   6.176   1.684   0.664
 7679TIP3    H123001   6.211   1.634   0.737
 7679TIP3    H223002   6.140   1.763   0.704
 7680TIP3   OH223003   6.726   0.366   2.547
 7680TIP3    H123004   6.660   0.408   2.602
 7680TIP3    H223005   6.723   0.274   2.570
 7681TIP3   OH223006   1.576   3.480   2.744
 7681TIP3    H123007   1.493   3.529   2.742
 7681TIP3    H223008   1.569   3.418   2.671
 7682TIP3   OH223009   4.462   1.351   4.810
 7682TIP3    H123010   4.434   1.442   4.818
 7682TIP3    H223011   4.402   1.302   4.866
 7683TIP3   OH223012   3.064   6.670   2.417
 7683TIP3    H123013   3.143   6.677   2.472
 7683TIP3    H223014   3.080   6.731   2.345
 7684TIP3   OH223015   2.701   1.909   3.621
 7684TIP3    H123016   2.637   1.947   3.560
 7684TIP3    H223017   2.780   1.962   3.608
 7685TIP3   OH223018   3.625   6.159   4.030
 7685TIP3    H123019   3.654   6.233   3.975
 7685TIP3    H223020   3.662   6.178   4.116
 7686TIP3   OH223021   3.953   0.371   4.052
 7686TIP3    H123022   3.996   0.357   4.137
 7686TIP3    H223023   3.964   0.465   4.035
 7687TIP3   OH223024   5.632   4.962   0.641
 7687TIP3    H123025   5.692   5.034   0.660
 7687TIP3    H223026   5.589   4.944   0.725
 7688TIP3   OH223027   1.560   5.082   0.086
 7688TIP3    H123028   1.542   5.005   0.032
 7688TIP3    H223029   1.597   5.047   0.167
 7689TIP3   OH223030   0.841   1.705   1.281
 7689TIP3    H123031   0.880   1.651   1.350
 7689TIP3    H223032   0.820   1.643   1.211
 7690TIP3   OH223033   0.966   6.075   2.700
 7690TIP3    H123034   1.047   6.041   2.737
 7690TIP3    H223035   0.963   6.166   2.729
 7691TIP3   OH223036   2.969   2.867   3.258
 7691TIP3    H123037   3.053   2.841   3.294
 7691TIP3    H223038   2.988   2.891   3.167
 7692TIP3   OH223039   5.021   4.613   0.946
 7692TIP3    H123040   5.103   4.565   0.956
 7692TIP3    H223041   4.985   4.582   0.863
 7693TIP3   OH223042   1.058   1.890   1.107
 7693TIP3    H123043   0.994   1.819   1.116
 7693TIP3    H223044   1.125   1.870   1.173
 7694TIP3   OH223045   6.186   3.606   2.254
 7694TIP3    H123046   6.169   3.610   2.348
 7694TIP3    H223047   6.141   3.527   2.225
 7695TIP3   OH223048   3.468   1.717   1.188
 7695TIP3    H123049   3.432   1.633   1.160
 7695TIP3    H223050   3.561   1.699   1.203
 7696TIP3   OH223051   5.822   0.817   1.948
 7696TIP3    H123052   5.810   0.911   1.963
 7696TIP3    H223053   5.880   0.812   1.872
 7697TIP3   OH223054   5.624   2.411   1.051
 7697TIP3    H123055   5.560   2.344   1.027
 7697TIP3    H223056   5.579   2.467   1.114
 7698TIP3   OH223057   3.710   4.128   0.851
 7698TIP3    H123058   3.715   4.046   0.804
 7698TIP3    H223059   3.713   4.103   0.944
 7699TIP3   OH223060   4.413   2.799   5.039
 7699TIP3    H123061   4.318   2.810   5.034
 7699TIP3    H223062   4.426   2.704   5.034
 7700TIP3   OH223063   6.509   6.323   4.745
 7700TIP3    H123064   6.551   6.373   4.674
 7700TIP3    H223065   6.563   6.245   4.754
 7701TIP3   OH223066   3.491   2.964   3.285
 7701TIP3    H123067   3.484   3.055   3.313
 7701TIP3    H223068   3.544   2.922   3.352
 7702TIP3   OH223069   2.592   1.681   2.267
 7702TIP3    H123070   2.617   1.620   2.197
 7702TIP3    H223071   2.668   1.737   2.279
 7703TIP3   OH223072   4.766   3.550   1.324
 7703TIP3    H123073   4.689   3.501   1.353
 7703TIP3    H223074   4.742   3.583   1.237
 7704TIP3   OH223075   1.013   4.681   4.285
 7704TIP3    H123076   1.069   4.627   4.228
 7704TIP3    H223077   0.966   4.738   4.224
 7705TIP3   OH223078   2.139   5.753   1.642
 7705TIP3    H123079   2.170   5.739   1.732
 7705TIP3    H223080   2.218   5.759   1.590
 7706TIP3   OH223081   6.138   4.490   0.787
 7706TIP3    H123082   6.151   4.548   0.712
 7706TIP3    H223083   6.101   4.546   0.855
 7707TIP3   OH223084   5.535   2.527   2.081
 7707TIP3    H123085   5.469   2.474   2.126
 7707TIP3    H223086   5.507   2.528   1.990
 7708TIP3   OH223087   3.972   3.379   3.723
 7708TIP3    H123088   3.987   3.345   3.811
 7708TIP3    H223089   3.895   3.435   3.732
 7709TIP3   OH223090   4.835   0.820   2.412
 7709TIP3    H123091   4.817   0.846   2.322
 7709TIP3    H223092   4.914   0.766   2.405
 7710TIP3   OH223093   3.922   6.230   4.321
 7710TIP3    H123094   3.974   6.176   4.262
 7710TIP3    H223095   3.950   6.204   4.409
 7711TIP3   OH223096   6.601   2.452   1.970
 7711TIP3    H123097   6.684   2.448   2.018
 7711TIP3    H223098   6.568   2.540   1.986
 7712TIP3   OH223099   4.263   0.836   2.774
 7712TIP3    H123100   4.249   0.909   2.835
 7712TIP3    H223101   4.356   0.814   2.783
 7713TIP3   OH223102   6.007   4.253   4.043
 7713TIP3    H123103   6.008   4.196   3.966
 7713TIP3    H223104   6.031   4.339   4.010
 7714TIP3   OH223105   4.431   1.043   4.494
 7714TIP3    H123106   4.367   1.107   4.463
 7714TIP3    H223107   4.380   0.982   4.547
 7715TIP3   OH223108   0.490   2.121   5.909
 7715TIP3    H123109   0.422   2.098   5.845
 7715TIP3    H223110   0.558   2.163   5.856
 7716TIP3   OH223111   3.239   2.827   3.320
 7716TIP3    H123112   3.329   2.829   3.288
 7716TIP3    H223113   3.247   2.808   3.414
 7717TIP3   OH223114   5.770   5.385   1.485
 7717TIP3    H123115   5.720   5.324   1.431
 7717TIP3    H223116   5.807   5.448   1.423
 7718TIP3   OH223117   3.464   1.979   1.816
 7718TIP3    H123118   3.482   2.072   1.803
 7718TIP3    H223119   3.380   1.977   1.862
 7719TIP3   OH223120   2.941   3.678   1.691
 7719TIP3    H123121   2.868   3.620   1.672
 7719TIP3    H223122   3.006   3.623   1.733
 7720TIP3   OH223123   3.671   2.046   5.272
 7720TIP3    H123124   3.664   2.127   5.322
 7720TIP3    H223125   3.713   2.071   5.190
 7721TIP3   OH223126   3.473   2.237   5.114
 7721TIP3    H123127   3.526   2.317   5.111
 7721TIP3    H223128   3.488   2.203   5.203
 7722TIP3   OH223129   3.176   1.548   2.529
 7722TIP3    H123130   3.155   1.461   2.495
 7722TIP3    H223131   3.240   1.532   2.598
 7723TIP3   OH223132   0.952   2.011   1.573
 7723TIP3    H123133   1.032   2.063   1.578
 7723TIP3    H223134   0.889   2.061   1.625
 7724TIP3   OH223135   1.361   6.094   4.204
 7724TIP3    H123136   1.362   6.124   4.295
 7724TIP3    H223137   1.373   5.999   4.211
 7725TIP3   OH223138   4.613   0.291   4.040
 7725TIP3    H123139   4.571   0.301   3.955
 7725TIP3    H223140   4.699   0.253   4.021
 7726TIP3   OH223141   2.742   4.655   0.461
 7726TIP3    H123142   2.652   4.630   0.481
 7726TIP3    H223143   2.758   4.619   0.373
 7727TIP3   OH223144   5.448   0.777   3.214
 7727TIP3    H123145   5.466   0.721   3.290
 7727TIP3    H223146   5.393   0.847   3.249
 7728TIP3   OH223147   4.389   3.692   0.064
 7728TIP3    H123148   4.387   3.656   0.152
 7728TIP3    H223149   4.363   3.618   0.008
 7729TIP3   OH223150   2.995   6.288   4.163
 7729TIP3    H123151   3.018   6.220   4.099
 7729TIP3    H223152   2.911   6.321   4.134
 7730TIP3   OH223153   6.480   3.889   0.331
 7730TIP3    H123154   6.530   3.971   0.334
 7730TIP3    H223155   6.434   3.887   0.415
 7731TIP3   OH223156   4.832   5.227   0.928
 7731TIP3    H123157   4.864   5.233   1.017
 7731TIP3    H223158   4.911   5.234   0.873
 7732TIP3   OH223159   0.367   3.374   5.418
 7732TIP3    H123160   0.375   3.417   5.503
 7732TIP3    H223161   0.422   3.426   5.360
 7733TIP3   OH223162   4.269   3.503   2.858
 7733TIP3    H123163   4.219   3.431   2.821
 7733TIP3    H223164   4.204   3.557   2.904
 7734TIP3   OH223165   4.843   0.369   0.884
 7734TIP3    H123166   4.933   0.389   0.911
 7734TIP3    H223167   4.846   0.370   0.788
 7735TIP3   OH223168   4.094   3.337   1.658
 7735TIP3    H123169   4.117   3.326   1.566
 7735TIP3    H223170   4.176   3.362   1.700
 7736TIP3   OH223171   2.597   2.466   0.594
 7736TIP3    H123172   2.625   2.376   0.583
 7736TIP3    H223173   2.634   2.493   0.678
 7737TIP3   OH223174   3.019   2.629   5.522
 7737TIP3    H123175   3.104   2.661   5.491
 7737TIP3    H223176   2.987   2.575   5.450
 7738TIP3   OH223177   5.579   4.268   0.861
 7738TIP3    H123178   5.494   4.293   0.826
 7738TIP3    H223179   5.639   4.278   0.788
 7739TIP3   OH223180   6.344   6.219   3.380
 7739TIP3    H123181   6.390   6.231   3.463
 7739TIP3    H223182   6.265   6.169   3.404
 7740TIP3   OH223183   4.730   6.363   3.980
 7740TIP3    H123184   4.709   6.283   4.029
 7740TIP3    H223185   4.664   6.365   3.910
 7741TIP3   OH223186   2.123   1.334   5.061
 7741TIP3    H123187   2.091   1.420   5.033
 7741TIP3    H223188   2.043   1.285   5.083
 7742TIP3   OH223189   6.854   2.390   2.086
 7742TIP3    H123190   6.930   2.431   2.127
 7742TIP3    H223191   6.864   2.297   2.104
 7743TIP3   OH223192   3.804   0.589   1.276
 7743TIP3    H123193   3.862   0.600   1.351
 7743TIP3    H223194   3.755   0.671   1.271
 7744TIP3   OH223195   6.307   3.596   3.683
 7744TIP3    H123196   6.387   3.643   3.661
 7744TIP3    H223197   6.243   3.625   3.618
 7745TIP3   OH223198   4.472   4.443   4.842
 7745TIP3    H123199   4.504   4.519   4.891
 7745TIP3    H223200   4.384   4.468   4.814
 7746TIP3   OH223201   3.256   0.519   4.196
 7746TIP3    H123202   3.256   0.563   4.111
 7746TIP3    H223203   3.234   0.428   4.177
 7747TIP3   OH223204   1.989   4.945   3.946
 7747TIP3    H123205   2.080   4.936   3.918
 7747TIP3    H223206   1.946   4.866   3.915
 7748TIP3   OH223207   5.320   1.055   0.807
 7748TIP3    H123208   5.319   1.104   0.889
 7748TIP3    H223209   5.370   0.975   0.827
 7749TIP3   OH223210   6.519   0.690   3.459
 7749TIP3    H123211   6.435   0.670   3.418
 7749TIP3    H223212   6.575   0.616   3.436
 7750TIP3   OH223213   3.727   5.373   2.259
 7750TIP3    H123214   3.795   5.439   2.246
 7750TIP3    H223215   3.776   5.293   2.281
 7751TIP3   OH223216   1.701   1.668   2.644
 7751TIP3    H123217   1.670   1.666   2.553
 7751TIP3    H223218   1.626   1.636   2.695
 7752TIP3   OH223219   6.751   3.209   5.218
 7752TIP3    H123220   6.784   3.187   5.306
 7752TIP3    H223221   6.757   3.127   5.169
 7753TIP3   OH223222   2.409   4.842   3.600
 7753TIP3    H123223   2.473   4.911   3.616
 7753TIP3    H223224   2.460   4.768   3.568
 7754TIP3   OH223225   4.492   1.382   0.204
 7754TIP3    H123226   4.511   1.307   0.261
 7754TIP3    H223227   4.444   1.442   0.260
 7755TIP3   OH223228   6.612   0.397   2.197
 7755TIP3    H123229   6.643   0.396   2.107
 7755TIP3    H223230   6.536   0.338   2.198
 7756TIP3   OH223231   2.688   6.488   2.714
 7756TIP3    H123232   2.736   6.414   2.752
 7756TIP3    H223233   2.596   6.469   2.735
 7757TIP3   OH223234   2.148   0.531   3.949
 7757TIP3    H123235   2.243   0.521   3.949
 7757TIP3    H223236   2.115   0.449   3.913
 7758TIP3   OH223237   4.131   5.398   3.235
 7758TIP3    H123238   4.186   5.335   3.281
 7758TIP3    H223239   4.136   5.478   3.288
 7759TIP3   OH223240   7.091   1.413   2.230
 7759TIP3    H123241   7.039   1.447   2.158
 7759TIP3    H223242   7.168   1.375   2.188
 7760TIP3   OH223243   5.179   0.510   0.615
 7760TIP3    H123244   5.228   0.444   0.568
 7760TIP3    H223245   5.203   0.593   0.574
 7761TIP3   OH223246   1.538   5.895   5.252
 7761TIP3    H123247   1.552   5.990   5.249
 7761TIP3    H223248   1.612   5.862   5.304
 7762TIP3   OH223249   6.263   2.539   0.205
 7762TIP3    H123250   6.179   2.562   0.244
 7762TIP3    H223251   6.289   2.618   0.157
 7763TIP3   OH223252   4.918   5.454   4.030
 7763TIP3    H123253   4.958   5.486   4.111
 7763TIP3    H223254   4.954   5.366   4.018
 7764TIP3   OH223255   3.178   3.534   4.721
 7764TIP3    H123256   3.273   3.538   4.711
 7764TIP3    H223257   3.164   3.502   4.810
 7765TIP3   OH223258   1.308   3.983   0.256
 7765TIP3    H123259   1.283   4.068   0.221
 7765TIP3    H223260   1.376   3.951   0.197
 7766TIP3   OH223261   5.826   2.389   0.664
 7766TIP3    H123262   5.894   2.383   0.597
 7766TIP3    H223263   5.869   2.435   0.737
 7767TIP3   OH223264   0.345   5.148   3.129
 7767TIP3    H123265   0.415   5.214   3.126
 7767TIP3    H223266   0.286   5.172   3.057
 7768TIP3   OH223267   4.263   4.389   0.798
 7768TIP3    H123268   4.251   4.458   0.864
 7768TIP3    H223269   4.189   4.329   0.812
 7769TIP3   OH223270   6.353   5.014   3.258
 7769TIP3    H123271   6.269   5.006   3.303
 7769TIP3    H223272   6.374   4.925   3.230
 7770TIP3   OH223273   5.639   1.436   0.326
 7770TIP3    H123274   5.620   1.377   0.398
 7770TIP3    H223275   5.580   1.510   0.340
 7771TIP3   OH223276   2.919   4.622   2.775
 7771TIP3    H123277   2.935   4.619   2.869
 7771TIP3    H223278   2.928   4.714   2.751
 7772TIP3   OH223279   1.253   3.036   1.094
 7772TIP3    H123280   1.222   2.975   1.028
 7772TIP3    H223281   1.343   3.056   1.068
 7773TIP3   OH223282   0.426   1.008   4.732
 7773TIP3    H123283   0.453   0.952   4.659
 7773TIP3    H223284   0.398   1.090   4.690
 7774TIP3   OH223285   3.390   3.500   1.386
 7774TIP3    H123286   3.468   3.550   1.409
 7774TIP3    H223287   3.366   3.531   1.299
 7775TIP3   OH223288   2.256   0.232   3.527
 7775TIP3    H123289   2.191   0.276   3.472
 7775TIP3    H223290   2.275   0.151   3.480
 7776TIP3   OH223291   2.197   4.130   3.449
 7776TIP3    H123292   2.133   4.162   3.513
 7776TIP3    H223293   2.229   4.048   3.486
 7777TIP3   OH223294   3.535   0.271   5.443
 7777TIP3    H123295   3.593   0.344   5.462
 7777TIP3    H223296   3.447   0.309   5.442
 7778TIP3   OH223297   0.444   2.023   1.158
 7778TIP3    H123298   0.524   1.977   1.184
 7778TIP3    H223299   0.439   2.098   1.217
 7779TIP3   OH223300   3.038   6.769   0.921
 7779TIP3    H123301   2.956   6.811   0.892
 7779TIP3    H223302   3.070   6.725   0.843
 7780TIP3   OH223303   4.537   4.812   4.360
 7780TIP3    H123304   4.539   4.796   4.266
 7780TIP3    H223305   4.625   4.789   4.390
 7781TIP3   OH223306   6.942   6.121   0.472
 7781TIP3    H123307   6.907   6.134   0.560
 7781TIP3    H223308   7.034   6.098   0.486
 7782TIP3   OH223309   5.405   5.344   2.751
 7782TIP3    H123310   5.421   5.420   2.695
 7782TIP3    H223311   5.317   5.359   2.787
 7783TIP3   OH223312   3.270   3.812   1.744
 7783TIP3    H123313   3.198   3.874   1.734
 7783TIP3    H223314   3.242   3.734   1.696
 7784TIP3   OH223315   0.453   3.907   3.841
 7784TIP3    H123316   0.486   3.826   3.881
 7784TIP3    H223317   0.370   3.924   3.886
 7785TIP3   OH223318   1.563   3.315   0.425
 7785TIP3    H123319   1.602   3.326   0.338
 7785TIP3    H223320   1.495   3.249   0.413
 7786TIP3   OH223321   3.849   2.304   2.559
 7786TIP3    H123322   3.795   2.279   2.484
 7786TIP3    H223323   3.822   2.394   2.578
 7787TIP3   OH223324   0.185   3.962   3.553
 7787TIP3    H123325   0.113   3.929   3.499
 7787TIP3    H223326   0.264   3.941   3.504
 7788TIP3   OH223327   6.475   2.269   1.831
 7788TIP3    H123328   6.520   2.339   1.878
 7788TIP3    H223329   6.408   2.314   1.779
 7789TIP3   OH223330   4.469   6.198   2.851
 7789TIP3    H123331   4.468   6.289   2.882
 7789TIP3    H223332   4.484   6.146   2.929
 7790TIP3   OH223333   5.509   4.398   1.117
 7790TIP3    H123334   5.512   4.322   1.059
 7790TIP3    H223335   5.540   4.471   1.063
 7791TIP3   OH223336   3.877   3.641   1.658
 7791TIP3    H123337   3.800   3.667   1.607
 7791TIP3    H223338   3.856   3.664   1.748
 7792TIP3   OH223339   3.602   3.654   1.792
 7792TIP3    H123340   3.563   3.659   1.705
 7792TIP3    H223341   3.650   3.736   1.802
 7793TIP3   OH223342   1.359   1.970   0.533
 7793TIP3    H123343   1.436   1.920   0.561
 7793TIP3    H223344   1.295   1.955   0.602
 7794TIP3   OH223345   6.418   4.821   1.609
 7794TIP3    H123346   6.441   4.797   1.519
 7794TIP3    H223347   6.475   4.766   1.663
 7795TIP3   OH223348   4.487   3.726   0.790
 7795TIP3    H123349   4.439   3.786   0.733
 7795TIP3    H223350   4.475   3.640   0.751
 7796TIP3   OH223351   4.717   6.027   2.479
 7796TIP3    H123352   4.685   6.012   2.390
 7796TIP3    H223353   4.651   6.084   2.519
 7797TIP3   OH223354   3.054   0.787   4.317
 7797TIP3    H123355   2.990   0.717   4.325
 7797TIP3    H223356   3.109   0.779   4.395
 7798TIP3   OH223357   2.467   5.577   1.865
 7798TIP3    H123358   2.396   5.513   1.876
 7798TIP3    H223359   2.441   5.650   1.921
 7799TIP3   OH223360   6.962   1.438   5.207
 7799TIP3    H123361   6.883   1.383   5.203
 7799TIP3    H223362   6.995   1.425   5.296
 7800TIP3   OH223363   7.135   1.762   0.196
 7800TIP3    H123364   7.041   1.775   0.188
 7800TIP3    H223365   7.145   1.671   0.226
 7801TIP3   OH223366   2.656   1.971   5.556
 7801TIP3    H123367   2.634   2.018   5.476
 7801TIP3    H223368   2.573   1.936   5.586
 7802TIP3   OH223369   3.219   6.089   3.322
 7802TIP3    H123370   3.160   6.076   3.396
 7802TIP3    H223371   3.171   6.146   3.262
 7803TIP3   OH223372   0.142   1.612   5.396
 7803TIP3    H123373   0.220   1.564   5.368
 7803TIP3    H223374   0.119   1.665   5.320
 7804TIP3   OH223375   4.643   0.448   3.335
 7804TIP3    H123376   4.578   0.518   3.341
 7804TIP3    H223377   4.727   0.491   3.352
 7805TIP3   OH223378   2.192   1.814   2.432
 7805TIP3    H123379   2.170   1.785   2.521
 7805TIP3    H223380   2.169   1.741   2.376
 7806TIP3   OH223381   5.013   2.131   2.985
 7806TIP3    H123382   4.940   2.190   3.001
 7806TIP3    H223383   5.033   2.094   3.071
 7807TIP3   OH223384   6.839   0.140   3.311
 7807TIP3    H123385   6.758   0.145   3.362
 7807TIP3    H223386   6.863   0.047   3.314
 7808TIP3   OH223387   2.770   2.305   4.492
 7808TIP3    H123388   2.719   2.339   4.418
 7808TIP3    H223389   2.838   2.371   4.506
 7809TIP3   OH223390   3.815   3.492   4.486
 7809TIP3    H123391   3.795   3.475   4.394
 7809TIP3    H223392   3.845   3.408   4.520
 7810TIP3   OH223393   6.259   3.705   4.800
 7810TIP3    H123394   6.280   3.634   4.740
 7810TIP3    H223395   6.190   3.670   4.856
 7811TIP3   OH223396   5.594   6.631   2.692
 7811TIP3    H123397   5.667   6.613   2.752
 7811TIP3    H223398   5.581   6.726   2.698
 7812TIP3   OH223399   2.929   5.984   0.395
 7812TIP3    H123400   2.855   6.042   0.414
 7812TIP3    H223401   2.897   5.926   0.326
 7813TIP3   OH223402   5.135   6.035   1.170
 7813TIP3    H123403   5.175   5.966   1.222
 7813TIP3    H223404   5.047   6.044   1.206
 7814TIP3   OH223405   4.258   0.278   3.367
 7814TIP3    H123406   4.198   0.205   3.352
 7814TIP3    H223407   4.206   0.356   3.348
 7815TIP3   OH223408   0.797   2.025   0.745
 7815TIP3    H123409   0.744   2.083   0.798
 7815TIP3    H223410   0.887   2.041   0.773
 7816TIP3   OH223411   1.305   5.287   1.511
 7816TIP3    H123412   1.214   5.315   1.509
 7816TIP3    H223413   1.341   5.315   1.426
 7817TIP3   OH223414   3.570   5.807   5.542
 7817TIP3    H123415   3.539   5.764   5.462
 7817TIP3    H223416   3.490   5.833   5.588
 7818TIP3   OH223417   7.021   5.309   4.851
 7818TIP3    H123418   6.978   5.325   4.768
 7818TIP3    H223419   7.113   5.294   4.829
 7819TIP3   OH223420   1.823   5.362   5.391
 7819TIP3    H123421   1.846   5.292   5.329
 7819TIP3    H223422   1.784   5.430   5.337
 7820TIP3   OH223423   2.471   0.420   3.451
 7820TIP3    H123424   2.545   0.363   3.470
 7820TIP3    H223425   2.393   0.365   3.462
 7821TIP3   OH223426   4.173   4.876   3.702
 7821TIP3    H123427   4.136   4.845   3.784
 7821TIP3    H223428   4.243   4.935   3.727
 7822TIP3   OH223429   0.739   0.462   3.202
 7822TIP3    H123430   0.753   0.432   3.292
 7822TIP3    H223431   0.660   0.516   3.207
 7823TIP3   OH223432   0.111   2.770   3.061
 7823TIP3    H123433   0.074   2.776   3.149
 7823TIP3    H223434   0.173   2.696   3.066
 7824TIP3   OH223435   0.601   6.142   4.448
 7824TIP3    H123436   0.605   6.167   4.356
 7824TIP3    H223437   0.561   6.217   4.492
 7825TIP3   OH223438   4.023   5.151   1.725
 7825TIP3    H123439   4.074   5.218   1.678
 7825TIP3    H223440   3.986   5.097   1.655
 7826TIP3   OH223441   3.192   6.003   0.434
 7826TIP3    H123442   3.196   6.025   0.527
 7826TIP3    H223443   3.098   5.999   0.415
 7827TIP3   OH223444   6.538   3.079   4.870
 7827TIP3    H123445   6.500   3.155   4.913
 7827TIP3    H223446   6.558   3.018   4.942
 7828TIP3   OH223447   6.846   4.743   1.979
 7828TIP3    H123448   6.929   4.759   2.023
 7828TIP3    H223449   6.846   4.804   1.904
 7829TIP3   OH223450   0.104   2.207   2.681
 7829TIP3    H123451   0.070   2.183   2.767
 7829TIP3    H223452   0.052   2.283   2.655
 7830TIP3   OH223453   0.229   3.940   1.969
 7830TIP3    H123454   0.175   3.863   1.986
 7830TIP3    H223455   0.260   3.927   1.879
 7831TIP3   OH223456   2.338   2.935   5.721
 7831TIP3    H123457   2.311   2.949   5.630
 7831TIP3    H223458   2.363   2.843   5.725
 7832TIP3   OH223459   4.029   1.079   0.452
 7832TIP3    H123460   4.033   1.163   0.498
 7832TIP3    H223461   3.940   1.075   0.418
 7833TIP3   OH223462   0.478   2.405   2.551
 7833TIP3    H123463   0.482   2.480   2.492
 7833TIP3    H223464   0.411   2.428   2.615
 7834TIP3   OH223465   1.891   0.466   5.510
 7834TIP3    H123466   1.895   0.378   5.472
 7834TIP3    H223467   1.879   0.451   5.604
 7835TIP3   OH223468   2.127   0.737   5.277
 7835TIP3    H123469   2.137   0.832   5.270
 7835TIP3    H223470   2.054   0.725   5.338
 7836TIP3   OH223471   6.976   0.613   4.232
 7836TIP3    H123472   6.958   0.705   4.210
 7836TIP3    H223473   7.069   0.611   4.253
 7837TIP3   OH223474   3.863   6.416   0.380
 7837TIP3    H123475   3.800   6.437   0.449
 7837TIP3    H223476   3.822   6.346   0.330
 7838TIP3   OH223477   6.001   1.283   4.314
 7838TIP3    H123478   5.923   1.276   4.259
 7838TIP3    H223479   5.976   1.343   4.384
 7839TIP3   OH223480   4.072   2.025   4.470
 7839TIP3    H123481   4.038   2.108   4.439
 7839TIP3    H223482   4.080   2.035   4.565
 7840TIP3   OH223483   0.883   6.784   1.920
 7840TIP3    H123484   0.935   6.708   1.947
 7840TIP3    H223485   0.805   6.746   1.878
 7841TIP3   OH223486   1.997   2.357   3.013
 7841TIP3    H123487   2.008   2.319   2.927
 7841TIP3    H223488   1.952   2.440   2.997
 7842TIP3   OH223489   2.157   1.548   3.340
 7842TIP3    H123490   2.133   1.567   3.250
 7842TIP3    H223491   2.087   1.491   3.372
 7843TIP3   OH223492   0.943   4.088   3.921
 7843TIP3    H123493   0.893   4.023   3.871
 7843TIP3    H223494   0.975   4.040   3.997
 7844TIP3   OH223495   2.480   0.134   4.996
 7844TIP3    H123496   2.435   0.196   5.053
 7844TIP3    H223497   2.504   0.062   5.053
 7845TIP3   OH223498   3.766   4.383   3.651
 7845TIP3    H123499   3.780   4.431   3.732
 7845TIP3    H223500   3.854   4.359   3.622
 7846TIP3   OH223501   3.429   4.405   2.192
 7846TIP3    H123502   3.352   4.461   2.178
 7846TIP3    H223503   3.393   4.316   2.199
 7847TIP3   OH223504   3.472   1.784   5.618
 7847TIP3    H123505   3.431   1.765   5.533
 7847TIP3    H223506   3.563   1.805   5.596
 7848TIP3   OH223507   3.889   4.540   2.966
 7848TIP3    H123508   3.976   4.569   2.994
 7848TIP3    H223509   3.904   4.497   2.882
 7849TIP3   OH223510   3.458   5.692   1.535
 7849TIP3    H123511   3.516   5.649   1.598
 7849TIP3    H223512   3.440   5.624   1.469
 7850TIP3   OH223513   6.194   4.681   5.670
 7850TIP3    H123514   6.269   4.629   5.699
 7850TIP3    H223515   6.227   4.732   5.596
 7851TIP3   OH223516   5.889   1.106   0.385
 7851TIP3    H123517   5.831   1.042   0.344
 7851TIP3    H223518   5.900   1.174   0.320
 7852TIP3   OH223519   4.505   2.384   2.057
 7852TIP3    H123520   4.518   2.371   2.151
 7852TIP3    H223521   4.592   2.369   2.020
 7853TIP3   OH223522   2.935   3.713   4.046
 7853TIP3    H123523   2.891   3.635   4.011
 7853TIP3    H223524   3.016   3.679   4.085
 7854TIP3   OH223525   4.206   5.820   3.135
 7854TIP3    H123526   4.243   5.908   3.139
 7854TIP3    H223527   4.164   5.816   3.048
 7855TIP3   OH223528   5.526   6.698   1.280
 7855TIP3    H123529   5.511   6.604   1.289
 7855TIP3    H223530   5.521   6.714   1.186
 7856TIP3   OH223531   0.672   0.759   0.609
 7856TIP3    H123532   0.635   0.698   0.673
 7856TIP3    H223533   0.682   0.707   0.529
 7857TIP3   OH223534   0.763   6.131   5.392
 7857TIP3    H123535   0.707   6.194   5.346
 7857TIP3    H223536   0.752   6.049   5.344
 7858TIP3   OH223537   4.048   2.252   3.915
 7858TIP3    H123538   4.082   2.259   3.826
 7858TIP3    H223539   3.963   2.295   3.911
 7859TIP3   OH223540   4.490   5.885   5.455
 7859TIP3    H123541   4.437   5.965   5.454
 7859TIP3    H223542   4.531   5.885   5.541
 7860TIP3   OH223543   0.245   5.406   0.639
 7860TIP3    H123544   0.196   5.487   0.625
 7860TIP3    H223545   0.184   5.350   0.688
 7861TIP3   OH223546   6.598   0.989   2.574
 7861TIP3    H123547   6.547   0.914   2.606
 7861TIP3    H223548   6.556   1.065   2.614
 7862TIP3   OH223549   6.283   1.494   0.853
 7862TIP3    H123550   6.254   1.484   0.943
 7862TIP3    H223551   6.378   1.507   0.859
 7863TIP3   OH223552   1.932   0.104   0.772
 7863TIP3    H123553   1.862   0.150   0.726
 7863TIP3    H223554   1.921   0.131   0.864
 7864TIP3   OH223555   5.735   1.920   5.771
 7864TIP3    H123556   5.684   1.841   5.749
 7864TIP3    H223557   5.825   1.896   5.749
 7865TIP3   OH223558   6.066   6.712   2.185
 7865TIP3    H123559   6.069   6.617   2.187
 7865TIP3    H223560   6.149   6.740   2.223
 7866TIP3   OH223561   5.132   2.132   5.386
 7866TIP3    H123562   5.087   2.127   5.302
 7866TIP3    H223563   5.063   2.116   5.451
 7867TIP3   OH223564   3.181   0.457   1.495
 7867TIP3    H123565   3.205   0.391   1.560
 7867TIP3    H223566   3.187   0.412   1.411
 7868TIP3   OH223567   4.387   0.429   2.700
 7868TIP3    H123568   4.303   0.463   2.731
 7868TIP3    H223569   4.375   0.334   2.699
 7869TIP3   OH223570   3.066   3.387   0.865
 7869TIP3    H123571   3.131   3.345   0.920
 7869TIP3    H223572   2.983   3.345   0.890
 7870TIP3   OH223573   1.571   5.511   0.725
 7870TIP3    H123574   1.625   5.436   0.749
 7870TIP3    H223575   1.634   5.581   0.707
 7871TIP3   OH223576   3.852   6.791   3.318
 7871TIP3    H123577   3.804   6.775   3.237
 7871TIP3    H223578   3.926   6.846   3.292
 7872TIP3   OH223579   5.192   5.644   2.226
 7872TIP3    H123580   5.149   5.591   2.292
 7872TIP3    H223581   5.215   5.725   2.271
 7873TIP3   OH223582   1.255   4.114   5.655
 7873TIP3    H123583   1.324   4.179   5.667
 7873TIP3    H223584   1.283   4.038   5.706
 7874TIP3   OH223585   1.907   0.972   2.824
 7874TIP3    H123586   1.913   0.877   2.838
 7874TIP3    H223587   1.830   0.999   2.874
 7875TIP3   OH223588   6.715   4.651   3.186
 7875TIP3    H123589   6.790   4.668   3.243
 7875TIP3    H223590   6.680   4.737   3.166
 7876TIP3   OH223591   5.947   6.558   5.043
 7876TIP3    H123592   5.979   6.647   5.060
 7876TIP3    H223593   5.953   6.514   5.128
 7877TIP3   OH223594   4.130   2.949   0.098
 7877TIP3    H123595   4.214   2.928   0.056
 7877TIP3    H223596   4.075   2.872   0.083
 7878TIP3   OH223597   5.909   1.306   3.262
 7878TIP3    H123598   5.828   1.327   3.217
 7878TIP3    H223599   5.883   1.249   3.334
 7879TIP3   OH223600   6.732   2.797   2.916
 7879TIP3    H123601   6.702   2.710   2.892
 7879TIP3    H223602   6.652   2.850   2.915
 7880TIP3   OH223603   2.315   3.389   4.836
 7880TIP3    H123604   2.409   3.373   4.832
 7880TIP3    H223605   2.294   3.384   4.930
 7881TIP3   OH223606   0.309   3.606   1.854
 7881TIP3    H123607   0.310   3.511   1.845
 7881TIP3    H223608   0.295   3.622   1.947
 7882TIP3   OH223609   0.734   3.981   3.282
 7882TIP3    H123610   0.666   4.048   3.277
 7882TIP3    H223611   0.754   3.974   3.376
 7883TIP3   OH223612   1.070   1.876   5.166
 7883TIP3    H123613   1.143   1.860   5.107
 7883TIP3    H223614   0.996   1.894   5.108
 7884TIP3   OH223615   5.419   3.018   1.277
 7884TIP3    H123616   5.390   2.980   1.195
 7884TIP3    H223617   5.349   2.999   1.339
 7885TIP3   OH223618   0.961   3.101   1.289
 7885TIP3    H123619   0.990   3.133   1.374
 7885TIP3    H223620   1.004   3.158   1.226
 7886TIP3   OH223621   7.154   4.295   2.366
 7886TIP3    H123622   7.195   4.353   2.429
 7886TIP3    H223623   7.172   4.334   2.281
 7887TIP3   OH223624   1.438   1.284   1.206
 7887TIP3    H123625   1.358   1.267   1.254
 7887TIP3    H223626   1.421   1.251   1.118
 7888TIP3   OH223627   1.371   1.535   1.044
 7888TIP3    H123628   1.326   1.541   1.129
 7888TIP3    H223629   1.443   1.474   1.060
 7889TIP3   OH223630   0.403   5.237   0.925
 7889TIP3    H123631   0.401   5.228   1.020
 7889TIP3    H223632   0.408   5.331   0.909
 7890TIP3   OH223633   5.538   4.786   2.585
 7890TIP3    H123634   5.549   4.810   2.677
 7890TIP3    H223635   5.503   4.697   2.587
 7891TIP3   OH223636   0.785   3.549   2.471
 7891TIP3    H123637   0.820   3.472   2.517
 7891TIP3    H223638   0.736   3.512   2.398
 7892TIP3   OH223639   1.746   1.032   2.601
 7892TIP3    H123640   1.802   1.064   2.672
 7892TIP3    H223641   1.670   0.995   2.644
 7893TIP3   OH223642   0.820   2.622   4.447
 7893TIP3    H123643   0.852   2.545   4.401
 7893TIP3    H223644   0.727   2.625   4.428
 7894TIP3   OH223645   4.806   3.494   2.586
 7894TIP3    H123646   4.850   3.411   2.604
 7894TIP3    H223647   4.796   3.495   2.491
 7895TIP3   OH223648   3.179   4.170   3.294
 7895TIP3    H123649   3.266   4.143   3.265
 7895TIP3    H223650   3.146   4.226   3.224
 7896TIP3   OH223651   1.592   1.227   3.247
 7896TIP3    H123652   1.525   1.272   3.298
 7896TIP3    H223653   1.639   1.297   3.202
 7897TIP3   OH223654   0.613   3.748   4.005
 7897TIP3    H123655   0.647   3.784   4.087
 7897TIP3    H223656   0.581   3.661   4.029
 7898TIP3   OH223657   4.581   5.221   3.662
 7898TIP3    H123658   4.594   5.310   3.695
 7898TIP3    H223659   4.666   5.195   3.626
 7899TIP3   OH223660   3.300   0.021   5.605
 7899TIP3    H123661   3.348   0.096   5.640
 7899TIP3    H223662   3.369  -0.040   5.577
 7900TIP3   OH223663   3.891   1.353   0.297
 7900TIP3    H123664   3.894   1.442   0.262
 7900TIP3    H223665   3.927   1.298   0.227
 7901TIP3   OH223666   0.321   2.493   2.751
 7901TIP3    H123667   0.374   2.507   2.830
 7901TIP3    H223668   0.238   2.537   2.770
 7902TIP3   OH223669   0.669   0.130   1.422
 7902TIP3    H123670   0.603   0.078   1.378
 7902TIP3    H223671   0.740   0.068   1.442
 7903TIP3   OH223672   3.922   6.708   5.402
 7903TIP3    H123673   3.974   6.672   5.330
 7903TIP3    H223674   3.966   6.676   5.481
 7904TIP3   OH223675   1.861   0.354   4.611
 7904TIP3    H123676   1.951   0.335   4.587
 7904TIP3    H223677   1.868   0.411   4.688
 7905TIP3   OH223678   6.089   6.414   2.224
 7905TIP3    H123679   6.138   6.341   2.263
 7905TIP3    H223680   6.044   6.454   2.298
 7906TIP3   OH223681   4.063   1.140   3.274
 7906TIP3    H123682   4.044   1.067   3.215
 7906TIP3    H223683   4.148   1.118   3.313
 7907TIP3   OH223684   0.409   4.222   1.926
 7907TIP3    H123685   0.498   4.256   1.919
 7907TIP3    H223686   0.382   4.244   2.015
 7908TIP3   OH223687   5.171   2.093   4.097
 7908TIP3    H123688   5.252   2.121   4.055
 7908TIP3    H223689   5.160   2.002   4.069
 7909TIP3   OH223690   7.020   6.195   2.606
 7909TIP3    H123691   6.954   6.238   2.551
 7909TIP3    H223692   6.975   6.182   2.690
 7910TIP3   OH223693   4.503   0.868   2.240
 7910TIP3    H123694   4.442   0.854   2.312
 7910TIP3    H223695   4.519   0.962   2.239
 7911TIP3   OH223696   6.704   6.016   1.701
 7911TIP3    H123697   6.691   6.044   1.791
 7911TIP3    H223698   6.630   5.959   1.682
 7912TIP3   OH223699   2.066   2.581   5.207
 7912TIP3    H123700   2.092   2.501   5.160
 7912TIP3    H223701   1.973   2.592   5.185
 7913TIP3   OH223702   0.417   2.833   2.106
 7913TIP3    H123703   0.322   2.843   2.116
 7913TIP3    H223704   0.428   2.746   2.068
 7914TIP3   OH223705   3.681   1.938   4.058
 7914TIP3    H123706   3.721   1.872   4.114
 7914TIP3    H223707   3.607   1.971   4.108
 7915TIP3   OH223708   4.185   4.750   3.166
 7915TIP3    H123709   4.195   4.724   3.257
 7915TIP3    H223710   4.270   4.788   3.143
 7916TIP3   OH223711   3.152   5.529   0.887
 7916TIP3    H123712   3.061   5.551   0.869
 7916TIP3    H223713   3.188   5.503   0.802
 7917TIP3   OH223714   6.043   2.448   0.886
 7917TIP3    H123715   6.133   2.446   0.855
 7917TIP3    H223716   6.044   2.396   0.967
 7918TIP3   OH223717   3.056   3.451   1.238
 7918TIP3    H123718   3.059   3.425   1.331
 7918TIP3    H223719   3.078   3.544   1.239
 7919TIP3   OH223720   4.373   2.159   3.428
 7919TIP3    H123721   4.323   2.197   3.356
 7919TIP3    H223722   4.382   2.066   3.405
 7920TIP3   OH223723   6.419   1.770   0.170
 7920TIP3    H123724   6.336   1.761   0.217
 7920TIP3    H223725   6.475   1.703   0.208
 7921TIP3   OH223726   6.409   6.139   1.265
 7921TIP3    H123727   6.420   6.094   1.181
 7921TIP3    H223728   6.496   6.139   1.304
 7922TIP3   OH223729   2.263   1.947   3.065
 7922TIP3    H123730   2.244   1.957   2.971
 7922TIP3    H223731   2.273   1.853   3.078
 7923TIP3   OH223732   0.700   3.709   0.076
 7923TIP3    H123733   0.791   3.717   0.105
 7923TIP3    H223734   0.690   3.615   0.056
 7924TIP3   OH223735   4.062   3.739   2.082
 7924TIP3    H123736   4.059   3.821   2.131
 7924TIP3    H223737   4.155   3.724   2.067
 7925TIP3   OH223738   3.481   0.002   1.636
 7925TIP3    H123739   3.395   0.039   1.621
 7925TIP3    H223740   3.470  -0.053   1.714
 7926TIP3   OH223741   5.381   6.823   3.096
 7926TIP3    H123742   5.300   6.846   3.141
 7926TIP3    H223743   5.366   6.735   3.062
 7927TIP3   OH223744   0.087   2.423   3.775
 7927TIP3    H123745   0.137   2.432   3.694
 7927TIP3    H223746   0.154   2.415   3.843
 7928TIP3   OH223747   0.891   0.819   3.678
 7928TIP3    H123748   0.964   0.758   3.687
 7928TIP3    H223749   0.850   0.796   3.594
 7929TIP3   OH223750   2.214   1.995   5.778
 7929TIP3    H123751   2.255   2.049   5.846
 7929TIP3    H223752   2.243   1.906   5.798
 7930TIP3   OH223753   5.647   4.639   5.715
 7930TIP3    H123754   5.595   4.640   5.795
 7930TIP3    H223755   5.737   4.651   5.746
 7931TIP3   OH223756   1.824   3.777   2.943
 7931TIP3    H123757   1.834   3.831   3.022
 7931TIP3    H223758   1.784   3.696   2.975
 7932TIP3   OH223759   4.885   2.704   1.338
 7932TIP3    H123760   4.941   2.650   1.394
 7932TIP3    H223761   4.867   2.649   1.262
 7933TIP3   OH223762   0.451   5.839   1.977
 7933TIP3    H123763   0.499   5.756   1.972
 7933TIP3    H223764   0.404   5.845   1.893
 7934TIP3   OH223765   3.090   5.599   4.730
 7934TIP3    H123766   3.171   5.641   4.701
 7934TIP3    H223767   3.087   5.517   4.682
 7935TIP3   OH223768   6.492   3.765   4.128
 7935TIP3    H123769   6.535   3.714   4.059
 7935TIP3    H223770   6.403   3.730   4.132
 7936TIP3   OH223771   7.217   6.691   5.449
 7936TIP3    H123772   7.222   6.786   5.445
 7936TIP3    H223773   7.124   6.671   5.441
 7937TIP3   OH223774   5.028   0.986   5.170
 7937TIP3    H123775   5.076   1.026   5.097
 7937TIP3    H223776   5.038   1.049   5.242
 7938TIP3   OH223777   6.457   5.749   2.874
 7938TIP3    H123778   6.484   5.734   2.784
 7938TIP3    H223779   6.526   5.706   2.926
 7939TIP3   OH223780   0.132   0.089   1.084
 7939TIP3    H123781   0.042   0.076   1.053
 7939TIP3    H223782   0.134   0.045   1.169
 7940TIP3   OH223783   3.347   5.716   3.174
 7940TIP3    H123784   3.325   5.761   3.255
 7940TIP3    H223785   3.440   5.733   3.161
 7941TIP3   OH223786   6.178   6.407   5.799
 7941TIP3    H123787   6.087   6.388   5.821
 7941TIP3    H223788   6.213   6.324   5.767
 7942TIP3   OH223789   1.372   5.416   5.130
 7942TIP3    H123790   1.288   5.420   5.175
 7942TIP3    H223791   1.397   5.508   5.118
 7943TIP3   OH223792   4.337   5.233   2.580
 7943TIP3    H123793   4.342   5.179   2.501
 7943TIP3    H223794   4.340   5.171   2.652
 7944TIP3   OH223795   0.217   3.027   3.916
 7944TIP3    H123796   0.268   2.971   3.858
 7944TIP3    H223797   0.219   2.983   4.001
 7945TIP3   OH223798   3.647   4.443   2.355
 7945TIP3    H123799   3.578   4.419   2.294
 7945TIP3    H223800   3.724   4.395   2.324
 7946TIP3   OH223801   2.203   0.465   5.361
 7946TIP3    H123802   2.279   0.496   5.410
 7946TIP3    H223803   2.179   0.538   5.304
 7947TIP3   OH223804   2.139   5.103   2.992
 7947TIP3    H123805   2.222   5.060   2.971
 7947TIP3    H223806   2.088   5.035   3.038
 7948TIP3   OH223807   0.497   4.656   4.549
 7948TIP3    H123808   0.428   4.683   4.609
 7948TIP3    H223809   0.546   4.589   4.598
 7949TIP3   OH223810   6.642   5.007   1.041
 7949TIP3    H123811   6.712   5.059   1.004
 7949TIP3    H223812   6.569   5.017   0.980
 7950TIP3   OH223813   0.056   3.403   0.706
 7950TIP3    H123814  -0.001   3.441   0.638
 7950TIP3    H223815   0.134   3.374   0.659
 7951TIP3   OH223816   0.805   4.693   1.270
 7951TIP3    H123817   0.772   4.764   1.326
 7951TIP3    H223818   0.813   4.618   1.329
 7952TIP3   OH223819   7.048   5.501   2.844
 7952TIP3    H123820   6.967   5.550   2.863
 7952TIP3    H223821   7.057   5.505   2.749
 7953TIP3   OH223822   0.087   5.323   2.237
 7953TIP3    H123823   0.139   5.329   2.317
 7953TIP3    H223824   0.019   5.259   2.257
 7954TIP3   OH223825   2.929   0.069   4.710
 7954TIP3    H123826   2.992   0.074   4.782
 7954TIP3    H223827   2.915  -0.025   4.697
 7955TIP3   OH223828   0.640   4.452   4.215
 7955TIP3    H123829   0.720   4.467   4.265
 7955TIP3    H223830   0.607   4.540   4.196
 7956TIP3   OH223831   4.948   1.693   0.734
 7956TIP3    H123832   4.934   1.675   0.641
 7956TIP3    H223833   4.925   1.611   0.778
 7957TIP3   OH223834   3.887   0.978   1.047
 7957TIP3    H123835   3.809   0.940   1.089
 7957TIP3    H223836   3.862   1.067   1.025
 7958TIP3   OH223837   7.018   4.872   1.204
 7958TIP3    H123838   6.961   4.800   1.230
 7958TIP3    H223839   7.104   4.848   1.238
 7959TIP3   OH223840   6.675   0.820   5.337
 7959TIP3    H123841   6.609   0.750   5.337
 7959TIP3    H223842   6.755   0.777   5.308
 7960TIP3   OH223843   3.482   2.000   4.251
 7960TIP3    H123844   3.479   2.060   4.325
 7960TIP3    H223845   3.429   1.925   4.278
 7961TIP3   OH223846   5.827   1.173   3.477
 7961TIP3    H123847   5.813   1.243   3.542
 7961TIP3    H223848   5.808   1.092   3.525
 7962TIP3   OH223849   5.130   5.753   0.325
 7962TIP3    H123850   5.204   5.770   0.384
 7962TIP3    H223851   5.171   5.722   0.245
 7963TIP3   OH223852   6.695   1.614   3.373
 7963TIP3    H123853   6.632   1.542   3.379
 7963TIP3    H223854   6.709   1.641   3.464
 7964TIP3   OH223855   1.198   2.807   5.028
 7964TIP3    H123856   1.184   2.766   5.114
 7964TIP3    H223857   1.120   2.860   5.014
 7965TIP3   OH223858   2.769   4.859   5.862
 7965TIP3    H123859   2.822   4.803   5.918
 7965TIP3    H223860   2.690   4.808   5.845
 7966TIP3   OH223861   1.868   3.823   4.257
 7966TIP3    H123862   1.940   3.824   4.320
 7966TIP3    H223863   1.802   3.767   4.297
 7967TIP3   OH223864   1.059   3.817   3.545
 7967TIP3    H123865   1.031   3.758   3.615
 7967TIP3    H223866   0.980   3.864   3.520
 7968TIP3   OH223867   5.531   5.936   4.895
 7968TIP3    H123868   5.572   5.994   4.830
 7968TIP3    H223869   5.437   5.955   4.887
 7969TIP3   OH223870   0.615   1.277   5.703
 7969TIP3    H123871   0.543   1.216   5.716
 7969TIP3    H223872   0.623   1.323   5.787
 7970TIP3   OH223873   5.280   4.573   1.054
 7970TIP3    H123874   5.304   4.662   1.080
 7970TIP3    H223875   5.356   4.541   1.005
 7971TIP3   OH223876   2.221   4.880   3.829
 7971TIP3    H123877   2.219   4.931   3.748
 7971TIP3    H223878   2.283   4.810   3.812
 7972TIP3   OH223879   3.017   0.607   5.610
 7972TIP3    H123880   2.992   0.667   5.540
 7972TIP3    H223881   3.110   0.624   5.624
 7973TIP3   OH223882   6.594   1.100   0.136
 7973TIP3    H123883   6.502   1.128   0.139
 7973TIP3    H223884   6.609   1.059   0.221
 7974TIP3   OH223885   5.762   2.797   0.905
 7974TIP3    H123886   5.738   2.713   0.864
 7974TIP3    H223887   5.747   2.784   0.998
 7975TIP3   OH223888   0.112   5.468   3.325
 7975TIP3    H123889   0.190   5.471   3.380
 7975TIP3    H223890   0.067   5.551   3.341
 7976TIP3   OH223891   7.005   2.392   3.803
 7976TIP3    H123892   6.952   2.370   3.880
 7976TIP3    H223893   7.093   2.364   3.827
 7977TIP3   OH223894   0.654   5.456   5.474
 7977TIP3    H123895   0.744   5.485   5.459
 7977TIP3    H223896   0.625   5.509   5.548
 7978TIP3   OH223897   6.693   6.620   2.493
 7978TIP3    H123898   6.626   6.597   2.429
 7978TIP3    H223899   6.700   6.715   2.487
 7979TIP3   OH223900   4.605   4.535   1.645
 7979TIP3    H123901   4.609   4.510   1.737
 7979TIP3    H223902   4.689   4.507   1.608
 7980TIP3   OH223903   4.745   5.496   5.493
 7980TIP3    H123904   4.709   5.568   5.440
 7980TIP3    H223905   4.727   5.522   5.584
 7981TIP3   OH223906   3.302   2.613   0.587
 7981TIP3    H123907   3.365   2.582   0.653
 7981TIP3    H223908   3.228   2.553   0.595
 7982TIP3   OH223909   1.538   5.582   2.661
 7982TIP3    H123910   1.470   5.522   2.691
 7982TIP3    H223911   1.491   5.648   2.610
 7983TIP3   OH223912   4.106   3.531   3.138
 7983TIP3    H123913   4.166   3.542   3.211
 7983TIP3    H223914   4.118   3.609   3.084
 7984TIP3   OH223915   4.484   0.533   5.321
 7984TIP3    H123916   4.506   0.625   5.310
 7984TIP3    H223917   4.526   0.508   5.403
 7985TIP3   OH223918   2.838   4.931   4.146
 7985TIP3    H123919   2.804   4.980   4.221
 7985TIP3    H223920   2.796   4.846   4.152
 7986TIP3   OH223921   4.219   2.838   2.591
 7986TIP3    H123922   4.191   2.886   2.513
 7986TIP3    H223923   4.282   2.773   2.559
 7987TIP3   OH223924   7.014   5.568   1.891
 7987TIP3    H123925   6.958   5.643   1.913
 7987TIP3    H223926   7.021   5.518   1.972
 7988TIP3   OH223927   2.083   5.810   3.387
 7988TIP3    H123928   2.057   5.743   3.323
 7988TIP3    H223929   2.061   5.893   3.345
 7989TIP3   OH223930   0.463   1.645   1.522
 7989TIP3    H123931   0.515   1.597   1.458
 7989TIP3    H223932   0.460   1.734   1.488
 7990TIP3   OH223933   2.435   0.203   4.465
 7990TIP3    H123934   2.483   0.226   4.544
 7990TIP3    H223935   2.417   0.110   4.474
 7991TIP3   OH223936   2.097   0.453   1.930
 7991TIP3    H123937   2.144   0.536   1.934
 7991TIP3    H223938   2.017   0.474   1.881
 7992TIP3   OH223939   3.244   4.969   3.698
 7992TIP3    H123940   3.322   4.964   3.642
 7992TIP3    H223941   3.172   4.946   3.640
 7993TIP3   OH223942   3.814   4.247   2.220
 7993TIP3    H123943   3.899   4.259   2.262
 7993TIP3    H223944   3.777   4.169   2.263
 7994TIP3   OH223945   4.915   3.743   5.387
 7994TIP3    H123946   5.004   3.757   5.420
 7994TIP3    H223947   4.878   3.678   5.447
 7995TIP3   OH223948   6.505   3.760   3.582
 7995TIP3    H123949   6.448   3.835   3.598
 7995TIP3    H223950   6.524   3.763   3.489
 7996TIP3   OH223951   4.944   2.537   4.775
 7996TIP3    H123952   4.854   2.535   4.808
 7996TIP3    H223953   4.936   2.522   4.681
 7997TIP3   OH223954   1.911   5.265   4.934
 7997TIP3    H123955   1.962   5.237   4.858
 7997TIP3    H223956   1.856   5.337   4.902
 7998TIP3   OH223957   4.977   0.441   3.823
 7998TIP3    H123958   5.021   0.457   3.906
 7998TIP3    H223959   4.943   0.352   3.830
 7999TIP3   OH223960   0.647   0.566   3.888
 7999TIP3    H123961   0.686   0.652   3.903
 7999TIP3    H223962   0.716   0.515   3.846
 8000TIP3   OH223963   3.344   2.087   0.082
 8000TIP3    H123964   3.278   2.126   0.025
 8000TIP3    H223965   3.411   2.054   0.023
 8001TIP3   OH223966   2.802   5.295   4.149
 8001TIP3    H123967   2.888   5.288   4.192
 8001TIP3    H223968   2.806   5.376   4.099
 8002TIP3   OH223969   5.075   5.862   3.420
 8002TIP3    H123970   5.027   5.781   3.404
 8002TIP3    H223971   5.140   5.866   3.350
 8003TIP3   OH223972   3.838   2.951   1.827
 8003TIP3    H123973   3.908   3.006   1.790
 8003TIP3    H223974   3.882   2.896   1.892
 8004TIP3   OH223975   1.683   4.936   3.651
 8004TIP3    H123976   1.713   4.933   3.742
 8004TIP3    H223977   1.759   4.967   3.602
 8005TIP3   OH223978   3.009   6.046   0.813
 8005TIP3    H123979   3.075   6.046   0.743
 8005TIP3    H223980   3.043   6.109   0.877
 8006TIP3   OH223981   2.900   4.736   2.385
 8006TIP3    H123982   2.981   4.696   2.416
 8006TIP3    H223983   2.926   4.783   2.305
 8007TIP3   OH223984   5.886   6.051   1.354
 8007TIP3    H123985   5.974   6.042   1.318
 8007TIP3    H223986   5.898   6.092   1.439
 8008TIP3   OH223987   3.417   1.467   3.804
 8008TIP3    H123988   3.450   1.556   3.814
 8008TIP3    H223989   3.360   1.454   3.880
 8009TIP3   OH223990   1.826   1.645   2.255
 8009TIP3    H123991   1.764   1.577   2.227
 8009TIP3    H223992   1.905   1.597   2.279
 8010TIP3   OH223993   1.446   5.504   4.322
 8010TIP3    H123994   1.496   5.434   4.363
 8010TIP3    H223995   1.448   5.576   4.385
 8011TIP3   OH223996   2.422   2.726   2.677
 8011TIP3    H123997   2.327   2.737   2.676
 8011TIP3    H223998   2.456   2.805   2.636
 8012TIP3   OH223999   3.819   2.722   4.950
 8012TIP3    H124000   3.861   2.803   4.977
 8012TIP3    H224001   3.742   2.715   5.007
 8013TIP3   OH224002   4.663   2.935   0.206
 8013TIP3    H124003   4.605   2.873   0.163
 8013TIP3    H224004   4.654   2.916   0.300
 8014TIP3   OH224005   6.808   1.345  -0.010
 8014TIP3    H124006   6.739   1.397  -0.051
 8014TIP3    H224007   6.766   1.302   0.064
 8015TIP3   OH224008   1.401   2.269   0.710
 8015TIP3    H124009   1.445   2.247   0.628
 8015TIP3    H224010   1.449   2.218   0.776
 8016TIP3   OH224011   5.696   3.106   5.711
 8016TIP3    H124012   5.789   3.096   5.728
 8016TIP3    H224013   5.665   3.166   5.779
 8017TIP3   OH224014   6.634   3.188   1.286
 8017TIP3    H124015   6.669   3.116   1.234
 8017TIP3    H224016   6.634   3.157   1.376
 8018TIP3   OH224017   4.529   4.656   1.252
 8018TIP3    H124018   4.605   4.697   1.212
 8018TIP3    H224019   4.463   4.725   1.256
 8019TIP3   OH224020   2.318   3.841   5.274
 8019TIP3    H124021   2.327   3.796   5.191
 8019TIP3    H224022   2.244   3.798   5.317
 8020TIP3   OH224023   0.168   4.678   5.201
 8020TIP3    H124024   0.079   4.701   5.225
 8020TIP3    H224025   0.166   4.668   5.105
 8021TIP3   OH224026   6.398   5.199   5.511
 8021TIP3    H124027   6.386   5.203   5.606
 8021TIP3    H224028   6.490   5.174   5.500
 8022TIP3   OH224029   4.882   1.915   4.415
 8022TIP3    H124030   4.968   1.876   4.399
 8022TIP3    H224031   4.900   1.989   4.473
 8023TIP3   OH224032   5.087   2.560   0.906
 8023TIP3    H124033   5.045   2.623   0.847
 8023TIP3    H224034   5.039   2.478   0.892
 8024TIP3   OH224035   6.332   2.224   2.349
 8024TIP3    H124036   6.314   2.296   2.410
 8024TIP3    H224037   6.255   2.168   2.353
 8025TIP3   OH224038   7.055   2.121   0.986
 8025TIP3    H124039   7.047   2.147   0.895
 8025TIP3    H224040   7.034   2.200   1.036
 8026TIP3   OH224041   3.128   1.091   2.776
 8026TIP3    H124042   3.133   1.001   2.742
 8026TIP3    H224043   3.219   1.117   2.789
 8027TIP3   OH224044   1.027   0.617   5.227
 8027TIP3    H124045   1.113   0.645   5.194
 8027TIP3    H224046   0.964   0.673   5.180
 8028TIP3   OH224047   4.319   3.489   0.600
 8028TIP3    H124048   4.293   3.545   0.527
 8028TIP3    H224049   4.271   3.524   0.675
 8029TIP3   OH224050   3.530   3.798   4.710
 8029TIP3    H124051   3.615   3.834   4.686
 8029TIP3    H224052   3.501   3.853   4.783
 8030TIP3   OH224053   1.523   3.256   0.044
 8030TIP3    H124054   1.612   3.222   0.039
 8030TIP3    H224055   1.469   3.181   0.066
 8031TIP3   OH224056   4.453   0.141   1.134
 8031TIP3    H124057   4.526   0.143   1.071
 8031TIP3    H224058   4.375   0.155   1.080
 8032TIP3   OH224059   6.893   4.850   3.836
 8032TIP3    H124060   6.890   4.765   3.791
 8032TIP3    H224061   6.947   4.905   3.779
 8033TIP3   OH224062   7.140   2.492   1.646
 8033TIP3    H124063   7.190   2.437   1.706
 8033TIP3    H224064   7.103   2.560   1.703
 8034TIP3   OH224065   6.276   1.146   4.727
 8034TIP3    H124066   6.355   1.147   4.673
 8034TIP3    H224067   6.306   1.123   4.815
 8035TIP3   OH224068   2.563   6.686   3.124
 8035TIP3    H124069   2.555   6.687   3.028
 8035TIP3    H224070   2.520   6.767   3.152
 8036TIP3   OH224071   0.904   5.150   5.049
 8036TIP3    H124072   0.869   5.235   5.077
 8036TIP3    H224073   0.850   5.126   4.973
 8037TIP3   OH224074   7.286   5.445   1.011
 8037TIP3    H124075   7.284   5.535   1.042
 8037TIP3    H224076   7.295   5.393   1.091
 8038TIP3   OH224077   5.950   2.859   0.333
 8038TIP3    H124078   5.924   2.772   0.305
 8038TIP3    H224079   5.922   2.917   0.263
 8039TIP3   OH224080   3.429   5.193   5.310
 8039TIP3    H124081   3.453   5.219   5.399
 8039TIP3    H224082   3.508   5.208   5.258
 8040TIP3   OH224083   4.389   6.221   4.416
 8040TIP3    H124084   4.316   6.265   4.459
 8040TIP3    H224085   4.402   6.140   4.466
 8041TIP3   OH224086   2.304   2.912   0.976
 8041TIP3    H124087   2.305   2.891   0.883
 8041TIP3    H224088   2.256   2.840   1.017
 8042TIP3   OH224089   3.767   3.327   2.350
 8042TIP3    H124090   3.753   3.419   2.331
 8042TIP3    H224091   3.858   3.322   2.380
 8043TIP3   OH224092   4.430   2.698   0.568
 8043TIP3    H124093   4.412   2.613   0.529
 8043TIP3    H224094   4.364   2.756   0.531
 8044TIP3   OH224095   1.201   1.077   2.924
 8044TIP3    H124096   1.178   0.989   2.895
 8044TIP3    H224097   1.118   1.125   2.924
 8045TIP3   OH224098   1.615   3.462   1.594
 8045TIP3    H124099   1.531   3.440   1.553
 8045TIP3    H224100   1.675   3.476   1.521
 8046TIP3   OH224101   4.679   2.227   4.364
 8046TIP3    H124102   4.622   2.301   4.386
 8046TIP3    H224103   4.635   2.183   4.292
 8047TIP3   OH224104   6.799   5.423   3.121
 8047TIP3    H124105   6.751   5.406   3.202
 8047TIP3    H224106   6.824   5.337   3.088
 8048TIP3   OH224107   6.070   4.208   4.788
 8048TIP3    H124108   6.138   4.236   4.727
 8048TIP3    H224109   6.090   4.254   4.870
 8049TIP3   OH224110   4.714   5.265   5.340
 8049TIP3    H124111   4.748   5.281   5.252
 8049TIP3    H224112   4.740   5.341   5.392
 8050TIP3   OH224113   5.404   0.938   4.496
 8050TIP3    H124114   5.470   0.935   4.565
 8050TIP3    H224115   5.405   1.029   4.466
 8051TIP3   OH224116   1.850   0.832   3.890
 8051TIP3    H124117   1.777   0.770   3.884
 8051TIP3    H224118   1.823   0.893   3.959
 8052TIP3   OH224119   4.803   3.366   4.502
 8052TIP3    H124120   4.899   3.362   4.496
 8052TIP3    H224121   4.786   3.434   4.567
 8053TIP3   OH224122   5.000   0.471   1.522
 8053TIP3    H124123   5.030   0.510   1.604
 8053TIP3    H224124   4.905   0.482   1.524
 8054TIP3   OH224125   5.353   2.101   3.064
 8054TIP3    H124126   5.275   2.143   3.099
 8054TIP3    H224127   5.422   2.166   3.076
 8055TIP3   OH224128   4.631   4.821   0.172
 8055TIP3    H124129   4.688   4.867   0.233
 8055TIP3    H224130   4.579   4.763   0.227
 8056TIP3   OH224131   3.002   5.893   5.008
 8056TIP3    H124132   3.008   5.925   4.918
 8056TIP3    H224133   3.058   5.816   5.010
 8057TIP3   OH224134   3.389   0.529   5.547
 8057TIP3    H124135   3.325   0.555   5.614
 8057TIP3    H224136   3.373   0.589   5.474
 8058TIP3   OH224137   3.096   3.204   4.237
 8058TIP3    H124138   3.063   3.117   4.262
 8058TIP3    H224139   3.173   3.217   4.293
 8059TIP3   OH224140   6.639   6.145   0.914
 8059TIP3    H124141   6.709   6.080   0.903
 8059TIP3    H224142   6.612   6.136   1.005
 8060TIP3   OH224143   1.757   3.048   3.165
 8060TIP3    H124144   1.787   2.976   3.110
 8060TIP3    H224145   1.838   3.083   3.204
 8061TIP3   OH224146   2.617   0.567   3.248
 8061TIP3    H124147   2.590   0.536   3.335
 8061TIP3    H224148   2.625   0.662   3.258
 8062TIP3   OH224149   0.522   4.495   5.421
 8062TIP3    H124150   0.556   4.423   5.369
 8062TIP3    H224151   0.504   4.565   5.357
 8063TIP3   OH224152   7.055   1.482   4.957
 8063TIP3    H124153   7.040   1.573   4.934
 8063TIP3    H224154   7.033   1.477   5.050
 8064TIP3   OH224155   4.808   4.528   3.981
 8064TIP3    H124156   4.846   4.514   3.895
 8064TIP3    H224157   4.866   4.592   4.023
 8065TIP3   OH224158   0.988   5.099   3.743
 8065TIP3    H124159   1.025   5.064   3.662
 8065TIP3    H224160   0.943   5.025   3.784
 8066TIP3   OH224161   1.763   5.829   5.383
 8066TIP3    H124162   1.743   5.774   5.459
 8066TIP3    H224163   1.846   5.871   5.406
 8067TIP3   OH224164   1.256   5.184   2.850
 8067TIP3    H124165   1.243   5.224   2.764
 8067TIP3    H224166   1.257   5.257   2.912
 8068TIP3   OH224167   2.488   4.220   4.717
 8068TIP3    H124168   2.479   4.282   4.644
 8068TIP3    H224169   2.572   4.241   4.757
 8069TIP3   OH224170   7.246   0.638   1.414
 8069TIP3    H124171   7.262   0.709   1.353
 8069TIP3    H224172   7.176   0.587   1.374
 8070TIP3   OH224173   0.729   5.208   4.603
 8070TIP3    H124174   0.688   5.288   4.635
 8070TIP3    H224175   0.724   5.215   4.507
 8071TIP3   OH224176   0.908   1.980   2.235
 8071TIP3    H124177   0.850   1.925   2.184
 8071TIP3    H224178   0.970   1.920   2.276
 8072TIP3   OH224179   4.260   2.152   4.031
 8072TIP3    H124180   4.193   2.177   3.968
 8072TIP3    H224181   4.233   2.067   4.064
 8073TIP3   OH224182   3.497   4.803   4.140
 8073TIP3    H124183   3.442   4.831   4.067
 8073TIP3    H224184   3.586   4.829   4.114
 8074TIP3   OH224185   1.875   1.789   1.128
 8074TIP3    H124186   1.812   1.856   1.102
 8074TIP3    H224187   1.891   1.738   1.049
 8075TIP3   OH224188   5.545   2.132   3.656
 8075TIP3    H124189   5.607   2.204   3.668
 8075TIP3    H224190   5.470   2.173   3.612
 8076TIP3   OH224191   3.862   4.299   0.601
 8076TIP3    H124192   3.778   4.346   0.605
 8076TIP3    H224193   3.924   4.364   0.570
 8077TIP3   OH224194   1.291   3.455   1.791
 8077TIP3    H124195   1.333   3.439   1.706
 8077TIP3    H224196   1.239   3.376   1.808
 8078TIP3   OH224197   6.193   5.498   3.632
 8078TIP3    H124198   6.158   5.558   3.698
 8078TIP3    H224199   6.210   5.553   3.556
 8079TIP3   OH224200   2.665   3.380   4.208
 8079TIP3    H124201   2.577   3.386   4.246
 8079TIP3    H224202   2.703   3.467   4.220
 8080TIP3   OH224203   1.582   2.179   3.536
 8080TIP3    H124204   1.555   2.151   3.449
 8080TIP3    H224205   1.597   2.273   3.528
 8081TIP3   OH224206   0.598   0.962   1.886
 8081TIP3    H124207   0.524   1.015   1.860
 8081TIP3    H224208   0.672   0.998   1.838
 8082TIP3   OH224209   6.586   3.022   1.829
 8082TIP3    H124210   6.562   3.106   1.790
 8082TIP3    H224211   6.507   2.968   1.819
 8083TIP3   OH224212   0.838   1.347   1.530
 8083TIP3    H124213   0.764   1.405   1.511
 8083TIP3    H224214   0.812   1.262   1.496
 8084TIP3   OH224215   3.081   6.739   0.109
 8084TIP3    H124216   3.039   6.818   0.144
 8084TIP3    H224217   3.146   6.772   0.047
 8085TIP3   OH224218   1.331   3.612   5.767
 8085TIP3    H124219   1.380   3.575   5.694
 8085TIP3    H224220   1.396   3.627   5.836
 8086TIP3   OH224221   0.414   0.145   0.065
 8086TIP3    H124222   0.363   0.189   0.133
 8086TIP3    H224223   0.405   0.201  -0.012
 8087TIP3   OH224224   5.424   3.344   0.855
 8087TIP3    H124225   5.434   3.293   0.936
 8087TIP3    H224226   5.376   3.422   0.882
 8088TIP3   OH224227   5.014   5.715   1.838
 8088TIP3    H124228   5.005   5.727   1.932
 8088TIP3    H224229   4.967   5.789   1.799
 8089TIP3   OH224230   5.870   4.849   2.794
 8089TIP3    H124231   5.864   4.756   2.819
 8089TIP3    H224232   5.779   4.879   2.791
 8090TIP3   OH224233   0.915   0.645   2.563
 8090TIP3    H124234   0.845   0.672   2.623
 8090TIP3    H224235   0.935   0.555   2.587
 8091TIP3   OH224236   1.410   5.333   1.015
 8091TIP3    H124237   1.461   5.256   1.040
 8091TIP3    H224238   1.339   5.298   0.960
 8092TIP3   OH224239   5.801   5.728   0.807
 8092TIP3    H124240   5.839   5.739   0.720
 8092TIP3    H224241   5.706   5.732   0.793
 8093TIP3   OH224242   3.097   4.708   5.267
 8093TIP3    H124243   3.020   4.739   5.219
 8093TIP3    H224244   3.153   4.669   5.200
 8094TIP3   OH224245   2.588   2.333   1.176
 8094TIP3    H124246   2.583   2.428   1.178
 8094TIP3    H224247   2.507   2.305   1.134
 8095TIP3   OH224248   5.822   2.961   5.461
 8095TIP3    H124249   5.799   2.996   5.547
 8095TIP3    H224250   5.783   2.874   5.459
 8096TIP3   OH224251   5.501   6.317   2.721
 8096TIP3    H124252   5.523   6.410   2.719
 8096TIP3    H224253   5.486   6.294   2.629
 8097TIP3   OH224254   1.444   3.736   3.525
 8097TIP3    H124255   1.441   3.816   3.472
 8097TIP3    H224256   1.535   3.730   3.555
 8098TIP3   OH224257   1.476   0.957   1.221
 8098TIP3    H124258   1.561   0.997   1.204
 8098TIP3    H224259   1.485   0.918   1.308
 8099TIP3   OH224260   2.743   5.429   0.620
 8099TIP3    H124261   2.684   5.415   0.546
 8099TIP3    H224262   2.830   5.434   0.581
 8100TIP3   OH224263   4.924   2.281   2.126
 8100TIP3    H124264   4.929   2.301   2.220
 8100TIP3    H224265   5.008   2.240   2.106
 8101TIP3   OH224266   3.484   2.683   1.911
 8101TIP3    H124267   3.514   2.689   2.002
 8101TIP3    H224268   3.460   2.773   1.888
 8102TIP3   OH224269   3.377   5.637   0.360
 8102TIP3    H124270   3.426   5.559   0.386
 8102TIP3    H224271   3.442   5.692   0.317
 8103TIP3   OH224272   1.186   4.182   2.556
 8103TIP3    H124273   1.203   4.226   2.473
 8103TIP3    H224274   1.099   4.211   2.582
 8104TIP3   OH224275   1.922   5.685   3.574
 8104TIP3    H124276   1.948   5.743   3.502
 8104TIP3    H224277   1.994   5.622   3.581
 8105TIP3   OH224278   0.098   5.959   5.339
 8105TIP3    H124279   0.095   5.880   5.393
 8105TIP3    H224280   0.161   6.016   5.384
 8106TIP3   OH224281   5.279   3.621   4.582
 8106TIP3    H124282   5.195   3.587   4.614
 8106TIP3    H224283   5.300   3.566   4.507
 8107TIP3   OH224284   3.415   4.362   2.956
 8107TIP3    H124285   3.488   4.374   3.016
 8107TIP3    H224286   3.413   4.443   2.904
 8108TIP3   OH224287   1.448   4.297   5.644
 8108TIP3    H124288   1.420   4.385   5.668
 8108TIP3    H224289   1.499   4.267   5.718
 8109TIP3   OH224290   4.559   3.326   2.396
 8109TIP3    H124291   4.618   3.255   2.422
 8109TIP3    H224292   4.613   3.405   2.400
 8110TIP3   OH224293   4.599   5.192   4.948
 8110TIP3    H124294   4.621   5.246   4.872
 8110TIP3    H224295   4.507   5.169   4.936
 8111TIP3   OH224296   5.616   1.048   2.645
 8111TIP3    H124297   5.529   1.016   2.670
 8111TIP3    H224298   5.599   1.117   2.581
 8112TIP3   OH224299   3.177   4.237   5.119
 8112TIP3    H124300   3.173   4.187   5.201
 8112TIP3    H224301   3.109   4.198   5.064
 8113TIP3   OH224302   1.522   5.168   3.126
 8113TIP3    H124303   1.481   5.084   3.147
 8113TIP3    H224304   1.616   5.151   3.133
 8114TIP3   OH224305   4.458   4.895   4.740
 8114TIP3    H124306   4.431   4.806   4.718
 8114TIP3    H224307   4.378   4.938   4.768
 8115TIP3   OH224308   2.883   0.835   5.435
 8115TIP3    H124309   2.799   0.792   5.450
 8115TIP3    H224310   2.934   0.770   5.386
 8116TIP3   OH224311   4.940   4.158   4.799
 8116TIP3    H124312   4.940   4.069   4.766
 8116TIP3    H224313   5.007   4.159   4.867
 8117TIP3   OH224314   5.789   2.216   0.011
 8117TIP3    H124315   5.731   2.284   0.044
 8117TIP3    H224316   5.836   2.185   0.088
 8118TIP3   OH224317   5.320   3.353   2.798
 8118TIP3    H124318   5.331   3.381   2.889
 8118TIP3    H224319   5.376   3.411   2.748
 8119TIP3   OH224320   4.240   0.529   5.626
 8119TIP3    H124321   4.208   0.465   5.562
 8119TIP3    H224322   4.256   0.608   5.575
 8120TIP3   OH224323   0.700   1.000   3.351
 8120TIP3    H124324   0.748   1.073   3.313
 8120TIP3    H224325   0.752   0.923   3.327
 8121TIP3   OH224326   2.433   5.776   1.159
 8121TIP3    H124327   2.518   5.773   1.116
 8121TIP3    H224328   2.448   5.827   1.239
 8122TIP3   OH224329   4.400   4.719   5.451
 8122TIP3    H124330   4.368   4.753   5.367
 8122TIP3    H224331   4.440   4.635   5.429
 8123TIP3   OH224332   0.391   0.079   5.170
 8123TIP3    H124333   0.338   0.091   5.091
 8123TIP3    H224334   0.449   0.155   5.172
 8124TIP3   OH224335   3.847   1.278   1.116
 8124TIP3    H124336   3.787   1.326   1.059
 8124TIP3    H224337   3.927   1.330   1.117
 8125TIP3   OH224338   4.218   3.433   5.638
 8125TIP3    H124339   4.295   3.409   5.586
 8125TIP3    H224340   4.144   3.402   5.587
 8126TIP3   OH224341   1.657   5.257   4.656
 8126TIP3    H124342   1.689   5.276   4.568
 8126TIP3    H224343   1.680   5.334   4.707
 8127TIP3   OH224344   6.411   5.029   4.269
 8127TIP3    H124345   6.451   5.115   4.284
 8127TIP3    H224346   6.469   4.968   4.315
 8128TIP3   OH224347   1.204   4.085   4.165
 8128TIP3    H124348   1.208   4.000   4.121
 8128TIP3    H224349   1.294   4.102   4.192
 8129TIP3   OH224350   2.045   3.104   5.540
 8129TIP3    H124351   2.029   3.117   5.447
 8129TIP3    H224352   2.071   3.012   5.547
 8130TIP3   OH224353   1.626   2.742   5.734
 8130TIP3    H124354   1.590   2.819   5.691
 8130TIP3    H224355   1.721   2.749   5.720
 8131TIP3   OH224356   4.983   5.598   3.424
 8131TIP3    H124357   4.962   5.538   3.353
 8131TIP3    H224358   4.959   5.550   3.503
 8132TIP3   OH224359   6.939   4.929   1.788
 8132TIP3    H124360   7.012   4.910   1.729
 8132TIP3    H224361   6.889   4.997   1.744
 8133TIP3   OH224362   2.289   3.181   2.726
 8133TIP3    H124363   2.306   3.264   2.682
 8133TIP3    H224364   2.286   3.116   2.656
 8134TIP3   OH224365   2.827   3.161   2.187
 8134TIP3    H124366   2.799   3.170   2.279
 8134TIP3    H224367   2.908   3.212   2.182
 8135TIP3   OH224368   5.080   6.370   2.688
 8135TIP3    H124369   5.122   6.302   2.636
 8135TIP3    H224370   5.152   6.416   2.731
 8136TIP3   OH224371   4.896   0.462   0.610
 8136TIP3    H124372   4.890   0.443   0.517
 8136TIP3    H224373   4.984   0.496   0.622
 8137TIP3   OH224374   3.088   6.073   1.818
 8137TIP3    H124375   3.123   5.990   1.850
 8137TIP3    H224376   3.017   6.094   1.877
 8138TIP3   OH224377   5.675   2.598   1.626
 8138TIP3    H124378   5.618   2.573   1.552
 8138TIP3    H224379   5.703   2.687   1.606
 8139TIP3   OH224380   4.124   4.741   2.545
 8139TIP3    H124381   4.081   4.798   2.482
 8139TIP3    H224382   4.113   4.653   2.510
 8140TIP3   OH224383   0.505   5.232   0.126
 8140TIP3    H124384   0.588   5.198   0.161
 8140TIP3    H224385   0.482   5.171   0.056
 8141TIP3   OH224386   2.383   1.441   4.436
 8141TIP3    H124387   2.420   1.527   4.413
 8141TIP3    H224388   2.328   1.459   4.513
 8142TIP3   OH224389   3.900   2.332   5.779
 8142TIP3    H124390   3.907   2.427   5.769
 8142TIP3    H224391   3.878   2.300   5.692
 8143TIP3   OH224392   5.278   3.335   2.054
 8143TIP3    H124393   5.371   3.345   2.037
 8143TIP3    H224394   5.273   3.288   2.138
 8144TIP3   OH224395   1.674   1.333   1.016
 8144TIP3    H124396   1.674   1.413   1.068
 8144TIP3    H224397   1.584   1.302   1.018
 8145TIP3   OH224398   0.998   1.335   4.210
 8145TIP3    H124399   0.985   1.245   4.180
 8145TIP3    H224400   0.928   1.385   4.167
 8146TIP3   OH224401   5.661   3.109   0.651
 8146TIP3    H124402   5.676   3.196   0.615
 8146TIP3    H224403   5.579   3.080   0.612
 8147TIP3   OH224404   1.519   0.289   1.903
 8147TIP3    H124405   1.471   0.221   1.855
 8147TIP3    H224406   1.466   0.305   1.981
 8148TIP3   OH224407   2.050   2.112   4.555
 8148TIP3    H124408   2.003   2.029   4.542
 8148TIP3    H224409   2.017   2.169   4.485
 8149TIP3   OH224410   4.199   5.203   3.457
 8149TIP3    H124411   4.228   5.291   3.481
 8149TIP3    H224412   4.137   5.178   3.525
 8150TIP3   OH224413   1.671   5.900   5.655
 8150TIP3    H124414   1.677   5.962   5.728
 8150TIP3    H224415   1.662   5.956   5.577
 8151TIP3   OH224416   6.348   0.516   4.523
 8151TIP3    H124417   6.439   0.485   4.522
 8151TIP3    H224418   6.322   0.515   4.431
 8152TIP3   OH224419   0.218   6.462   5.162
 8152TIP3    H124420   0.165   6.406   5.105
 8152TIP3    H224421   0.201   6.428   5.250
 8153TIP3   OH224422   1.072   4.746   5.225
 8153TIP3    H124423   1.129   4.720   5.298
 8153TIP3    H224424   1.132   4.766   5.154
 8154TIP3   OH224425   2.662   1.821   3.983
 8154TIP3    H124426   2.672   1.745   4.040
 8154TIP3    H224427   2.647   1.784   3.896
 8155TIP3   OH224428   5.304   5.177   3.644
 8155TIP3    H124429   5.351   5.095   3.657
 8155TIP3    H224430   5.239   5.157   3.577
 8156TIP3   OH224431   4.617   6.076   1.838
 8156TIP3    H124432   4.653   6.001   1.885
 8156TIP3    H224433   4.594   6.139   1.907
 8157TIP3   OH224434   1.456   5.899   3.084
 8157TIP3    H124435   1.364   5.903   3.058
 8157TIP3    H224436   1.499   5.856   3.010
 8158TIP3   OH224437   3.773   0.070   4.899
 8158TIP3    H124438   3.748   0.077   4.807
 8158TIP3    H224439   3.719   0.135   4.944
 8159TIP3   OH224440   5.420   5.037   2.369
 8159TIP3    H124441   5.479   5.062   2.440
 8159TIP3    H224442   5.468   4.969   2.321
 8160TIP3   OH224443   5.640   5.062   4.956
 8160TIP3    H124444   5.675   5.008   5.028
 8160TIP3    H224445   5.577   5.120   4.998
 8161TIP3   OH224446   0.834   0.443   0.608
 8161TIP3    H124447   0.852   0.526   0.652
 8161TIP3    H224448   0.906   0.386   0.634
 8162TIP3   OH224449   1.493   5.919   4.847
 8162TIP3    H124450   1.535   6.002   4.826
 8162TIP3    H224451   1.441   5.937   4.925
 8163TIP3   OH224452   5.192   3.740   5.411
 8163TIP3    H124453   5.179   3.695   5.327
 8163TIP3    H224454   5.287   3.749   5.419
 8164TIP3   OH224455   2.961   2.889   2.141
 8164TIP3    H124456   2.898   2.960   2.136
 8164TIP3    H224457   3.023   2.907   2.071
 8165TIP3   OH224458   0.528   0.530   1.778
 8165TIP3    H124459   0.445   0.521   1.825
 8165TIP3    H224460   0.518   0.472   1.703
 8166TIP3   OH224461   5.663   1.390   1.117
 8166TIP3    H124462   5.705   1.459   1.065
 8166TIP3    H224463   5.721   1.379   1.192
 8167TIP3   OH224464   1.329   5.472   1.280
 8167TIP3    H124465   1.414   5.488   1.321
 8167TIP3    H224466   1.348   5.465   1.186
 8168TIP3   OH224467   6.177   1.992   4.332
 8168TIP3    H124468   6.214   2.074   4.299
 8168TIP3    H224469   6.253   1.937   4.350
 8169TIP3   OH224470   2.563   0.958   1.128
 8169TIP3    H124471   2.504   0.906   1.182
 8169TIP3    H224472   2.642   0.904   1.121
 8170TIP3   OH224473   3.235   3.703   3.657
 8170TIP3    H124474   3.253   3.612   3.632
 8170TIP3    H224475   3.315   3.751   3.632
 8171TIP3   OH224476   5.060   1.413   3.024
 8171TIP3    H124477   4.978   1.385   3.064
 8171TIP3    H224478   5.119   1.430   3.098
 8172TIP3   OH224479   2.494   0.891   4.259
 8172TIP3    H124480   2.587   0.889   4.279
 8172TIP3    H224481   2.475   0.803   4.224
 8173TIP3   OH224482   1.259   3.111   1.421
 8173TIP3    H124483   1.238   3.105   1.327
 8173TIP3    H224484   1.297   3.198   1.432
 8174TIP3   OH224485   3.691   6.508   5.642
 8174TIP3    H124486   3.779   6.488   5.610
 8174TIP3    H224487   3.696   6.491   5.736
 8175TIP3   OH224488   4.943   3.424   5.074
 8175TIP3    H124489   4.991   3.362   5.020
 8175TIP3    H224490   5.008   3.459   5.135
 8176TIP3   OH224491   3.717   3.580   2.268
 8176TIP3    H124492   3.667   3.608   2.192
 8176TIP3    H224493   3.796   3.634   2.266
 8177TIP3   OH224494   1.129   4.974   3.517
 8177TIP3    H124495   1.152   5.057   3.477
 8177TIP3    H224496   1.180   4.909   3.468
 8178TIP3   OH224497   1.077   6.478   3.818
 8178TIP3    H124498   1.019   6.554   3.826
 8178TIP3    H224499   1.034   6.420   3.756
 8179TIP3   OH224500   6.030   2.281   3.569
 8179TIP3    H124501   5.990   2.252   3.487
 8179TIP3    H224502   5.986   2.230   3.637
 8180TIP3   OH224503   6.627   0.423   1.928
 8180TIP3    H124504   6.699   0.483   1.911
 8180TIP3    H224505   6.548   0.477   1.923
 8181TIP3   OH224506   7.055   5.784   3.798
 8181TIP3    H124507   7.118   5.719   3.830
 8181TIP3    H224508   7.068   5.860   3.855
 8182TIP3   OH224509   5.886   4.468   5.783
 8182TIP3    H124510   5.907   4.523   5.858
 8182TIP3    H224511   5.891   4.378   5.816
 8183TIP3   OH224512   0.437   5.729   4.699
 8183TIP3    H124513   0.432   5.813   4.653
 8183TIP3    H224514   0.523   5.730   4.742
 8184TIP3   OH224515   0.351   1.647   3.031
 8184TIP3    H124516   0.410   1.719   3.054
 8184TIP3    H224517   0.340   1.598   3.113
 8185TIP3   OH224518   2.396   0.590   4.782
 8185TIP3    H124519   2.357   0.503   4.790
 8185TIP3    H224520   2.417   0.598   4.689
 8186TIP3   OH224521   5.681   2.789   0.604
 8186TIP3    H124522   5.609   2.755   0.658
 8186TIP3    H224523   5.678   2.884   0.618
 8187TIP3   OH224524   2.102   5.474   0.975
 8187TIP3    H124525   2.052   5.432   1.046
 8187TIP3    H224526   2.111   5.405   0.909
 8188TIP3   OH224527   2.171   2.129   3.332
 8188TIP3    H124528   2.104   2.075   3.289
 8188TIP3    H224529   2.254   2.097   3.296
 8189TIP3   OH224530   4.966   0.361   5.542
 8189TIP3    H124531   4.953   0.456   5.538
 8189TIP3    H224532   4.889   0.325   5.498
 8190TIP3   OH224533   5.412   1.424   2.749
 8190TIP3    H124534   5.346   1.367   2.789
 8190TIP3    H224535   5.373   1.450   2.666
 8191TIP3   OH224536   1.905   6.475   5.147
 8191TIP3    H124537   1.955   6.550   5.117
 8191TIP3    H224538   1.962   6.431   5.210
 8192TIP3   OH224539   4.203   4.977   4.434
 8192TIP3    H124540   4.284   5.025   4.414
 8192TIP3    H224541   4.174   4.942   4.350
 8193TIP3   OH224542   0.667   2.629   1.150
 8193TIP3    H124543   0.666   2.698   1.084
 8193TIP3    H224544   0.728   2.660   1.217
 8194TIP3   OH224545   5.078   3.501   0.493
 8194TIP3    H124546   4.990   3.516   0.458
 8194TIP3    H224547   5.108   3.421   0.450
 8195TIP3   OH224548   3.113   4.453   4.870
 8195TIP3    H124549   3.030   4.454   4.918
 8195TIP3    H224550   3.108   4.374   4.816
 8196TIP3   OH224551   5.858   5.309   3.107
 8196TIP3    H124552   5.800   5.384   3.119
 8196TIP3    H224553   5.832   5.272   3.022
 8197TIP3   OH224554   1.805   3.913   4.607
 8197TIP3    H124555   1.762   3.837   4.647
 8197TIP3    H224556   1.745   3.940   4.537
 8198TIP3   OH224557   1.592   3.246   4.655
 8198TIP3    H124558   1.533   3.321   4.660
 8198TIP3    H224559   1.679   3.284   4.646
 8199TIP3   OH224560   5.551   4.762   3.461
 8199TIP3    H124561   5.571   4.837   3.404
 8199TIP3    H224562   5.636   4.727   3.487
 8200TIP3   OH224563   6.471   0.705   3.722
 8200TIP3    H124564   6.500   0.704   3.631
 8200TIP3    H224565   6.414   0.781   3.728
 8201TIP3   OH224566   4.827   4.859   2.929
 8201TIP3    H124567   4.772   4.812   2.867
 8201TIP3    H224568   4.782   4.942   2.943
 8202TIP3   OH224569   3.017   3.843   1.403
 8202TIP3    H124570   3.012   3.795   1.486
 8202TIP3    H224571   3.084   3.798   1.353
 8203TIP3   OH224572   3.357   5.462   3.049
 8203TIP3    H124573   3.338   5.551   3.079
 8203TIP3    H224574   3.271   5.425   3.031
 8204TIP3   OH224575   5.604   5.094   2.588
 8204TIP3    H124576   5.643   5.180   2.576
 8204TIP3    H224577   5.679   5.033   2.588
 8205TIP3   OH224578   3.508   0.870   1.536
 8205TIP3    H124579   3.532   0.885   1.444
 8205TIP3    H224580   3.590   0.850   1.579
 8206TIP3   OH224581   2.840   1.264   4.283
 8206TIP3    H124582   2.792   1.295   4.360
 8206TIP3    H224583   2.869   1.176   4.307
 8207TIP3   OH224584   0.900   4.018   2.080
 8207TIP3    H124585   0.825   4.018   2.140
 8207TIP3    H224586   0.862   4.005   1.993
 8208TIP3   OH224587   6.883   5.036   5.637
 8208TIP3    H124588   6.797   5.059   5.671
 8208TIP3    H224589   6.873   4.946   5.605
 8209TIP3   OH224590   6.960   2.840   5.605
 8209TIP3    H124591   6.916   2.840   5.691
 8209TIP3    H224592   6.890   2.823   5.542
 8210TIP3   OH224593   2.688   5.858   5.583
 8210TIP3    H124594   2.622   5.853   5.653
 8210TIP3    H224595   2.771   5.868   5.629
 8211TIP3   OH224596   6.967  -0.020   5.526
 8211TIP3    H124597   7.002   0.025   5.602
 8211TIP3    H224598   6.966   0.046   5.457
 8212TIP3   OH224599   3.909   5.945   1.309
 8212TIP3    H124600   3.963   5.981   1.239
 8212TIP3    H224601   3.873   6.022   1.353
 8213TIP3   OH224602   6.099   6.661   3.389
 8213TIP3    H124603   6.079   6.592   3.326
 8213TIP3    H224604   6.194   6.656   3.401
 8214TIP3   OH224605   2.316   1.158   5.029
 8214TIP3    H124606   2.248   1.224   5.040
 8214TIP3    H224607   2.270   1.084   4.989
 8215TIP3   OH224608   4.166   3.226   4.095
 8215TIP3    H124609   4.218   3.241   4.016
 8215TIP3    H224610   4.231   3.213   4.165
 8216TIP3   OH224611   5.107   6.558   3.656
 8216TIP3    H124612   5.136   6.526   3.741
 8216TIP3    H224613   5.011   6.555   3.661
 8217TIP3   OH224614   5.177   2.420   0.623
 8217TIP3    H124615   5.139   2.415   0.711
 8217TIP3    H224616   5.175   2.514   0.603
 8218TIP3   OH224617   3.266   0.183   4.100
 8218TIP3    H124618   3.356   0.186   4.133
 8218TIP3    H224619   3.217   0.137   4.168
 8219TIP3   OH224620   0.190   3.818   3.118
 8219TIP3    H124621   0.256   3.861   3.173
 8219TIP3    H224622   0.240   3.758   3.062
 8220TIP3   OH224623   0.660   4.824   0.595
 8220TIP3    H124624   0.713   4.792   0.668
 8220TIP3    H224625   0.611   4.897   0.632
 8221TIP3   OH224626   5.401   1.337   0.912
 8221TIP3    H124627   5.483   1.340   0.863
 8221TIP3    H224628   5.417   1.272   0.981
 8222TIP3   OH224629   0.201   2.377   2.206
 8222TIP3    H124630   0.276   2.356   2.150
 8222TIP3    H224631   0.195   2.304   2.267
 8223TIP3   OH224632   3.843   0.711   3.114
 8223TIP3    H124633   3.859   0.649   3.184
 8223TIP3    H224634   3.752   0.738   3.126
 8224TIP3   OH224635   4.722   5.922   3.562
 8224TIP3    H124636   4.780   5.998   3.561
 8224TIP3    H224637   4.775   5.853   3.602
 8225TIP3   OH224638   2.560   2.538   5.199
 8225TIP3    H124639   2.544   2.454   5.241
 8225TIP3    H224640   2.478   2.586   5.209
 8226TIP3   OH224641   4.839   6.646   4.831
 8226TIP3    H124642   4.916   6.591   4.847
 8226TIP3    H224643   4.786   6.637   4.910
 8227TIP3   OH224644   2.310   6.428   3.698
 8227TIP3    H124645   2.321   6.374   3.776
 8227TIP3    H224646   2.396   6.471   3.686
 8228TIP3   OH224647   4.021   4.415   4.053
 8228TIP3    H124648   3.979   4.369   3.981
 8228TIP3    H224649   4.058   4.494   4.012
 8229TIP3   OH224650   0.822   6.683   0.007
 8229TIP3    H124651   0.761   6.746   0.045
 8229TIP3    H224652   0.845   6.624   0.079
 8230TIP3   OH224653   1.042   3.995   1.831
 8230TIP3    H124654   1.046   3.916   1.776
 8230TIP3    H224655   1.051   4.068   1.770
 8231TIP3   OH224656   1.299   2.195   2.916
 8231TIP3    H124657   1.379   2.236   2.948
 8231TIP3    H224658   1.287   2.118   2.973
 8232TIP3   OH224659   1.458   6.640   3.983
 8232TIP3    H124660   1.502   6.570   4.030
 8232TIP3    H224661   1.438   6.706   4.050
 8233TIP3   OH224662   3.458   4.572   3.881
 8233TIP3    H124663   3.424   4.519   3.954
 8233TIP3    H224664   3.478   4.507   3.813
 8234TIP3   OH224665   6.490   1.978   1.864
 8234TIP3    H124666   6.456   1.948   1.780
 8234TIP3    H224667   6.494   2.073   1.856
 8235TIP3   OH224668   4.863   2.357   5.010
 8235TIP3    H124669   4.812   2.414   4.954
 8235TIP3    H224670   4.900   2.415   5.077
 8236TIP3   OH224671   1.923   3.712   4.806
 8236TIP3    H124672   1.844   3.667   4.836
 8236TIP3    H224673   1.910   3.803   4.831
 8237TIP3   OH224674   5.320   2.791   3.986
 8237TIP3    H124675   5.265   2.713   3.979
 8237TIP3    H224676   5.407   2.762   3.960
 8238TIP3   OH224677   0.496   5.523   5.236
 8238TIP3    H124678   0.568   5.555   5.182
 8238TIP3    H224679   0.538   5.491   5.316
 8239TIP3   OH224680   6.638   0.231   4.339
 8239TIP3    H124681   6.679   0.167   4.397
 8239TIP3    H224682   6.637   0.312   4.390
 8240TIP3   OH224683   4.082   6.211   4.604
 8240TIP3    H124684   4.174   6.192   4.622
 8240TIP3    H224685   4.062   6.286   4.660
 8241TIP3   OH224686   4.861   4.384   1.820
 8241TIP3    H124687   4.904   4.333   1.888
 8241TIP3    H224688   4.807   4.447   1.868
 8242TIP3   OH224689   1.957   5.300   1.821
 8242TIP3    H124690   1.991   5.386   1.795
 8242TIP3    H224691   2.030   5.240   1.807
 8243TIP3   OH224692   1.780   6.088   3.371
 8243TIP3    H124693   1.738   6.021   3.426
 8243TIP3    H224694   1.707   6.132   3.327
 8244TIP3   OH224695   5.353   0.568   5.551
 8244TIP3    H124696   5.349   0.476   5.576
 8244TIP3    H224697   5.368   0.567   5.456
 8245TIP3   OH224698   4.776   0.154   0.320
 8245TIP3    H124699   4.737   0.140   0.234
 8245TIP3    H224700   4.714   0.114   0.381
 8246TIP3   OH224701   3.898   0.779   0.086
 8246TIP3    H124702   3.868   0.711   0.146
 8246TIP3    H224703   3.992   0.784   0.100
 8247TIP3   OH224704   0.199   3.424   4.079
 8247TIP3    H124705   0.229   3.512   4.104
 8247TIP3    H224706   0.253   3.401   4.004
 8248TIP3   OH224707   1.677   4.843   2.987
 8248TIP3    H124708   1.737   4.770   2.970
 8248TIP3    H224709   1.713   4.887   3.063
 8249TIP3   OH224710   0.800   1.001   3.858
 8249TIP3    H124711   0.751   1.048   3.790
 8249TIP3    H224712   0.838   0.926   3.812
 8250TIP3   OH224713   2.829   5.528   3.987
 8250TIP3    H124714   2.788   5.600   4.035
 8250TIP3    H224715   2.793   5.535   3.898
 8251TIP3   OH224716   6.461   0.796   2.198
 8251TIP3    H124717   6.394   0.781   2.131
 8251TIP3    H224718   6.431   0.875   2.244
 8252TIP3   OH224719   0.528   5.439   0.592
 8252TIP3    H124720   0.436   5.417   0.601
 8252TIP3    H224721   0.530   5.535   0.590
 8253TIP3   OH224722   6.179   1.701   0.282
 8253TIP3    H124723   6.140   1.673   0.365
 8253TIP3    H224724   6.119   1.669   0.215
 8254TIP3   OH224725   3.455   2.803   2.669
 8254TIP3    H124726   3.418   2.872   2.724
 8254TIP3    H224727   3.481   2.735   2.731
 8255TIP3   OH224728   2.439   1.488   1.937
 8255TIP3    H124729   2.455   1.526   1.851
 8255TIP3    H224730   2.524   1.490   1.981
 8256TIP3   OH224731   6.938   2.329   3.204
 8256TIP3    H124732   6.920   2.290   3.118
 8256TIP3    H224733   6.957   2.421   3.186
 8257TIP3   OH224734   3.812   2.441   5.096
 8257TIP3    H124735   3.810   2.454   5.191
 8257TIP3    H224736   3.758   2.511   5.061
 8258TIP3   OH224737   6.652   0.927   4.919
 8258TIP3    H124738   6.746   0.930   4.936
 8258TIP3    H224739   6.634   0.834   4.903
 8259TIP3   OH224740   7.107   5.332   3.143
 8259TIP3    H124741   7.054   5.398   3.098
 8259TIP3    H224742   7.173   5.383   3.190
 8260TIP3   OH224743   1.477   0.528   1.366
 8260TIP3    H124744   1.546   0.483   1.318
 8260TIP3    H224745   1.422   0.566   1.297
 8261TIP3   OH224746   3.184   4.330   5.852
 8261TIP3    H124747   3.133   4.340   5.933
 8261TIP3    H224748   3.135   4.379   5.786
 8262TIP3   OH224749   2.306   6.610   2.965
 8262TIP3    H124750   2.368   6.662   2.914
 8262TIP3    H224751   2.244   6.673   3.001
 8263TIP3   OH224752   3.632   0.869   5.222
 8263TIP3    H124753   3.550   0.872   5.172
 8263TIP3    H224754   3.680   0.947   5.193
 8264TIP3   OH224755   2.674   5.110   1.014
 8264TIP3    H124756   2.711   5.075   0.934
 8264TIP3    H224757   2.685   5.205   1.007
 8265TIP3   OH224758   4.759   0.221   2.913
 8265TIP3    H124759   4.710   0.226   2.995
 8265TIP3    H224760   4.833   0.164   2.933
 8266TIP3   OH224761   4.295   1.402   1.133
 8266TIP3    H124762   4.309   1.488   1.172
 8266TIP3    H224763   4.370   1.389   1.076
 8267TIP3   OH224764   3.672   3.913   5.350
 8267TIP3    H124765   3.760   3.906   5.312
 8267TIP3    H224766   3.635   3.825   5.339
 8268TIP3   OH224767   2.707   2.521   4.040
 8268TIP3    H124768   2.715   2.443   4.095
 8268TIP3    H224769   2.710   2.594   4.102
 8269TIP3   OH224770   6.958   6.186   2.887
 8269TIP3    H124771   6.921   6.101   2.909
 8269TIP3    H224772   7.046   6.185   2.925
 8270TIP3   OH224773   6.509   0.164   1.825
 8270TIP3    H124774   6.577   0.221   1.860
 8270TIP3    H224775   6.463   0.130   1.902
 8271TIP3   OH224776   2.080   3.764   2.858
 8271TIP3    H124777   1.987   3.748   2.847
 8271TIP3    H224778   2.105   3.813   2.779
 8272TIP3   OH224779   2.011   1.215   2.604
 8272TIP3    H124780   2.003   1.232   2.510
 8272TIP3    H224781   1.936   1.260   2.643
 8273TIP3   OH224782   3.714   0.811   4.954
 8273TIP3    H124783   3.790   0.753   4.960
 8273TIP3    H224784   3.673   0.788   4.871
 8274TIP3   OH224785   6.254   2.111   1.168
 8274TIP3    H124786   6.315   2.067   1.109
 8274TIP3    H224787   6.297   2.105   1.254
 8275TIP3   OH224788   5.518   5.138   1.434
 8275TIP3    H124789   5.513   5.043   1.438
 8275TIP3    H224790   5.479   5.168   1.516
 8276TIP3   OH224791   0.871   6.066   3.659
 8276TIP3    H124792   0.779   6.091   3.661
 8276TIP3    H224793   0.885   6.030   3.571
 8277TIP3   OH224794   3.423   2.980   5.641
 8277TIP3    H124795   3.477   3.017   5.572
 8277TIP3    H224796   3.375   3.055   5.677
 8278TIP3   OH224797   5.153   2.581   2.075
 8278TIP3    H124798   5.099   2.535   2.010
 8278TIP3    H224799   5.203   2.512   2.118
 8279TIP3   OH224800   6.908   6.069   3.845
 8279TIP3    H124801   6.839   6.019   3.801
 8279TIP3    H224802   6.868   6.099   3.927
 8280TIP3   OH224803   6.980   6.005   5.530
 8280TIP3    H124804   6.946   5.916   5.534
 8280TIP3    H224805   7.073   5.996   5.554
 8281TIP3   OH224806   2.942   4.835   0.310
 8281TIP3    H124807   3.012   4.810   0.370
 8281TIP3    H224808   2.861   4.811   0.356
 8282TIP3   OH224809   6.247   3.259   2.597
 8282TIP3    H124810   6.236   3.208   2.678
 8282TIP3    H224811   6.337   3.293   2.603
 8283TIP3   OH224812   1.808   6.758   2.837
 8283TIP3    H124813   1.768   6.761   2.750
 8283TIP3    H224814   1.749   6.809   2.893
 8284TIP3   OH224815   4.324   6.343   5.075
 8284TIP3    H124816   4.252   6.285   5.097
 8284TIP3    H224817   4.381   6.341   5.152
 8285TIP3   OH224818   2.365   2.061   0.678
 8285TIP3    H124819   2.436   1.999   0.691
 8285TIP3    H224820   2.396   2.142   0.717
 8286TIP3   OH224821   0.640   3.684   5.644
 8286TIP3    H124822   0.577   3.751   5.672
 8286TIP3    H224823   0.603   3.602   5.677
 8287TIP3   OH224824   3.102   4.515   2.498
 8287TIP3    H124825   3.153   4.435   2.487
 8287TIP3    H224826   3.160   4.573   2.548
 8288TIP3   OH224827   4.246   0.704   5.345
 8288TIP3    H124828   4.327   0.752   5.329
 8288TIP3    H224829   4.214   0.739   5.428
 8289TIP3   OH224830   3.190   6.450   1.613
 8289TIP3    H124831   3.107   6.437   1.658
 8289TIP3    H224832   3.166   6.486   1.528
 8290TIP3   OH224833   2.335   5.555   0.586
 8290TIP3    H124834   2.245   5.572   0.612
 8290TIP3    H224835   2.350   5.612   0.510
 8291TIP3   OH224836   3.366   6.097   5.386
 8291TIP3    H124837   3.405   6.156   5.451
 8291TIP3    H224838   3.287   6.144   5.357
 8292TIP3   OH224839   2.504   1.122   1.871
 8292TIP3    H124840   2.469   1.034   1.860
 8292TIP3    H224841   2.447   1.163   1.936
 8293TIP3   OH224842   2.140   4.363   3.878
 8293TIP3    H124843   2.121   4.269   3.869
 8293TIP3    H224844   2.235   4.367   3.881
 8294TIP3   OH224845   4.722   5.031   3.229
 8294TIP3    H124846   4.707   5.046   3.135
 8294TIP3    H224847   4.712   4.937   3.240
 8295TIP3   OH224848   6.270   1.480   5.835
 8295TIP3    H124849   6.308   1.406   5.788
 8295TIP3    H224850   6.211   1.520   5.771
 8296TIP3   OH224851   5.633   2.917   4.146
 8296TIP3    H124852   5.596   2.921   4.235
 8296TIP3    H224853   5.666   2.827   4.139
 8297TIP3   OH224854   3.536   5.220   2.516
 8297TIP3    H124855   3.520   5.180   2.430
 8297TIP3    H224856   3.621   5.263   2.507
 8298TIP3   OH224857   2.698   3.670   0.441
 8298TIP3    H124858   2.745   3.634   0.517
 8298TIP3    H224859   2.616   3.620   0.437
 8299TIP3   OH224860   0.244   6.143   5.449
 8299TIP3    H124861   0.285   6.138   5.536
 8299TIP3    H224862   0.191   6.223   5.453
 8300TIP3   OH224863   6.080   0.644   1.124
 8300TIP3    H124864   6.029   0.568   1.151
 8300TIP3    H224865   6.060   0.711   1.190
 8301TIP3   OH224866   3.862   5.894   2.183
 8301TIP3    H124867   3.796   5.901   2.114
 8301TIP3    H224868   3.861   5.801   2.206
 8302TIP3   OH224869   2.181   0.925   1.746
 8302TIP3    H124870   2.146   1.010   1.772
 8302TIP3    H224871   2.189   0.931   1.650
 8303TIP3   OH224872   3.352   3.454   3.589
 8303TIP3    H124873   3.372   3.421   3.676
 8303TIP3    H224874   3.392   3.390   3.529
 8304TIP3   OH224875   4.654   0.655   1.655
 8304TIP3    H124876   4.707   0.709   1.713
 8304TIP3    H224877   4.680   0.683   1.567
 8305TIP3   OH224878   2.344   1.758   2.131
 8305TIP3    H124879   2.345   1.845   2.173
 8305TIP3    H224880   2.435   1.746   2.102
 8306TIP3   OH224881   4.441   2.037   1.580
 8306TIP3    H124882   4.520   1.996   1.615
 8306TIP3    H224883   4.430   2.116   1.633
 8307TIP3   OH224884   2.133   2.627   0.276
 8307TIP3    H124885   2.110   2.717   0.299
 8307TIP3    H224886   2.193   2.636   0.202
 8308TIP3   OH224887   5.326   5.334   5.298
 8308TIP3    H124888   5.246   5.302   5.340
 8308TIP3    H224889   5.334   5.425   5.327
 8309TIP3   OH224890   6.759   3.811   5.093
 8309TIP3    H124891   6.746   3.770   5.007
 8309TIP3    H224892   6.672   3.840   5.119
 8310TIP3   OH224893   1.647   0.976   0.556
 8310TIP3    H124894   1.594   1.014   0.486
 8310TIP3    H224895   1.705   1.048   0.584
 8311TIP3   OH224896   6.902   6.732   0.640
 8311TIP3    H124897   6.855   6.794   0.696
 8311TIP3    H224898   6.833   6.690   0.588
 8312TIP3   OH224899   2.602   4.556   4.191
 8312TIP3    H124900   2.609   4.635   4.245
 8312TIP3    H224901   2.539   4.501   4.237
 8313TIP3   OH224902   3.233   0.603   0.765
 8313TIP3    H124903   3.328   0.619   0.763
 8313TIP3    H224904   3.225   0.511   0.791
 8314TIP3   OH224905   1.494   3.826   2.548
 8314TIP3    H124906   1.399   3.840   2.538
 8314TIP3    H224907   1.510   3.840   2.641
 8315TIP3   OH224908   2.485   5.390   5.929
 8315TIP3    H124909   2.577   5.415   5.929
 8315TIP3    H224910   2.478   5.324   5.860
 8316TIP3   OH224911   2.099   6.520   1.700
 8316TIP3    H124912   2.123   6.528   1.608
 8316TIP3    H224913   2.129   6.601   1.740
 8317TIP3   OH224914   6.030   1.163   5.420
 8317TIP3    H124915   5.987   1.104   5.358
 8317TIP3    H224916   6.122   1.138   5.418
 8318TIP3   OH224917   0.167   4.876   5.527
 8318TIP3    H124918   0.198   4.948   5.582
 8318TIP3    H224919   0.225   4.877   5.450
 8319TIP3   OH224920   5.558   6.571   3.916
 8319TIP3    H124921   5.496   6.536   3.981
 8319TIP3    H224922   5.552   6.510   3.842
 8320TIP3   OH224923   0.889   0.216   1.209
 8320TIP3    H124924   0.923   0.131   1.181
 8320TIP3    H224925   0.809   0.228   1.158
 8321TIP3   OH224926   7.012   4.870   4.092
 8321TIP3    H124927   6.970   4.860   4.007
 8321TIP3    H224928   7.025   4.781   4.123
 8322TIP3   OH224929   3.812   2.055   0.265
 8322TIP3    H124930   3.719   2.078   0.258
 8322TIP3    H224931   3.825   1.988   0.198
 8323TIP3   OH224932   4.816   3.562   0.411
 8323TIP3    H124933   4.808   3.470   0.388
 8323TIP3    H224934   4.729   3.598   0.398
 8324TIP3   OH224935   0.140   1.842   4.281
 8324TIP3    H124936   0.189   1.858   4.362
 8324TIP3    H224937   0.142   1.747   4.271
 8325TIP3   OH224938   5.657   0.153   5.281
 8325TIP3    H124939   5.629   0.232   5.327
 8325TIP3    H224940   5.748   0.140   5.309
 8326TIP3   OH224941   2.896   1.652   4.294
 8326TIP3    H124942   2.859   1.604   4.368
 8326TIP3    H224943   2.832   1.640   4.224
 8327TIP3   OH224944   3.768   5.861   2.763
 8327TIP3    H124945   3.729   5.773   2.767
 8327TIP3    H224946   3.854   5.847   2.723
 8328TIP3   OH224947   0.273   5.109   5.703
 8328TIP3    H124948   0.201   5.118   5.766
 8328TIP3    H224949   0.294   5.198   5.677
 8329TIP3   OH224950   3.076   6.255   3.151
 8329TIP3    H124951   3.099   6.205   3.073
 8329TIP3    H224952   2.983   6.236   3.165
 8330TIP3   OH224953   2.290   4.322   1.884
 8330TIP3    H124954   2.377   4.302   1.918
 8330TIP3    H224955   2.231   4.263   1.931
 8331TIP3   OH224956   6.996   1.145   2.712
 8331TIP3    H124957   6.981   1.054   2.684
 8331TIP3    H224958   6.912   1.189   2.699
 8332TIP3   OH224959   3.862   1.355   0.600
 8332TIP3    H124960   3.882   1.447   0.619
 8332TIP3    H224961   3.868   1.349   0.504
 8333TIP3   OH224962   5.515   3.193   1.074
 8333TIP3    H124963   5.480   3.142   1.147
 8333TIP3    H224964   5.572   3.132   1.027
 8334TIP3   OH224965   2.961   2.881   2.782
 8334TIP3    H124966   2.956   2.845   2.694
 8334TIP3    H224967   2.870   2.887   2.811
 8335TIP3   OH224968   1.614   6.108   0.516
 8335TIP3    H124969   1.613   6.049   0.441
 8335TIP3    H224970   1.552   6.177   0.492
 8336TIP3   OH224971   5.803   0.630   4.774
 8336TIP3    H124972   5.889   0.610   4.738
 8336TIP3    H224973   5.748   0.645   4.698
 8337TIP3   OH224974   5.054   0.733   0.738
 8337TIP3    H124975   5.108   0.767   0.666
 8337TIP3    H224976   5.093   0.649   0.760
 8338TIP3   OH224977   5.407   0.409   0.428
 8338TIP3    H124978   5.483   0.439   0.478
 8338TIP3    H224979   5.401   0.470   0.354
 8339TIP3   OH224980   6.294   5.254   4.953
 8339TIP3    H124981   6.276   5.195   4.880
 8339TIP3    H224982   6.240   5.221   5.024
 8340TIP3   OH224983   1.076   3.382   3.316
 8340TIP3    H124984   1.005   3.430   3.359
 8340TIP3    H224985   1.152   3.439   3.326
 8341TIP3   OH224986   3.210   2.915   2.030
 8341TIP3    H124987   3.215   3.003   1.993
 8341TIP3    H224988   3.285   2.909   2.089
 8342TIP3   OH224989   5.547   5.711   4.721
 8342TIP3    H124990   5.600   5.767   4.777
 8342TIP3    H224991   5.586   5.624   4.730
 8343TIP3   OH224992   6.606   6.712   0.622
 8343TIP3    H124993   6.512   6.700   0.635
 8343TIP3    H224994   6.623   6.800   0.655
 8344TIP3   OH224995   0.273   2.628   5.086
 8344TIP3    H124996   0.360   2.592   5.069
 8344TIP3    H224997   0.259   2.612   5.179
 8345TIP3   OH224998   1.172   1.920   0.717
 8345TIP3    H124999   1.099   1.962   0.761
 8345TIP3    H225000   1.217   1.871   0.786
 8346TIP3   OH225001   2.041   4.120   4.503
 8346TIP3    H125002   1.992   4.039   4.516
 8346TIP3    H225003   2.074   4.143   4.590
 8347TIP3   OH225004   6.395   5.524   2.146
 8347TIP3    H125005   6.472   5.580   2.154
 8347TIP3    H225006   6.430   5.436   2.133
 8348TIP3   OH225007   7.039   0.834   5.434
 8348TIP3    H125008   7.008   0.749   5.402
 8348TIP3    H225009   7.108   0.859   5.373
 8349TIP3   OH225010   0.401   5.908   5.535
 8349TIP3    H125011   0.309   5.883   5.532
 8349TIP3    H225012   0.448   5.831   5.502
 8350TIP3   OH225013   0.622   4.146   3.890
 8350TIP3    H125014   0.578   4.062   3.874
 8350TIP3    H225015   0.668   4.134   3.972
 8351TIP3   OH225016   5.124   0.452   1.253
 8351TIP3    H125017   5.119   0.437   1.347
 8351TIP3    H225018   5.111   0.546   1.243
 8352TIP3   OH225019   2.566   0.123   3.016
 8352TIP3    H125020   2.504   0.056   3.044
 8352TIP3    H225021   2.546   0.198   3.071
 8353TIP3   OH225022   5.702   1.241   4.710
 8353TIP3    H125023   5.795   1.266   4.709
 8353TIP3    H225024   5.696   1.179   4.783
 8354TIP3   OH225025   5.599   4.842   2.834
 8354TIP3    H125026   5.564   4.895   2.906
 8354TIP3    H225027   5.579   4.752   2.858
 8355TIP3   OH225028   5.230   1.726   1.716
 8355TIP3    H125029   5.290   1.700   1.785
 8355TIP3    H225030   5.205   1.644   1.674
 8356TIP3   OH225031   3.958   4.669   1.201
 8356TIP3    H125032   3.975   4.591   1.148
 8356TIP3    H225033   3.885   4.643   1.258
 8357TIP3   OH225034   3.922   4.757   1.998
 8357TIP3    H125035   3.919   4.687   2.064
 8357TIP3    H225036   3.847   4.739   1.941
 8358TIP3   OH225037   1.442   4.649   2.107
 8358TIP3    H125038   1.510   4.643   2.040
 8358TIP3    H225039   1.460   4.731   2.152
 8359TIP3   OH225040   5.421   2.538   3.695
 8359TIP3    H125041   5.332   2.502   3.695
 8359TIP3    H225042   5.410   2.630   3.673
 8360TIP3   OH225043   6.768   6.052   5.341
 8360TIP3    H125044   6.805   6.032   5.427
 8360TIP3    H225045   6.827   6.117   5.304
 8361TIP3   OH225046   1.052   3.892   5.273
 8361TIP3    H125047   1.102   3.895   5.354
 8361TIP3    H225048   0.960   3.889   5.301
 8362TIP3   OH225049   2.708   0.040   1.975
 8362TIP3    H125050   2.802   0.048   1.990
 8362TIP3    H225051   2.672   0.021   2.062
 8363TIP3   OH225052   5.331   5.005   0.871
 8363TIP3    H125053   5.372   5.054   0.943
 8363TIP3    H225054   5.259   4.958   0.912
 8364TIP3   OH225055   0.681   0.184   1.007
 8364TIP3    H125056   0.588   0.169   1.028
 8364TIP3    H225057   0.685   0.181   0.911
 8365TIP3   OH225058   6.250   0.437   0.725
 8365TIP3    H125059   6.273   0.344   0.734
 8365TIP3    H225060   6.156   0.436   0.705
 8366TIP3   OH225061   0.083   0.064   3.553
 8366TIP3    H125062   0.001   0.107   3.530
 8366TIP3    H225063   0.151   0.123   3.521
 8367TIP3   OH225064   3.939   5.190   4.346
 8367TIP3    H125065   3.950   5.219   4.255
 8367TIP3    H225066   3.941   5.094   4.341
 8368TIP3   OH225067   5.250   6.108   4.651
 8368TIP3    H125068   5.197   6.145   4.581
 8368TIP3    H225069   5.258   6.016   4.629
 8369TIP3   OH225070   5.062   5.773   4.880
 8369TIP3    H125071   5.122   5.809   4.945
 8369TIP3    H225072   5.110   5.778   4.797
 8370TIP3   OH225073   1.832   6.050   0.702
 8370TIP3    H125074   1.801   6.057   0.612
 8370TIP3    H225075   1.922   6.021   0.695
 8371TIP3   OH225076   4.540   3.620   3.801
 8371TIP3    H125077   4.584   3.539   3.774
 8371TIP3    H225078   4.500   3.654   3.721
 8372TIP3   OH225079   6.099   6.736   2.494
 8372TIP3    H125080   6.186   6.776   2.493
 8372TIP3    H225081   6.054   6.778   2.567
 8373TIP3   OH225082   6.275   3.852   1.473
 8373TIP3    H125083   6.264   3.771   1.523
 8373TIP3    H225084   6.212   3.913   1.512
 8374TIP3   OH225085   6.550   2.035   1.018
 8374TIP3    H125086   6.632   1.985   1.021
 8374TIP3    H225087   6.561   2.103   1.084
 8375TIP3   OH225088   6.176   2.124   5.392
 8375TIP3    H125089   6.162   2.149   5.300
 8375TIP3    H225090   6.088   2.126   5.430
 8376TIP3   OH225091   1.353   3.896   5.762
 8376TIP3    H125092   1.367   3.808   5.728
 8376TIP3    H225093   1.351   3.885   5.857
 8377TIP3   OH225094   2.247   5.036   1.304
 8377TIP3    H125095   2.211   4.952   1.276
 8377TIP3    H225096   2.331   5.043   1.258
 8378TIP3   OH225097   7.206   6.759   3.151
 8378TIP3    H125098   7.152   6.681   3.165
 8378TIP3    H225099   7.146   6.832   3.165
 8379TIP3   OH225100   1.317   3.349   1.196
 8379TIP3    H125101   1.381   3.340   1.126
 8379TIP3    H225102   1.232   3.337   1.153
 8380TIP3   OH225103   5.359   5.990   5.433
 8380TIP3    H125104   5.411   5.915   5.404
 8380TIP3    H225105   5.414   6.035   5.497
 8381TIP3   OH225106   2.617   4.043   3.081
 8381TIP3    H125107   2.690   4.095   3.047
 8381TIP3    H225108   2.550   4.048   3.013
 8382TIP3   OH225109   3.857   2.951   2.756
 8382TIP3    H125110   3.921   2.984   2.819
 8382TIP3    H225111   3.797   3.023   2.741
 8383TIP3   OH225112   7.034   0.049   4.571
 8383TIP3    H125113   7.129   0.050   4.560
 8383TIP3    H225114   7.022   0.047   4.666
 8384TIP3   OH225115   0.312   2.091   0.140
 8384TIP3    H125116   0.369   2.065   0.213
 8384TIP3    H225117   0.320   2.186   0.137
 8385TIP3   OH225118   2.078   4.245   4.138
 8385TIP3    H125119   2.005   4.285   4.091
 8385TIP3    H225120   2.150   4.307   4.126
 8386TIP3   OH225121   4.767   3.101   3.223
 8386TIP3    H125122   4.762   3.007   3.237
 8386TIP3    H225123   4.686   3.122   3.177
 8387TIP3   OH225124   3.992   4.970   1.495
 8387TIP3    H125125   4.046   4.893   1.478
 8387TIP3    H225126   3.902   4.937   1.493
 8388TIP3   OH225127   1.818   1.023   5.438
 8388TIP3    H125128   1.732   1.038   5.399
 8388TIP3    H225129   1.804   1.031   5.532
 8389TIP3   OH225130   2.513   5.138   0.728
 8389TIP3    H125131   2.488   5.052   0.695
 8389TIP3    H225132   2.603   5.150   0.698
 8390TIP3   OH225133   4.349   3.213   1.554
 8390TIP3    H125134   4.323   3.253   1.470
 8390TIP3    H225135   4.357   3.287   1.614
 8391TIP3   OH225136   6.897   6.441   4.527
 8391TIP3    H125137   6.965   6.470   4.587
 8391TIP3    H225138   6.937   6.370   4.478
 8392TIP3   OH225139   0.581   3.838   5.293
 8392TIP3    H125140   0.503   3.814   5.342
 8392TIP3    H225141   0.628   3.755   5.280
 8393TIP3   OH225142   5.354   1.940   3.303
 8393TIP3    H125143   5.434   1.926   3.252
 8393TIP3    H225144   5.353   2.034   3.320
 8394TIP3   OH225145   2.509   6.443   4.569
 8394TIP3    H125146   2.584   6.385   4.575
 8394TIP3    H225147   2.436   6.394   4.606
 8395TIP3   OH225148   4.040   5.835   4.296
 8395TIP3    H125149   4.056   5.873   4.383
 8395TIP3    H225150   4.037   5.910   4.237
 8396TIP3   OH225151   3.201   3.083   3.455
 8396TIP3    H125152   3.216   2.991   3.433
 8396TIP3    H225153   3.283   3.127   3.432
 8397TIP3   OH225154   1.799   3.476   2.046
 8397TIP3    H125155   1.895   3.475   2.043
 8397TIP3    H225156   1.774   3.543   1.982
 8398TIP3   OH225157   4.332   5.955   4.206
 8398TIP3    H125158   4.390   5.924   4.136
 8398TIP3    H225159   4.378   5.934   4.287
 8399TIP3   OH225160   2.350   4.715   5.063
 8399TIP3    H125161   2.289   4.654   5.104
 8399TIP3    H225162   2.294   4.774   5.012
 8400TIP3   OH225163   5.429   4.920   3.653
 8400TIP3    H125164   5.393   4.886   3.735
 8400TIP3    H225165   5.467   4.844   3.610
 8401TIP3   OH225166   4.790   6.610   5.352
 8401TIP3    H125167   4.717   6.548   5.355
 8401TIP3    H225168   4.834   6.599   5.436
 8402TIP3   OH225169   5.593   5.296   4.089
 8402TIP3    H125170   5.546   5.359   4.034
 8402TIP3    H225171   5.684   5.326   4.089
 8403TIP3   OH225172   4.284   4.965   2.818
 8403TIP3    H125173   4.240   4.903   2.876
 8403TIP3    H225174   4.360   4.996   2.869
 8404TIP3   OH225175   0.118   4.221   5.051
 8404TIP3    H125176   0.035   4.259   5.080
 8404TIP3    H225177   0.100   4.127   5.042
 8405TIP3   OH225178   0.724   1.234   2.925
 8405TIP3    H125179   0.676   1.303   2.879
 8405TIP3    H225180   0.673   1.218   3.005
 8406TIP3   OH225181   0.390   6.827   5.546
 8406TIP3    H125182   0.480   6.796   5.544
 8406TIP3    H225183   0.338   6.747   5.558
 8407TIP3   OH225184   5.589   2.134   4.306
 8407TIP3    H125185   5.655   2.187   4.262
 8407TIP3    H225186   5.614   2.134   4.398
 8408TIP3   OH225187   0.136   6.397   4.537
 8408TIP3    H125188   0.166   6.432   4.453
 8408TIP3    H225189   0.043   6.378   4.524
 8409TIP3   OH225190   2.017   3.079   3.275
 8409TIP3    H125191   2.073   3.053   3.202
 8409TIP3    H225192   2.057   3.160   3.308
 8410TIP3   OH225193   4.514   2.705   0.158
 8410TIP3    H125194   4.485   2.657   0.080
 8410TIP3    H225195   4.436   2.709   0.213
 8411TIP3   OH225196   0.491   1.411   2.937
 8411TIP3    H125197   0.489   1.351   3.011
 8411TIP3    H225198   0.415   1.468   2.950
 8412TIP3   OH225199   0.388   3.977   2.188
 8412TIP3    H125200   0.376   4.070   2.209
 8412TIP3    H225201   0.324   3.960   2.119
 8413TIP3   OH225202   5.796   0.289   4.721
 8413TIP3    H125203   5.811   0.259   4.811
 8413TIP3    H225204   5.792   0.385   4.729
 8414TIP3   OH225205   3.628   5.898   2.040
 8414TIP3    H125206   3.551   5.926   1.991
 8414TIP3    H225207   3.612   5.807   2.061
 8415TIP3   OH225208   4.904   3.941   4.189
 8415TIP3    H125209   4.935   3.933   4.279
 8415TIP3    H225210   4.983   3.964   4.139
 8416TIP3   OH225211   2.396   4.484   5.308
 8416TIP3    H125212   2.387   4.553   5.374
 8416TIP3    H225213   2.314   4.487   5.259
 8417TIP3   OH225214   5.697   5.185   0.094
 8417TIP3    H125215   5.645   5.242   0.150
 8417TIP3    H225216   5.755   5.244   0.046
 8418TIP3   OH225217   0.640   0.125   5.528
 8418TIP3    H125218   0.702   0.141   5.457
 8418TIP3    H225219   0.690   0.142   5.607
 8419TIP3   OH225220   3.711   3.929   1.726
 8419TIP3    H125221   3.708   3.950   1.633
 8419TIP3    H225222   3.741   4.009   1.768
 8420TIP3   OH225223   2.302   1.796   3.386
 8420TIP3    H125224   2.261   1.835   3.463
 8420TIP3    H225225   2.262   1.710   3.378
 8421TIP3   OH225226   3.933   4.485   1.443
 8421TIP3    H125227   4.011   4.529   1.475
 8421TIP3    H225228   3.961   4.396   1.424
 8422TIP3   OH225229   5.750   3.688   5.100
 8422TIP3    H125230   5.690   3.671   5.027
 8422TIP3    H225231   5.728   3.621   5.165
 8423TIP3   OH225232   2.597   4.639   5.841
 8423TIP3    H125233   2.531   4.631   5.910
 8423TIP3    H225234   2.658   4.567   5.858
 8424TIP3   OH225235   5.698   1.063   3.754
 8424TIP3    H125236   5.661   1.073   3.842
 8424TIP3    H225237   5.625   1.030   3.701
 8425TIP3   OH225238   5.398   0.855   1.893
 8425TIP3    H125239   5.422   0.830   1.983
 8425TIP3    H225240   5.473   0.828   1.840
 8426TIP3   OH225241   5.483   1.004   1.391
 8426TIP3    H125242   5.427   1.031   1.464
 8426TIP3    H225243   5.562   0.970   1.433
 8427TIP3   OH225244   2.940   5.025   5.720
 8427TIP3    H125245   2.978   4.971   5.651
 8427TIP3    H225246   2.864   4.975   5.751
 8428TIP3   OH225247   4.479   0.946   1.399
 8428TIP3    H125248   4.436   1.027   1.371
 8428TIP3    H225249   4.530   0.918   1.322
 8429TIP3   OH225250   3.653   5.130   5.533
 8429TIP3    H125251   3.658   5.057   5.471
 8429TIP3    H225252   3.561   5.158   5.530
 8430TIP3   OH225253   4.784   1.506   1.446
 8430TIP3    H125254   4.818   1.425   1.484
 8430TIP3    H225255   4.820   1.507   1.357
 8431TIP3   OH225256   4.467   2.841   5.337
 8431TIP3    H125257   4.446   2.818   5.247
 8431TIP3    H225258   4.524   2.770   5.367
 8432TIP3   OH225259   0.017   0.001   5.757
 8432TIP3    H125260   0.055  -0.087   5.757
 8432TIP3    H225261   0.053   0.042   5.678
 8433TIP3   OH225262   3.836   6.229   1.119
 8433TIP3    H125263   3.911   6.175   1.143
 8433TIP3    H225264   3.799   6.258   1.203
 8434TIP3   OH225265   4.308   2.888   3.589
 8434TIP3    H125266   4.232   2.843   3.624
 8434TIP3    H225267   4.299   2.978   3.620
 8435TIP3   OH225268   5.413   2.390   2.463
 8435TIP3    H125269   5.508   2.376   2.457
 8435TIP3    H225270   5.395   2.392   2.557
 8436TIP3   OH225271   4.663   6.481   2.274
 8436TIP3    H125272   4.629   6.497   2.186
 8436TIP3    H225273   4.596   6.428   2.317
 8437TIP3   OH225274   4.589   4.004   1.676
 8437TIP3    H125275   4.589   4.079   1.617
 8437TIP3    H225276   4.681   3.992   1.700
 8438TIP3   OH225277   4.194   4.274   1.388
 8438TIP3    H125278   4.231   4.189   1.413
 8438TIP3    H225279   4.128   4.254   1.322
 8439TIP3   OH225280   3.716   4.038   2.975
 8439TIP3    H125281   3.788   4.083   2.931
 8439TIP3    H225282   3.727   4.060   3.067
 8440TIP3   OH225283   4.989   1.498   4.810
 8440TIP3    H125284   5.083   1.496   4.794
 8440TIP3    H225285   4.973   1.425   4.870
 8441TIP3   OH225286   4.887   0.604   5.484
 8441TIP3    H125287   4.826   0.631   5.553
 8441TIP3    H225288   4.862   0.656   5.408
 8442TIP3   OH225289   3.564   4.174   3.517
 8442TIP3    H125290   3.583   4.097   3.571
 8442TIP3    H225291   3.642   4.186   3.464
 8443TIP3   OH225292   3.549   0.974   0.155
 8443TIP3    H125293   3.510   0.949   0.239
 8443TIP3    H225294   3.567   0.891   0.111
 8444TIP3   OH225295   5.072   4.769   3.346
 8444TIP3    H125296   4.998   4.720   3.311
 8444TIP3    H225297   5.117   4.707   3.404
 8445TIP3   OH225298   0.109   6.431   5.455
 8445TIP3    H125299   0.073   6.519   5.462
 8445TIP3    H225300   0.107   6.397   5.544
 8446TIP3   OH225301   0.805   6.770   4.605
 8446TIP3    H125302   0.820   6.859   4.636
 8446TIP3    H225303   0.852   6.715   4.668
 8447TIP3   OH225304   4.718   1.042   3.468
 8447TIP3    H125305   4.695   1.098   3.543
 8447TIP3    H225306   4.813   1.038   3.470
 8448TIP3   OH225307   4.158   1.699   1.489
 8448TIP3    H125308   4.115   1.625   1.446
 8448TIP3    H225309   4.162   1.674   1.581
 8449TIP3   OH225310   2.927   2.404   5.053
 8449TIP3    H125311   2.869   2.341   5.010
 8449TIP3    H225312   3.005   2.405   4.998
 8450TIP3   OH225313   6.772   4.853   3.485
 8450TIP3    H125314   6.765   4.852   3.389
 8450TIP3    H225315   6.855   4.810   3.503
 8451TIP3   OH225316   4.924   1.719   1.946
 8451TIP3    H125317   4.939   1.793   2.005
 8451TIP3    H225318   4.963   1.644   1.991
 8452TIP3   OH225319   2.678   5.932   4.650
 8452TIP3    H125320   2.626   5.909   4.574
 8452TIP3    H225321   2.752   5.871   4.648
 8453TIP3   OH225322   1.686   3.814   0.823
 8453TIP3    H125323   1.690   3.847   0.912
 8453TIP3    H225324   1.653   3.888   0.771
 8454TIP3   OH225325   3.575   4.486   4.475
 8454TIP3    H125326   3.663   4.505   4.442
 8454TIP3    H225327   3.519   4.492   4.398
 8455TIP3   OH225328   5.553   5.222   0.396
 8455TIP3    H125329   5.485   5.162   0.427
 8455TIP3    H225330   5.554   5.292   0.462
 8456TIP3   OH225331   3.238   0.191   5.356
 8456TIP3    H125332   3.148   0.223   5.366
 8456TIP3    H225333   3.251   0.131   5.429
 8457TIP3   OH225334   5.633   2.385   3.647
 8457TIP3    H125335   5.682   2.417   3.571
 8457TIP3    H225336   5.552   2.437   3.647
 8458TIP3   OH225337   6.441   3.224   1.748
 8458TIP3    H125338   6.414   3.297   1.804
 8458TIP3    H225339   6.362   3.171   1.739
 8459TIP3   OH225340   5.581   2.700   1.180
 8459TIP3    H125341   5.532   2.666   1.255
 8459TIP3    H225342   5.530   2.774   1.149
 8460TIP3   OH225343   1.899   6.733   0.711
 8460TIP3    H125344   1.965   6.697   0.771
 8460TIP3    H225345   1.875   6.817   0.751
 8461TIP3   OH225346   1.817   0.443   4.062
 8461TIP3    H125347   1.882   0.391   4.015
 8461TIP3    H225348   1.801   0.518   4.005
 8462TIP3   OH225349   1.038   3.528   1.491
 8462TIP3    H125350   1.081   3.582   1.425
 8462TIP3    H225351   1.019   3.588   1.563
 8463TIP3   OH225352   6.915   2.105   2.133
 8463TIP3    H125353   6.928   2.031   2.074
 8463TIP3    H225354   7.003   2.126   2.165
 8464TIP3   OH225355   1.887   0.111   1.534
 8464TIP3    H125356   1.922   0.031   1.494
 8464TIP3    H225357   1.938   0.122   1.614
 8465TIP3   OH225358   6.702   0.952   0.542
 8465TIP3    H125359   6.729   1.029   0.592
 8465TIP3    H225360   6.767   0.944   0.473
 8466TIP3   OH225361   3.367   5.015   3.427
 8466TIP3    H125362   3.454   4.994   3.394
 8466TIP3    H225363   3.308   4.958   3.378
 8467TIP3   OH225364   0.637   1.895   2.679
 8467TIP3    H125365   0.714   1.892   2.623
 8467TIP3    H225366   0.610   1.804   2.688
 8468TIP3   OH225367   3.143   0.528   0.274
 8468TIP3    H125368   3.132   0.514   0.179
 8468TIP3    H225369   3.238   0.537   0.286
 8469TIP3   OH225370   0.534   1.178   2.533
 8469TIP3    H125371   0.506   1.096   2.493
 8469TIP3    H225372   0.457   1.234   2.530
 8470TIP3   OH225373   1.381   3.507   3.354
 8470TIP3    H125374   1.428   3.571   3.408
 8470TIP3    H225375   1.388   3.540   3.265
 8471TIP3   OH225376   4.124   3.003   2.822
 8471TIP3    H125377   4.182   3.078   2.830
 8471TIP3    H225378   4.136   2.972   2.732
 8472TIP3   OH225379   4.177   5.624   0.925
 8472TIP3    H125380   4.182   5.709   0.969
 8472TIP3    H225381   4.239   5.631   0.852
 8473TIP3   OH225382   0.568   5.347   4.934
 8473TIP3    H125383   0.512   5.396   4.874
 8473TIP3    H225384   0.533   5.258   4.931
 8474TIP3   OH225385   5.447   3.459   1.411
 8474TIP3    H125386   5.471   3.388   1.471
 8474TIP3    H225387   5.473   3.539   1.458
 8475TIP3   OH225388   5.194   3.125   2.256
 8475TIP3    H125389   5.136   3.064   2.211
 8475TIP3    H225390   5.137   3.178   2.311
 8476TIP3   OH225391   3.485   6.650   4.490
 8476TIP3    H125392   3.544   6.710   4.535
 8476TIP3    H225393   3.419   6.627   4.556
 8477TIP3   OH225394   5.767   5.118   5.834
 8477TIP3    H125395   5.752   5.044   5.775
 8477TIP3    H225396   5.770   5.194   5.775
 8478TIP3   OH225397   0.833   6.244   2.410
 8478TIP3    H125398   0.745   6.271   2.381
 8478TIP3    H225399   0.823   6.152   2.433
 8479TIP3   OH225400   2.476   0.952   5.347
 8479TIP3    H125401   2.469   0.889   5.275
 8479TIP3    H225402   2.406   0.927   5.408
 8480TIP3   OH225403   5.218   0.266   5.458
 8480TIP3    H125404   5.146   0.322   5.489
 8480TIP3    H225405   5.227   0.288   5.365
 8481TIP3   OH225406   3.937   2.798   4.464
 8481TIP3    H125407   3.924   2.706   4.440
 8481TIP3    H225408   3.856   2.841   4.436
 8482TIP3   OH225409   3.284   6.215   1.723
 8482TIP3    H125410   3.206   6.176   1.761
 8482TIP3    H225411   3.251   6.285   1.666
 8483TIP3   OH225412   6.660   5.175   2.306
 8483TIP3    H125413   6.709   5.240   2.356
 8483TIP3    H225414   6.568   5.202   2.314
 8484TIP3   OH225415   1.102   4.343   2.896
 8484TIP3    H125416   1.164   4.375   2.830
 8484TIP3    H225417   1.035   4.411   2.902
 8485TIP3   OH225418   2.950   5.025   1.311
 8485TIP3    H125419   2.919   5.057   1.226
 8485TIP3    H225420   2.908   4.940   1.321
 8486TIP3   OH225421   0.169   4.188   1.826
 8486TIP3    H125422   0.253   4.196   1.871
 8486TIP3    H225423   0.186   4.126   1.755
 8487TIP3   OH225424   2.349   5.395   4.343
 8487TIP3    H125425   2.405   5.468   4.370
 8487TIP3    H225426   2.285   5.434   4.284
 8488TIP3   OH225427   2.374   5.952   0.886
 8488TIP3    H125428   2.285   5.957   0.851
 8488TIP3    H225429   2.377   5.867   0.930
 8489TIP3   OH225430   2.756   1.561   0.333
 8489TIP3    H125431   2.822   1.625   0.309
 8489TIP3    H225432   2.805   1.481   0.353
 8490TIP3   OH225433   6.190   5.920   1.856
 8490TIP3    H125434   6.234   5.838   1.877
 8490TIP3    H225435   6.132   5.897   1.783
 8491TIP3   OH225436   7.210   3.670   2.820
 8491TIP3    H125437   7.301   3.645   2.839
 8491TIP3    H225438   7.211   3.691   2.726
 8492TIP3   OH225439   6.045   1.166   4.997
 8492TIP3    H125440   6.135   1.134   4.991
 8492TIP3    H225441   6.013   1.165   4.906
 8493TIP3   OH225442   4.092   1.423   4.427
 8493TIP3    H125443   4.030   1.494   4.409
 8493TIP3    H225444   4.145   1.417   4.347
 8494TIP3   OH225445   7.052   1.859   1.068
 8494TIP3    H125446   7.105   1.805   1.010
 8494TIP3    H225447   7.050   1.945   1.025
 8495TIP3   OH225448   3.259   1.394   3.318
 8495TIP3    H125449   3.300   1.406   3.404
 8495TIP3    H225450   3.177   1.443   3.324
 8496TIP3   OH225451   3.106   2.536   3.289
 8496TIP3    H125452   3.060   2.509   3.368
 8496TIP3    H225453   3.131   2.627   3.306
 8497TIP3   OH225454   2.109   0.874   2.613
 8497TIP3    H125455   2.046   0.864   2.542
 8497TIP3    H225456   2.064   0.927   2.679
 8498TIP3   OH225457   6.192   4.740   2.219
 8498TIP3    H125458   6.148   4.800   2.280
 8498TIP3    H225459   6.284   4.741   2.246
 8499TIP3   OH225460   3.410   4.704   0.572
 8499TIP3    H125461   3.485   4.717   0.631
 8499TIP3    H225462   3.448   4.664   0.494
 8500TIP3   OH225463   4.832   4.080   3.768
 8500TIP3    H125464   4.739   4.097   3.783
 8500TIP3    H225465   4.834   4.008   3.705
 8501TIP3   OH225466   6.565   4.404   4.709
 8501TIP3    H125467   6.576   4.364   4.623
 8501TIP3    H225468   6.638   4.465   4.716
 8502TIP3   OH225469   4.002   0.780   0.381
 8502TIP3    H125470   4.087   0.739   0.371
 8502TIP3    H225471   4.022   0.872   0.400
 8503TIP3   OH225472   3.961   2.407   0.736
 8503TIP3    H125473   4.037   2.461   0.759
 8503TIP3    H225474   3.981   2.320   0.772
 8504TIP3   OH225475   6.526   5.687   0.059
 8504TIP3    H125476   6.580   5.754   0.016
 8504TIP3    H225477   6.460   5.664  -0.006
 8505TIP3   OH225478   2.785   4.039   0.259
 8505TIP3    H125479   2.734   3.983   0.201
 8505TIP3    H225480   2.841   3.980   0.308
 8506TIP3   OH225481   3.962   2.817   3.538
 8506TIP3    H125482   3.943   2.749   3.473
 8506TIP3    H225483   3.966   2.898   3.488
 8507TIP3   OH225484   4.244   5.645   4.115
 8507TIP3    H125485   4.236   5.740   4.102
 8507TIP3    H225486   4.317   5.619   4.059
 8508TIP3   OH225487   0.893   1.273   0.965
 8508TIP3    H125488   0.871   1.312   0.880
 8508TIP3    H225489   0.833   1.199   0.973
 8509TIP3   OH225490   3.457   2.565   1.167
 8509TIP3    H125491   3.414   2.502   1.109
 8509TIP3    H225492   3.408   2.646   1.154
 8510TIP3   OH225493   1.767   6.673   1.330
 8510TIP3    H125494   1.765   6.588   1.374
 8510TIP3    H225495   1.851   6.711   1.353
 8511TIP3   OH225496   5.907   3.761   1.093
 8511TIP3    H125497   5.927   3.807   1.011
 8511TIP3    H225498   5.857   3.683   1.065
 8512TIP3   OH225499   0.374   1.531   3.773
 8512TIP3    H125500   0.429   1.609   3.773
 8512TIP3    H225501   0.296   1.557   3.724
 8513TIP3   OH225502   6.918   3.842   4.149
 8513TIP3    H125503   6.903   3.782   4.075
 8513TIP3    H225504   6.906   3.788   4.227
 8514TIP3   OH225505   7.199   2.986   2.240
 8514TIP3    H125506   7.292   2.992   2.263
 8514TIP3    H225507   7.200   2.967   2.146
 8515TIP3   OH225508   0.254   1.226   0.929
 8515TIP3    H125509   0.295   1.206   1.013
 8515TIP3    H225510   0.160   1.218   0.946
 8516TIP3   OH225511   4.640   6.140   3.805
 8516TIP3    H125512   4.554   6.103   3.821
 8516TIP3    H225513   4.702   6.073   3.832
 8517TIP3   OH225514   3.367   3.634   0.188
 8517TIP3    H125515   3.287   3.596   0.152
 8517TIP3    H225516   3.344   3.724   0.209
 8518TIP3   OH225517   0.270   2.446   1.527
 8518TIP3    H125518   0.251   2.512   1.593
 8518TIP3    H225519   0.212   2.468   1.454
 8519TIP3   OH225520   5.125   5.380   3.653
 8519TIP3    H125521   5.199   5.319   3.650
 8519TIP3    H225522   5.162   5.461   3.689
 8520TIP3   OH225523   1.922   5.628   5.225
 8520TIP3    H125524   2.011   5.663   5.223
 8520TIP3    H225525   1.865   5.705   5.228
 8521TIP3   OH225526   0.047   5.784   1.121
 8521TIP3    H125527   0.042   5.784   1.216
 8521TIP3    H225528   0.004   5.864   1.093
 8522TIP3   OH225529   3.472   2.865   3.015
 8522TIP3    H125530   3.381   2.836   3.004
 8522TIP3    H225531   3.470   2.918   3.094
 8523TIP3   OH225532   5.916   3.546   4.148
 8523TIP3    H125533   5.877   3.624   4.189
 8523TIP3    H225534   5.945   3.576   4.062
 8524TIP3   OH225535   4.057   3.275   5.441
 8524TIP3    H125536   4.057   3.204   5.506
 8524TIP3    H225537   3.964   3.290   5.423
 8525TIP3   OH225538   2.368   2.693   3.007
 8525TIP3    H125539   2.411   2.622   2.959
 8525TIP3    H225540   2.396   2.680   3.098
 8526TIP3   OH225541   6.988   2.580   3.108
 8526TIP3    H125542   6.989   2.647   3.177
 8526TIP3    H225543   6.900   2.586   3.070
 8527TIP3   OH225544   3.713   1.576   2.170
 8527TIP3    H125545   3.638   1.607   2.221
 8527TIP3    H225546   3.779   1.645   2.180
 8528TIP3   OH225547   6.966   6.212   5.186
 8528TIP3    H125548   6.982   6.261   5.266
 8528TIP3    H225549   6.993   6.271   5.116
 8529TIP3   OH225550   4.274   0.855   3.136
 8529TIP3    H125551   4.244   0.819   3.220
 8529TIP3    H225552   4.201   0.909   3.106
 8530TIP3   OH225553   0.607   3.013   4.919
 8530TIP3    H125554   0.672   2.963   4.969
 8530TIP3    H225555   0.595   3.094   4.968
 8531TIP3   OH225556   5.962   6.488   2.450
 8531TIP3    H125557   5.970   6.576   2.486
 8531TIP3    H225558   5.934   6.435   2.524
 8532TIP3   OH225559   0.885   2.343   2.571
 8532TIP3    H125560   0.941   2.315   2.643
 8532TIP3    H225561   0.944   2.353   2.497
 8533TIP3   OH225562   6.064   0.074   5.583
 8533TIP3    H125563   6.078  -0.013   5.544
 8533TIP3    H225564   6.083   0.062   5.676
 8534TIP3   OH225565   1.745   3.597   1.378
 8534TIP3    H125566   1.673   3.620   1.320
 8534TIP3    H225567   1.793   3.679   1.392
 8535TIP3   OH225568   1.288   3.317   5.415
 8535TIP3    H125569   1.250   3.286   5.497
 8535TIP3    H225570   1.327   3.238   5.376
 8536TIP3   OH225571   0.351   0.697   1.315
 8536TIP3    H125572   0.291   0.766   1.287
 8536TIP3    H225573   0.424   0.744   1.356
 8537TIP3   OH225574   4.685   1.470   2.043
 8537TIP3    H125575   4.608   1.428   2.081
 8537TIP3    H225576   4.719   1.405   1.981
 8538TIP3   OH225577   1.486   6.674   0.406
 8538TIP3    H125578   1.540   6.744   0.371
 8538TIP3    H225579   1.545   6.622   0.460
 8539TIP3   OH225580   1.457   5.011   1.448
 8539TIP3    H125581   1.370   5.050   1.436
 8539TIP3    H225582   1.503   5.031   1.367
 8540TIP3   OH225583   0.878   2.107   4.590
 8540TIP3    H125584   0.862   2.027   4.540
 8540TIP3    H225585   0.843   2.177   4.535
 8541TIP3   OH225586   5.714   3.402   0.815
 8541TIP3    H125587   5.621   3.380   0.828
 8541TIP3    H225588   5.725   3.406   0.720
 8542TIP3   OH225589   3.176   5.592   2.560
 8542TIP3    H125590   3.223   5.522   2.607
 8542TIP3    H225591   3.162   5.557   2.473
 8543TIP3   OH225592   6.342   0.308   2.125
 8543TIP3    H125593   6.260   0.263   2.108
 8543TIP3    H225594   6.317   0.394   2.159
 8544TIP3   OH225595   6.651   1.197   5.733
 8544TIP3    H125596   6.717   1.154   5.787
 8544TIP3    H225597   6.639   1.138   5.659
 8545TIP3   OH225598   5.766   2.578   3.785
 8545TIP3    H125599   5.715   2.515   3.734
 8545TIP3    H225600   5.856   2.547   3.778
 8546TIP3   OH225601   0.669   3.932   2.825
 8546TIP3    H125602   0.756   3.962   2.851
 8546TIP3    H225603   0.685   3.865   2.759
 8547TIP3   OH225604   6.646   0.087   2.628
 8547TIP3    H125605   6.653   0.093   2.724
 8547TIP3    H225606   6.556   0.114   2.609
 8548TIP3   OH225607   6.051   4.200   5.883
 8548TIP3    H125608   6.050   4.112   5.844
 8548TIP3    H225609   6.141   4.211   5.913
 8549TIP3   OH225610   6.021   4.752   4.440
 8549TIP3    H125611   5.939   4.800   4.428
 8549TIP3    H225612   6.014   4.677   4.381
 8550TIP3   OH225613   5.062   3.655   4.789
 8550TIP3    H125614   5.052   3.743   4.825
 8550TIP3    H225615   5.106   3.605   4.858
 8551TIP3   OH225616   5.375   1.497   2.449
 8551TIP3    H125617   5.463   1.534   2.457
 8551TIP3    H225618   5.318   1.574   2.446
 8552TIP3   OH225619   0.578   5.767   2.731
 8552TIP3    H125620   0.624   5.691   2.697
 8552TIP3    H225621   0.542   5.810   2.653
 8553TIP3   OH225622   0.976   3.720   4.729
 8553TIP3    H125623   0.932   3.789   4.679
 8553TIP3    H225624   1.021   3.765   4.799
 8554TIP3   OH225625   5.736   1.134   2.358
 8554TIP3    H125626   5.727   1.204   2.422
 8554TIP3    H225627   5.666   1.150   2.295
 8555TIP3   OH225628   5.615   6.026   3.346
 8555TIP3    H125629   5.560   6.095   3.384
 8555TIP3    H225630   5.555   5.954   3.329
 8556TIP3   OH225631   3.621   3.798   2.893
 8556TIP3    H125632   3.669   3.880   2.905
 8556TIP3    H225633   3.689   3.732   2.884
 8557TIP3   OH225634   5.159   3.227   5.335
 8557TIP3    H125635   5.234   3.287   5.341
 8557TIP3    H225636   5.180   3.171   5.260
 8558TIP3   OH225637   7.158   0.495   1.785
 8558TIP3    H125638   7.238   0.523   1.741
 8558TIP3    H225639   7.128   0.419   1.736
 8559TIP3   OH225640   4.899   4.281   4.117
 8559TIP3    H125641   4.853   4.203   4.149
 8559TIP3    H225642   4.838   4.353   4.132
 8560TIP3   OH225643   5.323   3.881   4.577
 8560TIP3    H125644   5.419   3.889   4.571
 8560TIP3    H225645   5.307   3.786   4.574
 8561TIP3   OH225646   4.429   5.377   1.773
 8561TIP3    H125647   4.483   5.299   1.784
 8561TIP3    H225648   4.426   5.417   1.860
 8562TIP3   OH225649   2.285   5.384   1.918
 8562TIP3    H125650   2.330   5.346   1.994
 8562TIP3    H225651   2.238   5.310   1.879
 8563TIP3   OH225652   2.587   1.483   4.792
 8563TIP3    H125653   2.568   1.406   4.844
 8563TIP3    H225654   2.516   1.544   4.811
 8564TIP3   OH225655   1.625   3.347   3.225
 8564TIP3    H125656   1.558   3.363   3.292
 8564TIP3    H225657   1.583   3.287   3.164
 8565TIP3   OH225658   5.563   4.814   5.206
 8565TIP3    H125659   5.503   4.874   5.162
 8565TIP3    H225660   5.579   4.855   5.292
 8566TIP3   OH225661   4.003   3.085   1.327
 8566TIP3    H125662   3.921   3.044   1.301
 8566TIP3    H225663   4.044   3.023   1.386
 8567TIP3   OH225664   4.792   6.403   2.579
 8567TIP3    H125665   4.754   6.487   2.553
 8567TIP3    H225666   4.886   6.419   2.585
 8568TIP3   OH225667   0.984   3.253   1.521
 8568TIP3    H125668   1.079   3.240   1.528
 8568TIP3    H225669   0.974   3.346   1.500
 8569TIP3   OH225670   1.012   3.361   5.257
 8569TIP3    H125671   1.086   3.420   5.242
 8569TIP3    H225672   0.959   3.406   5.322
 8570TIP3   OH225673   3.157   5.740   1.572
 8570TIP3    H125674   3.188   5.727   1.662
 8570TIP3    H225675   3.222   5.696   1.518
 8571TIP3   OH225676   1.527   5.543   1.443
 8571TIP3    H125677   1.616   5.551   1.476
 8571TIP3    H225678   1.472   5.540   1.521
 8572TIP3   OH225679   4.558   2.268   4.873
 8572TIP3    H125680   4.615   2.227   4.808
 8572TIP3    H225681   4.573   2.362   4.861
 8573TIP3   OH225682   1.166   0.197   0.373
 8573TIP3    H125683   1.214   0.184   0.455
 8573TIP3    H225684   1.149   0.291   0.370
 8574TIP3   OH225685   1.888   2.088   5.252
 8574TIP3    H125686   1.929   2.023   5.309
 8574TIP3    H225687   1.800   2.101   5.289
 8575TIP3   OH225688   1.143   2.845   3.894
 8575TIP3    H125689   1.171   2.922   3.945
 8575TIP3    H225690   1.080   2.880   3.831
 8576TIP3   OH225691   1.874   3.385   3.611
 8576TIP3    H125692   1.793   3.341   3.638
 8576TIP3    H225693   1.851   3.429   3.529
 8577TIP3   OH225694   5.701   2.352   1.412
 8577TIP3    H125695   5.717   2.285   1.478
 8577TIP3    H225696   5.631   2.406   1.449
 8578TIP3   OH225697   6.710   5.639   2.422
 8578TIP3    H125698   6.688   5.667   2.332
 8578TIP3    H225699   6.780   5.698   2.449
 8579TIP3   OH225700   0.148   4.993   3.491
 8579TIP3    H125701   0.223   5.046   3.467
 8579TIP3    H225702   0.074   5.053   3.488
 8580TIP3   OH225703   2.985   1.625   2.030
 8580TIP3    H125704   2.943   1.540   2.045
 8580TIP3    H225705   3.032   1.642   2.111
 8581TIP3   OH225706   4.065   6.543   5.243
 8581TIP3    H125707   4.149   6.585   5.226
 8581TIP3    H225708   4.044   6.497   5.161
 8582TIP3   OH225709   0.212   6.023   4.031
 8582TIP3    H125710   0.216   6.012   4.126
 8582TIP3    H225711   0.174   5.941   3.999
 8583TIP3   OH225712   2.774   6.443   5.197
 8583TIP3    H125713   2.790   6.509   5.130
 8583TIP3    H225714   2.837   6.463   5.266
 8584TIP3   OH225715   0.408   5.511   2.389
 8584TIP3    H125716   0.355   5.493   2.311
 8584TIP3    H225717   0.358   5.472   2.461
 8585TIP3   OH225718   4.196   2.766   1.329
 8585TIP3    H125719   4.104   2.746   1.312
 8585TIP3    H225720   4.194   2.842   1.387
 8586TIP3   OH225721   0.536   1.899   5.536
 8586TIP3    H125722   0.442   1.883   5.525
 8586TIP3    H225723   0.556   1.971   5.476
 8587TIP3   OH225724   1.712   2.600   3.097
 8587TIP3    H125725   1.786   2.600   3.157
 8587TIP3    H225726   1.637   2.573   3.150
 8588TIP3   OH225727   1.330   3.146   2.386
 8588TIP3    H125728   1.348   3.165   2.294
 8588TIP3    H225729   1.349   3.052   2.395
 8589TIP3   OH225730   0.320   6.283   4.726
 8589TIP3    H125731   0.412   6.308   4.729
 8589TIP3    H225732   0.286   6.324   4.647
 8590TIP3   OH225733   4.491   2.455   2.621
 8590TIP3    H125734   4.418   2.497   2.574
 8590TIP3    H225735   4.479   2.362   2.605
 8591TIP3   OH225736   2.887   3.144   0.257
 8591TIP3    H125737   2.980   3.148   0.234
 8591TIP3    H225738   2.875   3.054   0.288
 8592TIP3   OH225739   0.146   3.202   1.503
 8592TIP3    H125740   0.097   3.148   1.566
 8592TIP3    H225741   0.093   3.281   1.493
 8593TIP3   OH225742   3.697   1.525   4.884
 8593TIP3    H125743   3.610   1.485   4.893
 8593TIP3    H225744   3.743   1.500   4.964
 8594TIP3   OH225745   0.312   4.533   1.246
 8594TIP3    H125746   0.366   4.532   1.325
 8594TIP3    H225747   0.376   4.524   1.175
 8595TIP3   OH225748   5.134   5.442   4.779
 8595TIP3    H125749   5.143   5.348   4.766
 8595TIP3    H225750   5.124   5.453   4.873
 8596TIP3   OH225751   5.534   6.606   5.756
 8596TIP3    H125752   5.579   6.684   5.788
 8596TIP3    H225753   5.530   6.548   5.832
 8597TIP3   OH225754   1.111   3.689   5.095
 8597TIP3    H125755   1.204   3.690   5.118
 8597TIP3    H225756   1.069   3.746   5.159
 8598TIP3   OH225757   3.931   6.322   2.449
 8598TIP3    H125758   3.955   6.346   2.539
 8598TIP3    H225759   3.986   6.377   2.394
 8599TIP3   OH225760   2.469   4.227   2.098
 8599TIP3    H125761   2.497   4.137   2.083
 8599TIP3    H225762   2.551   4.276   2.109
 8600TIP3   OH225763   7.138   3.902   5.301
 8600TIP3    H125764   7.119   3.861   5.216
 8600TIP3    H225765   7.072   3.867   5.360
 8601TIP3   OH225766   4.513   0.848   0.259
 8601TIP3    H125767   4.572   0.773   0.250
 8601TIP3    H225768   4.535   0.905   0.185
 8602TIP3   OH225769   5.958   2.318   4.890
 8602TIP3    H125770   5.906   2.395   4.910
 8602TIP3    H225771   6.029   2.350   4.834
 8603TIP3   OH225772   4.731   0.594   5.077
 8603TIP3    H125773   4.709   0.672   5.127
 8603TIP3    H225774   4.825   0.582   5.090
 8604TIP3   OH225775   1.665   0.928   3.259
 8604TIP3    H125776   1.694   0.918   3.350
 8604TIP3    H225777   1.635   1.018   3.253
 8605TIP3   OH225778   3.489   1.795   0.474
 8605TIP3    H125779   3.485   1.879   0.520
 8605TIP3    H225780   3.575   1.760   0.495
 8606TIP3   OH225781   0.252   6.560   4.040
 8606TIP3    H125782   0.182   6.619   4.068
 8606TIP3    H225783   0.224   6.527   3.955
 8607TIP3   OH225784   6.873   0.201   3.810
 8607TIP3    H125785   6.951   0.201   3.864
 8607TIP3    H225786   6.889   0.268   3.744
 8608TIP3   OH225787   2.376   1.480   4.084
 8608TIP3    H125788   2.440   1.466   4.014
 8608TIP3    H225789   2.397   1.413   4.150
 8609TIP3   OH225790   0.054   0.330   1.551
 8609TIP3    H125791   0.110   0.408   1.545
 8609TIP3    H225792   0.105   0.261   1.509
 8610TIP3   OH225793   0.346   5.935   1.307
 8610TIP3    H125794   0.439   5.921   1.291
 8610TIP3    H225795   0.315   5.853   1.346
 8611TIP3   OH225796   6.236   0.356   3.992
 8611TIP3    H125797   6.295   0.431   4.002
 8611TIP3    H225798   6.214   0.356   3.899
 8612TIP3   OH225799   6.561   6.470   5.014
 8612TIP3    H125800   6.541   6.396   4.957
 8612TIP3    H225801   6.498   6.464   5.085
 8613TIP3   OH225802   3.707   3.205   2.697
 8613TIP3    H125803   3.729   3.295   2.671
 8613TIP3    H225804   3.680   3.212   2.789
 8614TIP3   OH225805   6.675   2.212   3.606
 8614TIP3    H125806   6.631   2.138   3.647
 8614TIP3    H225807   6.665   2.197   3.512
 8615TIP3   OH225808   0.070   0.436   1.111
 8615TIP3    H125809   0.064   0.427   1.206
 8615TIP3    H225810   0.112   0.356   1.081
 8616TIP3   OH225811   4.134   2.841   5.387
 8616TIP3    H125812   4.177   2.762   5.356
 8616TIP3    H225813   4.201   2.886   5.439
 8617TIP3   OH225814   4.599   3.964   5.395
 8617TIP3    H125815   4.571   4.034   5.454
 8617TIP3    H225816   4.693   3.957   5.409
 8618TIP3   OH225817   3.084   4.410   3.131
 8618TIP3    H125818   3.108   4.359   3.054
 8618TIP3    H225819   3.063   4.497   3.098
 8619TIP3   OH225820   1.004   5.868   0.993
 8619TIP3    H125821   1.055   5.816   0.931
 8619TIP3    H225822   1.024   5.830   1.078
 8620TIP3   OH225823   6.841   2.339   2.786
 8620TIP3    H125824   6.760   2.389   2.794
 8620TIP3    H225825   6.850   2.294   2.870
 8621TIP3   OH225826   0.254   3.805   1.657
 8621TIP3    H125827   0.271   3.737   1.722
 8621TIP3    H225828   0.317   3.874   1.676
 8622TIP3   OH225829   6.384   3.722   2.644
 8622TIP3    H125830   6.436   3.683   2.574
 8622TIP3    H225831   6.325   3.653   2.672
 8623TIP3   OH225832   2.672   0.609   0.838
 8623TIP3    H125833   2.618   0.553   0.894
 8623TIP3    H225834   2.758   0.567   0.839
 8624TIP3   OH225835   6.126   4.181   2.754
 8624TIP3    H125836   6.202   4.222   2.795
 8624TIP3    H225837   6.159   4.148   2.670
 8625TIP3   OH225838   0.146   2.758   2.132
 8625TIP3    H125839   0.051   2.770   2.139
 8625TIP3    H225840   0.160   2.665   2.147
 8626TIP3   OH225841   2.122   0.707   4.987
 8626TIP3    H125842   2.093   0.704   5.078
 8626TIP3    H225843   2.211   0.741   4.991
 8627TIP3   OH225844   5.099   5.786   3.898
 8627TIP3    H125845   5.041   5.758   3.969
 8627TIP3    H225846   5.048   5.770   3.819
 8628TIP3   OH225847   5.958   1.350   5.707
 8628TIP3    H125848   5.973   1.428   5.652
 8628TIP3    H225849   5.960   1.277   5.645
 8629TIP3   OH225850   3.057   6.470   2.706
 8629TIP3    H125851   3.137   6.426   2.678
 8629TIP3    H225852   3.008   6.483   2.625
 8630TIP3   OH225853   6.237   5.015   5.375
 8630TIP3    H125854   6.313   5.056   5.417
 8630TIP3    H225855   6.251   4.921   5.387
 8631TIP3   OH225856   6.731   4.800   0.448
 8631TIP3    H125857   6.701   4.749   0.524
 8631TIP3    H225858   6.750   4.734   0.381
 8632TIP3   OH225859   5.548   6.129   5.589
 8632TIP3    H125860   5.582   6.216   5.568
 8632TIP3    H225861   5.504   6.140   5.673
 8633TIP3   OH225862   2.601   3.107   5.701
 8633TIP3    H125863   2.575   3.147   5.784
 8633TIP3    H225864   2.530   3.046   5.680
 8634TIP3   OH225865   1.713   4.298   4.592
 8634TIP3    H125866   1.673   4.383   4.612
 8634TIP3    H225867   1.807   4.314   4.593
 8635TIP3   OH225868   4.402   3.738   5.677
 8635TIP3    H125869   4.310   3.719   5.658
 8635TIP3    H225870   4.447   3.724   5.594
 8636TIP3   OH225871   0.485   2.450   5.374
 8636TIP3    H125872   0.529   2.442   5.458
 8636TIP3    H225873   0.421   2.520   5.386
 8637TIP3   OH225874   5.070   5.554   4.270
 8637TIP3    H125875   5.132   5.610   4.317
 8637TIP3    H225876   5.123   5.480   4.240
 8638TIP3   OH225877   1.726   3.966   5.884
 8638TIP3    H125878   1.786   3.955   5.957
 8638TIP3    H225879   1.776   3.939   5.807
 8639TIP3   OH225880   0.234   4.344   0.829
 8639TIP3    H125881   0.213   4.375   0.917
 8639TIP3    H225882   0.163   4.380   0.775
 8640TIP3   OH225883   7.046   3.705   3.084
 8640TIP3    H125884   7.055   3.712   2.989
 8640TIP3    H225885   6.952   3.696   3.099
 8641TIP3   OH225886   6.834   5.177   0.053
 8641TIP3    H125887   6.845   5.246  -0.013
 8641TIP3    H225888   6.784   5.109   0.007
 8642TIP3   OH225889   6.909   4.446   2.007
 8642TIP3    H125890   6.901   4.527   1.957
 8642TIP3    H225891   6.932   4.476   2.096
 8643TIP3   OH225892   4.040   3.268   2.515
 8643TIP3    H125893   4.079   3.270   2.602
 8643TIP3    H225894   4.091   3.332   2.464
 8644TIP3   OH225895   3.907   2.180   3.573
 8644TIP3    H125896   3.869   2.141   3.495
 8644TIP3    H225897   3.832   2.200   3.629
 8645TIP3   OH225898   5.884   0.169   2.898
 8645TIP3    H125899   5.964   0.119   2.887
 8645TIP3    H225900   5.814   0.105   2.887
 8646TIP3   OH225901   2.807   3.471   1.145
 8646TIP3    H125902   2.783   3.541   1.086
 8646TIP3    H225903   2.902   3.482   1.158
 8647TIP3   OH225904   3.008   2.372   4.718
 8647TIP3    H125905   3.061   2.440   4.676
 8647TIP3    H225906   3.066   2.295   4.719
 8648TIP3   OH225907   0.303   6.487   5.846
 8648TIP3    H125908   0.365   6.467   5.916
 8648TIP3    H225909   0.297   6.583   5.847
 8649TIP3   OH225910   4.097   6.838   5.071
 8649TIP3    H125911   4.129   6.749   5.056
 8649TIP3    H225912   4.027   6.849   5.006
 8650TIP3   OH225913   4.374   5.661   0.192
 8650TIP3    H125914   4.372   5.744   0.239
 8650TIP3    H225915   4.338   5.598   0.253
 8651TIP3   OH225916   0.123   1.835   2.025
 8651TIP3    H125917   0.144   1.920   2.062
 8651TIP3    H225918   0.186   1.775   2.064
 8652TIP3   OH225919   5.081   4.575   3.565
 8652TIP3    H125920   5.063   4.518   3.491
 8652TIP3    H225921   4.997   4.585   3.609
 8653TIP3   OH225922   0.788   5.930   4.477
 8653TIP3    H125923   0.718   5.987   4.446
 8653TIP3    H225924   0.806   5.960   4.566
 8654TIP3   OH225925   4.874   5.616   4.983
 8654TIP3    H125926   4.948   5.654   4.936
 8654TIP3    H225927   4.807   5.684   4.981
 8655TIP3   OH225928   3.120   6.458   4.895
 8655TIP3    H125929   3.077   6.479   4.813
 8655TIP3    H225930   3.051   6.416   4.948
 8656TIP3   OH225931   5.912   1.316   2.745
 8656TIP3    H125932   5.897   1.241   2.803
 8656TIP3    H225933   5.886   1.392   2.797
 8657TIP3   OH225934   0.895   5.296   2.682
 8657TIP3    H125935   0.941   5.240   2.745
 8657TIP3    H225936   0.956   5.369   2.667
 8658TIP3   OH225937   3.976   5.705   5.079
 8658TIP3    H125938   3.954   5.798   5.085
 8658TIP3    H225939   3.898   5.664   5.041
 8659TIP3   OH225940   0.941   4.908   2.382
 8659TIP3    H125941   0.872   4.842   2.375
 8659TIP3    H225942   0.895   4.992   2.374
 8660TIP3   OH225943   1.470   1.413   4.355
 8660TIP3    H125944   1.427   1.350   4.413
 8660TIP3    H225945   1.421   1.494   4.369
 8661TIP3   OH225946   4.588   0.318   2.476
 8661TIP3    H125947   4.656   0.255   2.499
 8661TIP3    H225948   4.586   0.379   2.549
 8662TIP3   OH225949   1.332   6.859   4.624
 8662TIP3    H125950   1.362   6.769   4.633
 8662TIP3    H225951   1.409   6.907   4.593
 8663TIP3   OH225952   4.446   1.657   2.662
 8663TIP3    H125953   4.381   1.593   2.693
 8663TIP3    H225954   4.523   1.604   2.641
 8664TIP3   OH225955   0.373   4.172   0.640
 8664TIP3    H125956   0.455   4.145   0.679
 8664TIP3    H225957   0.341   4.242   0.698
 8665TIP3   OH225958   2.928   3.801   0.297
 8665TIP3    H125959   2.967   3.779   0.381
 8665TIP3    H225960   2.851   3.744   0.290
 8666TIP3   OH225961   1.872   2.920   5.012
 8666TIP3    H125962   1.786   2.918   4.971
 8666TIP3    H225963   1.927   2.968   4.949
 8667TIP3   OH225964   6.917   0.828   1.392
 8667TIP3    H125965   6.856   0.755   1.385
 8667TIP3    H225966   6.869   0.894   1.443
 8668TIP3   OH225967   0.317   4.283   2.457
 8668TIP3    H125968   0.332   4.198   2.500
 8668TIP3    H225969   0.402   4.308   2.423
 8669TIP3   OH225970   0.201   5.801   5.803
 8669TIP3    H125971   0.263   5.728   5.795
 8669TIP3    H225972   0.256   5.878   5.820
 8670TIP3   OH225973   0.458   3.871   4.667
 8670TIP3    H125974   0.405   3.870   4.746
 8670TIP3    H225975   0.504   3.955   4.670
 8671TIP3   OH225976   0.512   4.134   4.669
 8671TIP3    H125977   0.462   4.169   4.742
 8671TIP3    H225978   0.507   4.202   4.602
 8672TIP3   OH225979   1.206   6.281   5.603
 8672TIP3    H125980   1.291   6.297   5.561
 8672TIP3    H225981   1.212   6.326   5.687
 8673TIP3   OH225982   6.024   3.128   3.990
 8673TIP3    H125983   6.003   3.164   4.076
 8673TIP3    H225984   6.113   3.158   3.972
 8674TIP3   OH225985   7.245   1.985   5.403
 8674TIP3    H125986   7.192   1.917   5.445
 8674TIP3    H225987   7.181   2.052   5.378
 8675TIP3   OH225988   0.441   5.439   0.303
 8675TIP3    H125989   0.474   5.388   0.377
 8675TIP3    H225990   0.430   5.374   0.233
 8676TIP3   OH225991   4.413   2.321   1.665
 8676TIP3    H125992   4.450   2.399   1.705
 8676TIP3    H225993   4.319   2.329   1.681
 8677TIP3   OH225994   3.085   5.994   1.507
 8677TIP3    H125995   3.052   6.027   1.591
 8677TIP3    H225996   3.106   5.903   1.524
 8678TIP3   OH225997   1.519   6.494   4.804
 8678TIP3    H125998   1.463   6.521   4.877
 8678TIP3    H225999   1.565   6.417   4.837
 8679TIP3   OH226000   7.024   5.447   3.511
 8679TIP3    H126001   6.931   5.428   3.520
 8679TIP3    H226002   7.029   5.514   3.443
 8680TIP3   OH226003   3.169   2.362   1.199
 8680TIP3    H126004   3.085   2.402   1.173
 8680TIP3    H226005   3.149   2.315   1.280
 8681TIP3   OH226006   0.208   3.256   0.191
 8681TIP3    H126007   0.234   3.326   0.251
 8681TIP3    H226008   0.197   3.179   0.246
 8682TIP3   OH226009   1.614   1.683   3.122
 8682TIP3    H126010   1.698   1.639   3.108
 8682TIP3    H226011   1.637   1.763   3.169
 8683TIP3   OH226012   2.281   5.384   5.658
 8683TIP3    H126013   2.251   5.308   5.708
 8683TIP3    H226014   2.332   5.347   5.586
 8684TIP3   OH226015   3.557   4.672   2.236
 8684TIP3    H126016   3.591   4.612   2.303
 8684TIP3    H226017   3.466   4.645   2.224
 8685TIP3   OH226018   5.538   4.567   1.959
 8685TIP3    H126019   5.576   4.604   1.879
 8685TIP3    H226020   5.582   4.482   1.969
 8686TIP3   OH226021   6.814   1.988   1.749
 8686TIP3    H126022   6.806   1.904   1.705
 8686TIP3    H226023   6.725   2.010   1.776
 8687TIP3   OH226024   2.769   3.091   3.130
 8687TIP3    H126025   2.738   3.004   3.155
 8687TIP3    H226026   2.854   3.075   3.089
 8688TIP3   OH226027   3.483   1.974   2.249
 8688TIP3    H126028   3.557   2.006   2.301
 8688TIP3    H226029   3.457   2.049   2.195
 8689TIP3   OH226030   4.811   5.094   5.703
 8689TIP3    H126031   4.869   5.018   5.706
 8689TIP3    H226032   4.725   5.057   5.681
 8690TIP3   OH226033   6.170   3.394   0.247
 8690TIP3    H126034   6.166   3.400   0.152
 8690TIP3    H226035   6.263   3.384   0.267
 8691TIP3   OH226036   0.855   1.787   2.542
 8691TIP3    H126037   0.948   1.779   2.562
 8691TIP3    H226038   0.852   1.824   2.454
 8692TIP3   OH226039   4.832   5.011   1.156
 8692TIP3    H126040   4.839   4.960   1.237
 8692TIP3    H226041   4.825   5.102   1.185
 8693TIP3   OH226042   5.643   4.755   0.461
 8693TIP3    H126043   5.622   4.821   0.527
 8693TIP3    H226044   5.702   4.800   0.401
 8694TIP3   OH226045   0.164   4.502   5.428
 8694TIP3    H126046   0.171   4.586   5.383
 8694TIP3    H226047   0.125   4.444   5.364
 8695TIP3   OH226048   1.585   6.200   2.448
 8695TIP3    H126049   1.490   6.199   2.450
 8695TIP3    H226050   1.611   6.109   2.461
 8696TIP3   OH226051   1.283   2.781   5.458
 8696TIP3    H126052   1.334   2.706   5.427
 8696TIP3    H226053   1.198   2.772   5.413
 8697TIP3   OH226054   1.687   6.287   2.181
 8697TIP3    H126055   1.626   6.243   2.240
 8697TIP3    H226056   1.744   6.217   2.150
 8698TIP3   OH226057   2.017   1.409   2.117
 8698TIP3    H126058   2.045   1.481   2.173
 8698TIP3    H226059   1.968   1.451   2.046
 8699TIP3   OH226060   6.237   5.098   4.755
 8699TIP3    H126061   6.259   5.066   4.668
 8699TIP3    H226062   6.171   5.036   4.787
 8700TIP3   OH226063   7.094   0.056   5.261
 8700TIP3    H126064   7.127   0.008   5.337
 8700TIP3    H226065   7.154   0.130   5.251
 8701TIP3   OH226066   0.271   6.510   4.302
 8701TIP3    H126067   0.289   6.603   4.314
 8701TIP3    H226068   0.284   6.495   4.208
 8702TIP3   OH226069   1.691   5.882   4.187
 8702TIP3    H126070   1.719   5.813   4.247
 8702TIP3    H226071   1.596   5.881   4.191
 8703TIP3   OH226072   5.490   0.281   4.115
 8703TIP3    H126073   5.466   0.372   4.097
 8703TIP3    H226074   5.536   0.284   4.199
 8704TIP3   OH226075   0.069   0.328   5.790
 8704TIP3    H126076   0.070   0.264   5.719
 8704TIP3    H226077  -0.011   0.378   5.776
 8705TIP3   OH226078   6.930   3.355  -0.096
 8705TIP3    H126079   7.017   3.379  -0.128
 8705TIP3    H226080   6.938   3.360   0.000
 8706TIP3   OH226081   4.121   0.827   5.567
 8706TIP3    H126082   4.056   0.776   5.615
 8706TIP3    H226083   4.082   0.914   5.559
 8707TIP3   OH226084   3.974   2.460   1.058
 8707TIP3    H126085   4.029   2.440   0.982
 8707TIP3    H226086   3.959   2.375   1.099
 8708TIP3   OH226087   0.595   3.594   0.440
 8708TIP3    H126088   0.678   3.571   0.400
 8708TIP3    H226089   0.616   3.618   0.530
 8709TIP3   OH226090   1.618   0.810   4.672
 8709TIP3    H126091   1.610   0.890   4.621
 8709TIP3    H226092   1.710   0.785   4.664
 8710TIP3   OH226093   3.628   4.269   4.642
 8710TIP3    H126094   3.608   4.346   4.591
 8710TIP3    H226095   3.672   4.303   4.720
 8711TIP3   OH226096   5.124   0.997   0.359
 8711TIP3    H126097   5.083   1.041   0.285
 8711TIP3    H226098   5.122   1.062   0.430
 8712TIP3   OH226099   3.436   2.434   0.274
 8712TIP3    H126100   3.392   2.420   0.190
 8712TIP3    H226101   3.493   2.510   0.259
 8713TIP3   OH226102   0.254   4.996   0.299
 8713TIP3    H126103   0.286   4.989   0.209
 8713TIP3    H226104   0.329   5.029   0.349
 8714TIP3   OH226105   3.229   6.727   4.816
 8714TIP3    H126106   3.162   6.660   4.800
 8714TIP3    H226107   3.226   6.742   4.910
 8715TIP3   OH226108   4.446   4.121   1.285
 8715TIP3    H126109   4.416   4.148   1.198
 8715TIP3    H226110   4.475   4.030   1.273
 8716TIP3   OH226111   4.211   2.217   2.705
 8716TIP3    H126112   4.303   2.236   2.690
 8716TIP3    H226113   4.190   2.261   2.787
 8717TIP3   OH226114   3.445   1.292   5.511
 8717TIP3    H126115   3.415   1.290   5.602
 8717TIP3    H226116   3.393   1.361   5.471
 8718TIP3   OH226117   1.918   5.774   2.497
 8718TIP3    H126118   1.879   5.689   2.519
 8718TIP3    H226119   1.970   5.797   2.574
 8719TIP3   OH226120   1.994   6.010   0.079
 8719TIP3    H126121   2.060   5.961   0.029
 8719TIP3    H226122   1.994   6.097   0.039
 8720TIP3   OH226123   4.294   3.824   3.169
 8720TIP3    H126124   4.300   3.760   3.240
 8720TIP3    H226125   4.233   3.891   3.202
 8721TIP3   OH226126   7.079   6.476  -0.053
 8721TIP3    H126127   7.074   6.572  -0.052
 8721TIP3    H226128   7.153   6.456   0.004
 8722TIP3   OH226129   0.586   6.326   5.281
 8722TIP3    H126130   0.639   6.361   5.209
 8722TIP3    H226131   0.572   6.400   5.340
 8723TIP3   OH226132   5.544   0.076   0.449
 8723TIP3    H126133   5.458   0.100   0.414
 8723TIP3    H226134   5.550   0.124   0.531
 8724TIP3   OH226135   4.893   4.260   4.541
 8724TIP3    H126136   4.904   4.190   4.606
 8724TIP3    H226137   4.815   4.307   4.570
 8725TIP3   OH226138   1.243   2.414   4.291
 8725TIP3    H126139   1.153   2.432   4.262
 8725TIP3    H226140   1.238   2.414   4.386
 8726TIP3   OH226141   5.606   2.043   5.132
 8726TIP3    H126142   5.599   2.131   5.097
 8726TIP3    H226143   5.516   2.014   5.144
 8727TIP3   OH226144   0.485   4.237   2.824
 8727TIP3    H126145   0.517   4.316   2.867
 8727TIP3    H226146   0.414   4.206   2.880
 8728TIP3   OH226147   3.854   0.089   3.721
 8728TIP3    H126148   3.780   0.038   3.690
 8728TIP3    H226149   3.821   0.137   3.797
 8729TIP3   OH226150   5.343   0.507   0.856
 8729TIP3    H126151   5.366   0.523   0.764
 8729TIP3    H226152   5.427   0.515   0.903
 8730TIP3   OH226153   5.905   3.960   4.821
 8730TIP3    H126154   5.842   3.972   4.892
 8730TIP3    H226155   5.945   4.046   4.810
 8731TIP3   OH226156   1.825   3.983   1.127
 8731TIP3    H126157   1.813   4.045   1.199
 8731TIP3    H226158   1.856   3.902   1.169
 8732TIP3   OH226159   2.443   5.586   4.511
 8732TIP3    H126160   2.356   5.587   4.552
 8732TIP3    H226161   2.498   5.540   4.575
 8733TIP3   OH226162   0.982  -0.015   4.495
 8733TIP3    H126163   0.911  -0.019   4.430
 8733TIP3    H226164   0.965   0.065   4.544
 8734TIP3   OH226165   6.636   0.196   3.490
 8734TIP3    H126166   6.552   0.229   3.521
 8734TIP3    H226167   6.687   0.276   3.472
 8735TIP3   OH226168   6.570   3.309   3.772
 8735TIP3    H126169   6.532   3.220   3.769
 8735TIP3    H226170   6.512   3.358   3.830
 8736TIP3   OH226171   5.408   3.619   4.171
 8736TIP3    H126172   5.315   3.620   4.149
 8736TIP3    H226173   5.439   3.705   4.143
 8737TIP3   OH226174   4.625   2.880   0.458
 8737TIP3    H126175   4.559   2.815   0.483
 8737TIP3    H226176   4.658   2.913   0.541
 8738TIP3   OH226177   6.200   4.997   5.812
 8738TIP3    H126178   6.206   5.077   5.759
 8738TIP3    H226179   6.106   4.981   5.820
 8739TIP3   OH226180   3.782   3.468   1.276
 8739TIP3    H126181   3.745   3.535   1.334
 8739TIP3    H226182   3.717   3.398   1.275
 8740TIP3   OH226183   0.858   3.464   4.629
 8740TIP3    H126184   0.842   3.554   4.601
 8740TIP3    H226185   0.786   3.444   4.689
 8741TIP3   OH226186   3.074   3.460   1.837
 8741TIP3    H126187   3.103   3.438   1.926
 8741TIP3    H226188   3.148   3.436   1.782
 8742TIP3   OH226189   1.680   2.785   2.389
 8742TIP3    H126190   1.681   2.855   2.324
 8742TIP3    H226191   1.636   2.824   2.465
 8743TIP3   OH226192   2.404   2.370   4.211
 8743TIP3    H126193   2.388   2.430   4.138
 8743TIP3    H226194   2.323   2.320   4.220
 8744TIP3   OH226195   5.017   6.456   0.917
 8744TIP3    H126196   5.051   6.540   0.887
 8744TIP3    H226197   4.922   6.466   0.914
 8745TIP3   OH226198   2.775   3.243   3.681
 8745TIP3    H126199   2.796   3.330   3.645
 8745TIP3    H226200   2.752   3.259   3.772
 8746TIP3   OH226201   1.888   3.013   0.604
 8746TIP3    H126202   1.849   3.016   0.517
 8746TIP3    H226203   1.876   3.101   0.639
 8747TIP3   OH226204   4.250   1.835   2.526
 8747TIP3    H126205   4.229   1.801   2.439
 8747TIP3    H226206   4.329   1.787   2.552
 8748TIP3   OH226207   4.320   3.842   3.711
 8748TIP3    H126208   4.370   3.801   3.781
 8748TIP3    H226209   4.366   3.924   3.693
 8749TIP3   OH226210   7.069   0.462   1.339
 8749TIP3    H126211   7.035   0.386   1.386
 8749TIP3    H226212   7.038   0.450   1.249
 8750TIP3   OH226213   4.963   0.052   1.753
 8750TIP3    H126214   4.936   0.014   1.837
 8750TIP3    H226215   4.890   0.110   1.730
 8751TIP3   OH226216   0.633   4.885   3.689
 8751TIP3    H126217   0.610   4.825   3.618
 8751TIP3    H226218   0.725   4.864   3.707
 8752TIP3   OH226219   0.655   1.844   5.229
 8752TIP3    H126220   0.706   1.876   5.155
 8752TIP3    H226221   0.617   1.923   5.268
 8753TIP3   OH226222   5.793   5.572   2.283
 8753TIP3    H126223   5.738   5.648   2.264
 8753TIP3    H226224   5.798   5.568   2.378
 8754TIP3   OH226225   0.439   4.061   5.169
 8754TIP3    H126226   0.498   4.112   5.113
 8754TIP3    H226227   0.488   3.982   5.190
 8755TIP3   OH226228   1.724   6.451   1.476
 8755TIP3    H126229   1.717   6.382   1.410
 8755TIP3    H226230   1.636   6.457   1.514
 8756TIP3   OH226231   2.784   1.216   2.998
 8756TIP3    H126232   2.864   1.269   2.993
 8756TIP3    H226233   2.747   1.237   3.083
 8757TIP3   OH226234   3.158   5.813   1.914
 8757TIP3    H126235   3.178   5.751   1.984
 8757TIP3    H226236   3.242   5.830   1.872
 8758TIP3   OH226237   3.640   5.518   3.079
 8758TIP3    H126238   3.653   5.604   3.118
 8758TIP3    H226239   3.545   5.504   3.085
 8759TIP3   OH226240   1.878   0.575   0.767
 8759TIP3    H126241   1.881   0.533   0.853
 8759TIP3    H226242   1.920   0.512   0.708
 8760TIP3   OH226243   3.935   1.182   2.462
 8760TIP3    H126244   3.846   1.201   2.434
 8760TIP3    H226245   3.962   1.108   2.407
 8761TIP3   OH226246   2.736   4.319   4.793
 8761TIP3    H126247   2.740   4.379   4.719
 8761TIP3    H226248   2.818   4.270   4.789
 8762TIP3   OH226249   4.931   6.588   5.616
 8762TIP3    H126250   5.017   6.547   5.629
 8762TIP3    H226251   4.869   6.524   5.651
 8763TIP3   OH226252   0.857   1.187   1.915
 8763TIP3    H126253   0.856   1.122   1.845
 8763TIP3    H226254   0.785   1.246   1.893
 8764TIP3   OH226255   1.678   2.141   5.417
 8764TIP3    H126256   1.635   2.213   5.371
 8764TIP3    H226257   1.632   2.134   5.501
 8765TIP3   OH226258   0.834   0.404   4.307
 8765TIP3    H126259   0.900   0.471   4.288
 8765TIP3    H226260   0.760   0.428   4.252
 8766TIP3   OH226261   5.320   5.749   0.498
 8766TIP3    H126262   5.299   5.690   0.570
 8766TIP3    H226263   5.415   5.762   0.504
 8767TIP3   OH226264   2.447   6.417   3.241
 8767TIP3    H126265   2.525   6.369   3.214
 8767TIP3    H226266   2.437   6.487   3.176
 8768TIP3   OH226267   7.181   3.164   4.573
 8768TIP3    H126268   7.191   3.251   4.535
 8768TIP3    H226269   7.168   3.180   4.667
 8769TIP3   OH226270   0.698   2.839   2.025
 8769TIP3    H126271   0.610   2.807   2.005
 8769TIP3    H226272   0.723   2.794   2.106
 8770TIP3   OH226273   4.037   6.737   2.974
 8770TIP3    H126274   4.075   6.685   2.903
 8770TIP3    H226275   3.943   6.740   2.953
 8771TIP3   OH226276   4.402   1.061   5.330
 8771TIP3    H126277   4.434   0.973   5.309
 8771TIP3    H226278   4.370   1.096   5.247
 8772TIP3   OH226279   3.384   0.903   5.119
 8772TIP3    H126280   3.361   0.976   5.061
 8772TIP3    H226281   3.355   0.931   5.205
 8773TIP3   OH226282   7.180   5.581   5.224
 8773TIP3    H126283   7.254   5.526   5.251
 8773TIP3    H226284   7.210   5.622   5.143
 8774TIP3   OH226285   4.208   4.766   2.205
 8774TIP3    H126286   4.257   4.686   2.221
 8774TIP3    H226287   4.266   4.836   2.237
 8775TIP3   OH226288   0.218   1.614   2.747
 8775TIP3    H126289   0.217   1.524   2.782
 8775TIP3    H226290   0.194   1.603   2.654
 8776TIP3   OH226291   0.222   3.630   0.392
 8776TIP3    H126292   0.222   3.534   0.387
 8776TIP3    H226293   0.136   3.652   0.428
 8777TIP3   OH226294   6.783   3.746   0.630
 8777TIP3    H126295   6.857   3.801   0.603
 8777TIP3    H226296   6.759   3.780   0.716
 8778TIP3   OH226297   6.485   4.656   4.847
 8778TIP3    H126298   6.486   4.707   4.767
 8778TIP3    H226299   6.446   4.714   4.913
 8779TIP3   OH226300   2.177   3.878   4.939
 8779TIP3    H126301   2.256   3.923   4.911
 8779TIP3    H226302   2.142   3.933   5.009
 8780TIP3   OH226303   2.126   6.150   4.334
 8780TIP3    H126304   2.154   6.230   4.379
 8780TIP3    H226305   2.031   6.148   4.345
 8781TIP3   OH226306   1.849   5.538   2.812
 8781TIP3    H126307   1.804   5.469   2.859
 8781TIP3    H226308   1.898   5.493   2.743
 8782TIP3   OH226309   3.556   1.889   3.802
 8782TIP3    H126310   3.605   1.913   3.881
 8782TIP3    H226311   3.606   1.929   3.730
 8783TIP3   OH226312   6.675   3.413   5.604
 8783TIP3    H126313   6.722   3.331   5.592
 8783TIP3    H226314   6.623   3.423   5.524
 8784TIP3   OH226315   0.049   0.787   4.971
 8784TIP3    H126316  -0.007   0.710   4.962
 8784TIP3    H226317   0.127   0.766   4.919
 8785TIP3   OH226318   1.957   4.105   3.592
 8785TIP3    H126319   1.957   4.014   3.564
 8785TIP3    H226320   1.981   4.101   3.685
 8786TIP3   OH226321   2.396   3.826   2.615
 8786TIP3    H126322   2.421   3.787   2.698
 8786TIP3    H226323   2.458   3.898   2.603
 8787TIP3   OH226324   2.273   3.301   0.418
 8787TIP3    H126325   2.269   3.277   0.511
 8787TIP3    H226326   2.307   3.222   0.375
 8788TIP3   OH226327   0.966   5.402   0.606
 8788TIP3    H126328   0.988   5.494   0.619
 8788TIP3    H226329   0.886   5.404   0.554
 8789TIP3   OH226330   3.832   5.551   3.363
 8789TIP3    H126331   3.816   5.510   3.449
 8789TIP3    H226332   3.834   5.477   3.302
 8790TIP3   OH226333   1.207   4.892   4.034
 8790TIP3    H126334   1.240   4.953   3.968
 8790TIP3    H226335   1.285   4.864   4.081
 8791TIP3   OH226336   2.635   4.253   5.191
 8791TIP3    H126337   2.571   4.201   5.240
 8791TIP3    H226338   2.663   4.196   5.120
 8792TIP3   OH226339   7.120   0.270   2.806
 8792TIP3    H126340   7.107   0.192   2.860
 8792TIP3    H226341   7.169   0.238   2.730
 8793TIP3   OH226342   4.675   0.641   4.799
 8793TIP3    H126343   4.692   0.648   4.893
 8793TIP3    H226344   4.584   0.668   4.789
 8794TIP3   OH226345   5.080   1.328   1.075
 8794TIP3    H126346   5.147   1.261   1.087
 8794TIP3    H226347   5.000   1.278   1.058
 8795TIP3   OH226348   6.799   6.544   4.814
 8795TIP3    H126349   6.778   6.620   4.760
 8795TIP3    H226350   6.736   6.548   4.886
 8796TIP3   OH226351   2.819   0.721   0.081
 8796TIP3    H126352   2.866   0.728   0.165
 8796TIP3    H226353   2.752   0.789   0.086
 8797TIP3   OH226354   3.129   6.578   0.327
 8797TIP3    H126355   3.122   6.520   0.251
 8797TIP3    H226356   3.104   6.664   0.294
 8798TIP3   OH226357   4.050   1.391   0.977
 8798TIP3    H126358   4.042   1.326   0.907
 8798TIP3    H226359   4.139   1.378   1.011
 8799TIP3   OH226360   1.516   6.424   1.679
 8799TIP3    H126361   1.463   6.360   1.726
 8799TIP3    H226362   1.597   6.429   1.730
 8800TIP3   OH226363   3.765   6.238   4.618
 8800TIP3    H126364   3.823   6.268   4.689
 8800TIP3    H226365   3.716   6.316   4.593
 8801TIP3   OH226366   5.484   4.367   3.881
 8801TIP3    H126367   5.389   4.377   3.884
 8801TIP3    H226368   5.502   4.342   3.791
 8802TIP3   OH226369   0.832   5.496   4.173
 8802TIP3    H126370   0.926   5.494   4.193
 8802TIP3    H226371   0.823   5.444   4.093
 8803TIP3   OH226372   6.307   2.777   3.871
 8803TIP3    H126373   6.337   2.741   3.954
 8803TIP3    H226374   6.213   2.792   3.884
 8804TIP3   OH226375   0.545   5.944   0.272
 8804TIP3    H126376   0.468   5.893   0.246
 8804TIP3    H226377   0.523   6.034   0.250
 8805TIP3   OH226378   3.607   3.189   0.694
 8805TIP3    H126379   3.635   3.120   0.755
 8805TIP3    H226380   3.575   3.142   0.617
 8806TIP3   OH226381   5.236   1.592   3.894
 8806TIP3    H126382   5.179   1.559   3.963
 8806TIP3    H226383   5.308   1.635   3.941
 8807TIP3   OH226384   0.462   2.234   1.405
 8807TIP3    H126385   0.552   2.224   1.373
 8807TIP3    H226386   0.412   2.263   1.329
 8808TIP3   OH226387   5.559   0.033   4.319
 8808TIP3    H126388   5.549   0.124   4.289
 8808TIP3    H226389   5.555   0.040   4.415
 8809TIP3   OH226390   3.461   6.370   1.450
 8809TIP3    H126391   3.371   6.405   1.448
 8809TIP3    H226392   3.450   6.275   1.448
 8810TIP3   OH226393   1.224   6.132   0.398
 8810TIP3    H126394   1.231   6.185   0.477
 8810TIP3    H226395   1.304   6.152   0.349
 8811TIP3   OH226396   1.087   6.196   3.464
 8811TIP3    H126397   1.180   6.208   3.483
 8811TIP3    H226398   1.044   6.199   3.549
 8812TIP3   OH226399   3.441   4.174   4.214
 8812TIP3    H126400   3.533   4.187   4.188
 8812TIP3    H226401   3.430   4.079   4.216
 8813TIP3   OH226402   5.937   2.227   1.298
 8813TIP3    H126403   5.985   2.262   1.223
 8813TIP3    H226404   5.865   2.289   1.312
 8814TIP3   OH226405   1.003   6.518   0.495
 8814TIP3    H126406   0.919   6.562   0.505
 8814TIP3    H226407   1.062   6.586   0.461
 8815TIP3   OH226408   3.802   6.106   1.479
 8815TIP3    H126409   3.834   6.147   1.559
 8815TIP3    H226410   3.720   6.063   1.505
 8816TIP3   OH226411   5.668   2.548   0.819
 8816TIP3    H126412   5.657   2.496   0.899
 8816TIP3    H226413   5.690   2.484   0.751
 8817TIP3   OH226414   2.987   0.382   0.464
 8817TIP3    H126415   2.910   0.369   0.408
 8817TIP3    H226416   3.057   0.406   0.403
 8818TIP3   OH226417   5.953   4.838   1.112
 8818TIP3    H126418   5.957   4.872   1.202
 8818TIP3    H226419   6.040   4.801   1.098
 8819TIP3   OH226420   0.503   3.522   4.124
 8819TIP3    H126421   0.450   3.581   4.176
 8819TIP3    H226422   0.529   3.452   4.185
 8820TIP3   OH226423   2.514   4.015   5.744
 8820TIP3    H126424   2.562   4.036   5.823
 8820TIP3    H226425   2.507   4.098   5.697
 8821TIP3   OH226426   5.890   2.111   5.420
 8821TIP3    H126427   5.865   2.168   5.347
 8821TIP3    H226428   5.810   2.103   5.472
 8822TIP3   OH226429   4.220   2.516   4.028
 8822TIP3    H126430   4.263   2.591   4.071
 8822TIP3    H226431   4.127   2.539   4.026
 8823TIP3   OH226432   5.220   3.016   3.732
 8823TIP3    H126433   5.314   3.025   3.749
 8823TIP3    H226434   5.210   3.042   3.641
 8824TIP3   OH226435   2.213   5.496   4.908
 8824TIP3    H126436   2.182   5.406   4.898
 8824TIP3    H226437   2.273   5.493   4.982
 8825TIP3   OH226438   1.866   4.096   5.421
 8825TIP3    H126439   1.916   4.137   5.491
 8825TIP3    H226440   1.857   4.164   5.354
 8826TIP3   OH226441   3.343   5.915   5.621
 8826TIP3    H126442   3.324   5.977   5.550
 8826TIP3    H226443   3.285   5.841   5.605
 8827TIP3   OH226444   5.254   5.598   3.757
 8827TIP3    H126445   5.226   5.667   3.817
 8827TIP3    H226446   5.335   5.563   3.796
 8828TIP3   OH226447   4.786   0.271   3.673
 8828TIP3    H126448   4.803   0.247   3.764
 8828TIP3    H226449   4.762   0.188   3.631
 8829TIP3   OH226450   6.298   1.833   0.946
 8829TIP3    H126451   6.274   1.764   1.009
 8829TIP3    H226452   6.393   1.840   0.955
 8830TIP3   OH226453   4.238   3.157   3.658
 8830TIP3    H126454   4.163   3.138   3.714
 8830TIP3    H226455   4.211   3.233   3.606
 8831TIP3   OH226456   2.581   6.517   2.423
 8831TIP3    H126457   2.487   6.499   2.415
 8831TIP3    H226458   2.619   6.434   2.450
 8832TIP3   OH226459   3.045   3.960   4.422
 8832TIP3    H126460   3.007   4.029   4.368
 8832TIP3    H226461   3.014   3.979   4.511
 8833TIP3   OH226462   6.914   1.935   0.339
 8833TIP3    H126463   7.000   1.970   0.314
 8833TIP3    H226464   6.919   1.929   0.435
 8834TIP3   OH226465   7.227   3.390   3.814
 8834TIP3    H126466   7.168   3.331   3.768
 8834TIP3    H226467   7.232   3.468   3.759
 8835TIP3   OH226468   4.864   1.631   0.470
 8835TIP3    H126469   4.946   1.645   0.423
 8835TIP3    H226470   4.815   1.713   0.457
 8836TIP3   OH226471   6.909   4.062   2.295
 8836TIP3    H126472   6.971   4.020   2.355
 8836TIP3    H226473   6.885   4.144   2.339
 8837TIP3   OH226474   3.070   3.098   5.458
 8837TIP3    H126475   3.026   3.013   5.452
 8837TIP3    H226476   3.152   3.085   5.411
 8838TIP3   OH226477   2.733   6.270   5.575
 8838TIP3    H126478   2.716   6.218   5.496
 8838TIP3    H226479   2.747   6.359   5.543
 8839TIP3   OH226480   3.866   2.657   2.015
 8839TIP3    H126481   3.814   2.644   1.935
 8839TIP3    H226482   3.888   2.569   2.045
 8840TIP3   OH226483   5.066   1.778   1.167
 8840TIP3    H126484   5.136   1.741   1.113
 8840TIP3    H226485   5.099   1.864   1.193
 8841TIP3   OH226486   3.325   2.705   5.055
 8841TIP3    H126487   3.329   2.672   4.965
 8841TIP3    H226488   3.255   2.771   5.053
 8842TIP3   OH226489   3.537   6.694   3.235
 8842TIP3    H126490   3.536   6.757   3.306
 8842TIP3    H226491   3.463   6.719   3.179
 8843TIP3   OH226492   4.744   4.363   2.769
 8843TIP3    H126493   4.677   4.381   2.703
 8843TIP3    H226494   4.782   4.449   2.788
 8844TIP3   OH226495   0.054   6.400   1.862
 8844TIP3    H126496  -0.026   6.440   1.828
 8844TIP3    H226497   0.099   6.367   1.784
 8845TIP3   OH226498   2.139   0.897   4.277
 8845TIP3    H126499   2.161   0.986   4.250
 8845TIP3    H226500   2.124   0.850   4.195
 8846TIP3   OH226501   0.139   4.005   1.447
 8846TIP3    H126502   0.053   4.023   1.484
 8846TIP3    H226503   0.182   3.949   1.512
 8847TIP3   OH226504   3.564   5.837   2.350
 8847TIP3    H126505   3.585   5.901   2.283
 8847TIP3    H226506   3.647   5.819   2.394
 8848TIP3   OH226507   2.293   3.995   2.284
 8848TIP3    H126508   2.217   3.993   2.226
 8848TIP3    H226509   2.317   3.903   2.295
 8849TIP3   OH226510   5.628   4.642   4.350
 8849TIP3    H126511   5.684   4.579   4.395
 8849TIP3    H226512   5.603   4.599   4.268
 8850TIP3   OH226513   0.605   3.035   3.953
 8850TIP3    H126514   0.615   3.114   3.899
 8850TIP3    H226515   0.629   3.063   4.041
 8851TIP3   OH226516   3.917   6.541   4.497
 8851TIP3    H126517   3.842   6.526   4.555
 8851TIP3    H226518   3.878   6.554   4.410
 8852TIP3   OH226519   0.641   2.767   3.405
 8852TIP3    H126520   0.735   2.775   3.392
 8852TIP3    H226521   0.610   2.719   3.328
 8853TIP3   OH226522   6.842   0.117   0.526
 8853TIP3    H126523   6.796   0.197   0.554
 8853TIP3    H226524   6.934   0.134   0.546
 8854TIP3   OH226525   0.198   0.347   4.763
 8854TIP3    H126526   0.256   0.298   4.704
 8854TIP3    H226527   0.111   0.313   4.745
 8855TIP3   OH226528   0.217   2.254   4.270
 8855TIP3    H126529   0.176   2.203   4.200
 8855TIP3    H226530   0.170   2.338   4.269
 8856TIP3   OH226531   6.339   4.585   4.370
 8856TIP3    H126532   6.350   4.514   4.307
 8856TIP3    H226533   6.303   4.657   4.319
 8857TIP3   OH226534   3.173   4.780   0.452
 8857TIP3    H126535   3.246   4.768   0.513
 8857TIP3    H226536   3.214   4.784   0.366
 8858TIP3   OH226537   0.481   6.616   4.697
 8858TIP3    H126538   0.432   6.569   4.630
 8858TIP3    H226539   0.431   6.604   4.777
 8859TIP3   OH226540   4.893   2.407   5.544
 8859TIP3    H126541   4.961   2.471   5.522
 8859TIP3    H226542   4.942   2.333   5.581
 8860TIP3   OH226543   2.256   0.055   5.189
 8860TIP3    H126544   2.291   0.144   5.187
 8860TIP3    H226545   2.167   0.065   5.222
 8861TIP3   OH226546   0.346   1.617   0.345
 8861TIP3    H126547   0.420   1.564   0.315
 8861TIP3    H226548   0.310   1.657   0.266
 8862TIP3   OH226549   6.784   6.806   0.125
 8862TIP3    H126550   6.824   6.730   0.167
 8862TIP3    H226551   6.704   6.823   0.175
 8863TIP3   OH226552   4.374   1.658   3.234
 8863TIP3    H126553   4.313   1.591   3.204
 8863TIP3    H226554   4.448   1.609   3.269
 8864TIP3   OH226555   0.481   1.917   1.524
 8864TIP3    H126556   0.403   1.897   1.575
 8864TIP3    H226557   0.461   2.002   1.483
 8865TIP3   OH226558   2.104   3.609   0.312
 8865TIP3    H126559   2.167   3.637   0.246
 8865TIP3    H226560   2.021   3.651   0.286
 8866TIP3   OH226561   2.019   6.353   1.308
 8866TIP3    H126562   2.102   6.307   1.299
 8866TIP3    H226563   2.041   6.436   1.349
 8867TIP3   OH226564   5.527   3.754   2.586
 8867TIP3    H126565   5.589   3.822   2.614
 8867TIP3    H226566   5.506   3.776   2.496
 8868TIP3   OH226567   1.366   5.742   0.699
 8868TIP3    H126568   1.362   5.764   0.606
 8868TIP3    H226569   1.427   5.669   0.704
 8869TIP3   OH226570   0.544   1.688   1.782
 8869TIP3    H126571   0.507   1.670   1.696
 8869TIP3    H226572   0.638   1.693   1.768
 8870TIP3   OH226573   2.229   0.905   5.501
 8870TIP3    H126574   2.282   0.845   5.554
 8870TIP3    H226575   2.140   0.872   5.509
 8871TIP3   OH226576   1.932   1.952   2.708
 8871TIP3    H126577   1.912   1.952   2.614
 8871TIP3    H226578   1.853   1.986   2.749
 8872TIP3   OH226579   2.298   3.081   4.998
 8872TIP3    H126580   2.346   3.009   5.039
 8872TIP3    H226581   2.353   3.109   4.926
 8873TIP3   OH226582   0.924   2.326   5.882
 8873TIP3    H126583   0.968   2.294   5.961
 8873TIP3    H226584   0.995   2.358   5.826
 8874TIP3   OH226585   2.022   5.328   2.965
 8874TIP3    H126586   2.046   5.236   2.966
 8874TIP3    H226587   1.927   5.329   2.973
 8875TIP3   OH226588   3.167   0.716   3.688
 8875TIP3    H126589   3.090   0.747   3.641
 8875TIP3    H226590   3.135   0.644   3.743
 8876TIP3   OH226591   5.716   5.167   2.891
 8876TIP3    H126592   5.683   5.247   2.850
 8876TIP3    H226593   5.677   5.096   2.840
 8877TIP3   OH226594   1.863   4.608   1.400
 8877TIP3    H126595   1.777   4.592   1.363
 8877TIP3    H226596   1.849   4.614   1.494
 8878TIP3   OH226597   3.168   6.621   2.901
 8878TIP3    H126598   3.147   6.570   2.979
 8878TIP3    H226599   3.132   6.569   2.828
 8879TIP3   OH226600   6.159   0.497   0.138
 8879TIP3    H126601   6.230   0.546   0.179
 8879TIP3    H226602   6.083   0.555   0.146
 8880TIP3   OH226603   5.287   1.615   4.763
 8880TIP3    H126604   5.309   1.654   4.848
 8880TIP3    H226605   5.242   1.685   4.716
 8881TIP3   OH226606   6.967   2.487   5.786
 8881TIP3    H126607   6.918   2.414   5.749
 8881TIP3    H226608   7.035   2.445   5.840
 8882TIP3   OH226609   3.920   2.873   5.202
 8882TIP3    H126610   3.870   2.955   5.202
 8882TIP3    H226611   3.993   2.890   5.262
 8883TIP3   OH226612   6.812   4.663   1.218
 8883TIP3    H126613   6.720   4.643   1.205
 8883TIP3    H226614   6.857   4.580   1.203
 8884TIP3   OH226615   1.438   3.655   4.427
 8884TIP3    H126616   1.367   3.618   4.479
 8884TIP3    H226617   1.456   3.740   4.467
 8885TIP3   OH226618   4.640   0.910   0.038
 8885TIP3    H126619   4.670   0.961  -0.036
 8885TIP3    H226620   4.693   0.830   0.035
 8886TIP3   OH226621   6.622   0.502   2.762
 8886TIP3    H126622   6.587   0.432   2.818
 8886TIP3    H226623   6.601   0.583   2.810
 8887TIP3   OH226624   0.450   0.931   3.408
 8887TIP3    H126625   0.539   0.948   3.378
 8887TIP3    H226626   0.396   0.943   3.329
 8888TIP3   OH226627   5.461   4.893   0.050
 8888TIP3    H126628   5.385   4.879  -0.006
 8888TIP3    H226629   5.437   4.969   0.104
 8889TIP3   OH226630   3.606   6.083   5.002
 8889TIP3    H126631   3.610   6.176   4.979
 8889TIP3    H226632   3.634   6.038   4.922
 8890TIP3   OH226633   6.974   1.730   3.906
 8890TIP3    H126634   6.929   1.741   3.990
 8890TIP3    H226635   7.008   1.817   3.886
 8891TIP3   OH226636   2.870   4.096   1.458
 8891TIP3    H126637   2.931   4.032   1.422
 8891TIP3    H226638   2.839   4.056   1.539
 8892TIP3   OH226639   1.305   3.487   0.772
 8892TIP3    H126640   1.310   3.496   0.677
 8892TIP3    H226641   1.386   3.441   0.796
 8893TIP3   OH226642   5.069   4.635   1.599
 8893TIP3    H126643   5.093   4.712   1.547
 8893TIP3    H226644   5.047   4.670   1.686
 8894TIP3   OH226645   0.102   5.211   1.696
 8894TIP3    H126646   0.067   5.158   1.767
 8894TIP3    H226647   0.148   5.283   1.740
 8895TIP3   OH226648   4.327   5.317   4.825
 8895TIP3    H126649   4.250   5.329   4.770
 8895TIP3    H226650   4.292   5.279   4.906
 8896TIP3   OH226651   0.845   4.976   1.758
 8896TIP3    H126652   0.799   4.956   1.839
 8896TIP3    H226653   0.797   5.049   1.720
 8897TIP3   OH226654   5.532   0.546   0.659
 8897TIP3    H126655   5.624   0.534   0.686
 8897TIP3    H226656   5.526   0.639   0.637
 8898TIP3   OH226657   2.577   4.983   2.623
 8898TIP3    H126658   2.517   4.913   2.596
 8898TIP3    H226659   2.583   5.039   2.546
 8899TIP3   OH226660   4.121   3.754   2.945
 8899TIP3    H126661   4.204   3.797   2.967
 8899TIP3    H226662   4.093   3.796   2.863
 8900TIP3   OH226663   0.844   0.015   5.326
 8900TIP3    H126664   0.871   0.107   5.320
 8900TIP3    H226665   0.926  -0.033   5.340
 8901TIP3   OH226666   0.919   6.642   4.838
 8901TIP3    H126667   0.842   6.596   4.872
 8901TIP3    H226668   0.960   6.681   4.915
 8902TIP3   OH226669   5.887   4.960   2.528
 8902TIP3    H126670   5.887   4.918   2.614
 8902TIP3    H226671   5.978   4.953   2.498
 8903TIP3   OH226672   1.275   1.303   3.966
 8903TIP3    H126673   1.320   1.270   3.888
 8903TIP3    H226674   1.182   1.290   3.946
 8904TIP3   OH226675   5.665   1.124   5.253
 8904TIP3    H126676   5.577   1.150   5.280
 8904TIP3    H226677   5.706   1.205   5.224
 8905TIP3   OH226678   6.677   0.658   1.450
 8905TIP3    H126679   6.717   0.585   1.497
 8905TIP3    H226680   6.661   0.624   1.362
 8906TIP3   OH226681   4.806   1.754   3.679
 8906TIP3    H126682   4.774   1.666   3.697
 8906TIP3    H226683   4.790   1.767   3.586
 8907TIP3   OH226684   4.295   3.250   4.549
 8907TIP3    H126685   4.339   3.164   4.546
 8907TIP3    H226686   4.255   3.259   4.462
 8908TIP3   OH226687   6.162   4.384   5.670
 8908TIP3    H126688   6.112   4.319   5.719
 8908TIP3    H226689   6.098   4.452   5.650
 8909TIP3   OH226690   0.047   2.010   3.554
 8909TIP3    H126691   0.139   2.003   3.581
 8909TIP3    H226692   0.051   2.023   3.459
 8910TIP3   OH226693   4.745   2.296   2.723
 8910TIP3    H126694   4.727   2.387   2.747
 8910TIP3    H226695   4.660   2.254   2.724
 8911TIP3   OH226696   6.418   0.507   1.531
 8911TIP3    H126697   6.469   0.426   1.537
 8911TIP3    H226698   6.483   0.577   1.533
 8912TIP3   OH226699   5.458   0.567   3.021
 8912TIP3    H126700   5.530   0.597   2.965
 8912TIP3    H226701   5.446   0.638   3.084
 8913TIP3   OH226702   1.494   2.255   2.418
 8913TIP3    H126703   1.522   2.345   2.399
 8913TIP3    H226704   1.417   2.265   2.473
 8914TIP3   OH226705   1.818   3.152   1.466
 8914TIP3    H126706   1.853   3.241   1.472
 8914TIP3    H226707   1.871   3.102   1.528
 8915TIP3   OH226708   0.139   6.678   4.678
 8915TIP3    H126709   0.149   6.666   4.772
 8915TIP3    H226710   0.128   6.589   4.644
 8916TIP3   OH226711   6.805   4.347   5.743
 8916TIP3    H126712   6.855   4.408   5.798
 8916TIP3    H226713   6.767   4.285   5.805
 8917TIP3   OH226714   2.283   1.678   2.969
 8917TIP3    H126715   2.303   1.593   3.007
 8917TIP3    H226716   2.221   1.659   2.899
 8918TIP3   OH226717   1.408   2.874   2.448
 8918TIP3    H126718   1.407   2.808   2.379
 8918TIP3    H226719   1.323   2.866   2.490
 8919TIP3   OH226720   4.541   2.073   0.583
 8919TIP3    H126721   4.541   2.159   0.624
 8919TIP3    H226722   4.460   2.033   0.612
 8920TIP3   OH226723   0.935   6.405   5.630
 8920TIP3    H126724   0.912   6.434   5.542
 8920TIP3    H226725   0.980   6.322   5.618
 8921TIP3   OH226726   6.852   6.382   5.567
 8921TIP3    H126727   6.838   6.471   5.535
 8921TIP3    H226728   6.921   6.346   5.511
 8922TIP3   OH226729   3.429   4.182   5.894
 8922TIP3    H126730   3.345   4.229   5.896
 8922TIP3    H226731   3.412   4.105   5.840
 8923TIP3   OH226732   6.140   2.866   2.651
 8923TIP3    H126733   6.134   2.784   2.603
 8923TIP3    H226734   6.053   2.906   2.642
 8924TIP3   OH226735   0.212   4.747   4.914
 8924TIP3    H126736   0.155   4.815   4.877
 8924TIP3    H226737   0.297   4.763   4.874
 8925TIP3   OH226738   5.344   1.925   4.423
 8925TIP3    H126739   5.283   1.993   4.394
 8925TIP3    H226740   5.374   1.884   4.342
 8926TIP3   OH226741   6.277   0.630   0.934
 8926TIP3    H126742   6.194   0.626   0.982
 8926TIP3    H226743   6.271   0.558   0.871
 8927TIP3   OH226744   4.825   0.685   0.013
 8927TIP3    H126745   4.858   0.690  -0.077
 8927TIP3    H226746   4.902   0.665   0.066
 8928TIP3   OH226747   4.068   1.198   2.163
 8928TIP3    H126748   3.979   1.234   2.168
 8928TIP3    H226749   4.062   1.111   2.202
 8929TIP3   OH226750   0.370   4.452   3.181
 8929TIP3    H126751   0.448   4.472   3.129
 8929TIP3    H226752   0.405   4.415   3.262
 8930TIP3   OH226753   4.280   3.587   4.593
 8930TIP3    H126754   4.373   3.608   4.584
 8930TIP3    H226755   4.262   3.596   4.686
 8931TIP3   OH226756   6.817   2.635   1.332
 8931TIP3    H126757   6.809   2.545   1.364
 8931TIP3    H226758   6.837   2.687   1.410
 8932TIP3   OH226759   4.784   5.392   3.153
 8932TIP3    H126760   4.812   5.328   3.219
 8932TIP3    H226761   4.738   5.340   3.087
 8933TIP3   OH226762   4.358   4.542   2.976
 8933TIP3    H126763   4.421   4.606   3.011
 8933TIP3    H226764   4.411   4.465   2.956
 8934TIP3   OH226765   4.507   3.843   1.283
 8934TIP3    H126766   4.518   3.784   1.358
 8934TIP3    H226767   4.531   3.789   1.207
 8935TIP3   OH226768   0.775   2.642   3.670
 8935TIP3    H126769   0.741   2.563   3.628
 8935TIP3    H226770   0.759   2.712   3.607
 8936TIP3   OH226771   3.208   2.720   2.875
 8936TIP3    H126772   3.156   2.648   2.840
 8936TIP3    H226773   3.173   2.798   2.833
 8937TIP3   OH226774   1.847   5.111   2.008
 8937TIP3    H126775   1.871   5.154   1.926
 8937TIP3    H226776   1.799   5.177   2.057
 8938TIP3   OH226777   5.661   6.403   0.233
 8938TIP3    H126778   5.657   6.385   0.139
 8938TIP3    H226779   5.645   6.497   0.240
 8939TIP3   OH226780   4.453   5.709   3.140
 8939TIP3    H126781   4.491   5.654   3.208
 8939TIP3    H226782   4.360   5.714   3.163
 8940TIP3   OH226783   6.070   0.453   0.440
 8940TIP3    H126784   6.045   0.403   0.362
 8940TIP3    H226785   6.008   0.426   0.507
 8941TIP3   OH226786   4.523   0.804   2.839
 8941TIP3    H126787   4.520   0.732   2.902
 8941TIP3    H226788   4.555   0.878   2.889
 8942TIP3   OH226789   2.762   4.347   2.940
 8942TIP3    H126790   2.816   4.269   2.954
 8942TIP3    H226791   2.763   4.359   2.845
 8943TIP3   OH226792   1.917   4.943   5.134
 8943TIP3    H126793   1.914   4.930   5.039
 8943TIP3    H226794   1.874   5.028   5.147
 8944TIP3   OH226795   7.037   3.742   5.092
 8944TIP3    H126796   6.952   3.771   5.125
 8944TIP3    H226797   7.017   3.667   5.036
 8945TIP3   OH226798   6.661   5.251   5.497
 8945TIP3    H126799   6.696   5.321   5.552
 8945TIP3    H226800   6.719   5.248   5.421
 8946TIP3   OH226801   2.515   6.088   0.076
 8946TIP3    H126802   2.589   6.115   0.022
 8946TIP3    H226803   2.467   6.169   0.094
 8947TIP3   OH226804   4.643   1.135   3.718
 8947TIP3    H126805   4.602   1.064   3.768
 8947TIP3    H226806   4.607   1.215   3.755
 8948TIP3   OH226807   6.974   5.357   1.366
 8948TIP3    H126808   6.963   5.280   1.311
 8948TIP3    H226809   7.030   5.328   1.438
 8949TIP3   OH226810   6.456   6.685   5.667
 8949TIP3    H126811   6.450   6.673   5.762
 8949TIP3    H226812   6.388   6.629   5.631
 8950TIP3   OH226813   4.357   4.878   5.866
 8950TIP3    H126814   4.352   4.795   5.819
 8950TIP3    H226815   4.265   4.904   5.877
 8951TIP3   OH226816   0.166   0.878   1.211
 8951TIP3    H126817   0.091   0.914   1.258
 8951TIP3    H226818   0.128   0.836   1.134
 8952TIP3   OH226819   7.164   1.242   5.043
 8952TIP3    H126820   7.257   1.258   5.060
 8952TIP3    H226821   7.137   1.315   4.988
 8953TIP3   OH226822   4.098   3.088   1.085
 8953TIP3    H126823   4.069   3.092   1.176
 8953TIP3    H226824   4.147   3.169   1.071
 8954TIP3   OH226825   0.314   6.236   5.697
 8954TIP3    H126826   0.401   6.240   5.658
 8954TIP3    H226827   0.309   6.315   5.751
 8955TIP3   OH226828   5.927   6.734   5.324
 8955TIP3    H126829   6.009   6.771   5.358
 8955TIP3    H226830   5.913   6.780   5.241
 8956TIP3   OH226831   4.678   0.815   5.513
 8956TIP3    H126832   4.655   0.777   5.598
 8956TIP3    H226833   4.700   0.906   5.533
 8957TIP3   OH226834   6.728   1.266   3.876
 8957TIP3    H126835   6.769   1.182   3.855
 8957TIP3    H226836   6.638   1.243   3.899
 8958TIP3   OH226837   1.405   2.048   0.274
 8958TIP3    H126838   1.490   2.017   0.242
 8958TIP3    H226839   1.393   2.003   0.357
 8959TIP3   OH226840   3.504   0.946   1.910
 8959TIP3    H126841   3.577   0.976   1.963
 8959TIP3    H226842   3.432   0.933   1.972
 8960TIP3   OH226843   3.884   3.943   4.633
 8960TIP3    H126844   3.815   3.979   4.578
 8960TIP3    H226845   3.911   3.862   4.590
 8961TIP3   OH226846   3.147   0.839   2.640
 8961TIP3    H126847   3.130   0.818   2.548
 8961TIP3    H226848   3.189   0.761   2.676
 8962TIP3   OH226849   2.279   5.971   0.164
 8962TIP3    H126850   2.368   6.000   0.143
 8962TIP3    H226851   2.224   6.046   0.140
 8963TIP3   OH226852   1.201   4.025   2.049
 8963TIP3    H126853   1.129   4.018   1.986
 8963TIP3    H226854   1.165   3.989   2.130
 8964TIP3   OH226855   4.454   6.454   3.016
 8964TIP3    H126856   4.498   6.503   2.946
 8964TIP3    H226857   4.448   6.517   3.088
 8965TIP3   OH226858   6.865   4.144   2.631
 8965TIP3    H126859   6.908   4.190   2.703
 8965TIP3    H226860   6.878   4.200   2.555
 8966TIP3   OH226861   6.247   1.685   1.822
 8966TIP3    H126862   6.331   1.644   1.803
 8966TIP3    H226863   6.243   1.760   1.762
 8967TIP3   OH226864   1.086   5.427   1.377
 8967TIP3    H126865   1.052   5.516   1.368
 8967TIP3    H226866   1.180   5.435   1.361
 8968TIP3   OH226867   6.462   2.524   5.822
 8968TIP3    H126868   6.513   2.603   5.808
 8968TIP3    H226869   6.386   2.534   5.764
 8969TIP3   OH226870   5.615   4.683   1.136
 8969TIP3    H126871   5.541   4.707   1.191
 8969TIP3    H226872   5.686   4.664   1.197
 8970TIP3   OH226873   4.622   3.415   3.277
 8970TIP3    H126874   4.568   3.405   3.198
 8970TIP3    H226875   4.651   3.506   3.274
 8971TIP3   OH226876   6.561   3.640   1.412
 8971TIP3    H126877   6.478   3.600   1.387
 8971TIP3    H226878   6.561   3.637   1.508
 8972TIP3   OH226879   1.873   0.673   3.471
 8972TIP3    H126880   1.886   0.736   3.542
 8972TIP3    H226881   1.926   0.705   3.399
 8973TIP3   OH226882   0.174   3.678   5.093
 8973TIP3    H126883   0.184   3.765   5.131
 8973TIP3    H226884   0.264   3.649   5.074
 8974TIP3   OH226885   2.661   4.613   2.498
 8974TIP3    H126886   2.617   4.667   2.432
 8974TIP3    H226887   2.754   4.620   2.477
 8975TIP3   OH226888   3.229   5.713   5.447
 8975TIP3    H126889   3.169   5.762   5.391
 8975TIP3    H226890   3.221   5.622   5.417
 8976TIP3   OH226891   5.471   6.606   3.366
 8976TIP3    H126892   5.521   6.603   3.448
 8976TIP3    H226893   5.389   6.648   3.390
 8977TIP3   OH226894   4.243   2.595   5.261
 8977TIP3    H126895   4.204   2.507   5.267
 8977TIP3    H226896   4.311   2.596   5.328
 8978TIP3   OH226897   4.376   3.268   4.272
 8978TIP3    H126898   4.335   3.346   4.308
 8978TIP3    H226899   4.469   3.278   4.291
 8979TIP3   OH226900   5.357   0.437   2.500
 8979TIP3    H126901   5.338   0.475   2.586
 8979TIP3    H226902   5.338   0.507   2.439
 8980TIP3   OH226903   1.909   0.071   2.307
 8980TIP3    H126904   1.932   0.009   2.238
 8980TIP3    H226905   1.846   0.130   2.266
 8981TIP3   OH226906   6.302   5.624   4.591
 8981TIP3    H126907   6.352   5.558   4.639
 8981TIP3    H226908   6.224   5.638   4.644
 8982TIP3   OH226909   3.661   1.226   0.373
 8982TIP3    H126910   3.694   1.137   0.377
 8982TIP3    H226911   3.734   1.278   0.339
 8983TIP3   OH226912   0.065   6.099   2.152
 8983TIP3    H126913   0.148   6.072   2.112
 8983TIP3    H226914   0.077   6.081   2.245
 8984TIP3   OH226915   1.478   0.119   2.145
 8984TIP3    H126916   1.495   0.132   2.239
 8984TIP3    H226917   1.409   0.182   2.124
 8985TIP3   OH226918   4.532   0.812   5.292
 8985TIP3    H126919   4.579   0.872   5.234
 8985TIP3    H226920   4.589   0.802   5.368
 8986TIP3   OH226921   6.768   1.231   5.309
 8986TIP3    H126922   6.806   1.165   5.367
 8986TIP3    H226923   6.697   1.185   5.264
 8987TIP3   OH226924   4.791   6.803   2.535
 8987TIP3    H126925   4.807   6.897   2.541
 8987TIP3    H226926   4.874   6.763   2.559
 8988TIP3   OH226927   4.255   3.239   0.506
 8988TIP3    H126928   4.243   3.230   0.411
 8988TIP3    H226929   4.281   3.330   0.519
 8989TIP3   OH226930   6.275   5.324   3.333
 8989TIP3    H126931   6.330   5.253   3.303
 8989TIP3    H226932   6.267   5.310   3.427
 8990TIP3   OH226933   2.633   0.391   3.763
 8990TIP3    H126934   2.625   0.296   3.753
 8990TIP3    H226935   2.706   0.415   3.706
 8991TIP3   OH226936   1.192   2.625   1.471
 8991TIP3    H126937   1.147   2.696   1.426
 8991TIP3    H226938   1.277   2.661   1.495
 8992TIP3   OH226939   5.568   5.148   3.476
 8992TIP3    H126940   5.521   5.131   3.558
 8992TIP3    H226941   5.651   5.101   3.486
 8993TIP3   OH226942   1.639   5.603   3.413
 8993TIP3    H126943   1.689   5.589   3.332
 8993TIP3    H226944   1.582   5.527   3.419
 8994TIP3   OH226945   1.631   3.941   0.140
 8994TIP3    H126946   1.713   3.978   0.108
 8994TIP3    H226947   1.564   4.001   0.108
 8995TIP3   OH226948   2.460   4.247   2.759
 8995TIP3    H126949   2.537   4.300   2.742
 8995TIP3    H226950   2.431   4.218   2.672
 8996TIP3   OH226951   5.083  -0.021   4.916
 8996TIP3    H126952   5.079  -0.072   4.835
 8996TIP3    H226953   5.108   0.067   4.887
 8997TIP3   OH226954   5.542   0.554   1.060
 8997TIP3    H126955   5.609   0.585   1.121
 8997TIP3    H226956   5.511   0.472   1.097
 8998TIP3   OH226957   2.279   3.423   2.367
 8998TIP3    H126958   2.329   3.452   2.444
 8998TIP3    H226959   2.222   3.497   2.346
 8999TIP3   OH226960   1.515   6.225   2.850
 8999TIP3    H126961   1.581   6.160   2.876
 8999TIP3    H226962   1.562   6.308   2.848
 9000TIP3   OH226963   2.873   0.984   0.925
 9000TIP3    H126964   2.871   0.924   0.999
 9000TIP3    H226965   2.791   0.968   0.878
 9001TIP3   OH226966   5.980   4.464   1.986
 9001TIP3    H126967   5.975   4.547   2.033
 9001TIP3    H226968   6.035   4.408   2.042
 9002TIP3   OH226969   3.250   0.969   1.262
 9002TIP3    H126970   3.290   0.987   1.177
 9002TIP3    H226971   3.270   0.878   1.280
 9003TIP3   OH226972   1.778   3.207   2.916
 9003TIP3    H126973   1.743   3.140   2.857
 9003TIP3    H226974   1.744   3.184   3.002
 9004TIP3   OH226975   2.304   2.827   4.346
 9004TIP3    H126976   2.229   2.873   4.384
 9004TIP3    H226977   2.271   2.739   4.329
 9005TIP3   OH226978   5.123   3.667   2.746
 9005TIP3    H126979   5.115   3.588   2.692
 9005TIP3    H226980   5.182   3.723   2.696
 9006TIP3   OH226981   0.822   3.067   1.689
 9006TIP3    H126982   0.896   3.007   1.681
 9006TIP3    H226983   0.853   3.149   1.651
 9007TIP3   OH226984   0.962   2.772   1.982
 9007TIP3    H126985   1.025   2.838   2.009
 9007TIP3    H226986   0.877   2.807   2.009
 9008TIP3   OH226987   3.728   3.048   5.529
 9008TIP3    H126988   3.718   3.049   5.624
 9008TIP3    H226989   3.746   3.139   5.505
 9009TIP3   OH226990   6.127   3.196   1.936
 9009TIP3    H126991   6.052   3.248   1.905
 9009TIP3    H226992   6.149   3.140   1.862
 9010TIP3   OH226993   3.686   6.500   1.605
 9010TIP3    H126994   3.658   6.447   1.679
 9010TIP3    H226995   3.619   6.567   1.596
 9011TIP3   OH226996   4.565   1.955   3.757
 9011TIP3    H126997   4.566   2.028   3.819
 9011TIP3    H226998   4.492   1.900   3.788
 9012TIP3   OH226999   4.037   0.395   3.015
 9012TIP3    H127000   4.090   0.429   2.944
 9012TIP3    H227001   4.051   0.457   3.087
 9013TIP3   OH227002   4.664   5.721   0.690
 9013TIP3    H127003   4.681   5.772   0.611
 9013TIP3    H227004   4.657   5.631   0.658
 9014TIP3   OH227005   7.090   3.969   4.323
 9014TIP3    H127006   7.113   3.900   4.385
 9014TIP3    H227007   7.033   3.925   4.259
 9015TIP3   OH227008   6.582   6.237   2.646
 9015TIP3    H127009   6.584   6.318   2.696
 9015TIP3    H227010   6.513   6.251   2.581
 9016TIP3   OH227011   0.296   0.476   5.232
 9016TIP3    H127012   0.247   0.481   5.150
 9016TIP3    H227013   0.238   0.514   5.297
 9017TIP3   OH227014   0.029   4.705   3.000
 9017TIP3    H127015  -0.007   4.730   3.085
 9017TIP3    H227016   0.113   4.751   2.995
 9018TIP3   OH227017   1.480   6.371   4.123
 9018TIP3    H127018   1.441   6.283   4.114
 9018TIP3    H227019   1.447   6.402   4.207
 9019TIP3   OH227020   6.546   4.270   4.462
 9019TIP3    H127021   6.586   4.207   4.402
 9019TIP3    H227022   6.461   4.232   4.483
 9020TIP3   OH227023   5.989   0.638   3.775
 9020TIP3    H127024   5.976   0.586   3.854
 9020TIP3    H227025   6.014   0.725   3.807
 9021TIP3   OH227026   2.489   1.246   2.385
 9021TIP3    H127027   2.408   1.206   2.417
 9021TIP3    H227028   2.543   1.256   2.463
 9022TIP3   OH227029   1.920   3.822   1.339
 9022TIP3    H127030   1.943   3.893   1.399
 9022TIP3    H227031   1.991   3.759   1.348
 9023TIP3   OH227032   1.808   3.047   3.495
 9023TIP3    H127033   1.747   3.121   3.503
 9023TIP3    H227034   1.890   3.086   3.466
 9024TIP3   OH227035   5.798   3.624   3.899
 9024TIP3    H127036   5.780   3.712   3.933
 9024TIP3    H227037   5.728   3.570   3.936
 9025TIP3   OH227038   0.754   0.994   5.865
 9025TIP3    H127039   0.813   1.065   5.840
 9025TIP3    H227040   0.695   0.984   5.790
 9026TIP3   OH227041   6.619   0.101   5.297
 9026TIP3    H127042   6.559   0.089   5.223
 9026TIP3    H227043   6.564   0.094   5.374
 9027TIP3   OH227044   0.693   4.193   0.312
 9027TIP3    H127045   0.753   4.247   0.364
 9027TIP3    H227046   0.608   4.204   0.355
 9028TIP3   OH227047   0.414   0.355   3.773
 9028TIP3    H127048   0.327   0.369   3.811
 9028TIP3    H227049   0.401   0.362   3.679
 9029TIP3   OH227050   3.272   5.219   3.824
 9029TIP3    H127051   3.279   5.150   3.758
 9029TIP3    H227052   3.348   5.275   3.809
 9030TIP3   OH227053   4.879   6.610   1.930
 9030TIP3    H127054   4.797   6.642   1.969
 9030TIP3    H227055   4.922   6.563   2.001
 9031TIP3   OH227056   3.423   0.842   5.649
 9031TIP3    H127057   3.366   0.813   5.721
 9031TIP3    H227058   3.365   0.890   5.590
 9032TIP3   OH227059   2.660   5.438   4.954
 9032TIP3    H127060   2.749   5.410   4.976
 9032TIP3    H227061   2.610   5.424   5.035
 9033TIP3   OH227062   5.659   4.013   1.330
 9033TIP3    H127063   5.676   4.047   1.242
 9033TIP3    H227064   5.602   3.937   1.316
 9034TIP3   OH227065   6.274   5.265   4.383
 9034TIP3    H127066   6.369   5.270   4.382
 9034TIP3    H227067   6.255   5.172   4.369
 9035TIP3   OH227068   4.788   0.416   0.049
 9035TIP3    H127069   4.807   0.380  -0.038
 9035TIP3    H227070   4.805   0.509   0.041
 9036TIP3   OH227071   6.462   3.763   0.750
 9036TIP3    H127072   6.542   3.807   0.724
 9036TIP3    H227073   6.486   3.670   0.752
 9037TIP3   OH227074   6.162   5.700   0.442
 9037TIP3    H127075   6.220   5.685   0.367
 9037TIP3    H227076   6.207   5.766   0.495
 9038TIP3   OH227077   5.913   3.410   1.859
 9038TIP3    H127078   5.841   3.471   1.849
 9038TIP3    H227079   5.871   3.324   1.868
 9039TIP3   OH227080   4.074   0.129   1.543
 9039TIP3    H127081   4.163   0.095   1.552
 9039TIP3    H227082   4.024   0.085   1.612
 9040TIP3   OH227083   1.516   0.583   0.053
 9040TIP3    H127084   1.572   0.507   0.036
 9040TIP3    H227085   1.542   0.613   0.139
 9041TIP3   OH227086   6.804   1.404   5.575
 9041TIP3    H127087   6.740   1.359   5.629
 9041TIP3    H227088   6.801   1.359   5.491
 9042TIP3   OH227089   0.242   6.189   3.055
 9042TIP3    H127090   0.288   6.272   3.069
 9042TIP3    H227091   0.222   6.158   3.143
 9043TIP3   OH227092   1.329   2.154   5.347
 9043TIP3    H127093   1.281   2.192   5.273
 9043TIP3    H227094   1.351   2.066   5.318
 9044TIP3   OH227095   5.927   1.838   1.942
 9044TIP3    H127096   6.013   1.877   1.931
 9044TIP3    H227097   5.925   1.808   2.033
 9045TIP3   OH227098   6.971   1.743   4.898
 9045TIP3    H127099   6.960   1.824   4.947
 9045TIP3    H227100   6.919   1.754   4.819
 9046TIP3   OH227101   1.878   3.752   0.180
 9046TIP3    H127102   1.855   3.799   0.261
 9046TIP3    H227103   1.902   3.820   0.118
 9047TIP3   OH227104   4.555   5.072   5.419
 9047TIP3    H127105   4.602   5.149   5.388
 9047TIP3    H227106   4.464   5.101   5.427
 9048TIP3   OH227107   4.322   4.367   5.517
 9048TIP3    H127108   4.296   4.400   5.431
 9048TIP3    H227109   4.387   4.431   5.547
 9049TIP3   OH227110   0.097   3.969   1.174
 9049TIP3    H127111   0.128   4.007   1.256
 9049TIP3    H227112   0.103   4.040   1.111
 9050TIP3   OH227113   3.979   2.072   4.136
 9050TIP3    H127114   3.986   2.066   4.040
 9050TIP3    H227115   3.964   1.982   4.165
 9051TIP3   OH227116   2.636   1.061   4.071
 9051TIP3    H127117   2.704   1.041   4.136
 9051TIP3    H227118   2.563   1.005   4.094
 9052TIP3   OH227119   6.088   3.399   5.223
 9052TIP3    H127120   6.098   3.473   5.283
 9052TIP3    H227121   6.143   3.330   5.259
 9053TIP3   OH227122   1.065   1.618   5.581
 9053TIP3    H127123   1.027   1.625   5.493
 9053TIP3    H227124   1.135   1.683   5.582
 9054TIP3   OH227125   1.678   1.431   2.236
 9054TIP3    H127126   1.612   1.405   2.172
 9054TIP3    H227127   1.686   1.356   2.295
 9055TIP3   OH227128   3.019   2.564   0.162
 9055TIP3    H127129   2.927   2.540   0.170
 9055TIP3    H227130   3.067   2.485   0.185
 9056TIP3   OH227131   3.867   4.419   1.855
 9056TIP3    H127132   3.934   4.415   1.923
 9056TIP3    H227133   3.785   4.433   1.904
 9057TIP3   OH227134   6.931   6.578   0.349
 9057TIP3    H127135   6.906   6.524   0.274
 9057TIP3    H227136   6.869   6.555   0.418
 9058TIP3   OH227137   3.709   1.124   5.178
 9058TIP3    H127138   3.694   1.193   5.243
 9058TIP3    H227139   3.801   1.134   5.152
 9059TIP3   OH227140   3.447   2.593   1.623
 9059TIP3    H127141   3.525   2.595   1.567
 9059TIP3    H227142   3.474   2.640   1.702
 9060TIP3   OH227143   6.787   1.387   3.605
 9060TIP3    H127144   6.765   1.337   3.683
 9060TIP3    H227145   6.742   1.470   3.615
 9061TIP3   OH227146   4.676   4.074   4.115
 9061TIP3    H127147   4.754   4.025   4.138
 9061TIP3    H227148   4.630   4.019   4.052
 9062TIP3   OH227149   6.129   6.108   1.227
 9062TIP3    H127150   6.221   6.134   1.230
 9062TIP3    H227151   6.086   6.177   1.176
 9063TIP3   OH227152   2.648   5.899   0.253
 9063TIP3    H127153   2.670   5.978   0.203
 9063TIP3    H227154   2.641   5.830   0.187
 9064TIP3   OH227155   5.830   0.343   0.220
 9064TIP3    H127156   5.850   0.420   0.166
 9064TIP3    H227157   5.851   0.268   0.164
 9065TIP3   OH227158   4.265   0.741   0.338
 9065TIP3    H127159   4.358   0.755   0.321
 9065TIP3    H227160   4.259   0.734   0.433
 9066TIP3   OH227161   0.303   3.930   4.888
 9066TIP3    H127162   0.303   3.928   4.984
 9066TIP3    H227163   0.227   3.983   4.865
 9067TIP3   OH227164   2.509   2.287   2.633
 9067TIP3    H127165   2.518   2.275   2.538
 9067TIP3    H227166   2.504   2.197   2.667
 9068TIP3   OH227167   5.886   2.106   0.313
 9068TIP3    H127168   5.806   2.087   0.364
 9068TIP3    H227169   5.930   2.175   0.362
 9069TIP3   OH227170   5.258   0.186   4.315
 9069TIP3    H127171   5.226   0.267   4.276
 9069TIP3    H227172   5.330   0.213   4.373
 9070TIP3   OH227173   1.575   3.090   1.374
 9070TIP3    H127174   1.661   3.109   1.412
 9070TIP3    H227175   1.584   3.110   1.281
 9071TIP3   OH227176   0.126   4.100   5.623
 9071TIP3    H127177   0.192   4.153   5.578
 9071TIP3    H227178   0.045   4.152   5.615
 9072TIP3   OH227179   4.060   2.148   2.193
 9072TIP3    H127180   3.999   2.080   2.167
 9072TIP3    H227181   4.088   2.124   2.281
 9073TIP3   OH227182   3.704   3.559   4.052
 9073TIP3    H127183   3.684   3.642   4.094
 9073TIP3    H227184   3.713   3.581   3.959
 9074TIP3   OH227185   3.150   3.683   2.017
 9074TIP3    H127186   3.063   3.688   2.056
 9074TIP3    H227187   3.136   3.698   1.924
 9075TIP3   OH227188   0.290   3.644   4.267
 9075TIP3    H127189   0.235   3.579   4.312
 9075TIP3    H227190   0.242   3.726   4.276
 9076TIP3   OH227191   1.829   5.429   3.914
 9076TIP3    H127192   1.832   5.431   3.819
 9076TIP3    H227193   1.827   5.521   3.940
 9077TIP3   OH227194   2.551   0.205   4.159
 9077TIP3    H127195   2.484   0.145   4.128
 9077TIP3    H227196   2.522   0.231   4.246
 9078TIP3   OH227197   7.104   6.543   4.678
 9078TIP3    H127198   7.107   6.493   4.760
 9078TIP3    H227199   7.078   6.631   4.704
 9079TIP3   OH227200   6.705   3.680   4.851
 9079TIP3    H127201   6.774   3.616   4.842
 9079TIP3    H227202   6.630   3.641   4.806
 9080TIP3   OH227203   4.504   4.222   5.236
 9080TIP3    H127204   4.519   4.130   5.260
 9080TIP3    H227205   4.577   4.244   5.179
 9081TIP3   OH227206   3.947   1.596   0.157
 9081TIP3    H127207   3.988   1.683   0.154
 9081TIP3    H227208   3.901   1.588   0.073
 9082TIP3   OH227209   6.819   3.223   3.391
 9082TIP3    H127210   6.824   3.303   3.442
 9082TIP3    H227211   6.729   3.193   3.401
 9083TIP3   OH227212   6.628   6.276   0.685
 9083TIP3    H127213   6.559   6.342   0.689
 9083TIP3    H227214   6.632   6.239   0.773
 9084TIP3   OH227215   7.070   5.748   5.630
 9084TIP3    H127216   7.045   5.718   5.543
 9084TIP3    H227217   7.014   5.699   5.690
 9085TIP3   OH227218   0.438   2.683   1.370
 9085TIP3    H127219   0.451   2.607   1.314
 9085TIP3    H227220   0.348   2.676   1.402
 9086TIP3   OH227221   6.312   0.812   0.517
 9086TIP3    H127222   6.242   0.872   0.543
 9086TIP3    H227223   6.387   0.839   0.570
 9087TIP3   OH227224   6.952   4.667   3.342
 9087TIP3    H127225   6.979   4.597   3.402
 9087TIP3    H227226   7.033   4.710   3.316
 9088TIP3   OH227227   2.506   3.129   3.280
 9088TIP3    H127228   2.528   3.097   3.367
 9088TIP3    H227229   2.585   3.114   3.228
 9089TIP3   OH227230   5.980   5.376   0.561
 9089TIP3    H127231   6.022   5.331   0.634
 9089TIP3    H227232   5.971   5.467   0.591
 9090TIP3   OH227233   1.602   2.338   4.814
 9090TIP3    H127234   1.591   2.383   4.730
 9090TIP3    H227235   1.616   2.246   4.789
 9091TIP3   OH227236   3.034   0.046   0.082
 9091TIP3    H127237   2.944   0.034   0.112
 9091TIP3    H227238   3.031   0.127   0.031
 9092TIP3   OH227239   1.007   0.191   4.215
 9092TIP3    H127240   0.953   0.112   4.213
 9092TIP3    H227241   0.952   0.256   4.258
 9093TIP3   OH227242   0.985   1.592   1.466
 9093TIP3    H127243   1.042   1.635   1.529
 9093TIP3    H227244   0.979   1.502   1.497
 9094TIP3   OH227245   6.474   5.839   0.733
 9094TIP3    H127246   6.561   5.831   0.773
 9094TIP3    H227247   6.452   5.750   0.707
 9095TIP3   OH227248   6.628   1.193   3.334
 9095TIP3    H127249   6.671   1.159   3.256
 9095TIP3    H227250   6.699   1.231   3.386
 9096TIP3   OH227251   6.229   2.570   1.383
 9096TIP3    H127252   6.135   2.565   1.370
 9096TIP3    H227253   6.265   2.583   1.296
 9097TIP3   OH227254   6.263   5.377   0.349
 9097TIP3    H127255   6.218   5.407   0.428
 9097TIP3    H227256   6.192   5.356   0.288
 9098TIP3   OH227257   0.356   1.117   3.677
 9098TIP3    H127258   0.266   1.142   3.695
 9098TIP3    H227259   0.359   1.022   3.691
 9099TIP3   OH227260   1.665   2.180   0.595
 9099TIP3    H127261   1.719   2.237   0.540
 9099TIP3    H227262   1.708   2.095   0.591
 9100TIP3   OH227263   4.635   5.919   0.039
 9100TIP3    H127264   4.607   5.874  -0.040
 9100TIP3    H227265   4.729   5.899   0.046
 9101TIP3   OH227266   4.773   5.232   2.080
 9101TIP3    H127267   4.792   5.308   2.024
 9101TIP3    H227268   4.856   5.212   2.123
 9102TIP3   OH227269   7.080   4.378   0.977
 9102TIP3    H127270   7.009   4.432   1.013
 9102TIP3    H227271   7.152   4.439   0.961
 9103TIP3   OH227272   0.394   1.156   1.808
 9103TIP3    H127273   0.393   1.252   1.815
 9103TIP3    H227274   0.304   1.129   1.825
 9104TIP3   OH227275   5.842   6.373   4.633
 9104TIP3    H127276   5.816   6.465   4.627
 9104TIP3    H227277   5.849   6.356   4.727
 9105TIP3   OH227278   4.133   0.398   1.501
 9105TIP3    H127279   4.143   0.386   1.407
 9105TIP3    H227280   4.132   0.310   1.537
 9106TIP3   OH227281   0.200   0.531   0.369
 9106TIP3    H127282   0.140   0.582   0.423
 9106TIP3    H227283   0.222   0.589   0.296
 9107TIP3   OH227284   0.448   6.746   0.880
 9107TIP3    H127285   0.445   6.766   0.973
 9107TIP3    H227286   0.365   6.778   0.846
 9108TIP3   OH227287   2.589   0.349   1.574
 9108TIP3    H127288   2.683   0.341   1.558
 9108TIP3    H227289   2.561   0.262   1.602
 9109TIP3   OH227290   6.112   2.817   3.100
 9109TIP3    H127291   6.192   2.784   3.059
 9109TIP3    H227292   6.138   2.899   3.142
 9110TIP3   OH227293   4.591   6.132   0.948
 9110TIP3    H127294   4.538   6.212   0.948
 9110TIP3    H227295   4.545   6.072   0.890
 9111TIP3   OH227296   0.787   2.558   4.732
 9111TIP3    H127297   0.865   2.610   4.713
 9111TIP3    H227298   0.715   2.621   4.729
 9112TIP3   OH227299   6.674   0.323   4.870
 9112TIP3    H127300   6.694   0.330   4.776
 9112TIP3    H227301   6.722   0.246   4.899
 9113TIP3   OH227302   3.508   1.162   0.639
 9113TIP3    H127303   3.527   1.177   0.546
 9113TIP3    H227304   3.436   1.221   0.658
 9114TIP3   OH227305   6.840   3.383   0.223
 9114TIP3    H127306   6.788   3.456   0.257
 9114TIP3    H227307   6.796   3.304   0.255
 9115TIP3   OH227308   1.273   5.854   0.409
 9115TIP3    H127309   1.274   5.950   0.408
 9115TIP3    H227310   1.192   5.830   0.364
 9116TIP3   OH227311   0.197   2.183   4.709
 9116TIP3    H127312   0.125   2.246   4.696
 9116TIP3    H227313   0.191   2.159   4.802
 9117TIP3   OH227314   3.455   3.522   4.707
 9117TIP3    H127315   3.472   3.616   4.705
 9117TIP3    H227316   3.533   3.485   4.750
 9118TIP3   OH227317   2.693   6.050   5.391
 9118TIP3    H127318   2.690   5.984   5.460
 9118TIP3    H227319   2.786   6.067   5.377
 9119TIP3   OH227320   1.693   4.123   1.968
 9119TIP3    H127321   1.752   4.149   2.039
 9119TIP3    H227322   1.606   4.142   2.002
 9120TIP3   OH227323   1.420   2.521   1.769
 9120TIP3    H127324   1.455   2.589   1.710
 9120TIP3    H227325   1.435   2.557   1.857
 9121TIP3   OH227326   6.677   4.746   0.047
 9121TIP3    H127327   6.691   4.671   0.106
 9121TIP3    H227328   6.583   4.747   0.032
 9122TIP3   OH227329   3.657   1.136   5.728
 9122TIP3    H127330   3.644   1.073   5.657
 9122TIP3    H227331   3.583   1.196   5.722
 9123TIP3   OH227332   0.017   4.884   1.708
 9123TIP3    H127333  -0.028   4.804   1.734
 9123TIP3    H227334   0.062   4.913   1.787
 9124TIP3   OH227335   1.252   3.881   2.984
 9124TIP3    H127336   1.213   3.941   3.048
 9124TIP3    H227337   1.233   3.920   2.899
 9125TIP3   OH227338   3.521   4.170   5.323
 9125TIP3    H127339   3.577   4.100   5.355
 9125TIP3    H227340   3.503   4.224   5.400
 9126TIP3   OH227341   5.835   1.288   0.179
 9126TIP3    H127342   5.789   1.257   0.101
 9126TIP3    H227343   5.771   1.343   0.225
 9127TIP3   OH227344   2.514   2.204   5.058
 9127TIP3    H127345   2.530   2.291   5.023
 9127TIP3    H227346   2.585   2.151   5.021
 9128TIP3   OH227347   2.389   2.001   1.715
 9128TIP3    H127348   2.405   1.987   1.809
 9128TIP3    H227349   2.462   1.956   1.672
 9129TIP3   OH227350   4.143   5.466   1.425
 9129TIP3    H127351   4.048   5.454   1.414
 9129TIP3    H227352   4.182   5.420   1.351
 9130TIP3   OH227353   1.372   5.963   2.160
 9130TIP3    H127354   1.436   5.978   2.090
 9130TIP3    H227355   1.411   6.002   2.237
 9131TIP3   OH227356   4.012   5.801   0.739
 9131TIP3    H127357   4.012   5.796   0.644
 9131TIP3    H227358   3.996   5.711   0.768
 9132TIP3   OH227359   6.717   3.385   2.072
 9132TIP3    H127360   6.644   3.324   2.080
 9132TIP3    H227361   6.692   3.461   2.125
 9133TIP3   OH227362   1.654   2.305   2.670
 9133TIP3    H127363   1.678   2.220   2.707
 9133TIP3    H227364   1.576   2.287   2.617
 9134TIP3   OH227365   3.849   5.004   0.909
 9134TIP3    H127366   3.900   5.081   0.883
 9134TIP3    H227367   3.849   4.949   0.831
 9135TIP3   OH227368   4.506   2.358   0.660
 9135TIP3    H127369   4.434   2.396   0.610
 9135TIP3    H227370   4.579   2.418   0.647
 9136TIP3   OH227371   5.099   5.659   1.128
 9136TIP3    H127372   5.042   5.704   1.066
 9136TIP3    H227373   5.040   5.625   1.195
 9137TIP3   OH227374   3.933   0.959   2.790
 9137TIP3    H127375   3.875   0.984   2.719
 9137TIP3    H227376   3.923   0.864   2.797
 9138TIP3   OH227377   4.566   3.127   0.009
 9138TIP3    H127378   4.624   3.087   0.073
 9138TIP3    H227379   4.498   3.061  -0.007
 9139TIP3   OH227380   5.580   3.389   3.637
 9139TIP3    H127381   5.668   3.355   3.621
 9139TIP3    H227382   5.555   3.352   3.722
 9140TIP3   OH227383   4.959   0.916   3.814
 9140TIP3    H127384   4.892   0.850   3.831
 9140TIP3    H227385   4.954   0.976   3.889
 9141TIP3   OH227386   5.128   3.690   4.094
 9141TIP3    H127387   5.129   3.784   4.079
 9141TIP3    H227388   5.081   3.679   4.177
 9142TIP3   OH227389   2.218   3.254   1.543
 9142TIP3    H127390   2.244   3.219   1.628
 9142TIP3    H227391   2.180   3.179   1.497
 9143TIP3   OH227392   5.691   1.760   1.833
 9143TIP3    H127393   5.764   1.796   1.883
 9143TIP3    H227394   5.728   1.740   1.747
 9144TIP3   OH227395   4.617   6.664   2.044
 9144TIP3    H127396   4.575   6.712   1.973
 9144TIP3    H227397   4.597   6.715   2.123
 9145TIP3   OH227398   6.122   3.102   0.241
 9145TIP3    H127399   6.174   3.181   0.229
 9145TIP3    H227400   6.038   3.121   0.198
 9146TIP3   OH227401   4.354   1.497   0.401
 9146TIP3    H127402   4.291   1.564   0.427
 9146TIP3    H227403   4.435   1.521   0.446
 9147TIP3   OH227404   0.943   3.315   3.022
 9147TIP3    H127405   0.866   3.287   3.071
 9147TIP3    H227406   1.015   3.305   3.084
 9148TIP3   OH227407   5.822   4.721   3.450
 9148TIP3    H127408   5.831   4.777   3.374
 9148TIP3    H227409   5.894   4.658   3.443
 9149TIP3   OH227410   4.858   1.607   1.195
 9149TIP3    H127411   4.837   1.535   1.135
 9149TIP3    H227412   4.945   1.637   1.166
 9150TIP3   OH227413   6.526   3.457   5.346
 9150TIP3    H127414   6.502   3.548   5.326
 9150TIP3    H227415   6.574   3.428   5.268
 9151TIP3   OH227416   2.266   6.481   0.523
 9151TIP3    H127417   2.300   6.406   0.474
 9151TIP3    H227418   2.333   6.500   0.588
 9152TIP3   OH227419   2.814   1.493   1.427
 9152TIP3    H127420   2.886   1.537   1.382
 9152TIP3    H227421   2.756   1.463   1.357
 9153TIP3   OH227422   2.564   5.359   5.229
 9153TIP3    H127423   2.652   5.364   5.267
 9153TIP3    H227424   2.525   5.444   5.249
 9154TIP3   OH227425   6.266   2.460   1.772
 9154TIP3    H127426   6.263   2.489   1.863
 9154TIP3    H227427   6.185   2.410   1.760
 9155TIP3   OH227428   0.836   3.512   5.793
 9155TIP3    H127429   0.792   3.579   5.742
 9155TIP3    H227430   0.921   3.551   5.815
 9156TIP3   OH227431   6.084   5.281   2.365
 9156TIP3    H127432   6.099   5.189   2.388
 9156TIP3    H227433   6.029   5.278   2.287
 9157TIP3   OH227434   5.212   6.382   2.007
 9157TIP3    H127435   5.193   6.371   1.914
 9157TIP3    H227436   5.253   6.468   2.013
 9158TIP3   OH227437   4.257   4.200   3.702
 9158TIP3    H127438   4.262   4.190   3.797
 9158TIP3    H227439   4.332   4.255   3.680
 9159TIP3   OH227440   0.923   3.248   0.196
 9159TIP3    H127441   0.979   3.179   0.159
 9159TIP3    H227442   0.835   3.211   0.194
 9160TIP3   OH227443   1.720   5.062   0.577
 9160TIP3    H127444   1.717   5.036   0.484
 9160TIP3    H227445   1.637   5.107   0.591
 9161TIP3   OH227446   5.818   3.902   5.794
 9161TIP3    H127447   5.829   3.990   5.759
 9161TIP3    H227448   5.902   3.859   5.775
 9162TIP3   OH227449   2.796   2.228   1.353
 9162TIP3    H127450   2.720   2.272   1.314
 9162TIP3    H227451   2.861   2.298   1.364
 9163TIP3   OH227452   5.202   0.231   4.846
 9163TIP3    H127453   5.255   0.233   4.925
 9163TIP3    H227454   5.150   0.311   4.850
 9164TIP3   OH227455   6.972   6.496   0.849
 9164TIP3    H127456   6.906   6.487   0.918
 9164TIP3    H227457   6.935   6.560   0.788
 9165TIP3   OH227458   0.395   6.670   3.262
 9165TIP3    H127459   0.446   6.592   3.286
 9165TIP3    H227460   0.433   6.699   3.179
 9166TIP3   OH227461   4.064   3.070   1.763
 9166TIP3    H127462   4.097   3.091   1.851
 9166TIP3    H227463   4.068   3.153   1.716
 9167TIP3   OH227464   6.802   0.312   4.622
 9167TIP3    H127465   6.788   0.219   4.602
 9167TIP3    H227466   6.889   0.331   4.587
 9168TIP3   OH227467   6.797   2.270   1.397
 9168TIP3    H127468   6.852   2.206   1.443
 9168TIP3    H227469   6.754   2.319   1.467
 9169TIP3   OH227470   4.000   6.096   3.083
 9169TIP3    H127471   3.980   6.183   3.049
 9169TIP3    H227472   4.091   6.102   3.110
 9170TIP3   OH227473   1.516   2.463   2.902
 9170TIP3    H127474   1.571   2.512   2.964
 9170TIP3    H227475   1.576   2.441   2.831
 9171TIP3   OH227476   1.301   5.118   5.302
 9171TIP3    H127477   1.295   5.112   5.207
 9171TIP3    H227478   1.388   5.155   5.317
 9172TIP3   OH227479   5.560   1.396   4.991
 9172TIP3    H127480   5.638   1.354   5.026
 9172TIP3    H227481   5.557   1.481   5.034
 9173TIP3   OH227482   5.167   4.537   0.382
 9173TIP3    H127483   5.117   4.455   0.373
 9173TIP3    H227484   5.130   4.595   0.315
 9174TIP3   OH227485   2.629   2.884   0.275
 9174TIP3    H127486   2.687   2.923   0.340
 9174TIP3    H227487   2.591   2.808   0.319
 9175TIP3   OH227488   0.695   3.536   3.204
 9175TIP3    H127489   0.690   3.626   3.171
 9175TIP3    H227490   0.713   3.483   3.127
 9176TIP3   OH227491   1.752   0.515   3.054
 9176TIP3    H127492   1.844   0.487   3.053
 9176TIP3    H227493   1.703   0.437   3.027
 9177TIP3   OH227494   2.826   5.530   3.042
 9177TIP3    H127495   2.843   5.617   3.006
 9177TIP3    H227496   2.758   5.544   3.107
 9178TIP3   OH227497   2.061   5.369   3.363
 9178TIP3    H127498   2.097   5.402   3.446
 9178TIP3    H227499   2.115   5.292   3.343
 9179TIP3   OH227500   1.849   6.340   0.461
 9179TIP3    H127501   1.918   6.314   0.521
 9179TIP3    H227502   1.794   6.262   0.450
 9180TIP3   OH227503   2.989   1.977   4.835
 9180TIP3    H127504   2.986   1.903   4.897
 9180TIP3    H227505   3.081   2.003   4.835
 9181TIP3   OH227506   5.293   1.463   4.486
 9181TIP3    H127507   5.328   1.492   4.571
 9181TIP3    H227508   5.328   1.525   4.423
 9182TIP3   OH227509   6.949   5.799   2.110
 9182TIP3    H127510   6.986   5.847   2.184
 9182TIP3    H227511   6.856   5.793   2.129
 9183TIP3   OH227512   3.456   6.599   0.968
 9183TIP3    H127513   3.542   6.596   1.010
 9183TIP3    H227514   3.406   6.528   1.009
 9184TIP3   OH227515   2.331   5.705   3.997
 9184TIP3    H127516   2.302   5.760   3.924
 9184TIP3    H227517   2.378   5.633   3.956
 9185TIP3   OH227518   6.944   3.892   3.561
 9185TIP3    H127519   6.865   3.927   3.603
 9185TIP3    H227520   6.921   3.886   3.468
 9186TIP3   OH227521   3.941   3.654   2.518
 9186TIP3    H127522   3.949   3.749   2.507
 9186TIP3    H227523   3.996   3.617   2.449
 9187TIP3   OH227524   2.658   3.398   2.832
 9187TIP3    H127525   2.664   3.437   2.745
 9187TIP3    H227526   2.654   3.304   2.817
 9188TIP3   OH227527   4.910   6.326   0.488
 9188TIP3    H127528   5.002   6.331   0.513
 9188TIP3    H227529   4.878   6.416   0.496
 9189TIP3   OH227530   0.843   5.414   1.690
 9189TIP3    H127531   0.835   5.494   1.639
 9189TIP3    H227532   0.752   5.390   1.711
 9190TIP3   OH227533   1.256   5.940   5.048
 9190TIP3    H127534   1.225   5.911   4.963
 9190TIP3    H227535   1.197   5.898   5.111
 9191TIP3   OH227536   2.941   3.705   5.437
 9191TIP3    H127537   2.880   3.682   5.508
 9191TIP3    H227538   2.996   3.628   5.427
 9192TIP3   OH227539   3.867   3.825   2.258
 9192TIP3    H127540   3.818   3.885   2.314
 9192TIP3    H227541   3.956   3.860   2.257
 9193TIP3   OH227542   5.176   1.069   3.052
 9193TIP3    H127543   5.236   1.082   3.126
 9193TIP3    H227544   5.227   1.093   2.975
 9194TIP3   OH227545   0.286   1.576   4.258
 9194TIP3    H127546   0.359   1.591   4.198
 9194TIP3    H227547   0.286   1.481   4.273
 9195TIP3   OH227548   0.221   0.920   2.669
 9195TIP3    H127549   0.243   0.956   2.583
 9195TIP3    H227550   0.156   0.980   2.705
 9196TIP3   OH227551   2.953   6.344   1.320
 9196TIP3    H127552   2.937   6.253   1.293
 9196TIP3    H227553   2.880   6.365   1.378
 9197TIP3   OH227554   5.424   2.182   4.091
 9197TIP3    H127555   5.519   2.190   4.076
 9197TIP3    H227556   5.413   2.202   4.184
 9198TIP3   OH227557   0.720   4.933   2.705
 9198TIP3    H127558   0.704   4.995   2.634
 9198TIP3    H227559   0.635   4.892   2.722
 9199TIP3   OH227560   4.561   4.832   3.769
 9199TIP3    H127561   4.534   4.911   3.816
 9199TIP3    H227562   4.524   4.760   3.820
 9200TIP3   OH227563   0.497   3.134   3.058
 9200TIP3    H127564   0.446   3.215   3.058
 9200TIP3    H227565   0.454   3.079   3.124
 9201TIP3   OH227566   5.882   1.257   1.303
 9201TIP3    H127567   5.958   1.239   1.358
 9201TIP3    H227568   5.910   1.233   1.215
 9202TIP3   OH227569   5.307   4.395   4.346
 9202TIP3    H127570   5.256   4.363   4.272
 9202TIP3    H227571   5.299   4.326   4.412
 9203TIP3   OH227572   4.613   2.651   1.505
 9203TIP3    H127573   4.560   2.609   1.572
 9203TIP3    H227574   4.690   2.595   1.496
 9204TIP3   OH227575   4.641   0.999   5.165
 9204TIP3    H127576   4.664   1.056   5.092
 9204TIP3    H227577   4.686   1.037   5.241
 9205TIP3   OH227578   3.568   6.108   3.042
 9205TIP3    H127579   3.620   6.090   3.121
 9205TIP3    H227580   3.523   6.026   3.023
 9206TIP3   OH227581   3.109   6.504   1.030
 9206TIP3    H127582   3.024   6.548   1.037
 9206TIP3    H227583   3.153   6.548   0.958
 9207TIP3   OH227584   1.304   2.601   4.564
 9207TIP3    H127585   1.222   2.645   4.541
 9207TIP3    H227586   1.368   2.672   4.568
 9208TIP3   OH227587   6.124   1.985   0.054
 9208TIP3    H127588   6.154   2.016   0.139
 9208TIP3    H227589   6.133   2.062  -0.003
 9209TIP3   OH227590   0.920   1.647   4.466
 9209TIP3    H127591   0.982   1.649   4.539
 9209TIP3    H227592   0.975   1.654   4.388
 9210TIP3   OH227593   2.042   0.251   5.221
 9210TIP3    H127594   1.977   0.217   5.283
 9210TIP3    H227595   2.094   0.312   5.274
 9211TIP3   OH227596   4.143   5.528   2.675
 9211TIP3    H127597   4.208   5.569   2.732
 9211TIP3    H227598   4.183   5.527   2.588
 9212TIP3   OH227599   3.692   4.502   5.576
 9212TIP3    H127600   3.781   4.498   5.540
 9212TIP3    H227601   3.643   4.437   5.527
 9213TIP3   OH227602   3.055   2.053   0.810
 9213TIP3    H127603   2.963   2.065   0.835
 9213TIP3    H227604   3.056   1.969   0.763
 9214TIP3   OH227605   0.284  -0.040   5.410
 9214TIP3    H127606   0.197   0.000   5.416
 9214TIP3    H227607   0.332   0.015   5.348
 9215TIP3   OH227608   1.475   6.149   0.797
 9215TIP3    H127609   1.481   6.143   0.702
 9215TIP3    H227610   1.415   6.079   0.822
 9216TIP3   OH227611   5.201   5.229   1.235
 9216TIP3    H127612   5.215   5.139   1.266
 9216TIP3    H227613   5.289   5.264   1.223
 9217TIP3   OH227614   2.737   5.926   1.737
 9217TIP3    H127615   2.648   5.950   1.709
 9217TIP3    H227616   2.747   5.835   1.710
 9218TIP3   OH227617   0.320   4.274   5.508
 9218TIP3    H127618   0.378   4.243   5.439
 9218TIP3    H227619   0.301   4.365   5.485
 9219TIP3   OH227620   2.708   2.843   2.421
 9219TIP3    H127621   2.796   2.831   2.457
 9219TIP3    H227622   2.680   2.755   2.397
 9220TIP3   OH227623   4.158   2.062   5.156
 9220TIP3    H127624   4.197   2.081   5.071
 9220TIP3    H227625   4.122   1.973   5.147
 9221TIP3   OH227626   2.470   3.518   0.391
 9221TIP3    H127627   2.402   3.450   0.397
 9221TIP3    H227628   2.492   3.521   0.298
 9222TIP3   OH227629   5.409   3.213  -0.034
 9222TIP3    H127630   5.315   3.233  -0.041
 9222TIP3    H227631   5.442   3.275   0.031
 9223TIP3   OH227632   4.666   4.781   2.249
 9223TIP3    H127633   4.658   4.863   2.201
 9223TIP3    H227634   4.675   4.807   2.340
 9224TIP3   OH227635   3.296   0.993   0.364
 9224TIP3    H127636   3.321   0.911   0.406
 9224TIP3    H227637   3.316   1.061   0.430
 9225TIP3   OH227638   5.052   0.470   4.890
 9225TIP3    H127639   5.060   0.497   4.799
 9225TIP3    H227640   4.966   0.427   4.895
 9226TIP3   OH227641   6.460   2.083   5.824
 9226TIP3    H127642   6.371   2.120   5.824
 9226TIP3    H227643   6.514   2.152   5.787
 9227TIP3   OH227644   4.693   6.536   1.253
 9227TIP3    H127645   4.661   6.589   1.180
 9227TIP3    H227646   4.743   6.597   1.307
 9228TIP3   OH227647   0.851   0.876   0.749
 9228TIP3    H127648   0.791   0.831   0.689
 9228TIP3    H227649   0.905   0.806   0.786
 9229TIP3   OH227650   5.788   6.393   3.673
 9229TIP3    H127651   5.791   6.377   3.768
 9229TIP3    H227652   5.828   6.480   3.663
 9230TIP3   OH227653   4.547   1.278   5.751
 9230TIP3    H127654   4.532   1.184   5.744
 9230TIP3    H227655   4.515   1.301   5.839
 9231TIP3   OH227656   3.902   2.584   0.088
 9231TIP3    H127657   3.887   2.676   0.108
 9231TIP3    H227658   3.995   2.579   0.067
 9232TIP3   OH227659   4.925   4.795   4.582
 9232TIP3    H127660   4.974   4.866   4.541
 9232TIP3    H227661   4.953   4.797   4.674
 9233TIP3   OH227662   1.085   2.409   2.817
 9233TIP3    H127663   1.164   2.456   2.789
 9233TIP3    H227664   1.118   2.339   2.874
 9234TIP3   OH227665   6.470   4.739   2.257
 9234TIP3    H127666   6.538   4.707   2.197
 9234TIP3    H227667   6.495   4.703   2.342
 9235TIP3   OH227668   0.167   4.016   2.602
 9235TIP3    H127669   0.260   3.992   2.595
 9235TIP3    H227670   0.163   4.078   2.675
 9236TIP3   OH227671   2.287   0.155   2.068
 9236TIP3    H127672   2.294   0.064   2.097
 9236TIP3    H227673   2.211   0.156   2.010
 9237TIP3   OH227674   0.616   0.706   4.911
 9237TIP3    H127675   0.553   0.664   4.853
 9237TIP3    H227676   0.609   0.658   4.993
 9238TIP3   OH227677   1.342   1.008   1.701
 9238TIP3    H127678   1.331   1.086   1.756
 9238TIP3    H227679   1.255   0.992   1.665
 9239TIP3   OH227680   5.082   2.133   5.128
 9239TIP3    H127681   5.006   2.171   5.085
 9239TIP3    H227682   5.104   2.056   5.076
 9240TIP3   OH227683   3.305   0.710   2.266
 9240TIP3    H127684   3.260   0.635   2.305
 9240TIP3    H227685   3.398   0.690   2.277
 9241TIP3   OH227686   4.155   0.763   1.903
 9241TIP3    H127687   4.106   0.725   1.830
 9241TIP3    H227688   4.088   0.810   1.954
 9242TIP3   OH227689   7.016   5.242   2.307
 9242TIP3    H127690   7.034   5.151   2.329
 9242TIP3    H227691   6.935   5.262   2.354
 9243TIP3   OH227692   4.049   3.336   2.776
 9243TIP3    H127693   3.992   3.372   2.708
 9243TIP3    H227694   3.990   3.317   2.849
 9244TIP3   OH227695   3.595   0.074   5.619
 9244TIP3    H127696   3.563   0.004   5.562
 9244TIP3    H227697   3.585   0.154   5.568
 9245TIP3   OH227698   3.023   2.980   5.155
 9245TIP3    H127699   3.062   2.995   5.069
 9245TIP3    H227700   3.017   2.884   5.162
 9246TIP3   OH227701   4.174   4.385   3.401
 9246TIP3    H127702   4.252   4.435   3.377
 9246TIP3    H227703   4.163   4.323   3.329
 9247TIP3   OH227704   0.746   3.621   5.392
 9247TIP3    H127705   0.831   3.578   5.405
 9247TIP3    H227706   0.713   3.637   5.480
 9248TIP3   OH227707   5.443   5.231   1.717
 9248TIP3    H127708   5.465   5.179   1.795
 9248TIP3    H227709   5.349   5.216   1.704
 9249TIP3   OH227710   2.882   0.930   5.690
 9249TIP3    H127711   2.796   0.972   5.697
 9249TIP3    H227712   2.889   0.907   5.597
 9250TIP3   OH227713   5.753   2.884   1.940
 9250TIP3    H127714   5.756   2.863   2.033
 9250TIP3    H227715   5.834   2.847   1.904
 9251TIP3   OH227716   2.614   2.935   5.388
 9251TIP3    H127717   2.583   2.849   5.415
 9251TIP3    H227718   2.537   2.992   5.392
 9252TIP3   OH227719   0.713   3.024   0.726
 9252TIP3    H127720   0.760   3.082   0.666
 9252TIP3    H227721   0.780   2.992   0.786
 9253TIP3   OH227722   7.178   3.425   1.460
 9253TIP3    H127723   7.092   3.468   1.465
 9253TIP3    H227724   7.235   3.490   1.420
 9254TIP3   OH227725   6.223   3.279   3.569
 9254TIP3    H127726   6.313   3.303   3.592
 9254TIP3    H227727   6.169   3.333   3.627
 9255TIP3   OH227728   5.041   2.016   3.227
 9255TIP3    H127729   5.109   2.001   3.293
 9255TIP3    H227730   4.972   1.953   3.249
 9256TIP3   OH227731   3.122   5.205   0.409
 9256TIP3    H127732   3.206   5.249   0.397
 9256TIP3    H227733   3.102   5.168   0.323
 9257TIP3   OH227734   0.096   2.599   2.476
 9257TIP3    H127735   0.023   2.542   2.451
 9257TIP3    H227736   0.087   2.610   2.570
 9258TIP3   OH227737   3.270   2.247   0.745
 9258TIP3    H127738   3.192   2.197   0.725
 9258TIP3    H227739   3.336   2.217   0.682
 9259TIP3   OH227740   4.183   3.649   0.786
 9259TIP3    H127741   4.104   3.597   0.773
 9259TIP3    H227742   4.158   3.737   0.757
 9260TIP3   OH227743   1.440   4.026   3.410
 9260TIP3    H127744   1.443   4.044   3.317
 9260TIP3    H227745   1.521   4.063   3.445
 9261TIP3   OH227746   4.157   6.593   4.972
 9261TIP3    H127747   4.215   6.518   4.982
 9261TIP3    H227748   4.146   6.602   4.877
 9262TIP3   OH227749   4.346   2.903   1.089
 9262TIP3    H127750   4.379   2.835   1.147
 9262TIP3    H227751   4.276   2.945   1.140
 9263TIP3   OH227752   2.616   5.047   1.677
 9263TIP3    H127753   2.623   5.141   1.695
 9263TIP3    H227754   2.706   5.017   1.669
 9264TIP3   OH227755   0.827   6.084   4.979
 9264TIP3    H127756   0.899   6.137   5.011
 9264TIP3    H227757   0.785   6.049   5.057
 9265TIP3   OH227758   1.835   5.514   2.000
 9265TIP3    H127759   1.780   5.546   2.072
 9265TIP3    H227760   1.772   5.481   1.936
 9266TIP3   OH227761   3.656   1.496   3.505
 9266TIP3    H127762   3.666   1.527   3.595
 9266TIP3    H227763   3.580   1.543   3.471
 9267TIP3   OH227764   4.230   0.778   1.067
 9267TIP3    H127765   4.275   0.743   1.143
 9267TIP3    H227766   4.140   0.746   1.075
 9268TIP3   OH227767   7.040   6.589   1.295
 9268TIP3    H127768   6.998   6.505   1.316
 9268TIP3    H227769   7.128   6.582   1.333
 9269TIP3   OH227770   6.151   2.501   4.712
 9269TIP3    H127771   6.237   2.476   4.748
 9269TIP3    H227772   6.161   2.593   4.688
 9270TIP3   OH227773   1.727   2.434   3.404
 9270TIP3    H127774   1.797   2.480   3.359
 9270TIP3    H227775   1.724   2.475   3.491
 9271TIP3   OH227776   3.325   3.968   3.928
 9271TIP3    H127777   3.299   3.971   3.836
 9271TIP3    H227778   3.248   3.934   3.973
 9272TIP3   OH227779   2.405   4.873   5.762
 9272TIP3    H127780   2.461   4.937   5.718
 9272TIP3    H227781   2.456   4.793   5.764
 9273TIP3   OH227782   3.194   4.727   5.861
 9273TIP3    H127783   3.257   4.685   5.803
 9273TIP3    H227784   3.248   4.781   5.919
 9274TIP3   OH227785   6.424   2.767   0.097
 9274TIP3    H127786   6.430   2.783   0.003
 9274TIP3    H227787   6.499   2.813   0.134
 9275TIP3   OH227788   1.796   6.764   1.763
 9275TIP3    H127789   1.856   6.798   1.697
 9275TIP3    H227790   1.854   6.721   1.827
 9276TIP3   OH227791   5.230   6.330   3.565
 9276TIP3    H127792   5.162   6.267   3.541
 9276TIP3    H227793   5.181   6.404   3.602
 9277TIP3   OH227794   5.163   0.399   5.195
 9277TIP3    H127795   5.071   0.380   5.178
 9277TIP3    H227796   5.211   0.338   5.139
 9278TIP3   OH227797   6.771   2.896   1.219
 9278TIP3    H127798   6.743   2.818   1.171
 9278TIP3    H227799   6.793   2.863   1.307
 9279TIP3   OH227800   3.460   1.183   3.251
 9279TIP3    H127801   3.427   1.153   3.335
 9279TIP3    H227802   3.488   1.103   3.206
 9280TIP3   OH227803   5.096   6.028   5.509
 9280TIP3    H127804   5.182   6.012   5.469
 9280TIP3    H227805   5.116   6.063   5.595
 9281TIP3   OH227806   2.017   6.129   5.205
 9281TIP3    H127807   2.029   6.059   5.269
 9281TIP3    H227808   1.941   6.101   5.154
 9282TIP3   OH227809   5.828   1.944   4.295
 9282TIP3    H127810   5.868   1.934   4.382
 9282TIP3    H227811   5.830   2.038   4.279
 9283TIP3   OH227812   3.678   6.817   1.312
 9283TIP3    H127813   3.670   6.835   1.405
 9283TIP3    H227814   3.604   6.760   1.292
 9284TIP3   OH227815   6.056   4.523   3.760
 9284TIP3    H127816   6.007   4.500   3.681
 9284TIP3    H227817   6.129   4.461   3.760
 9285TIP3   OH227818   1.689   1.205   2.419
 9285TIP3    H127819   1.717   1.145   2.489
 9285TIP3    H227820   1.612   1.250   2.455
 9286TIP3   OH227821   5.942   2.042   3.668
 9286TIP3    H127822   5.965   1.966   3.614
 9286TIP3    H227823   5.863   2.016   3.714
 9287TIP3   OH227824   6.020   5.776   2.197
 9287TIP3    H127825   5.933   5.800   2.231
 9287TIP3    H227826   6.049   5.705   2.253
 9288TIP3   OH227827   6.573   3.798   1.101
 9288TIP3    H127828   6.489   3.844   1.108
 9288TIP3    H227829   6.573   3.737   1.175
 9289TIP3   OH227830   5.288   1.664   3.418
 9289TIP3    H127831   5.278   1.751   3.379
 9289TIP3    H227832   5.382   1.652   3.426
 9290TIP3   OH227833   2.643   1.336   3.273
 9290TIP3    H127834   2.667   1.413   3.222
 9290TIP3    H227835   2.716   1.323   3.334
 9291TIP3   OH227836   2.015   1.910   3.171
 9291TIP3    H127837   1.953   1.979   3.147
 9291TIP3    H227838   2.096   1.934   3.126
 9292TIP3   OH227839   5.456   0.476   4.643
 9292TIP3    H127840   5.452   0.533   4.567
 9292TIP3    H227841   5.429   0.531   4.716
 9293TIP3   OH227842   4.500   4.675   0.405
 9293TIP3    H127843   4.550   4.617   0.463
 9293TIP3    H227844   4.411   4.641   0.407
 9294TIP3   OH227845   6.542   6.674   4.598
 9294TIP3    H127846   6.628   6.706   4.627
 9294TIP3    H227847   6.562   6.601   4.540
 9295TIP3   OH227848   5.206   4.104   5.303
 9295TIP3    H127849   5.273   4.142   5.247
 9295TIP3    H227850   5.253   4.073   5.381
 9296TIP3   OH227851   1.395   6.596   5.421
 9296TIP3    H127852   1.401   6.578   5.515
 9296TIP3    H227853   1.459   6.665   5.405
 9297TIP3   OH227854   3.160   2.531   4.565
 9297TIP3    H127855   3.148   2.603   4.502
 9297TIP3    H227856   3.243   2.492   4.541
 9298TIP3   OH227857   7.028   1.312   3.204
 9298TIP3    H127858   6.985   1.304   3.289
 9298TIP3    H227859   7.054   1.404   3.198
 9299TIP3   OH227860   5.052   6.356   2.975
 9299TIP3    H127861   5.096   6.441   2.983
 9299TIP3    H227862   5.040   6.344   2.881
 9300TIP3   OH227863   1.029   0.636   3.389
 9300TIP3    H127864   1.059   0.583   3.463
 9300TIP3    H227865   1.099   0.700   3.377
 9301TIP3   OH227866   0.301   0.474   1.486
 9301TIP3    H127867   0.340   0.493   1.400
 9301TIP3    H227868   0.266   0.557   1.516
 9302TIP3   OH227869   6.357   0.642   4.142
 9302TIP3    H127870   6.277   0.601   4.174
 9302TIP3    H227871   6.386   0.699   4.214
 9303TIP3   OH227872   1.438   4.020   5.465
 9303TIP3    H127873   1.444   4.068   5.382
 9303TIP3    H227874   1.437   4.088   5.532
 9304TIP3   OH227875   6.169   1.613   2.088
 9304TIP3    H127876   6.101   1.661   2.136
 9304TIP3    H227877   6.161   1.644   1.998
 9305TIP3   OH227878   2.203   1.940   2.819
 9305TIP3    H127879   2.276   1.917   2.761
 9305TIP3    H227880   2.130   1.958   2.759
 9306TIP3   OH227881   5.593   3.860   3.181
 9306TIP3    H127882   5.644   3.916   3.123
 9306TIP3    H227883   5.655   3.830   3.247
 9307TIP3   OH227884   4.107   3.240   5.175
 9307TIP3    H127885   4.065   3.233   5.260
 9307TIP3    H227886   4.104   3.333   5.153
 9308TIP3   OH227887   4.938   3.305   3.098
 9308TIP3    H127888   4.888   3.240   3.148
 9308TIP3    H227889   4.960   3.372   3.163
 9309TIP3   OH227890   6.269   1.618   2.723
 9309TIP3    H127891   6.361   1.630   2.703
 9309TIP3    H227892   6.223   1.649   2.645
 9310TIP3   OH227893   3.108   2.936   1.290
 9310TIP3    H127894   3.131   3.027   1.273
 9310TIP3    H227895   3.158   2.913   1.369
 9311TIP3   OH227896   6.744   0.113   0.275
 9311TIP3    H127897   6.753   0.077   0.364
 9311TIP3    H227898   6.707   0.042   0.224
 9312TIP3   OH227899   5.993   2.597   4.036
 9312TIP3    H127900   6.001   2.502   4.033
 9312TIP3    H227901   6.019   2.626   3.948
 9313TIP3   OH227902   6.543   0.422   5.488
 9313TIP3    H127903   6.486   0.345   5.481
 9313TIP3    H227904   6.584   0.429   5.402
 9314TIP3   OH227905   6.353   1.268   5.656
 9314TIP3    H127906   6.323   1.180   5.680
 9314TIP3    H227907   6.444   1.271   5.688
 9315TIP3   OH227908   5.390   5.720   4.079
 9315TIP3    H127909   5.471   5.711   4.030
 9315TIP3    H227910   5.321   5.693   4.018
 9316TIP3   OH227911   5.155   6.329   1.719
 9316TIP3    H127912   5.230   6.376   1.684
 9316TIP3    H227913   5.141   6.256   1.658
 9317TIP3   OH227914   5.273   3.631   0.640
 9317TIP3    H127915   5.206   3.587   0.588
 9317TIP3    H227916   5.223   3.687   0.700
 9318TIP3   OH227917   2.778   2.167   4.939
 9318TIP3    H127918   2.821   2.108   4.878
 9318TIP3    H227919   2.701   2.199   4.892
 9319TIP3   OH227920   0.766   2.773   5.480
 9319TIP3    H127921   0.802   2.732   5.400
 9319TIP3    H227922   0.729   2.856   5.450
 9320TIP3   OH227923   1.058   0.036   5.090
 9320TIP3    H127924   1.070   0.128   5.116
 9320TIP3    H227925   0.984   0.038   5.030
 9321TIP3   OH227926   2.192   6.266   0.118
 9321TIP3    H127927   2.128   6.331   0.148
 9321TIP3    H227928   2.222   6.300   0.034
 9322TIP3   OH227929   5.446   5.508   3.079
 9322TIP3    H127930   5.385   5.444   3.115
 9322TIP3    H227931   5.527   5.494   3.130
 9323TIP3   OH227932   2.930   3.764   0.770
 9323TIP3    H127933   2.933   3.669   0.781
 9323TIP3    H227934   2.846   3.790   0.807
 9324TIP3   OH227935   4.921   6.086   4.132
 9324TIP3    H127936   4.849   6.134   4.174
 9324TIP3    H227937   4.964   6.039   4.203
 9325TIP3   OH227938   3.765   4.120   4.884
 9325TIP3    H127939   3.839   4.087   4.935
 9325TIP3    H227940   3.788   4.102   4.793
 9326TIP3   OH227941   3.380   4.139   0.442
 9326TIP3    H127942   3.336   4.190   0.374
 9326TIP3    H227943   3.311   4.084   0.479
 9327TIP3   OH227944   2.247   2.145   5.014
 9327TIP3    H127945   2.315   2.078   5.021
 9327TIP3    H227946   2.229   2.150   4.920
 9328TIP3   OH227947   1.462   6.735   1.674
 9328TIP3    H127948   1.506   6.656   1.644
 9328TIP3    H227949   1.389   6.703   1.727
 9329TIP3   OH227950   3.654   2.181   5.792
 9329TIP3    H127951   3.624   2.205   5.705
 9329TIP3    H227952   3.729   2.238   5.809
 9330TIP3   OH227953   3.166   6.000   2.264
 9330TIP3    H127954   3.156   5.941   2.189
 9330TIP3    H227955   3.113   6.076   2.242
 9331TIP3   OH227956   5.994   0.685   0.583
 9331TIP3    H127957   5.981   0.682   0.488
 9331TIP3    H227958   6.075   0.636   0.597
 9332TIP3   OH227959   1.687   3.230   4.957
 9332TIP3    H127960   1.694   3.317   4.996
 9332TIP3    H227961   1.686   3.246   4.862
 9333TIP3   OH227962   3.133   6.750   3.387
 9333TIP3    H127963   3.132   6.737   3.482
 9333TIP3    H227964   3.053   6.709   3.357
 9334TIP3   OH227965   1.857   1.917   2.417
 9334TIP3    H127966   1.849   1.841   2.359
 9334TIP3    H227967   1.790   1.978   2.387
 9335TIP3   OH227968   2.592   5.241   5.695
 9335TIP3    H127969   2.643   5.303   5.643
 9335TIP3    H227970   2.579   5.165   5.637
 9336TIP3   OH227971   2.001   4.204   0.370
 9336TIP3    H127972   1.945   4.138   0.412
 9336TIP3    H227973   1.943   4.250   0.310
 9337TIP3   OH227974   1.464   2.569   4.237
 9337TIP3    H127975   1.381   2.529   4.261
 9337TIP3    H227976   1.530   2.501   4.255
 9338TIP3   OH227977   3.576   6.605   1.987
 9338TIP3    H127978   3.529   6.565   1.914
 9338TIP3    H227979   3.659   6.634   1.949
 9339TIP3   OH227980   5.957   4.863   5.293
 9339TIP3    H127981   5.946   4.913   5.374
 9339TIP3    H227982   6.050   4.867   5.274
 9340TIP3   OH227983   1.035   4.836   2.053
 9340TIP3    H127984   1.001   4.776   1.987
 9340TIP3    H227985   1.080   4.780   2.116
 9341TIP3   OH227986   5.402   1.130   5.352
 9341TIP3    H127987   5.416   1.085   5.435
 9341TIP3    H227988   5.307   1.126   5.338
 9342TIP3   OH227989   0.197   0.267   3.454
 9342TIP3    H127990   0.276   0.319   3.468
 9342TIP3    H227991   0.125   0.329   3.463
 9343TIP3   OH227992   0.954   0.570   4.916
 9343TIP3    H127993   0.885   0.552   4.853
 9343TIP3    H227994   0.935   0.658   4.949
 9344TIP3   OH227995   3.680   6.337   4.914
 9344TIP3    H127996   3.776   6.328   4.912
 9344TIP3    H227997   3.665   6.424   4.951
 9345TIP3   OH227998   4.379   1.183   1.298
 9345TIP3    H127999   4.360   1.147   1.212
 9345TIP3    H228000   4.336   1.269   1.299
 9346TIP3   OH228001   2.062   4.858   3.075
 9346TIP3    H128002   2.133   4.837   3.014
 9346TIP3    H228003   2.097   4.835   3.161
 9347TIP3   OH228004   0.400   5.988   4.587
 9347TIP3    H128005   0.435   6.027   4.507
 9347TIP3    H228006   0.430   6.046   4.657
 9348TIP3   OH228007   1.926   3.785   3.992
 9348TIP3    H128008   2.012   3.817   4.018
 9348TIP3    H228009   1.886   3.754   4.073
 9349TIP3   OH228010   0.801   2.429   4.962
 9349TIP3    H128011   0.779   2.345   4.922
 9349TIP3    H228012   0.811   2.489   4.887
 9350TIP3   OH228013   1.737   1.061   1.243
 9350TIP3    H128014   1.711   1.142   1.288
 9350TIP3    H228015   1.809   1.087   1.186
 9351TIP3   OH228016   2.819   6.148   0.069
 9351TIP3    H128017   2.896   6.195   0.102
 9351TIP3    H228018   2.852   6.062   0.044
 9352TIP3   OH228019   1.204   1.377   3.607
 9352TIP3    H128020   1.131   1.408   3.553
 9352TIP3    H228021   1.163   1.317   3.670
 9353TIP3   OH228022   5.450   1.470   3.696
 9353TIP3    H128023   5.479   1.555   3.662
 9353TIP3    H228024   5.390   1.437   3.629
 9354TIP3   OH228025   1.633   1.100   0.112
 9354TIP3    H128026   1.697   1.166   0.139
 9354TIP3    H228027   1.683   1.037   0.061
 9355TIP3   OH228028   4.266   1.417   4.236
 9355TIP3    H128029   4.243   1.478   4.166
 9355TIP3    H228030   4.274   1.332   4.193
 9356TIP3   OH228031   5.857   0.454   5.407
 9356TIP3    H128032   5.768   0.419   5.404
 9356TIP3    H228033   5.913   0.376   5.413
 9357TIP3   OH228034   0.088   5.866   3.391
 9357TIP3    H128035   0.142   5.794   3.357
 9357TIP3    H228036   0.029   5.824   3.454
 9358TIP3   OH228037   2.229   1.486   5.312
 9358TIP3    H128038   2.215   1.460   5.221
 9358TIP3    H228039   2.142   1.512   5.343
 9359TIP3   OH228040   6.615   0.962   5.570
 9359TIP3    H128041   6.636   0.921   5.485
 9359TIP3    H228042   6.530   0.924   5.594
 9360TIP3   OH228043   2.940   1.274   3.314
 9360TIP3    H128044   2.950   1.222   3.393
 9360TIP3    H228045   2.971   1.362   3.338
 9361TIP3   OH228046   5.720   0.304   2.223
 9361TIP3    H128047   5.763   0.258   2.150
 9361TIP3    H228048   5.757   0.263   2.302
 9362TIP3   OH228049   7.106   2.972   1.419
 9362TIP3    H128050   7.184   2.971   1.474
 9362TIP3    H228051   7.123   2.906   1.352
 9363TIP3   OH228052   6.460   4.809   3.101
 9363TIP3    H128053   6.523   4.844   3.038
 9363TIP3    H228054   6.379   4.799   3.052
 9364TIP3   OH228055   6.013   5.153   2.754
 9364TIP3    H128056   6.022   5.093   2.680
 9364TIP3    H228057   5.925   5.189   2.745
 9365TIP3   OH228058   2.775   6.575   0.722
 9365TIP3    H128059   2.847   6.558   0.784
 9365TIP3    H228060   2.813   6.556   0.636
 9366TIP3   OH228061   2.838   6.458   1.121
 9366TIP3    H128062   2.823   6.552   1.119
 9366TIP3    H228063   2.889   6.442   1.200
 9367TIP3   OH228064   3.244   1.515   1.935
 9367TIP3    H128065   3.295   1.591   1.962
 9367TIP3    H228066   3.154   1.546   1.929
 9368TIP3   OH228067   6.295   5.088   1.140
 9368TIP3    H128068   6.322   5.179   1.149
 9368TIP3    H228069   6.294   5.055   1.230
 9369TIP3   OH228070   3.719   6.058   0.745
 9369TIP3    H128071   3.690   5.986   0.689
 9369TIP3    H228072   3.719   6.021   0.833
 9370TIP3   OH228073   0.455   2.323   0.263
 9370TIP3    H128074   0.411   2.395   0.307
 9370TIP3    H228075   0.548   2.336   0.282
 9371TIP3   OH228076   2.035   2.132   3.873
 9371TIP3    H128077   1.961   2.072   3.861
 9371TIP3    H228078   2.110   2.074   3.891
 9372TIP3   OH228079   5.363   5.117   0.588
 9372TIP3    H128080   5.322   5.041   0.545
 9372TIP3    H228081   5.370   5.091   0.680
 9373TIP3   OH228082   2.809   3.903   5.256
 9373TIP3    H128083   2.831   3.981   5.305
 9373TIP3    H228084   2.807   3.833   5.321
 9374TIP3   OH228085   5.396   5.985   2.210
 9374TIP3    H128086   5.454   6.059   2.191
 9374TIP3    H228087   5.335   5.983   2.136
 9375TIP3   OH228088   6.915   4.057   5.002
 9375TIP3    H128089   6.866   4.089   4.927
 9375TIP3    H228090   6.878   3.971   5.020
 9376TIP3   OH228091   5.712   0.679   5.482
 9376TIP3    H128092   5.688   0.707   5.394
 9376TIP3    H228093   5.783   0.616   5.469
 9377TIP3   OH228094   3.429   4.494   1.280
 9377TIP3    H128095   3.448   4.518   1.189
 9377TIP3    H228096   3.439   4.399   1.283
 9378TIP3   OH228097   5.848   6.410   1.942
 9378TIP3    H128098   5.848   6.408   2.038
 9378TIP3    H228099   5.845   6.503   1.920
 9379TIP3   OH228100   1.160   0.221   3.038
 9379TIP3    H128101   1.104   0.276   3.092
 9379TIP3    H228102   1.129   0.132   3.055
 9380TIP3   OH228103   6.960   4.713   1.559
 9380TIP3    H128104   6.997   4.687   1.474
 9380TIP3    H228105   7.003   4.655   1.622
 9381TIP3   OH228106   4.720   2.494   3.780
 9381TIP3    H128107   4.635   2.490   3.823
 9381TIP3    H228108   4.733   2.407   3.742
 9382TIP3   OH228109   3.229   1.572   3.601
 9382TIP3    H128110   3.259   1.534   3.684
 9382TIP3    H228111   3.249   1.665   3.610
 9383TIP3   OH228112   6.589   2.331   2.598
 9383TIP3    H128113   6.651   2.356   2.530
 9383TIP3    H228114   6.592   2.235   2.599
 9384TIP3   OH228115   1.607   6.484   3.599
 9384TIP3    H128116   1.693   6.444   3.614
 9384TIP3    H228117   1.564   6.482   3.684
 9385TIP3   OH228118   2.936   2.896   4.291
 9385TIP3    H128119   2.920   2.839   4.216
 9385TIP3    H228120   2.880   2.972   4.274
 9386TIP3   OH228121   3.279   1.811   3.238
 9386TIP3    H128122   3.291   1.892   3.189
 9386TIP3    H228123   3.214   1.762   3.188
 9387TIP3   OH228124   3.437   6.404   4.126
 9387TIP3    H128125   3.354   6.386   4.082
 9387TIP3    H228126   3.481   6.319   4.130
 9388TIP3   OH228127   5.697   6.705   1.494
 9388TIP3    H128128   5.762   6.775   1.493
 9388TIP3    H228129   5.648   6.716   1.413
 9389TIP3   OH228130   4.014   3.371   4.279
 9389TIP3    H128131   4.074   3.308   4.239
 9389TIP3    H228132   4.070   3.429   4.329
 9390TIP3   OH228133   6.525   3.373   2.689
 9390TIP3    H128134   6.575   3.323   2.754
 9390TIP3    H228135   6.451   3.408   2.738
 9391TIP3   OH228136   3.286   2.327   3.175
 9391TIP3    H128137   3.205   2.353   3.219
 9391TIP3    H228138   3.299   2.393   3.108
 9392TIP3   OH228139   7.051   4.201   3.564
 9392TIP3    H128140   6.961   4.232   3.549
 9392TIP3    H228141   7.043   4.106   3.571
 9393TIP3   OH228142   6.475   4.013   1.357
 9393TIP3    H128143   6.552   4.002   1.412
 9393TIP3    H228144   6.409   3.957   1.396
 9394TIP3   OH228145   1.113   3.646   2.181
 9394TIP3    H128146   1.164   3.667   2.103
 9394TIP3    H228147   1.032   3.607   2.147
 9395TIP3   OH228148   3.389   0.364   2.051
 9395TIP3    H128149   3.349   0.326   1.973
 9395TIP3    H228150   3.462   0.305   2.072
 9396TIP3   OH228151   6.618   6.240   5.533
 9396TIP3    H128152   6.694   6.296   5.546
 9396TIP3    H228153   6.621   6.215   5.440
 9397TIP3   OH228154   0.693   1.502   3.649
 9397TIP3    H128155   0.648   1.427   3.685
 9397TIP3    H228156   0.653   1.578   3.692
 9398TIP3   OH228157   2.143   1.025   4.841
 9398TIP3    H128158   2.057   1.016   4.884
 9398TIP3    H228159   2.184   0.939   4.852
 9399TIP3   OH228160   6.749   5.994   5.061
 9399TIP3    H128161   6.830   5.999   5.011
 9399TIP3    H228162   6.775   6.009   5.152
 9400TIP3   OH228163   0.212   6.482   3.796
 9400TIP3    H128164   0.251   6.420   3.735
 9400TIP3    H228165   0.234   6.568   3.760
 9401TIP3   OH228166   3.428   6.239   1.954
 9401TIP3    H128167   3.372   6.285   2.016
 9401TIP3    H228168   3.374   6.230   1.875
 9402TIP3   OH228169   2.393   1.852   3.749
 9402TIP3    H128170   2.380   1.921   3.684
 9402TIP3    H228171   2.366   1.891   3.832
 9403TIP3   OH228172   6.181   3.232   5.861
 9403TIP3    H128173   6.194   3.155   5.917
 9403TIP3    H228174   6.161   3.303   5.921
 9404TIP3   OH228175   1.453   4.757   2.834
 9404TIP3    H128176   1.398   4.834   2.848
 9404TIP3    H228177   1.535   4.778   2.878
 9405TIP3   OH228178   2.277   4.165   3.172
 9405TIP3    H128179   2.345   4.232   3.175
 9405TIP3    H228180   2.247   4.158   3.263
 9406TIP3   OH228181   2.574   1.443   5.511
 9406TIP3    H128182   2.500   1.396   5.472
 9406TIP3    H228183   2.640   1.376   5.528
 9407TIP3   OH228184   1.344   6.549   3.750
 9407TIP3    H128185   1.389   6.579   3.828
 9407TIP3    H228186   1.252   6.541   3.777
 9408TIP3   OH228187   0.492   6.734   5.054
 9408TIP3    H128188   0.452   6.761   5.136
 9408TIP3    H228189   0.586   6.734   5.071
 9409TIP3   OH228190   1.637   5.739   0.126
 9409TIP3    H128191   1.551   5.702   0.107
 9409TIP3    H228192   1.654   5.799   0.054
 9410TIP3   OH228193   1.225   3.729   1.374
 9410TIP3    H128194   1.218   3.824   1.362
 9410TIP3    H228195   1.283   3.719   1.449
 9411TIP3   OH228196   1.049   5.635   3.425
 9411TIP3    H128197   0.966   5.621   3.472
 9411TIP3    H228198   1.090   5.549   3.424
 9412TIP3   OH228199   1.636   2.730   5.233
 9412TIP3    H128200   1.581   2.762   5.162
 9412TIP3    H228201   1.715   2.697   5.189
 9413TIP3   OH228202   1.242   2.726   4.147
 9413TIP3    H128203   1.242   2.731   4.243
 9413TIP3    H228204   1.329   2.693   4.125
 9414TIP3   OH228205   0.673   4.869   0.073
 9414TIP3    H128206   0.755   4.846   0.029
 9414TIP3    H228207   0.688   4.845   0.164
 9415TIP3   OH228208   3.847   0.514   2.448
 9415TIP3    H128209   3.917   0.470   2.496
 9415TIP3    H228210   3.788   0.546   2.517
 9416TIP3   OH228211   2.053   2.889   1.183
 9416TIP3    H128212   2.027   2.851   1.099
 9416TIP3    H228213   2.127   2.835   1.212
 9417TIP3   OH228214   1.289   6.280   3.056
 9417TIP3    H128215   1.284   6.292   2.961
 9417TIP3    H228216   1.362   6.336   3.084
 9418TIP3   OH228217   1.408   4.136   4.767
 9418TIP3    H128218   1.459   4.211   4.796
 9418TIP3    H228219   1.336   4.130   4.830
 9419TIP3   OH228220   1.132   3.895   4.855
 9419TIP3    H128221   1.220   3.910   4.891
 9419TIP3    H228222   1.105   3.980   4.822
 9420TIP3   OH228223   0.192   2.570   5.347
 9420TIP3    H128224   0.243   2.622   5.410
 9420TIP3    H228225   0.104   2.607   5.351
 9421TIP3   OH228226   6.697   2.442   3.383
 9421TIP3    H128227   6.707   2.444   3.288
 9421TIP3    H228228   6.703   2.349   3.406
 9422TIP3   OH228229   2.798   3.525   3.611
 9422TIP3    H128230   2.737   3.501   3.541
 9422TIP3    H228231   2.852   3.593   3.572
 9423TIP3   OH228232   4.578   5.247   3.357
 9423TIP3    H128233   4.557   5.228   3.449
 9423TIP3    H228234   4.643   5.180   3.333
 9424TIP3   OH228235   5.148   5.996   3.024
 9424TIP3    H128236   5.218   6.051   3.061
 9424TIP3    H228237   5.147   6.019   2.931
 9425TIP3   OH228238   4.615   0.138   0.088
 9425TIP3    H128239   4.544   0.124   0.024
 9425TIP3    H228240   4.668   0.208   0.050
 9426TIP3   OH228241   3.220   3.625   1.560
 9426TIP3    H128242   3.173   3.542   1.549
 9426TIP3    H228243   3.300   3.613   1.508
 9427TIP3   OH228244   5.344   3.641   5.761
 9427TIP3    H128245   5.281   3.707   5.734
 9427TIP3    H228246   5.306   3.558   5.732
 9428TIP3   OH228247   3.918   4.049   1.901
 9428TIP3    H128248   3.942   4.121   1.842
 9428TIP3    H228249   3.834   4.075   1.938
 9429TIP3   OH228250   0.506   4.014   3.019
 9429TIP3    H128251   0.551   4.009   2.935
 9429TIP3    H228252   0.440   4.082   3.006
 9430TIP3   OH228253   4.721   5.165   3.925
 9430TIP3    H128254   4.792   5.228   3.909
 9430TIP3    H228255   4.658   5.213   3.979
 9431TIP3   OH228256   1.043   0.590   4.277
 9431TIP3    H128257   1.033   0.685   4.284
 9431TIP3    H228258   1.137   0.576   4.273
 9432TIP3   OH228259   4.569   3.589   2.715
 9432TIP3    H128260   4.501   3.623   2.658
 9432TIP3    H228261   4.639   3.561   2.656
 9433TIP3   OH228262   0.562   5.307   1.702
 9433TIP3    H128263   0.599   5.269   1.622
 9433TIP3    H228264   0.503   5.375   1.670
 9434TIP3   OH228265   0.100   5.498   4.944
 9434TIP3    H128266   0.052   5.581   4.949
 9434TIP3    H228267   0.178   5.511   4.999
 9435TIP3   OH228268   2.254   1.312   5.714
 9435TIP3    H128269   2.186   1.286   5.775
 9435TIP3    H228270   2.207   1.343   5.637
 9436TIP3   OH228271   6.150   3.572   5.457
 9436TIP3    H128272   6.220   3.625   5.495
 9436TIP3    H228273   6.160   3.486   5.499
 9437TIP3   OH228274   3.994   5.785   3.330
 9437TIP3    H128275   4.024   5.815   3.244
 9437TIP3    H228276   3.946   5.704   3.311
 9438TIP3   OH228277   5.121   1.327   2.588
 9438TIP3    H128278   5.084   1.415   2.584
 9438TIP3    H228279   5.075   1.278   2.520
 9439TIP3   OH228280   6.068   1.994   3.073
 9439TIP3    H128281   6.068   2.084   3.106
 9439TIP3    H228282   6.155   1.961   3.095
 9440TIP3   OH228283   1.516   1.504   3.289
 9440TIP3    H128284   1.547   1.539   3.206
 9440TIP3    H228285   1.577   1.538   3.354
 9441TIP3   OH228286   6.268   5.539   1.720
 9441TIP3    H128287   6.271   5.588   1.803
 9441TIP3    H228288   6.193   5.576   1.673
 9442TIP3   OH228289   4.121   2.750   5.048
 9442TIP3    H128290   4.151   2.669   5.089
 9442TIP3    H228291   4.049   2.780   5.103
 9443TIP3   OH228292   2.396   5.398   2.340
 9443TIP3    H128293   2.486   5.422   2.360
 9443TIP3    H228294   2.373   5.454   2.265
 9444TIP3   OH228295   2.919   3.427   5.700
 9444TIP3    H128296   2.880   3.424   5.787
 9444TIP3    H228297   2.853   3.387   5.643
 9445TIP3   OH228298   1.353   0.797   0.670
 9445TIP3    H128299   1.268   0.756   0.653
 9445TIP3    H228300   1.394   0.801   0.583
 9446TIP3   OH228301   6.212   2.113   1.469
 9446TIP3    H128302   6.272   2.183   1.495
 9446TIP3    H228303   6.126   2.155   1.468
 9447TIP3   OH228304   7.125   6.726   0.783
 9447TIP3    H128305   7.176   6.720   0.702
 9447TIP3    H228306   7.034   6.730   0.753
 9448TIP3   OH228307   3.698   6.206   5.789
 9448TIP3    H128308   3.638   6.134   5.813
 9448TIP3    H228309   3.782   6.180   5.826
 9449TIP3   OH228310   6.024   3.325   4.931
 9449TIP3    H128311   5.972   3.386   4.879
 9449TIP3    H228312   6.097   3.301   4.874
 9450TIP3   OH228313   1.025   3.200   5.881
 9450TIP3    H128314   1.070   3.276   5.919
 9450TIP3    H228315   0.938   3.201   5.921
 9451TIP3   OH228316   6.204   4.536   1.802
 9451TIP3    H128317   6.128   4.494   1.844
 9451TIP3    H228318   6.278   4.513   1.859
 9452TIP3   OH228319   0.031   6.200   0.238
 9452TIP3    H128320   0.011   6.270   0.300
 9452TIP3    H228321  -0.011   6.122   0.277
 9453TIP3   OH228322   6.111   2.313   1.107
 9453TIP3    H128323   6.177   2.378   1.129
 9453TIP3    H228324   6.160   2.235   1.082
 9454TIP3   OH228325   3.026   5.898   4.445
 9454TIP3    H128326   3.049   5.869   4.356
 9454TIP3    H228327   2.976   5.826   4.481
 9455TIP3   OH228328   2.888   4.999   1.698
 9455TIP3    H128329   2.957   4.942   1.663
 9455TIP3    H228330   2.929   5.085   1.704
 9456TIP3   OH228331   2.363   0.420   4.298
 9456TIP3    H128332   2.394   0.345   4.348
 9456TIP3    H228333   2.274   0.396   4.272
 9457TIP3   OH228334   6.767   1.510   2.294
 9457TIP3    H128335   6.687   1.563   2.287
 9457TIP3    H228336   6.816   1.530   2.214
 9458TIP3   OH228337   5.363   0.631   4.995
 9458TIP3    H128338   5.447   0.587   4.983
 9458TIP3    H228339   5.327   0.638   4.907
 9459TIP3   OH228340   4.737   5.256   4.273
 9459TIP3    H128341   4.669   5.287   4.214
 9459TIP3    H228342   4.710   5.288   4.359
 9460TIP3   OH228343   3.790   2.618   4.290
 9460TIP3    H128344   3.793   2.687   4.223
 9460TIP3    H228345   3.697   2.601   4.302
 9461TIP3   OH228346   6.113   5.760   1.625
 9461TIP3    H128347   6.021   5.738   1.613
 9461TIP3    H228348   6.124   5.844   1.581
 9462TIP3   OH228349   4.319   5.494   2.042
 9462TIP3    H128350   4.389   5.486   2.107
 9462TIP3    H228351   4.269   5.412   2.051
 9463TIP3   OH228352   1.085   2.710   4.439
 9463TIP3    H128353   1.064   2.803   4.435
 9463TIP3    H228354   1.000   2.667   4.450
 9464TIP3   OH228355   1.491   0.853   5.489
 9464TIP3    H128356   1.521   0.902   5.412
 9464TIP3    H228357   1.436   0.783   5.454
 9465TIP3   OH228358   6.167   3.190   2.328
 9465TIP3    H128359   6.197   3.171   2.416
 9465TIP3    H228360   6.087   3.138   2.317
 9466TIP3   OH228361   3.387   0.390   3.871
 9466TIP3    H128362   3.378   0.329   3.945
 9466TIP3    H228363   3.376   0.335   3.794
 9467TIP3   OH228364   0.752   4.384   4.933
 9467TIP3    H128365   0.770   4.475   4.954
 9467TIP3    H228366   0.689   4.387   4.862
 9468TIP3   OH228367   0.952   6.724   3.915
 9468TIP3    H128368   1.012   6.737   3.989
 9468TIP3    H228369   0.867   6.706   3.955
 9469TIP3   OH228370   6.138   4.958   1.689
 9469TIP3    H128371   6.227   4.939   1.660
 9469TIP3    H228372   6.128   4.909   1.771
 9470TIP3   OH228373   5.210   3.843   2.541
 9470TIP3    H128374   5.135   3.843   2.482
 9470TIP3    H228375   5.282   3.807   2.489
 9471TIP3   OH228376   3.607   6.327   3.346
 9471TIP3    H128377   3.619   6.233   3.331
 9471TIP3    H228378   3.527   6.348   3.298
 9472TIP3   OH228379   6.215   1.280   0.675
 9472TIP3    H128380   6.248   1.208   0.727
 9472TIP3    H228381   6.232   1.358   0.728
 9473TIP3   OH228382   1.601   2.674   4.857
 9473TIP3    H128383   1.604   2.770   4.862
 9473TIP3    H228384   1.508   2.653   4.858
 9474TIP3   OH228385   1.862   0.108   5.767
 9474TIP3    H128386   1.849   0.021   5.804
 9474TIP3    H228387   1.779   0.153   5.781
 9475TIP3   OH228388   3.892   1.073   0.037
 9475TIP3    H128389   3.800   1.082   0.061
 9475TIP3    H228390   3.923   1.163   0.027
 9476TIP3   OH228391   0.785   1.904   4.454
 9476TIP3    H128392   0.797   1.862   4.369
 9476TIP3    H228393   0.694   1.885   4.478
 9477TIP3   OH228394   5.816   3.153   1.849
 9477TIP3    H128395   5.770   3.074   1.876
 9477TIP3    H228396   5.841   3.136   1.758
 9478TIP3   OH228397   2.509   4.623   4.821
 9478TIP3    H128398   2.488   4.666   4.904
 9478TIP3    H228399   2.540   4.536   4.847
 9479TIP3   OH228400   3.149   5.014   2.162
 9479TIP3    H128401   3.197   5.084   2.118
 9479TIP3    H228402   3.099   5.058   2.231
 9480TIP3   OH228403   1.463   4.685   0.449
 9480TIP3    H128404   1.495   4.607   0.494
 9480TIP3    H228405   1.394   4.652   0.391
 9481TIP3   OH228406   0.566   5.295   4.038
 9481TIP3    H128407   0.540   5.284   3.947
 9481TIP3    H228408   0.624   5.221   4.056
 9482TIP3   OH228409   4.894   3.318   0.259
 9482TIP3    H128410   4.848   3.301   0.177
 9482TIP3    H228411   4.984   3.290   0.242
 9483TIP3   OH228412   5.103  -0.033   5.796
 9483TIP3    H128413   5.149   0.007   5.870
 9483TIP3    H228414   5.022   0.017   5.789
 9484TIP3   OH228415   4.403   0.629   0.869
 9484TIP3    H128416   4.344   0.688   0.916
 9484TIP3    H228417   4.471   0.607   0.933
 9485TIP3   OH228418   1.970   1.951   4.143
 9485TIP3    H128419   1.909   2.003   4.091
 9485TIP3    H228420   2.049   1.946   4.090
 9486TIP3   OH228421   3.309   6.138   1.404
 9486TIP3    H128422   3.303   6.107   1.313
 9486TIP3    H228423   3.231   6.103   1.446
 9487TIP3   OH228424   4.603   1.535   3.389
 9487TIP3    H128425   4.696   1.529   3.368
 9487TIP3    H228426   4.600   1.590   3.468
 9488TIP3   OH228427   1.944   3.333   0.922
 9488TIP3    H128428   1.913   3.327   1.012
 9488TIP3    H228429   1.918   3.421   0.894
 9489TIP3   OH228430   3.338   5.225   1.336
 9489TIP3    H128431   3.289   5.149   1.368
 9489TIP3    H228432   3.319   5.228   1.242
 9490TIP3   OH228433   0.578   5.329   1.356
 9490TIP3    H128434   0.642   5.388   1.316
 9490TIP3    H228435   0.538   5.283   1.282
 9491TIP3   OH228436   3.345   0.281   5.712
 9491TIP3    H128437   3.282   0.336   5.667
 9491TIP3    H228438   3.416   0.340   5.737
 9492TIP3   OH228439   4.048   1.561   5.343
 9492TIP3    H128440   4.088   1.493   5.288
 9492TIP3    H228441   4.113   1.579   5.411
 9493TIP3   OH228442   0.517   0.008   0.807
 9493TIP3    H128443   0.530  -0.061   0.741
 9493TIP3    H228444   0.574   0.079   0.779
 9494TIP3   OH228445   1.360   2.134   2.193
 9494TIP3    H128446   1.426   2.171   2.251
 9494TIP3    H228447   1.403   2.057   2.154
 9495TIP3   OH228448   5.434   1.033   0.523
 9495TIP3    H128449   5.514   1.085   0.516
 9495TIP3    H228450   5.409   1.039   0.615
 9496TIP3   OH228451   0.929   6.748   3.423
 9496TIP3    H128452   0.926   6.784   3.334
 9496TIP3    H228453   1.001   6.796   3.465
 9497TIP3   OH228454   1.455   2.677   2.007
 9497TIP3    H128455   1.487   2.763   1.978
 9497TIP3    H228456   1.535   2.626   2.021
 9498TIP3   OH228457   1.048   6.710   5.090
 9498TIP3    H128458   1.048   6.687   5.183
 9498TIP3    H228459   1.117   6.776   5.082
 9499TIP3   OH228460   1.846   4.475   3.256
 9499TIP3    H128461   1.887   4.390   3.243
 9499TIP3    H228462   1.913   4.539   3.232
 9500TIP3   OH228463   2.181   6.281   2.355
 9500TIP3    H128464   2.129   6.208   2.388
 9500TIP3    H228465   2.217   6.323   2.433
 9501TIP3   OH228466   2.239   5.632   0.063
 9501TIP3    H128467   2.249   5.542   0.095
 9501TIP3    H228468   2.191   5.677   0.132
 9502TIP3   OH228469   0.897   4.659   1.877
 9502TIP3    H128470   0.953   4.639   1.802
 9502TIP3    H228471   0.816   4.612   1.859
 9503TIP3   OH228472   2.550   2.905   2.088
 9503TIP3    H128473   2.558   2.994   2.055
 9503TIP3    H228474   2.586   2.850   2.018
 9504TIP3   OH228475   1.528   3.439   1.023
 9504TIP3    H128476   1.520   3.485   0.939
 9504TIP3    H228477   1.621   3.444   1.045
 9505TIP3   OH228478   1.185   4.750   3.281
 9505TIP3    H128479   1.110   4.712   3.235
 9505TIP3    H228480   1.249   4.679   3.283
 9506TIP3   OH228481   0.560   1.783   5.815
 9506TIP3    H128482   0.621   1.718   5.780
 9506TIP3    H228483   0.524   1.826   5.738
 9507TIP3   OH228484   5.162   0.066   1.357
 9507TIP3    H128485   5.170   0.159   1.380
 9507TIP3    H228486   5.210   0.020   1.426
 9508TIP3   OH228487   5.066   5.013   1.843
 9508TIP3    H128488   5.102   4.987   1.928
 9508TIP3    H228489   5.069   5.108   1.844
 9509TIP3   OH228490   1.937   2.038   1.494
 9509TIP3    H128491   1.991   2.034   1.572
 9509TIP3    H228492   1.980   1.980   1.431
 9510TIP3   OH228493   2.702   0.402   4.043
 9510TIP3    H128494   2.683   0.380   3.952
 9510TIP3    H228495   2.653   0.337   4.093
 9511TIP3   OH228496   1.809   6.686   2.181
 9511TIP3    H128497   1.875   6.701   2.248
 9511TIP3    H228498   1.860   6.669   2.101
 9512TIP3   OH228499   2.741   3.928   0.962
 9512TIP3    H128500   2.683   4.004   0.961
 9512TIP3    H228501   2.795   3.939   1.040
 9513TIP3   OH228502   7.184   6.458   4.977
 9513TIP3    H128503   7.101   6.412   4.990
 9513TIP3    H228504   7.240   6.395   4.934
 9514TIP3   OH228505   1.191   3.686   4.579
 9514TIP3    H128506   1.118   3.700   4.639
 9514TIP3    H228507   1.157   3.710   4.493
 9515TIP3   OH228508   4.696   1.146   1.349
 9515TIP3    H128509   4.650   1.085   1.406
 9515TIP3    H228510   4.632   1.214   1.330
 9516TIP3   OH228511   2.937   0.678   0.878
 9516TIP3    H128512   2.991   0.617   0.829
 9516TIP3    H228513   2.999   0.733   0.926
 9517TIP3   OH228514   3.729   4.643   1.424
 9517TIP3    H128515   3.658   4.586   1.454
 9517TIP3    H228516   3.804   4.584   1.414
 9518TIP3   OH228517   1.456   0.730   3.415
 9518TIP3    H128518   1.371   0.742   3.373
 9518TIP3    H228519   1.499   0.661   3.365
 9519TIP3   OH228520   4.201   1.099   1.612
 9519TIP3    H128521   4.258   1.172   1.638
 9519TIP3    H228522   4.148   1.081   1.689
 9520TIP3   OH228523   2.102   6.670   5.541
 9520TIP3    H128524   2.092   6.648   5.634
 9520TIP3    H228525   2.152   6.752   5.541
 9521TIP3   OH228526   5.480   6.199   2.444
 9521TIP3    H128527   5.505   6.112   2.475
 9521TIP3    H228528   5.546   6.222   2.379
 9522TIP3   OH228529   1.331   1.676   4.371
 9522TIP3    H128530   1.292   1.626   4.300
 9522TIP3    H228531   1.300   1.765   4.358
 9523TIP3   OH228532   3.681   0.393   2.224
 9523TIP3    H128533   3.772   0.402   2.196
 9523TIP3    H228534   3.643   0.329   2.164
 9524TIP3   OH228535   4.042   5.720   1.482
 9524TIP3    H128536   4.081   5.747   1.565
 9524TIP3    H228537   4.095   5.646   1.454
 9525TIP3   OH228538   0.827   0.978   1.209
 9525TIP3    H128539   0.876   0.901   1.178
 9525TIP3    H228540   0.770   1.000   1.136
 9526TIP3   OH228541   3.119   6.197   5.176
 9526TIP3    H128542   3.045   6.224   5.122
 9526TIP3    H228543   3.167   6.135   5.122
 9527TIP3   OH228544   4.004   3.283   2.131
 9527TIP3    H128545   3.950   3.339   2.075
 9527TIP3    H228546   3.944   3.217   2.165
 9528TIP3   OH228547   4.864   6.569   5.092
 9528TIP3    H128548   4.831   6.631   5.156
 9528TIP3    H228549   4.958   6.566   5.109
 9529TIP3   OH228550   1.281   0.738   1.184
 9529TIP3    H128551   1.344   0.805   1.209
 9529TIP3    H228552   1.301   0.718   1.093
 9530TIP3   OH228553   3.395   1.105   3.893
 9530TIP3    H128554   3.316   1.146   3.857
 9530TIP3    H228555   3.390   1.014   3.866
 9531TIP3   OH228556   3.239   4.751   3.041
 9531TIP3    H128557   3.325   4.709   3.039
 9531TIP3    H228558   3.241   4.813   2.967
 9532TIP3   OH228559   4.354   4.893   1.307
 9532TIP3    H128560   4.378   4.963   1.246
 9532TIP3    H228561   4.366   4.932   1.394
 9533TIP3   OH228562   6.122   1.475   1.085
 9533TIP3    H128563   6.062   1.402   1.071
 9533TIP3    H228564   6.067   1.544   1.122
 9534TIP3   OH228565   3.897   0.400   2.733
 9534TIP3    H128566   3.843   0.341   2.681
 9534TIP3    H228567   3.987   0.381   2.705
 9535TIP3   OH228568   3.002   3.528   5.177
 9535TIP3    H128569   3.061   3.512   5.251
 9535TIP3    H228570   2.915   3.507   5.212
 9536TIP3   OH228571   5.670   3.363   0.492
 9536TIP3    H128572   5.751   3.403   0.461
 9536TIP3    H228573   5.614   3.438   0.516
 9537TIP3   OH228574   1.902   5.994   1.823
 9537TIP3    H128575   1.970   6.005   1.757
 9537TIP3    H228576   1.883   5.900   1.823
 9538TIP3   OH228577   4.744   1.262   2.712
 9538TIP3    H128578   4.799   1.198   2.666
 9538TIP3    H228579   4.806   1.320   2.755
 9539TIP3   OH228580   4.639   5.143  -0.017
 9539TIP3    H128581   4.545   5.135   0.000
 9539TIP3    H228582   4.680   5.131   0.069
 9540TIP3   OH228583   0.254   5.434   2.708
 9540TIP3    H128584   0.209   5.440   2.792
 9540TIP3    H228585   0.347   5.437   2.731
 9541TIP3   OH228586   2.451   0.515   1.087
 9541TIP3    H128587   2.418   0.491   1.001
 9541TIP3    H228588   2.376   0.506   1.145
 9542TIP3   OH228589   5.317   2.710   4.579
 9542TIP3    H128590   5.282   2.640   4.524
 9542TIP3    H228591   5.245   2.733   4.637
 9543TIP3   OH228592   0.795   4.330   4.579
 9543TIP3    H128593   0.788   4.416   4.620
 9543TIP3    H228594   0.833   4.347   4.493
 9544TIP3   OH228595   3.599   3.573   5.095
 9544TIP3    H128596   3.685   3.543   5.065
 9544TIP3    H228597   3.537   3.521   5.044
 9545TIP3   OH228598   6.346   0.161   2.525
 9545TIP3    H128599   6.295   0.113   2.460
 9545TIP3    H228600   6.312   0.251   2.520
 9546TIP3   OH228601   2.190   5.876   4.352
 9546TIP3    H128602   2.202   5.969   4.335
 9546TIP3    H228603   2.279   5.841   4.361
 9547TIP3   OH228604   1.040   2.078   0.888
 9547TIP3    H128605   1.051   2.169   0.914
 9547TIP3    H228606   1.047   2.028   0.969
 9548TIP3   OH228607   6.096   3.756   5.246
 9548TIP3    H128608   6.053   3.712   5.173
 9548TIP3    H228609   6.159   3.692   5.280
 9549TIP3   OH228610   5.940   3.811   0.449
 9549TIP3    H128611   5.995   3.890   0.451
 9549TIP3    H228612   6.001   3.740   0.430
 9550TIP3   OH228613   1.024   5.797   0.290
 9550TIP3    H128614   0.960   5.868   0.285
 9550TIP3    H228615   0.994   5.733   0.225
 9551TIP3   OH228616   5.299   1.802   4.997
 9551TIP3    H128617   5.249   1.738   5.047
 9551TIP3    H228618   5.299   1.880   5.052
 9552TIP3   OH228619   2.491   0.547   5.037
 9552TIP3    H128620   2.578   0.564   5.001
 9552TIP3    H228621   2.431   0.580   4.971
 9553TIP3   OH228622   1.576   3.152   1.105
 9553TIP3    H128623   1.616   3.184   1.024
 9553TIP3    H228624   1.548   3.231   1.151
 9554TIP3   OH228625   3.606   1.258   3.825
 9554TIP3    H128626   3.575   1.346   3.845
 9554TIP3    H228627   3.530   1.201   3.840
 9555TIP3   OH228628  -0.008   4.001   4.719
 9555TIP3    H128629  -0.054   3.973   4.640
 9555TIP3    H228630  -0.014   4.096   4.718
 9556TIP3   OH228631   4.370   1.489   3.935
 9556TIP3    H128632   4.444   1.542   3.963
 9556TIP3    H228633   4.293   1.543   3.955
 9557TIP3   OH228634   3.689   0.825   4.639
 9557TIP3    H128635   3.708   0.917   4.660
 9557TIP3    H228636   3.740   0.807   4.561
 9558TIP3   OH228637   2.892   3.984   1.179
 9558TIP3    H128638   2.914   3.933   1.257
 9558TIP3    H228639   2.975   4.023   1.151
 9559TIP3   OH228640   2.363   5.083   2.075
 9559TIP3    H128641   2.303   5.036   2.017
 9559TIP3    H228642   2.306   5.138   2.129
 9560TIP3   OH228643   1.860   1.138   0.968
 9560TIP3    H128644   1.948   1.169   0.945
 9560TIP3    H228645   1.809   1.219   0.980
 9561TIP3   OH228646   0.084   4.379   4.145
 9561TIP3    H128647   0.070   4.472   4.128
 9561TIP3    H228648   0.174   4.374   4.177
 9562TIP3   OH228649   5.177   1.592   5.118
 9562TIP3    H128650   5.266   1.557   5.120
 9562TIP3    H228651   5.121   1.514   5.115
 9563TIP3   OH228652   1.347   6.262   3.719
 9563TIP3    H128653   1.340   6.357   3.709
 9563TIP3    H228654   1.403   6.250   3.795
 9564TIP3   OH228655   4.216   4.419   5.281
 9564TIP3    H128656   4.247   4.371   5.204
 9564TIP3    H228657   4.175   4.497   5.245
 9565TIP3   OH228658   3.826   1.844   4.687
 9565TIP3    H128659   3.738   1.809   4.703
 9565TIP3    H228660   3.810   1.921   4.631
 9566TIP3   OH228661   1.560   3.442   3.880
 9566TIP3    H128662   1.481   3.455   3.932
 9566TIP3    H228663   1.602   3.528   3.876
 9567TIP3   OH228664   5.841   0.464   5.130
 9567TIP3    H128665   5.895   0.443   5.205
 9567TIP3    H228666   5.831   0.559   5.132
 9568TIP3   OH228667   0.514   0.601   3.244
 9568TIP3    H128668   0.448   0.614   3.176
 9568TIP3    H228669   0.559   0.686   3.249
 9569TIP3   OH228670   6.701   2.345   1.643
 9569TIP3    H128671   6.688   2.439   1.657
 9569TIP3    H228672   6.629   2.303   1.689
 9570TIP3   OH228673   6.343   3.577   1.116
 9570TIP3    H128674   6.377   3.494   1.083
 9570TIP3    H228675   6.302   3.618   1.040
 9571TIP3   OH228676   5.801   3.430   1.441
 9571TIP3    H128677   5.863   3.394   1.504
 9571TIP3    H228678   5.819   3.382   1.360
 9572TIP3   OH228679   2.101   5.589   1.916
 9572TIP3    H128680   2.177   5.534   1.934
 9572TIP3    H228681   2.028   5.547   1.962
 9573TIP3   OH228682   3.701   5.043   0.549
 9573TIP3    H128683   3.618   5.053   0.502
 9573TIP3    H228684   3.711   5.126   0.597
 9574TIP3   OH228685   6.306   2.187   4.196
 9574TIP3    H128686   6.352   2.177   4.112
 9574TIP3    H228687   6.273   2.277   4.194
 9575TIP3   OH228688   0.275   1.452   5.205
 9575TIP3    H128689   0.317   1.441   5.290
 9575TIP3    H228690   0.348   1.450   5.142
 9576TIP3   OH228691   4.160   3.354   0.922
 9576TIP3    H128692   4.087   3.357   0.984
 9576TIP3    H228693   4.227   3.411   0.961
 9577TIP3   OH228694   3.592   5.693   0.127
 9577TIP3    H128695   3.681   5.671   0.157
 9577TIP3    H228696   3.564   5.615   0.079
 9578TIP3   OH228697   3.982   4.422   1.098
 9578TIP3    H128698   3.936   4.344   1.127
 9578TIP3    H228699   4.072   4.393   1.084
 9579TIP3   OH228700   0.454   5.158   2.055
 9579TIP3    H128701   0.547   5.144   2.036
 9579TIP3    H228702   0.448   5.150   2.150
 9580TIP3   OH228703   2.922   3.817   3.684
 9580TIP3    H128704   2.910   3.810   3.589
 9580TIP3    H228705   3.004   3.772   3.702
 9581TIP3   OH228706   3.427   3.871   3.098
 9581TIP3    H128707   3.434   3.958   3.138
 9581TIP3    H228708   3.500   3.867   3.035
 9582TIP3   OH228709   0.320   4.613   4.342
 9582TIP3    H128710   0.395   4.643   4.394
 9582TIP3    H228711   0.248   4.606   4.405
 9583TIP3   OH228712   0.629   2.923   4.484
 9583TIP3    H128713   0.679   2.843   4.499
 9583TIP3    H228714   0.542   2.904   4.520
 9584TIP3   OH228715   0.825   1.199   3.613
 9584TIP3    H128716   0.861   1.180   3.527
 9584TIP3    H228717   0.733   1.172   3.608
 9585TIP3   OH228718   4.815   2.455   1.522
 9585TIP3    H128719   4.771   2.419   1.444
 9585TIP3    H228720   4.886   2.393   1.540
 9586TIP3   OH228721   5.515   4.556   3.248
 9586TIP3    H128722   5.471   4.583   3.167
 9586TIP3    H228723   5.520   4.635   3.301
 9587TIP3   OH228724   4.646   0.181   0.941
 9587TIP3    H128725   4.707   0.254   0.948
 9587TIP3    H228726   4.679   0.127   0.869
 9588TIP3   OH228727   0.761   0.120   3.248
 9588TIP3    H128728   0.716   0.060   3.188
 9588TIP3    H228729   0.694   0.144   3.312
 9589TIP3   OH228730   2.482   1.996   1.992
 9589TIP3    H128731   2.429   2.013   2.070
 9589TIP3    H228732   2.548   1.933   2.021
 9590TIP3   OH228733   2.169   5.432   0.286
 9590TIP3    H128734   2.230   5.388   0.345
 9590TIP3    H228735   2.085   5.428   0.331
 9591TIP3   OH228736   3.842   3.486   3.204
 9591TIP3    H128737   3.822   3.478   3.297
 9591TIP3    H228738   3.936   3.506   3.201
 9592TIP3   OH228739   6.039   1.969   1.279
 9592TIP3    H128740   5.998   2.054   1.295
 9592TIP3    H228741   6.125   1.991   1.242
 9593TIP3   OH228742   3.079   6.028   4.033
 9593TIP3    H128743   3.107   6.060   3.947
 9593TIP3    H228744   3.160   6.022   4.084
 9594TIP3   OH228745   5.671   2.270   3.299
 9594TIP3    H128746   5.579   2.262   3.324
 9594TIP3    H228747   5.686   2.365   3.292
 9595TIP3   OH228748   0.830   1.011   1.712
 9595TIP3    H128749   0.812   1.021   1.618
 9595TIP3    H228750   0.864   0.922   1.721
 9596TIP3   OH228751   3.709   6.249   0.224
 9596TIP3    H128752   3.726   6.292   0.140
 9596TIP3    H228753   3.614   6.254   0.235
 9597TIP3   OH228754   4.035   2.710   0.633
 9597TIP3    H128755   4.110   2.678   0.684
 9597TIP3    H228756   4.074   2.762   0.563
 9598TIP3   OH228757   5.483   2.042   1.692
 9598TIP3    H128758   5.465   2.023   1.783
 9598TIP3    H228759   5.437   1.974   1.643
 9599TIP3   OH228760   1.120   5.983   0.700
 9599TIP3    H128761   1.165   5.955   0.780
 9599TIP3    H228762   1.171   5.943   0.629
 9600TIP3   OH228763   1.160   5.328   0.284
 9600TIP3    H128764   1.210   5.409   0.293
 9600TIP3    H228765   1.071   5.357   0.264
 9601TIP3   OH228766   3.498   2.432   4.534
 9601TIP3    H128767   3.583   2.471   4.518
 9601TIP3    H228768   3.501   2.404   4.626
 9602TIP3   OH228769   2.658   5.703   4.109
 9602TIP3    H128770   2.601   5.625   4.107
 9602TIP3    H228771   2.599   5.775   4.090
 9603TIP3   OH228772   5.135   1.623   0.296
 9603TIP3    H128773   5.222   1.610   0.335
 9603TIP3    H228774   5.152   1.629   0.202
 9604TIP3   OH228775   5.212   2.287   3.879
 9604TIP3    H128776   5.214   2.383   3.884
 9604TIP3    H228777   5.253   2.258   3.961
 9605TIP3   OH228778   3.159   0.027   4.273
 9605TIP3    H128779   3.190  -0.017   4.352
 9605TIP3    H228780   3.069  -0.006   4.262
 9606TIP3   OH228781   7.159   2.049   2.524
 9606TIP3    H128782   7.215   2.115   2.565
 9606TIP3    H228783   7.216   1.971   2.518
 9607TIP3   OH228784   6.290   0.221   0.955
 9607TIP3    H128785   6.376   0.194   0.924
 9607TIP3    H228786   6.229   0.156   0.920
 9608TIP3   OH228787   0.643   4.776   5.290
 9608TIP3    H128788   0.704   4.850   5.284
 9608TIP3    H228789   0.678   4.723   5.363
 9609TIP3   OH228790   2.309   4.358   5.637
 9609TIP3    H128791   2.301   4.299   5.712
 9609TIP3    H228792   2.394   4.336   5.598
 9610TIP3   OH228793   2.502   2.045   3.478
 9610TIP3    H128794   2.486   2.032   3.384
 9610TIP3    H228795   2.414   2.043   3.517
 9611TIP3   OH228796   1.999   5.132   5.462
 9611TIP3    H128797   1.977   5.223   5.484
 9611TIP3    H228798   1.919   5.083   5.477
 9612TIP3   OH228799   0.144   0.850   4.550
 9612TIP3    H128800   0.140   0.766   4.596
 9612TIP3    H228801   0.091   0.909   4.604
 9613TIP3   OH228802   2.676   1.992   1.297
 9613TIP3    H128803   2.667   2.031   1.210
 9613TIP3    H228804   2.733   2.052   1.344
 9614TIP3   OH228805   5.261   4.603   0.614
 9614TIP3    H128806   5.275   4.530   0.674
 9614TIP3    H228807   5.245   4.563   0.529
 9615TIP3   OH228808   6.171   5.340   2.629
 9615TIP3    H128809   6.136   5.296   2.551
 9615TIP3    H228810   6.128   5.296   2.702
 9616TIP3   OH228811   6.200   4.843   1.956
 9616TIP3    H128812   6.219   4.758   1.995
 9616TIP3    H228813   6.285   4.887   1.951
 9617TIP3   OH228814   2.339   5.301   4.618
 9617TIP3    H128815   2.418   5.350   4.641
 9617TIP3    H228816   2.329   5.315   4.524
 9618TIP3   OH228817   0.505   6.712   4.162
 9618TIP3    H128818   0.435   6.719   4.227
 9618TIP3    H228819   0.475   6.766   4.089
 9619TIP3   OH228820   1.541   1.721   1.344
 9619TIP3    H128821   1.608   1.755   1.404
 9619TIP3    H228822   1.499   1.650   1.393
 9620TIP3   OH228823   3.412   1.899   0.824
 9620TIP3    H128824   3.386   1.958   0.896
 9620TIP3    H228825   3.415   1.956   0.747
 9621TIP3   OH228826   4.507   1.874   0.108
 9621TIP3    H128827   4.568   1.929   0.157
 9621TIP3    H228828   4.516   1.787   0.149
 9622TIP3   OH228829   6.915   1.569   4.515
 9622TIP3    H128830   6.976   1.519   4.460
 9622TIP3    H228831   6.884   1.640   4.459
 9623TIP3   OH228832   2.125   0.556   3.200
 9623TIP3    H128833   2.095   0.501   3.128
 9623TIP3    H228834   2.071   0.635   3.194
 9624TIP3   OH228835   3.858   3.761   3.676
 9624TIP3    H128836   3.944   3.784   3.711
 9624TIP3    H228837   3.844   3.671   3.703
 9625TIP3   OH228838   3.594   0.329   3.575
 9625TIP3    H128839   3.531   0.399   3.560
 9625TIP3    H228840   3.675   0.375   3.597
 9626TIP3   OH228841   6.878   4.124   4.731
 9626TIP3    H128842   6.889   4.218   4.747
 9626TIP3    H228843   6.808   4.119   4.667
 9627TIP3   OH228844   2.429   0.387   2.567
 9627TIP3    H128845   2.480   0.467   2.556
 9627TIP3    H228846   2.431   0.345   2.481
 9628TIP3   OH228847   1.802   4.400   2.878
 9628TIP3    H128848   1.820   4.488   2.911
 9628TIP3    H228849   1.745   4.360   2.944
 9629TIP3   OH228850   2.666   2.065   5.292
 9629TIP3    H128851   2.622   1.984   5.266
 9629TIP3    H228852   2.754   2.057   5.255
 9630TIP3   OH228853   6.107   5.449   5.029
 9630TIP3    H128854   6.029   5.402   5.057
 9630TIP3    H228855   6.169   5.380   5.005
 9631TIP3   OH228856   5.368   0.026   3.126
 9631TIP3    H128857   5.292   0.080   3.105
 9631TIP3    H228858   5.357   0.005   3.219
 9632TIP3   OH228859   6.971   1.550   0.990
 9632TIP3    H128860   7.050   1.578   1.037
 9632TIP3    H228861   6.962   1.615   0.920
 9633TIP3   OH228862   1.820   3.157   1.869
 9633TIP3    H128863   1.795   3.160   1.777
 9633TIP3    H228864   1.867   3.239   1.884
 9634TIP3   OH228865   2.269   1.589   1.063
 9634TIP3    H128866   2.331   1.542   1.119
 9634TIP3    H228867   2.295   1.566   0.973
 9635TIP3   OH228868   4.141   1.125   2.827
 9635TIP3    H128869   4.097   1.204   2.797
 9635TIP3    H228870   4.074   1.056   2.821
 9636TIP3   OH228871  -0.011   2.282   5.557
 9636TIP3    H128872   0.023   2.209   5.609
 9636TIP3    H228873   0.038   2.358   5.588
 9637TIP3   OH228874   2.171   1.439   4.645
 9637TIP3    H128875   2.222   1.488   4.709
 9637TIP3    H228876   2.080   1.462   4.665
 9638TIP3   OH228877   6.350   5.529   0.826
 9638TIP3    H128878   6.345   5.472   0.903
 9638TIP3    H228879   6.382   5.472   0.756
 9639TIP3   OH228880   2.155   3.169   2.973
 9639TIP3    H128881   2.210   3.173   2.895
 9639TIP3    H228882   2.216   3.177   3.046
 9640TIP3   OH228883   1.962   1.656   3.111
 9640TIP3    H128884   1.940   1.700   3.029
 9640TIP3    H228885   2.006   1.724   3.163
 9641TIP3   OH228886   5.492   2.874   3.743
 9641TIP3    H128887   5.525   2.936   3.808
 9641TIP3    H228888   5.533   2.790   3.767
 9642TIP3   OH228889   6.602   3.089   3.116
 9642TIP3    H128890   6.685   3.074   3.160
 9642TIP3    H228891   6.606   3.181   3.089
 9643TIP3   OH228892   0.075   4.464   0.614
 9643TIP3    H128893  -0.016   4.474   0.640
 9643TIP3    H228894   0.078   4.377   0.573
 9644TIP3   OH228895   6.930   3.470   5.359
 9644TIP3    H128896   6.893   3.424   5.435
 9644TIP3    H228897   7.001   3.522   5.395
 9645TIP3   OH228898   4.209   4.288   1.684
 9645TIP3    H128899   4.242   4.225   1.620
 9645TIP3    H228900   4.206   4.371   1.638
 9646TIP3   OH228901   3.505   4.875   5.391
 9646TIP3    H128902   3.442   4.873   5.319
 9646TIP3    H228903   3.580   4.826   5.358
 9647TIP3   OH228904   5.370   1.267   1.646
 9647TIP3    H128905   5.450   1.222   1.674
 9647TIP3    H228906   5.395   1.360   1.644
 9648TIP3   OH228907   0.287   1.974   3.048
 9648TIP3    H128908   0.252   1.944   2.964
 9648TIP3    H228909   0.382   1.962   3.040
 9649TIP3   OH228910   3.878   2.498   3.392
 9649TIP3    H128911   3.955   2.468   3.440
 9649TIP3    H228912   3.914   2.545   3.316
 9650TIP3   OH228913   6.305   3.631   1.630
 9650TIP3    H128914   6.259   3.587   1.701
 9650TIP3    H228915   6.335   3.561   1.573
 9651TIP3   OH228916   4.323   4.224   3.983
 9651TIP3    H128917   4.366   4.221   4.069
 9651TIP3    H228918   4.232   4.243   4.002
 9652TIP3   OH228919   4.357   4.179   4.267
 9652TIP3    H128920   4.352   4.115   4.338
 9652TIP3    H228921   4.380   4.262   4.310
 9653TIP3   OH228922   2.532   5.920   2.110
 9653TIP3    H128923   2.495   5.995   2.156
 9653TIP3    H228924   2.622   5.914   2.142
 9654TIP3   OH228925   4.977   3.691   2.971
 9654TIP3    H128926   4.942   3.603   2.981
 9654TIP3    H228927   5.057   3.679   2.919
 9655TIP3   OH228928   3.925   3.913   3.463
 9655TIP3    H128929   3.873   3.839   3.495
 9655TIP3    H228930   3.972   3.945   3.540
 9656TIP3   OH228931   1.201   0.831   3.326
 9656TIP3    H128932   1.239   0.792   3.247
 9656TIP3    H228933   1.204   0.925   3.311
 9657TIP3   OH228934   6.446   0.823   4.331
 9657TIP3    H128935   6.426   0.909   4.296
 9657TIP3    H228936   6.400   0.820   4.415
 9658TIP3   OH228937   2.517   0.600   0.138
 9658TIP3    H128938   2.604   0.559   0.131
 9658TIP3    H228939   2.457   0.533   0.106
 9659TIP3   OH228940   1.674   1.040   4.929
 9659TIP3    H128941   1.733   0.995   4.868
 9659TIP3    H228942   1.732   1.075   4.996
 9660TIP3   OH228943   0.274   1.113   1.191
 9660TIP3    H128944   0.224   1.165   1.254
 9660TIP3    H228945   0.264   1.022   1.221
 9661TIP3   OH228946   0.038   1.748   5.173
 9661TIP3    H128947  -0.057   1.743   5.162
 9661TIP3    H228948   0.069   1.786   5.091
 9662TIP3   OH228949   3.516   2.743   4.701
 9662TIP3    H128950   3.486   2.762   4.612
 9662TIP3    H228951   3.589   2.682   4.689
 9663TIP3   OH228952   0.731   2.425   0.343
 9663TIP3    H128953   0.780   2.355   0.386
 9663TIP3    H228954   0.731   2.497   0.406
 9664TIP3   OH228955   2.715   0.050   5.276
 9664TIP3    H128956   2.759   0.014   5.353
 9664TIP3    H228957   2.640  -0.008   5.261
 9665TIP3   OH228958   4.140   3.413   4.949
 9665TIP3    H128959   4.213   3.384   5.003
 9665TIP3    H228960   4.123   3.340   4.890
 9666TIP3   OH228961   7.145   2.976   3.454
 9666TIP3    H128962   7.186   2.987   3.540
 9666TIP3    H228963   7.065   3.028   3.460
 9667TIP3   OH228964   1.137   0.558   5.701
 9667TIP3    H128965   1.092   0.507   5.634
 9667TIP3    H228966   1.070   0.615   5.738
 9668TIP3   OH228967   2.914   4.032   2.263
 9668TIP3    H128968   2.976   3.977   2.310
 9668TIP3    H228969   2.828   3.996   2.284
 9669TIP3   OH228970   2.455   5.895   5.740
 9669TIP3    H128971   2.431   5.927   5.827
 9669TIP3    H228972   2.417   5.808   5.734
 9670TIP3   OH228973   4.505   0.702   3.079
 9670TIP3    H128974   4.421   0.744   3.060
 9670TIP3    H228975   4.509   0.701   3.175
 9671TIP3   OH228976   7.128   6.668   2.455
 9671TIP3    H128977   7.077   6.640   2.531
 9671TIP3    H228978   7.155   6.757   2.475
 9672TIP3   OH228979   3.259   3.081   3.766
 9672TIP3    H128980   3.172   3.063   3.803
 9672TIP3    H228981   3.243   3.090   3.672
 9673TIP3   OH228982   5.694   4.344   3.252
 9673TIP3    H128983   5.617   4.401   3.247
 9673TIP3    H228984   5.681   4.278   3.185
 9674TIP3   OH228985   2.191   3.450   0.017
 9674TIP3    H128986   2.268   3.410  -0.025
 9674TIP3    H228987   2.228   3.518   0.074
 9675TIP3   OH228988   4.321   0.273   0.522
 9675TIP3    H128989   4.233   0.294   0.551
 9675TIP3    H228990   4.377   0.291   0.598
 9676TIP3   OH228991   2.241   5.189   0.797
 9676TIP3    H128992   2.324   5.179   0.750
 9676TIP3    H228993   2.195   5.258   0.749
 9677TIP3   OH228994   5.724   0.932   0.266
 9677TIP3    H128995   5.777   0.855   0.286
 9677TIP3    H228996   5.634   0.905   0.282
 9678TIP3   OH228997   6.171   4.837   5.065
 9678TIP3    H128998   6.134   4.912   5.018
 9678TIP3    H228999   6.266   4.850   5.057
 9679TIP3   OH229000   5.394   2.625   0.252
 9679TIP3    H129001   5.401   2.703   0.198
 9679TIP3    H229002   5.478   2.621   0.299
 9680TIP3   OH229003   0.244   1.728   3.535
 9680TIP3    H129004   0.165   1.690   3.496
 9680TIP3    H229005   0.311   1.719   3.468
 9681TIP3   OH229006   2.608   2.551   2.785
 9681TIP3    H129007   2.551   2.623   2.762
 9681TIP3    H229008   2.588   2.482   2.721
 9682TIP3   OH229009   4.910   0.427   1.941
 9682TIP3    H129010   4.831   0.374   1.948
 9682TIP3    H229011   4.922   0.464   2.028
 9683TIP3   OH229012   2.810   2.772   4.718
 9683TIP3    H129013   2.751   2.755   4.645
 9683TIP3    H229014   2.781   2.856   4.754
 9684TIP3   OH229015   0.360   2.685   5.534
 9684TIP3    H129016   0.356   2.768   5.582
 9684TIP3    H229017   0.438   2.642   5.567
 9685TIP3   OH229018   6.000   3.007   4.627
 9685TIP3    H129019   5.979   2.930   4.575
 9685TIP3    H229020   5.915   3.049   4.644
 9686TIP3   OH229021   5.612   1.824   0.798
 9686TIP3    H129022   5.579   1.871   0.874
 9686TIP3    H229023   5.563   1.859   0.724
 9687TIP3   OH229024   4.958   2.297   4.366
 9687TIP3    H129025   4.946   2.391   4.366
 9687TIP3    H229026   4.874   2.261   4.337
 9688TIP3   OH229027   2.731   3.277   5.535
 9688TIP3    H129028   2.726   3.222   5.457
 9688TIP3    H229029   2.710   3.218   5.607
 9689TIP3   OH229030   1.117   0.910   1.541
 9689TIP3    H129031   1.111   0.970   1.467
 9689TIP3    H229032   1.089   0.826   1.506
 9690TIP3   OH229033   2.183   5.170   1.766
 9690TIP3    H129034   2.162   5.161   1.673
 9690TIP3    H229035   2.207   5.081   1.794
 9691TIP3   OH229036   5.219   4.443   4.907
 9691TIP3    H129037   5.244   4.512   4.846
 9691TIP3    H229038   5.292   4.438   4.969
 9692TIP3   OH229039   2.762   1.257   1.933
 9692TIP3    H129040   2.726   1.229   2.017
 9692TIP3    H229041   2.719   1.201   1.869
 9693TIP3   OH229042   6.495   5.611   0.566
 9693TIP3    H129043   6.446   5.529   0.577
 9693TIP3    H229044   6.523   5.610   0.475
 9694TIP3   OH229045   4.595   1.945   4.908
 9694TIP3    H129046   4.566   1.883   4.975
 9694TIP3    H229047   4.673   1.986   4.946
 9695TIP3   OH229048   3.494   5.033   0.363
 9695TIP3    H129049   3.501   5.092   0.288
 9695TIP3    H229050   3.485   4.946   0.325
 9696TIP3   OH229051   2.369   6.267   0.376
 9696TIP3    H129052   2.330   6.279   0.289
 9696TIP3    H229053   2.371   6.172   0.389
 9697TIP3   OH229054   2.060   6.746   3.050
 9697TIP3    H129055   2.012   6.824   3.025
 9697TIP3    H229056   2.047   6.740   3.145
 9698TIP3   OH229057   3.142   5.388   5.759
 9698TIP3    H129058   3.098   5.458   5.807
 9698TIP3    H229059   3.125   5.309   5.812
 9699TIP3   OH229060   0.680   3.078   2.358
 9699TIP3    H129061   0.647   3.142   2.421
 9699TIP3    H229062   0.633   2.997   2.380
 9700TIP3   OH229063   2.044   5.886   4.028
 9700TIP3    H129064   2.048   5.970   3.984
 9700TIP3    H229065   2.073   5.905   4.118
 9701TIP3   OH229066   0.517   1.859   4.409
 9701TIP3    H129067   0.435   1.898   4.438
 9701TIP3    H229068   0.519   1.873   4.315
 9702TIP3   OH229069   2.964   4.648   4.307
 9702TIP3    H129070   3.028   4.715   4.331
 9702TIP3    H229071   3.015   4.582   4.260
 9703TIP3   OH229072   1.500   0.642   4.864
 9703TIP3    H129073   1.528   0.691   4.786
 9703TIP3    H229074   1.405   0.636   4.857
 9704TIP3   OH229075   5.803   4.261   4.245
 9704TIP3    H129076   5.846   4.257   4.159
 9704TIP3    H229077   5.719   4.218   4.231
 9705TIP3   OH229078   2.601   3.173   2.037
 9705TIP3    H129079   2.546   3.232   2.088
 9705TIP3    H229080   2.687   3.180   2.077
 9706TIP3   OH229081   4.120   3.904   4.385
 9706TIP3    H129082   4.215   3.914   4.373
 9706TIP3    H229083   4.112   3.845   4.460
 9707TIP3   OH229084   1.163   4.372   2.356
 9707TIP3    H129085   1.164   4.399   2.264
 9707TIP3    H229086   1.163   4.455   2.405
 9708TIP3   OH229087   3.973   5.835   2.604
 9708TIP3    H129088   3.977   5.926   2.574
 9708TIP3    H229089   4.004   5.784   2.529
 9709TIP3   OH229090   5.292   4.398   1.839
 9709TIP3    H129091   5.328   4.374   1.753
 9709TIP3    H229092   5.261   4.488   1.828
 9710TIP3   OH229093   6.669   5.970   3.699
 9710TIP3    H129094   6.695   5.879   3.716
 9710TIP3    H229095   6.636   5.969   3.609
 9711TIP3   OH229096   0.888   3.924   4.546
 9711TIP3    H129097   0.956   3.885   4.490
 9711TIP3    H229098   0.895   4.018   4.532
 9712TIP3   OH229099   6.630   1.543   5.179
 9712TIP3    H129100   6.570   1.616   5.162
 9712TIP3    H229101   6.683   1.573   5.253
 9713TIP3   OH229102   4.744   3.658   3.962
 9713TIP3    H129103   4.812   3.725   3.952
 9713TIP3    H229104   4.715   3.641   3.873
 9714TIP3   OH229105   3.387   3.987   5.702
 9714TIP3    H129106   3.476   3.952   5.701
 9714TIP3    H229107   3.353   3.967   5.614
 9715TIP3   OH229108   4.236   5.721   0.514
 9715TIP3    H129109   4.277   5.700   0.598
 9715TIP3    H229110   4.263   5.811   0.496
 9716TIP3   OH229111   4.726   4.620   5.253
 9716TIP3    H129112   4.810   4.593   5.216
 9716TIP3    H229113   4.750   4.687   5.318
 9717TIP3   OH229114   1.390   0.828   2.574
 9717TIP3    H129115   1.383   0.764   2.644
 9717TIP3    H229116   1.301   0.858   2.559
 9718TIP3   OH229117   1.470   4.130   4.505
 9718TIP3    H129118   1.553   4.174   4.526
 9718TIP3    H229119   1.441   4.093   4.588
 9719TIP3   OH229120   1.093   3.573   5.896
 9719TIP3    H129121   1.178   3.597   5.859
 9719TIP3    H229122   1.114   3.504   5.959
 9720TIP3   OH229123   3.443   1.472   1.710
 9720TIP3    H129124   3.476   1.560   1.688
 9720TIP3    H229125   3.432   1.429   1.625
 9721TIP3   OH229126   2.991   0.375   3.677
 9721TIP3    H129127   3.066   0.351   3.622
 9721TIP3    H229128   2.942   0.437   3.623
 9722TIP3   OH229129   7.177   4.282   4.718
 9722TIP3    H129130   7.095   4.313   4.679
 9722TIP3    H229131   7.191   4.339   4.794
 9723TIP3   OH229132   2.057   3.464   5.066
 9723TIP3    H129133   2.055   3.412   5.145
 9723TIP3    H229134   1.980   3.520   5.072
 9724TIP3   OH229135   6.426   0.985   1.990
 9724TIP3    H129136   6.519   1.002   1.973
 9724TIP3    H229137   6.412   1.015   2.080
 9725TIP3   OH229138   3.239   2.079   4.917
 9725TIP3    H129139   3.246   2.155   4.974
 9725TIP3    H229140   3.323   2.034   4.927
 9726TIP3   OH229141   3.163   1.663   4.757
 9726TIP3    H129142   3.108   1.599   4.711
 9726TIP3    H229143   3.126   1.748   4.734
 9727TIP3   OH229144   3.329   2.812   4.102
 9727TIP3    H129145   3.243   2.814   4.060
 9727TIP3    H229146   3.386   2.770   4.038
 9728TIP3   OH229147   2.987   1.936   3.607
 9728TIP3    H129148   3.018   1.991   3.679
 9728TIP3    H229149   2.948   1.860   3.651
 9729TIP3   OH229150   4.866   4.059   1.445
 9729TIP3    H129151   4.918   4.139   1.436
 9729TIP3    H229152   4.777   4.090   1.457
 9730TIP3   OH229153   3.521   1.480   3.184
 9730TIP3    H129154   3.480   1.534   3.252
 9730TIP3    H229155   3.614   1.503   3.189
 9731TIP3   OH229156   3.548   3.041   5.161
 9731TIP3    H129157   3.535   3.017   5.070
 9731TIP3    H229158   3.460   3.043   5.199
 9732TIP3   OH229159   0.073   5.745   3.686
 9732TIP3    H129160  -0.021   5.731   3.676
 9732TIP3    H229161   0.080   5.831   3.728
 9733TIP3   OH229162   6.111   1.026   0.526
 9733TIP3    H129163   6.036   1.030   0.466
 9733TIP3    H229164   6.119   1.116   0.559
 9734TIP3   OH229165   5.009   2.679   0.658
 9734TIP3    H129166   4.916   2.694   0.644
 9734TIP3    H229167   5.052   2.719   0.582
 9735TIP3   OH229168   1.961   2.334   3.579
 9735TIP3    H129169   1.877   2.335   3.624
 9735TIP3    H229170   1.998   2.421   3.596
 9736TIP3   OH229171   2.791   2.093   0.206
 9736TIP3    H129172   2.838   2.143   0.272
 9736TIP3    H229173   2.842   2.104   0.126
 9737TIP3   OH229174   2.944   6.440   2.029
 9737TIP3    H129175   2.920   6.528   2.059
 9737TIP3    H229176   2.871   6.412   1.974
 9738TIP3   OH229177   1.854   5.726   1.792
 9738TIP3    H129178   1.790   5.691   1.855
 9738TIP3    H229179   1.936   5.680   1.814
 9739TIP3   OH229180   4.869   5.641   0.076
 9739TIP3    H129181   4.786   5.597   0.096
 9739TIP3    H229182   4.936   5.584   0.114
 9740TIP3   OH229183   6.977   6.267   3.268
 9740TIP3    H129184   7.044   6.243   3.204
 9740TIP3    H229185   6.974   6.363   3.264
 9741TIP3   OH229186   0.839   1.686   5.723
 9741TIP3    H129187   0.915   1.644   5.682
 9741TIP3    H229188   0.865   1.778   5.731
 9742TIP3   OH229189   2.483   3.505   1.173
 9742TIP3    H129190   2.575   3.496   1.198
 9742TIP3    H229191   2.469   3.600   1.168
 9743TIP3   OH229192   0.843   0.557   2.950
 9743TIP3    H129193   0.901   0.628   2.980
 9743TIP3    H229194   0.820   0.510   3.031
 9744TIP3   OH229195   4.875   1.146   4.528
 9744TIP3    H129196   4.863   1.224   4.582
 9744TIP3    H229197   4.814   1.082   4.563
 9745TIP3   OH229198   0.275   2.899   1.225
 9745TIP3    H129199   0.299   2.990   1.243
 9745TIP3    H229200   0.342   2.847   1.271
 9746TIP3   OH229201   5.369   3.955   0.161
 9746TIP3    H129202   5.431   4.027   0.159
 9746TIP3    H229203   5.393   3.904   0.238
 9747TIP3   OH229204   4.277   1.399   0.662
 9747TIP3    H129205   4.325   1.382   0.581
 9747TIP3    H229206   4.265   1.313   0.702
 9748TIP3   OH229207   2.824   2.344   2.333
 9748TIP3    H129208   2.844   2.436   2.344
 9748TIP3    H229209   2.746   2.342   2.277
 9749TIP3   OH229210   4.748   2.201   0.807
 9749TIP3    H129211   4.747   2.297   0.807
 9749TIP3    H229212   4.676   2.177   0.866
   7.22135   6.80836   5.89620   0.00000   0.00000  -2.40712   0.00000  -2.40712  -3.40417
