Title
29212
    1ASP      N    1   2.494   4.997   3.638 -0.8623  0.1514 -0.4511
    1ASP    HT1    2   2.553   5.053   3.703  0.3269  0.9813 -2.1556
    1ASP    HT2    3   2.542   5.028   3.551  2.4263  0.4921  1.3131
    1ASP    HT3    4   2.508   4.896   3.662  2.4732  0.3912 -0.8629
    1ASP     CA    5   2.353   5.037   3.643 -0.4407 -0.1479  0.0775
    1ASP     HA    6   2.315   4.993   3.734  0.0936  0.0491  0.4013
    1ASP     CB    7   2.346   5.191   3.632  0.1803 -0.1681 -0.3006
    1ASP    HB1    8   2.346   5.224   3.526 -2.4816  2.1291  0.3073
    1ASP    HB2    9   2.431   5.240   3.685  3.3091 -3.0599 -2.2518
    1ASP     CG   10   2.213   5.240   3.672  0.6175  0.6520  0.3431
    1ASP    OD1   11   2.141   5.161   3.741  0.0409 -0.1401 -0.3621
    1ASP    OD2   12   2.165   5.342   3.625 -0.1665  0.2685 -0.0722
    1ASP      C   13   2.276   4.965   3.530 -0.0151  0.1761 -0.3241
    1ASP      O   14   2.327   4.896   3.442  0.1349  0.1037  0.0043
    2GLY      N   15   2.142   4.979   3.527  0.6981  0.4274 -0.2096
    2GLY     HN   16   2.115   5.046   3.595  2.6035  0.0298  0.9934
    2GLY     CA   17   2.042   4.907   3.442 -0.1985  0.3520  0.8193
    2GLY    HA1   18   2.080   4.914   3.341  1.5112 -1.2769  1.3088
    2GLY    HA2   19   1.945   4.953   3.452 -1.4348 -2.2869  1.7839
    2GLY      C   20   2.013   4.756   3.473 -0.2548  0.3693 -0.0499
    2GLY      O   21   2.094   4.690   3.536  0.8191  0.2776  0.4254
    3ASP      N   22   1.904   4.701   3.424 -0.1587  0.6230 -0.6091
    3ASP     HN   23   1.831   4.758   3.388 -0.2888  0.2624 -0.9186
    3ASP     CA   24   1.883   4.558   3.427  0.5174  0.6190 -1.0492
    3ASP     HA   25   1.910   4.516   3.523  0.0641  0.9093 -0.7874
    3ASP     CB   26   1.738   4.509   3.394 -0.2961 -1.2822  0.3993
    3ASP    HB1   27   1.724   4.402   3.419 -0.2637 -1.3176  0.2684
    3ASP    HB2   28   1.712   4.538   3.290  1.5744  0.4984  0.3547
    3ASP     CG   29   1.646   4.578   3.492  0.0635 -0.0429 -0.4460
    3ASP    OD1   30   1.671   4.585   3.615  0.5335  0.4310  0.0320
    3ASP    OD2   31   1.539   4.633   3.445 -0.5112  0.3328 -0.3822
    3ASP      C   32   1.977   4.496   3.327  0.2704 -0.4517  0.1236
    3ASP      O   33   2.015   4.560   3.229 -0.7380  0.3757  0.1178
    4GLY      N   34   2.025   4.370   3.347  0.7107 -0.6578 -0.1713
    4GLY     HN   35   1.990   4.315   3.422  1.5574 -0.2366  0.5488
    4GLY     CA   36   2.125   4.302   3.269 -0.1216  0.2132  0.0370
    4GLY    HA1   37   2.152   4.215   3.328 -2.9147 -1.8739 -1.5313
    4GLY    HA2   38   2.200   4.379   3.258  0.6782 -0.6902 -1.0890
    4GLY      C   39   2.069   4.265   3.137 -0.6459 -0.8809 -0.0925
    4GLY      O   40   1.961   4.303   3.098  0.1443  0.0350  0.7037
    5PRO      N   41   2.146   4.195   3.059  1.0283 -1.2248 -0.3148
    5PRO     CD   42   2.285   4.167   3.089  0.1185  0.4341 -1.1039
    5PRO    HD1   43   2.293   4.099   3.177  0.2840  2.5490  0.5963
    5PRO    HD2   44   2.338   4.262   3.113  0.8634 -0.4777  1.1931
    5PRO     CA   45   2.106   4.140   2.930 -0.0418 -0.0368  0.1013
    5PRO     HA   46   2.117   4.227   2.867 -0.9037 -0.7981 -1.1638
    5PRO     CB   47   2.219   4.039   2.913  0.1787  0.2721 -0.1390
    5PRO    HB1   48   2.229   4.010   2.806 -1.6637 -0.0163 -0.2688
    5PRO    HB2   49   2.192   3.951   2.975  1.8280 -0.1912 -0.0235
    5PRO     CG   50   2.346   4.098   2.971 -0.7415  0.3126  0.8152
    5PRO    HG1   51   2.416   4.014   2.992 -0.8916  0.2556  1.0963
    5PRO    HG2   52   2.385   4.169   2.896 -1.6386 -0.1689 -0.1289
    5PRO      C   53   1.964   4.080   2.917 -0.4018 -0.0035  0.1390
    5PRO      O   54   1.912   4.014   3.006 -0.1450  0.2015 -0.1135
    6GLY      N   55   1.900   4.097   2.800  0.3111  0.1767  0.5381
    6GLY     HN   56   1.937   4.145   2.720  0.4379 -1.8034 -0.6719
    6GLY     CA   57   1.766   4.045   2.769 -0.0671  0.8533 -0.4326
    6GLY    HA1   58   1.741   4.066   2.665 -2.3304  0.6267  0.0035
    6GLY    HA2   59   1.693   4.089   2.835 -0.4022 -1.1849  0.6204
    6GLY      C   60   1.748   3.894   2.773 -0.1432  0.5055 -0.1952
    6GLY      O   61   1.837   3.814   2.802  0.2751  0.0601  0.8964
    7ASP      N   62   1.626   3.852   2.741 -0.6512  1.0952 -0.8411
    7ASP     HN   63   1.551   3.918   2.731 -2.3828 -0.1412  2.4773
    7ASP     CA   64   1.592   3.707   2.756 -0.3298  0.3260  0.1051
    7ASP     HA   65   1.643   3.689   2.849 -0.6378  2.6577  0.8029
    7ASP     CB   66   1.437   3.684   2.770 -0.3590 -0.0576 -0.2521
    7ASP    HB1   67   1.399   3.581   2.784  0.6387 -0.4284 -0.2065
    7ASP    HB2   68   1.394   3.719   2.673  0.8045  0.4987 -0.5898
    7ASP     CG   69   1.378   3.769   2.887  0.5133 -0.1325 -0.2126
    7ASP    OD1   70   1.254   3.799   2.880  0.5534 -0.5489  0.3177
    7ASP    OD2   71   1.445   3.814   2.980 -0.1114  0.0478 -0.6993
    7ASP      C   72   1.655   3.625   2.637  0.5284 -0.1847 -0.4401
    7ASP      O   73   1.653   3.681   2.523  0.1102  0.3858  0.0278
    8PRO      N   74   1.708   3.506   2.666 -0.2430 -0.0676 -0.5472
    8PRO     CD   75   1.736   3.446   2.806  0.6054 -0.0517  0.3560
    8PRO    HD1   76   1.639   3.414   2.849 -0.2629  1.3423 -0.4645
    8PRO    HD2   77   1.785   3.519   2.874  1.7359 -0.4049 -0.0454
    8PRO     CA   78   1.779   3.429   2.562  0.9968 -0.6731 -0.3210
    8PRO     HA   79   1.877   3.474   2.555  0.2782  1.2269  1.0575
    8PRO     CB   80   1.791   3.288   2.627 -0.5510  0.1427  0.8200
    8PRO    HB1   81   1.859   3.229   2.562  1.8773  3.9432 -0.4655
    8PRO    HB2   82   1.696   3.231   2.631  0.4902 -1.8814 -1.0178
    8PRO     CG   83   1.826   3.323   2.774  0.5648  0.1431 -0.1292
    8PRO    HG1   84   1.798   3.234   2.834 -1.3748 -0.1447 -1.3522
    8PRO    HG2   85   1.935   3.340   2.786  0.3971  0.2322  1.4364
    8PRO      C   86   1.710   3.421   2.423  0.0115  0.0136  0.5213
    8PRO      O   87   1.593   3.392   2.411 -0.4538 -0.6746  0.4743
    9GLY      N   88   1.786   3.444   2.315  0.3418  0.2468  0.5357
    9GLY     HN   89   1.882   3.470   2.321  0.4032  0.4644 -0.9269
    9GLY     CA   90   1.749   3.401   2.175  0.3502  0.2713 -0.0313
    9GLY    HA1   91   1.831   3.424   2.109  0.1963 -1.4623 -0.8626
    9GLY    HA2   92   1.660   3.457   2.153 -1.8451 -2.8786  0.1433
    9GLY      C   93   1.712   3.260   2.146 -0.3417  0.7566  0.0808
    9GLY      O   94   1.748   3.178   2.231 -0.2460 -0.9074 -0.4591
   10ASP      N   95   1.664   3.226   2.023 -0.2190 -1.0208 -0.5872
   10ASP     HN   96   1.669   3.292   1.949  1.3780 -0.1823  0.2383
   10ASP     CA   97   1.632   3.087   2.000  0.4982  0.3764  0.1149
   10ASP     HA   98   1.722   3.027   2.002 -0.6911 -1.4798 -0.2731
   10ASP     CB   99   1.518   3.022   2.090  0.2071 -1.0518 -0.0475
   10ASP    HB1  100   1.415   3.053   2.065  0.5427 -0.8060 -1.1692
   10ASP    HB2  101   1.534   3.059   2.194  1.6995 -1.2288 -0.1865
   10ASP     CG  102   1.529   2.872   2.088 -0.2565  0.5087  0.7643
   10ASP    OD1  103   1.617   2.811   2.024  0.1832 -0.3105  0.4251
   10ASP    OD2  104   1.437   2.810   2.142  0.4597 -0.1182  0.2463
   10ASP      C  105   1.570   3.086   1.857  0.5453 -0.2715  0.2768
   10ASP      O  106   1.514   3.186   1.816  0.0157 -0.2315 -0.1584
   11GLY      N  107   1.589   2.973   1.785  0.1567 -0.1340  0.2918
   11GLY     HN  108   1.637   2.892   1.821  0.8867 -0.8958 -2.1810
   11GLY     CA  109   1.543   2.955   1.643 -0.2054 -0.1571 -0.0601
   11GLY    HA1  110   1.627   2.944   1.576 -0.3314 -0.0675 -0.2345
   11GLY    HA2  111   1.473   3.034   1.623  0.3552  0.4117  0.2011
   11GLY      C  112   1.478   2.817   1.639 -0.0967 -0.6841 -0.0037
   11GLY    OT1  113   1.352   2.808   1.654 -0.2479  0.0123  0.4784
   11GLY    OT2  114   1.552   2.717   1.611  0.1539 -0.2934  0.2396
   12SOD    SOD  115   4.392   1.016   0.999 -0.1667  0.5171  0.1927
   13SOD    SOD  116   3.698   3.410   3.143  0.0260  0.1077  0.4225
   14SOD    SOD  117   4.979   3.088   1.176  0.2831  0.1124  0.0025
   15SOD    SOD  118   4.635   0.349   5.399 -0.0088  0.6734 -0.2364
   16SOD    SOD  119   6.156   1.042   2.472 -0.4704 -0.0296 -0.8913
   17SOD    SOD  120   3.729   6.459   4.746 -0.6146  0.4612 -0.1731
   18SOD    SOD  121   1.210   5.203   3.151 -0.0072  0.2279  0.1322
   19SOD    SOD  122   5.764   1.899   0.624  0.1739 -0.0490  0.7319
   20SOD    SOD  123   3.919   4.777   1.720  0.5592  0.1348 -0.0689
   21SOD    SOD  124   0.446   5.878   5.003  0.2476 -0.0381 -0.0092
   22SOD    SOD  125   3.750   6.436   0.041 -0.4254 -0.4817  0.2261
   23SOD    SOD  126   2.476   4.144   0.346  0.2109 -0.1389 -0.0491
   24SOD    SOD  127   1.977   4.541   3.011  0.1202  0.0099 -0.2733
   25SOD    SOD  128   1.456   0.950   0.879  0.2147  0.3366 -0.0841
   26SOD    SOD  129   4.036   3.359   5.678 -0.2512 -0.2139  0.1781
   27SOD    SOD  130   1.258   3.470   1.919  0.2243 -0.4645 -0.1845
   28SOD    SOD  131   3.733   2.413   1.365 -0.3726  0.2301  0.0557
   29SOD    SOD  132   2.709   0.901   3.916 -0.3697  0.0177  0.2545
   30SOD    SOD  133   5.962   4.329   5.632  0.3722  0.5789 -0.0002
   31SOD    SOD  134   0.406   3.710   4.910 -0.2201 -0.0384 -0.5107
   32SOD    SOD  135   1.285   2.585   0.741  0.2955  0.1109 -0.1599
   33SOD    SOD  136   4.505   6.781   2.832 -0.8053  0.0451 -0.6181
   34SOD    SOD  137   5.203   5.671   3.960  0.1563 -0.1885 -0.6660
   35SOD    SOD  138   1.832   6.133   3.535  0.0580 -0.1847  0.3134
   36SOD    SOD  139   4.272   0.420   2.797  0.3514 -0.0157 -0.3763
   37SOD    SOD  140   4.063   1.929   1.425  0.4654 -0.0179  0.1284
   38SOD    SOD  141   5.256   3.237   5.040 -0.0434  0.3071 -0.0749
   39SOD    SOD  142   1.372   4.811   4.305  0.1280 -0.4543 -0.0755
   40SOD    SOD  143   0.758   3.681   5.390 -0.4916  0.0183 -0.0828
   41SOD    SOD  144   5.234   2.759   2.560  0.6714  0.1488 -0.4742
   42SOD    SOD  145   6.828   4.437   1.760  0.0825  0.7854 -0.1642
   43CLA    CLA  146   6.027   2.054   3.761  0.1409 -0.0828  0.3076
   44CLA    CLA  147   0.091   1.698   4.683  0.2938  0.2830  0.1681
   45CLA    CLA  148   6.941   0.942   2.884  0.2646 -0.0214 -0.3021
   46CLA    CLA  149   5.475   3.597   1.454  0.1579  0.3133 -0.2351
   47CLA    CLA  150   1.943   2.566   5.006  0.1974  0.2464  0.0452
   48CLA    CLA  151   3.985   1.093   5.018  0.1912  0.1402  0.0817
   49CLA    CLA  152   2.740   5.712   0.132  0.2796  0.2815  0.1296
   50CLA    CLA  153   7.034   4.811   0.658 -0.0075  0.0966 -0.0282
   51CLA    CLA  154   3.742   0.271   0.197  0.3678 -0.3156  0.0318
   52CLA    CLA  155   4.134   0.127   2.085 -0.1912 -0.0854 -0.0890
   53CLA    CLA  156   1.440   2.484   5.862  0.1750 -0.4450 -0.0991
   54CLA    CLA  157   2.627   5.049   2.449  0.1932 -0.1200 -0.2404
   55CLA    CLA  158   0.399   2.249   1.197  0.4761  0.1728 -0.3336
   56CLA    CLA  159   1.756   0.754   2.622  0.0925 -0.4126  0.0419
   57CLA    CLA  160   6.315   4.367   2.439  0.3024 -0.0623  0.2785
   58CLA    CLA  161   5.176   0.820   1.856  0.3895  0.5112  0.3519
   59CLA    CLA  162   6.269   6.599   2.021  0.0556 -0.4617  0.1255
   60CLA    CLA  163   0.405   4.510   5.448 -0.1457  0.2342 -0.0233
   61CLA    CLA  164   6.766   4.977   5.016  0.2179  0.1047 -0.2469
   62CLA    CLA  165   5.481   2.612   2.918  0.4078  0.1738  0.1744
   63CLA    CLA  166   1.155   4.559   1.099  0.2647 -0.1570 -0.2844
   64CLA    CLA  167   5.294   4.867   5.397 -0.2921 -0.2887  0.0335
   65CLA    CLA  168   2.160   3.937   1.050  0.1559 -0.1802  0.4681
   66CLA    CLA  169   4.588   5.485   5.181 -0.1345  0.0927 -0.4330
   67CLA    CLA  170   4.663   2.067   2.798 -0.1266 -0.0825  0.3972
   68CLA    CLA  171   5.598   4.038   3.459 -0.1837 -0.3761  0.1720
   69CLA    CLA  172   6.497   2.375   4.385  0.1121  0.3222  0.0690
   70TIP3   OH2  173   2.607   4.226   3.070  0.2754  0.2653  0.2847
   70TIP3    H1  174   2.590   4.234   3.164  2.1397  0.7493  0.6187
   70TIP3    H2  175   2.625   4.315   3.041  1.4092 -0.0952 -0.1612
   71TIP3   OH2  176   0.668   4.589   4.097 -0.5850  0.4235  0.3437
   71TIP3    H1  177   0.632   4.552   4.177 -2.6445  0.9260 -0.3028
   71TIP3    H2  178   0.606   4.657   4.071  0.7402  1.2196 -0.9570
   72TIP3   OH2  179   2.476   3.923   0.466 -0.2286 -0.3302 -0.1006
   72TIP3    H1  180   2.554   3.896   0.514  0.0655 -1.6472 -1.2625
   72TIP3    H2  181   2.404   3.876   0.509  0.0279 -1.4697 -0.8817
   73TIP3   OH2  182   4.042   0.516   2.355 -0.1835 -0.0903 -0.0524
   73TIP3    H1  183   4.115   0.456   2.339 -0.2860  0.1381 -1.5600
   73TIP3    H2  184   3.966   0.470   2.320 -0.5077  0.3133  0.1153
   74TIP3   OH2  185   3.429   2.259   3.070  0.4480 -0.1575 -0.3269
   74TIP3    H1  186   3.352   2.251   3.014  0.9770 -1.1524 -0.9356
   74TIP3    H2  187   3.500   2.285   3.010  0.4479  1.5233  0.3492
   75TIP3   OH2  188   0.073   3.529   5.742  0.0581  0.1274  0.2446
   75TIP3    H1  189   0.141   3.518   5.675  1.6486 -2.0122  2.0889
   75TIP3    H2  190  -0.009   3.530   5.692  1.2018 -0.9792 -1.7904
   76TIP3   OH2  191   6.527   3.476   3.306  0.0183 -0.6899  0.1076
   76TIP3    H1  192   6.534   3.407   3.241  0.2742 -2.0277  1.4892
   76TIP3    H2  193   6.432   3.488   3.319 -0.0355 -0.2536 -0.6531
   77TIP3   OH2  194   2.876   6.010   2.404 -0.4545 -0.1388  0.1324
   77TIP3    H1  195   2.813   5.984   2.336 -0.5793 -0.0853  0.2274
   77TIP3    H2  196   2.922   6.085   2.366 -0.2767 -0.3302 -0.0359
   78TIP3   OH2  197   1.086   1.369   4.216 -0.5677  0.2777 -0.2747
   78TIP3    H1  198   1.158   1.430   4.229  0.8639 -1.5856  1.0223
   78TIP3    H2  199   1.050   1.391   4.130  2.3400  0.4841 -1.5238
   79TIP3   OH2  200   1.000   1.408   3.962 -0.4651 -0.0576 -0.4108
   79TIP3    H1  201   0.939   1.338   3.985  0.8481 -0.8346  0.9057
   79TIP3    H2  202   0.995   1.414   3.866  0.8211 -3.3693 -0.8132
   80TIP3   OH2  203   6.768   4.376   2.254 -0.3087  0.3332  0.3933
   80TIP3    H1  204   6.772   4.472   2.253  1.1822  0.2892  0.2993
   80TIP3    H2  205   6.848   4.349   2.298  0.5238 -0.9296 -1.7568
   81TIP3   OH2  206   6.370   2.560   0.671  0.5742  0.5572  0.3495
   81TIP3    H1  207   6.328   2.625   0.615  0.2451  1.8324  1.9829
   81TIP3    H2  208   6.345   2.585   0.760  0.3515 -1.8796  1.0641
   82TIP3   OH2  209   5.840   4.198   0.034 -0.5568  0.1042 -0.3368
   82TIP3    H1  210   5.904   4.210   0.104 -0.0492  0.3654 -0.8350
   82TIP3    H2  211   5.893   4.194  -0.046 -1.2703  2.1442 -0.9700
   83TIP3   OH2  212   1.566   1.495   0.926 -0.3255  0.6279  0.5414
   83TIP3    H1  213   1.627   1.425   0.951 -1.5579 -0.3341  0.9458
   83TIP3    H2  214   1.622   1.561   0.884  0.6025 -1.7361 -2.3270
   84TIP3   OH2  215   4.781   5.718   0.290 -0.5972 -0.2878 -0.2595
   84TIP3    H1  216   4.755   5.759   0.207  1.5092  1.5703 -0.0965
   84TIP3    H2  217   4.825   5.637   0.264 -1.4551 -0.5825 -0.8302
   85TIP3   OH2  218   3.989   3.909   3.719 -0.0476  0.6079  0.0926
   85TIP3    H1  219   3.962   3.830   3.765  0.2862 -0.6229 -1.7118
   85TIP3    H2  220   4.084   3.901   3.711  0.1395  1.7619  0.8401
   86TIP3   OH2  221   1.040   3.765   2.369  0.5227 -0.1180 -0.3794
   86TIP3    H1  222   1.009   3.804   2.450 -0.3715  0.3767 -0.9359
   86TIP3    H2  223   1.128   3.735   2.388  0.8107  1.1579  0.3952
   87TIP3   OH2  224   0.072   5.696   1.726  0.1121  0.5865 -0.5122
   87TIP3    H1  225   0.017   5.774   1.727 -0.2410  0.3526  0.9434
   87TIP3    H2  226   0.162   5.730   1.726 -0.0263  1.0335  0.8657
   88TIP3   OH2  227   5.549   3.146   1.081  0.2629  0.2633 -0.6150
   88TIP3    H1  228   5.588   3.215   1.134 -0.7790 -0.5898  1.3962
   88TIP3    H2  229   5.455   3.155   1.096  0.0805 -1.3539 -0.5487
   89TIP3   OH2  230   5.152   2.938   0.329  0.4623 -0.4381 -0.8446
   89TIP3    H1  231   5.146   2.912   0.236  1.2645 -0.0063 -1.0250
   89TIP3    H2  232   5.151   3.033   0.327  2.9280 -0.3414 -0.6311
   90TIP3   OH2  233   4.283   6.096   0.208 -0.1179 -0.4634  0.1410
   90TIP3    H1  234   4.301   6.003   0.219 -1.8702 -0.5704  2.8352
   90TIP3    H2  235   4.288   6.133   0.296  1.0993  2.1619 -0.9050
   91TIP3   OH2  236   0.342   3.936   3.547  0.0537 -0.6435 -0.0983
   91TIP3    H1  237   0.255   3.946   3.586  0.0254 -1.0864 -0.0349
   91TIP3    H2  238   0.325   3.923   3.454  0.0449 -0.8326 -0.0706
   92TIP3   OH2  239   4.265   6.472   1.276 -0.1233  0.4509  0.0851
   92TIP3    H1  240   4.272   6.455   1.182  1.3594  1.0924  0.0547
   92TIP3    H2  241   4.242   6.387   1.314  1.2767 -0.2940 -0.6599
   93TIP3   OH2  242   6.296   3.743   2.685  0.5009 -0.3763 -0.0988
   93TIP3    H1  243   6.236   3.673   2.710 -1.1726 -0.2185 -3.1251
   93TIP3    H2  244   6.383   3.703   2.688  0.1567 -1.1114  2.7374
   94TIP3   OH2  245   3.453   5.858   2.018  0.3216 -0.3250  0.5273
   94TIP3    H1  246   3.426   5.935   1.969  1.9254  0.2754  0.5192
   94TIP3    H2  247   3.451   5.787   1.954 -1.8805 -0.5062  0.7087
   95TIP3   OH2  248   4.707   0.380   1.662  0.6553  0.1666  0.2201
   95TIP3    H1  249   4.719   0.300   1.713  0.6645  0.0549  0.0446
   95TIP3    H2  250   4.614   0.400   1.671 -0.0604 -1.5616 -2.1854
   96TIP3   OH2  251   1.146   3.426   1.218 -0.0088  0.1444 -0.3378
   96TIP3    H1  252   1.054   3.401   1.231  0.6264 -2.8829 -0.8741
   96TIP3    H2  253   1.194   3.372   1.281  1.6051 -0.5958 -2.1265
   97TIP3   OH2  254   5.099   4.478   1.719 -0.0726  0.6573  0.1312
   97TIP3    H1  255   5.061   4.393   1.700  0.3736  0.8514 -1.7911
   97TIP3    H2  256   5.173   4.487   1.658 -0.0097  2.3432  0.3852
   98TIP3   OH2  257   4.635   3.077   0.807  0.3295  0.4264  0.0772
   98TIP3    H1  258   4.720   3.118   0.791 -0.1214  1.5405  0.4490
   98TIP3    H2  259   4.638   3.048   0.898  0.7230 -0.5819 -0.2441
   99TIP3   OH2  260   1.199   2.090   5.256 -0.5201  0.5573  0.0461
   99TIP3    H1  261   1.167   2.156   5.317  0.7281 -0.9534  2.4687
   99TIP3    H2  262   1.294   2.101   5.257 -0.3773 -0.5279 -0.3970
  100TIP3   OH2  263   6.534   5.989   3.935 -0.1939  0.2677  0.1916
  100TIP3    H1  264   6.448   5.998   3.894  0.3126  0.6944 -0.8210
  100TIP3    H2  265   6.515   5.975   4.027 -1.4224 -1.8691 -0.3202
  101TIP3   OH2  266   6.301   0.317   1.625 -0.0858  1.0479  0.2770
  101TIP3    H1  267   6.228   0.257   1.611  0.2224 -0.0831  2.8036
  101TIP3    H2  268   6.323   0.305   1.718  3.4251  1.1961 -0.4174
  102TIP3   OH2  269   5.570   3.705   2.890  0.2981  0.0550  0.0822
  102TIP3    H1  270   5.582   3.685   2.983  0.3877 -0.4846 -0.0381
  102TIP3    H2  271   5.482   3.740   2.883  0.3055  0.1292  0.3791
  103TIP3   OH2  272   0.918   3.922   4.790  0.0169  0.0161  0.0890
  103TIP3    H1  273   0.898   3.835   4.756  0.7589 -0.1179 -0.0325
  103TIP3    H2  274   0.920   3.979   4.713 -0.5820  0.1627  0.1818
  104TIP3   OH2  275   4.882   0.095   5.500  0.2524  0.3842 -0.5610
  104TIP3    H1  276   4.962   0.143   5.521  0.3305  0.4010 -0.8899
  104TIP3    H2  277   4.913   0.006   5.480  0.1919  0.3998 -0.7228
  105TIP3   OH2  278   3.641   1.542   1.697 -0.2258  0.3399 -0.1957
  105TIP3    H1  279   3.611   1.630   1.675  0.0151  0.7167  0.9270
  105TIP3    H2  280   3.734   1.554   1.719  0.2194 -0.4574 -1.5136
  106TIP3   OH2  281   5.811   3.160   4.794  0.2115  0.0167  0.4056
  106TIP3    H1  282   5.893   3.201   4.765 -1.2024  1.9598 -1.1042
  106TIP3    H2  283   5.808   3.078   4.745  1.0396  0.1199  0.1568
  107TIP3   OH2  284   0.615   4.730   2.414  0.1669  0.3238 -0.2237
  107TIP3    H1  285   0.710   4.739   2.404  0.1662  0.1520 -0.3692
  107TIP3    H2  286   0.599   4.636   2.416  0.0629  0.3505  0.3957
  108TIP3   OH2  287   4.775   3.879   1.892  0.2125 -0.2929 -0.1409
  108TIP3    H1  288   4.859   3.921   1.877  1.5463 -2.7780 -0.2420
  108TIP3    H2  289   4.791   3.818   1.964 -1.8159 -0.0483  0.5895
  109TIP3   OH2  290   4.722   3.754   0.707  0.2451  0.2329  0.2093
  109TIP3    H1  291   4.723   3.707   0.790  0.5377  0.1489  0.1574
  109TIP3    H2  292   4.806   3.799   0.703  1.7783 -2.5196 -1.6143
  110TIP3   OH2  293   1.252   1.276   1.208  0.2978  0.4050 -0.3780
  110TIP3    H1  294   1.215   1.307   1.290  1.7993 -0.9018  0.8544
  110TIP3    H2  295   1.314   1.343   1.181  0.9774  0.1139  0.4297
  111TIP3   OH2  296   4.420   2.008   3.617 -0.1432 -0.2876  0.7232
  111TIP3    H1  297   4.493   1.994   3.556 -1.1701  1.5312 -1.0235
  111TIP3    H2  298   4.343   2.017   3.561 -1.3929 -0.0922  2.3999
  112TIP3   OH2  299   4.271   6.410   2.627 -0.1262 -0.2317 -0.0300
  112TIP3    H1  300   4.256   6.480   2.563 -0.5817  0.8036  1.1606
  112TIP3    H2  301   4.197   6.418   2.688 -0.1075 -1.6793  0.2075
  113TIP3   OH2  302   2.454   4.855   0.739 -0.0731  0.0058 -0.3520
  113TIP3    H1  303   2.412   4.919   0.680  0.8639  0.3784 -0.6325
  113TIP3    H2  304   2.384   4.828   0.798 -0.3658  1.7523  0.1514
  114TIP3   OH2  305   1.478   4.597   0.717 -0.0874 -0.1958 -0.0056
  114TIP3    H1  306   1.423   4.588   0.639 -0.2649 -1.2771  0.2344
  114TIP3    H2  307   1.552   4.650   0.687  1.0624 -2.5316 -1.6143
  115TIP3   OH2  308   5.877   2.279   5.216  0.1436 -0.3745  0.4115
  115TIP3    H1  309   5.935   2.206   5.237  0.5559  0.6279  3.0816
  115TIP3    H2  310   5.924   2.357   5.247 -0.8956  0.9038 -1.0759
  116TIP3   OH2  311   4.247   5.234   5.018 -0.5119  0.2549 -0.5235
  116TIP3    H1  312   4.268   5.149   4.979  0.9698  0.4741 -0.2674
  116TIP3    H2  313   4.158   5.252   4.989 -0.0322 -0.3086 -2.5396
  117TIP3   OH2  314   4.545   6.294   4.882 -0.0566  0.6725 -0.4369
  117TIP3    H1  315   4.592   6.213   4.900  3.5340  2.3699 -1.3865
  117TIP3    H2  316   4.528   6.331   4.969 -1.8982 -1.0285  0.0188
  118TIP3   OH2  317   0.748   2.911   0.038  0.1264 -0.2123 -0.8054
  118TIP3    H1  318   0.655   2.926   0.054 -0.0034 -1.6350 -0.0536
  118TIP3    H2  319   0.778   2.865   0.116  1.1965 -0.8159 -1.5547
  119TIP3   OH2  320   0.223   2.645   3.911 -0.1943  0.5394 -0.2287
  119TIP3    H1  321   0.319   2.652   3.911 -0.2232  0.9322 -0.4099
  119TIP3    H2  322   0.201   2.624   3.821 -0.1184 -1.9044  0.2583
  120TIP3   OH2  323   5.933   4.066   4.006 -0.2795  0.1954 -0.0943
  120TIP3    H1  324   5.853   4.014   3.998 -0.8979  1.0938 -0.0331
  120TIP3    H2  325   5.917   4.122   4.082  0.0747  0.9321 -0.5440
  121TIP3   OH2  326   0.374   3.618   4.327  0.2402 -0.3338  0.3168
  121TIP3    H1  327   0.340   3.583   4.245  0.2926 -1.2911  0.6979
  121TIP3    H2  328   0.387   3.542   4.383  2.1468  0.0852  0.5175
  122TIP3   OH2  329   3.821   3.258   0.122  0.8270 -0.8074 -0.1416
  122TIP3    H1  330   3.752   3.207   0.079  0.1408 -0.0384  0.0256
  122TIP3    H2  331   3.885   3.192   0.150 -0.5756 -1.7143  1.0664
  123TIP3   OH2  332   5.767   3.352   3.150 -0.3750 -0.5870 -0.0059
  123TIP3    H1  333   5.840   3.414   3.146 -1.2337  0.4080 -3.2111
  123TIP3    H2  334   5.757   3.333   3.243  0.1751  3.8980  1.2291
  124TIP3   OH2  335   1.367   2.035   5.733 -0.2756 -0.2724  0.1720
  124TIP3    H1  336   1.333   2.107   5.679  0.3558 -0.7840 -0.9476
  124TIP3    H2  337   1.291   2.001   5.779 -0.4932  1.4667  1.1533
  125TIP3   OH2  338   2.724   5.987   1.071  0.0571  0.1116 -0.0597
  125TIP3    H1  339   2.701   6.070   1.029 -1.0050 -0.5470 -0.8347
  125TIP3    H2  340   2.816   5.973   1.046  0.2745  1.0846  0.1540
  126TIP3   OH2  341   5.745   0.543   5.205  0.3369  0.0142 -0.6650
  126TIP3    H1  342   5.690   0.617   5.231  1.2863  1.1064 -1.6106
  126TIP3    H2  343   5.714   0.520   5.118  0.2638 -0.4961 -0.5060
  127TIP3   OH2  344   1.405   2.126   3.883 -0.5457 -0.3763 -0.0587
  127TIP3    H1  345   1.407   2.090   3.794  0.0165  1.0514 -0.6580
  127TIP3    H2  346   1.489   2.170   3.892 -0.9041  0.1213  0.9253
  128TIP3   OH2  347   2.256   0.906   5.482 -0.2139 -0.0244  1.0487
  128TIP3    H1  348   2.240   0.973   5.548 -3.0146 -1.0704  1.5674
  128TIP3    H2  349   2.262   0.824   5.533  2.1622 -0.3758  0.3460
  129TIP3   OH2  350   4.691   3.776   5.041  0.2936  0.7028  0.3373
  129TIP3    H1  351   4.773   3.744   5.004 -0.3530  0.4297 -0.9023
  129TIP3    H2  352   4.625   3.713   5.013 -0.2413  0.4357  2.0476
  130TIP3   OH2  353   2.957   2.185   1.889 -0.1247 -0.6818 -0.0104
  130TIP3    H1  354   2.951   2.098   1.929  0.6824 -1.5912 -1.7262
  130TIP3    H2  355   3.046   2.215   1.908 -0.5569  0.0195  0.9967
  131TIP3   OH2  356   0.835   6.366   4.426  0.2269  0.1915 -0.3133
  131TIP3    H1  357   0.920   6.382   4.468  0.4778  0.2268 -0.8345
  131TIP3    H2  358   0.772   6.371   4.498  0.9117 -2.6154  0.6094
  132TIP3   OH2  359   4.035   3.244   3.373  0.1785  0.2781  0.9672
  132TIP3    H1  360   3.977   3.246   3.449 -2.3838 -3.2196 -0.6144
  132TIP3    H2  361   4.099   3.176   3.393 -0.1494 -0.2466  0.2721
  133TIP3   OH2  362   4.579   1.919   4.083  0.8723 -0.0047  0.2519
  133TIP3    H1  363   4.626   1.989   4.130 -0.6852  0.7773  0.7060
  133TIP3    H2  364   4.528   1.875   4.151 -0.5404  0.4151 -0.4940
  134TIP3   OH2  365   3.472   2.993   4.764 -0.1343 -0.1037 -0.3519
  134TIP3    H1  366   3.393   2.955   4.727 -0.7376 -0.0486  0.8430
  134TIP3    H2  367   3.544   2.946   4.720 -0.7159  1.4353 -3.1651
  135TIP3   OH2  368   1.053   1.627   2.986 -0.5864 -0.2069 -0.6456
  135TIP3    H1  369   1.108   1.653   2.912  0.2827  0.2384  0.1236
  135TIP3    H2  370   1.042   1.707   3.037 -0.9793 -0.5577 -0.1730
  136TIP3   OH2  371   4.602   2.417   3.904 -0.3016 -0.0228 -0.1660
  136TIP3    H1  372   4.695   2.435   3.919 -0.3687 -0.3860  0.7564
  136TIP3    H2  373   4.600   2.375   3.818  0.3290  0.4221 -0.4105
  137TIP3   OH2  374   4.126   6.043   1.718 -0.3155 -0.1953  0.1876
  137TIP3    H1  375   4.091   6.031   1.630 -0.4869 -1.4198  0.4006
  137TIP3    H2  376   4.053   6.076   1.770  0.0776  1.6225 -0.3514
  138TIP3   OH2  377   5.052   1.354   3.795  0.2970 -0.1022 -0.2934
  138TIP3    H1  378   5.071   1.402   3.714  0.8258 -0.4730 -0.3914
  138TIP3    H2  379   5.041   1.423   3.860  1.2282  0.1635 -0.3977
  139TIP3   OH2  380   3.232   6.632   4.262  0.3659  0.3362  0.0734
  139TIP3    H1  381   3.178   6.602   4.190 -0.5272  0.4908  0.6648
  139TIP3    H2  382   3.228   6.728   4.257  0.2971  0.3475  0.3276
  140TIP3   OH2  383   4.057   5.793   2.607  0.1195 -0.2449  0.1373
  140TIP3    H1  384   4.031   5.861   2.545  0.2429 -1.8640 -1.8105
  140TIP3    H2  385   3.973   5.758   2.639  0.0393  1.7298  2.3264
  141TIP3   OH2  386   6.740   2.165   4.362 -0.1204 -0.4592  0.0862
  141TIP3    H1  387   6.679   2.094   4.384 -1.6706  0.8890  0.3006
  141TIP3    H2  388   6.684   2.240   4.344  1.4822  0.7372 -0.1226
  142TIP3   OH2  389   5.830   2.543   2.442 -0.4528  0.4178  0.2301
  142TIP3    H1  390   5.802   2.477   2.505  1.0742 -0.4356  0.0677
  142TIP3    H2  391   5.874   2.610   2.494  1.3759 -0.6008  0.0555
  143TIP3   OH2  392   5.958   4.978   4.769  0.5466 -0.1341  0.0908
  143TIP3    H1  393   5.948   4.899   4.717  1.9936  0.1167 -0.6258
  143TIP3    H2  394   5.975   5.047   4.704  0.2018  0.5917  0.7601
  144TIP3   OH2  395   4.364   1.300   1.498 -0.0592  0.3878 -0.7203
  144TIP3    H1  396   4.343   1.290   1.591 -2.0679  0.2329 -1.1564
  144TIP3    H2  397   4.447   1.252   1.487 -0.6302 -1.0052  0.6769
  145TIP3   OH2  398   5.812   3.635   0.285 -0.3047 -0.5571  0.3330
  145TIP3    H1  399   5.804   3.730   0.287 -0.5745 -0.3169 -3.7596
  145TIP3    H2  400   5.904   3.619   0.268 -0.7968 -0.7100 -2.7176
  146TIP3   OH2  401   0.067   5.954   3.950  0.1483 -0.3359 -0.5233
  146TIP3    H1  402   0.046   6.042   3.980 -1.9289 -0.7154 -0.6528
  146TIP3    H2  403   0.147   5.931   3.995  0.7155  1.5964 -0.4619
  147TIP3   OH2  404   1.133   5.361   4.027 -0.0219  0.2878 -0.0334
  147TIP3    H1  405   1.212   5.408   4.052 -0.2456  0.8528 -0.3565
  147TIP3    H2  406   1.164   5.282   3.983  0.3586  0.3436  0.1349
  148TIP3   OH2  407   4.459   3.129   3.987  0.1991  0.0296  0.0574
  148TIP3    H1  408   4.491   3.139   3.898  0.1633 -1.1548 -0.1138
  148TIP3    H2  409   4.443   3.218   4.018 -2.8394  0.4339 -2.2320
  149TIP3   OH2  410   0.666   2.232   3.236 -0.1327 -0.1195 -0.0798
  149TIP3    H1  411   0.651   2.308   3.180 -0.3496 -0.8260 -1.0016
  149TIP3    H2  412   0.618   2.161   3.195  1.5253 -1.2079 -0.2595
  150TIP3   OH2  413   2.005   3.043   4.824  0.1887  0.1436  0.0598
  150TIP3    H1  414   1.963   3.027   4.908 -0.1905 -0.2766 -0.2118
  150TIP3    H2  415   2.064   2.969   4.813 -0.3769 -0.2370 -0.4349
  151TIP3   OH2  416   0.877   6.392   0.098  0.1557 -0.0978  0.0265
  151TIP3    H1  417   0.971   6.410   0.086 -0.5448  3.9882 -0.8876
  151TIP3    H2  418   0.865   6.387   0.192  1.2343 -0.3129  0.1634
  152TIP3   OH2  419   4.238   5.081   4.645  0.3254 -0.0029  0.1613
  152TIP3    H1  420   4.186   5.004   4.669  0.2221 -0.1552 -0.5462
  152TIP3    H2  421   4.322   5.067   4.691  1.4828 -2.1084 -2.3053
  153TIP3   OH2  422   4.707   4.834   4.221 -0.0074  0.2871 -0.0033
  153TIP3    H1  423   4.754   4.776   4.162 -0.6651 -0.2893  0.0354
  153TIP3    H2  424   4.616   4.807   4.216 -0.1452  0.5134  0.9398
  154TIP3   OH2  425   3.434   2.575   1.745  0.3861 -0.3557  0.4430
  154TIP3    H1  426   3.461   2.660   1.710 -0.0134  0.0768  1.1721
  154TIP3    H2  427   3.516   2.527   1.757  0.5317 -0.5834 -1.2227
  155TIP3   OH2  428   3.002   5.254   1.747  0.1525 -0.1940 -0.7476
  155TIP3    H1  429   2.924   5.221   1.701 -0.1999 -0.4632  0.0192
  155TIP3    H2  430   2.990   5.225   1.837  2.2866 -2.3310 -1.0395
  156TIP3   OH2  431   3.032   2.749   0.918  0.3620 -0.4267 -0.1133
  156TIP3    H1  432   2.986   2.804   0.855  2.3283  0.9436 -0.4671
  156TIP3    H2  433   3.120   2.788   0.923  1.7359 -3.3022 -0.0767
  157TIP3   OH2  434   6.697   2.685   0.849  0.4353  0.6273  0.3836
  157TIP3    H1  435   6.792   2.675   0.849  0.3631 -0.7866  2.9989
  157TIP3    H2  436   6.669   2.646   0.931 -2.7112 -1.6289 -1.5672
  158TIP3   OH2  437   7.030   3.748   3.752 -0.0312  0.2135  0.2301
  158TIP3    H1  438   7.112   3.719   3.790 -0.5502 -0.1083  1.1408
  158TIP3    H2  439   7.053   3.780   3.665  0.9312 -0.6204  0.1626
  159TIP3   OH2  440   2.078   6.608   3.478 -0.1856  0.7429  0.0440
  159TIP3    H1  441   2.143   6.672   3.449 -1.3122  1.6583 -0.5217
  159TIP3    H2  442   2.070   6.623   3.572 -0.4817  1.4634 -0.0966
  160TIP3   OH2  443   6.624   0.376   5.637  0.2572 -0.3897  0.3662
  160TIP3    H1  444   6.533   0.404   5.626 -0.2694 -1.8964  0.7167
  160TIP3    H2  445   6.630   0.351   5.729  0.7982 -1.0924  0.1442
  161TIP3   OH2  446   3.027   5.411   1.150  0.0421 -0.2868 -0.3213
  161TIP3    H1  447   3.062   5.496   1.178  1.5344 -1.4508  1.6294
  161TIP3    H2  448   2.977   5.431   1.071  0.1974  2.4190  0.1469
  162TIP3   OH2  449   2.167   4.742   4.346 -0.1186  0.1854 -0.1838
  162TIP3    H1  450   2.122   4.761   4.428 -0.7540 -0.1614 -0.4470
  162TIP3    H2  451   2.097   4.720   4.284  0.4056 -0.2690 -0.6266
  163TIP3   OH2  452   6.164   3.457   4.385 -0.0322 -0.0540  0.2990
  163TIP3    H1  453   6.189   3.531   4.331 -0.7574  1.2198  1.6367
  163TIP3    H2  454   6.173   3.381   4.327  0.5920  1.0725 -1.1485
  164TIP3   OH2  455   2.586   4.385   1.855  0.1307 -0.6623  0.5948
  164TIP3    H1  456   2.494   4.403   1.832  0.2720 -0.3054  0.2995
  164TIP3    H2  457   2.612   4.460   1.908  0.6695 -0.0562 -0.4880
  165TIP3   OH2  458   6.254   3.314   1.393 -0.5972 -0.3269 -0.2245
  165TIP3    H1  459   6.253   3.260   1.472  1.3994  0.1561  0.1884
  165TIP3    H2  460   6.200   3.390   1.415  0.9037  0.3952  1.1715
  166TIP3   OH2  461   1.400   4.759   2.446  0.2896 -0.1312  0.7512
  166TIP3    H1  462   1.429   4.822   2.380 -0.3572 -1.7273 -1.1610
  166TIP3    H2  463   1.363   4.813   2.516 -0.6382  1.6289 -0.9997
  167TIP3   OH2  464   3.891   6.263   1.400  0.2942  0.0378  0.5677
  167TIP3    H1  465   3.937   6.346   1.412  0.7584 -0.0078 -0.8281
  167TIP3    H2  466   3.898   6.244   1.307 -1.6699 -0.4969  0.4916
  168TIP3   OH2  467   0.030   5.079   4.655 -0.5952  0.7141  0.2008
  168TIP3    H1  468   0.083   5.094   4.733 -1.5607  0.8530  0.8460
  168TIP3    H2  469   0.038   4.985   4.637  0.0706  0.7778  0.1223
  169TIP3   OH2  470   6.578   2.345   4.975  0.0854 -0.0963  0.1749
  169TIP3    H1  471   6.577   2.429   4.930  0.5597 -0.5351 -0.6922
  169TIP3    H2  472   6.585   2.280   4.904  0.5312 -0.8282  0.8687
  170TIP3   OH2  473   3.568   4.497   1.944  1.0227  0.3140 -0.1169
  170TIP3    H1  474   3.549   4.426   1.883  0.9409 -0.0313  0.3101
  170TIP3    H2  475   3.588   4.454   2.026  1.2142  0.7771  0.0832
  171TIP3   OH2  476   2.564   6.788   0.381 -0.4587  0.1513 -0.5067
  171TIP3    H1  477   2.564   6.697   0.351  0.5694 -0.1091  0.2266
  171TIP3    H2  478   2.652   6.801   0.417 -0.9334  1.1117  0.3567
  172TIP3   OH2  479   5.856   2.929   5.329  0.1684  0.1772  0.5928
  172TIP3    H1  480   5.901   2.997   5.380 -0.1594  1.6464 -0.9689
  172TIP3    H2  481   5.873   2.952   5.238 -1.5600 -0.7205 -0.0102
  173TIP3   OH2  482   3.710   2.991   2.891 -0.1810  0.4957 -0.0295
  173TIP3    H1  483   3.634   3.029   2.846 -0.3771  1.5582  1.1490
  173TIP3    H2  484   3.774   2.979   2.822 -1.3783 -0.3386 -1.0380
  174TIP3   OH2  485   4.616   3.862   2.288  0.3576 -0.5308 -0.3413
  174TIP3    H1  486   4.593   3.913   2.366  0.1223 -1.7103  0.3873
  174TIP3    H2  487   4.710   3.845   2.297  0.0263 -2.1211  0.6226
  175TIP3   OH2  488   2.777   3.813   1.582  0.0261 -0.4960 -0.8692
  175TIP3    H1  489   2.734   3.897   1.567  0.5394  0.2231  1.3468
  175TIP3    H2  490   2.718   3.764   1.639 -0.0390 -1.4745 -1.7313
  176TIP3   OH2  491   6.778   6.528   0.834  0.1953  0.0396  0.6440
  176TIP3    H1  492   6.868   6.548   0.862  0.5690  0.9381 -1.0671
  176TIP3    H2  493   6.724   6.595   0.876  0.4054 -0.0847  1.1239
  177TIP3   OH2  494   3.143   5.811   1.496 -0.3408 -0.2927  0.1144
  177TIP3    H1  495   3.061   5.795   1.542 -1.5857  1.2415 -1.3990
  177TIP3    H2  496   3.130   5.896   1.454  2.2631  0.2613  0.2704
  178TIP3   OH2  497   4.099   4.049   2.014  0.3320  0.3795  0.2395
  178TIP3    H1  498   4.019   4.064   1.964 -0.5571  0.3828  1.5998
  178TIP3    H2  499   4.167   4.094   1.965 -0.5783  0.7576 -0.7137
  179TIP3   OH2  500   3.987   0.284   4.523 -0.3921 -0.3135 -0.3679
  179TIP3    H1  501   4.046   0.358   4.532  0.4175 -0.9767 -0.0362
  179TIP3    H2  502   3.904   0.322   4.494 -0.0270  0.7226 -0.0891
  180TIP3   OH2  503   6.786   6.144   1.050 -0.0182  0.7128 -0.2926
  180TIP3    H1  504   6.859   6.095   1.088 -0.0173  0.7439 -0.2529
  180TIP3    H2  505   6.716   6.080   1.039  0.1503  0.5986 -0.7016
  181TIP3   OH2  506   2.343   4.506   4.463 -0.4771  0.5330 -0.1054
  181TIP3    H1  507   2.408   4.562   4.505 -0.4199  1.8642 -1.8435
  181TIP3    H2  508   2.259   4.543   4.491 -0.4683  0.1294  0.4632
  182TIP3   OH2  509   6.619   5.470   1.905 -0.2234 -0.1010 -0.2711
  182TIP3    H1  510   6.590   5.518   1.828  2.2494  0.6325 -0.8520
  182TIP3    H2  511   6.573   5.511   1.978 -1.2218  0.4275 -1.1691
  183TIP3   OH2  512   1.587   6.196   0.865  0.7076 -0.6472  0.6118
  183TIP3    H1  513   1.568   6.254   0.938  2.5579 -0.1500  0.7471
  183TIP3    H2  514   1.574   6.250   0.787 -1.7485 -1.3119  0.4613
  184TIP3   OH2  515   3.646   3.061   0.070  0.4785 -0.0805  0.0199
  184TIP3    H1  516   3.646   2.986   0.011  0.1333  0.9891 -1.4024
  184TIP3    H2  517   3.610   3.027   0.152 -2.7416 -0.8115 -1.5264
  185TIP3   OH2  518   1.067   1.672   2.163 -0.6208 -0.5404 -0.1648
  185TIP3    H1  519   1.021   1.623   2.231  2.3335 -0.5293  2.0680
  185TIP3    H2  520   1.085   1.757   2.203 -0.2163  0.0687 -1.5786
  186TIP3   OH2  521   6.629   4.936   1.519 -0.5377 -0.7292 -0.1368
  186TIP3    H1  522   6.643   4.950   1.425  1.8429  0.0270  0.2605
  186TIP3    H2  523   6.697   4.987   1.562  0.1302 -3.1068  1.9191
  187TIP3   OH2  524   0.234   5.147   5.752 -0.6969  0.2223  0.4265
  187TIP3    H1  525   0.216   5.178   5.663  0.6865 -0.2945 -0.0630
  187TIP3    H2  526   0.153   5.103   5.779 -1.2084  0.5749 -0.4853
  188TIP3   OH2  527   6.703   3.609   1.636 -0.1907 -0.2752  0.0634
  188TIP3    H1  528   6.702   3.704   1.632  2.2919  0.0505  3.2761
  188TIP3    H2  529   6.745   3.581   1.555 -0.7244  1.3438 -0.8093
  189TIP3   OH2  530   6.647   4.627   4.082 -0.0224  0.1876 -0.0940
  189TIP3    H1  531   6.556   4.657   4.084  0.3444  1.3395  0.0201
  189TIP3    H2  532   6.693   4.692   4.029  0.7826 -0.2451  0.0608
  190TIP3   OH2  533   2.537   0.719   5.560 -0.3314  0.5329 -0.0015
  190TIP3    H1  534   2.555   0.626   5.569  0.5903  0.7914  1.0346
  190TIP3    H2  535   2.617   0.762   5.591 -0.0456  1.6615 -2.1135
  191TIP3   OH2  536   0.916   4.143   4.635  0.3467 -0.6717  0.1234
  191TIP3    H1  537   0.941   4.223   4.591 -0.1412  0.3664  1.6522
  191TIP3    H2  538   0.893   4.082   4.565 -1.0872  1.1205 -1.0170
  192TIP3   OH2  539   3.128   2.431   5.673  0.1134  0.0923 -0.0322
  192TIP3    H1  540   3.200   2.492   5.657  0.6769 -0.3879  0.6424
  192TIP3    H2  541   3.118   2.384   5.590  2.3548 -1.6779  0.6106
  193TIP3   OH2  542   0.185   4.435   4.342 -0.0664 -0.2373  0.7147
  193TIP3    H1  543   0.198   4.497   4.270 -0.3466  0.6174  1.3819
  193TIP3    H2  544   0.158   4.354   4.299  1.7625 -0.3685 -0.2930
  194TIP3   OH2  545   2.494   5.388   2.775 -0.5751  0.0188  0.4774
  194TIP3    H1  546   2.432   5.323   2.741 -1.8984  1.1095  0.7158
  194TIP3    H2  547   2.517   5.441   2.698 -0.3455 -0.0507  0.4962
  195TIP3   OH2  548   0.848   6.444   2.992  0.5454 -0.3112  0.0924
  195TIP3    H1  549   0.850   6.536   2.966  0.7892 -0.2157  0.4438
  195TIP3    H2  550   0.770   6.409   2.949  0.5095  0.0335 -0.1278
  196TIP3   OH2  551   6.274   5.075   0.339  0.1749  0.2823 -0.3384
  196TIP3    H1  552   6.223   5.146   0.300 -0.4510 -0.8573 -1.6838
  196TIP3    H2  553   6.312   5.114   0.418 -2.4238  1.2956  0.5270
  197TIP3   OH2  554   2.053   3.372   5.753 -0.4007  0.6739 -0.0093
  197TIP3    H1  555   2.087   3.403   5.837  0.1409 -1.3584  0.5903
  197TIP3    H2  556   1.965   3.410   5.747 -0.2513  1.2678  1.2280
  198TIP3   OH2  557   6.446   0.244   3.329  0.3114 -0.8847  0.3623
  198TIP3    H1  558   6.413   0.313   3.271  1.8031  0.1914  0.7315
  198TIP3    H2  559   6.367   0.202   3.364 -0.6509  0.8834  0.4149
  199TIP3   OH2  560   6.363   4.827   5.382 -0.1060  0.2833  0.3900
  199TIP3    H1  561   6.377   4.900   5.322 -2.0882 -0.3815 -1.0038
  199TIP3    H2  562   6.287   4.854   5.434 -0.4708 -0.5123  0.2784
  200TIP3   OH2  563   7.054   0.245   4.818 -0.3591 -0.2753 -0.9176
  200TIP3    H1  564   6.971   0.291   4.801 -0.5759 -0.1771  0.2986
  200TIP3    H2  565   7.101   0.303   4.878  0.2886 -0.6654 -1.0379
  201TIP3   OH2  566   5.948   3.611   4.087  0.5566  0.0067  0.1433
  201TIP3    H1  567   5.954   3.687   4.028 -1.2443  0.9493  1.1117
  201TIP3    H2  568   5.871   3.627   4.140  1.2935 -1.5419  1.7980
  202TIP3   OH2  569   2.185   6.739   1.848 -0.3552  0.1871 -0.2145
  202TIP3    H1  570   2.220   6.678   1.784 -1.0664 -0.9061  0.3981
  202TIP3    H2  571   2.125   6.686   1.901 -0.3188  1.2116  0.9015
  203TIP3   OH2  572   1.894   4.599   0.730  0.2507  0.1546  0.4067
  203TIP3    H1  573   1.890   4.655   0.807  1.1987 -1.3439  1.6205
  203TIP3    H2  574   1.827   4.532   0.745 -0.7496  0.8030 -0.9311
  204TIP3   OH2  575   0.107   6.250   4.304 -0.1048  0.2452 -0.4383
  204TIP3    H1  576   0.063   6.262   4.219 -0.2985 -0.7776 -0.4930
  204TIP3    H2  577   0.136   6.159   4.303  1.1972  0.6341 -0.0003
  205TIP3   OH2  578   4.233   3.466   5.521  0.4538 -0.0846 -0.4488
  205TIP3    H1  579   4.187   3.493   5.441  1.3405  0.6040 -0.7471
  205TIP3    H2  580   4.293   3.539   5.539 -1.0911  0.7077  1.9723
  206TIP3   OH2  581   0.373   3.488   2.504 -0.1067  0.1347 -0.1021
  206TIP3    H1  582   0.392   3.543   2.428 -1.3234  2.0932  0.9106
  206TIP3    H2  583   0.452   3.493   2.557 -0.0923  0.7339 -0.1631
  207TIP3   OH2  584   3.472   0.591   5.605 -0.0306 -0.2129  0.1601
  207TIP3    H1  585   3.377   0.599   5.607  0.0251  0.8507 -0.7038
  207TIP3    H2  586   3.492   0.550   5.521  0.2684 -0.5477  0.3899
  208TIP3   OH2  587   4.018   5.491   0.951 -0.1024 -0.2059 -0.0959
  208TIP3    H1  588   4.070   5.540   0.888 -0.1903  1.3234  0.9842
  208TIP3    H2  589   4.068   5.493   1.032  0.0875 -2.2982 -0.1024
  209TIP3   OH2  590   2.463   2.575   0.281  0.1739  0.2833  0.2889
  209TIP3    H1  591   2.374   2.540   0.274 -0.0226  0.4460  1.6422
  209TIP3    H2  592   2.455   2.666   0.254  0.3198 -0.1649 -1.4018
  210TIP3   OH2  593   3.097   1.767   2.241  0.3926 -0.2997 -0.1717
  210TIP3    H1  594   3.185   1.737   2.264  0.5155 -0.7138 -1.1320
  210TIP3    H2  595   3.039   1.704   2.284  0.4888  0.7220  1.5635
  211TIP3   OH2  596   0.915   3.100   5.721 -0.1357 -0.1599  0.6210
  211TIP3    H1  597   0.821   3.087   5.730 -0.7060  3.0008  0.5219
  211TIP3    H2  598   0.930   3.189   5.753  2.7895 -0.4310  0.3149
  212TIP3   OH2  599   3.869   3.157   0.690 -0.2039  0.3682 -0.4635
  212TIP3    H1  600   3.944   3.142   0.632 -0.7347  0.9494 -1.3344
  212TIP3    H2  601   3.842   3.247   0.671 -1.6103 -0.0908 -0.7561
  213TIP3   OH2  602   3.190   0.093   1.589 -0.4070 -0.1893  0.5621
  213TIP3    H1  603   3.175   0.002   1.616  1.9310 -0.2279  2.0236
  213TIP3    H2  604   3.178   0.144   1.669  0.5296  0.4735  0.2984
  214TIP3   OH2  605   2.355   3.414   2.645  0.0634 -0.8336  0.5704
  214TIP3    H1  606   2.336   3.391   2.736 -1.0775 -0.0812  0.5498
  214TIP3    H2  607   2.300   3.490   2.628  0.8218 -0.5028 -0.5318
  215TIP3   OH2  608   3.363   1.900   1.255 -0.1398 -0.0341 -0.3188
  215TIP3    H1  609   3.274   1.866   1.268 -0.0461  0.0389  0.5637
  215TIP3    H2  610   3.368   1.919   1.161 -1.4726  1.1029 -0.1955
  216TIP3   OH2  611   2.513   6.157   5.432 -0.1577  0.4164  0.0611
  216TIP3    H1  612   2.493   6.088   5.368  2.1230 -0.4291  0.1444
  216TIP3    H2  613   2.431   6.205   5.442 -1.0819 -0.5565 -2.1089
  217TIP3   OH2  614   3.267   3.594   1.120 -0.2081 -0.3681  0.0289
  217TIP3    H1  615   3.222   3.678   1.133  0.4283  0.3903 -2.1600
  217TIP3    H2  616   3.216   3.550   1.052 -0.4491 -1.7309  1.0475
  218TIP3   OH2  617   1.617   0.848   4.285  0.3682 -0.0854 -0.3188
  218TIP3    H1  618   1.668   0.836   4.205 -1.4263 -1.4787 -1.3221
  218TIP3    H2  619   1.560   0.771   4.290 -1.1210  1.0219  1.1152
  219TIP3   OH2  620   2.718   1.437   0.671 -0.5496 -0.6609 -0.2464
  219TIP3    H1  621   2.623   1.439   0.683 -0.5706  1.0332 -0.4070
  219TIP3    H2  622   2.744   1.350   0.699 -2.2019 -1.3081 -0.5886
  220TIP3   OH2  623   1.903   3.203   5.304 -0.3368  0.7142  0.4944
  220TIP3    H1  624   1.946   3.188   5.388 -0.2965 -0.1657  0.3206
  220TIP3    H2  625   1.811   3.182   5.319 -0.0182 -1.2920 -0.1456
  221TIP3   OH2  626   5.025   5.113   2.558  0.3017  0.7222  0.3620
  221TIP3    H1  627   5.120   5.107   2.560  0.2953  0.7837  0.9519
  221TIP3    H2  628   4.995   5.024   2.579  0.2241  0.4184 -0.9552
  222TIP3   OH2  629   1.299   1.147   0.242  0.3049  0.2697 -0.1992
  222TIP3    H1  630   1.318   1.154   0.148  1.3384 -0.4199 -0.0617
  222TIP3    H2  631   1.213   1.106   0.246  1.1446 -1.7046 -0.8709
  223TIP3   OH2  632   2.301   6.456   1.884  0.0662  0.1240 -0.3487
  223TIP3    H1  633   2.230   6.423   1.938 -0.5801  0.1573 -1.1712
  223TIP3    H2  634   2.338   6.378   1.842  1.4238 -0.0703  1.1226
  224TIP3   OH2  635   2.273   1.943   2.167  0.2264 -0.7750  0.0053
  224TIP3    H1  636   2.272   1.869   2.107  0.9932 -1.2545  0.5795
  224TIP3    H2  637   2.260   2.020   2.111  1.6146 -1.1504 -0.8665
  225TIP3   OH2  638   6.491   2.948   1.370 -0.1851  1.0178  0.4715
  225TIP3    H1  639   6.584   2.970   1.363  0.9405 -2.7132  1.4583
  225TIP3    H2  640   6.452   2.979   1.288  1.7647  3.0598  0.2280
  226TIP3   OH2  641   4.056   6.174   2.086  0.3079 -0.1159 -0.6827
  226TIP3    H1  642   4.048   6.263   2.053 -2.7855 -0.0564 -0.1165
  226TIP3    H2  643   4.012   6.120   2.019  1.1308 -1.0884 -0.4678
  227TIP3   OH2  644   3.640   4.888   4.244 -0.0598 -0.1066 -0.0566
  227TIP3    H1  645   3.699   4.906   4.172  0.5490 -0.9749  0.2149
  227TIP3    H2  646   3.653   4.796   4.265 -0.4673  0.0376  0.9463
  228TIP3   OH2  647   0.934   1.302   1.233  0.3913 -0.0365  0.8253
  228TIP3    H1  648   0.994   1.364   1.276  2.1629  0.8419 -2.5667
  228TIP3    H2  649   0.862   1.291   1.296  1.5571  2.9759  2.9340
  229TIP3   OH2  650   1.723   5.446   0.924  0.1643 -0.1055 -0.7874
  229TIP3    H1  651   1.804   5.498   0.917 -0.4513  1.0827  0.3932
  229TIP3    H2  652   1.747   5.360   0.891  1.5678  0.5845 -1.6804
  230TIP3   OH2  653   2.528   5.479   0.844 -0.1615  0.6778 -0.1270
  230TIP3    H1  654   2.499   5.512   0.759 -2.6118 -0.8892 -0.0083
  230TIP3    H2  655   2.457   5.501   0.904  0.1337 -0.8652  0.8552
  231TIP3   OH2  656   2.092   6.459   2.560 -0.2311  0.1398 -0.1500
  231TIP3    H1  657   2.138   6.523   2.614  0.6291 -0.8001  0.2630
  231TIP3    H2  658   2.032   6.414   2.620 -1.3122  0.9792 -0.5718
  232TIP3   OH2  659   2.081   1.723   1.287  0.2207 -0.0385  0.2159
  232TIP3    H1  660   2.074   1.758   1.375 -0.5767  1.7243 -0.4886
  232TIP3    H2  661   2.140   1.784   1.241  1.3765 -1.4431 -0.2507
  233TIP3   OH2  662   3.521   6.316   4.167 -0.5429  0.4124  0.6467
  233TIP3    H1  663   3.502   6.399   4.210 -1.0334  1.2151 -1.0168
  233TIP3    H2  664   3.500   6.332   4.075 -2.4363 -2.1054  0.5562
  234TIP3   OH2  665   1.765   2.323   1.142  0.4835 -0.2010  0.3445
  234TIP3    H1  666   1.732   2.413   1.141  2.4461  0.5680 -1.1345
  234TIP3    H2  667   1.755   2.295   1.233 -1.2416  1.0557  0.6031
  235TIP3   OH2  668   2.386   0.790   2.532  0.3196 -0.4462  0.1245
  235TIP3    H1  669   2.324   0.846   2.578  0.4424  2.7467 -3.1634
  235TIP3    H2  670   2.331   0.731   2.479  0.1623 -0.6521  0.5124
  236TIP3   OH2  671   3.048   2.445   2.896  0.4354  0.0720 -0.4004
  236TIP3    H1  672   3.002   2.526   2.876 -0.3368 -0.1182  0.5062
  236TIP3    H2  673   3.133   2.454   2.854 -0.2938  0.5836 -1.8125
  237TIP3   OH2  674   4.951   0.654   0.151 -0.0050  0.0119 -0.2308
  237TIP3    H1  675   4.938   0.603   0.071 -0.8498  2.8215 -2.0124
  237TIP3    H2  676   4.892   0.614   0.214 -1.3756 -0.6248 -1.8424
  238TIP3   OH2  677   1.893   0.162   5.512 -0.7992 -0.0647  0.1769
  238TIP3    H1  678   1.946   0.217   5.454 -2.0933 -0.0330 -1.0378
  238TIP3    H2  679   1.860   0.221   5.579  1.0695 -0.1819  1.2611
  239TIP3   OH2  680   0.539   1.942   0.330  0.1867  0.2109  0.0836
  239TIP3    H1  681   0.503   1.862   0.368 -0.2181  0.5584  0.4425
  239TIP3    H2  682   0.577   1.914   0.247  0.9287 -0.5244  0.6604
  240TIP3   OH2  683   2.338   3.820   5.772 -0.9376 -0.3494  0.2911
  240TIP3    H1  684   2.302   3.743   5.817 -0.0156 -0.3428  1.0704
  240TIP3    H2  685   2.316   3.893   5.829  0.7948 -0.4144  1.1054
  241TIP3   OH2  686   0.836   3.543   0.522  0.3191  0.6409 -0.2952
  241TIP3    H1  687   0.877   3.580   0.444  1.4568 -0.6151 -0.3387
  241TIP3    H2  688   0.863   3.601   0.593  0.9205  0.7009 -0.5611
  242TIP3   OH2  689   2.831   6.329   2.445  0.4418 -0.0034  0.0110
  242TIP3    H1  690   2.906   6.286   2.404 -0.5437  0.7975 -2.8805
  242TIP3    H2  691   2.764   6.261   2.449  0.0916  0.2514 -1.1007
  243TIP3   OH2  692   3.227   6.003   5.133  0.6685 -0.0151  0.2760
  243TIP3    H1  693   3.307   5.951   5.141  0.3356 -0.3247  1.8964
  243TIP3    H2  694   3.205   6.028   5.223 -1.2272 -0.1879 -0.1006
  244TIP3   OH2  695   5.336   1.444   2.274  0.3100  0.0884 -0.4201
  244TIP3    H1  696   5.347   1.518   2.214  1.7446  0.8042  0.6511
  244TIP3    H2  697   5.424   1.405   2.280 -0.0066 -0.5119  0.5287
  245TIP3   OH2  698   6.321   1.276   1.028  0.6745  0.0318  0.1809
  245TIP3    H1  699   6.234   1.246   1.002  0.6879  0.5690 -0.5425
  245TIP3    H2  700   6.340   1.230   1.109 -0.4596  0.2177  0.5664
  246TIP3   OH2  701   1.190   0.304   1.830 -0.0345  0.1102  0.6911
  246TIP3    H1  702   1.207   0.255   1.750  0.2560  0.8870  0.2718
  246TIP3    H2  703   1.097   0.287   1.849 -0.5457  1.2038 -0.7041
  247TIP3   OH2  704   0.622   3.236   4.494  0.0492  0.7479 -0.3160
  247TIP3    H1  705   0.605   3.259   4.586  0.3992  2.4342 -0.6279
  247TIP3    H2  706   0.538   3.202   4.462  0.0719 -0.3814  0.7528
  248TIP3   OH2  707   4.227   4.964   4.940  0.5920 -0.3571 -0.4459
  248TIP3    H1  708   4.139   4.927   4.949  0.7032 -0.3435  1.0560
  248TIP3    H2  709   4.274   4.901   4.885  0.3756 -1.7559  0.8910
  249TIP3   OH2  710   5.612   2.928   3.386  0.2991 -0.2584  1.0207
  249TIP3    H1  711   5.701   2.908   3.358 -0.3991 -0.7272 -0.9958
  249TIP3    H2  712   5.577   2.845   3.418  0.1719 -0.3592  0.6204
  250TIP3   OH2  713   3.473   6.031   1.058 -0.1426 -0.1257 -0.6448
  250TIP3    H1  714   3.568   6.015   1.064  0.0132  1.0673  0.2911
  250TIP3    H2  715   3.461   6.064   0.969  0.2699 -0.5588 -0.8688
  251TIP3   OH2  716   5.091   3.043   5.372 -0.1736  0.1317 -0.3512
  251TIP3    H1  717   5.037   3.086   5.438  1.0817 -0.4373  1.1223
  251TIP3    H2  718   5.029   2.993   5.319 -1.1805  0.1447  0.7672
  252TIP3   OH2  719   1.350   6.082   3.974 -0.5821  0.0623 -0.0059
  252TIP3    H1  720   1.399   6.110   3.898 -0.1534 -0.5996  0.0210
  252TIP3    H2  721   1.282   6.149   3.985 -0.6608  0.1540 -0.9681
  253TIP3   OH2  722   4.005   2.321   1.062 -0.5575 -0.6732  0.3390
  253TIP3    H1  723   4.029   2.405   1.024 -1.8829 -0.5796 -0.3769
  253TIP3    H2  724   4.074   2.261   1.034 -0.4004 -0.1419 -0.4669
  254TIP3   OH2  725   6.663   4.802   4.300 -0.2695 -0.3921  0.4502
  254TIP3    H1  726   6.668   4.728   4.238 -0.0270 -0.5610  0.6699
  254TIP3    H2  727   6.621   4.765   4.378 -1.7130  0.1230 -0.0515
  255TIP3   OH2  728   0.496   5.778   4.790 -0.1427  0.1415 -0.0371
  255TIP3    H1  729   0.413   5.799   4.747 -0.6895  1.5043  1.5804
  255TIP3    H2  730   0.563   5.797   4.725 -1.0743 -0.9556 -1.3691
  256TIP3   OH2  731   4.806   5.625   1.418  0.9226 -0.1584 -0.5199
  256TIP3    H1  732   4.788   5.609   1.325  2.5898 -1.3883 -0.6737
  256TIP3    H2  733   4.852   5.547   1.447 -1.5483 -0.8325  1.9790
  257TIP3   OH2  734   5.439   5.585   3.666 -0.0447  0.0094  0.2325
  257TIP3    H1  735   5.489   5.573   3.585 -0.5042  1.6155 -0.3283
  257TIP3    H2  736   5.352   5.549   3.646  0.0572 -0.2510  0.2578
  258TIP3   OH2  737   3.619   3.221   3.064 -0.2410 -0.3471 -0.2752
  258TIP3    H1  738   3.528   3.192   3.070 -0.4369 -0.4145 -2.5952
  258TIP3    H2  739   3.665   3.148   3.023  0.2907  0.6419 -1.5294
  259TIP3   OH2  740   6.353   4.010   2.351 -0.0108 -0.1092 -0.3710
  259TIP3    H1  741   6.297   4.061   2.409 -0.3636  0.1540 -0.9338
  259TIP3    H2  742   6.403   4.076   2.302  1.4430 -0.3442  0.7393
  260TIP3   OH2  743   7.089   6.601   0.857  0.2097  0.4011  0.3762
  260TIP3    H1  744   7.114   6.575   0.946  1.7323 -1.8672 -0.6143
  260TIP3    H2  745   7.165   6.576   0.803  0.5590  4.3359 -1.2366
  261TIP3   OH2  746   6.509   0.614   1.130 -0.1280  0.1760 -0.3332
  261TIP3    H1  747   6.546   0.543   1.181  1.0247 -1.1660 -2.8386
  261TIP3    H2  748   6.497   0.577   1.042  0.4399  3.0079 -1.7391
  262TIP3   OH2  749   3.859   2.807   0.775 -0.0352 -0.5876 -0.5564
  262TIP3    H1  750   3.795   2.741   0.748 -3.5914  1.1012  2.8292
  262TIP3    H2  751   3.888   2.778   0.862 -1.6783  2.0409  1.0147
  263TIP3   OH2  752   7.016   5.235   5.869 -0.2932  0.5073  0.1588
  263TIP3    H1  753   7.035   5.312   5.815  0.8737  1.0904  1.3451
  263TIP3    H2  754   7.008   5.269   5.958 -3.4095 -0.2604  0.2836
  264TIP3   OH2  755   1.610   4.141   1.846 -0.0120 -0.3568  0.6895
  264TIP3    H1  756   1.660   4.125   1.766 -0.4825  0.9628  0.0957
  264TIP3    H2  757   1.529   4.091   1.834 -0.3601  0.3383  0.0237
  265TIP3   OH2  758   2.059   4.707   0.310  0.4511  0.6163  0.3098
  265TIP3    H1  759   2.090   4.783   0.261  0.8423  0.3828  0.1889
  265TIP3    H2  760   2.104   4.713   0.394 -0.2329  1.0269  0.6539
  266TIP3   OH2  761   3.676   2.384   5.103 -0.3032 -0.2953  0.0450
  266TIP3    H1  762   3.662   2.352   5.193  0.4780 -1.0028 -0.0674
  266TIP3    H2  763   3.761   2.347   5.078 -0.3838  0.1324 -0.8882
  267TIP3   OH2  764   2.415   4.802   2.020 -0.0905 -0.7441  0.5546
  267TIP3    H1  765   2.349   4.870   2.033  2.1635  1.4476  1.3103
  267TIP3    H2  766   2.471   4.835   1.951  0.9897 -1.9212  0.8208
  268TIP3   OH2  767   5.403   1.962   1.302  0.4194  0.1320 -0.4284
  268TIP3    H1  768   5.458   1.890   1.335  0.6268  0.3697 -0.2495
  268TIP3    H2  769   5.314   1.935   1.323  0.4383 -0.4106 -1.0098
  269TIP3   OH2  770   4.256   4.149   4.868 -0.2364 -0.1196 -0.1782
  269TIP3    H1  771   4.270   4.186   4.956 -1.8929  0.1335  0.0013
  269TIP3    H2  772   4.329   4.087   4.857  1.0295  1.1457  0.6241
  270TIP3   OH2  773   2.737   3.897   4.743 -0.0021  0.1693  0.8434
  270TIP3    H1  774   2.750   3.883   4.837  0.7856 -1.1978  0.5581
  270TIP3    H2  775   2.786   3.826   4.701 -3.1112 -1.3296 -0.5415
  271TIP3   OH2  776   1.468   5.036   5.573  0.0586  0.3399  0.1190
  271TIP3    H1  777   1.389   4.981   5.565 -0.7720  1.3784  0.8413
  271TIP3    H2  778   1.461   5.097   5.500  0.3256  0.2805  0.0447
  272TIP3   OH2  779   0.207   3.642   5.335 -0.4720 -0.0064 -0.0859
  272TIP3    H1  780   0.114   3.623   5.341 -0.7580  1.5726  1.1867
  272TIP3    H2  781   0.250   3.556   5.340 -1.7950 -0.6296  1.1085
  273TIP3   OH2  782   7.045   6.709   3.418  0.2274 -0.0670  0.0656
  273TIP3    H1  783   7.091   6.660   3.350  0.2112 -0.4623  0.3374
  273TIP3    H2  784   7.103   6.705   3.494  0.0012 -0.0826  0.2375
  274TIP3   OH2  785   6.601   5.142   3.938 -0.6087  0.2618 -0.0729
  274TIP3    H1  786   6.677   5.200   3.929 -1.2197  1.2313  0.9026
  274TIP3    H2  787   6.529   5.199   3.965 -1.3878 -0.8437  0.2752
  275TIP3   OH2  788   5.054   3.739   4.002 -0.1036  0.4485  0.9003
  275TIP3    H1  789   5.110   3.784   4.064  0.0073  0.4613  0.7917
  275TIP3    H2  790   4.974   3.720   4.051  0.1839 -0.0135  1.2020
  276TIP3   OH2  791   0.516   0.755   5.312 -0.3666 -0.4697 -0.3438
  276TIP3    H1  792   0.570   0.677   5.300 -0.6241 -0.5671 -0.8880
  276TIP3    H2  793   0.554   0.820   5.253  0.9710  0.4263  1.3914
  277TIP3   OH2  794   5.410   4.319   5.101 -0.6401 -0.1758  0.5532
  277TIP3    H1  795   5.406   4.249   5.035 -0.2292 -0.5923  0.9625
  277TIP3    H2  796   5.474   4.381   5.066 -0.6130 -0.2683  0.4372
  278TIP3   OH2  797   3.644   5.566   5.058 -0.1531 -0.2259  0.5367
  278TIP3    H1  798   3.644   5.635   5.125 -1.4044  0.2095  0.1151
  278TIP3    H2  799   3.736   5.543   5.048  0.2575  1.1283  0.9474
  279TIP3   OH2  800   0.592   4.923   3.715 -0.4656 -0.1776 -0.0145
  279TIP3    H1  801   0.588   4.984   3.641  0.8625  1.4593  1.1784
  279TIP3    H2  802   0.672   4.873   3.700  0.2980  0.7810  0.7241
  280TIP3   OH2  803   0.844   6.535   5.612  0.1781 -0.6692  0.3091
  280TIP3    H1  804   0.784   6.602   5.579  0.1457 -0.8469  0.0135
  280TIP3    H2  805   0.903   6.583   5.670 -1.2740 -0.7338  1.9468
  281TIP3   OH2  806   6.891   4.516   0.579  0.2029  0.6592 -0.6379
  281TIP3    H1  807   6.951   4.586   0.604 -0.0315  0.8891 -0.7269
  281TIP3    H2  808   6.804   4.555   0.581  0.0481  0.3160 -0.4836
  282TIP3   OH2  809   5.162   4.484   1.103  0.0643  0.3065 -0.1041
  282TIP3    H1  810   5.131   4.536   1.177 -0.4599 -0.1332 -0.0101
  282TIP3    H2  811   5.224   4.542   1.058 -0.3678  0.9440  0.1043
  283TIP3   OH2  812   0.630   2.445   1.069  0.0081 -0.4113 -0.2816
  283TIP3    H1  813   0.690   2.381   1.106 -0.0650 -0.7861 -0.8010
  283TIP3    H2  814   0.543   2.417   1.100  0.1303  0.4103  0.8731
  284TIP3   OH2  815   6.311   4.312   4.660  0.0573 -0.5717 -0.1315
  284TIP3    H1  816   6.398   4.276   4.678  0.5845  0.2373 -0.9701
  284TIP3    H2  817   6.285   4.353   4.742  0.8403 -0.0762 -0.1233
  285TIP3   OH2  818   5.916   6.535   1.141 -0.0712 -0.2948 -0.3989
  285TIP3    H1  819   5.913   6.466   1.207 -0.0093 -1.2081 -1.3243
  285TIP3    H2  820   5.843   6.593   1.164 -0.4805 -0.9775  0.0498
  286TIP3   OH2  821   3.365   0.151   0.681  0.1985  0.4961  0.3674
  286TIP3    H1  822   3.406   0.235   0.659 -0.1952  0.8750  1.0510
  286TIP3    H2  823   3.397   0.131   0.769 -0.2890  0.3089  0.5077
  287TIP3   OH2  824   3.893   0.375   1.629  0.1020  0.0581 -0.1676
  287TIP3    H1  825   3.829   0.310   1.600  0.0163 -0.1031  0.3707
  287TIP3    H2  826   3.844   0.457   1.634 -0.1334 -0.1129  0.4824
  288TIP3   OH2  827   5.305   5.272   0.880 -0.5810  0.2233 -0.2768
  288TIP3    H1  828   5.268   5.203   0.936 -2.6591  0.9491 -0.6662
  288TIP3    H2  829   5.237   5.340   0.878 -0.0827  0.7354 -2.7281
  289TIP3   OH2  830   3.602   0.060   1.261 -1.0222  0.3981 -0.6268
  289TIP3    H1  831   3.562  -0.022   1.234  1.2349 -1.3792  0.9912
  289TIP3    H2  832   3.604   0.055   1.357  2.6473  0.4417 -0.5625
  290TIP3   OH2  833   5.298   2.572   0.238 -0.5900  0.8206  0.3116
  290TIP3    H1  834   5.342   2.590   0.155 -0.7262 -1.3570 -0.2834
  290TIP3    H2  835   5.370   2.557   0.300 -0.4776 -0.2624 -0.0709
  291TIP3   OH2  836   6.151   2.882   3.191 -0.3153 -0.1817  0.0205
  291TIP3    H1  837   6.198   2.841   3.119  2.5416  2.9994 -0.1654
  291TIP3    H2  838   6.069   2.913   3.152  0.8314  0.7984 -1.7058
  292TIP3   OH2  839   1.368   3.682   4.168  0.2877  0.4760  0.2031
  292TIP3    H1  840   1.379   3.763   4.217  2.0678  0.5611 -0.2772
  292TIP3    H2  841   1.428   3.620   4.210  1.0914  0.2639 -1.2016
  293TIP3   OH2  842   5.288   2.842   1.045  0.7053 -0.5703 -0.3765
  293TIP3    H1  843   5.311   2.903   0.974 -2.4238  2.1262  0.6588
  293TIP3    H2  844   5.249   2.767   1.001  1.9275 -0.5391 -1.5921
  294TIP3   OH2  845   2.746   0.551   1.976  0.5078  0.4080 -0.5060
  294TIP3    H1  846   2.690   0.628   1.964  1.8798  1.6359  0.6640
  294TIP3    H2  847   2.748   0.510   1.889 -0.6472  1.3934 -1.0399
  295TIP3   OH2  848   0.555   2.412   5.251  1.0882 -0.0428 -0.0976
  295TIP3    H1  849   0.491   2.343   5.230 -0.8707  1.4960  0.5245
  295TIP3    H2  850   0.605   2.376   5.324 -0.1238 -0.7032  0.4454
  296TIP3   OH2  851   5.799   0.413   4.617  0.6442  0.7601  0.1407
  296TIP3    H1  852   5.776   0.322   4.635 -0.0760  1.0486  0.7568
  296TIP3    H2  853   5.720   0.462   4.640  1.3414  1.6371  0.7511
  297TIP3   OH2  854   0.135   4.669   4.180  0.1517 -0.0140  0.0766
  297TIP3    H1  855   0.100   4.678   4.091 -2.3565 -1.2613  0.8217
  297TIP3    H2  856   0.096   4.742   4.228 -0.8704 -0.9446  0.7304
  298TIP3   OH2  857   4.467   3.399   0.771  0.0333  0.2615  0.2242
  298TIP3    H1  858   4.442   3.490   0.759 -1.0144 -0.1571 -1.0455
  298TIP3    H2  859   4.464   3.362   0.683 -2.1869 -1.6183  0.9700
  299TIP3   OH2  860   5.688   2.612   3.755  0.4392  0.3328 -0.1308
  299TIP3    H1  861   5.783   2.615   3.766  0.5054 -1.5676  0.2050
  299TIP3    H2  862   5.659   2.542   3.814 -0.8711 -0.6880 -1.8821
  300TIP3   OH2  863   3.492   2.831   0.177 -0.1323  0.0990  0.2800
  300TIP3    H1  864   3.443   2.882   0.241 -1.2686 -1.1891  0.4725
  300TIP3    H2  865   3.428   2.811   0.108 -0.2280 -2.4049  0.9751
  301TIP3   OH2  866   5.809   2.229   5.832 -0.0247  0.4151 -0.5644
  301TIP3    H1  867   5.865   2.182   5.893 -0.9302  0.6376  0.4784
  301TIP3    H2  868   5.775   2.161   5.774  1.1741  0.2594 -1.0984
  302TIP3   OH2  869   1.470   6.257   1.902 -0.0528 -0.3745 -0.6785
  302TIP3    H1  870   1.398   6.282   1.845  0.6025  0.4222 -1.1821
  302TIP3    H2  871   1.469   6.162   1.902 -0.8195 -0.3737 -1.0268
  303TIP3   OH2  872   0.059   1.009   3.181  0.2494 -0.4507 -0.2039
  303TIP3    H1  873   0.065   1.095   3.141  0.2673  0.3673  1.4589
  303TIP3    H2  874  -0.035   0.998   3.200  0.4181 -0.1984  0.8070
  304TIP3   OH2  875   4.860   1.784   5.838 -0.0305  0.1421  0.5959
  304TIP3    H1  876   4.866   1.726   5.762 -1.2975  0.7843 -0.0278
  304TIP3    H2  877   4.859   1.872   5.802 -2.4402  0.4237  1.1519
  305TIP3   OH2  878   0.960   6.635   2.133 -0.0152 -0.0533  0.1337
  305TIP3    H1  879   0.906   6.700   2.089  0.1080  0.4719  0.7530
  305TIP3    H2  880   1.038   6.683   2.161 -0.4021 -0.1968  1.5570
  306TIP3   OH2  881   1.821   6.305   3.964  0.0964 -0.0884  0.0749
  306TIP3    H1  882   1.753   6.251   4.003  0.2712  0.3342  0.9759
  306TIP3    H2  883   1.877   6.332   4.037  0.5355  0.5587 -0.4801
  307TIP3   OH2  884   4.880   5.239   0.009 -0.6171  0.0014 -0.4229
  307TIP3    H1  885   4.944   5.307   0.029 -0.8312 -0.1141  0.7579
  307TIP3    H2  886   4.848   5.211   0.095  0.3731 -2.4729 -0.7619
  308TIP3   OH2  887   4.485   4.258   0.854  0.5046 -0.1901  0.0936
  308TIP3    H1  888   4.478   4.310   0.934  0.5965  1.2425 -0.7970
  308TIP3    H2  889   4.571   4.216   0.860  1.2471  1.2431  0.0116
  309TIP3   OH2  890   1.801   2.186   4.814  0.0728  0.6855 -0.2248
  309TIP3    H1  891   1.810   2.090   4.818  0.9309  0.7088 -1.0025
  309TIP3    H2  892   1.871   2.219   4.870 -1.1238  0.8764  1.2170
  310TIP3   OH2  893   0.341   1.235   3.802  0.0648  0.1774  0.1183
  310TIP3    H1  894   0.369   1.325   3.820  1.4420  0.1675 -1.7515
  310TIP3    H2  895   0.302   1.239   3.715 -0.8618 -0.8728  0.4517
  311TIP3   OH2  896   2.616   1.550   4.863 -0.5378  0.2849 -0.0537
  311TIP3    H1  897   2.586   1.557   4.954 -0.2762  1.0213 -0.0226
  311TIP3    H2  898   2.593   1.460   4.838 -1.4598  0.3776  0.4288
  312TIP3   OH2  899   1.962   4.745   4.156 -0.0170  0.4355 -0.9497
  312TIP3    H1  900   1.975   4.679   4.089  1.9476 -0.5580  0.3053
  312TIP3    H2  901   2.000   4.825   4.120  0.6409  0.0150 -1.1919
  313TIP3   OH2  902   5.580   0.758   5.282 -0.1768  0.5791  1.1490
  313TIP3    H1  903   5.555   0.742   5.373 -0.4358 -0.0049  0.9783
  313TIP3    H2  904   5.503   0.800   5.243 -0.6397 -0.5485  0.8147
  314TIP3   OH2  905   5.769   1.510   2.071 -0.5190  0.5559 -0.2385
  314TIP3    H1  906   5.859   1.478   2.063 -0.5040  0.8702 -1.7694
  314TIP3    H2  907   5.743   1.488   2.160  0.1903 -1.8965 -0.5501
  315TIP3   OH2  908   7.206   5.210   5.180  0.6992 -0.1416 -0.2075
  315TIP3    H1  909   7.112   5.209   5.195  0.6472  1.5243 -0.2796
  315TIP3    H2  910   7.219   5.159   5.100 -0.0581 -0.9011  0.1430
  316TIP3   OH2  911   1.239   6.074   5.889 -0.1285 -0.3610 -0.0852
  316TIP3    H1  912   1.167   6.108   5.836  0.3977  0.7853 -0.0830
  316TIP3    H2  913   1.250   5.983   5.859  0.4119  0.3453 -2.2208
  317TIP3   OH2  914   5.249   3.474   2.960 -0.1677 -0.1217  0.0890
  317TIP3    H1  915   5.239   3.380   2.946  0.2482 -0.1174 -0.2724
  317TIP3    H2  916   5.285   3.482   3.048  1.0302 -0.3774 -0.3583
  318TIP3   OH2  917   2.481   4.508   0.913 -0.0759  0.2123 -0.3208
  318TIP3    H1  918   2.519   4.474   0.832 -0.4794  1.7825 -1.2187
  318TIP3    H2  919   2.387   4.499   0.902 -0.1027 -0.9146  0.6278
  319TIP3   OH2  920   5.515   5.775   5.488 -0.0734 -0.2165  0.1464
  319TIP3    H1  921   5.593   5.828   5.477  0.7217 -1.7531 -2.6025
  319TIP3    H2  922   5.466   5.818   5.558  2.0139  2.2200  0.2450
  320TIP3   OH2  923   1.843   3.669   4.387 -0.1750 -0.2229 -0.3531
  320TIP3    H1  924   1.862   3.581   4.420 -1.9782 -0.4788  0.0818
  320TIP3    H2  925   1.751   3.684   4.409 -0.0710  1.5380 -0.9674
  321TIP3   OH2  926   6.959   0.540   3.159 -0.1993  0.6706  0.1323
  321TIP3    H1  927   7.030   0.602   3.143 -1.3667  2.2864  0.9229
  321TIP3    H2  928   6.880   0.594   3.161 -1.3977 -0.9910 -0.1146
  322TIP3   OH2  929   2.693   1.668   0.991  0.5821  0.3038  0.0604
  322TIP3    H1  930   2.722   1.577   0.985  1.1261  0.4239  0.7625
  322TIP3    H2  931   2.704   1.691   1.083  0.9314  1.2412 -0.2068
  323TIP3   OH2  932   1.441   5.488   0.048  0.3711 -0.1753 -0.8310
  323TIP3    H1  933   1.415   5.398   0.026 -0.1007 -0.1400 -0.4521
  323TIP3    H2  934   1.509   5.510  -0.015  1.2148 -1.1608 -0.2888
  324TIP3   OH2  935   3.146   0.488   1.971  0.3306 -0.1842 -0.0291
  324TIP3    H1  936   3.120   0.412   2.024  0.6686  0.4635  1.0881
  324TIP3    H2  937   3.174   0.553   2.034  1.8271  0.2252 -1.0525
  325TIP3   OH2  938   3.224   4.826   1.603  0.3027 -0.4789 -0.4019
  325TIP3    H1  939   3.265   4.895   1.551  0.4349  0.1648  0.5432
  325TIP3    H2  940   3.292   4.759   1.613  0.5326 -0.2416 -0.3777
  326TIP3   OH2  941   5.740   0.773   0.588  0.9673  0.0739 -0.3538
  326TIP3    H1  942   5.739   0.827   0.668  0.0574 -1.4752  0.7350
  326TIP3    H2  943   5.812   0.809   0.537 -0.1572  2.9500 -0.1662
  327TIP3   OH2  944   0.787   4.448   5.210 -0.2671  0.0557 -0.0776
  327TIP3    H1  945   0.843   4.376   5.181  0.4509  0.1707  0.9851
  327TIP3    H2  946   0.737   4.411   5.283 -0.6860  0.3191 -0.2272
  328TIP3   OH2  947   0.615   5.873   2.693  0.5374 -0.3561  0.1323
  328TIP3    H1  948   0.649   5.792   2.656  1.4136 -0.6293  1.4627
  328TIP3    H2  949   0.520   5.857   2.701  0.6339 -1.0770 -0.0526
  329TIP3   OH2  950   6.136   5.331   3.425 -0.1687 -0.0302 -0.8181
  329TIP3    H1  951   6.099   5.371   3.504 -0.9488  0.7635 -1.5578
  329TIP3    H2  952   6.230   5.333   3.439 -0.3433 -2.5445  1.3252
  330TIP3   OH2  953   0.118   4.874   2.927 -0.6178 -0.6189  0.2062
  330TIP3    H1  954   0.182   4.935   2.891 -1.1875 -1.0343 -1.5750
  330TIP3    H2  955   0.064   4.928   2.985 -1.3518  0.6848 -1.6097
  331TIP3   OH2  956   1.460   5.190   4.461 -0.3982  0.0011  0.1499
  331TIP3    H1  957   1.478   5.162   4.550 -0.8323 -1.0614 -0.0863
  331TIP3    H2  958   1.497   5.278   4.456 -0.2634  0.0266  1.3334
  332TIP3   OH2  959   0.421   4.659   0.632 -0.0624  0.2004 -0.2849
  332TIP3    H1  960   0.364   4.676   0.706  1.6589  1.9339  0.7554
  332TIP3    H2  961   0.424   4.563   0.624 -1.4712  0.0365  0.8988
  333TIP3   OH2  962   6.105   2.109   5.606  0.3900 -0.2475 -0.2654
  333TIP3    H1  963   6.119   2.170   5.533  2.1943  1.7630  1.6467
  333TIP3    H2  964   6.035   2.149   5.658 -0.4402 -1.3452 -0.5004
  334TIP3   OH2  965   3.711   0.435   2.790  0.5749 -0.2339  0.1508
  334TIP3    H1  966   3.762   0.463   2.866  1.5768 -0.5592 -0.3768
  334TIP3    H2  967   3.740   0.493   2.719  0.6476 -0.8083 -0.2959
  335TIP3   OH2  968   1.974   5.784   5.397 -0.5787  0.1523  0.3463
  335TIP3    H1  969   1.983   5.688   5.398 -1.0804  0.0991  0.1085
  335TIP3    H2  970   2.028   5.812   5.323 -1.2817 -0.0405 -0.2396
  336TIP3   OH2  971   1.396   6.696   5.633 -0.9158  0.4887  0.6274
  336TIP3    H1  972   1.339   6.654   5.568 -0.1606 -1.4055  1.1145
  336TIP3    H2  973   1.446   6.760   5.583  1.0413 -2.2297 -1.2163
  337TIP3   OH2  974   6.747   2.603   5.254 -0.0884  0.4783  0.6887
  337TIP3    H1  975   6.659   2.602   5.217  0.5889  3.6544 -1.4286
  337TIP3    H2  976   6.735   2.575   5.344 -2.8734 -1.3909 -0.1198
  338TIP3   OH2  977   3.869   3.163   2.339 -0.2849  0.3115  0.0360
  338TIP3    H1  978   3.914   3.246   2.357  0.5358 -0.0476 -0.2710
  338TIP3    H2  979   3.909   3.131   2.258 -0.9121 -0.1664 -0.0950
  339TIP3   OH2  980   4.842   4.944   3.573 -0.5495 -0.0286  0.1438
  339TIP3    H1  981   4.893   5.009   3.622 -0.1234  0.5448 -1.0244
  339TIP3    H2  982   4.864   4.860   3.614  0.8691  0.2815  0.0831
  340TIP3   OH2  983   4.512   2.536   1.200  0.1962 -0.0095  0.2122
  340TIP3    H1  984   4.420   2.537   1.226  0.2663 -2.4609  0.7818
  340TIP3    H2  985   4.515   2.592   1.122 -1.6592  0.5643  0.4930
  341TIP3   OH2  986   4.265   3.754   3.983 -0.2242 -0.0069  0.0354
  341TIP3    H1  987   4.331   3.792   4.042 -0.2869 -2.1139  1.5847
  341TIP3    H2  988   4.292   3.781   3.896  1.6484  0.7079  0.7918
  342TIP3   OH2  989   7.174   4.300   0.528 -0.1930 -0.3508  0.3843
  342TIP3    H1  990   7.166   4.394   0.511 -1.3258 -0.6209 -0.6705
  342TIP3    H2  991   7.083   4.270   0.537  0.1933 -1.0697  2.3806
  343TIP3   OH2  992   6.958   0.374   0.128  0.4561  0.0232  0.3675
  343TIP3    H1  993   6.938   0.283   0.149 -1.6845  0.3950  0.2128
  343TIP3    H2  994   6.998   0.409   0.207  0.3343 -0.7819  0.7961
  344TIP3   OH2  995   1.577   2.968   5.839 -0.1852 -0.0720  0.0755
  344TIP3    H1  996   1.633   2.902   5.880 -0.5269  0.7651  2.0016
  344TIP3    H2  997   1.637   3.022   5.788  0.3921 -0.6492  0.1293
  345TIP3   OH2  998   3.363   3.034   2.174 -0.5135  0.5662  0.0244
  345TIP3    H1  999   3.432   2.972   2.151 -0.4709  0.0305  1.4580
  345TIP3    H2 1000   3.283   2.981   2.174 -0.9440  1.1636 -1.5391
  346TIP3   OH2 1001   1.741   0.483   5.504  0.4387  0.1415 -0.5097
  346TIP3    H1 1002   1.752   0.413   5.570  0.3614  0.2191 -0.4150
  346TIP3    H2 1003   1.829   0.520   5.495  0.6024 -0.3420 -0.9788
  347TIP3   OH2 1004   5.557   3.890   2.686 -0.0639  0.0308  0.3215
  347TIP3    H1 1005   5.578   3.843   2.767  0.0342 -1.0922 -0.3278
  347TIP3    H2 1006   5.576   3.982   2.705 -0.8404 -0.0968  1.8265
  348TIP3   OH2 1007   7.022   3.238   4.970 -0.0538  0.1080 -0.0239
  348TIP3    H1 1008   6.983   3.296   4.905 -1.5303 -3.4279 -2.5437
  348TIP3    H2 1009   7.112   3.224   4.940  0.2060  0.7298  0.4196
  349TIP3   OH2 1010   0.685   4.722   0.567  0.2397 -0.5496 -0.0678
  349TIP3    H1 1011   0.744   4.696   0.638  1.2703  0.0196 -0.6810
  349TIP3    H2 1012   0.603   4.678   0.586  0.5226 -0.4708  1.4330
  350TIP3   OH2 1013   0.525   6.392   5.460 -0.3831 -0.2639 -0.3814
  350TIP3    H1 1014   0.543   6.377   5.553 -0.1938  0.6307 -0.2621
  350TIP3    H2 1015   0.483   6.311   5.430 -0.3487 -0.6014  0.4523
  351TIP3   OH2 1016   5.149   5.253   1.288  0.3282 -0.4432 -0.3887
  351TIP3    H1 1017   5.109   5.315   1.228  1.3448 -0.3907 -1.0342
  351TIP3    H2 1018   5.101   5.172   1.274 -0.1584 -0.1455 -0.4762
  352TIP3   OH2 1019   4.675   6.707   2.962  0.0217 -0.1511  0.0373
  352TIP3    H1 1020   4.644   6.624   2.997 -1.1195 -0.4190 -1.5250
  352TIP3    H2 1021   4.682   6.764   3.039 -1.3368 -1.0228  0.8448
  353TIP3   OH2 1022   5.323   2.999   0.784  0.3729 -0.2607  0.4340
  353TIP3    H1 1023   5.415   3.020   0.802  0.6094 -0.1157 -0.8981
  353TIP3    H2 1024   5.325   2.954   0.700 -0.6405 -1.4870  1.0254
  354TIP3   OH2 1025   3.370   3.493   3.349  0.0220 -0.3355 -0.2794
  354TIP3    H1 1026   3.430   3.468   3.419 -1.3896  0.3065  1.2484
  354TIP3    H2 1027   3.302   3.425   3.351  0.7028 -1.1602 -2.1055
  355TIP3   OH2 1028   0.331   2.170   2.916 -0.3876  0.4463 -0.1323
  355TIP3    H1 1029   0.349   2.116   2.839  0.6569 -1.0095  1.0556
  355TIP3    H2 1030   0.360   2.258   2.891 -1.3935  0.3323 -1.8535
  356TIP3   OH2 1031   2.635   1.998   3.858  0.0694  0.1858  0.3952
  356TIP3    H1 1032   2.692   1.952   3.920 -1.1755 -1.5557  0.3164
  356TIP3    H2 1033   2.662   1.966   3.772 -0.1900  0.3167  0.2654
  357TIP3   OH2 1034   0.973   5.222   0.126 -0.8147 -0.1708 -0.0798
  357TIP3    H1 1035   0.954   5.315   0.134  0.2124  0.0984 -0.5445
  357TIP3    H2 1036   1.007   5.196   0.211  0.1245  0.1996 -0.3271
  358TIP3   OH2 1037   1.788   5.825   1.408  0.3417 -0.0414 -0.6701
  358TIP3    H1 1038   1.816   5.898   1.353 -2.4075  2.2061  0.7073
  358TIP3    H2 1039   1.731   5.864   1.474  0.7754 -3.0958  1.7520
  359TIP3   OH2 1040   2.434   6.411   1.311  0.0164  0.3284 -0.3061
  359TIP3    H1 1041   2.384   6.405   1.229 -0.7793  2.0544  0.0054
  359TIP3    H2 1042   2.377   6.372   1.377  0.1758 -0.0236 -0.3735
  360TIP3   OH2 1043   5.101   4.692   1.281  0.5050  0.1445  0.6129
  360TIP3    H1 1044   5.164   4.761   1.262  0.3359  0.3431  0.7735
  360TIP3    H2 1045   5.111   4.676   1.374  1.7920 -1.2804  0.2802
  361TIP3   OH2 1046   2.057   1.067   3.431 -0.1348  0.0691 -0.0479
  361TIP3    H1 1047   2.093   0.980   3.417  2.3197  1.0998 -0.6350
  361TIP3    H2 1048   2.124   1.114   3.481 -1.3207  1.6759  0.1326
  362TIP3   OH2 1049   3.203   1.846   5.237 -0.2679 -0.2881  0.3991
  362TIP3    H1 1050   3.248   1.930   5.239  0.1309 -0.5101  1.3219
  362TIP3    H2 1051   3.266   1.783   5.272  0.2573 -1.4155 -2.2549
  363TIP3   OH2 1052   4.726   5.699   4.243  0.3236 -0.0462 -0.6240
  363TIP3    H1 1053   4.730   5.744   4.327  3.9732  0.1645 -0.7872
  363TIP3    H2 1054   4.673   5.756   4.188  0.8644  1.6341  0.5312
  364TIP3   OH2 1055   3.050   6.397   4.453 -0.3179  0.0401  0.0270
  364TIP3    H1 1056   3.085   6.474   4.497 -0.8937  0.5907 -0.4522
  364TIP3    H2 1057   3.003   6.432   4.378 -2.0749 -0.6335  0.7545
  365TIP3   OH2 1058   6.130   1.792   1.963 -0.3768 -0.1669  0.1433
  365TIP3    H1 1059   6.091   1.725   1.907 -0.2916  0.0338 -0.1558
  365TIP3    H2 1060   6.146   1.747   2.046  0.0460 -0.6262 -0.1814
  366TIP3   OH2 1061   2.304   0.083   3.932 -0.3584 -0.9721  0.0425
  366TIP3    H1 1062   2.284  -0.006   3.961  0.1524 -1.0947  0.0263
  366TIP3    H2 1063   2.374   0.112   3.991  0.1182 -0.9222 -0.5458
  367TIP3   OH2 1064   2.717   3.379   0.628 -0.0462  0.0971  0.2413
  367TIP3    H1 1065   2.712   3.345   0.539  0.7988  0.4624  0.0419
  367TIP3    H2 1066   2.798   3.341   0.664  0.3588  1.0421  0.3651
  368TIP3   OH2 1067   1.968   4.317   2.184 -0.4243 -0.0099 -0.3938
  368TIP3    H1 1068   1.985   4.385   2.118  0.5475 -0.6127 -0.7959
  368TIP3    H2 1069   1.950   4.239   2.133 -3.2129  0.2679  0.0488
  369TIP3   OH2 1070   2.526   3.110   4.554 -0.1000  0.1374 -0.1399
  369TIP3    H1 1071   2.477   3.177   4.602 -0.2094  0.0816 -0.1728
  369TIP3    H2 1072   2.618   3.133   4.567 -0.1422  0.3842 -0.2828
  370TIP3   OH2 1073   2.009   4.274   1.724 -0.5356 -0.4232 -0.3515
  370TIP3    H1 1074   2.101   4.298   1.715 -0.7203  0.9919  1.0009
  370TIP3    H2 1075   1.962   4.351   1.691 -1.2293 -0.9418 -0.5815
  371TIP3   OH2 1076   2.701   2.750   0.157 -0.2705  0.1819 -0.9416
  371TIP3    H1 1077   2.757   2.802   0.100 -1.3507 -0.3257 -2.5053
  371TIP3    H2 1078   2.612   2.780   0.138 -1.0128 -2.6445 -2.4473
  372TIP3   OH2 1079   3.872   0.843   0.038 -0.3943 -0.1762  0.2253
  372TIP3    H1 1080   3.963   0.817   0.056 -0.5349 -2.7289 -2.0077
  372TIP3    H2 1081   3.821   0.797   0.104 -0.2255 -1.6677 -0.6094
  373TIP3   OH2 1082   5.271   4.698   3.024  0.2479 -0.0018 -0.1248
  373TIP3    H1 1083   5.336   4.676   3.091  1.6124 -0.3067 -1.5045
  373TIP3    H2 1084   5.286   4.791   3.006  0.7341 -0.2225 -0.8845
  374TIP3   OH2 1085   3.902   3.228   1.443  0.1134  0.4100  0.3271
  374TIP3    H1 1086   3.822   3.222   1.390 -0.2031 -0.4487  0.8783
  374TIP3    H2 1087   3.934   3.138   1.449  0.4769  0.5798  1.0932
  375TIP3   OH2 1088   2.456   4.317   0.183  0.0691  0.1689 -0.6626
  375TIP3    H1 1089   2.506   4.330   0.102  0.7372  1.5141 -0.0741
  375TIP3    H2 1090   2.396   4.392   0.186 -0.8211 -0.5352 -0.5144
  376TIP3   OH2 1091   5.714   5.685  -0.008  0.1362  0.3660  0.2648
  376TIP3    H1 1092   5.758   5.709   0.074  0.0604 -0.3898  0.5397
  376TIP3    H2 1093   5.625   5.661   0.020 -0.6101  2.2384 -0.3272
  377TIP3   OH2 1094   5.122   4.371   0.756  0.1658  0.3551 -1.1037
  377TIP3    H1 1095   5.180   4.414   0.819 -0.6908 -0.6020  0.4038
  377TIP3    H2 1096   5.167   4.290   0.733 -1.4037 -1.4882  1.7627
  378TIP3   OH2 1097   0.498   5.486   3.690  0.4999  0.4366 -1.3479
  378TIP3    H1 1098   0.579   5.449   3.724  0.2754  0.0844 -1.1952
  378TIP3    H2 1099   0.439   5.412   3.680 -1.1877  1.0491  2.2974
  379TIP3   OH2 1100   4.998   0.592   3.074 -0.1768 -0.1517 -0.4053
  379TIP3    H1 1101   4.992   0.686   3.056 -2.4970  0.0682  1.2038
  379TIP3    H2 1102   4.916   0.570   3.118 -0.4606 -3.3033 -2.2114
  380TIP3   OH2 1103   3.238   0.749   0.180  0.2097  0.2657  1.3735
  380TIP3    H1 1104   3.191   0.729   0.099  0.2370 -0.9030  1.6333
  380TIP3    H2 1105   3.319   0.698   0.174  1.1254  1.6862  1.2623
  381TIP3   OH2 1106   5.818   6.054   0.810  0.1931  0.1662 -0.1484
  381TIP3    H1 1107   5.832   6.145   0.785  0.5303 -0.4884 -2.6029
  381TIP3    H2 1108   5.765   6.018   0.739  2.9162 -2.3667 -1.0964
  382TIP3   OH2 1109   3.757   2.655   5.335 -0.4372  0.1200 -0.1630
  382TIP3    H1 1110   3.821   2.619   5.273 -0.8069  0.6819 -0.8960
  382TIP3    H2 1111   3.694   2.584   5.348 -1.1963  0.4839 -1.6459
  383TIP3   OH2 1112   2.805   5.053   2.711  0.1768  0.2187  0.0962
  383TIP3    H1 1113   2.738   5.078   2.647  0.8695 -0.6238 -0.9869
  383TIP3    H2 1114   2.838   4.969   2.680 -0.2586 -0.8092  2.2070
  384TIP3   OH2 1115   5.580   2.831   5.765 -0.2242  0.2927 -0.8257
  384TIP3    H1 1116   5.610   2.898   5.826  2.2115 -1.0137 -0.4724
  384TIP3    H2 1117   5.658   2.809   5.714 -0.5491 -3.1596 -0.0487
  385TIP3   OH2 1118   2.208   4.359   2.562  1.0048  0.6921  1.6041
  385TIP3    H1 1119   2.235   4.443   2.524  4.1446 -0.2123  1.5505
  385TIP3    H2 1120   2.290   4.313   2.580 -0.5635 -1.8844  2.8241
  386TIP3   OH2 1121   3.187   2.086   2.624  0.4303 -0.3576  0.1643
  386TIP3    H1 1122   3.138   2.019   2.673 -0.7906  0.1476 -0.3172
  386TIP3    H2 1123   3.220   2.146   2.690  0.8724 -1.0117  0.5433
  387TIP3   OH2 1124   4.298   0.102   0.775  0.5913  0.4692  0.2828
  387TIP3    H1 1125   4.296   0.185   0.824  1.7298  0.4281  0.4186
  387TIP3    H2 1126   4.298   0.129   0.683  0.0532  0.5937  0.3183
  388TIP3   OH2 1127   5.664   4.259   2.928 -0.1979 -0.1644  0.3296
  388TIP3    H1 1128   5.689   4.173   2.963 -0.7712  0.1778  1.6413
  388TIP3    H2 1129   5.626   4.240   2.843 -0.5728 -1.2551  0.7252
  389TIP3   OH2 1130   1.397   0.649   4.383  0.1955 -0.1975 -0.0563
  389TIP3    H1 1131   1.343   0.725   4.362  0.2472  0.3096  1.5066
  389TIP3    H2 1132   1.443   0.674   4.463  0.8444 -1.5669  0.0242
  390TIP3   OH2 1133   1.979   1.203   5.123  0.3433  0.2550  0.2934
  390TIP3    H1 1134   1.886   1.216   5.107 -0.0023 -1.6507  0.5127
  390TIP3    H2 1135   2.023   1.268   5.068 -1.1090  1.5949  0.6570
  391TIP3   OH2 1136   4.527   0.964   5.294 -0.0840 -0.1556  0.5630
  391TIP3    H1 1137   4.490   1.052   5.301 -2.3491 -0.9935 -0.1029
  391TIP3    H2 1138   4.622   0.978   5.295 -0.3190  2.4997 -1.7965
  392TIP3   OH2 1139   2.043   1.852   0.175  0.3484 -0.2918 -0.0743
  392TIP3    H1 1140   2.065   1.934   0.219 -0.7747 -1.0019  1.9313
  392TIP3    H2 1141   2.065   1.867   0.083  0.4193  2.1473  0.2936
  393TIP3   OH2 1142   5.401   0.978   0.566 -0.2941  1.0036 -0.2331
  393TIP3    H1 1143   5.440   0.932   0.641  0.6023  0.1523 -1.1852
  393TIP3    H2 1144   5.307   0.963   0.575 -0.0921 -0.3117 -0.0353
  394TIP3   OH2 1145   1.501   4.004   0.262 -0.2464  0.1288  0.3272
  394TIP3    H1 1146   1.504   3.973   0.172 -0.5596  1.4931 -0.1819
  394TIP3    H2 1147   1.492   3.925   0.315 -3.3696 -0.5638 -1.0155
  395TIP3   OH2 1148   5.565   4.085   2.268 -0.2411 -0.1403  0.3264
  395TIP3    H1 1149   5.621   4.028   2.215 -1.4544 -1.6418  0.6137
  395TIP3    H2 1150   5.615   4.100   2.348  0.1789 -0.6296  0.1590
  396TIP3   OH2 1151   1.286   2.732   0.571  0.4534 -0.1456 -0.1642
  396TIP3    H1 1152   1.232   2.811   0.568 -0.9220 -0.9641  1.3573
  396TIP3    H2 1153   1.374   2.762   0.550 -0.1007  1.7227  0.0079
  397TIP3   OH2 1154   2.582   5.142   3.424  0.3857  0.4983 -0.3304
  397TIP3    H1 1155   2.563   5.228   3.385  0.8312 -0.0599 -1.8080
  397TIP3    H2 1156   2.660   5.111   3.379 -0.9678 -1.6319 -1.3612
  398TIP3   OH2 1157   0.032   5.392   3.642  0.0190 -0.2210 -0.1894
  398TIP3    H1 1158   0.107   5.413   3.697  0.5559  2.2798 -1.7273
  398TIP3    H2 1159   0.065   5.327   3.581  0.8842  0.6296 -0.6536
  399TIP3   OH2 1160   3.698   2.614   0.020 -0.0707  0.1224 -0.6087
  399TIP3    H1 1161   3.718   2.521   0.031 -1.6056 -0.1035  0.6451
  399TIP3    H2 1162   3.731   2.656   0.099  0.8435  0.7034 -1.2847
  400TIP3   OH2 1163   5.098   0.614   5.633  0.7741  0.2162  0.3537
  400TIP3    H1 1164   5.118   0.522   5.615 -0.4759 -0.1787  0.9132
  400TIP3    H2 1165   5.037   0.612   5.706  1.9377  1.5708  1.4423
  401TIP3   OH2 1166   0.825   5.269   4.318 -0.1542 -0.2331  0.2624
  401TIP3    H1 1167   0.841   5.342   4.258  0.4803 -3.1488 -3.5176
  401TIP3    H2 1168   0.737   5.238   4.296  0.1930 -1.5616  0.6641
  402TIP3   OH2 1169   1.555   0.552   1.159  0.5902  0.6695  0.1530
  402TIP3    H1 1170   1.578   0.533   1.250 -0.3880  1.5833  0.6214
  402TIP3    H2 1171   1.472   0.506   1.145  0.8065  0.4190 -0.3302
  403TIP3   OH2 1172   0.434   1.375   4.147  0.5614  0.9159 -0.1555
  403TIP3    H1 1173   0.375   1.438   4.189 -0.7559 -0.0267 -0.5324
  403TIP3    H2 1174   0.415   1.384   4.053  0.1297 -0.2621 -0.1870
  404TIP3   OH2 1175   3.380   6.519   5.578 -0.6827  0.1304  0.3095
  404TIP3    H1 1176   3.418   6.452   5.635 -0.7673 -1.9949 -1.9420
  404TIP3    H2 1177   3.450   6.583   5.566 -0.9964  1.2120  3.4943
  405TIP3   OH2 1178   1.071   2.390   3.362  0.5268 -0.0021  0.1078
  405TIP3    H1 1179   1.094   2.470   3.408  0.6257 -1.1871  2.2845
  405TIP3    H2 1180   0.981   2.371   3.390  1.2783 -1.8022  1.4804
  406TIP3   OH2 1181   6.876   1.011   1.873  0.5567 -0.1945 -0.5835
  406TIP3    H1 1182   6.922   0.937   1.912 -0.2669 -1.2012 -1.4681
  406TIP3    H2 1183   6.905   1.087   1.924 -0.4395 -1.4128  1.9503
  407TIP3   OH2 1184   4.831   2.018   5.712 -0.2229 -0.0334 -0.2048
  407TIP3    H1 1185   4.739   2.000   5.692 -0.8343  2.9953 -0.4960
  407TIP3    H2 1186   4.867   2.053   5.631 -0.1441  3.2042  1.1066
  408TIP3   OH2 1187   6.177   1.856   3.339 -0.6910  0.0403  0.0308
  408TIP3    H1 1188   6.270   1.880   3.334 -0.5310 -0.2547  1.1593
  408TIP3    H2 1189   6.174   1.765   3.311 -0.6225  0.0264  0.0676
  409TIP3   OH2 1190   2.196   4.880   5.585 -0.0745  0.2384  0.2441
  409TIP3    H1 1191   2.115   4.928   5.567  0.4034  1.7780  1.9718
  409TIP3    H2 1192   2.174   4.823   5.659  0.5987  1.2623  1.2618
  410TIP3   OH2 1193   5.188   2.215   2.956 -0.3329  0.9252 -0.0945
  410TIP3    H1 1194   5.105   2.172   2.936 -0.1906 -0.5818  2.1805
  410TIP3    H2 1195   5.250   2.176   2.894 -0.5089 -1.1977  0.9742
  411TIP3   OH2 1196   1.088   3.162   2.919 -0.7226 -0.2977 -0.0049
  411TIP3    H1 1197   1.078   3.068   2.932  0.6058 -0.2740  1.4891
  411TIP3    H2 1198   1.069   3.176   2.826  0.0003 -2.1683 -0.4648
  412TIP3   OH2 1199   3.217   2.879   1.804 -0.1416  0.7139 -0.4100
  412TIP3    H1 1200   3.306   2.908   1.827  0.1749  0.4948 -1.3105
  412TIP3    H2 1201   3.197   2.810   1.867  1.1671 -0.6890 -1.4423
  413TIP3   OH2 1202   5.682   5.908   1.714  0.0017 -0.3228 -0.1939
  413TIP3    H1 1203   5.665   5.903   1.808 -1.0469  0.9109 -0.2879
  413TIP3    H2 1204   5.606   5.866   1.674 -0.1043  0.1814 -0.5194
  414TIP3   OH2 1205   3.965   2.503   5.242  0.1740 -0.1760 -0.3866
  414TIP3    H1 1206   3.926   2.419   5.218 -0.6269  0.2508 -0.6177
  414TIP3    H2 1207   4.036   2.480   5.302 -0.2097 -0.9975 -0.2310
  415TIP3   OH2 1208   6.081   2.764   5.064  0.1681 -0.1114 -0.4836
  415TIP3    H1 1209   6.046   2.850   5.089  1.8018 -0.0693  2.0860
  415TIP3    H2 1210   6.135   2.780   4.987 -0.4908  0.9261 -0.7418
  416TIP3   OH2 1211   6.488   4.153   2.957 -0.4051  0.1006 -0.2581
  416TIP3    H1 1212   6.425   4.143   2.886 -0.5676  0.5280 -0.1798
  416TIP3    H2 1213   6.564   4.194   2.916 -0.7487  0.9578 -0.0659
  417TIP3   OH2 1214   2.740   4.808   3.469 -0.5346 -0.3018  0.1438
  417TIP3    H1 1215   2.816   4.802   3.411 -0.9889 -0.1797 -0.4702
  417TIP3    H2 1216   2.777   4.813   3.557  0.2609  1.9713 -0.2578
  418TIP3   OH2 1217   6.670   1.735   0.553 -0.8705  0.3179  0.2273
  418TIP3    H1 1218   6.722   1.763   0.477 -0.3658  0.4591  0.6202
  418TIP3    H2 1219   6.642   1.646   0.530  1.6163 -0.7625  1.0072
  419TIP3   OH2 1220   5.664   4.653   1.877 -0.7050  0.6222  0.1543
  419TIP3    H1 1221   5.681   4.703   1.798 -0.5974  1.4830  0.7107
  419TIP3    H2 1222   5.604   4.584   1.849 -0.2902  0.6231 -0.7689
  420TIP3   OH2 1223   3.181   2.937   3.348 -0.1051 -0.0272  0.1074
  420TIP3    H1 1224   3.260   2.991   3.347 -0.6867  0.8539 -0.8976
  420TIP3    H2 1225   3.118   2.988   3.400 -0.0878 -0.6217  0.7200
  421TIP3   OH2 1226   0.076   3.105   3.323 -0.2896  0.3626  0.7910
  421TIP3    H1 1227   0.002   3.044   3.321  0.6050 -0.7444  0.7023
  421TIP3    H2 1228   0.122   3.086   3.405 -0.4786  1.5346  1.1977
  422TIP3   OH2 1229   0.217   0.992   5.835  0.6446  0.4017 -0.4626
  422TIP3    H1 1230   0.224   1.049   5.758  0.0046 -0.4639 -1.1923
  422TIP3    H2 1231   0.256   0.909   5.807  0.7973  0.2061  0.3002
  423TIP3   OH2 1232   3.079   0.501   3.439  0.1245 -0.2339  1.1157
  423TIP3    H1 1233   3.167   0.525   3.467  0.9456 -0.5840 -0.9767
  423TIP3    H2 1234   3.080   0.405   3.437  0.1412 -0.2279 -0.0923
  424TIP3   OH2 1235   0.148   2.425   0.221 -0.0640 -0.1986 -0.1588
  424TIP3    H1 1236   0.094   2.348   0.200  1.2311 -0.7068 -1.9266
  424TIP3    H2 1237   0.177   2.457   0.135  2.6740 -0.1497  0.6911
  425TIP3   OH2 1238   6.629   3.402   0.321 -0.5818 -0.1942  0.2314
  425TIP3    H1 1239   6.722   3.381   0.316  0.0026  2.2552 -0.0131
  425TIP3    H2 1240   6.608   3.442   0.236 -1.9259 -0.8882  0.2041
  426TIP3   OH2 1241   6.360   2.154   1.832  0.2323  0.2831 -0.0395
  426TIP3    H1 1242   6.391   2.171   1.743 -1.1957 -1.1846 -0.8759
  426TIP3    H2 1243   6.265   2.157   1.825  0.0514 -1.5758  1.0394
  427TIP3   OH2 1244   6.653   2.371   0.343  0.4672  0.0159  0.2817
  427TIP3    H1 1245   6.719   2.438   0.364 -0.9082  1.3077  0.6073
  427TIP3    H2 1246   6.580   2.390   0.402 -0.9822 -0.1922 -1.3705
  428TIP3   OH2 1247   2.978   4.545   3.517 -0.0139  0.5946 -0.2487
  428TIP3    H1 1248   3.035   4.519   3.589 -0.2094  0.1158 -0.2608
  428TIP3    H2 1249   2.900   4.490   3.528  0.1638  0.1428 -1.1169
  429TIP3   OH2 1250   2.839   4.769   0.085  0.3822 -0.4610 -0.1525
  429TIP3    H1 1251   2.931   4.747   0.095  0.4885 -0.2846 -0.6909
  429TIP3    H2 1252   2.825   4.843   0.143  0.9136  0.3805 -1.0672
  430TIP3   OH2 1253   5.273   0.202   2.130  0.1956 -0.6122 -0.0944
  430TIP3    H1 1254   5.348   0.177   2.077  1.5208  0.2495  1.3076
  430TIP3    H2 1255   5.267   0.134   2.197  1.4680  0.7208  1.4412
  431TIP3   OH2 1256   0.913   6.236   3.861  0.1198  0.1229 -0.2584
  431TIP3    H1 1257   0.957   6.180   3.924 -0.1547 -0.0168 -0.1870
  431TIP3    H2 1258   0.821   6.237   3.891  0.1709  0.8149 -0.1034
  432TIP3   OH2 1259   2.708   5.725   0.940  0.4944 -0.1606  0.4216
  432TIP3    H1 1260   2.732   5.807   0.983 -1.1355  0.7472 -0.2953
  432TIP3    H2 1261   2.656   5.753   0.865 -2.0552 -1.9067  1.4393
  433TIP3   OH2 1262   1.046   1.278   5.280  0.3396 -0.2954  0.0624
  433TIP3    H1 1263   0.985   1.205   5.294 -1.2776  1.2567  1.5935
  433TIP3    H2 1264   1.027   1.339   5.351  2.5604  1.0434 -0.4156
  434TIP3   OH2 1265   0.287   4.965   2.196  0.5017  0.6911 -0.0477
  434TIP3    H1 1266   0.251   5.014   2.121 -1.5267 -0.9064 -0.2217
  434TIP3    H2 1267   0.331   4.890   2.156 -1.2309 -0.5741  0.3010
  435TIP3   OH2 1268   0.179   4.706   5.596 -0.2611  0.1230  0.2543
  435TIP3    H1 1269   0.196   4.646   5.524  0.2385  1.6267 -0.9313
  435TIP3    H2 1270   0.084   4.718   5.596 -0.1195  1.6478 -1.5017
  436TIP3   OH2 1271   5.551   4.919   0.474 -0.2401  0.0311 -0.3357
  436TIP3    H1 1272   5.558   4.986   0.542 -0.5719  0.6346 -0.8731
  436TIP3    H2 1273   5.462   4.885   0.483 -0.5351  0.6220 -0.9122
  437TIP3   OH2 1274   1.569   0.304   4.344 -0.1974  0.2061  0.1006
  437TIP3    H1 1275   1.642   0.364   4.334  1.0205 -1.4264 -1.3514
  437TIP3    H2 1276   1.520   0.312   4.262 -0.4395 -0.2321  0.1994
  438TIP3   OH2 1277   2.337   6.511   0.821  0.1173  0.0946  0.5429
  438TIP3    H1 1278   2.361   6.595   0.781 -2.5708  0.2348 -1.0689
  438TIP3    H2 1279   2.311   6.534   0.911 -0.2525  0.9711  0.2306
  439TIP3   OH2 1280  -0.007   1.443   3.013 -0.1789 -0.0654 -0.7601
  439TIP3    H1 1281  -0.042   1.531   3.005 -0.2441 -0.2045 -2.2003
  439TIP3    H2 1282   0.074   1.444   2.963 -0.7613 -1.1131 -1.7587
  440TIP3   OH2 1283   6.203   3.225   5.636 -0.4311  0.3632 -0.0115
  440TIP3    H1 1284   6.173   3.168   5.566 -0.6462  0.7467 -0.2396
  440TIP3    H2 1285   6.296   3.208   5.644 -1.0767 -3.0291  2.6969
  441TIP3   OH2 1286   0.256   1.200   5.263  0.2699 -0.0265 -0.0862
  441TIP3    H1 1287   0.312   1.139   5.311  2.8384  1.6529 -0.7808
  441TIP3    H2 1288   0.260   1.171   5.172  0.8556  0.6868 -0.2948
  442TIP3   OH2 1289   0.215   2.215   3.635 -0.4265  0.3434 -0.0205
  442TIP3    H1 1290   0.236   2.264   3.556 -0.8127 -1.1420 -1.1003
  442TIP3    H2 1291   0.139   2.162   3.610 -2.0445  1.5280  2.0807
  443TIP3   OH2 1292   4.074   1.038   2.246 -0.5872  0.1362  0.3150
  443TIP3    H1 1293   4.103   1.036   2.337  1.6365 -0.3970 -0.3404
  443TIP3    H2 1294   4.103   0.954   2.210 -1.6653  0.2224 -0.8310
  444TIP3   OH2 1295   0.901   4.693   2.431  0.1862  0.2189  0.1597
  444TIP3    H1 1296   0.986   4.688   2.388 -0.1301 -0.9009 -0.3730
  444TIP3    H2 1297   0.914   4.650   2.516  0.3056  0.5982  0.3328
  445TIP3   OH2 1298   2.524   0.026   5.637  0.2955 -0.1916  0.0547
  445TIP3    H1 1299   2.588   0.097   5.630 -1.2861  1.1467 -2.9895
  445TIP3    H2 1300   2.571  -0.052   5.607  1.1761  0.2677  0.2180
  446TIP3   OH2 1301   2.823   1.945   2.471  0.3309  0.5860  0.2118
  446TIP3    H1 1302   2.799   1.907   2.387  0.3745 -1.6906  1.1772
  446TIP3    H2 1303   2.787   1.886   2.537  1.5803  1.4727  1.7972
  447TIP3   OH2 1304   3.734   0.235   5.199 -0.9847  0.7825 -0.3046
  447TIP3    H1 1305   3.665   0.206   5.258  1.2246 -1.2156  1.5435
  447TIP3    H2 1306   3.772   0.312   5.241 -0.8130  0.6762 -0.2634
  448TIP3   OH2 1307   4.098   3.516   5.280 -0.4353 -0.0938 -0.7437
  448TIP3    H1 1308   4.136   3.469   5.206 -1.0230  0.1188 -1.1858
  448TIP3    H2 1309   4.112   3.608   5.261  1.3004 -0.0688  0.4406
  449TIP3   OH2 1310   4.962   0.793   0.791 -0.5300 -0.6284 -0.0626
  449TIP3    H1 1311   4.991   0.825   0.876 -0.6501 -3.2175  1.0381
  449TIP3    H2 1312   5.013   0.713   0.777 -2.9522 -2.1394 -0.8009
  450TIP3   OH2 1313   2.290   0.696   5.148  0.4465  0.2930 -0.1096
  450TIP3    H1 1314   2.274   0.719   5.057 -1.6404 -0.6625 -0.0285
  450TIP3    H2 1315   2.296   0.779   5.194  0.4072  0.7548 -0.9331
  451TIP3   OH2 1316   0.455   5.969   0.209  0.4204  0.9596 -0.1071
  451TIP3    H1 1317   0.376   6.023   0.206  0.1147  0.7881  2.3885
  451TIP3    H2 1318   0.527   6.031   0.197 -0.0311  1.4518 -0.2857
  452TIP3   OH2 1319   0.244   2.399   5.698  0.1134  0.3033 -0.0247
  452TIP3    H1 1320   0.311   2.462   5.672 -0.5310 -0.0380 -2.8177
  452TIP3    H2 1321   0.287   2.344   5.763  2.6526  0.0466 -1.7657
  453TIP3   OH2 1322   6.971   5.911   1.033  0.4660  0.3160 -0.2391
  453TIP3    H1 1323   7.018   5.916   0.949  0.8773  1.3253  0.0323
  453TIP3    H2 1324   7.040   5.892   1.097  0.1989 -0.1455 -0.0855
  454TIP3   OH2 1325   6.017   6.267   3.125 -0.4861 -0.4433 -0.1598
  454TIP3    H1 1326   6.106   6.242   3.152 -1.0998 -0.9216  1.5808
  454TIP3    H2 1327   5.973   6.183   3.110 -1.2475 -0.3171  1.1883
  455TIP3   OH2 1328   7.072   5.376   1.915  0.5849  0.2636 -0.6459
  455TIP3    H1 1329   7.068   5.432   1.838 -1.1057  1.9932  0.5705
  455TIP3    H2 1330   7.076   5.438   1.989 -2.3557 -1.0745  0.8161
  456TIP3   OH2 1331   6.398   6.676   3.535  0.3149  0.0729 -0.0457
  456TIP3    H1 1332   6.405   6.754   3.479  1.0834  0.5588  0.7031
  456TIP3    H2 1333   6.330   6.698   3.598 -1.3380 -0.8970 -1.4005
  457TIP3   OH2 1334   5.481   0.300   1.499 -0.1266  0.1801  0.0664
  457TIP3    H1 1335   5.503   0.253   1.419  0.2151  0.7539 -0.1844
  457TIP3    H2 1336   5.396   0.340   1.481  0.0395  0.4727 -0.0953
  458TIP3   OH2 1337   4.963   1.338   2.336  0.2420  0.0950 -0.1505
  458TIP3    H1 1338   4.979   1.258   2.385  0.3946 -0.8095 -1.6047
  458TIP3    H2 1339   4.903   1.312   2.266 -0.5752  1.5023 -0.0112
  459TIP3   OH2 1340   2.414   2.870   4.652 -0.5008  0.6427 -0.0965
  459TIP3    H1 1341   2.372   2.905   4.731 -3.7126  0.5049 -1.5875
  459TIP3    H2 1342   2.457   2.946   4.612  0.6483  0.8347  1.4273
  460TIP3   OH2 1343   0.369   3.557   2.104  0.6595  0.2054 -0.1764
  460TIP3    H1 1344   0.410   3.509   2.177  0.9404 -1.5664 -1.4366
  460TIP3    H2 1345   0.441   3.574   2.044  0.3169  1.1030 -0.3398
  461TIP3   OH2 1346   3.805   1.949   5.024  0.3751  0.0039 -0.3632
  461TIP3    H1 1347   3.839   1.979   5.109 -0.8634  2.7987 -0.7299
  461TIP3    H2 1348   3.830   2.018   4.963 -0.8174 -0.7733 -1.7868
  462TIP3   OH2 1349   0.878   4.407   4.003 -0.4062  0.5919 -0.0959
  462TIP3    H1 1350   0.957   4.460   3.997  0.0211 -0.0833 -0.7277
  462TIP3    H2 1351   0.814   4.463   4.047  0.5545  0.9828  0.8368
  463TIP3   OH2 1352   5.948   5.652   3.520 -0.3059 -0.2884 -0.2530
  463TIP3    H1 1353   5.909   5.589   3.581 -0.5201 -0.6726 -0.7822
  463TIP3    H2 1354   5.881   5.719   3.507  0.2653  0.5881  1.0589
  464TIP3   OH2 1355   5.257   5.528   0.338 -0.0632  0.2701  0.5880
  464TIP3    H1 1356   5.311   5.532   0.417 -0.4041 -0.9027  0.9024
  464TIP3    H2 1357   5.184   5.471   0.362 -0.5565  0.4894 -0.3533
  465TIP3   OH2 1358   0.417   4.551   0.911  0.7303 -0.2341 -0.1410
  465TIP3    H1 1359   0.488   4.604   0.948  0.4925 -0.1503  0.2025
  465TIP3    H2 1360   0.381   4.504   0.987 -1.5923  2.0020  0.2736
  466TIP3   OH2 1361   6.175   6.477   4.248  0.6187 -0.0674  0.0646
  466TIP3    H1 1362   6.209   6.503   4.333  1.9726  1.1285 -0.8087
  466TIP3    H2 1363   6.211   6.389   4.234  1.9000  0.4648 -0.0598
  467TIP3   OH2 1364   0.556   5.393   4.286 -0.2988  0.2147  0.3482
  467TIP3    H1 1365   0.528   5.417   4.197 -0.9153  0.9960  0.7402
  467TIP3    H2 1366   0.521   5.305   4.299 -0.7712  0.3508  0.0471
  468TIP3   OH2 1367   6.160   1.609   2.190  0.1998 -0.3870 -0.0005
  468TIP3    H1 1368   6.077   1.640   2.228 -0.0333 -1.1947  0.1556
  468TIP3    H2 1369   6.209   1.576   2.265  0.5338 -0.2108 -0.1410
  469TIP3   OH2 1370   1.454   3.555   1.998  0.6625 -0.1264  0.1408
  469TIP3    H1 1371   1.456   3.626   2.062  1.4240  0.8739 -0.9223
  469TIP3    H2 1372   1.546   3.546   1.971  0.1341  0.9840 -2.3300
  470TIP3   OH2 1373   4.202   5.317   5.487  0.7099  0.8917 -0.7829
  470TIP3    H1 1374   4.241   5.346   5.404 -0.6978  0.7096 -1.5506
  470TIP3    H2 1375   4.274   5.277   5.535  1.4008  0.2580 -2.2853
  471TIP3   OH2 1376   2.782   3.339   0.355  0.4640 -0.6551  0.1631
  471TIP3    H1 1377   2.862   3.351   0.305  1.5464 -0.9817  1.7624
  471TIP3    H2 1378   2.732   3.275   0.304  1.7744 -1.3992 -0.2399
  472TIP3   OH2 1379   5.334   4.024   4.221  0.8410 -0.5081 -0.2031
  472TIP3    H1 1380   5.349   4.059   4.133  1.7901 -1.8804 -0.6170
  472TIP3    H2 1381   5.270   3.954   4.208  1.4904 -1.1615  0.0894
  473TIP3   OH2 1382   0.982   3.093   4.900 -0.0429  0.3946  0.0605
  473TIP3    H1 1383   0.931   3.100   4.819  0.6473  0.4547 -0.3738
  473TIP3    H2 1384   0.996   2.999   4.912  0.3301  0.4157 -0.1939
  474TIP3   OH2 1385   0.603   6.408   0.226 -0.1831 -0.6049  0.2920
  474TIP3    H1 1386   0.674   6.440   0.282 -0.5550  0.5689  0.1091
  474TIP3    H2 1387   0.524   6.444   0.265 -0.5309 -0.5197 -0.4792
  475TIP3   OH2 1388   4.801   2.432   5.635  0.0499  0.2343  0.2300
  475TIP3    H1 1389   4.787   2.399   5.547 -1.4099  0.5531  0.3131
  475TIP3    H2 1390   4.722   2.483   5.654  0.1344 -0.2149  1.8967
  476TIP3   OH2 1391   4.208   1.553   2.026  0.4195 -0.0740 -0.2430
  476TIP3    H1 1392   4.121   1.577   2.060  0.6292  1.5377 -0.7445
  476TIP3    H2 1393   4.222   1.464   2.058 -0.0389  0.7796  2.6531
  477TIP3   OH2 1394   6.188   0.766   3.286 -0.1009  0.3028  0.3421
  477TIP3    H1 1395   6.100   0.761   3.324  0.1780 -0.3567  0.9075
  477TIP3    H2 1396   6.234   0.830   3.341  0.0234  0.0346  0.5495
  478TIP3   OH2 1397   3.608   4.292   1.067  0.2390  0.5599  0.1695
  478TIP3    H1 1398   3.591   4.219   1.008 -1.2579  1.3525 -0.4267
  478TIP3    H2 1399   3.561   4.269   1.148 -1.2761  1.3814 -0.4411
  479TIP3   OH2 1400   5.193   4.256   1.915 -0.1372 -0.1495 -0.6590
  479TIP3    H1 1401   5.243   4.249   1.996  0.6369  2.1339 -0.8656
  479TIP3    H2 1402   5.246   4.209   1.850  0.3648 -0.0989 -0.2938
  480TIP3   OH2 1403   2.245   4.983   1.056  0.1182 -0.1024 -0.3429
  480TIP3    H1 1404   2.309   4.991   1.126  0.3490  4.5085 -0.7479
  480TIP3    H2 1405   2.161   4.973   1.101  0.6811 -2.4191  0.2994
  481TIP3   OH2 1406   0.602   6.225   1.787  0.2618 -0.1259  0.2365
  481TIP3    H1 1407   0.577   6.217   1.695  0.9084 -1.2035  0.1424
  481TIP3    H2 1408   0.536   6.174   1.835  1.5894 -2.0875  0.0794
  482TIP3   OH2 1409   4.904   2.964   5.181  0.1825  0.5892 -0.8145
  482TIP3    H1 1410   4.883   2.897   5.246  1.5617 -0.1813 -1.1265
  482TIP3    H2 1411   4.821   2.979   5.135 -0.1379 -0.9773 -0.7967
  483TIP3   OH2 1412   6.128   5.784   1.710  0.4092  0.3513  0.1331
  483TIP3    H1 1413   6.101   5.692   1.701  2.2818 -0.1326 -1.3044
  483TIP3    H2 1414   6.052   5.834   1.679 -1.6623 -0.4773  3.3529
  484TIP3   OH2 1415   2.877   3.003   1.654  0.4994  0.1748 -0.0598
  484TIP3    H1 1416   2.875   2.908   1.666 -2.5284  0.1420 -0.0481
  484TIP3    H2 1417   2.826   3.037   1.727  0.9212  1.7692 -0.4741
  485TIP3   OH2 1418   2.107   1.400   1.742 -0.4552  0.5216  0.0903
  485TIP3    H1 1419   2.072   1.489   1.735 -0.1077  0.4949 -4.2795
  485TIP3    H2 1420   2.042   1.346   1.697  0.0698 -1.2948  1.3937
  486TIP3   OH2 1421   5.358   4.719   3.861  0.3776  0.3478 -0.3056
  486TIP3    H1 1422   5.265   4.701   3.872  0.5312  0.1089  0.6963
  486TIP3    H2 1423   5.402   4.651   3.913  1.0689  1.1753  0.2218
  487TIP3   OH2 1424   6.714   4.804   3.835 -0.4693 -0.7341 -0.2744
  487TIP3    H1 1425   6.701   4.732   3.773 -0.5457 -0.4942 -0.5348
  487TIP3    H2 1426   6.625   4.827   3.863 -0.6113  0.6115 -1.7216
  488TIP3   OH2 1427   3.438   2.940   4.293 -0.5561 -0.6438 -0.1994
  488TIP3    H1 1428   3.371   2.935   4.225 -0.9347  1.8502 -0.0822
  488TIP3    H2 1429   3.407   2.880   4.361 -2.5782  0.2581 -0.2538
  489TIP3   OH2 1430   0.263   5.349   2.548 -0.2980  0.3337 -0.3683
  489TIP3    H1 1431   0.296   5.307   2.469 -1.8100 -0.8325 -0.4331
  489TIP3    H2 1432   0.340   5.360   2.604  0.5090 -0.4081 -1.3073
  490TIP3   OH2 1433   2.963   5.036   1.187 -0.9859 -0.1163  0.0423
  490TIP3    H1 1434   3.042   4.990   1.159 -1.0398 -0.6252  0.6929
  490TIP3    H2 1435   2.926   4.980   1.255 -1.6265  0.3762  0.1065
  491TIP3   OH2 1436   3.506   0.120   4.068  0.1092 -0.6804  0.3075
  491TIP3    H1 1437   3.595   0.153   4.073 -0.1145  0.0107 -0.0794
  491TIP3    H2 1438   3.466   0.144   4.152  0.5554 -1.8263  0.8597
  492TIP3   OH2 1439   0.096   4.348   5.013  0.0143 -0.6023  0.4301
  492TIP3    H1 1440   0.002   4.341   4.998  0.0694 -0.5340  0.0409
  492TIP3    H2 1441   0.130   4.388   4.933  0.7096 -2.8005 -0.4199
  493TIP3   OH2 1442   0.096   3.948   2.164 -0.3502  0.8925  0.0953
  493TIP3    H1 1443   0.080   3.945   2.070 -0.8762  1.3845  0.1612
  493TIP3    H2 1444   0.102   3.856   2.190 -1.2616  0.7218 -0.2545
  494TIP3   OH2 1445   5.744   3.272   2.855 -0.2172  0.0523  0.1238
  494TIP3    H1 1446   5.777   3.347   2.805  1.0449 -0.0919  0.6904
  494TIP3    H2 1447   5.732   3.306   2.943 -0.0474 -0.2993  0.2853
  495TIP3   OH2 1448   7.007   3.513   1.978  0.3740  0.3252 -0.1110
  495TIP3    H1 1449   7.075   3.513   2.046  0.7356  0.2005 -0.4637
  495TIP3    H2 1450   6.925   3.501   2.025  0.7056 -0.8244  0.2293
  496TIP3   OH2 1451   6.990   0.763   0.412 -0.2675  0.1758 -0.1055
  496TIP3    H1 1452   7.048   0.828   0.371 -1.6791  1.7979  0.3295
  496TIP3    H2 1453   6.924   0.744   0.345  0.2801 -1.0688 -0.3230
  497TIP3   OH2 1454   3.209   3.330   5.102 -0.6176  0.4450  0.2779
  497TIP3    H1 1455   3.114   3.324   5.090 -0.5990  0.7058 -0.0079
  497TIP3    H2 1456   3.222   3.415   5.144 -0.3567  1.2833 -1.4135
  498TIP3   OH2 1457   1.550   1.128   3.374  0.1430 -0.0106  0.0853
  498TIP3    H1 1458   1.640   1.151   3.395  0.2240 -0.1178 -0.1517
  498TIP3    H2 1459   1.547   1.122   3.279 -0.0823 -0.1367  0.0978
  499TIP3   OH2 1460   0.015   1.121   4.202 -0.6390  0.5081  0.5243
  499TIP3    H1 1461   0.076   1.166   4.260 -1.0360  0.9480  0.6104
  499TIP3    H2 1462   0.039   1.151   4.114 -2.1261  2.4566  0.7122
  500TIP3   OH2 1463   1.310   1.704   0.250  0.1120 -0.0773 -0.3182
  500TIP3    H1 1464   1.386   1.652   0.226 -1.7155 -2.3512 -1.6077
  500TIP3    H2 1465   1.303   1.769   0.180 -0.0054 -0.8917 -1.0827
  501TIP3   OH2 1466   2.900   3.975   0.018  0.5346  0.0778  0.8237
  501TIP3    H1 1467   2.971   3.961  -0.045  0.1870  1.8549 -0.0204
  501TIP3    H2 1468   2.867   3.887   0.037  1.7648 -0.6282 -0.1710
  502TIP3   OH2 1469   5.613   0.829   3.417 -0.1533 -0.3782 -0.0250
  502TIP3    H1 1470   5.533   0.878   3.397 -0.1571 -0.6272 -0.6385
  502TIP3    H2 1471   5.653   0.878   3.489 -0.8670 -0.2634  0.3088
  503TIP3   OH2 1472   3.963   6.296   5.686  0.4395 -0.3687  0.0599
  503TIP3    H1 1473   3.970   6.250   5.770  2.0313 -0.2389  0.0293
  503TIP3    H2 1474   3.950   6.388   5.711 -0.6347 -0.5281  0.1344
  504TIP3   OH2 1475   5.823   0.795   5.720 -0.5947 -0.1687 -0.2380
  504TIP3    H1 1476   5.740   0.811   5.676  0.4585  0.5061 -2.0822
  504TIP3    H2 1477   5.890   0.827   5.659  0.9624  1.2823  2.0397
  505TIP3   OH2 1478   6.458   3.510   3.622  0.1751 -0.2703 -0.4757
  505TIP3    H1 1479   6.541   3.504   3.574  1.4411  1.3570  1.3391
  505TIP3    H2 1480   6.391   3.490   3.557  1.8946 -0.1965 -2.3723
  506TIP3   OH2 1481   2.292   2.117   1.134  0.1398  0.4677 -0.6091
  506TIP3    H1 1482   2.270   2.180   1.202 -0.1818 -0.9894  0.7074
  506TIP3    H2 1483   2.209   2.075   1.113  0.6236 -0.8059 -0.0789
  507TIP3   OH2 1484   6.225   0.688   0.153  0.3337  0.6100 -0.6087
  507TIP3    H1 1485   6.184   0.661   0.236  1.4046  1.0793  0.1027
  507TIP3    H2 1486   6.170   0.761   0.123 -0.7025 -0.2611 -0.8943
  508TIP3   OH2 1487   2.341   1.383   5.522 -0.5862 -0.0124 -0.5279
  508TIP3    H1 1488   2.282   1.344   5.457 -0.1111 -0.3277 -0.7768
  508TIP3    H2 1489   2.344   1.475   5.498 -0.6365 -0.0750 -0.7868
  509TIP3   OH2 1490   1.111   1.360   0.582 -0.0916 -0.2362 -0.3021
  509TIP3    H1 1491   1.018   1.359   0.556 -0.7171  1.0090  1.6418
  509TIP3    H2 1492   1.148   1.435   0.535  0.1590 -1.1778 -1.6646
  510TIP3   OH2 1493   5.153   6.650   1.488  0.2146 -0.0686  0.0972
  510TIP3    H1 1494   5.090   6.657   1.417  0.6881  3.0063 -0.1635
  510TIP3    H2 1495   5.101   6.626   1.565 -0.3745 -2.9260 -1.0671
  511TIP3   OH2 1496   5.712   3.207   1.322 -0.0150  0.7553 -0.3971
  511TIP3    H1 1497   5.644   3.216   1.389 -0.2775 -0.7165 -0.4219
  511TIP3    H2 1498   5.764   3.132   1.351  2.0451  2.2294 -0.0355
  512TIP3   OH2 1499   5.379   5.729   0.990 -0.6636  0.4955 -0.0757
  512TIP3    H1 1500   5.382   5.641   1.028 -2.6145  0.8623  1.0817
  512TIP3    H2 1501   5.426   5.721   0.907 -1.5268 -1.8780 -0.4196
  513TIP3   OH2 1502   1.606   1.674   5.668 -0.2909 -0.4657  0.1232
  513TIP3    H1 1503   1.679   1.620   5.698 -0.1004  0.1238  0.7506
  513TIP3    H2 1504   1.531   1.645   5.721  0.1138  0.7838  1.4346
  514TIP3   OH2 1505   1.065   2.925   4.355  0.5845  0.0989  0.2066
  514TIP3    H1 1506   0.972   2.938   4.335 -0.3182 -1.9857  2.4991
  514TIP3    H2 1507   1.105   2.902   4.272 -0.5388  2.6114 -1.1632
  515TIP3   OH2 1508   2.461   3.620   0.375 -0.1248 -0.6702  0.0342
  515TIP3    H1 1509   2.510   3.682   0.428 -0.7085  0.1073 -0.3254
  515TIP3    H2 1510   2.369   3.637   0.396 -0.4856  0.7208 -2.3292
  516TIP3   OH2 1511   5.780   0.128   4.614 -0.8312  0.1302 -0.2452
  516TIP3    H1 1512   5.757   0.087   4.697 -0.6908  0.3683 -0.0844
  516TIP3    H2 1513   5.859   0.082   4.585  0.0980  1.1343  0.5930
  517TIP3   OH2 1514   4.454   1.760   0.933  0.0379 -0.0328 -0.0853
  517TIP3    H1 1515   4.535   1.712   0.952 -1.1797 -2.4326 -0.5209
  517TIP3    H2 1516   4.465   1.791   0.843  0.3043 -0.7204 -0.2940
  518TIP3   OH2 1517   3.768   2.866   3.160 -0.0465  0.2075  0.5512
  518TIP3    H1 1518   3.835   2.930   3.135 -0.3724  0.2091 -0.3556
  518TIP3    H2 1519   3.738   2.828   3.077 -1.5792  0.6228  0.8730
  519TIP3   OH2 1520   4.872   1.937   0.537  0.1198  0.0279  0.0253
  519TIP3    H1 1521   4.955   1.903   0.504  0.4207 -0.6527  1.4142
  519TIP3    H2 1522   4.897   2.004   0.601 -0.4513  1.2593 -0.9697
  520TIP3   OH2 1523   0.045   0.305   4.223  0.1406 -0.9022 -0.7647
  520TIP3    H1 1524   0.016   0.392   4.248 -0.3710 -0.8829 -1.3837
  520TIP3    H2 1525  -0.030   0.249   4.240  1.2869 -1.7270  2.1214
  521TIP3   OH2 1526   1.343   1.465   3.821  0.1170 -0.2453 -0.0523
  521TIP3    H1 1527   1.387   1.550   3.825  0.7337 -0.5670  0.0668
  521TIP3    H2 1528   1.294   1.467   3.739 -0.1533  0.3574  0.1139
  522TIP3   OH2 1529   1.029   0.741   1.393  0.4726 -0.0714 -0.3813
  522TIP3    H1 1530   1.039   0.733   1.298 -0.8535 -1.2988 -0.4580
  522TIP3    H2 1531   0.944   0.783   1.404  1.8586  2.7866  0.2788
  523TIP3   OH2 1532   4.490   0.145   2.181 -0.1847  0.4429 -0.1599
  523TIP3    H1 1533   4.415   0.087   2.169  0.1604 -0.4006  1.4744
  523TIP3    H2 1534   4.563   0.086   2.198  0.8801  1.2517 -1.6393
  524TIP3   OH2 1535   4.398   6.749   0.557 -0.0560 -0.0918 -0.4721
  524TIP3    H1 1536   4.347   6.668   0.562 -0.3083  0.1236  1.6839
  524TIP3    H2 1537   4.466   6.731   0.492 -0.1132 -2.0444 -0.0524
  525TIP3   OH2 1538   3.927   5.178   4.315  0.0704 -0.4285 -0.0615
  525TIP3    H1 1539   3.876   5.172   4.234  1.6993 -1.8968 -1.0459
  525TIP3    H2 1540   4.018   5.180   4.286  0.6707  1.9066  1.6506
  526TIP3   OH2 1541   0.621   5.044   3.487  0.0689  0.1625 -0.8020
  526TIP3    H1 1542   0.684   5.026   3.418  0.7583 -0.8598  0.0677
  526TIP3    H2 1543   0.545   5.081   3.441  0.8412  0.3271 -1.9894
  527TIP3   OH2 1544   6.189   0.850   5.847  0.0366  0.5878  0.5013
  527TIP3    H1 1545   6.111   0.879   5.895 -0.2439 -0.4666  0.7060
  527TIP3    H2 1546   6.259   0.907   5.879 -0.7420  1.9119 -0.0805
  528TIP3   OH2 1547   2.519   0.412   3.054  0.1482 -0.1853  0.1810
  528TIP3    H1 1548   2.456   0.369   3.112 -1.3828  1.4148 -0.2091
  528TIP3    H2 1549   2.532   0.350   2.982  0.1257 -1.1361  0.9768
  529TIP3   OH2 1550   6.338   0.307   3.978  0.1222 -0.0170  0.2842
  529TIP3    H1 1551   6.254   0.260   3.982  0.4178 -0.6532 -0.7097
  529TIP3    H2 1552   6.314   0.399   3.964 -0.4683  0.2033  2.3643
  530TIP3   OH2 1553   6.947   2.118   4.131 -0.1565 -0.6479  0.3205
  530TIP3    H1 1554   6.995   2.200   4.138 -0.3157 -0.4142 -1.0833
  530TIP3    H2 1555   6.864   2.135   4.176  0.7838 -0.8743  2.2476
  531TIP3   OH2 1556   3.728   3.917   4.764 -0.1865  0.5192 -0.2242
  531TIP3    H1 1557   3.806   3.971   4.755 -0.6746  0.9825 -2.0925
  531TIP3    H2 1558   3.707   3.920   4.858  0.7853  2.1372 -0.0289
  532TIP3   OH2 1559   0.355   3.728   3.945  0.6365  0.1582 -0.1323
  532TIP3    H1 1560   0.361   3.784   4.023  1.8468  0.1295 -0.1940
  532TIP3    H2 1561   0.445   3.701   3.928  0.0027 -2.5760  0.4357
  533TIP3   OH2 1562   1.279   2.669   3.145 -0.3078 -0.3715  0.5455
  533TIP3    H1 1563   1.332   2.709   3.213  1.1240  0.0526 -0.7747
  533TIP3    H2 1564   1.315   2.702   3.063 -2.3126 -0.4415 -0.4387
  534TIP3   OH2 1565   0.263   5.945   4.130 -0.5217  0.2654 -0.1065
  534TIP3    H1 1566   0.325   5.874   4.114 -0.3311  0.5244 -0.5535
  534TIP3    H2 1567   0.314   6.011   4.177 -1.3673 -0.9659  2.7469
  535TIP3   OH2 1568   3.756   0.339   0.704 -0.2225  0.1448  0.0621
  535TIP3    H1 1569   3.798   0.407   0.756 -0.8594  0.2021  0.5182
  535TIP3    H2 1570   3.713   0.385   0.632 -1.6484  0.3721  1.0264
  536TIP3   OH2 1571   6.980   5.770   0.043 -0.0831 -0.5211  0.5264
  536TIP3    H1 1572   7.017   5.783   0.130  1.0865 -3.7263  0.6682
  536TIP3    H2 1573   7.047   5.719  -0.003 -0.4063  1.5469 -2.5142
  537TIP3   OH2 1574   1.107   6.251   3.225  0.0791  0.0202 -0.0474
  537TIP3    H1 1575   1.065   6.176   3.183 -0.8056  0.1691  0.5607
  537TIP3    H2 1576   1.040   6.319   3.225  0.2332  0.1814  1.1581
  538TIP3   OH2 1577   4.160   5.247   2.878 -0.5876  0.2909 -0.1199
  538TIP3    H1 1578   4.137   5.210   2.963  0.9775 -0.1523  0.1388
  538TIP3    H2 1579   4.162   5.342   2.893 -0.7764  0.2450  0.2053
  539TIP3   OH2 1580   1.368   5.236   0.011  0.4117  0.7751 -0.0655
  539TIP3    H1 1581   1.402   5.217   0.098 -0.7614  1.2995  0.5368
  539TIP3    H2 1582   1.390   5.159  -0.042  1.2466  0.5118  0.6515
  540TIP3   OH2 1583   5.652   5.741   1.982  0.2268 -0.1324 -0.4400
  540TIP3    H1 1584   5.744   5.767   1.992  0.1840 -0.2137  0.2038
  540TIP3    H2 1585   5.606   5.792   2.048 -0.2826  0.3402 -1.1468
  541TIP3   OH2 1586   4.620   5.325   2.262 -0.2597 -0.1930  0.3508
  541TIP3    H1 1587   4.570   5.377   2.325  2.4125  0.3033  2.2267
  541TIP3    H2 1588   4.649   5.389   2.196  0.2975  0.0886  0.8606
  542TIP3   OH2 1589   2.757   1.721   5.776 -0.1580 -0.4069 -0.4796
  542TIP3    H1 1590   2.780   1.725   5.869 -0.1540 -1.7216 -0.4107
  542TIP3    H2 1591   2.676   1.670   5.773 -0.5533  0.2322 -1.1484
  543TIP3   OH2 1592   3.584   3.400   1.864 -0.0285  0.0428  0.3589
  543TIP3    H1 1593   3.611   3.338   1.796 -0.4667 -1.0199  1.1305
  543TIP3    H2 1594   3.666   3.437   1.896  0.1717  0.7862 -0.9351
  544TIP3   OH2 1595   7.010   1.867   5.317 -0.3718  0.4756 -0.5282
  544TIP3    H1 1596   6.935   1.809   5.327 -0.0612  0.4562  2.7057
  544TIP3    H2 1597   6.973   1.955   5.328 -0.1329  0.5646 -0.4331
  545TIP3   OH2 1598   2.175   4.909   0.167 -0.4427 -0.0271  0.0296
  545TIP3    H1 1599   2.159   4.950   0.082 -1.0150  2.2394  1.1504
  545TIP3    H2 1600   2.269   4.916   0.180 -0.1798 -1.4431 -0.8714
  546TIP3   OH2 1601   5.477   5.209   0.136  0.0595  0.5124 -0.2446
  546TIP3    H1 1602   5.417   5.177   0.204  0.9331 -2.0713 -0.6185
  546TIP3    H2 1603   5.550   5.248   0.185 -0.5129  1.0203  0.2286
  547TIP3   OH2 1604   1.668   4.912   3.610  0.3725 -1.0524  0.2876
  547TIP3    H1 1605   1.621   4.830   3.595 -0.6829 -0.1999 -1.4021
  547TIP3    H2 1606   1.709   4.932   3.525  2.1063 -0.7085  1.1504
  548TIP3   OH2 1607   4.790   0.987   0.253 -0.5533  0.2533  0.4912
  548TIP3    H1 1608   4.741   0.948   0.181 -0.6002 -1.1151  1.2359
  548TIP3    H2 1609   4.741   1.066   0.275 -1.3420 -0.0749 -0.0449
  549TIP3   OH2 1610   4.961   2.688   5.594 -0.3735  0.4481 -0.0022
  549TIP3    H1 1611   5.046   2.651   5.616 -0.4120 -0.6344 -1.5080
  549TIP3    H2 1612   4.898   2.620   5.621 -0.5454  0.0187 -1.4015
  550TIP3   OH2 1613   1.313   2.276   3.325 -0.1664 -0.3363  0.0201
  550TIP3    H1 1614   1.366   2.330   3.267 -0.9808 -1.2281 -1.6399
  550TIP3    H2 1615   1.224   2.311   3.316 -0.3879 -0.8061  0.3290
  551TIP3   OH2 1616   3.294   5.082   4.505 -0.1328 -0.3083 -0.3346
  551TIP3    H1 1617   3.203   5.068   4.533 -0.6182  3.4439  0.4232
  551TIP3    H2 1618   3.329   5.145   4.568  2.4727 -0.3353 -1.6278
  552TIP3   OH2 1619   0.176   1.844   1.662 -0.6811 -0.0550 -0.1958
  552TIP3    H1 1620   0.167   1.894   1.581  0.0683  0.4150  0.0017
  552TIP3    H2 1621   0.238   1.894   1.714 -0.6422 -0.7051  0.3975
  553TIP3   OH2 1622   3.941   4.326   0.506 -0.0710 -0.0608  0.4309
  553TIP3    H1 1623   3.900   4.362   0.427 -2.1783 -2.4183  0.3437
  553TIP3    H2 1624   3.869   4.313   0.567  0.7251 -2.8880  0.9012
  554TIP3   OH2 1625   5.137   0.726   4.581 -0.5005  0.2253  0.4887
  554TIP3    H1 1626   5.205   0.659   4.582  0.8894  1.5718  0.9507
  554TIP3    H2 1627   5.182   0.805   4.611 -2.4508  1.0148  1.4633
  555TIP3   OH2 1628   5.078   4.054   3.108 -0.2786  0.2036 -0.3230
  555TIP3    H1 1629   5.046   4.083   3.193 -0.4261  0.4577 -0.4624
  555TIP3    H2 1630   5.045   4.119   3.047 -0.6802 -0.3083 -0.6557
  556TIP3   OH2 1631   2.183   4.379   1.218  0.1534  0.0118  0.0614
  556TIP3    H1 1632   2.171   4.319   1.293 -1.3997 -0.8584 -0.8311
  556TIP3    H2 1633   2.239   4.330   1.158 -0.7193 -0.3920 -0.4527
  557TIP3   OH2 1634   5.334   2.889   2.046  0.3926 -0.4337 -0.3882
  557TIP3    H1 1635   5.363   2.920   2.131 -1.0898 -1.0404  0.3810
  557TIP3    H2 1636   5.305   2.967   1.999  0.2200 -0.2131  0.0856
  558TIP3   OH2 1637   6.448   4.880   3.897  0.0015  0.1625 -0.1804
  558TIP3    H1 1638   6.475   4.959   3.944  1.1481 -0.4162  0.1919
  558TIP3    H2 1639   6.378   4.843   3.951  0.1304  0.4182  0.1690
  559TIP3   OH2 1640   0.772   4.571   0.341 -0.5938  0.1163  0.1874
  559TIP3    H1 1641   0.700   4.508   0.333 -1.3434  1.0350 -0.4777
  559TIP3    H2 1642   0.751   4.623   0.418  0.7810 -1.3557  1.6169
  560TIP3   OH2 1643   4.152   5.138   0.925 -0.2880 -0.6909  0.3461
  560TIP3    H1 1644   4.218   5.207   0.929  0.0042 -0.9029 -0.7058
  560TIP3    H2 1645   4.183   5.072   0.988 -0.7971  0.2965  1.6911
  561TIP3   OH2 1646   4.802   1.967   1.668 -0.0076  0.1089  0.6235
  561TIP3    H1 1647   4.866   1.926   1.726  1.9864  0.9670 -0.8731
  561TIP3    H2 1648   4.777   1.897   1.607  0.0547 -0.0314  0.7590
  562TIP3   OH2 1649   0.184   1.089   2.867  0.1745  0.5345 -0.2001
  562TIP3    H1 1650   0.230   1.071   2.950  2.3399  1.1454 -1.2058
  562TIP3    H2 1651   0.241   1.051   2.800 -1.7186 -0.2532 -1.4302
  563TIP3   OH2 1652   3.417   3.044   1.136 -0.8072 -0.2432 -0.0067
  563TIP3    H1 1653   3.438   3.096   1.059  0.7658  1.2069  1.2942
  563TIP3    H2 1654   3.383   3.108   1.199 -2.2976 -1.4213  0.4318
  564TIP3   OH2 1655   6.447   4.328   3.586 -0.5837  0.4092 -0.4960
  564TIP3    H1 1656   6.521   4.305   3.530 -1.7658 -1.1250 -1.5229
  564TIP3    H2 1657   6.458   4.273   3.663 -0.1024  0.9712 -0.1521
  565TIP3   OH2 1658   1.667   6.563   1.723 -0.3634  0.1988  0.9056
  565TIP3    H1 1659   1.712   6.602   1.648  0.1381 -0.5682  0.7951
  565TIP3    H2 1660   1.642   6.638   1.778 -0.0675  0.7165  0.3452
  566TIP3   OH2 1661   3.074   0.345   4.521 -0.0674  0.0692  0.2938
  566TIP3    H1 1662   2.990   0.314   4.552  0.4054  0.3381  1.9088
  566TIP3    H2 1663   3.052   0.414   4.458 -1.1589 -3.3565 -3.5690
  567TIP3   OH2 1664   3.065   0.890   5.223 -0.0880  0.3175  0.1251
  567TIP3    H1 1665   3.118   0.811   5.221  1.0528  1.0431 -2.1867
  567TIP3    H2 1666   3.125   0.960   5.193 -2.2075  1.1965 -2.4743
  568TIP3   OH2 1667   5.611   3.804   1.654  0.0588 -0.3773  0.3227
  568TIP3    H1 1668   5.616   3.728   1.712 -1.0888 -0.3963  0.4107
  568TIP3    H2 1669   5.566   3.772   1.576  1.2525 -0.2510 -0.4472
  569TIP3   OH2 1670   4.205   3.253   3.774 -0.1385 -0.0095 -0.4486
  569TIP3    H1 1671   4.256   3.268   3.853 -1.8317  0.8939  0.5281
  569TIP3    H2 1672   4.254   3.298   3.705  0.9244 -0.0932  0.2265
  570TIP3   OH2 1673   0.666   3.007   1.276 -0.3463 -0.2164 -0.2974
  570TIP3    H1 1674   0.756   2.979   1.295  0.0654  0.4873 -1.0976
  570TIP3    H2 1675   0.645   3.069   1.345 -0.0712 -0.1131 -0.3028
  571TIP3   OH2 1676   5.030   1.223   4.526 -0.0561  0.3013  0.4310
  571TIP3    H1 1677   5.075   1.181   4.599 -1.0045  1.0742  1.4978
  571TIP3    H2 1678   5.035   1.159   4.455  1.7736 -0.0472  0.8424
  572TIP3   OH2 1679   6.686   6.193   5.200  0.5094 -0.4972  0.1495
  572TIP3    H1 1680   6.725   6.230   5.121 -1.9921  1.9111 -0.1103
  572TIP3    H2 1681   6.721   6.247   5.271  2.0913 -2.1234  0.7049
  573TIP3   OH2 1682   1.906   2.040   0.581  0.1258  0.6330 -0.4598
  573TIP3    H1 1683   1.920   2.133   0.560 -2.2510  1.2308  0.3708
  573TIP3    H2 1684   1.821   2.037   0.624  0.5436 -1.8460  0.3490
  574TIP3   OH2 1685   2.659   2.310   5.078  0.2480  0.6662 -0.1504
  574TIP3    H1 1686   2.726   2.253   5.039 -0.2151 -0.4858  0.6849
  574TIP3    H2 1687   2.655   2.283   5.169  0.4230  2.4719  0.4148
  575TIP3   OH2 1688   4.620   3.435   0.389  0.2375  0.5782  0.3937
  575TIP3    H1 1689   4.703   3.482   0.397  0.1895  0.5495  1.2357
  575TIP3    H2 1690   4.554   3.502   0.406  0.0053  0.9125 -1.6636
  576TIP3   OH2 1691   1.163   5.291   1.649 -0.3919  0.4258 -0.8777
  576TIP3    H1 1692   1.160   5.345   1.570 -0.3896  1.5742 -0.1102
  576TIP3    H2 1693   1.078   5.305   1.691 -0.2096  0.2081 -0.4291
  577TIP3   OH2 1694   0.227   5.617   3.526  0.4158  0.1630 -0.1177
  577TIP3    H1 1695   0.268   5.652   3.605  0.1271 -0.5175  0.3406
  577TIP3    H2 1696   0.147   5.667   3.516 -1.1273 -1.7359  1.7771
  578TIP3   OH2 1697   6.513   3.656   4.938  0.0558  0.2022 -0.2175
  578TIP3    H1 1698   6.545   3.570   4.968 -0.3227 -0.3443 -1.3274
  578TIP3    H2 1699   6.421   3.640   4.915  0.6747  0.2071 -3.0497
  579TIP3   OH2 1700   1.420   3.151   2.438 -0.3064 -0.9515 -0.8221
  579TIP3    H1 1701   1.493   3.211   2.421 -0.9867  1.0200  2.4116
  579TIP3    H2 1702   1.455   3.088   2.501 -1.1878 -0.2933  0.3680
  580TIP3   OH2 1703   6.283   3.673   3.319  0.3640  0.0224 -0.4809
  580TIP3    H1 1704   6.321   3.643   3.236 -1.2886  0.9321 -1.6390
  580TIP3    H2 1705   6.251   3.593   3.361  1.0056 -0.4212 -0.8209
  581TIP3   OH2 1706   5.377   3.774   0.082  0.1222  0.7086  0.1389
  581TIP3    H1 1707   5.431   3.727   0.018 -0.1579  0.4384  0.1001
  581TIP3    H2 1708   5.349   3.853   0.035 -2.0005 -0.5966 -0.9042
  582TIP3   OH2 1709   2.198   4.533   3.014 -0.3908  0.5477  0.1316
  582TIP3    H1 1710   2.259   4.517   2.942 -1.9350  0.9584 -1.3434
  582TIP3    H2 1711   2.248   4.586   3.077  1.0966 -0.1047 -0.4631
  583TIP3   OH2 1712   6.058   5.924   0.963 -0.6025  0.7386  0.1279
  583TIP3    H1 1713   6.130   5.897   1.020 -0.0813 -1.9751 -1.6363
  583TIP3    H2 1714   5.996   5.967   1.021  0.7196 -0.2254  2.3833
  584TIP3   OH2 1715   3.925   1.924   0.197 -0.4705 -0.0457 -0.6067
  584TIP3    H1 1716   3.959   1.859   0.259  0.0587  1.4355  0.7210
  584TIP3    H2 1717   4.002   1.974   0.170 -1.3505  3.7072  2.8426
  585TIP3   OH2 1718   5.802   6.099   2.606  0.1549  0.0140 -0.0785
  585TIP3    H1 1719   5.843   6.172   2.559 -0.5201  0.1083 -0.5359
  585TIP3    H2 1720   5.772   6.039   2.537  0.7458 -0.7250  0.2941
  586TIP3   OH2 1721   2.753   0.141   5.530 -0.3557  0.0652  0.4039
  586TIP3    H1 1722   2.788   0.215   5.580  0.2166  0.6154 -0.7710
  586TIP3    H2 1723   2.824   0.117   5.470 -0.8331 -0.9193  0.2121
  587TIP3   OH2 1724   3.188   6.680   1.743  0.0935  0.0606 -0.0987
  587TIP3    H1 1725   3.220   6.632   1.820 -0.6708 -0.1617  0.0882
  587TIP3    H2 1726   3.263   6.730   1.713 -0.0311  1.4806  1.8065
  588TIP3   OH2 1727   6.578   3.747   2.629  0.2204  0.1939 -0.4349
  588TIP3    H1 1728   6.648   3.731   2.692 -0.0921  0.4815 -0.0125
  588TIP3    H2 1729   6.594   3.683   2.559  0.6070 -0.0795 -0.1021
  589TIP3   OH2 1730   3.288   5.073   4.194 -0.1846 -0.3535 -1.0129
  589TIP3    H1 1731   3.212   5.019   4.170 -1.3455  0.1718  1.2138
  589TIP3    H2 1732   3.331   5.024   4.264 -1.3041  1.5351  1.1115
  590TIP3   OH2 1733   4.003   2.763   2.075  0.2369  0.5090  0.0053
  590TIP3    H1 1734   4.011   2.680   2.123 -0.8794  0.2298 -0.2594
  590TIP3    H2 1735   4.092   2.799   2.075  0.2711  0.5960  2.4048
  591TIP3   OH2 1736   1.592   5.414   1.902 -0.2618  0.3848  0.5562
  591TIP3    H1 1737   1.657   5.413   1.972  2.7557 -0.0117 -1.9924
  591TIP3    H2 1738   1.567   5.322   1.891  0.5354  0.2073  0.1111
  592TIP3   OH2 1739   0.013   0.887   2.775 -0.1153 -0.0204 -0.0255
  592TIP3    H1 1740   0.059   0.967   2.798 -1.5908  1.5118 -2.0708
  592TIP3    H2 1741  -0.068   0.890   2.824 -0.5963  0.2338 -0.8247
  593TIP3   OH2 1742   2.247   5.392   1.333 -0.3630  0.0382 -0.3042
  593TIP3    H1 1743   2.328   5.401   1.383 -0.0471 -0.5436 -0.6925
  593TIP3    H2 1744   2.220   5.481   1.313  0.0798  0.2378 -0.0021
  594TIP3   OH2 1745   5.022   1.904   4.772  0.6756 -0.0190 -0.3097
  594TIP3    H1 1746   4.955   1.868   4.714 -0.2903 -0.5688  1.0766
  594TIP3    H2 1747   5.094   1.842   4.768  0.4930 -0.2120 -0.6754
  595TIP3   OH2 1748   4.193   2.474   0.743 -0.3661 -0.0946  0.7114
  595TIP3    H1 1749   4.237   2.519   0.671  1.5310 -0.4808  1.5828
  595TIP3    H2 1750   4.242   2.392   0.753 -1.2825 -0.5355  1.7413
  596TIP3   OH2 1751   5.512   2.882   4.295 -0.1729  0.1854 -0.0216
  596TIP3    H1 1752   5.420   2.900   4.314 -0.2922  1.0102 -1.2180
  596TIP3    H2 1753   5.548   2.967   4.269  0.0708 -0.6662 -2.8106
  597TIP3   OH2 1754   0.417   2.528   4.639 -0.3119 -0.1277 -0.2340
  597TIP3    H1 1755   0.396   2.596   4.576 -2.5094  0.5524  1.1326
  597TIP3    H2 1756   0.505   2.550   4.670  0.7244 -0.3534 -2.7937
  598TIP3   OH2 1757   3.206   0.908   4.640  0.2012 -0.2186  0.8951
  598TIP3    H1 1758   3.285   0.930   4.689  1.3679 -0.7275 -0.7025
  598TIP3    H2 1759   3.223   0.938   4.551 -1.3127 -0.5828  0.4516
  599TIP3   OH2 1760   1.717   5.829   0.646  0.3302 -0.1510 -0.0707
  599TIP3    H1 1761   1.768   5.867   0.718  1.2873  2.3682 -1.9174
  599TIP3    H2 1762   1.780   5.773   0.600  0.6810  0.7617 -0.7371
  600TIP3   OH2 1763   3.499   2.656   2.234 -0.4562  0.2165  0.3067
  600TIP3    H1 1764   3.499   2.627   2.326 -0.7791 -0.1475  0.1964
  600TIP3    H2 1765   3.547   2.588   2.187  2.0129  1.6559  0.5562
  601TIP3   OH2 1766   0.926   2.507   3.961 -0.0889 -0.0013 -0.4463
  601TIP3    H1 1767   0.899   2.505   3.869  1.5681  0.8505 -0.9901
  601TIP3    H2 1768   0.844   2.494   4.010 -1.2305  0.8639 -2.0131
  602TIP3   OH2 1769   5.307   1.285   5.269  0.0489 -0.6602  0.6842
  602TIP3    H1 1770   5.364   1.280   5.192  0.8519 -2.0161  1.3356
  602TIP3    H2 1771   5.239   1.220   5.253  0.4107 -1.1897  1.2544
  603TIP3   OH2 1772   5.980   2.042   1.244 -0.2766  0.6798 -0.3249
  603TIP3    H1 1773   6.033   2.122   1.241  1.5884 -0.4885 -0.4596
  603TIP3    H2 1774   6.004   2.001   1.327  0.6043 -0.8684 -1.3013
  604TIP3   OH2 1775   4.360   3.503   4.337  0.5290  0.1295  0.2611
  604TIP3    H1 1776   4.375   3.595   4.314  1.1475 -0.1795 -0.6212
  604TIP3    H2 1777   4.272   3.484   4.306  1.1441 -0.1240 -1.4091
  605TIP3   OH2 1778   6.167   4.956   3.528 -0.1052 -0.0523  0.0482
  605TIP3    H1 1779   6.240   4.904   3.494 -0.3527 -0.0243 -0.5424
  605TIP3    H2 1780   6.150   5.021   3.460  0.0351  0.6463  0.6727
  606TIP3   OH2 1781   1.871   0.908   4.506  0.0280 -0.0031  0.1676
  606TIP3    H1 1782   1.879   0.916   4.411  0.1234 -0.8404  0.1011
  606TIP3    H2 1783   1.849   0.816   4.521  1.0714 -0.1359  1.0184
  607TIP3   OH2 1784   3.879   6.446   5.341  0.0363  0.2499 -0.2351
  607TIP3    H1 1785   3.958   6.401   5.373 -1.5786 -1.2474  1.9426
  607TIP3    H2 1786   3.900   6.471   5.251  2.0778 -2.3895 -0.6003
  608TIP3   OH2 1787   4.315   6.406   0.354 -0.2622 -0.1538 -0.0991
  608TIP3    H1 1788   4.396   6.355   0.349  0.3417  0.8062 -0.4870
  608TIP3    H2 1789   4.321   6.468   0.281 -1.3254 -0.0298 -0.1025
  609TIP3   OH2 1790   1.479   2.071   5.311 -0.0504 -0.4636  0.1216
  609TIP3    H1 1791   1.501   2.023   5.391  1.3228 -1.0351 -0.5770
  609TIP3    H2 1792   1.549   2.051   5.250 -1.1775 -0.2046 -1.3283
  610TIP3   OH2 1793   4.924   2.366   4.749  0.0863 -0.2020  0.2781
  610TIP3    H1 1794   4.847   2.317   4.779  0.5685 -0.6839  0.7297
  610TIP3    H2 1795   4.887   2.443   4.705 -0.7370 -1.5611 -1.5542
  611TIP3   OH2 1796   6.248   5.590   4.056 -0.4124 -0.4083  0.0805
  611TIP3    H1 1797   6.210   5.655   3.997  0.1737 -1.5709 -1.6371
  611TIP3    H2 1798   6.336   5.623   4.074 -1.0121  0.5734  1.3478
  612TIP3   OH2 1799   5.737   3.269   1.752  0.2414 -0.1953 -0.2734
  612TIP3    H1 1800   5.692   3.242   1.672  1.9152  0.3858 -1.4615
  612TIP3    H2 1801   5.749   3.363   1.743  0.3068 -0.0896  0.7627
  613TIP3   OH2 1802   2.525   5.481   2.071  0.3640 -0.0140  0.0561
  613TIP3    H1 1803   2.618   5.466   2.054  0.3335  2.1225 -2.8058
  613TIP3    H2 1804   2.481   5.407   2.030  0.7211  0.9116 -2.1439
  614TIP3   OH2 1805   2.553   3.697   0.995 -0.4084 -0.2169  0.1312
  614TIP3    H1 1806   2.475   3.658   0.955  0.6876 -0.1105 -2.2752
  614TIP3    H2 1807   2.625   3.643   0.963  0.8371  1.7817 -0.6212
  615TIP3   OH2 1808   0.934   4.149   3.872 -0.3158 -0.0941  0.3676
  615TIP3    H1 1809   0.910   4.219   3.932 -0.1508 -0.1585  0.5078
  615TIP3    H2 1810   0.865   4.149   3.805 -1.1658 -0.8181  1.2188
  616TIP3   OH2 1811   3.746   0.542   3.538  0.0623  0.2596 -0.2600
  616TIP3    H1 1812   3.761   0.581   3.625  1.4570 -1.1208  0.1790
  616TIP3    H2 1813   3.700   0.460   3.557 -1.3630  0.8412 -1.0270
  617TIP3   OH2 1814   6.338   4.816   0.931  0.1012 -1.2366  0.8509
  617TIP3    H1 1815   6.369   4.805   0.841  1.2337 -2.0990  1.3283
  617TIP3    H2 1816   6.246   4.787   0.928 -0.0928 -0.5795 -0.1628
  618TIP3   OH2 1817   4.513   2.926   2.979 -0.6052 -0.0579  0.1061
  618TIP3    H1 1818   4.601   2.913   3.014 -1.6001 -0.6823  2.5765
  618TIP3    H2 1819   4.488   3.013   3.008  0.3502  1.6116 -3.4944
  619TIP3   OH2 1820   6.720   0.070   2.679  0.3614  0.6240  0.1580
  619TIP3    H1 1821   6.663   0.119   2.738 -1.2888 -1.2003  0.2073
  619TIP3    H2 1822   6.734   0.128   2.605  0.1247  1.8916  1.0793
  620TIP3   OH2 1823   2.738   2.496   0.335 -0.3359  0.5151  0.0695
  620TIP3    H1 1824   2.679   2.558   0.292 -0.2314 -0.0690 -0.9342
  620TIP3    H2 1825   2.691   2.413   0.335  1.0054 -0.3264 -2.0686
  621TIP3   OH2 1826   1.801   4.693   2.226  0.2475  0.0666 -0.1611
  621TIP3    H1 1827   1.777   4.704   2.318  0.2346  2.3678 -0.3984
  621TIP3    H2 1828   1.861   4.618   2.226 -1.8425 -1.7434  1.3055
  622TIP3   OH2 1829   6.004   0.857   5.491  0.4371 -0.3305 -0.0260
  622TIP3    H1 1830   6.036   0.771   5.463  0.1493 -0.4965  0.1482
  622TIP3    H2 1831   5.921   0.868   5.446  0.0380 -0.5414  0.6492
  623TIP3   OH2 1832   4.906   0.748   4.411  0.2202  0.1303  0.7646
  623TIP3    H1 1833   4.996   0.756   4.442  0.0920 -0.0396  1.1899
  623TIP3    H2 1834   4.914   0.725   4.319  0.6046  0.9808  0.5799
  624TIP3   OH2 1835   2.950   4.895   3.970  0.4834  0.3315 -0.5589
  624TIP3    H1 1836   2.909   4.973   3.933  2.2204  0.5012 -2.3328
  624TIP3    H2 1837   3.041   4.901   3.941  0.4823 -2.8194 -1.6031
  625TIP3   OH2 1838   2.436   2.106   5.147 -0.0684 -0.1031 -0.1456
  625TIP3    H1 1839   2.527   2.101   5.177  1.1152  0.2705 -3.3291
  625TIP3    H2 1840   2.436   2.062   5.062 -2.7227  0.6211 -0.6232
  626TIP3   OH2 1841   0.811   6.204   0.555  0.6097 -0.0542  0.4094
  626TIP3    H1 1842   0.785   6.236   0.469  0.6249  1.2185  0.8461
  626TIP3    H2 1843   0.889   6.256   0.577 -0.1457  0.5921  1.7198
  627TIP3   OH2 1844   2.941   4.313   1.099 -0.1012  0.5160  0.0183
  627TIP3    H1 1845   2.909   4.243   1.042  0.1194  1.0332 -0.7545
  627TIP3    H2 1846   2.934   4.393   1.045 -0.2182  1.0644  0.8331
  628TIP3   OH2 1847   5.071   6.349   3.719 -0.6001  0.1741  0.6112
  628TIP3    H1 1848   5.072   6.323   3.811 -0.9601  1.7266  1.0733
  628TIP3    H2 1849   4.979   6.344   3.694 -0.8005  1.8218  0.9630
  629TIP3   OH2 1850   3.333   4.626   5.248  0.0115 -0.2417  0.5156
  629TIP3    H1 1851   3.262   4.563   5.241 -0.9892  0.8746  0.3770
  629TIP3    H2 1852   3.412   4.575   5.230 -0.9834 -0.9437 -2.3531
  630TIP3   OH2 1853   5.246   6.740   2.392  0.1536 -0.4198  0.0094
  630TIP3    H1 1854   5.309   6.798   2.436  1.7232  1.5675 -4.2677
  630TIP3    H2 1855   5.164   6.755   2.438  0.7353  4.4079  0.0326
  631TIP3   OH2 1856   6.404   2.339   3.701 -0.0561 -0.1811  0.2168
  631TIP3    H1 1857   6.428   2.318   3.792 -1.7898 -1.6995  0.3862
  631TIP3    H2 1858   6.375   2.430   3.705 -0.9433 -0.4871  1.3894
  632TIP3   OH2 1859   5.373   1.632   4.034 -0.0722 -0.7183 -0.7861
  632TIP3    H1 1860   5.384   1.605   3.943 -1.3001  0.7009 -1.4129
  632TIP3    H2 1861   5.312   1.706   4.029 -2.1209 -2.1069  1.3931
  633TIP3   OH2 1862   3.626   0.841   4.547  0.6672  0.1371  0.2378
  633TIP3    H1 1863   3.698   0.854   4.609  0.8015 -0.3014  0.1744
  633TIP3    H2 1864   3.648   0.761   4.500  0.8470  0.7448 -0.7613
  634TIP3   OH2 1865   1.459   1.703   3.894 -0.6066 -0.5237 -0.6169
  634TIP3    H1 1866   1.551   1.724   3.908 -0.1728 -1.3523 -2.0639
  634TIP3    H2 1867   1.412   1.764   3.951  0.8262 -0.1370  0.1991
  635TIP3   OH2 1868   6.848   4.978   0.480  0.1561  0.0909 -0.2074
  635TIP3    H1 1869   6.866   5.065   0.515  1.1301 -0.1900  0.0282
  635TIP3    H2 1870   6.900   4.919   0.534 -1.3582 -0.7759  0.3642
  636TIP3   OH2 1871   5.224   3.215   0.338 -0.1742  0.0701  0.0224
  636TIP3    H1 1872   5.225   3.264   0.420 -3.2839 -2.0712  1.5414
  636TIP3    H2 1873   5.177   3.271   0.277  1.3466  1.2890 -0.0755
  637TIP3   OH2 1874   4.014   1.592   0.221  0.1198  0.3539  0.2294
  637TIP3    H1 1875   4.071   1.603   0.145 -0.4786 -1.3218 -0.5166
  637TIP3    H2 1876   4.018   1.676   0.267  0.6268  1.3505 -1.5592
  638TIP3   OH2 1877   3.211   5.680   2.083  0.3597  0.0556  0.1158
  638TIP3    H1 1878   3.202   5.585   2.072  0.1039  0.1589 -0.7131
  638TIP3    H2 1879   3.305   5.695   2.093  0.2460 -0.4837  2.6308
  639TIP3   OH2 1880   7.097   4.457   2.368 -0.4079  0.2578  0.2278
  639TIP3    H1 1881   7.062   4.368   2.370 -0.9701  0.4074 -1.3458
  639TIP3    H2 1882   7.120   4.471   2.276  0.0793  1.5846  0.5325
  640TIP3   OH2 1883   4.939   4.010   4.847 -0.4216  0.2409  0.8502
  640TIP3    H1 1884   4.942   3.916   4.868  0.7864  0.6144  2.5011
  640TIP3    H2 1885   4.851   4.038   4.875 -0.6754 -0.3249  0.6371
  641TIP3   OH2 1886   5.284   3.226   1.994  0.1740  0.5773  0.0297
  641TIP3    H1 1887   5.367   3.179   1.987  0.5486  1.3184 -0.6567
  641TIP3    H2 1888   5.309   3.318   2.001 -0.4946  0.6494  2.5717
  642TIP3   OH2 1889   0.626   6.138   0.099  0.0519 -0.4527  0.6484
  642TIP3    H1 1890   0.680   6.157   0.022 -1.3560  0.6567 -0.1102
  642TIP3    H2 1891   0.611   6.223   0.139 -0.7820 -0.7936  1.0844
  643TIP3   OH2 1892   4.143   5.091   0.469  0.6242  0.2051  0.5064
  643TIP3    H1 1893   4.129   4.998   0.452  1.0191  0.1318  0.5806
  643TIP3    H2 1894   4.086   5.111   0.543 -0.8786  0.4519 -0.6670
  644TIP3   OH2 1895   2.278   2.654   3.464  0.1271  0.3188 -0.5051
  644TIP3    H1 1896   2.223   2.729   3.440 -1.0339  0.1836  1.4618
  644TIP3    H2 1897   2.325   2.684   3.542 -0.6726 -1.1021  0.5611
  645TIP3   OH2 1898   1.480   5.823   5.123 -0.1459 -0.2171  0.1951
  645TIP3    H1 1899   1.404   5.881   5.135 -2.1412 -2.4060 -0.9367
  645TIP3    H2 1900   1.453   5.741   5.163  1.4326 -1.2469 -0.7648
  646TIP3   OH2 1901   3.889   1.743   0.919 -0.2019  0.4300  0.2358
  646TIP3    H1 1902   3.890   1.656   0.880 -2.3091  0.5220 -0.1727
  646TIP3    H2 1903   3.981   1.767   0.928  0.3926 -0.8313 -1.8882
  647TIP3   OH2 1904   6.579   1.155   3.989  0.7460  0.4262 -0.4948
  647TIP3    H1 1905   6.650   1.216   3.968  0.5025  1.7228  1.9982
  647TIP3    H2 1906   6.500   1.201   3.963  0.6534  0.4826 -0.1205
  648TIP3   OH2 1907   0.433   4.830   5.656 -0.1181 -0.3634  0.3032
  648TIP3    H1 1908   0.373   4.768   5.615 -0.4743  1.5240 -2.2860
  648TIP3    H2 1909   0.501   4.845   5.590  1.2737  0.2265  1.7983
  649TIP3   OH2 1910   0.505   3.131   1.501 -0.4841  0.4682  0.1254
  649TIP3    H1 1911   0.440   3.165   1.563  0.1318  0.6695  0.6775
  649TIP3    H2 1912   0.497   3.035   1.508  0.7038  0.4489  1.7764
  650TIP3   OH2 1913   1.573   3.776   5.316 -0.0265  0.2933 -0.0206
  650TIP3    H1 1914   1.651   3.723   5.304 -0.3111  0.0114 -0.7055
  650TIP3    H2 1915   1.528   3.772   5.231 -2.3833 -2.1241  1.1886
  651TIP3   OH2 1916   0.877   2.233   3.660 -0.1716  0.4121 -0.0140
  651TIP3    H1 1917   0.887   2.159   3.600  1.3805 -0.4728  1.2627
  651TIP3    H2 1918   0.799   2.212   3.711  0.9150 -1.0586  1.1785
  652TIP3   OH2 1919   4.857   1.446   4.204 -0.3129 -0.1409 -0.3294
  652TIP3    H1 1920   4.867   1.352   4.218  0.0231 -0.2080 -1.0156
  652TIP3    H2 1921   4.922   1.486   4.262 -0.2301 -0.3400 -0.2860
  653TIP3   OH2 1922   0.434   5.059   2.435  0.1061  0.2755 -0.3013
  653TIP3    H1 1923   0.430   5.152   2.409 -1.1371  0.2357 -0.3480
  653TIP3    H2 1924   0.382   5.014   2.368 -1.1145 -0.1570  0.8845
  654TIP3   OH2 1925   1.864   3.600   1.409 -0.2836 -0.3324 -0.3158
  654TIP3    H1 1926   1.921   3.655   1.357 -0.0248 -0.0574  0.2511
  654TIP3    H2 1927   1.894   3.511   1.392  0.0694 -0.2150 -0.3111
  655TIP3   OH2 1928   6.649   4.347   0.511 -0.5770  0.3157  0.0762
  655TIP3    H1 1929   6.647   4.377   0.602 -0.7211  1.5351 -0.3022
  655TIP3    H2 1930   6.559   4.322   0.492 -0.1935 -1.8222  0.8263
  656TIP3   OH2 1931   5.588   2.783   4.581  0.1691  0.0112 -0.2081
  656TIP3    H1 1932   5.529   2.810   4.512 -0.9861  1.4193  1.2670
  656TIP3    H2 1933   5.561   2.693   4.602 -0.4401  0.1089 -0.5574
  657TIP3   OH2 1934   4.139   5.428   3.864 -0.0423 -0.0969 -0.1198
  657TIP3    H1 1935   4.132   5.488   3.938  0.3390  0.0049 -0.1662
  657TIP3    H2 1936   4.222   5.383   3.877 -1.4423 -2.4813  1.3164
  658TIP3   OH2 1937   3.414   0.967   0.500  0.5699  0.0185  0.8611
  658TIP3    H1 1938   3.458   0.945   0.417  0.9237 -1.3062  1.3710
  658TIP3    H2 1939   3.421   1.062   0.506  0.1074  0.2051 -0.8649
  659TIP3   OH2 1940   5.925   4.594   5.166  0.1956  0.1876  0.2590
  659TIP3    H1 1941   5.890   4.530   5.105 -1.1336  0.3304  0.8495
  659TIP3    H2 1942   6.008   4.622   5.126  0.2429 -1.0403 -0.5613
  660TIP3   OH2 1943   1.467   2.789   3.811 -0.2213  0.1522 -0.2288
  660TIP3    H1 1944   1.442   2.855   3.746  0.5416 -0.1280 -0.8195
  660TIP3    H2 1945   1.544   2.826   3.855  0.1713 -0.3097 -0.5178
  661TIP3   OH2 1946   1.959   0.080   1.160  0.0651 -0.6294  0.4425
  661TIP3    H1 1947   2.029   0.056   1.099 -0.3076 -0.0791 -0.2015
  661TIP3    H2 1948   1.954   0.175   1.155 -2.5249 -0.7770 -1.5424
  662TIP3   OH2 1949   6.709   1.266   1.253  0.2238 -0.0271  0.4572
  662TIP3    H1 1950   6.749   1.353   1.243  3.3804 -1.5633 -2.1238
  662TIP3    H2 1951   6.744   1.233   1.335  1.2663  0.1577  0.1092
  663TIP3   OH2 1952   3.659   3.307   5.474  0.5021  0.9658  0.0576
  663TIP3    H1 1953   3.648   3.402   5.471 -2.7738  0.9673  3.4895
  663TIP3    H2 1954   3.588   3.272   5.421  1.0791  0.4235 -0.3764
  664TIP3   OH2 1955   0.631   5.674   4.173 -0.4566 -1.0087 -0.3536
  664TIP3    H1 1956   0.668   5.679   4.085  1.2434 -3.6224  0.1097
  664TIP3    H2 1957   0.558   5.613   4.165 -0.4138 -1.1139  0.0130
  665TIP3   OH2 1958   3.021   1.235   0.513  0.2346  0.5643  0.2422
  665TIP3    H1 1959   3.082   1.161   0.509 -0.9555 -0.4564  0.2574
  665TIP3    H2 1960   3.035   1.283   0.432 -0.5439 -0.9878 -0.8563
  666TIP3   OH2 1961   1.548   1.111   5.162  0.6974 -0.2059  0.2152
  666TIP3    H1 1962   1.583   1.182   5.108 -3.0538  0.8995 -1.0061
  666TIP3    H2 1963   1.548   1.146   5.251 -0.4247  1.1040 -0.2738
  667TIP3   OH2 1964   2.538   2.338   4.000  0.1967 -0.0757  0.4032
  667TIP3    H1 1965   2.449   2.311   4.022  0.6182 -0.0706  2.2588
  667TIP3    H2 1966   2.550   2.421   4.046  1.5765 -0.7119  1.2474
  668TIP3   OH2 1967   3.940   4.872   4.972  0.2537  0.2602 -0.2524
  668TIP3    H1 1968   3.905   4.804   4.914 -0.3078 -0.2391  0.6450
  668TIP3    H2 1969   3.896   4.952   4.944 -0.9685 -0.2066  0.2907
  669TIP3   OH2 1970   0.552   1.626   0.185 -0.4752  0.0115 -0.1359
  669TIP3    H1 1971   0.638   1.640   0.225 -0.6644  1.2831 -0.1448
  669TIP3    H2 1972   0.554   1.535   0.155  0.5352 -0.2449  0.6491
  670TIP3   OH2 1973   7.007   5.894   4.157 -0.3025 -0.1029  0.4266
  670TIP3    H1 1974   7.101   5.884   4.168 -0.0596  0.9117 -0.5806
  670TIP3    H2 1975   6.981   5.822   4.099 -0.2672 -0.7427  1.1885
  671TIP3   OH2 1976   7.102   0.769   5.075 -0.1996 -0.2965  0.3168
  671TIP3    H1 1977   7.101   0.734   4.986  0.8073  0.0382  0.1649
  671TIP3    H2 1978   7.151   0.704   5.125  0.7434  0.3639  0.2599
  672TIP3   OH2 1979   4.149   5.653   4.021  0.0851 -0.3306  0.4814
  672TIP3    H1 1980   4.076   5.696   4.066 -0.3026  1.1812 -1.4437
  672TIP3    H2 1981   4.209   5.627   4.091 -1.5516 -0.2039  2.0041
  673TIP3   OH2 1982   4.090   5.833   4.594  0.6533  0.1140 -0.3164
  673TIP3    H1 1983   4.058   5.888   4.523  1.5669  0.9270 -0.1225
  673TIP3    H2 1984   4.135   5.761   4.550  0.7427  0.3242 -0.5698
  674TIP3   OH2 1985   0.533   6.214   1.520  0.8418  0.0631  0.8034
  674TIP3    H1 1986   0.468   6.164   1.471  2.7906 -1.2322 -0.5895
  674TIP3    H2 1987   0.493   6.301   1.530 -0.9109 -0.5494 -0.3557
  675TIP3   OH2 1988   2.045   6.547   1.045 -0.1591  0.7742 -0.2791
  675TIP3    H1 1989   1.992   6.526   1.122 -1.9714 -0.2030 -1.7013
  675TIP3    H2 1990   2.084   6.632   1.066 -1.1131  0.8465  1.4527
  676TIP3   OH2 1991   0.997   1.392   4.876 -0.4629 -0.3281  0.3141
  676TIP3    H1 1992   1.075   1.346   4.843 -0.6175 -0.6783  0.4283
  676TIP3    H2 1993   0.984   1.465   4.816 -0.7798 -0.9991 -0.4446
  677TIP3   OH2 1994   6.304   1.223   5.743 -0.6061  0.0482 -0.3425
  677TIP3    H1 1995   6.258   1.259   5.667  0.8537  1.0830 -0.7680
  677TIP3    H2 1996   6.352   1.147   5.709  0.2828  0.6859 -0.5389
  678TIP3   OH2 1997   6.847   5.620   0.517 -0.0499 -0.0769 -0.4066
  678TIP3    H1 1998   6.787   5.554   0.482  0.2459  0.1464 -1.3773
  678TIP3    H2 1999   6.934   5.588   0.494  0.1522  0.1127  0.0811
  679TIP3   OH2 2000   1.322   4.079   2.957  0.1873  0.0313  0.2769
  679TIP3    H1 2001   1.229   4.082   2.980  0.1049 -2.4499  0.4994
  679TIP3    H2 2002   1.343   3.986   2.954  2.1721  0.4457 -1.8360
  680TIP3   OH2 2003   5.762   6.488   3.622 -0.1815 -0.1502 -0.6005
  680TIP3    H1 2004   5.711   6.563   3.651 -0.8582 -0.2662 -1.4439
  680TIP3    H2 2005   5.786   6.508   3.531  2.7824  0.6897  0.2480
  681TIP3   OH2 2006   4.684   2.644   4.479 -0.1895 -0.5573 -0.1884
  681TIP3    H1 2007   4.652   2.726   4.440 -0.3619  0.2936  1.6376
  681TIP3    H2 2008   4.726   2.671   4.560 -0.9980 -2.3605  0.8843
  682TIP3   OH2 2009   3.415   6.591   1.925  0.4601 -0.3588  0.4434
  682TIP3    H1 2010   3.401   6.532   1.999 -1.1735  0.6286  0.9942
  682TIP3    H2 2011   3.482   6.652   1.955  1.0407 -0.9981  0.4537
  683TIP3   OH2 2012   5.594   3.453   5.572 -0.0861 -0.6432 -0.0454
  683TIP3    H1 2013   5.646   3.423   5.646 -1.4036 -1.7501  0.4573
  683TIP3    H2 2014   5.529   3.512   5.611 -1.6847 -2.3136 -0.0557
  684TIP3   OH2 2015   5.923   2.508   1.242  0.3346  0.2151 -0.7500
  684TIP3    H1 2016   5.934   2.597   1.276 -2.9854  0.2368  0.7428
  684TIP3    H2 2017   5.831   2.504   1.215  0.3278 -2.8001 -0.6530
  685TIP3   OH2 2018   2.884   0.994   0.930  0.4066 -0.1936 -0.4273
  685TIP3    H1 2019   2.915   1.034   1.012  1.2924  0.9660 -1.2987
  685TIP3    H2 2020   2.887   0.900   0.947  1.9202 -0.0276  0.4263
  686TIP3   OH2 2021   6.572   4.051   0.850  0.1057  0.2137  0.4436
  686TIP3    H1 2022   6.667   4.044   0.859  0.0878  0.9750  1.3478
  686TIP3    H2 2023   6.556   4.039   0.756  1.0750 -0.0559  0.2989
  687TIP3   OH2 2024   4.440   1.212   1.104 -0.0725 -0.5261  0.3123
  687TIP3    H1 2025   4.529   1.245   1.118 -0.4395  1.5236 -1.6713
  687TIP3    H2 2026   4.383   1.280   1.138 -0.8691 -0.6002 -0.8195
  688TIP3   OH2 2027   2.156   4.941   4.746  0.2125 -0.3328  0.0555
  688TIP3    H1 2028   2.080   4.903   4.702 -0.6629 -0.4985  1.6560
  688TIP3    H2 2029   2.133   5.032   4.761 -0.5495 -0.8482  2.3296
  689TIP3   OH2 2030   7.096   1.850   1.657  0.1477 -0.0182 -0.1444
  689TIP3    H1 2031   7.192   1.855   1.653  0.1438  0.6732  0.5218
  689TIP3    H2 2032   7.075   1.766   1.614  1.0745 -0.3823  0.0868
  690TIP3   OH2 2033   5.718   3.909   4.914  0.0392 -0.3964 -0.4461
  690TIP3    H1 2034   5.745   3.851   4.986 -0.4691 -1.6537 -1.2268
  690TIP3    H2 2035   5.708   3.850   4.839  3.2487  1.1840 -2.3639
  691TIP3   OH2 2036   0.270   3.728   4.697  0.3099 -0.1009  0.5715
  691TIP3    H1 2037   0.256   3.810   4.649 -0.5033 -0.8167 -0.4495
  691TIP3    H2 2038   0.212   3.665   4.655  1.9915 -1.5968  0.3620
  692TIP3   OH2 2039   4.844   4.824   1.331  0.1902  0.2603  0.0501
  692TIP3    H1 2040   4.877   4.754   1.274 -0.4859  0.3945 -0.5172
  692TIP3    H2 2041   4.749   4.816   1.326  0.1129  0.9677  0.3063
  693TIP3   OH2 2042   3.704   1.358   5.344  0.6383  0.0391 -0.0791
  693TIP3    H1 2043   3.705   1.322   5.256  0.0633  0.7367 -0.3818
  693TIP3    H2 2044   3.753   1.295   5.397  1.6825  0.0209 -1.0460
  694TIP3   OH2 2045   4.542   5.860   4.120  0.4676 -0.0074 -0.5054
  694TIP3    H1 2046   4.486   5.840   4.195  1.2704  0.7275  0.3166
  694TIP3    H2 2047   4.486   5.909   4.060 -1.2972 -3.6484 -2.1733
  695TIP3   OH2 2048   1.424   3.137   5.184  0.3507  0.1550  0.0582
  695TIP3    H1 2049   1.369   3.084   5.126  1.1461 -0.8300  0.1797
  695TIP3    H2 2050   1.362   3.176   5.246 -0.5636  1.5202 -1.6109
  696TIP3   OH2 2051   1.441   6.002   1.028 -0.1834  0.1062 -0.3058
  696TIP3    H1 2052   1.419   5.990   1.120 -2.2040  1.3656 -0.5608
  696TIP3    H2 2053   1.479   6.089   1.023  1.4409 -0.5784 -0.4653
  697TIP3   OH2 2054   2.436   1.779   0.567 -0.2460 -0.2062 -0.2371
  697TIP3    H1 2055   2.497   1.830   0.620 -0.4771 -2.5085  2.4812
  697TIP3    H2 2056   2.352   1.790   0.611 -0.7726 -1.0459 -0.9998
  698TIP3   OH2 2057   7.068   4.340   1.043  0.0831  0.0180  0.0936
  698TIP3    H1 2058   7.040   4.253   1.017  1.0074 -0.2751  0.0257
  698TIP3    H2 2059   6.991   4.380   1.082  0.0628 -1.4336  1.6515
  699TIP3   OH2 2060   7.048   2.660   2.691 -0.5651 -0.5828  0.1528
  699TIP3    H1 2061   7.011   2.747   2.708 -1.0111 -0.3992 -1.5449
  699TIP3    H2 2062   7.088   2.668   2.604  2.1828 -1.2137  1.2384
  700TIP3   OH2 2063   6.148   4.949   5.541  0.2630 -0.0720  0.1920
  700TIP3    H1 2064   6.193   5.023   5.581 -0.0560  0.3375 -0.2049
  700TIP3    H2 2065   6.134   4.888   5.614 -0.9694  0.9773  0.8635
  701TIP3   OH2 2066   5.216   0.610   4.846  0.5874  0.2560 -0.2412
  701TIP3    H1 2067   5.197   0.666   4.771 -1.6207 -0.2471 -0.1469
  701TIP3    H2 2068   5.259   0.534   4.808  3.4412  1.8152 -0.3941
  702TIP3   OH2 2069   2.287   5.601   0.872  0.2592 -0.8021 -0.6498
  702TIP3    H1 2070   2.273   5.648   0.790  0.1144 -0.5059 -0.4556
  702TIP3    H2 2071   2.248   5.656   0.939  0.3924 -1.0340 -0.3764
  703TIP3   OH2 2072   2.133   1.555   4.430 -0.8040  0.6987  0.4887
  703TIP3    H1 2073   2.180   1.544   4.347 -0.9146  0.4946  0.4534
  703TIP3    H2 2074   2.198   1.594   4.489 -0.9776  1.6764  0.0567
  704TIP3   OH2 2075   5.898   2.064   0.313 -0.1596  0.5319 -0.4490
  704TIP3    H1 2076   5.964   2.019   0.261  0.4980  0.2446  0.6008
  704TIP3    H2 2077   5.847   1.993   0.353  0.3706  0.7101  0.5736
  705TIP3   OH2 2078   7.013   4.716   3.764 -0.2177 -0.1352  0.2369
  705TIP3    H1 2079   6.948   4.777   3.798  0.0639  0.4039 -0.1688
  705TIP3    H2 2080   6.983   4.630   3.793 -0.6528  0.1891  0.7685
  706TIP3   OH2 2081   6.147   4.127   2.486 -0.0796  0.5048 -0.2505
  706TIP3    H1 2082   6.115   4.141   2.575  0.7078 -0.6977  0.2451
  706TIP3    H2 2083   6.204   4.201   2.468 -0.8270  1.1373 -0.0441
  707TIP3   OH2 2084   3.802   3.428   1.277  0.6007  0.7574 -0.2454
  707TIP3    H1 2085   3.838   3.461   1.195  0.6681  0.9777 -0.1282
  707TIP3    H2 2086   3.708   3.425   1.263  0.6680  0.0682 -0.5950
  708TIP3   OH2 2087   6.105   3.957   0.423  0.0660  0.6288  0.3037
  708TIP3    H1 2088   6.090   4.051   0.415 -1.0288  0.4431  0.1466
  708TIP3    H2 2089   6.145   3.932   0.339 -1.8895  0.5321 -0.6452
  709TIP3   OH2 2090   3.880   2.899   4.270 -0.0177 -0.0316 -0.6754
  709TIP3    H1 2091   3.854   2.906   4.362 -2.0398 -0.3721 -1.1886
  709TIP3    H2 2092   3.974   2.881   4.273  0.1090  0.7365  1.2978
  710TIP3   OH2 2093   1.863   0.488   0.157  0.0951 -0.0865  0.2113
  710TIP3    H1 2094   1.906   0.571   0.134  1.5506 -0.6007  0.9893
  710TIP3    H2 2095   1.889   0.471   0.247  0.3425 -1.7126 -0.1367
  711TIP3   OH2 2096   0.382   5.292   0.110  0.0058 -0.0426  0.3156
  711TIP3    H1 2097   0.366   5.199   0.125 -0.4175  0.3332  2.4212
  711TIP3    H2 2098   0.475   5.304   0.131  0.7295 -0.3741 -2.3047
  712TIP3   OH2 2099   0.932   1.018   1.219 -0.0904 -0.2705 -0.6727
  712TIP3    H1 2100   0.917   0.990   1.310  0.0660 -0.0005 -0.5610
  712TIP3    H2 2101   0.999   1.087   1.226 -0.9749  0.6365 -0.8604
  713TIP3   OH2 2102   0.272   5.611   5.366  0.4838 -0.6147  0.2992
  713TIP3    H1 2103   0.241   5.572   5.284  0.9604 -0.3843  0.0055
  713TIP3    H2 2104   0.282   5.536   5.426  1.4757 -0.9649 -0.2881
  714TIP3   OH2 2105   4.557   6.261   2.895 -0.0358  0.9161  0.2468
  714TIP3    H1 2106   4.569   6.167   2.903 -1.2104  0.8639  1.6818
  714TIP3    H2 2107   4.589   6.297   2.978 -1.8783  1.5171  0.7389
  715TIP3   OH2 2108   7.105   3.931   1.200 -0.8233  1.2407 -0.1283
  715TIP3    H1 2109   7.154   3.899   1.275 -0.5390  1.1800 -0.3407
  715TIP3    H2 2110   7.166   3.988   1.153  0.0508 -1.0873 -2.0198
  716TIP3   OH2 2111   1.655   1.677   0.180 -0.4397 -0.0634  0.2662
  716TIP3    H1 2112   1.709   1.737   0.232 -1.6153  1.2385  0.0199
  716TIP3    H2 2113   1.696   1.592   0.193  2.3459  0.9966 -0.7575
  717TIP3   OH2 2114   1.443   5.430   0.452 -0.0860  0.0300  0.1489
  717TIP3    H1 2115   1.447   5.526   0.444 -1.0142  0.2457  1.7775
  717TIP3    H2 2116   1.353   5.408   0.428  0.4215 -0.5892 -1.2834
  718TIP3   OH2 2117   6.299   5.072   2.146 -0.4901  0.2317 -0.0522
  718TIP3    H1 2118   6.345   4.990   2.164 -0.8845  0.2278  1.0066
  718TIP3    H2 2119   6.244   5.086   2.223  1.5940  2.9161  1.1492
  719TIP3   OH2 2120   5.546   1.789   1.017  0.6468 -0.2023 -0.1794
  719TIP3    H1 2121   5.535   1.856   1.084 -0.7029 -0.4514 -0.1419
  719TIP3    H2 2122   5.525   1.707   1.060  0.6809 -0.4682 -0.6607
  720TIP3   OH2 2123   6.358   0.261   0.521  0.1374  0.1427 -0.1593
  720TIP3    H1 2124   6.280   0.214   0.492  0.5947 -0.5520 -0.2804
  720TIP3    H2 2125   6.431   0.208   0.489  0.6566 -0.0281  1.2623
  721TIP3   OH2 2126   6.585   5.687   2.493  0.5694  0.4368  0.5288
  721TIP3    H1 2127   6.658   5.625   2.495  0.3040  0.1027  0.0973
  721TIP3    H2 2128   6.510   5.636   2.522  0.3450  0.5508  0.1555
  722TIP3   OH2 2129   4.393   2.414   2.345 -0.2121  0.2095  0.1275
  722TIP3    H1 2130   4.326   2.360   2.386 -0.6471  0.7043  0.0826
  722TIP3    H2 2131   4.400   2.379   2.256 -0.6903  0.3977  0.0113
  723TIP3   OH2 2132   6.016   3.704   3.717 -0.0037  0.0672 -0.5328
  723TIP3    H1 2133   6.087   3.760   3.686  0.7086 -0.9269 -0.7604
  723TIP3    H2 2134   5.939   3.761   3.719  1.0819  1.5572  1.1565
  724TIP3   OH2 2135   0.703   5.436   2.986  0.1315  0.1625  0.1833
  724TIP3    H1 2136   0.726   5.344   3.004 -0.9987 -0.1055  0.3152
  724TIP3    H2 2137   0.622   5.450   3.034  0.6074  1.4209  0.6402
  725TIP3   OH2 2138   3.058   1.506   4.621  0.0041  0.4994 -0.3852
  725TIP3    H1 2139   2.995   1.577   4.609  1.0817  1.3289 -1.3817
  725TIP3    H2 2140   3.110   1.532   4.697 -1.3886 -0.6386  1.0314
  726TIP3   OH2 2141   2.782   4.243   1.765  0.2302 -0.1052 -0.3920
  726TIP3    H1 2142   2.707   4.285   1.806  2.6091  2.4583  1.7069
  726TIP3    H2 2143   2.800   4.167   1.819 -0.6099 -0.5422 -0.7124
  727TIP3   OH2 2144   1.004   3.171   0.278 -0.5858  0.1342 -0.8644
  727TIP3    H1 2145   1.092   3.133   0.276 -1.3781 -1.9659  0.6000
  727TIP3    H2 2146   1.010   3.240   0.344 -0.4375 -1.2847  0.6851
  728TIP3   OH2 2147   2.525   6.363   4.465 -0.1535  0.2689 -0.2292
  728TIP3    H1 2148   2.467   6.423   4.419  0.7524  2.1849  0.9929
  728TIP3    H2 2149   2.591   6.339   4.400 -0.9005  0.0539 -0.9180
  729TIP3   OH2 2150   2.487   4.320   2.627  0.7323 -0.0605 -0.3645
  729TIP3    H1 2151   2.468   4.345   2.718  0.0858  1.3658 -0.8492
  729TIP3    H2 2152   2.546   4.389   2.596 -0.9600  0.8662 -1.7117
  730TIP3   OH2 2153   1.137   4.559   3.137  0.0800 -0.1125  0.1499
  730TIP3    H1 2154   1.183   4.633   3.097 -1.0956  1.2174  1.1414
  730TIP3    H2 2155   1.171   4.555   3.226 -1.8259  1.1028  1.0108
  731TIP3   OH2 2156   6.652   6.583   1.132 -0.6613 -0.1085  0.3036
  731TIP3    H1 2157   6.571   6.539   1.108 -1.3596  0.8341  0.8559
  731TIP3    H2 2158   6.674   6.547   1.219 -0.7388 -0.0317  0.3552
  732TIP3   OH2 2159   2.468   1.456   0.787  0.3285 -0.3416 -0.5268
  732TIP3    H1 2160   2.423   1.420   0.863 -0.8432  0.4806 -0.8106
  732TIP3    H2 2161   2.465   1.551   0.800  0.6707 -0.2198 -1.2894
  733TIP3   OH2 2162   6.751   0.934   5.408  0.0826  0.2778  0.5175
  733TIP3    H1 2163   6.790   0.977   5.485 -0.2148  1.1120  0.2188
  733TIP3    H2 2164   6.697   1.002   5.368  0.0943 -0.2024 -0.3347
  734TIP3   OH2 2165   3.811   5.298   1.237 -0.4207  0.1863 -0.1786
  734TIP3    H1 2166   3.785   5.294   1.329  0.6658 -1.1714  0.0968
  734TIP3    H2 2167   3.802   5.391   1.214 -0.1271  0.6561  1.4602
  735TIP3   OH2 2168   3.865   5.300   4.563  0.0533  0.6658 -0.1605
  735TIP3    H1 2169   3.901   5.246   4.492 -0.5561  0.7028 -0.5044
  735TIP3    H2 2170   3.781   5.259   4.584  0.6322  0.1038  1.1899
  736TIP3   OH2 2171   2.941   0.957   2.226 -0.4956 -0.4833  0.0907
  736TIP3    H1 2172   2.875   0.914   2.281  0.0747 -0.4849  0.7837
  736TIP3    H2 2173   2.991   1.011   2.286  1.0034 -1.5165 -0.1736
  737TIP3   OH2 2174   4.114   1.881   2.245  0.4536 -0.1257 -0.1901
  737TIP3    H1 2175   4.177   1.827   2.198 -0.3817  0.6448 -2.3419
  737TIP3    H2 2176   4.121   1.967   2.204 -1.1584  0.2712  0.2981
  738TIP3   OH2 2177   3.684   6.419   4.973 -0.3304  0.8036  0.0344
  738TIP3    H1 2178   3.614   6.417   5.038 -0.9606  0.2316 -0.6465
  738TIP3    H2 2179   3.751   6.476   5.012 -0.9241  0.9076  0.9378
  739TIP3   OH2 2180   4.975   5.238   3.418 -0.1864 -0.1672 -0.2687
  739TIP3    H1 2181   4.930   5.154   3.428  0.5096 -0.7914 -2.0277
  739TIP3    H2 2182   4.960   5.263   3.326  0.2936  1.2490  0.0064
  740TIP3   OH2 2183   2.864   5.095   4.877  0.9622  0.0642  0.0993
  740TIP3    H1 2184   2.841   5.080   4.969  0.0148  0.5067 -0.0512
  740TIP3    H2 2185   2.787   5.067   4.828 -0.1423  3.3476 -0.3111
  741TIP3   OH2 2186   2.341   4.902   2.575 -0.3220 -0.0257 -0.0319
  741TIP3    H1 2187   2.280   4.915   2.502 -1.5421  3.8277  1.4039
  741TIP3    H2 2188   2.420   4.950   2.550  0.7993 -1.9297 -0.3368
  742TIP3   OH2 2189   4.079   2.202   3.958 -0.3629 -0.2452  0.1661
  742TIP3    H1 2190   3.991   2.166   3.947 -1.2105  1.5700  0.5702
  742TIP3    H2 2191   4.083   2.274   3.895  0.4056  0.4166  0.9522
  743TIP3   OH2 2192   5.010   2.085   2.782  0.2596 -0.3642 -0.6858
  743TIP3    H1 2193   5.044   2.119   2.699  0.4510 -1.1454 -0.9342
  743TIP3    H2 2194   4.916   2.079   2.768  0.3492 -1.0072 -1.0411
  744TIP3   OH2 2195   4.552   5.955   1.746 -0.1822 -0.2235  0.0630
  744TIP3    H1 2196   4.603   5.893   1.693  0.5942 -0.8632  1.4904
  744TIP3    H2 2197   4.461   5.933   1.728  0.0587 -0.4549 -0.9506
  745TIP3   OH2 2198   4.325   4.465   3.171  0.5412  0.2165  0.1085
  745TIP3    H1 2199   4.266   4.482   3.244 -1.1861 -2.5960 -0.4955
  745TIP3    H2 2200   4.412   4.491   3.203 -0.6732  2.7636  1.6652
  746TIP3   OH2 2201   2.412   1.588   1.680  0.1742  0.8597  0.3462
  746TIP3    H1 2202   2.417   1.681   1.704  1.7799  0.7507  0.5507
  746TIP3    H2 2203   2.446   1.584   1.591 -1.2958  0.6325 -0.2356
  747TIP3   OH2 2204   1.762   4.150   1.063 -0.3473  0.0376  0.3571
  747TIP3    H1 2205   1.670   4.124   1.060 -0.3148 -0.0216 -2.7239
  747TIP3    H2 2206   1.807   4.086   1.008  1.2812  1.0840  0.4098
  748TIP3   OH2 2207   3.506   1.094   4.109  0.4945 -0.7448 -0.0159
  748TIP3    H1 2208   3.465   1.177   4.131  3.0932  0.8766 -0.8447
  748TIP3    H2 2209   3.524   1.100   4.015  0.1080 -2.5764 -0.2505
  749TIP3   OH2 2210   4.568   2.317   4.147  0.0847  0.8163  0.0510
  749TIP3    H1 2211   4.582   2.352   4.059 -0.7323 -0.8394 -0.7680
  749TIP3    H2 2212   4.482   2.277   4.144  0.3022  0.1796  1.4425
  750TIP3   OH2 2213   0.770   3.090   5.180  0.4226  0.1175 -0.4004
  750TIP3    H1 2214   0.795   3.028   5.111  0.9548 -0.0986 -0.0230
  750TIP3    H2 2215   0.756   3.035   5.257  0.6002  0.4304 -0.1414
  751TIP3   OH2 2216   2.912   1.981   0.418  0.0587 -0.7030 -0.4474
  751TIP3    H1 2217   2.836   1.929   0.392 -1.6495  1.2277  0.3977
  751TIP3    H2 2218   2.940   2.023   0.338  0.1073 -1.2488 -0.7241
  752TIP3   OH2 2219   5.761   3.535   5.247 -0.1533  0.1309 -0.4594
  752TIP3    H1 2220   5.814   3.565   5.321  0.9789  0.1713 -1.2534
  752TIP3    H2 2221   5.735   3.446   5.270  0.2906  0.0984 -0.0652
  753TIP3   OH2 2222   5.540   1.094   1.665 -0.4140 -0.8989 -0.1855
  753TIP3    H1 2223   5.465   1.124   1.716  0.4063  1.0975 -0.0368
  753TIP3    H2 2224   5.601   1.060   1.730  0.4600  1.2709  0.2177
  754TIP3   OH2 2225   2.664   4.786   2.630 -0.4595 -0.6552  0.6292
  754TIP3    H1 2226   2.597   4.790   2.699  0.4693  0.5031  1.5147
  754TIP3    H2 2227   2.638   4.855   2.568 -0.5424 -0.7725  0.5330
  755TIP3   OH2 2228   2.103   6.756   5.470 -0.2700  0.4559  0.1999
  755TIP3    H1 2229   2.053   6.680   5.498 -1.5930  1.0107 -0.5669
  755TIP3    H2 2230   2.157   6.724   5.397  1.2603 -0.3644  1.6123
  756TIP3   OH2 2231   3.739   4.873   5.469 -0.4551 -0.1919 -0.0278
  756TIP3    H1 2232   3.748   4.967   5.457 -0.8593 -0.0347  0.7919
  756TIP3    H2 2233   3.647   4.861   5.492 -0.5887 -0.8772 -0.8811
  757TIP3   OH2 2234   2.204   3.748   3.238 -0.0622  0.6049 -0.0432
  757TIP3    H1 2235   2.136   3.807   3.207 -0.8849 -0.0102  0.5496
  757TIP3    H2 2236   2.229   3.781   3.324 -0.3235  0.2570  0.1683
  758TIP3   OH2 2237   4.722   1.053   0.614  0.3506  0.6141 -0.6531
  758TIP3    H1 2238   4.770   0.985   0.568  1.2579  0.0361  1.0847
  758TIP3    H2 2239   4.630   1.038   0.591  0.5957 -0.8606 -0.7091
  759TIP3   OH2 2240   0.878   5.352   4.687 -0.0983 -0.2420 -0.9239
  759TIP3    H1 2241   0.938   5.413   4.645  0.3025 -0.9028 -1.3319
  759TIP3    H2 2242   0.934   5.300   4.745 -0.1601 -1.2607 -1.7479
  760TIP3   OH2 2243   2.698   1.152   1.545 -0.1743 -1.1342 -0.4966
  760TIP3    H1 2244   2.700   1.243   1.516 -1.2238 -1.2011 -0.7885
  760TIP3    H2 2245   2.790   1.132   1.565  0.1412 -0.1814 -0.9310
  761TIP3   OH2 2246   0.176   5.773   5.583  0.2362  0.2086  0.1910
  761TIP3    H1 2247   0.198   5.709   5.514 -0.8746  0.2961 -0.2710
  761TIP3    H2 2248   0.231   5.748   5.657  3.2747  1.5713 -1.4583
  762TIP3   OH2 2249   1.498   4.747   4.530  0.4003  0.1759 -0.5411
  762TIP3    H1 2250   1.467   4.657   4.521 -0.6966  0.4368  0.2735
  762TIP3    H2 2251   1.463   4.775   4.615 -0.1334  1.6830 -1.2123
  763TIP3   OH2 2252   1.303   4.282   4.824 -0.5737  0.1220  0.2634
  763TIP3    H1 2253   1.248   4.205   4.810 -0.8430  0.0554  1.5712
  763TIP3    H2 2254   1.243   4.350   4.854 -0.4349  1.0532 -1.4111
  764TIP3   OH2 2255   6.862   2.145   1.062  0.1965 -0.7876 -0.0363
  764TIP3    H1 2256   6.865   2.096   1.145  0.0874  0.0137  0.4495
  764TIP3    H2 2257   6.799   2.098   1.008 -0.5005 -0.7273  0.7196
  765TIP3   OH2 2258   5.838   5.511   2.165  0.0266 -0.1082 -0.3600
  765TIP3    H1 2259   5.796   5.586   2.208  1.4766  1.5099 -1.5685
  765TIP3    H2 2260   5.770   5.473   2.110 -0.2971  1.5414 -1.1683
  766TIP3   OH2 2261   6.685   1.849   1.902 -0.2279  0.1965  0.0252
  766TIP3    H1 2262   6.698   1.872   1.994 -2.1903  0.1184  0.3619
  766TIP3    H2 2263   6.728   1.919   1.854 -1.1712  1.5099  1.0245
  767TIP3   OH2 2264   0.040   0.311   1.808  0.2052  0.3115  0.0492
  767TIP3    H1 2265  -0.031   0.293   1.870  0.4718  0.7983  0.5065
  767TIP3    H2 2266   0.066   0.225   1.776  0.4884 -0.0096  1.1066
  768TIP3   OH2 2267   6.383   1.296   2.500  0.2524  0.2140 -0.9192
  768TIP3    H1 2268   6.388   1.200   2.505  1.1437  0.2711 -0.6399
  768TIP3    H2 2269   6.383   1.325   2.591 -0.0903  0.4837 -1.0013
  769TIP3   OH2 2270   4.976   2.331   5.817 -0.5929  0.1119 -0.0482
  769TIP3    H1 2271   4.954   2.351   5.908 -0.2695 -0.1306  0.0856
  769TIP3    H2 2272   4.905   2.370   5.766 -0.1918  1.2379  0.2269
  770TIP3   OH2 2273   6.637   6.274   4.874  0.2070  0.0548  0.1160
  770TIP3    H1 2274   6.568   6.340   4.881 -0.4895 -0.2162 -2.8011
  770TIP3    H2 2275   6.590   6.191   4.866  0.9540 -0.3649 -0.0012
  771TIP3   OH2 2276   3.690   5.867   2.481 -0.7648 -0.4552 -0.1175
  771TIP3    H1 2277   3.668   5.925   2.554  0.2546 -0.0560 -0.1071
  771TIP3    H2 2278   3.610   5.862   2.430 -0.8624  1.0884 -0.1820
  772TIP3   OH2 2279   4.120   0.269   1.570 -0.3319 -0.2559  0.1634
  772TIP3    H1 2280   4.043   0.320   1.597 -0.1619 -0.1546  0.4631
  772TIP3    H2 2281   4.134   0.207   1.642 -0.6886 -0.8978 -0.3115
  773TIP3   OH2 2282   2.058   6.540   2.927 -0.3566  0.1117 -0.4655
  773TIP3    H1 2283   2.103   6.456   2.913  1.8250  0.6413  2.4891
  773TIP3    H2 2284   2.105   6.602   2.871  0.4432  0.0144  0.0808
  774TIP3   OH2 2285   1.226   6.017   5.483  0.2800  0.3973  0.0050
  774TIP3    H1 2286   1.234   5.964   5.562  2.2304 -0.4761 -0.7223
  774TIP3    H2 2287   1.308   6.066   5.479  0.4765 -0.0182 -1.7656
  775TIP3   OH2 2288   0.284   4.678   3.240 -0.4093  0.5445  0.1054
  775TIP3    H1 2289   0.365   4.628   3.245 -0.8617 -0.1542  0.6071
  775TIP3    H2 2290   0.244   4.652   3.157 -0.6776  0.0156  0.3984
  776TIP3   OH2 2291   6.755   3.244   1.513  0.1835  0.2829  0.1274
  776TIP3    H1 2292   6.670   3.262   1.553  0.0183  0.3792 -0.2636
  776TIP3    H2 2293   6.774   3.321   1.460 -0.2681 -0.4122 -1.1073
  777TIP3   OH2 2294   2.316   1.960   2.810 -0.3108  0.0536  0.1054
  777TIP3    H1 2295   2.308   1.989   2.900 -0.1254 -2.8949  1.1732
  777TIP3    H2 2296   2.226   1.938   2.784 -0.2900  0.4016 -0.2852
  778TIP3   OH2 2297   6.992   0.648   2.282  0.2345 -0.7407  0.7313
  778TIP3    H1 2298   7.059   0.610   2.339  2.5896 -1.1753 -2.0670
  778TIP3    H2 2299   7.015   0.741   2.277 -0.6205 -0.4897  1.2990
  779TIP3   OH2 2300   4.167   4.687   0.027 -0.6354 -0.1734 -0.1042
  779TIP3    H1 2301   4.148   4.686  -0.066  0.0370 -0.3603 -0.2413
  779TIP3    H2 2302   4.108   4.754   0.063 -1.4658 -0.6635 -0.5256
  780TIP3   OH2 2303   5.545   3.618   5.015  0.0014  0.2707 -0.0529
  780TIP3    H1 2304   5.497   3.676   4.956  0.5808 -0.1974 -1.0046
  780TIP3    H2 2305   5.626   3.596   4.968  1.5279  1.6130  1.7898
  781TIP3   OH2 2306   2.175   1.232   5.361  0.0840  0.3365 -0.0224
  781TIP3    H1 2307   2.250   1.173   5.348  0.2087  0.4509  0.1606
  781TIP3    H2 2308   2.128   1.230   5.278 -0.0243 -0.1761  0.0520
  782TIP3   OH2 2309   4.174   0.623   0.859 -0.2823 -0.2135  0.2812
  782TIP3    H1 2310   4.121   0.696   0.829  1.4985  0.9128 -0.2635
  782TIP3    H2 2311   4.162   0.620   0.953 -0.8439  0.3944  0.2263
  783TIP3   OH2 2312   4.141   4.681   4.925  0.0286  0.5867  0.2724
  783TIP3    H1 2313   4.217   4.623   4.926 -1.1247 -1.0630 -1.1231
  783TIP3    H2 2314   4.084   4.648   4.994 -0.4998  0.2354 -0.3241
  784TIP3   OH2 2315   3.288   6.144   2.969  0.0206  0.0697 -0.6657
  784TIP3    H1 2316   3.260   6.054   2.983 -0.1952  0.2536  0.1356
  784TIP3    H2 2317   3.384   6.140   2.969  0.0658  0.0911  1.3430
  785TIP3   OH2 2318   4.281   4.109   2.796 -0.0478 -0.1184  0.3774
  785TIP3    H1 2319   4.200   4.105   2.847 -1.0256  1.7015 -0.8921
  785TIP3    H2 2320   4.322   4.192   2.822  0.2733  0.0276 -0.5493
  786TIP3   OH2 2321   0.143   1.686   1.317  0.0060  0.5577  0.0777
  786TIP3    H1 2322   0.225   1.716   1.277  0.6752 -1.4175 -0.1267
  786TIP3    H2 2323   0.162   1.597   1.348 -2.1362 -0.0394 -0.1692
  787TIP3   OH2 2324   4.263   1.265   2.190 -0.1479 -0.5255 -0.5226
  787TIP3    H1 2325   4.251   1.172   2.208 -0.7883 -0.2514  0.5648
  787TIP3    H2 2326   4.266   1.306   2.277 -2.3436  0.7438 -0.9669
  788TIP3   OH2 2327   3.132   0.047   2.324 -0.3711  0.1552  0.3792
  788TIP3    H1 2328   3.214   0.081   2.358 -0.9967  1.8663  0.2616
  788TIP3    H2 2329   3.081   0.025   2.402 -0.3531  0.4773  0.4838
  789TIP3   OH2 2330   5.487   0.094   2.827  0.2600  0.2212  0.1467
  789TIP3    H1 2331   5.531   0.012   2.804  0.0710 -0.2053  1.2614
  789TIP3    H2 2332   5.545   0.135   2.891  1.1300  1.7333 -1.5307
  790TIP3   OH2 2333   6.327   3.781   4.499  0.0020  0.1169  0.0471
  790TIP3    H1 2334   6.247   3.818   4.536 -1.4195 -2.6074 -0.0674
  790TIP3    H2 2335   6.312   3.779   4.405  0.8356  0.9229 -0.1126
  791TIP3   OH2 2336   1.182   3.596   1.020 -0.3641 -0.2372  0.2018
  791TIP3    H1 2337   1.206   3.683   1.052 -3.3930  0.0382  2.1291
  791TIP3    H2 2338   1.178   3.542   1.098  0.3468 -1.8480 -0.8354
  792TIP3   OH2 2339   5.890   2.098   0.633 -0.4528 -0.6200 -0.6472
  792TIP3    H1 2340   5.911   2.126   0.722 -1.8544 -2.3092  0.2925
  792TIP3    H2 2341   5.921   2.169   0.577  1.2723  0.0878  1.1025
  793TIP3   OH2 2342   2.204   2.997   5.100  0.2418  0.3635  0.1695
  793TIP3    H1 2343   2.149   3.043   5.036 -0.0055  1.6542  1.2510
  793TIP3    H2 2344   2.190   3.045   5.181  1.9286 -0.1410  0.7911
  794TIP3   OH2 2345   5.260   0.824   2.723  0.0682 -0.3987 -0.3056
  794TIP3    H1 2346   5.212   0.744   2.702  1.1941 -1.4217  0.8739
  794TIP3    H2 2347   5.236   0.844   2.813 -0.3199  0.7017 -0.6380
  795TIP3   OH2 2348   3.881   3.677   0.779 -0.3025 -0.4802  0.1155
  795TIP3    H1 2349   3.846   3.607   0.723 -2.2033 -1.0867  1.9117
  795TIP3    H2 2350   3.973   3.685   0.753 -0.5820 -2.1583 -1.6187
  796TIP3   OH2 2351   0.061   0.256   4.626  0.4083 -0.3506  0.1296
  796TIP3    H1 2352  -0.019   0.236   4.577  0.8132 -0.7642 -0.3808
  796TIP3    H2 2353   0.034   0.255   4.718 -0.4150  0.6221 -0.0782
  797TIP3   OH2 2354   5.426   3.916   0.712  0.0919  0.1829 -0.2026
  797TIP3    H1 2355   5.448   3.877   0.627  2.0201 -0.0067  0.3295
  797TIP3    H2 2356   5.495   3.885   0.771 -1.3132  0.1606  1.4928
  798TIP3   OH2 2357   5.287   4.238   1.006  0.4363 -0.5614 -0.3158
  798TIP3    H1 2358   5.250   4.319   1.041 -1.8281 -1.7282  0.1764
  798TIP3    H2 2359   5.381   4.245   1.022  0.0991  1.2762  1.1482
  799TIP3   OH2 2360   3.237   4.397   1.541 -0.0491 -0.2850  0.1574
  799TIP3    H1 2361   3.167   4.374   1.602 -1.7430 -1.0615 -1.9169
  799TIP3    H2 2362   3.199   4.379   1.454  1.8780  1.6303 -1.1800
  800TIP3   OH2 2363   2.436   2.934   4.054 -0.5002  0.3693  0.0031
  800TIP3    H1 2364   2.350   2.973   4.069  0.7893  3.3951  0.1655
  800TIP3    H2 2365   2.432   2.849   4.099 -3.8676 -0.3549 -1.3941
  801TIP3   OH2 2366   5.699   0.893   2.864  0.6105 -0.5106 -0.2704
  801TIP3    H1 2367   5.773   0.861   2.917  0.0490 -2.1133 -0.4055
  801TIP3    H2 2368   5.677   0.977   2.904  1.2557 -0.9109  1.0179
  802TIP3   OH2 2369   0.971   4.160   3.210 -0.6796  0.3552  0.3730
  802TIP3    H1 2370   1.012   4.186   3.293 -0.2103  0.3302  0.1521
  802TIP3    H2 2371   1.016   4.212   3.144 -3.0353  2.6018  0.3911
  803TIP3   OH2 2372   4.114   4.975   3.203 -0.1308  0.1313 -1.1216
  803TIP3    H1 2373   4.023   4.987   3.175  0.3780 -2.9284 -4.9805
  803TIP3    H2 2374   4.163   5.040   3.153  0.0419 -0.1062 -1.2647
  804TIP3   OH2 2375   2.344   5.364   1.070  0.8456 -0.2492 -0.0552
  804TIP3    H1 2376   2.328   5.337   1.160 -1.6354  2.5338  0.4930
  804TIP3    H2 2377   2.257   5.375   1.032  1.5403  3.9082 -0.9806
  805TIP3   OH2 2378   0.458   4.232   5.177  0.0830  0.4033 -0.3603
  805TIP3    H1 2379   0.453   4.275   5.262  1.3106 -0.8844  0.3897
  805TIP3    H2 2380   0.551   4.213   5.165 -0.2985 -1.0930 -1.1366
  806TIP3   OH2 2381   0.534   3.618   1.291  0.5941  0.4629 -0.2419
  806TIP3    H1 2382   0.463   3.649   1.348  1.0594  0.5049  0.3323
  806TIP3    H2 2383   0.579   3.551   1.344  0.8017  0.2280 -0.7098
  807TIP3   OH2 2384   0.396   0.506   0.558  0.1283 -0.2851 -0.3670
  807TIP3    H1 2385   0.435   0.561   0.626 -0.4095 -0.8554  0.4229
  807TIP3    H2 2386   0.314   0.550   0.536 -0.6329 -1.0889  0.7501
  808TIP3   OH2 2387   6.449   3.527   2.827 -0.7409  0.1793 -0.2073
  808TIP3    H1 2388   6.544   3.521   2.841 -0.3930  2.2471 -1.2729
  808TIP3    H2 2389   6.433   3.477   2.747 -0.1118  1.7155 -1.3565
  809TIP3   OH2 2390   6.938   4.212   2.418 -0.1846 -0.2133  0.3881
  809TIP3    H1 2391   6.986   4.200   2.337 -0.5817 -2.0513  0.3820
  809TIP3    H2 2392   6.921   4.123   2.450 -0.7885  0.4449  2.0361
  810TIP3   OH2 2393   1.027   5.691   5.140  0.5053 -0.2167  0.0020
  810TIP3    H1 2394   0.934   5.705   5.160  0.4012  0.7061 -1.0054
  810TIP3    H2 2395   1.074   5.729   5.214  0.1051  1.3916 -0.5423
  811TIP3   OH2 2396   6.046   1.339   1.251 -0.0209 -0.2757  0.5408
  811TIP3    H1 2397   5.989   1.317   1.325  1.1061 -0.9638  1.2335
  811TIP3    H2 2398   5.989   1.333   1.174 -1.3755  1.1049  1.3865
  812TIP3   OH2 2399   5.206   5.044   0.995  0.5387  0.0659 -0.5790
  812TIP3    H1 2400   5.261   4.985   1.046  0.2307  0.4285  0.1774
  812TIP3    H2 2401   5.153   4.986   0.940 -1.2120 -0.5011  1.5959
  813TIP3   OH2 2402   0.845   0.162   3.249  0.8038 -0.2166  0.1895
  813TIP3    H1 2403   0.750   0.148   3.247  0.7638  0.0474 -1.2598
  813TIP3    H2 2404   0.862   0.202   3.334 -0.7050  1.7238 -0.3558
  814TIP3   OH2 2405   2.772   4.892   3.069  0.4143 -0.8626 -0.0814
  814TIP3    H1 2406   2.779   4.798   3.053  1.7185 -1.0307  1.3195
  814TIP3    H2 2407   2.848   4.930   3.024  0.2587 -0.5514 -0.0869
  815TIP3   OH2 2408   1.608   6.106   5.834 -0.1592  0.2840  0.6764
  815TIP3    H1 2409   1.662   6.167   5.884 -1.1673  0.5094  1.5257
  815TIP3    H2 2410   1.518   6.131   5.855 -0.6038 -1.6841  1.2997
  816TIP3   OH2 2411   0.519   3.590   1.015 -0.1263 -0.1070  0.4981
  816TIP3    H1 2412   0.545   3.604   1.106  2.3932 -1.9482  0.1341
  816TIP3    H2 2413   0.488   3.500   1.012  0.1710 -0.1844 -0.5448
  817TIP3   OH2 2414   6.040   1.636   4.116 -0.0389 -0.0806 -0.0861
  817TIP3    H1 2415   6.104   1.611   4.183  1.0745 -0.2359 -1.1796
  817TIP3    H2 2416   5.956   1.602   4.149  0.2324  1.0012  1.8630
  818TIP3   OH2 2417   2.063   4.253   0.553 -0.1445 -0.0487  0.7086
  818TIP3    H1 2418   2.080   4.342   0.582 -1.7527  0.1479  1.1408
  818TIP3    H2 2419   2.025   4.263   0.466 -0.9150 -0.2563  1.0107
  819TIP3   OH2 2420   1.122   2.712   0.830  0.3122  0.4831 -0.6637
  819TIP3    H1 2421   1.103   2.776   0.762  0.9577  1.9536  0.4936
  819TIP3    H2 2422   1.052   2.723   0.894  0.7967  0.5310 -0.1287
  820TIP3   OH2 2423   3.397   0.931   0.770  1.0229  0.0587 -0.2002
  820TIP3    H1 2424   3.373   0.926   0.677  0.4706  2.1013 -0.2317
  820TIP3    H2 2425   3.449   1.011   0.777  1.6299 -0.4283  1.1439
  821TIP3   OH2 2426   5.384   5.454   4.554 -0.1129  0.5443  0.2663
  821TIP3    H1 2427   5.347   5.404   4.482 -0.5028 -2.4493  2.3511
  821TIP3    H2 2428   5.474   5.420   4.564  0.2453  1.5588  0.6285
  822TIP3   OH2 2429   4.869   2.748   5.354  0.3544 -0.0427  0.1582
  822TIP3    H1 2430   4.787   2.781   5.391 -0.4560 -0.9783 -0.7419
  822TIP3    H2 2431   4.914   2.707   5.428  0.1188  0.6653  0.7052
  823TIP3   OH2 2432   1.237   1.039   3.895 -0.8194 -0.5014  0.0591
  823TIP3    H1 2433   1.219   1.056   3.988 -0.5813 -0.1975  0.0538
  823TIP3    H2 2434   1.157   1.067   3.850 -0.7522 -0.1809  0.1318
  824TIP3   OH2 2435   6.299   5.758   1.937 -0.5629 -0.4355  0.4527
  824TIP3    H1 2436   6.253   5.748   1.854  2.2223  0.6186 -1.3458
  824TIP3    H2 2437   6.254   5.698   1.997 -2.4070 -1.5366 -1.8838
  825TIP3   OH2 2438   2.015   5.213   5.405 -0.1300  0.1775  0.1414
  825TIP3    H1 2439   2.011   5.151   5.479 -0.1086 -1.3990 -1.1187
  825TIP3    H2 2440   2.067   5.286   5.438 -1.3209  0.2024  2.1575
  826TIP3   OH2 2441   1.915   2.978   2.749  0.2818  0.1908 -0.6668
  826TIP3    H1 2442   2.010   2.988   2.759  0.4042 -1.0525 -0.3708
  826TIP3    H2 2443   1.879   2.998   2.835 -0.0546  3.5667 -1.4634
  827TIP3   OH2 2444   1.143   6.527   5.217 -0.0198  0.0679  0.2956
  827TIP3    H1 2445   1.065   6.534   5.162 -1.1020  1.4494  1.8786
  827TIP3    H2 2446   1.213   6.563   5.164 -0.7686  0.2023 -0.6286
  828TIP3   OH2 2447   5.501   4.101   1.536  0.1630  0.0941 -0.6709
  828TIP3    H1 2448   5.510   4.165   1.466  0.0700 -0.5800 -1.3151
  828TIP3    H2 2449   5.435   4.040   1.504 -1.1109  0.6835  0.7149
  829TIP3   OH2 2450   4.344   1.098   2.724 -0.0628  0.7337 -0.1047
  829TIP3    H1 2451   4.348   1.170   2.786  1.6939  0.4364  0.1797
  829TIP3    H2 2452   4.435   1.071   2.712 -0.6745 -1.5537 -0.0714
  830TIP3   OH2 2453   6.628   0.810   3.315  0.1141  0.0808  0.2291
  830TIP3    H1 2454   6.640   0.765   3.398 -0.9348  2.2080  1.6297
  830TIP3    H2 2455   6.700   0.779   3.260  0.6778 -1.5936  1.7929
  831TIP3   OH2 2456   4.708   1.324   1.104 -0.6061  0.4470  0.4755
  831TIP3    H1 2457   4.780   1.383   1.082  0.9599 -1.0145  1.4020
  831TIP3    H2 2458   4.701   1.267   1.027  1.2549 -1.2462  1.4676
  832TIP3   OH2 2459   0.430   2.081   4.311 -0.4610  0.2628 -0.0637
  832TIP3    H1 2460   0.443   2.135   4.389 -0.6761 -1.5320  1.2775
  832TIP3    H2 2461   0.357   2.122   4.265 -0.1977  1.4685  0.5621
  833TIP3   OH2 2462   6.845   1.492   1.209 -0.0727  0.0654  0.5866
  833TIP3    H1 2463   6.932   1.511   1.246  1.1583 -0.1303 -1.9987
  833TIP3    H2 2464   6.819   1.574   1.167 -1.5621  0.3677  2.0121
  834TIP3   OH2 2465   1.394   5.627   2.242  0.4139  0.0197  0.3984
  834TIP3    H1 2466   1.444   5.555   2.203 -1.5439 -2.4983  2.1819
  834TIP3    H2 2467   1.323   5.643   2.179  0.6853  0.1762  0.1319
  835TIP3   OH2 2468   4.378   2.967   3.503  0.0934 -0.0495  0.1367
  835TIP3    H1 2469   4.284   2.976   3.518  0.0581 -0.7703  0.3648
  835TIP3    H2 2470   4.385   2.904   3.432  0.3331  1.8074 -1.5824
  836TIP3   OH2 2471   4.910   3.690   3.087 -0.1807 -0.3589  0.5361
  836TIP3    H1 2472   4.943   3.632   3.155  0.2139 -1.0661 -0.2307
  836TIP3    H2 2473   4.838   3.737   3.128 -0.2824 -1.1383  1.2814
  837TIP3   OH2 2474   6.318   1.477   5.056 -0.7607 -0.5633  0.2113
  837TIP3    H1 2475   6.319   1.566   5.022  0.1479  0.8789  3.5577
  837TIP3    H2 2476   6.408   1.461   5.085 -1.0412 -2.3446  0.2108
  838TIP3   OH2 2477   3.553   4.954   5.071  0.0746  0.1378 -0.1146
  838TIP3    H1 2478   3.611   5.028   5.090 -0.3029  0.2584  0.6457
  838TIP3    H2 2479   3.489   4.989   5.009 -0.7530  0.8032  1.0561
  839TIP3   OH2 2480   6.234   2.852   2.321 -0.3550 -0.3253 -0.5538
  839TIP3    H1 2481   6.202   2.874   2.408 -0.5281 -1.5322 -0.2943
  839TIP3    H2 2482   6.157   2.859   2.264  0.1333  2.3146 -1.0007
  840TIP3   OH2 2483   2.879   0.152   1.919  0.0829 -0.8546  0.8771
  840TIP3    H1 2484   2.935   0.085   1.958  0.0852 -1.6766 -0.4609
  840TIP3    H2 2485   2.798   0.148   1.970  0.5581 -0.9640  1.6360
  841TIP3   OH2 2486   0.505   5.458   1.747 -0.1341 -0.7954 -0.2858
  841TIP3    H1 2487   0.554   5.396   1.801  1.0785 -0.0987 -0.5464
  841TIP3    H2 2488   0.567   5.483   1.678 -1.1210 -0.4590 -1.0675
  842TIP3   OH2 2489   6.901   5.030   0.828 -0.7636 -0.5501  0.0156
  842TIP3    H1 2490   6.966   4.974   0.785 -1.8269 -1.1596 -0.8523
  842TIP3    H2 2491   6.821   5.015   0.778 -1.2900  1.0823  0.3316
  843TIP3   OH2 2492   5.805   0.049   1.130 -0.4280 -0.7401  0.0093
  843TIP3    H1 2493   5.734   0.014   1.076 -0.2142 -1.5036  0.2247
  843TIP3    H2 2494   5.795   0.144   1.122 -0.7319 -0.8385 -0.9397
  844TIP3   OH2 2495   6.070   1.711   3.591  0.3594  0.2469 -0.4293
  844TIP3    H1 2496   5.993   1.747   3.546  0.6782  1.7980  0.1915
  844TIP3    H2 2497   6.057   1.735   3.683  0.7958 -0.9282 -0.0519
  845TIP3   OH2 2498   3.632   6.582   2.374  0.4960  0.3000  0.0454
  845TIP3    H1 2499   3.682   6.566   2.454 -1.3249 -1.7732  0.8806
  845TIP3    H2 2500   3.557   6.634   2.403 -0.2677 -0.6177 -0.2274
  846TIP3   OH2 2501   6.859   6.035   2.106 -0.1477  0.1702  0.0440
  846TIP3    H1 2502   6.935   6.084   2.137  1.6716 -1.0732 -2.1332
  846TIP3    H2 2503   6.793   6.102   2.086  2.0472  1.8321 -2.3662
  847TIP3   OH2 2504   0.301   2.632   4.221  0.7879 -0.5204 -0.0079
  847TIP3    H1 2505   0.208   2.612   4.233  0.2211  1.0242 -1.4346
  847TIP3    H2 2506   0.338   2.551   4.186 -0.0768 -1.0681  0.3032
  848TIP3   OH2 2507   1.612   0.215   2.623 -0.5685  0.1584  0.3647
  848TIP3    H1 2508   1.644   0.184   2.539  1.2464 -0.9733  1.4159
  848TIP3    H2 2509   1.517   0.223   2.611 -0.8066 -2.9611 -0.9126
  849TIP3   OH2 2510   3.929   3.863   0.252  0.8532 -0.4865 -0.1568
  849TIP3    H1 2511   3.921   3.919   0.329 -0.5089  0.4086 -0.9128
  849TIP3    H2 2512   3.977   3.916   0.189 -0.4247 -0.1398 -0.8695
  850TIP3   OH2 2513   3.384   4.897   5.298 -0.6038  0.3916  0.4947
  850TIP3    H1 2514   3.378   4.810   5.258 -0.4666  0.9984 -0.8839
  850TIP3    H2 2515   3.429   4.950   5.233  0.8154  1.1094  1.9944
  851TIP3   OH2 2516   0.970   5.917   5.579 -0.3700  0.2293 -0.7463
  851TIP3    H1 2517   1.051   5.886   5.620 -0.2921  1.5248  0.1467
  851TIP3    H2 2518   0.939   5.843   5.527  0.2665 -1.0049  0.5754
  852TIP3   OH2 2519   4.925   6.433   1.646 -0.3703  0.1911 -0.1431
  852TIP3    H1 2520   4.831   6.450   1.650 -0.4716 -0.2813 -0.4103
  852TIP3    H2 2521   4.939   6.395   1.560  0.3856  2.0850 -0.9131
  853TIP3   OH2 2522   3.217   1.748   1.538  0.2059 -0.0047  0.2267
  853TIP3    H1 2523   3.216   1.787   1.450  2.8769  1.5111  0.7656
  853TIP3    H2 2524   3.164   1.808   1.591 -1.1441 -0.7501 -0.2277
  854TIP3   OH2 2525   1.284   0.651   3.554 -0.5450  0.1760  0.1688
  854TIP3    H1 2526   1.356   0.699   3.596 -0.2651  0.3725 -0.5183
  854TIP3    H2 2527   1.298   0.666   3.460 -2.3066  1.4129  0.0528
  855TIP3   OH2 2528   2.565   4.890   1.805  0.1134 -0.3042  0.2401
  855TIP3    H1 2529   2.621   4.966   1.791 -3.0369  2.1656  0.0720
  855TIP3    H2 2530   2.551   4.853   1.718  1.0055 -0.6039  0.2195
  856TIP3   OH2 2531   3.877   3.682   3.895  0.1705 -0.4398  0.2480
  856TIP3    H1 2532   3.856   3.592   3.869  1.7256 -0.5053 -0.9301
  856TIP3    H2 2533   3.792   3.724   3.906 -0.5910 -1.9600  0.5289
  857TIP3   OH2 2534   0.830   1.103   5.287  0.3175  0.0805  0.3360
  857TIP3    H1 2535   0.809   1.130   5.198  0.7226  0.0298  0.2226
  857TIP3    H2 2536   0.767   1.151   5.342  0.7003  0.8687  0.1025
  858TIP3   OH2 2537   2.322   4.658   4.121 -0.5263 -0.1055 -0.4084
  858TIP3    H1 2538   2.294   4.734   4.071  0.5957  0.2674 -0.5050
  858TIP3    H2 2539   2.301   4.679   4.212  0.9224  0.8910 -0.2753
  859TIP3   OH2 2540   3.992   0.876   5.730 -0.2242  0.1307 -0.6377
  859TIP3    H1 2541   4.007   0.942   5.797 -0.6624 -0.8181  0.4438
  859TIP3    H2 2542   4.057   0.894   5.663  0.7600  0.6381  0.4201
  860TIP3   OH2 2543   4.318   1.821   0.219  0.4696 -0.1121  0.1613
  860TIP3    H1 2544   4.338   1.727   0.222 -1.3926 -0.6434 -1.6769
  860TIP3    H2 2545   4.404   1.863   0.218  1.3788 -1.8709 -0.3948
  861TIP3   OH2 2546   4.989   3.426   2.193 -0.1458  0.1752 -0.4208
  861TIP3    H1 2547   5.049   3.382   2.132 -0.0981  2.0363 -1.7950
  861TIP3    H2 2548   5.047   3.463   2.260  0.0841  0.4844 -0.7856
  862TIP3   OH2 2549   2.704   2.337   4.268 -0.0815  0.5615  0.4189
  862TIP3    H1 2550   2.620   2.383   4.270 -0.3515  0.2085 -1.5085
  862TIP3    H2 2551   2.765   2.397   4.312 -1.1263  1.2233  1.0086
  863TIP3   OH2 2552   2.447   6.310   0.411 -0.4353  0.6364 -0.4333
  863TIP3    H1 2553   2.404   6.395   0.412 -1.3398  0.1977 -0.1756
  863TIP3    H2 2554   2.425   6.273   0.326  1.9784  1.6167 -1.5534
  864TIP3   OH2 2555   0.093   3.577   4.488  0.6382  0.5796 -0.1570
  864TIP3    H1 2556   0.096   3.489   4.526  2.0973  1.4358  1.8777
  864TIP3    H2 2557   0.001   3.592   4.468  0.1262 -0.7871  1.0434
  865TIP3   OH2 2558   0.526   1.341   0.177  0.9568 -0.7043  0.2318
  865TIP3    H1 2559   0.491   1.271   0.233 -1.3857  0.6315  0.5689
  865TIP3    H2 2560   0.460   1.352   0.109  1.5507  0.8225 -0.1357
  866TIP3   OH2 2561   2.006   3.518   3.048  0.1632 -0.0287 -0.1073
  866TIP3    H1 2562   2.077   3.529   3.111 -0.7404  0.1094  0.9004
  866TIP3    H2 2563   1.986   3.424   3.051 -0.9881  0.2235  1.0709
  867TIP3   OH2 2564   3.455   3.239   5.021 -0.4438  0.4703 -0.3107
  867TIP3    H1 2565   3.361   3.255   5.023 -0.2703  1.6995  1.9733
  867TIP3    H2 2566   3.494   3.325   5.039  0.9976 -0.3662  0.8407
  868TIP3   OH2 2567   5.922   5.258   5.749  0.2218 -0.3168  0.4472
  868TIP3    H1 2568   5.999   5.266   5.805  0.5027  0.9919 -0.1012
  868TIP3    H2 2569   5.953   5.283   5.662 -0.5716 -0.8430 -0.0030
  869TIP3   OH2 2570   7.163   3.323   0.384 -0.1371 -0.2492  0.2240
  869TIP3    H1 2571   7.096   3.276   0.334 -1.3702  0.2183  1.4046
  869TIP3    H2 2572   7.136   3.415   0.380  0.4344 -0.0567  0.7283
  870TIP3   OH2 2573   4.484   4.272   4.570  0.2333  0.2349  0.3822
  870TIP3    H1 2574   4.392   4.266   4.597  0.0527  0.3081 -0.1964
  870TIP3    H2 2575   4.511   4.182   4.557  0.9148  0.0360  2.6629
  871TIP3   OH2 2576   0.610   6.600   4.469 -0.1943 -0.2050 -0.5862
  871TIP3    H1 2577   0.683   6.645   4.425 -0.5768  1.3395  0.2792
  871TIP3    H2 2578   0.531   6.639   4.431 -0.5315  0.0802  0.3745
  872TIP3   OH2 2579   5.920   0.424   2.168 -0.5393 -0.2699 -0.3052
  872TIP3    H1 2580   5.964   0.362   2.110 -1.2259 -0.4753 -0.6295
  872TIP3    H2 2581   5.833   0.434   2.129 -0.4317  0.9228 -0.2617
  873TIP3   OH2 2582   4.697   1.273   2.564  0.0531  0.0738 -0.5265
  873TIP3    H1 2583   4.770   1.329   2.536  0.2870 -0.1855 -0.4379
  873TIP3    H2 2584   4.642   1.331   2.617  0.9982 -0.1215  0.7118
  874TIP3   OH2 2585   4.305   1.308   2.912 -0.5354  0.3085 -0.0736
  874TIP3    H1 2586   4.216   1.341   2.900  0.0559  1.7253 -0.7884
  874TIP3    H2 2587   4.318   1.309   3.007 -0.8108  1.4469 -0.0300
  875TIP3   OH2 2588   4.714   5.199   4.873  0.2223  0.6188 -0.0457
  875TIP3    H1 2589   4.729   5.183   4.966  0.0101  1.1521  0.0823
  875TIP3    H2 2590   4.764   5.278   4.853  0.1629  0.5813 -0.3565
  876TIP3   OH2 2591   0.563   0.287   2.177  0.1333 -0.1117 -0.1317
  876TIP3    H1 2592   0.535   0.294   2.268 -0.4652 -0.9553 -0.2445
  876TIP3    H2 2593   0.638   0.348   2.171  1.6414 -1.6819  1.4988
  877TIP3   OH2 2594   2.805   2.481   3.132 -0.2399  0.3010  0.0754
  877TIP3    H1 2595   2.753   2.498   3.210 -0.0212  0.5703  0.1667
  877TIP3    H2 2596   2.884   2.534   3.144  0.3285 -0.5645  0.2262
  878TIP3   OH2 2597   1.433   5.534   4.299  0.3784 -0.1505  0.3485
  878TIP3    H1 2598   1.367   5.465   4.294  2.4739 -2.2208 -2.9965
  878TIP3    H2 2599   1.507   5.492   4.343  0.7661  0.8631  0.6716
  879TIP3   OH2 2600   4.914   1.787   1.915  0.1274 -0.1334 -0.0429
  879TIP3    H1 2601   4.840   1.796   1.974 -1.0742  0.0149 -1.5190
  879TIP3    H2 2602   4.991   1.808   1.969 -0.7985 -1.1165  1.7214
  880TIP3   OH2 2603   3.187   2.602   1.889  0.6185 -0.2785  0.1266
  880TIP3    H1 2604   3.143   2.607   1.804  1.2907  0.6099 -0.1871
  880TIP3    H2 2605   3.276   2.574   1.868  0.9558  0.5046  0.4557
  881TIP3   OH2 2606   4.843   4.647   1.078 -0.9471 -0.3844  0.1852
  881TIP3    H1 2607   4.854   4.606   0.992  1.0795 -2.2558  1.2290
  881TIP3    H2 2608   4.799   4.580   1.131 -0.7392  0.1239  1.0126
  882TIP3   OH2 2609   5.590   1.193   5.506 -0.5176 -0.4951 -0.2717
  882TIP3    H1 2610   5.542   1.274   5.524 -0.0195 -0.4464  0.9638
  882TIP3    H2 2611   5.658   1.219   5.444 -0.3530  0.0511  0.1272
  883TIP3   OH2 2612   2.791   5.095   3.269  0.2364 -0.5561 -0.4926
  883TIP3    H1 2613   2.838   5.164   3.222 -0.6247  0.3957 -0.0162
  883TIP3    H2 2614   2.777   5.026   3.204  0.1589  0.1993 -1.2939
  884TIP3   OH2 2615   5.788   1.226   0.641 -0.0518 -0.3359  0.3940
  884TIP3    H1 2616   5.712   1.188   0.596 -2.0011  0.1612  3.0073
  884TIP3    H2 2617   5.828   1.153   0.688 -1.1437 -0.0284  1.8786
  885TIP3   OH2 2618   4.068   6.686   0.891 -0.3047  0.6768  0.2793
  885TIP3    H1 2619   4.062   6.716   0.800  0.4047  0.5185  0.1774
  885TIP3    H2 2620   4.151   6.723   0.923  0.5837 -1.1305  0.1658
  886TIP3   OH2 2621   2.177   3.932   4.631  0.0496 -0.3018 -0.4626
  886TIP3    H1 2622   2.251   3.885   4.670 -2.1512 -1.1569  3.2036
  886TIP3    H2 2623   2.136   3.868   4.572  0.6821 -0.7979 -0.3720
  887TIP3   OH2 2624   2.090   2.689   5.472 -0.5403 -0.8039  0.2221
  887TIP3    H1 2625   2.116   2.710   5.382  0.1260 -1.0928  0.3382
  887TIP3    H2 2626   2.074   2.595   5.471 -1.6973 -0.6203  0.1364
  888TIP3   OH2 2627   0.035   0.722   4.788 -0.0530  0.1306  0.0945
  888TIP3    H1 2628   0.095   0.654   4.756  2.1659  2.7934 -1.9603
  888TIP3    H2 2629   0.093   0.788   4.828 -1.9011  1.6144  0.4615
  889TIP3   OH2 2630   1.206   5.371   2.574 -0.1723 -0.7377  0.1545
  889TIP3    H1 2631   1.127   5.318   2.568 -1.2643  0.8943 -0.7796
  889TIP3    H2 2632   1.180   5.456   2.538  1.6238  0.2848  1.1520
  890TIP3   OH2 2633   4.695   0.550   2.617  0.8809 -0.1786 -0.2977
  890TIP3    H1 2634   4.626   0.611   2.591 -0.4513 -0.8289  1.5548
  890TIP3    H2 2635   4.733   0.521   2.534  1.3373  2.8206 -1.2846
  891TIP3   OH2 2636   2.144   1.006   5.761  0.2256 -0.1675 -0.1322
  891TIP3    H1 2637   2.090   0.963   5.827 -0.1540  0.7451  0.1645
  891TIP3    H2 2638   2.233   0.979   5.781 -0.0574 -1.2921 -0.3257
  892TIP3   OH2 2639   2.305   4.252   2.204  0.6896 -0.2167 -0.9442
  892TIP3    H1 2640   2.269   4.325   2.154 -1.1395  0.3911  1.0810
  892TIP3    H2 2641   2.229   4.216   2.250  1.8821 -2.2261 -0.4577
  893TIP3   OH2 2642   1.084   0.302   0.932  0.3783 -0.0948  0.4999
  893TIP3    H1 2643   1.100   0.332   0.843 -0.3312 -0.2350  0.3246
  893TIP3    H2 2644   0.989   0.305   0.942  0.4510 -0.1416  1.2298
  894TIP3   OH2 2645   2.757   4.226   4.931 -0.4972  0.0903 -0.1755
  894TIP3    H1 2646   2.823   4.278   4.884  0.5583  0.1386  1.3000
  894TIP3    H2 2647   2.718   4.287   4.994 -0.6464 -0.4056  0.2218
  895TIP3   OH2 2648   3.335   3.746   2.216 -0.6444  0.0680 -0.0121
  895TIP3    H1 2649   3.270   3.752   2.286 -0.9374  0.7805 -0.3383
  895TIP3    H2 2650   3.385   3.667   2.237 -1.9833 -0.8227 -0.0824
  896TIP3   OH2 2651   6.052   0.174   4.833  0.2303  0.1799 -0.5278
  896TIP3    H1 2652   6.102   0.231   4.775  0.9409  0.9196  0.7651
  896TIP3    H2 2653   5.986   0.231   4.872  1.3691  0.3313  1.2826
  897TIP3   OH2 2654   6.757   0.559   3.802 -0.5763  0.1598  0.0259
  897TIP3    H1 2655   6.839   0.606   3.814  0.3874 -0.9524 -1.7537
  897TIP3    H2 2656   6.739   0.565   3.708 -0.9581 -2.0495 -0.0958
  898TIP3   OH2 2657   3.879   2.533   3.614  0.4343  0.4245 -0.1495
  898TIP3    H1 2658   3.907   2.602   3.553  1.7221 -0.0901 -0.1608
  898TIP3    H2 2659   3.880   2.453   3.562 -1.0223  0.3698 -0.1227
  899TIP3   OH2 2660   4.112   3.774   4.613  0.0266  0.3266  0.2731
  899TIP3    H1 2661   4.071   3.787   4.528 -0.6302 -0.0174  0.5313
  899TIP3    H2 2662   4.082   3.848   4.665 -0.6415 -0.1648  0.5983
  900TIP3   OH2 2663   1.121   5.598   3.090 -0.3971  0.0697  0.8693
  900TIP3    H1 2664   1.056   5.598   3.160 -0.2184  0.2686  1.0321
  900TIP3    H2 2665   1.113   5.511   3.051 -1.9530  0.6339 -0.1989
  901TIP3   OH2 2666   4.860   6.284   5.036 -0.1074 -0.4775  0.0123
  901TIP3    H1 2667   4.849   6.372   5.000  0.3093 -0.1388  0.6985
  901TIP3    H2 2668   4.890   6.298   5.126 -0.4562 -1.3161  0.2710
  902TIP3   OH2 2669   6.897   1.513   0.765  0.1576 -0.3720  0.2702
  902TIP3    H1 2670   6.912   1.461   0.685  0.5030  0.2646 -0.0874
  902TIP3    H2 2671   6.837   1.459   0.817 -1.4973 -0.0487 -1.1795
  903TIP3   OH2 2672   5.584   2.381   1.990 -0.0870 -0.6829  0.0113
  903TIP3    H1 2673   5.654   2.404   2.051 -0.3509 -0.0721  0.0844
  903TIP3    H2 2674   5.536   2.311   2.033 -1.1716  0.7249  1.1751
  904TIP3   OH2 2675   1.955   5.967   1.228  0.0138 -0.2617  0.4593
  904TIP3    H1 2676   2.023   5.985   1.163  2.4367  0.2847  2.9409
  904TIP3    H2 2677   1.918   6.053   1.248 -1.9074 -0.6235 -1.2871
  905TIP3   OH2 2678   6.368   1.546   4.100 -0.4768 -0.1013 -0.0087
  905TIP3    H1 2679   6.340   1.523   4.188  1.7405 -0.8083  0.5751
  905TIP3    H2 2680   6.414   1.468   4.068  0.6877  0.9149 -0.9079
  906TIP3   OH2 2681   0.144   6.621   4.387  0.0300 -0.1137 -0.3180
  906TIP3    H1 2682   0.088   6.549   4.417  1.0454 -1.8302 -2.3024
  906TIP3    H2 2683   0.082   6.689   4.360 -1.0534 -1.2451 -0.7661
  907TIP3   OH2 2684   2.215   2.784   2.838 -0.0644  0.1121 -0.7352
  907TIP3    H1 2685   2.150   2.752   2.775 -1.2210  2.0661 -0.6090
  907TIP3    H2 2686   2.226   2.876   2.816 -0.0603  0.7028  1.5532
  908TIP3   OH2 2687   6.990   1.046   5.860 -0.7104  0.1258 -0.7454
  908TIP3    H1 2688   6.916   1.051   5.799 -1.4497  0.7574  0.1742
  908TIP3    H2 2689   7.038   0.968   5.832 -1.5146 -0.0923 -1.5889
  909TIP3   OH2 2690   0.134   0.534   0.503 -0.5060 -0.0185 -0.1244
  909TIP3    H1 2691   0.109   0.611   0.453  0.0739 -0.3627 -0.9750
  909TIP3    H2 2692   0.051   0.492   0.526 -0.7853 -0.1199 -1.2546
  910TIP3   OH2 2693   1.426   4.035   5.044 -0.5293 -0.3891  0.1966
  910TIP3    H1 2694   1.359   4.022   4.977 -1.1401 -0.4229  0.8078
  910TIP3    H2 2695   1.508   4.042   4.995 -1.0903  0.6000 -0.6296
  911TIP3   OH2 2696   0.246   3.897   2.951 -0.0934 -0.7192  0.2698
  911TIP3    H1 2697   0.324   3.949   2.970  0.2551 -1.0396 -0.2615
  911TIP3    H2 2698   0.276   3.807   2.952 -0.8253 -0.9834  1.8101
  912TIP3   OH2 2699   1.119   3.872   3.298 -0.5856  0.0548  0.0309
  912TIP3    H1 2700   1.107   3.887   3.204 -0.5697 -1.7810 -0.3090
  912TIP3    H2 2701   1.212   3.850   3.307 -0.7691 -0.6482  0.3168
  913TIP3   OH2 2702   5.129   5.941   0.529  0.0909  0.5168 -0.1388
  913TIP3    H1 2703   5.034   5.950   0.540  0.1338  0.6002  0.1906
  913TIP3    H2 2704   5.166   5.988   0.604  0.3423 -2.0549  1.4800
  914TIP3   OH2 2705   3.112   0.379   0.816 -0.0808  0.1657  0.2087
  914TIP3    H1 2706   3.127   0.473   0.805  0.0382  0.1642  0.3604
  914TIP3    H2 2707   3.075   0.370   0.904 -1.8410  0.2638 -0.4707
  915TIP3   OH2 2708   1.038   2.720   1.886 -0.3750 -0.5104 -0.2778
  915TIP3    H1 2709   1.070   2.676   1.808  0.7624 -1.2400  0.5788
  915TIP3    H2 2710   1.107   2.708   1.951 -0.5375  1.5425  0.3493
  916TIP3   OH2 2711   4.816   4.374   3.994  0.2043 -0.3262 -0.0310
  916TIP3    H1 2712   4.812   4.321   3.914 -0.8138  1.2777 -1.1115
  916TIP3    H2 2713   4.892   4.430   3.981 -1.1489  1.3912 -0.8965
  917TIP3   OH2 2714   1.480   4.121   5.309  0.3240  0.7144  0.3034
  917TIP3    H1 2715   1.423   4.079   5.373  0.5270 -0.0318  0.0131
  917TIP3    H2 2716   1.474   4.064   5.231  1.9350  0.2619  0.4775
  918TIP3   OH2 2717   4.280   3.826   3.731 -0.0317  0.1851 -0.5673
  918TIP3    H1 2718   4.366   3.864   3.712 -0.7149  1.2923 -1.5854
  918TIP3    H2 2719   4.262   3.769   3.657 -0.6375  0.8078 -0.9121
  919TIP3   OH2 2720   4.180   3.552   1.574 -0.5623 -0.1864  0.1240
  919TIP3    H1 2721   4.088   3.547   1.551 -0.4003  1.2023 -0.9612
  919TIP3    H2 2722   4.189   3.633   1.624 -0.0064 -0.5579  0.6527
  920TIP3   OH2 2723   5.988   6.401   2.152 -0.8167  0.2222 -0.1188
  920TIP3    H1 2724   6.033   6.452   2.085 -1.0629 -0.2603 -0.6625
  920TIP3    H2 2725   6.000   6.451   2.233 -0.9219  1.0495 -0.6102
  921TIP3   OH2 2726   6.879   1.214   4.152 -0.4514  0.0287 -0.6217
  921TIP3    H1 2727   6.959   1.240   4.108 -0.1122 -1.1790 -0.7611
  921TIP3    H2 2728   6.815   1.280   4.128  0.5159  1.0419 -0.4603
  922TIP3   OH2 2729   4.574   3.412   1.024 -0.1332  0.0745  0.1605
  922TIP3    H1 2730   4.502   3.423   0.962 -1.8062  1.2067  2.1715
  922TIP3    H2 2731   4.566   3.322   1.055 -1.2677  0.4490  1.0031
  923TIP3   OH2 2732   4.655   1.975   3.463 -0.1919 -0.6823  0.4686
  923TIP3    H1 2733   4.671   2.064   3.430 -0.4263 -1.4450 -1.8664
  923TIP3    H2 2734   4.740   1.932   3.459 -0.5517 -1.3138 -0.9360
  924TIP3   OH2 2735   3.402   1.308   0.259 -0.1296 -0.6542 -0.0199
  924TIP3    H1 2736   3.422   1.346   0.174 -1.1396 -1.1007 -0.4730
  924TIP3    H2 2737   3.428   1.216   0.251  2.4384 -0.1277  1.1168
  925TIP3   OH2 2738   4.913   2.544   4.370  0.5628 -0.0580  0.0202
  925TIP3    H1 2739   4.883   2.456   4.391 -0.4645 -0.0439 -1.2351
  925TIP3    H2 2740   4.839   2.600   4.393  0.5430  0.2647 -0.8025
  926TIP3   OH2 2741   0.110   2.614   0.941  0.3804 -0.1802  0.2996
  926TIP3    H1 2742   0.104   2.709   0.941 -1.0069 -0.1890 -2.1615
  926TIP3    H2 2743   0.200   2.595   0.969  0.9530  1.8657 -0.0466
  927TIP3   OH2 2744   0.206   6.104   0.183 -0.8704  0.1298 -0.3225
  927TIP3    H1 2745   0.152   6.119   0.261 -0.4700  1.9255 -0.3379
  927TIP3    H2 2746   0.203   6.188   0.136  2.5657  0.6225  0.0799
  928TIP3   OH2 2747   3.838   1.209   2.297 -0.2189 -0.7226  0.1767
  928TIP3    H1 2748   3.907   1.143   2.290  1.6178  1.1714 -0.9071
  928TIP3    H2 2749   3.885   1.291   2.310 -2.4002  0.4294  1.3363
  929TIP3   OH2 2750   2.883   6.524   4.267  0.3696 -0.6718  0.1067
  929TIP3    H1 2751   2.839   6.447   4.231 -2.1159  0.3635  0.7956
  929TIP3    H2 2752   2.868   6.593   4.204  2.5431 -0.6347 -0.4752
  930TIP3   OH2 2753   6.814   4.659   2.322 -0.0570  0.1236  0.0527
  930TIP3    H1 2754   6.845   4.633   2.409  1.4404 -0.3455 -0.5935
  930TIP3    H2 2755   6.810   4.755   2.326 -0.3815  0.0879  0.7500
  931TIP3   OH2 2756   0.026   3.868   1.924 -0.0191  0.2174  0.9025
  931TIP3    H1 2757  -0.060   3.827   1.911  0.1245  0.4091 -0.9276
  931TIP3    H2 2758   0.087   3.794   1.930  0.0435  0.0752 -0.8696
  932TIP3   OH2 2759   1.447   6.012   3.601  0.8164  0.4428  0.9645
  932TIP3    H1 2760   1.355   6.024   3.577  0.8217 -1.0189  0.1383
  932TIP3    H2 2761   1.463   6.080   3.667 -0.9054  0.5757  1.2893
  933TIP3   OH2 2762   7.044   5.647   4.982 -0.4868 -0.2634  0.8597
  933TIP3    H1 2763   7.063   5.732   5.021 -0.9677  0.7606 -0.9932
  933TIP3    H2 2764   7.128   5.617   4.947 -0.6877  0.4582 -0.2925
  934TIP3   OH2 2765   5.227   4.422   5.561  0.0352  0.1556 -0.0997
  934TIP3    H1 2766   5.183   4.485   5.505  1.1798  0.6786 -0.4164
  934TIP3    H2 2767   5.237   4.467   5.645 -0.8266 -0.2959  0.2716
  935TIP3   OH2 2768   4.143   3.776   5.259  0.1325 -0.7242 -0.2584
  935TIP3    H1 2769   4.213   3.836   5.236  0.4068 -1.1667 -0.5929
  935TIP3    H2 2770   4.099   3.818   5.333  0.6237 -0.3521 -0.1712
  936TIP3   OH2 2771   5.638   5.167   1.763  0.0766  0.1476  0.4628
  936TIP3    H1 2772   5.551   5.161   1.723  0.8859  0.9665 -1.5395
  936TIP3    H2 2773   5.669   5.077   1.765 -0.7075 -0.1270  0.9916
  937TIP3   OH2 2774   5.882   5.683   2.486 -0.8923 -0.1970  0.5609
  937TIP3    H1 2775   5.846   5.657   2.571 -1.1509  1.1622  0.9033
  937TIP3    H2 2776   5.806   5.684   2.427 -0.7998 -0.6602  0.4313
  938TIP3   OH2 2777   5.105   1.896   0.412 -0.3559  0.4027  0.8195
  938TIP3    H1 2778   5.121   1.805   0.387  1.1980  0.2527  2.1756
  938TIP3    H2 2779   5.143   1.948   0.341  1.4362 -0.0277  1.4016
  939TIP3   OH2 2780   3.570   2.734   3.005 -0.3307  0.6993  0.4045
  939TIP3    H1 2781   3.540   2.647   3.033  0.4399 -0.4168 -1.9103
  939TIP3    H2 2782   3.493   2.773   2.962 -0.0325  0.0621 -0.7735
  940TIP3   OH2 2783   6.231   4.800   1.936 -0.0389 -0.2815  0.4791
  940TIP3    H1 2784   6.146   4.776   1.899  1.0906 -1.9136 -1.2923
  940TIP3    H2 2785   6.278   4.717   1.942  1.7748  0.7039  0.4131
  941TIP3   OH2 2786   4.008   6.288   5.082 -0.4015  0.6972 -0.5043
  941TIP3    H1 2787   4.074   6.283   5.151 -1.9505  1.4749  1.1162
  941TIP3    H2 2788   4.051   6.336   5.011  1.0642  0.3632  0.1268
  942TIP3   OH2 2789   7.169   4.442   5.514 -0.4240 -0.1020  0.4623
  942TIP3    H1 2790   7.132   4.531   5.518  0.6003  0.3948 -0.5134
  942TIP3    H2 2791   7.165   4.410   5.604 -0.9241  0.8837  0.8078
  943TIP3   OH2 2792   0.880   5.761   1.625 -0.2144  0.3034 -0.3690
  943TIP3    H1 2793   0.888   5.815   1.547 -0.9993 -0.4421 -0.9954
  943TIP3    H2 2794   0.885   5.822   1.698 -2.1477  1.3677 -1.0711
  944TIP3   OH2 2795   3.478   2.764   1.387  0.7058 -0.6100  0.5880
  944TIP3    H1 2796   3.396   2.781   1.432  0.1581 -1.4596 -0.0648
  944TIP3    H2 2797   3.546   2.790   1.450 -0.0471  0.6233  0.9123
  945TIP3   OH2 2798   6.039   2.040   3.433  0.1462  0.2206  0.0099
  945TIP3    H1 2799   6.061   1.955   3.395 -1.5546 -0.0009 -0.5488
  945TIP3    H2 2800   6.033   2.024   3.527  0.5080 -0.1215 -0.0234
  946TIP3   OH2 2801   4.179   6.403   3.532  0.2357  0.1441  0.5250
  946TIP3    H1 2802   4.088   6.434   3.537  0.0566  0.1130 -1.6158
  946TIP3    H2 2803   4.184   6.334   3.598 -1.2367  0.2915  0.8364
  947TIP3   OH2 2804   2.446   3.123   2.635  0.0524  0.2103  0.1235
  947TIP3    H1 2805   2.515   3.141   2.698  0.1023  0.0490  0.1176
  947TIP3    H2 2806   2.437   3.204   2.585  0.2511  0.2259  0.1113
  948TIP3   OH2 2807   3.751   1.880   2.125 -0.0390  1.0234 -0.3710
  948TIP3    H1 2808   3.771   1.973   2.139 -0.2662  1.0227 -0.0113
  948TIP3    H2 2809   3.763   1.866   2.032  0.6887  1.2513 -0.3149
  949TIP3   OH2 2810   4.747   6.177   1.437 -0.0533  0.5157 -0.7790
  949TIP3    H1 2811   4.808   6.107   1.413 -0.1364  0.3620 -0.5443
  949TIP3    H2 2812   4.761   6.245   1.371 -0.4541 -0.0085 -1.4155
  950TIP3   OH2 2813   6.740   4.351   5.609 -0.0015 -0.2883  0.0411
  950TIP3    H1 2814   6.828   4.324   5.637  0.2678 -1.0111 -1.4087
  950TIP3    H2 2815   6.684   4.277   5.629  0.1187 -0.6477 -0.8971
  951TIP3   OH2 2816   6.076   1.893   2.763  0.5702 -0.1902 -0.0395
  951TIP3    H1 2817   6.125   1.975   2.770 -0.2492  0.1865  1.8404
  951TIP3    H2 2818   6.143   1.825   2.769  0.9361  0.3051  2.9315
  952TIP3   OH2 2819   1.832   2.861   2.270 -0.2263 -0.1554  0.2037
  952TIP3    H1 2820   1.747   2.897   2.243 -0.5495  0.6458  2.1274
  952TIP3    H2 2821   1.833   2.773   2.233 -3.0779 -1.1756  2.1949
  953TIP3   OH2 2822   4.215   2.327   1.424 -0.3703 -0.3549  0.2893
  953TIP3    H1 2823   4.287   2.301   1.482 -0.1100 -1.5269 -0.5086
  953TIP3    H2 2824   4.243   2.410   1.385  0.2595 -0.4737  0.4873
  954TIP3   OH2 2825   0.553   6.360   3.188 -0.0846 -0.6977  0.0898
  954TIP3    H1 2826   0.524   6.420   3.258  1.7646  0.9226 -0.4485
  954TIP3    H2 2827   0.627   6.313   3.225  0.3267 -0.4977 -0.4631
  955TIP3   OH2 2828   1.009   3.400   1.926  0.7735 -0.4466 -0.7505
  955TIP3    H1 2829   1.051   3.360   2.002 -0.0161  0.4454  0.1775
  955TIP3    H2 2830   0.966   3.327   1.881  1.6046 -1.0475 -0.5952
  956TIP3   OH2 2831   2.716   5.851   5.344  0.2027 -0.2797  0.3737
  956TIP3    H1 2832   2.810   5.870   5.346  0.5571 -1.7757  3.1511
  956TIP3    H2 2833   2.682   5.890   5.425 -1.7113  0.6100 -0.7835
  957TIP3   OH2 2834   6.473   4.170   3.903 -0.4676 -0.6133 -0.2507
  957TIP3    H1 2835   6.536   4.240   3.923 -0.1595 -0.9499 -0.0437
  957TIP3    H2 2836   6.516   4.090   3.931 -0.7673 -0.9051 -0.6187
  958TIP3   OH2 2837   4.398   6.595   1.595  0.8570  0.0599  0.2056
  958TIP3    H1 2838   4.372   6.540   1.670  1.7703 -1.1713 -0.3365
  958TIP3    H2 2839   4.336   6.667   1.595 -1.6960 -1.9915 -0.2120
  959TIP3   OH2 2840   4.596   3.538   3.168 -0.4100  0.0801 -0.0744
  959TIP3    H1 2841   4.622   3.625   3.199 -0.2730  0.1858 -0.4766
  959TIP3    H2 2842   4.532   3.556   3.099 -0.2755 -0.1316 -0.2544
  960TIP3   OH2 2843   4.828   5.605   2.177  0.2344  0.3377  0.8921
  960TIP3    H1 2844   4.779   5.536   2.134 -0.2552  0.6447  0.9484
  960TIP3    H2 2845   4.794   5.686   2.139  0.1426  0.5897  1.4959
  961TIP3   OH2 2846   0.114   0.719   0.815  0.1117  0.5922 -0.2165
  961TIP3    H1 2847   0.021   0.716   0.792 -0.2578  1.1723  1.1192
  961TIP3    H2 2848   0.137   0.628   0.831  0.7085 -0.0469 -3.8570
  962TIP3   OH2 2849   1.114   3.201   2.650 -0.0066  0.4799 -0.4651
  962TIP3    H1 2850   1.067   3.134   2.601 -2.9807  2.6579 -0.8818
  962TIP3    H2 2851   1.173   3.240   2.586  1.5345 -1.4541 -0.2903
  963TIP3   OH2 2852   1.953   4.175   0.803  0.1492  0.5227 -0.0156
  963TIP3    H1 2853   2.027   4.219   0.761 -0.4090  2.5433  0.9773
  963TIP3    H2 2854   1.879   4.232   0.786 -1.0178 -0.9754 -0.1609
  964TIP3   OH2 2855   5.796   5.902   3.538 -0.2388  0.1320 -0.0120
  964TIP3    H1 2856   5.723   5.901   3.476 -0.2113 -2.7845 -0.1425
  964TIP3    H2 2857   5.755   5.900   3.624 -0.3255 -0.1673 -0.0579
  965TIP3   OH2 2858   5.334   0.199   0.849  0.0608  0.5776  0.2552
  965TIP3    H1 2859   5.243   0.222   0.866  0.2007  1.9166 -0.6523
  965TIP3    H2 2860   5.385   0.269   0.890  0.5741  1.1422 -1.2995
  966TIP3   OH2 2861   1.194   3.554   3.013 -0.4435 -0.1957 -0.0746
  966TIP3    H1 2862   1.103   3.534   2.994 -0.6986  0.0772  0.8149
  966TIP3    H2 2863   1.209   3.640   2.974 -0.9367  0.3237  0.8372
  967TIP3   OH2 2864   1.102   0.826   3.677  0.0048 -0.4654  0.5891
  967TIP3    H1 2865   1.081   0.858   3.589  0.6165 -0.5494  0.4052
  967TIP3    H2 2866   1.183   0.776   3.665  0.8242  0.6170  1.4174
  968TIP3   OH2 2867   0.317   5.305   3.586  0.3016 -0.0853  0.5714
  968TIP3    H1 2868   0.333   5.212   3.569 -0.3320 -0.3324  1.2871
  968TIP3    H2 2869   0.300   5.343   3.500  1.1193 -0.5111  0.2085
  969TIP3   OH2 2870   0.059   2.139   4.334 -0.6958  0.0819  0.4120
  969TIP3    H1 2871   0.041   2.055   4.375 -0.5835  0.1867  0.6791
  969TIP3    H2 2872   0.065   2.201   4.407  1.2977 -0.0489  0.4045
  970TIP3   OH2 2873   5.653   2.391   5.130  0.1639  0.7145  0.1019
  970TIP3    H1 2874   5.629   2.310   5.174  1.1275  0.8992  1.0041
  970TIP3    H2 2875   5.745   2.380   5.106 -0.4114  0.4967 -2.2214
  971TIP3   OH2 2876   6.001   0.866   0.483 -0.5927 -0.7157 -0.6232
  971TIP3    H1 2877   6.040   0.896   0.565  0.5555 -0.2929 -1.3116
  971TIP3    H2 2878   6.009   0.941   0.423  0.3232 -1.6445 -1.7014
  972TIP3   OH2 2879   3.071   1.048   0.068  0.1420  0.3692 -0.3037
  972TIP3    H1 2880   2.988   1.027   0.025  0.0073  0.8322 -0.2729
  972TIP3    H2 2881   3.125   1.085  -0.002  0.9894 -1.6246 -0.7592
  973TIP3   OH2 2882   5.359   0.267   3.484  0.5135 -0.8328 -0.3428
  973TIP3    H1 2883   5.386   0.183   3.523  1.4023 -0.2467  0.3669
  973TIP3    H2 2884   5.355   0.327   3.559  0.9260  0.0066 -0.9810
  974TIP3   OH2 2885   0.660   0.641   2.824 -0.3831  0.2835  0.2037
  974TIP3    H1 2886   0.639   0.645   2.918  0.9418  1.3074  0.4878
  974TIP3    H2 2887   0.733   0.580   2.818 -0.1794  0.5504 -0.0948
  975TIP3   OH2 2888   5.940   0.432   1.804 -0.2877 -0.3934 -0.1890
  975TIP3    H1 2889   5.910   0.517   1.835 -0.8723 -0.5181 -0.4024
  975TIP3    H2 2890   5.865   0.394   1.759  0.9623  0.4795 -3.2452
  976TIP3   OH2 2891   1.152   5.034   2.998 -0.0802  0.0885  0.0381
  976TIP3    H1 2892   1.192   4.948   2.986 -1.4774 -0.5443 -0.3656
  976TIP3    H2 2893   1.077   5.034   2.938 -0.8079  1.1258  0.8925
  977TIP3   OH2 2894   4.735   3.184   4.366  0.8347  0.0621 -0.2908
  977TIP3    H1 2895   4.650   3.203   4.326  0.4842 -1.7272 -0.5075
  977TIP3    H2 2896   4.716   3.173   4.459  1.1641  1.4340 -0.0424
  978TIP3   OH2 2897   1.265   4.924   4.108 -0.0122  0.1858 -0.3410
  978TIP3    H1 2898   1.310   5.007   4.118 -0.4571  0.1800  2.2596
  978TIP3    H2 2899   1.174   4.942   4.134 -0.0454 -1.1443  0.5874
  979TIP3   OH2 2900   1.908   2.654   4.239  0.0946 -0.1741  0.0309
  979TIP3    H1 2901   1.930   2.599   4.164 -1.4711 -0.2913 -0.3604
  979TIP3    H2 2902   1.907   2.743   4.204  2.4195  0.1714  0.6195
  980TIP3   OH2 2903   2.084   1.290   2.507 -0.7951  0.3789 -0.1984
  980TIP3    H1 2904   2.112   1.202   2.482 -0.5899  0.7130 -1.1820
  980TIP3    H2 2905   2.159   1.327   2.553 -0.6223  0.2922 -0.4097
  981TIP3   OH2 2906   1.558   3.268   3.612 -0.3107  0.0950  0.1147
  981TIP3    H1 2907   1.618   3.326   3.565 -0.2625  0.5720  0.7533
  981TIP3    H2 2908   1.480   3.320   3.627  0.1189  0.3502  1.5893
  982TIP3   OH2 2909   6.175   6.293   3.657 -0.6046 -0.3421 -0.0509
  982TIP3    H1 2910   6.246   6.277   3.595  1.5456  1.3671  1.7835
  982TIP3    H2 2911   6.134   6.374   3.627 -0.6013 -0.3617 -0.1086
  983TIP3   OH2 2912   4.682   5.445   2.633 -0.0320 -0.0869 -0.1842
  983TIP3    H1 2913   4.641   5.530   2.645 -1.0644 -0.3773 -1.4253
  983TIP3    H2 2914   4.725   5.450   2.548  1.6062 -0.1692  0.6050
  984TIP3   OH2 2915   2.421   2.528   2.777 -0.2524 -0.1588  0.3792
  984TIP3    H1 2916   2.397   2.437   2.760 -2.7443  0.4663 -0.0165
  984TIP3    H2 2917   2.481   2.550   2.706 -0.9163 -1.0587 -0.5079
  985TIP3   OH2 2918   2.222   1.635   5.676  0.0169 -0.7802  0.1259
  985TIP3    H1 2919   2.251   1.698   5.611  0.1276  0.4902  1.3600
  985TIP3    H2 2920   2.131   1.617   5.653 -0.7534  1.6080  1.0376
  986TIP3   OH2 2921   5.332   2.352   3.621  0.5438 -0.3344  0.1762
  986TIP3    H1 2922   5.269   2.290   3.585 -0.6054  0.3243  1.0134
  986TIP3    H2 2923   5.370   2.306   3.697  0.1929 -0.2795  0.3865
  987TIP3   OH2 2924   2.735   0.721   3.781  0.1156 -0.4259  0.4213
  987TIP3    H1 2925   2.657   0.665   3.785 -0.6693  0.4497 -1.3444
  987TIP3    H2 2926   2.780   0.693   3.702 -0.2958  1.3919 -0.5014
  988TIP3   OH2 2927   1.421   5.262   3.011 -0.2634  0.0613 -0.1999
  988TIP3    H1 2928   1.391   5.297   2.927  0.2058  2.5585  0.5730
  988TIP3    H2 2929   1.468   5.335   3.051  0.9210 -1.5832  1.5564
  989TIP3   OH2 2930   0.804   1.703   0.298  0.0579  0.2589 -0.1855
  989TIP3    H1 2931   0.865   1.774   0.279  0.0043  0.0900 -1.0282
  989TIP3    H2 2932   0.759   1.730   0.378  0.6630  0.7587 -0.0057
  990TIP3   OH2 2933   3.837   4.969   0.557 -0.5924 -0.2297 -0.5681
  990TIP3    H1 2934   3.904   5.032   0.582  0.1138 -1.4244  0.6741
  990TIP3    H2 2935   3.755   5.007   0.589 -0.1778  0.0521  0.1662
  991TIP3   OH2 2936   1.814   5.889   3.559  0.1138 -0.0944 -0.8616
  991TIP3    H1 2937   1.752   5.843   3.502 -2.2378  0.1605  1.3287
  991TIP3    H2 2938   1.880   5.823   3.580 -2.6126 -2.3299  1.3781
  992TIP3   OH2 2939   3.761   5.173   2.726  0.3973 -0.1671 -0.0789
  992TIP3    H1 2940   3.801   5.231   2.790  1.1413 -0.6938 -0.0566
  992TIP3    H2 2941   3.667   5.183   2.740  0.5116  0.9805 -0.0389
  993TIP3   OH2 2942   0.198   4.396   3.315  0.6512  0.1909 -0.4658
  993TIP3    H1 2943   0.221   4.329   3.251  0.3289  0.1782 -0.5657
  993TIP3    H2 2944   0.258   4.469   3.296  2.2140 -0.6948  0.7373
  994TIP3   OH2 2945   5.011   1.542   3.991 -0.4416  0.0956 -0.5707
  994TIP3    H1 2946   5.065   1.614   4.023  0.4263 -0.9165  0.3195
  994TIP3    H2 2947   4.929   1.550   4.039  0.2671 -0.4659  0.7975
  995TIP3   OH2 2948   5.020   0.423   4.389 -0.9377 -0.3120 -0.4399
  995TIP3    H1 2949   5.012   0.328   4.397 -2.9706 -0.2568 -1.3673
  995TIP3    H2 2950   4.990   0.457   4.474  0.9751 -0.4873  0.3579
  996TIP3   OH2 2951   3.026   1.220   4.182 -0.3604 -0.2429 -0.2666
  996TIP3    H1 2952   3.100   1.160   4.175 -0.6859 -0.5452 -1.3576
  996TIP3    H2 2953   2.955   1.167   4.218 -0.4833 -0.3720 -0.6900
  997TIP3   OH2 2954   4.443   4.475   1.375 -0.4467 -0.1859  0.3898
  997TIP3    H1 2955   4.441   4.388   1.415  0.2054  0.9023  3.0132
  997TIP3    H2 2956   4.536   4.496   1.367 -0.5687  0.9175  1.4463
  998TIP3   OH2 2957   1.444   4.817   0.356  0.1208  0.7144  0.4853
  998TIP3    H1 2958   1.514   4.881   0.372  0.5103  0.1021  1.2987
  998TIP3    H2 2959   1.440   4.810   0.260  1.1775  0.7662  0.4254
  999TIP3   OH2 2960   2.219   0.594   1.594  0.3770 -0.2553  0.0417
  999TIP3    H1 2961   2.238   0.528   1.527  0.5645  0.9970 -1.1790
  999TIP3    H2 2962   2.289   0.584   1.658  1.9539  0.4587 -1.4694
 1000TIP3   OH2 2963   4.398   0.561   1.083  0.2141 -0.3773 -0.2084
 1000TIP3    H1 2964   4.465   0.495   1.068  0.7750  0.1043  0.1510
 1000TIP3    H2 2965   4.376   0.553   1.176  1.5414  1.0949  0.2563
 1001TIP3   OH2 2966   3.715   1.106   1.476  0.2463 -0.4858  0.5509
 1001TIP3    H1 2967   3.714   1.202   1.485  1.3314 -0.4657  0.5583
 1001TIP3    H2 2968   3.645   1.088   1.412  1.6494  0.5475 -1.3732
 1002TIP3   OH2 2969   2.216   6.088   2.729 -0.2993  0.1422  0.4051
 1002TIP3    H1 2970   2.190   6.095   2.637 -0.6980 -0.5581  0.4555
 1002TIP3    H2 2971   2.251   5.999   2.738 -0.9027 -0.0448  1.0780
 1003TIP3   OH2 2972   3.137   5.906   4.425  0.1020  0.3507 -0.2709
 1003TIP3    H1 2973   3.156   5.992   4.386  0.5820  0.0390 -0.7463
 1003TIP3    H2 2974   3.163   5.843   4.358  0.2929 -0.1843  0.2926
 1004TIP3   OH2 2975   4.385   2.872   2.757 -0.2883  0.4222 -0.3199
 1004TIP3    H1 2976   4.402   2.956   2.715  0.8829  0.3344 -0.0571
 1004TIP3    H2 2977   4.453   2.864   2.824 -0.2447 -0.8261 -0.4839
 1005TIP3   OH2 2978   6.239   2.699   4.647  0.3198 -0.3999  0.2182
 1005TIP3    H1 2979   6.220   2.778   4.595 -0.3422  0.6676  2.0000
 1005TIP3    H2 2980   6.187   2.630   4.606  0.8665  0.0648 -1.3431
 1006TIP3   OH2 2981   2.282   1.794   1.952  0.4520 -0.1997  0.0555
 1006TIP3    H1 2982   2.204   1.816   1.901  1.2635  0.0381 -1.1312
 1006TIP3    H2 2983   2.349   1.855   1.920  1.0423 -0.1788  1.2862
 1007TIP3   OH2 2984   3.008   1.932   2.028  0.0822 -0.3429 -0.0460
 1007TIP3    H1 2985   2.983   1.854   2.078  0.9832 -0.9367 -0.4989
 1007TIP3    H2 2986   3.095   1.912   1.994  0.6545  1.1657  0.4520
 1008TIP3   OH2 2987   0.603   2.523   1.859  0.1511  0.0680  0.3249
 1008TIP3    H1 2988   0.589   2.438   1.900 -1.1174 -0.1015 -0.4036
 1008TIP3    H2 2989   0.594   2.586   1.930 -2.0836 -0.2156  0.3748
 1009TIP3   OH2 2990   6.553   4.010   0.563  0.1999 -0.2410 -0.2624
 1009TIP3    H1 2991   6.639   4.000   0.523  0.7080 -0.4102  0.8345
 1009TIP3    H2 2992   6.501   4.056   0.497  1.2108  0.1296 -0.8285
 1010TIP3   OH2 2993   4.808   1.598   0.668  0.7055 -0.0868 -0.1027
 1010TIP3    H1 2994   4.798   1.674   0.726  1.0833  1.0010 -1.4134
 1010TIP3    H2 2995   4.901   1.575   0.676  0.3988 -1.0672  1.0311
 1011TIP3   OH2 2996   1.336   6.686   0.736 -0.1958 -0.6749 -0.7692
 1011TIP3    H1 2997   1.418   6.730   0.716  0.3218 -1.7023 -0.9474
 1011TIP3    H2 2998   1.357   6.593   0.737 -0.6581 -0.8533  2.2730
 1012TIP3   OH2 2999   5.995   6.706   3.712  0.0578  0.3878  0.6709
 1012TIP3    H1 3000   5.978   6.796   3.684 -1.6251 -0.1586 -0.1964
 1012TIP3    H2 3001   6.072   6.713   3.769  1.8015  1.9998 -1.6656
 1013TIP3   OH2 3002   0.910   1.376   1.966 -0.6136 -0.8492  0.3092
 1013TIP3    H1 3003   0.949   1.359   1.881 -1.2477  2.0881 -0.6992
 1013TIP3    H2 3004   0.973   1.341   2.029  2.5505  1.4537 -1.2967
 1014TIP3   OH2 3005   3.508   1.407   3.263 -0.4155  0.0600 -0.2175
 1014TIP3    H1 3006   3.470   1.438   3.181  0.0805 -0.7729 -0.7864
 1014TIP3    H2 3007   3.491   1.312   3.263  1.8514 -0.4271 -0.6681
 1015TIP3   OH2 3008   0.493   5.674   3.168  0.0359  0.0452  0.2134
 1015TIP3    H1 3009   0.454   5.755   3.136 -0.0702 -0.2725 -0.4766
 1015TIP3    H2 3010   0.578   5.702   3.203 -0.8084  0.7431  1.7849
 1016TIP3   OH2 3011   2.490   5.476   1.401  0.0653 -0.2335  0.0160
 1016TIP3    H1 3012   2.512   5.537   1.472  1.4763 -0.2049 -0.4211
 1016TIP3    H2 3013   2.494   5.528   1.322  0.6005 -0.7405 -0.2945
 1017TIP3   OH2 3014   6.238   0.783   0.698 -0.3357 -0.6546  0.0448
 1017TIP3    H1 3015   6.331   0.803   0.709 -0.2249 -1.0806 -0.1059
 1017TIP3    H2 3016   6.236   0.708   0.638 -0.8494  0.7917 -1.8624
 1018TIP3   OH2 3017   1.398   6.221   2.850 -0.4349  0.0475  0.4807
 1018TIP3    H1 3018   1.366   6.287   2.787 -1.1380  1.0794  1.8510
 1018TIP3    H2 3019   1.323   6.164   2.864  0.3700 -1.5273 -1.2080
 1019TIP3   OH2 3020   1.252   5.698   2.735 -0.6438  0.5876  0.4082
 1019TIP3    H1 3021   1.169   5.652   2.747 -0.1030 -0.0488  1.8683
 1019TIP3    H2 3022   1.253   5.721   2.642 -0.8989 -2.4506 -0.4480
 1020TIP3   OH2 3023   6.963   4.813   4.288 -0.2269 -0.1450 -0.0781
 1020TIP3    H1 3024   6.868   4.822   4.297 -0.3062 -0.7466 -0.2579
 1020TIP3    H2 3025   6.975   4.736   4.232  0.3536  0.4360 -0.7780
 1021TIP3   OH2 3026   4.448   1.060   0.525  0.1103 -0.1056 -0.4604
 1021TIP3    H1 3027   4.393   1.111   0.585  0.8894 -2.8351  2.8812
 1021TIP3    H2 3028   4.403   0.975   0.518  1.3551 -0.6835 -1.7730
 1022TIP3   OH2 3029   6.865   4.820   3.014 -0.2073 -0.2667 -0.2294
 1022TIP3    H1 3030   6.776   4.836   2.985  0.2880 -1.2817 -2.5321
 1022TIP3    H2 3031   6.913   4.796   2.934  2.5341  1.7753  0.6367
 1023TIP3   OH2 3032   3.879   2.367   3.411 -0.4359 -0.1548 -0.2896
 1023TIP3    H1 3033   3.945   2.385   3.344 -0.4424 -0.4138 -0.3650
 1023TIP3    H2 3034   3.796   2.365   3.363 -0.3104 -1.6095 -0.4879
 1024TIP3   OH2 3035   2.626   3.682   3.446 -0.2114  0.1246 -0.3146
 1024TIP3    H1 3036   2.569   3.662   3.373  0.5936  0.5875 -1.0905
 1024TIP3    H2 3037   2.573   3.737   3.504 -0.7205  0.1064 -0.7609
 1025TIP3   OH2 3038   2.671   5.579   1.773 -0.6189  0.4118  0.3118
 1025TIP3    H1 3039   2.751   5.581   1.826  0.3381  0.7621 -1.1030
 1025TIP3    H2 3040   2.642   5.488   1.776  0.1061  0.1808  0.4527
 1026TIP3   OH2 3041   6.645   2.880   4.750  0.2760  0.3639 -0.0991
 1026TIP3    H1 3042   6.583   2.922   4.691 -1.3054 -1.8044 -0.1301
 1026TIP3    H2 3043   6.710   2.841   4.692 -1.0182 -1.3653 -0.4758
 1027TIP3   OH2 3044   3.446   0.233   2.159 -0.3779 -0.2660  0.5404
 1027TIP3    H1 3045   3.389   0.306   2.184  0.1909  0.1093  0.7477
 1027TIP3    H2 3046   3.458   0.184   2.241  0.2518  0.1116  0.6793
 1028TIP3   OH2 3047   3.382   6.293   5.392 -0.0845  0.1929 -0.1292
 1028TIP3    H1 3048   3.347   6.376   5.362 -0.6483  0.4525  1.1573
 1028TIP3    H2 3049   3.475   6.310   5.407  0.1726  0.0920 -1.5371
 1029TIP3   OH2 3050   5.103   6.694   0.559 -0.1288 -0.4040  0.5026
 1029TIP3    H1 3051   5.127   6.760   0.494  0.3464 -1.6772 -0.6712
 1029TIP3    H2 3052   5.033   6.644   0.518  1.0237 -2.0137  0.4052
 1030TIP3   OH2 3053   4.537   2.511   5.690 -0.3479 -0.0769  0.2201
 1030TIP3    H1 3054   4.549   2.448   5.762  3.6961 -0.0734 -0.1879
 1030TIP3    H2 3055   4.508   2.591   5.733  3.0686  0.2824  2.2431
 1031TIP3   OH2 3056   4.885   5.269   5.725  0.2073 -0.4288  0.5048
 1031TIP3    H1 3057   4.875   5.257   5.819 -1.8360 -0.7555  0.3002
 1031TIP3    H2 3058   4.839   5.350   5.706 -0.0516 -0.7555 -0.3045
 1032TIP3   OH2 3059   4.262   3.343   5.140  0.0855  0.1594 -0.4034
 1032TIP3    H1 3060   4.256   3.393   5.058  1.3418 -0.0506 -0.6433
 1032TIP3    H2 3061   4.355   3.343   5.161 -0.1602 -0.2609  0.7423
 1033TIP3   OH2 3062   1.512   4.512   3.970  0.1152 -0.0961 -0.4165
 1033TIP3    H1 3063   1.445   4.445   3.979  0.4212 -0.4718 -0.8668
 1033TIP3    H2 3064   1.495   4.552   3.885  0.7245 -0.4982 -0.7365
 1034TIP3   OH2 3065   5.413   6.013   3.229  0.1921 -0.1664  0.1959
 1034TIP3    H1 3066   5.426   6.103   3.199  2.1226 -0.4494  0.0595
 1034TIP3    H2 3067   5.318   6.001   3.227  0.0126  0.8684 -2.7087
 1035TIP3   OH2 3068   3.821   5.446   5.776  0.0330 -0.3683 -0.8686
 1035TIP3    H1 3069   3.890   5.477   5.716  1.4697  0.5918  1.1708
 1035TIP3    H2 3070   3.856   5.365   5.813  0.2174  0.2453  0.3583
 1036TIP3   OH2 3071   0.863   1.055   0.123 -0.0332  0.0471  0.2769
 1036TIP3    H1 3072   0.787   1.039   0.179 -0.1970  0.0855  0.0649
 1036TIP3    H2 3073   0.892   1.143   0.148 -0.2906  0.1865  0.0859
 1037TIP3   OH2 3074   0.756   2.617   5.623 -0.0038  0.0002 -0.0807
 1037TIP3    H1 3075   0.835   2.671   5.632 -0.3460  0.4046  0.5264
 1037TIP3    H2 3076   0.714   2.622   5.709  0.5225 -2.1342  0.3552
 1038TIP3   OH2 3077   6.856   6.136   5.518 -0.3676 -0.3968 -0.4464
 1038TIP3    H1 3078   6.831   6.140   5.610  0.7755  0.9470 -0.1625
 1038TIP3    H2 3079   6.785   6.180   5.472 -0.4612 -0.1764 -0.0934
 1039TIP3   OH2 3080   1.228   2.262   4.911 -0.4518 -0.3687  0.5730
 1039TIP3    H1 3081   1.252   2.334   4.970 -0.6982  0.7971 -0.7044
 1039TIP3    H2 3082   1.287   2.191   4.935 -0.3063  0.1865  1.9745
 1040TIP3   OH2 3083   1.428   3.811   3.889  0.2531 -0.6232 -0.4339
 1040TIP3    H1 3084   1.407   3.778   3.977  0.3306 -1.7042 -0.8060
 1040TIP3    H2 3085   1.490   3.882   3.905 -1.4835  0.7697  0.5151
 1041TIP3   OH2 3086   5.172   2.135   5.631 -0.3633 -0.3950  0.0344
 1041TIP3    H1 3087   5.108   2.160   5.698  0.2222 -0.2355  0.5530
 1041TIP3    H2 3088   5.254   2.176   5.661  0.2896 -1.7253  0.1221
 1042TIP3   OH2 3089   0.415   5.804   0.732 -0.4273 -0.1222  0.0334
 1042TIP3    H1 3090   0.409   5.789   0.638 -0.6639 -0.0024  0.0279
 1042TIP3    H2 3091   0.502   5.842   0.745  0.1644 -1.3958  0.0381
 1043TIP3   OH2 3092   3.572   3.214   0.919  0.5766 -0.0831  0.1808
 1043TIP3    H1 3093   3.637   3.284   0.913  1.6428 -1.0115  0.4392
 1043TIP3    H2 3094   3.622   3.138   0.950 -0.7984 -0.6291  1.1355
 1044TIP3   OH2 3095   7.064   3.703   1.049  0.2697 -0.4047 -0.5381
 1044TIP3    H1 3096   7.058   3.787   1.093 -1.1543 -1.3994  1.3495
 1044TIP3    H2 3097   6.995   3.705   0.983 -0.6922 -0.5384  0.4258
 1045TIP3   OH2 3098   0.457   2.061   3.141  0.1708 -0.5238  0.1602
 1045TIP3    H1 3099   0.499   1.995   3.086  0.1691 -0.0063 -0.4859
 1045TIP3    H2 3100   0.413   2.119   3.078  0.9160  0.5985  0.6477
 1046TIP3   OH2 3101   6.634   1.967   3.956 -0.3150  0.3297 -0.0306
 1046TIP3    H1 3102   6.593   1.881   3.967 -2.1481  1.3179  1.6603
 1046TIP3    H2 3103   6.725   1.954   3.980 -0.5321 -1.1850  0.0478
 1047TIP3   OH2 3104   3.438   6.782   1.626  0.4623 -0.2763  0.1720
 1047TIP3    H1 3105   3.435   6.708   1.565 -1.1803  0.8282 -1.1967
 1047TIP3    H2 3106   3.441   6.859   1.569  1.7732  0.7440  1.5541
 1048TIP3   OH2 3107   7.227   4.878   4.410 -0.1044 -0.1992 -0.2868
 1048TIP3    H1 3108   7.136   4.869   4.379 -0.4078 -0.7126  0.6810
 1048TIP3    H2 3109   7.239   4.803   4.469  1.1159 -0.4080 -0.7700
 1049TIP3   OH2 3110   5.564   5.982   3.446  0.5375 -0.2966 -0.1480
 1049TIP3    H1 3111   5.593   6.073   3.451  0.9950 -0.4466  0.0333
 1049TIP3    H2 3112   5.522   5.975   3.361 -1.6724  0.6948  0.7801
 1050TIP3   OH2 3113   5.973   5.714   2.851 -0.6161  0.1162 -0.2920
 1050TIP3    H1 3114   6.033   5.652   2.810 -1.0881 -0.6476  0.1406
 1050TIP3    H2 3115   5.990   5.797   2.806  0.9239 -0.0160 -0.0007
 1051TIP3   OH2 3116   0.636   0.011   0.936  0.5004 -0.3793  1.4485
 1051TIP3    H1 3117   0.588   0.089   0.962 -0.1404 -0.2408 -0.0502
 1051TIP3    H2 3118   0.576  -0.061   0.953  0.5840 -0.4152  1.5929
 1052TIP3   OH2 3119   4.540   2.604   3.109 -0.1241 -0.0964  0.5878
 1052TIP3    H1 3120   4.610   2.587   3.046 -0.4542 -0.1455  0.2350
 1052TIP3    H2 3121   4.580   2.586   3.194  0.5568  0.7333  0.4563
 1053TIP3   OH2 3122   6.728   0.807   1.002 -0.0536 -0.1591  0.1247
 1053TIP3    H1 3123   6.769   0.878   0.953  1.6543 -0.0593  1.5789
 1053TIP3    H2 3124   6.782   0.798   1.081 -2.3318 -0.6700  1.7356
 1054TIP3   OH2 3125   0.784   3.577   0.208  0.3495 -0.0791  0.8094
 1054TIP3    H1 3126   0.818   3.614   0.128  1.3856  1.5676  1.9573
 1054TIP3    H2 3127   0.757   3.488   0.184  0.5450  0.4016 -1.3424
 1055TIP3   OH2 3128   5.159   5.745   5.461  0.0122 -0.5478 -0.1644
 1055TIP3    H1 3129   5.193   5.659   5.484 -2.1177 -1.7817 -1.3554
 1055TIP3    H2 3130   5.143   5.787   5.546  0.9818 -1.3192  0.4368
 1056TIP3   OH2 3131   1.990   4.953   1.233  0.0491 -0.8351 -0.0509
 1056TIP3    H1 3132   1.960   4.871   1.271 -0.4815 -0.7268 -0.2189
 1056TIP3    H2 3133   1.928   5.018   1.266  0.0055 -0.6276 -0.5251
 1057TIP3   OH2 3134   1.464   6.163   5.432  0.5558 -0.1860 -0.0970
 1057TIP3    H1 3135   1.500   6.232   5.377  0.3066  0.9803  1.1703
 1057TIP3    H2 3136   1.540   6.116   5.465  0.7996  0.3958  0.1812
 1058TIP3   OH2 3137   1.332   3.985   5.500 -0.3892 -0.1224  0.2587
 1058TIP3    H1 3138   1.357   3.896   5.475  0.9950  0.7501 -1.7075
 1058TIP3    H2 3139   1.388   4.006   5.574  0.5141 -0.3226 -0.3446
 1059TIP3   OH2 3140   3.954   0.046   0.989  0.4010  0.5146  0.5718
 1059TIP3    H1 3141   3.997   0.132   0.988  2.9053 -0.6500  0.7018
 1059TIP3    H2 3142   3.960   0.016   0.898 -1.0020  0.6731  0.4001
 1060TIP3   OH2 3143   3.295   4.264   3.854  0.2145  0.5466 -0.8061
 1060TIP3    H1 3144   3.377   4.284   3.899  0.3883 -0.3861 -0.6801
 1060TIP3    H2 3145   3.228   4.314   3.901  0.2657 -1.0058  1.0358
 1061TIP3   OH2 3146   5.929   4.182   0.430 -0.1498  0.3509  0.2571
 1061TIP3    H1 3147   5.905   4.237   0.504 -2.0676 -0.6902  0.4520
 1061TIP3    H2 3148   5.855   4.188   0.370  0.2250 -0.9174 -0.3651
 1062TIP3   OH2 3149   1.541   4.498   2.484  0.3881 -0.3967 -0.3828
 1062TIP3    H1 3150   1.470   4.440   2.510  0.7186 -1.2167 -1.2371
 1062TIP3    H2 3151   1.499   4.582   2.467  0.0812  0.0500  2.1519
 1063TIP3   OH2 3152   5.334   5.689   1.721 -0.0471 -0.0291 -0.0295
 1063TIP3    H1 3153   5.290   5.676   1.637 -0.5542 -0.9469  0.3579
 1063TIP3    H2 3154   5.323   5.782   1.741 -2.3132 -0.3101  0.3100
 1064TIP3   OH2 3155   6.365   4.910   5.076  0.0471 -0.6186  0.2067
 1064TIP3    H1 3156   6.386   5.003   5.083 -0.0669 -0.6827  1.6895
 1064TIP3    H2 3157   6.402   4.883   4.991  1.2324  0.4769  0.3474
 1065TIP3   OH2 3158   1.789   3.996   4.650 -0.3213 -0.1268 -0.4489
 1065TIP3    H1 3159   1.867   4.041   4.684 -0.3939  0.5284 -1.1201
 1065TIP3    H2 3160   1.805   3.990   4.556 -1.4280  0.7051 -0.7001
 1066TIP3   OH2 3161   6.813   3.503   3.119 -0.0650  0.3531 -0.0798
 1066TIP3    H1 3162   6.892   3.538   3.162  0.3786  0.1803 -0.7361
 1066TIP3    H2 3163   6.741   3.550   3.160  0.4546  1.2885 -0.1996
 1067TIP3   OH2 3164   4.082   2.449   4.687 -0.3111 -0.4915 -0.3206
 1067TIP3    H1 3165   4.078   2.413   4.598 -0.3765 -1.2711 -0.0076
 1067TIP3    H2 3166   3.991   2.470   4.709 -0.2025  0.5071 -0.7483
 1068TIP3   OH2 3167   7.060   5.162   4.463 -0.5374 -0.1201 -0.0733
 1068TIP3    H1 3168   7.107   5.160   4.547  0.5568 -0.9538 -0.6773
 1068TIP3    H2 3169   7.110   5.104   4.406  0.3087  2.4330 -2.1375
 1069TIP3   OH2 3170   6.828   1.750   1.073  0.6046  0.1983  0.6070
 1069TIP3    H1 3171   6.855   1.806   1.145  2.5612 -1.8628  1.5994
 1069TIP3    H2 3172   6.907   1.740   1.019 -0.5344  0.8350 -1.2847
 1070TIP3   OH2 3173   3.505   5.868   4.927  0.4577  0.1252 -0.6576
 1070TIP3    H1 3174   3.496   5.781   4.889  1.2340 -0.7252  0.9680
 1070TIP3    H2 3175   3.461   5.861   5.012  1.3218  1.0337 -0.1128
 1071TIP3   OH2 3176   2.279   1.115   0.798 -1.0323  0.0526  0.2776
 1071TIP3    H1 3177   2.312   1.161   0.875  0.2995 -0.8981  0.2959
 1071TIP3    H2 3178   2.323   1.159   0.724 -0.8071 -0.2964  0.2028
 1072TIP3   OH2 3179   4.657   2.824   5.494 -0.4183  0.2652  0.2130
 1072TIP3    H1 3180   4.627   2.909   5.461  0.4442  0.5382  0.1141
 1072TIP3    H2 3181   4.704   2.845   5.574 -0.3590 -0.1449  0.2882
 1073TIP3   OH2 3182   0.232   3.729   2.699 -0.2933  0.5686 -0.2482
 1073TIP3    H1 3183   0.217   3.657   2.762 -0.4819  0.5225 -0.3452
 1073TIP3    H2 3184   0.146   3.744   2.660 -0.2303  0.7780 -0.3043
 1074TIP3   OH2 3185   6.780   1.694   3.419  0.4684 -0.2440 -0.2523
 1074TIP3    H1 3186   6.801   1.780   3.381  0.1376 -0.2328 -0.4117
 1074TIP3    H2 3187   6.693   1.674   3.386  0.9024 -1.0592 -0.9410
 1075TIP3   OH2 3188   1.609   2.509   2.829 -0.3202 -0.3597  0.4191
 1075TIP3    H1 3189   1.572   2.597   2.820 -1.0404 -0.6590  0.3824
 1075TIP3    H2 3190   1.702   2.524   2.845 -0.3355  0.3960 -0.1211
 1076TIP3   OH2 3191   1.032   5.592   3.898  0.2224  0.2687  0.5263
 1076TIP3    H1 3192   1.068   5.524   3.955  0.0719 -0.6487 -0.4504
 1076TIP3    H2 3193   1.075   5.579   3.814 -1.0820  0.2811 -0.1672
 1077TIP3   OH2 3194   6.081   2.344   3.689 -0.0386 -0.1170  0.2773
 1077TIP3    H1 3195   6.009   2.382   3.638 -0.3163  1.9222  2.0451
 1077TIP3    H2 3196   6.052   2.255   3.707 -1.6797  0.3265  0.0706
 1078TIP3   OH2 3197   2.514   2.187   1.649  0.0254  0.3718  0.3761
 1078TIP3    H1 3198   2.507   2.221   1.560 -1.2625 -0.4073  0.1467
 1078TIP3    H2 3199   2.534   2.263   1.703  1.4729  0.7481 -0.6522
 1079TIP3   OH2 3200   3.269   6.558   3.707  0.1637  0.0228 -0.1216
 1079TIP3    H1 3201   3.181   6.522   3.695 -0.5668  1.6257  0.0491
 1079TIP3    H2 3202   3.273   6.630   3.644  0.9512  0.6445  0.6178
 1080TIP3   OH2 3203   2.553   0.934   2.835 -0.0400 -0.5371 -0.2340
 1080TIP3    H1 3204   2.617   0.966   2.898  0.5245 -0.0796 -1.0270
 1080TIP3    H2 3205   2.525   0.849   2.871 -1.3822  0.6458  1.7650
 1081TIP3   OH2 3206   6.559   0.130   2.913  0.1579  0.4057 -0.0127
 1081TIP3    H1 3207   6.528   0.073   2.984  0.5071  1.1416  0.7486
 1081TIP3    H2 3208   6.621   0.189   2.955 -1.2981  2.3571 -0.4472
 1082TIP3   OH2 3209   4.397   5.082   0.634  0.4959 -0.3727  0.0365
 1082TIP3    H1 3210   4.413   4.989   0.649  0.5072 -0.2452  0.8614
 1082TIP3    H2 3211   4.323   5.085   0.574 -1.4664 -0.9216  2.2816
 1083TIP3   OH2 3212   3.733   2.785   2.420 -0.1263  0.2296 -0.0338
 1083TIP3    H1 3213   3.693   2.708   2.380 -2.4424  0.5832  1.4244
 1083TIP3    H2 3214   3.708   2.780   2.512 -1.2220  3.2048 -0.0540
 1084TIP3   OH2 3215   1.704   1.779   3.043  0.5920  0.0993 -0.7352
 1084TIP3    H1 3216   1.720   1.862   3.088  0.1121 -0.0532 -0.2789
 1084TIP3    H2 3217   1.785   1.762   2.996  0.2865  1.4415 -1.8247
 1085TIP3   OH2 3218   7.022   0.189   1.952 -0.0882  0.1663 -0.3599
 1085TIP3    H1 3219   7.001   0.175   2.044  0.2657  0.0200 -0.2981
 1085TIP3    H2 3220   7.000   0.106   1.909 -1.1908  0.5572 -0.5862
 1086TIP3   OH2 3221   2.809   0.924   5.285  0.5351 -0.0142  0.5734
 1086TIP3    H1 3222   2.902   0.915   5.265  0.7968  0.3387  1.5733
 1086TIP3    H2 3223   2.782   0.837   5.315  0.1395 -0.5485 -1.1994
 1087TIP3   OH2 3224   2.524   3.382   2.410 -0.0546  0.4970 -0.0497
 1087TIP3    H1 3225   2.617   3.404   2.415 -0.3141  1.9300 -1.0198
 1087TIP3    H2 3226   2.492   3.389   2.501  0.6920  0.3663  0.2254
 1088TIP3   OH2 3227   3.298   3.478   2.948  0.0902 -0.2140 -0.2835
 1088TIP3    H1 3228   3.301   3.468   2.853 -1.1047 -2.3292 -0.1492
 1088TIP3    H2 3229   3.229   3.543   2.963 -0.1841 -0.3709 -0.8336
 1089TIP3   OH2 3230   3.142   0.791   5.702 -0.0545  0.3469  0.1268
 1089TIP3    H1 3231   3.116   0.835   5.622  0.2381  1.6375  0.7234
 1089TIP3    H2 3232   3.158   0.861   5.765  0.3600 -0.6064  1.1284
 1090TIP3   OH2 3233   2.148   1.125   4.249  0.3952  0.3063 -0.6845
 1090TIP3    H1 3234   2.081   1.190   4.271 -0.0556 -0.8573  1.7694
 1090TIP3    H2 3235   2.220   1.143   4.310  0.9450 -0.4583 -1.0968
 1091TIP3   OH2 3236   3.230   3.939   4.558  0.3695 -0.5381 -0.2515
 1091TIP3    H1 3237   3.285   3.933   4.480  0.3201  0.3622 -0.3683
 1091TIP3    H2 3238   3.281   3.898   4.627  1.5049  0.8743 -0.1992
 1092TIP3   OH2 3239   3.803   4.088   4.084  0.3736  0.0367  0.1414
 1092TIP3    H1 3240   3.722   4.138   4.072  0.6502  0.7598  1.1530
 1092TIP3    H2 3241   3.811   4.037   4.004  1.1881  3.1869 -1.9791
 1093TIP3   OH2 3242   0.737   1.805   3.158  0.2943 -0.2475 -0.5751
 1093TIP3    H1 3243   0.718   1.792   3.251  0.7165  3.7225  0.2199
 1093TIP3    H2 3244   0.832   1.792   3.151  0.6048  1.4298  0.0499
 1094TIP3   OH2 3245   4.948   2.137   3.868 -0.0034 -0.1048  0.3904
 1094TIP3    H1 3246   5.022   2.129   3.929  2.1217 -2.6225 -2.2122
 1094TIP3    H2 3247   4.911   2.049   3.864  0.7255 -0.3950 -2.6925
 1095TIP3   OH2 3248   5.993   1.914   2.240 -0.3408 -0.3732 -0.2695
 1095TIP3    H1 3249   6.078   1.943   2.274 -0.8750 -0.2495  0.9865
 1095TIP3    H2 3250   5.937   1.908   2.317 -1.7502  0.4665 -1.1842
 1096TIP3   OH2 3251   6.353   5.765   2.852 -0.6323 -0.2914  0.1416
 1096TIP3    H1 3252   6.420   5.823   2.816 -0.4361 -0.4328  0.2819
 1096TIP3    H2 3253   6.393   5.726   2.929 -0.6305 -0.8997 -0.1581
 1097TIP3   OH2 3254   1.518   3.928   3.557 -0.0230  0.6021  0.8447
 1097TIP3    H1 3255   1.449   3.864   3.570 -0.1067  0.4319 -0.3981
 1097TIP3    H2 3256   1.596   3.877   3.537 -0.0650  0.8818 -0.0474
 1098TIP3   OH2 3257   3.064   6.598   5.082 -0.5284 -0.4006 -0.2813
 1098TIP3    H1 3258   3.055   6.534   5.012  0.6275  0.3522 -1.1468
 1098TIP3    H2 3259   2.999   6.665   5.062 -0.1240 -0.1307 -0.7062
 1099TIP3   OH2 3260   3.215   2.146   0.795  1.0204  0.1690 -0.5908
 1099TIP3    H1 3261   3.179   2.233   0.778 -0.2147 -0.5311 -1.7042
 1099TIP3    H2 3262   3.291   2.141   0.736  1.2056  0.5347 -0.3937
 1100TIP3   OH2 3263   3.550   3.649   0.421  0.6518 -0.7712  0.0829
 1100TIP3    H1 3264   3.571   3.586   0.353 -1.6609 -0.0454 -1.4167
 1100TIP3    H2 3265   3.560   3.601   0.503  2.4672 -1.9657 -0.7772
 1101TIP3   OH2 3266   0.823   4.751   5.295  0.4120 -0.1670  0.0024
 1101TIP3    H1 3267   0.744   4.804   5.284 -0.1722 -1.2053 -1.1075
 1101TIP3    H2 3268   0.798   4.665   5.262  1.5630 -0.9334  1.0734
 1102TIP3   OH2 3269   1.140   5.775   5.373  0.3686 -0.3636  0.3450
 1102TIP3    H1 3270   1.204   5.717   5.413 -0.3374  0.8126  3.4890
 1102TIP3    H2 3271   1.159   5.861   5.411 -2.3257  0.2240  0.5710
 1103TIP3   OH2 3272   4.738   3.814   1.456  0.1401 -0.0320 -0.2558
 1103TIP3    H1 3273   4.659   3.829   1.507 -0.0906 -0.1158 -0.5815
 1103TIP3    H2 3274   4.724   3.863   1.375  1.2510  1.5483  0.4572
 1104TIP3   OH2 3275   4.795   2.412   2.505  0.0604  0.4624  0.5405
 1104TIP3    H1 3276   4.788   2.357   2.427  2.2381  0.9991 -0.1031
 1104TIP3    H2 3277   4.779   2.501   2.473 -0.9862  0.4954  1.1091
 1105TIP3   OH2 3278   6.314   0.563   3.838 -0.1938 -0.1559 -0.1871
 1105TIP3    H1 3279   6.297   0.657   3.832  0.9991  0.0275 -0.7531
 1105TIP3    H2 3280   6.392   0.556   3.893  0.5949 -0.7257 -1.3576
 1106TIP3   OH2 3281   0.957   1.933   1.946  0.5690  0.2861 -0.2028
 1106TIP3    H1 3282   0.882   1.988   1.928 -0.9501 -1.4499  0.4799
 1106TIP3    H2 3283   0.931   1.846   1.914  1.9107 -0.5502  0.8704
 1107TIP3   OH2 3284   2.086   2.431   4.749  0.0350  0.3750  0.1982
 1107TIP3    H1 3285   2.025   2.461   4.817 -0.9369  1.0422 -0.9281
 1107TIP3    H2 3286   2.092   2.505   4.688  1.0746 -0.1161 -0.3242
 1108TIP3   OH2 3287   0.781   0.676   1.843 -0.0351  0.1270 -0.9893
 1108TIP3    H1 3288   0.833   0.596   1.830 -0.4320 -0.5151  1.0595
 1108TIP3    H2 3289   0.806   0.732   1.769  0.7647 -1.6032 -2.1171
 1109TIP3   OH2 3290   0.281   4.418   5.718  0.1003 -0.2054 -0.4527
 1109TIP3    H1 3291   0.313   4.491   5.665 -0.3618 -0.1079 -0.5999
 1109TIP3    H2 3292   0.187   4.418   5.704 -0.1549  0.3967  1.0930
 1110TIP3   OH2 3293   0.780   3.405   1.557  0.0606  0.2250  0.3508
 1110TIP3    H1 3294   0.729   3.474   1.600  0.4946  0.0976  1.0934
 1110TIP3    H2 3295   0.869   3.439   1.554 -0.1491  0.7227 -1.5435
 1111TIP3   OH2 3296   3.670   4.524   3.459  0.2256 -0.2749 -0.1542
 1111TIP3    H1 3297   3.586   4.549   3.496  0.8646  0.6792  0.7231
 1111TIP3    H2 3298   3.728   4.597   3.481  0.4702  0.8094 -3.8287
 1112TIP3   OH2 3299   6.903   6.283   1.291 -0.3127  0.3797 -0.5664
 1112TIP3    H1 3300   6.879   6.327   1.373  0.2749 -0.4015  0.0427
 1112TIP3    H2 3301   6.860   6.197   1.297 -0.5597  0.4439 -1.2513
 1113TIP3   OH2 3302   3.088   2.950   2.924  0.2048  0.2112  0.6389
 1113TIP3    H1 3303   3.139   2.894   2.983  0.6883 -0.4995 -0.4036
 1113TIP3    H2 3304   3.154   2.999   2.875 -0.1841  0.7953  0.6931
 1114TIP3   OH2 3305   2.431   5.800   2.535 -0.1959  0.3657  0.3224
 1114TIP3    H1 3306   2.349   5.849   2.528 -1.6056 -1.7915  0.8610
 1114TIP3    H2 3307   2.454   5.805   2.628 -0.7478 -0.5864  0.5168
 1115TIP3   OH2 3308   6.749   0.965   3.913 -0.0365 -0.2870  0.0596
 1115TIP3    H1 3309   6.782   0.923   3.993 -1.7745 -0.7845  0.5660
 1115TIP3    H2 3310   6.700   1.041   3.944  2.3881  1.7443 -0.8108
 1116TIP3   OH2 3311   5.410   6.552   4.514  0.0360 -0.1843 -0.3231
 1116TIP3    H1 3312   5.471   6.480   4.532  0.9833  0.8883  0.9384
 1116TIP3    H2 3313   5.349   6.516   4.449  1.1338 -1.7597 -0.5369
 1117TIP3   OH2 3314   1.627   5.482   1.454  0.6117 -0.4701  0.7831
 1117TIP3    H1 3315   1.661   5.456   1.369  0.4894 -2.0238  1.1722
 1117TIP3    H2 3316   1.543   5.437   1.462 -1.7354  3.2893 -0.1620
 1118TIP3   OH2 3317   3.823   0.534   0.890 -0.2179 -0.4457 -0.3359
 1118TIP3    H1 3318   3.737   0.564   0.918  0.1398 -0.4077  0.7649
 1118TIP3    H2 3319   3.878   0.613   0.893 -0.2670 -0.3436 -1.6043
 1119TIP3   OH2 3320   5.581   6.666   4.960  0.0176  0.0999  0.3221
 1119TIP3    H1 3321   5.514   6.631   4.901  0.2483  0.6346 -0.2550
 1119TIP3    H2 3322   5.567   6.760   4.960 -0.3680  0.0695  1.6034
 1120TIP3   OH2 3323   4.824   0.029   4.658  0.2611 -0.0550 -0.2446
 1120TIP3    H1 3324   4.753   0.047   4.596  0.5492 -0.7626 -0.7958
 1120TIP3    H2 3325   4.806  -0.059   4.690 -0.5838  0.7535  1.6706
 1121TIP3   OH2 3326   7.156   0.315   3.178  0.5318 -0.1084 -0.6393
 1121TIP3    H1 3327   7.182   0.346   3.092  1.6018 -1.6480 -0.9032
 1121TIP3    H2 3328   7.074   0.361   3.196  0.9112  1.1464 -1.9320
 1122TIP3   OH2 3329   1.765   2.239   0.887 -0.2701  0.2890  0.3917
 1122TIP3    H1 3330   1.764   2.312   0.825  2.8111  0.9965  0.9721
 1122TIP3    H2 3331   1.755   2.280   0.973  0.5248 -0.0328  0.6544
 1123TIP3   OH2 3332   2.178   6.162   4.205  0.0697  0.4297  0.1241
 1123TIP3    H1 3333   2.171   6.119   4.120 -0.2264 -1.8421  1.2400
 1123TIP3    H2 3334   2.217   6.247   4.185  1.6192 -0.6926 -2.0726
 1124TIP3   OH2 3335   4.209   5.917   4.296 -0.2918 -0.1580  0.0988
 1124TIP3    H1 3336   4.135   5.977   4.310 -0.2090  0.3362 -1.3783
 1124TIP3    H2 3337   4.274   5.944   4.360 -0.6445  0.6919  0.1164
 1125TIP3   OH2 3338   2.114   0.115   2.676  0.0090  0.5059  0.0846
 1125TIP3    H1 3339   2.061   0.040   2.646  0.2466  0.8417 -1.2672
 1125TIP3    H2 3340   2.111   0.176   2.602  0.5080  1.4684  0.8473
 1126TIP3   OH2 3341   1.949   2.940   0.678 -0.4109  0.2670  0.2996
 1126TIP3    H1 3342   2.022   2.945   0.617 -1.1421 -1.1111 -0.7322
 1126TIP3    H2 3343   1.990   2.925   0.763  0.5924  1.7579  0.1226
 1127TIP3   OH2 3344   0.632   5.896   5.147  0.2627 -0.0853 -0.2025
 1127TIP3    H1 3345   0.697   5.834   5.178  0.4595  0.0766 -0.2887
 1127TIP3    H2 3346   0.641   5.972   5.205 -1.5889 -1.0441  1.4199
 1128TIP3   OH2 3347   3.779   3.005   0.480 -0.0875  0.2603 -0.4878
 1128TIP3    H1 3348   3.845   2.936   0.480 -0.6632 -0.2911 -0.5365
 1128TIP3    H2 3349   3.797   3.055   0.560 -0.7214 -0.9479  0.4293
 1129TIP3   OH2 3350   1.739   0.572   3.859 -0.2358  0.6638 -0.4849
 1129TIP3    H1 3351   1.763   0.539   3.772 -1.2543  0.3296 -0.6544
 1129TIP3    H2 3352   1.781   0.511   3.920 -1.0426 -0.2198 -0.7839
 1130TIP3   OH2 3353   2.365   0.222   3.502  0.4466  0.3878 -0.2281
 1130TIP3    H1 3354   2.286   0.206   3.451  0.5109 -0.3112 -0.1099
 1130TIP3    H2 3355   2.414   0.285   3.450 -1.4857  3.1405  1.0307
 1131TIP3   OH2 3356   5.042   2.464   4.149 -0.1963 -0.3261 -0.1247
 1131TIP3    H1 3357   5.134   2.474   4.170 -0.2210  1.4271 -0.6790
 1131TIP3    H2 3358   4.996   2.498   4.226 -0.4534 -2.7502  0.8688
 1132TIP3   OH2 3359   4.616   2.124   4.527  0.6079 -0.2231 -0.1582
 1132TIP3    H1 3360   4.584   2.086   4.609 -0.3553  0.3442 -0.2507
 1132TIP3    H2 3361   4.594   2.058   4.461 -0.0502 -0.0036 -0.1674
 1133TIP3   OH2 3362   3.693   2.348   3.963  0.5057  0.2799  0.4800
 1133TIP3    H1 3363   3.656   2.393   4.039  1.2219  2.4234 -0.3811
 1133TIP3    H2 3364   3.635   2.373   3.890 -0.9102 -2.7251  0.4242
 1134TIP3   OH2 3365   5.567   2.971   0.093  0.1250  0.0725  0.9219
 1134TIP3    H1 3366   5.654   2.996   0.124  0.6270 -0.3955 -0.0516
 1134TIP3    H2 3367   5.581   2.885   0.052 -0.6804  0.2418  0.2762
 1135TIP3   OH2 3368   6.099   2.103   5.216  0.2246 -0.6671  0.4092
 1135TIP3    H1 3369   6.081   2.009   5.220 -0.5247 -0.5367  0.2343
 1135TIP3    H2 3370   6.100   2.124   5.123  0.5762 -0.5310  0.4410
 1136TIP3   OH2 3371   3.215   1.915   4.945  0.0266  0.1332  0.1777
 1136TIP3    H1 3372   3.166   1.877   5.018  0.0898 -3.2618 -1.3593
 1136TIP3    H2 3373   3.307   1.903   4.969  0.0985 -2.8893 -1.1394
 1137TIP3   OH2 3374   0.315   0.225   3.841  0.1115  0.1427 -0.1662
 1137TIP3    H1 3375   0.355   0.300   3.796  1.5168 -0.6889 -0.3687
 1137TIP3    H2 3376   0.345   0.149   3.791 -0.1174 -0.6481  0.8705
 1138TIP3   OH2 3377   3.378   5.963   0.183 -0.1223 -0.7155  0.6675
 1138TIP3    H1 3378   3.428   5.912   0.119 -0.8592  0.3972 -0.8625
 1138TIP3    H2 3379   3.286   5.943   0.163 -0.3652 -1.3853  2.2932
 1139TIP3   OH2 3380   5.092   2.740   3.581  0.1872 -0.1237  0.4922
 1139TIP3    H1 3381   5.062   2.787   3.504 -0.0958 -2.1129 -0.6939
 1139TIP3    H2 3382   5.131   2.807   3.637 -0.8022  1.5741 -0.7686
 1140TIP3   OH2 3383   1.368   5.789   1.845 -0.0935  0.3620 -0.4370
 1140TIP3    H1 3384   1.417   5.719   1.801  0.7112  1.2688 -1.0022
 1140TIP3    H2 3385   1.290   5.801   1.790 -0.4621 -0.3866 -0.0918
 1141TIP3   OH2 3386   0.653   5.101   2.199  0.2916 -0.4540  0.6220
 1141TIP3    H1 3387   0.632   5.008   2.191  0.4476 -0.4166 -0.3860
 1141TIP3    H2 3388   0.664   5.116   2.293  1.7123 -1.7898  0.7119
 1142TIP3   OH2 3389   4.910   4.569   0.798  0.1523  0.2179 -0.7737
 1142TIP3    H1 3390   4.823   4.535   0.780  0.4871 -0.4247 -1.2293
 1142TIP3    H2 3391   4.966   4.491   0.805  0.6724  0.6123 -0.3713
 1143TIP3   OH2 3392   4.410   5.771   4.607  0.0345  0.1346 -0.3945
 1143TIP3    H1 3393   4.428   5.730   4.692  2.6039  1.5198 -0.1766
 1143TIP3    H2 3394   4.434   5.704   4.543  2.2885  0.4914 -0.0165
 1144TIP3   OH2 3395   6.084   5.623   3.085 -0.0554  0.6135 -0.2053
 1144TIP3    H1 3396   6.050   5.665   3.006 -0.5384 -0.9261 -0.8498
 1144TIP3    H2 3397   6.009   5.619   3.145 -0.8251 -1.7683 -1.2049
 1145TIP3   OH2 3398   5.625   5.665   5.770 -0.3601 -0.6163 -0.2004
 1145TIP3    H1 3399   5.666   5.717   5.840  0.8708 -0.0210 -1.3189
 1145TIP3    H2 3400   5.569   5.726   5.723  0.3540 -0.4993 -0.9317
 1146TIP3   OH2 3401   0.737   4.074   2.050  0.1722  0.3317  0.5624
 1146TIP3    H1 3402   0.797   4.085   1.977 -1.3298  0.7049 -0.6620
 1146TIP3    H2 3403   0.789   4.095   2.128  1.2928  1.7789 -0.5413
 1147TIP3   OH2 3404   6.461   5.004   4.186  0.4094 -0.1996  0.3913
 1147TIP3    H1 3405   6.501   5.086   4.214  1.1830 -0.2169 -0.6160
 1147TIP3    H2 3406   6.522   4.936   4.215  0.8375 -0.2656 -0.6001
 1148TIP3   OH2 3407   5.803   5.344   3.054  0.2817 -0.6527  0.6930
 1148TIP3    H1 3408   5.871   5.279   3.069  3.3722  1.7860 -1.3973
 1148TIP3    H2 3409   5.804   5.397   3.134  0.5060 -0.9150  0.8674
 1149TIP3   OH2 3410   3.088   2.725   1.187 -0.1350 -0.5532 -0.2503
 1149TIP3    H1 3411   3.162   2.786   1.176 -0.9255  0.5421  0.2992
 1149TIP3    H2 3412   3.053   2.715   1.098  1.3822 -2.0586 -0.7315
 1150TIP3   OH2 3413   2.008   0.882   4.205 -0.4541  0.0348 -0.3405
 1150TIP3    H1 3414   2.025   0.896   4.112 -1.1120 -0.4996 -0.5581
 1150TIP3    H2 3415   2.029   0.965   4.247 -2.4854  1.1133 -1.2994
 1151TIP3   OH2 3416   4.653   6.678   4.389 -0.2458 -0.6749 -0.1595
 1151TIP3    H1 3417   4.715   6.677   4.316 -0.3235  0.6114 -0.2753
 1151TIP3    H2 3418   4.703   6.644   4.463  1.3855  2.3432  0.2838
 1152TIP3   OH2 3419   0.104   2.962   2.122  0.3806  0.2272 -0.3435
 1152TIP3    H1 3420   0.184   3.014   2.123 -0.0912  0.9671 -0.7936
 1152TIP3    H2 3421   0.041   3.015   2.075 -0.2736 -0.5173 -0.3279
 1153TIP3   OH2 3422   2.660   0.137   2.068  0.3690  0.0499 -0.3473
 1153TIP3    H1 3423   2.635   0.228   2.083 -0.5132 -0.0973 -0.8652
 1153TIP3    H2 3424   2.578   0.088   2.077  1.0600 -0.8936  1.4025
 1154TIP3   OH2 3425   2.585   5.864   2.976  0.2864 -0.5879 -0.6612
 1154TIP3    H1 3426   2.625   5.901   3.055  1.8032 -0.4976 -1.4197
 1154TIP3    H2 3427   2.593   5.769   2.989 -1.2161 -0.6418  0.1125
 1155TIP3   OH2 3428   1.251   0.851   0.795 -0.3952 -0.0437  0.0266
 1155TIP3    H1 3429   1.259   0.808   0.710  1.1995  1.1197 -0.4817
 1155TIP3    H2 3430   1.191   0.924   0.779  0.3150  0.4916 -0.2724
 1156TIP3   OH2 3431   1.916   2.925   3.627 -0.0968 -0.5021  0.3387
 1156TIP3    H1 3432   1.978   2.896   3.694  1.0781  0.8657 -0.1123
 1156TIP3    H2 3433   1.968   2.930   3.547 -1.5866 -2.6222 -0.8711
 1157TIP3   OH2 3434   5.674   0.165   2.586 -0.8494 -0.4588 -0.3245
 1157TIP3    H1 3435   5.756   0.116   2.584 -0.4315  0.1865  0.3581
 1157TIP3    H2 3436   5.701   0.257   2.595 -1.6457 -0.2289 -0.1547
 1158TIP3   OH2 3437   3.587   3.045   3.413 -0.0612 -0.1018  0.6650
 1158TIP3    H1 3438   3.573   2.998   3.331  0.7291  0.7276  0.0243
 1158TIP3    H2 3439   3.620   2.979   3.473 -1.0564 -0.8170  0.4671
 1159TIP3   OH2 3440   1.834   5.227   0.789  0.5570 -0.2181  0.2368
 1159TIP3    H1 3441   1.923   5.249   0.762  0.3372  0.1021 -0.2449
 1159TIP3    H2 3442   1.792   5.196   0.709  0.6249 -1.6822  0.7244
 1160TIP3   OH2 3443   6.747   1.539   1.509  0.3763  0.9268 -1.0258
 1160TIP3    H1 3444   6.700   1.458   1.528  1.5783  0.2411 -0.8574
 1160TIP3    H2 3445   6.682   1.608   1.520 -0.4309  0.0627 -0.2325
 1161TIP3   OH2 3446   6.320   0.257   5.707  0.1908  0.7578 -0.1327
 1161TIP3    H1 3447   6.253   0.234   5.642 -0.2452  2.2541 -0.2519
 1161TIP3    H2 3448   6.382   0.185   5.703 -0.2716  0.3895 -1.5978
 1162TIP3   OH2 3449   3.342   5.203   0.268  0.3371 -0.1717  0.0835
 1162TIP3    H1 3450   3.278   5.146   0.310 -1.6149  0.9820 -1.1969
 1162TIP3    H2 3451   3.343   5.174   0.176  0.0698  1.1501 -0.3604
 1163TIP3   OH2 3452   3.205   6.352   2.058  0.2064 -0.5587 -0.2791
 1163TIP3    H1 3453   3.242   6.375   1.973 -2.0793  1.2726 -0.8888
 1163TIP3    H2 3454   3.267   6.290   2.096  2.3148  0.1261 -2.3999
 1164TIP3   OH2 3455   5.149   5.585   4.398 -0.7257  0.8406 -0.3207
 1164TIP3    H1 3456   5.158   5.552   4.487 -0.1133  2.4782  0.2494
 1164TIP3    H2 3457   5.120   5.509   4.347 -3.0132  0.3041  1.6134
 1165TIP3   OH2 3458   5.364   0.874   5.652 -0.3359 -0.2097  0.2184
 1165TIP3    H1 3459   5.291   0.936   5.644 -1.0101 -1.2518 -3.1521
 1165TIP3    H2 3460   5.324   0.793   5.684 -0.3362 -0.2578  0.0974
 1166TIP3   OH2 3461   1.542   0.340   5.822  0.8086 -0.0894 -0.1750
 1166TIP3    H1 3462   1.579   0.426   5.844  0.8485 -0.5528  1.7586
 1166TIP3    H2 3463   1.612   0.278   5.842  0.8228 -0.6036 -1.6733
 1167TIP3   OH2 3464   0.982   5.975   3.148 -0.3454  0.0067 -0.4647
 1167TIP3    H1 3465   0.960   5.900   3.093 -2.3746 -0.6027  1.0329
 1167TIP3    H2 3466   0.904   6.031   3.146 -0.4972 -0.0268  1.6963
 1168TIP3   OH2 3467   1.029   1.230   4.474  0.5427 -0.0293 -0.0342
 1168TIP3    H1 3468   1.044   1.248   4.381 -0.2962  0.6244 -0.0643
 1168TIP3    H2 3469   1.108   1.186   4.504  1.9784  2.1198 -0.4345
 1169TIP3   OH2 3470   1.658   3.140   5.294 -0.4564 -0.1317 -0.0865
 1169TIP3    H1 3471   1.563   3.144   5.283 -0.6966  0.2790  1.8486
 1169TIP3    H2 3472   1.676   3.050   5.319 -0.2442 -0.3672 -1.0490
 1170TIP3   OH2 3473   6.098   1.337   4.985 -0.2267  0.3797  0.2850
 1170TIP3    H1 3474   6.041   1.409   4.959  0.4606  1.3092  1.2575
 1170TIP3    H2 3475   6.185   1.377   4.994  0.7053 -1.0576 -1.5130
 1171TIP3   OH2 3476   6.049   3.927   5.401  0.4648 -0.5201  0.4506
 1171TIP3    H1 3477   6.005   4.009   5.423  0.4378 -0.0919 -1.0916
 1171TIP3    H2 3478   6.142   3.951   5.392  0.2563 -0.3151 -1.4754
 1172TIP3   OH2 3479   2.420   6.783   2.877  0.3241  0.0258  0.0149
 1172TIP3    H1 3480   2.478   6.734   2.818  1.3739  0.5778  0.5628
 1172TIP3    H2 3481   2.478   6.842   2.924 -0.8998  1.8651 -0.6617
 1173TIP3   OH2 3482   7.158   6.213   1.969  0.0275  0.5643 -0.5378
 1173TIP3    H1 3483   7.183   6.200   1.877  1.9059  0.9057 -0.1101
 1173TIP3    H2 3484   7.148   6.125   2.004  3.6391  0.2360 -0.0067
 1174TIP3   OH2 3485   0.455   0.106   5.487 -0.7501 -0.4415 -0.5290
 1174TIP3    H1 3486   0.441   0.109   5.582 -0.2859 -2.4846 -0.3582
 1174TIP3    H2 3487   0.536   0.157   5.474 -0.8963 -0.0241  0.1386
 1175TIP3   OH2 3488   0.453   1.213   5.510 -0.1658  0.2637 -0.4135
 1175TIP3    H1 3489   0.412   1.269   5.577  1.8480 -1.4253  2.4392
 1175TIP3    H2 3490   0.407   1.129   5.519  0.4863 -0.1342 -0.7875
 1176TIP3   OH2 3491   5.190   3.388   4.829  0.1814  0.0829 -0.8469
 1176TIP3    H1 3492   5.194   3.483   4.825 -0.6583  0.2182  0.7916
 1176TIP3    H2 3493   5.098   3.368   4.847  0.4643 -0.9925 -0.5140
 1177TIP3   OH2 3494   5.117   3.039   5.029  1.2271 -0.5804  0.8151
 1177TIP3    H1 3495   5.032   3.011   5.062  0.0101 -0.8669 -2.2152
 1177TIP3    H2 3496   5.179   2.976   5.065 -0.0033 -1.1343  2.0593
 1178TIP3   OH2 3497   3.630   1.579   5.456  0.3144  0.0852 -0.4686
 1178TIP3    H1 3498   3.653   1.491   5.424 -0.3604 -0.4279  0.4223
 1178TIP3    H2 3499   3.549   1.601   5.410 -1.4488 -1.2438  1.7818
 1179TIP3   OH2 3500   3.160   0.743   0.721  0.6736 -0.2616 -0.1688
 1179TIP3    H1 3501   3.245   0.775   0.750  0.9870 -2.0211  1.0260
 1179TIP3    H2 3502   3.174   0.716   0.631  1.2585 -0.1085 -0.1301
 1180TIP3   OH2 3503   1.219   1.741   3.286  0.4029 -0.3952 -0.0594
 1180TIP3    H1 3504   1.169   1.786   3.218  1.5600 -0.5788 -1.0772
 1180TIP3    H2 3505   1.305   1.725   3.246  1.3605  0.0978  1.6714
 1181TIP3   OH2 3506   0.912   5.457   0.442 -0.0551  0.1387 -0.0799
 1181TIP3    H1 3507   0.910   5.541   0.396  0.5062  0.3196  0.2144
 1181TIP3    H2 3508   0.829   5.415   0.418 -1.7985  2.0424  2.1104
 1182TIP3   OH2 3509   0.600   1.576   5.830  0.9816 -0.7272 -0.3139
 1182TIP3    H1 3510   0.575   1.651   5.884  1.6830  1.1622 -2.4507
 1182TIP3    H2 3511   0.527   1.566   5.769  1.9235 -0.2123 -1.5588
 1183TIP3   OH2 3512   3.208   2.062   4.721 -0.1344 -0.1210 -0.6402
 1183TIP3    H1 3513   3.198   2.008   4.800  0.7763  0.3380 -0.1885
 1183TIP3    H2 3514   3.284   2.024   4.676 -0.8275 -0.5633 -1.4665
 1184TIP3   OH2 3515   4.968   0.925   3.936  0.2032 -0.2272  0.1746
 1184TIP3    H1 3516   4.944   1.018   3.940  1.7101  0.1736  0.4606
 1184TIP3    H2 3517   4.925   0.886   4.013 -0.0010  0.3401  0.3515
 1185TIP3   OH2 3518   1.599   6.591   1.172 -0.3949 -0.1222  0.5115
 1185TIP3    H1 3519   1.552   6.651   1.114 -1.4395  0.1751  1.6337
 1185TIP3    H2 3520   1.686   6.630   1.181 -0.8316  0.8403  0.6653
 1186TIP3   OH2 3521   5.351   4.254   2.182 -0.2118  0.0559 -0.3824
 1186TIP3    H1 3522   5.428   4.197   2.180 -0.7011 -0.6161 -0.1699
 1186TIP3    H2 3523   5.285   4.204   2.229 -0.9263  0.4504 -0.9502
 1187TIP3   OH2 3524   4.554   1.985   1.761  0.4444 -0.1936 -0.2811
 1187TIP3    H1 3525   4.647   1.995   1.742  0.2254  1.2879 -0.6938
 1187TIP3    H2 3526   4.509   2.040   1.697 -0.8106 -1.7982 -0.8493
 1188TIP3   OH2 3527   5.700   3.366   0.349  0.3745  0.0769 -0.1408
 1188TIP3    H1 3528   5.717   3.460   0.357  1.1795 -0.1227  0.8014
 1188TIP3    H2 3529   5.787   3.326   0.353 -0.0498 -0.7971  1.3703
 1189TIP3   OH2 3530   2.617   6.691   2.715 -0.0974  0.4821 -0.6925
 1189TIP3    H1 3531   2.681   6.742   2.764 -1.1354  0.5083  0.6968
 1189TIP3    H2 3532   2.668   6.618   2.678  0.7812  0.6655  0.1163
 1190TIP3   OH2 3533   4.769   2.855   3.035 -0.4644 -0.2432 -0.2122
 1190TIP3    H1 3534   4.823   2.790   2.990 -2.3148 -2.4147  0.4662
 1190TIP3    H2 3535   4.791   2.845   3.128 -1.2514 -0.4346 -0.0351
 1191TIP3   OH2 3536   0.418   1.091   3.453  0.1460 -0.7245 -0.8460
 1191TIP3    H1 3537   0.380   1.166   3.407  0.1499 -1.0950 -1.4621
 1191TIP3    H2 3538   0.416   1.020   3.389 -0.2284 -1.3650 -0.1301
 1192TIP3   OH2 3539   5.062   2.682   0.226 -0.2234  0.0297 -0.3267
 1192TIP3    H1 3540   5.017   2.626   0.289 -0.1354  0.4675  0.1339
 1192TIP3    H2 3541   5.154   2.678   0.251 -0.5174  2.7027  1.6359
 1193TIP3   OH2 3542   2.642   0.239   0.901  0.1615  0.0446  0.2497
 1193TIP3    H1 3543   2.630   0.203   0.812 -0.7907  1.3683 -0.1835
 1193TIP3    H2 3544   2.613   0.169   0.959 -0.9353 -0.1964 -0.5540
 1194TIP3   OH2 3545   4.767   3.430   3.605 -0.2528 -0.3551  0.4220
 1194TIP3    H1 3546   4.799   3.340   3.614  1.2542  0.1008 -0.0618
 1194TIP3    H2 3547   4.701   3.425   3.535 -0.4189 -1.1260  0.6270
 1195TIP3   OH2 3548   5.865   3.330   4.237 -0.2327  0.2604 -0.4939
 1195TIP3    H1 3549   5.921   3.393   4.282 -2.2191  1.3502  0.6056
 1195TIP3    H2 3550   5.913   3.307   4.158  1.5334  1.4760  0.1717
 1196TIP3   OH2 3551   4.667   0.541   3.004  0.2182 -0.0336 -0.0315
 1196TIP3    H1 3552   4.593   0.505   2.956  0.8239 -1.9188  0.3944
 1196TIP3    H2 3553   4.631   0.562   3.091 -0.3423  1.3135 -0.5541
 1197TIP3   OH2 3554   5.069   2.837   2.225 -0.5086  0.1769 -0.8628
 1197TIP3    H1 3555   5.113   2.912   2.186 -0.2485 -0.4279 -1.7580
 1197TIP3    H2 3556   5.007   2.875   2.288  0.7691  1.0693 -0.0956
 1198TIP3   OH2 3557   1.502   5.453   0.744 -0.7880  0.1787 -0.3921
 1198TIP3    H1 3558   1.552   5.408   0.676 -0.5437  0.0065 -0.1001
 1198TIP3    H2 3559   1.568   5.491   0.802 -0.9730 -0.4102  0.2365
 1199TIP3   OH2 3560   6.343   1.641   5.404 -0.8801 -0.6677  0.5206
 1199TIP3    H1 3561   6.299   1.556   5.409 -1.4437 -0.3515  1.1131
 1199TIP3    H2 3562   6.320   1.684   5.487  0.5806 -0.5055  0.8623
 1200TIP3   OH2 3563   4.585   4.385   5.516  0.0378  0.0200  0.0514
 1200TIP3    H1 3564   4.525   4.439   5.567  1.1363 -0.7321  2.2288
 1200TIP3    H2 3565   4.672   4.405   5.550  1.1624  1.1866 -3.1224
 1201TIP3   OH2 3566   0.680   3.363   0.054 -0.4005  0.6282 -0.4877
 1201TIP3    H1 3567   0.715   3.321  -0.025 -3.3934  0.4665 -1.8709
 1201TIP3    H2 3568   0.598   3.317   0.072  0.4359  0.2510  3.1669
 1202TIP3   OH2 3569   0.357   1.794   3.011  0.8069  0.7424 -0.1112
 1202TIP3    H1 3570   0.420   1.819   2.944  0.6156 -1.4628 -1.2190
 1202TIP3    H2 3571   0.410   1.775   3.089  1.3390  0.5834 -0.5095
 1203TIP3   OH2 3572   6.900   4.238   0.523 -0.5339  0.2662 -0.0732
 1203TIP3    H1 3573   6.868   4.326   0.540 -0.6925  0.7096 -2.3231
 1203TIP3    H2 3574   6.828   4.195   0.476 -0.1648 -0.8140  0.3121
 1204TIP3   OH2 3575   4.508   1.573   2.343 -0.4886  0.1304 -0.4491
 1204TIP3    H1 3576   4.449   1.510   2.383 -0.8322  0.4856 -0.3952
 1204TIP3    H2 3577   4.591   1.561   2.388 -0.6065 -0.1516 -0.3094
 1205TIP3   OH2 3578   2.323   0.215   0.049 -0.0086  0.2302 -0.3768
 1205TIP3    H1 3579   2.303   0.159   0.124 -0.0232  0.8070  0.0520
 1205TIP3    H2 3580   2.258   0.285   0.054  1.1427  1.2924  0.1467
 1206TIP3   OH2 3581   7.030   1.252   2.392  0.2524  0.0079  0.3414
 1206TIP3    H1 3582   7.093   1.212   2.453  1.2050 -1.3904 -1.4755
 1206TIP3    H2 3583   7.062   1.341   2.381  1.7492 -0.5541 -0.2336
 1207TIP3   OH2 3584   2.413   4.080   3.763  0.2838 -0.4361 -0.3209
 1207TIP3    H1 3585   2.327   4.039   3.773  0.3337 -0.5212 -0.2366
 1207TIP3    H2 3586   2.443   4.094   3.853  0.7861 -1.3021 -0.3454
 1208TIP3   OH2 3587   5.833   1.086   4.280  0.0428  0.7384 -0.0109
 1208TIP3    H1 3588   5.879   1.139   4.346 -1.5971  2.3498 -0.0743
 1208TIP3    H2 3589   5.902   1.032   4.241  1.6262  2.0014  0.8726
 1209TIP3   OH2 3590   1.174   5.988   4.745  0.0689 -0.1305 -0.3135
 1209TIP3    H1 3591   1.193   5.952   4.831 -0.4815  0.7294  0.1818
 1209TIP3    H2 3592   1.226   6.068   4.740  0.9476 -0.7370 -1.2290
 1210TIP3   OH2 3593   7.059   5.989   0.599  0.2406 -0.2399 -0.2482
 1210TIP3    H1 3594   7.086   6.081   0.591  0.7399 -0.3960 -0.3522
 1210TIP3    H2 3595   6.963   5.993   0.605  0.3487  0.4949  2.5974
 1211TIP3   OH2 3596   1.312   6.300   5.631  0.1232  0.0978 -0.1303
 1211TIP3    H1 3597   1.344   6.264   5.548  0.1293 -1.7404  0.6190
 1211TIP3    H2 3598   1.223   6.268   5.639 -0.0847  0.7660  0.2951
 1212TIP3   OH2 3599   2.354   4.308   4.043 -0.1642  0.1333  0.6247
 1212TIP3    H1 3600   2.414   4.362   4.094  0.1380  0.2420  0.1667
 1212TIP3    H2 3601   2.356   4.222   4.085  2.1281 -0.5662 -0.7299
 1213TIP3   OH2 3602   6.827   5.995   1.345 -0.0011 -0.6584  0.3869
 1213TIP3    H1 3603   6.733   5.982   1.354 -0.0001 -0.3558  0.8813
 1213TIP3    H2 3604   6.865   5.908   1.353 -0.2983 -0.9034 -0.7064
 1214TIP3   OH2 3605   0.541   1.436   3.460 -0.3780 -0.2877  0.3491
 1214TIP3    H1 3606   0.447   1.424   3.474 -0.1904 -2.5228  0.0768
 1214TIP3    H2 3607   0.549   1.453   3.366 -0.5942  1.1663  0.5850
 1215TIP3   OH2 3608   3.129   3.208   0.091  0.1819 -0.3474 -0.2676
 1215TIP3    H1 3609   3.088   3.264   0.158 -1.0398 -1.8029  0.2541
 1215TIP3    H2 3610   3.213   3.183   0.130 -0.7887 -1.7060  1.0726
 1216TIP3   OH2 3611   4.683   2.612   1.412 -0.0286  0.1446 -0.2944
 1216TIP3    H1 3612   4.610   2.576   1.362  2.1932 -1.8728 -2.3808
 1216TIP3    H2 3613   4.720   2.536   1.457  1.5863  0.8221 -0.4266
 1217TIP3   OH2 3614   3.060   3.811   0.763  0.5963 -0.4128  0.3639
 1217TIP3    H1 3615   3.020   3.858   0.689  1.5016 -0.3456 -0.0876
 1217TIP3    H2 3616   2.991   3.810   0.829  0.7401  2.2084  0.6883
 1218TIP3   OH2 3617   2.634   4.985   0.427  0.0636 -0.2129  0.3091
 1218TIP3    H1 3618   2.644   4.913   0.490  3.2154  1.6627  2.2409
 1218TIP3    H2 3619   2.721   4.995   0.388 -1.1783  0.4091 -2.5143
 1219TIP3   OH2 3620   0.237   3.222   3.594  0.2278 -0.1148 -0.0419
 1219TIP3    H1 3621   0.251   3.204   3.501  2.7429 -0.3078  0.3039
 1219TIP3    H2 3622   0.316   3.268   3.621 -1.1281  1.3390  1.6942
 1220TIP3   OH2 3623   0.301   1.953   3.468  0.1652 -0.1971 -0.1014
 1220TIP3    H1 3624   0.373   1.915   3.519  0.2473 -0.3897 -0.3610
 1220TIP3    H2 3625   0.290   2.041   3.504  0.4817 -0.1951 -0.0099
 1221TIP3   OH2 3626   1.632   2.574   1.076  0.3085 -0.6804 -0.0858
 1221TIP3    H1 3627   1.583   2.649   1.043  0.8348  0.2964  1.2618
 1221TIP3    H2 3628   1.720   2.586   1.041 -0.1643 -2.0270 -1.8805
 1222TIP3   OH2 3629   6.033   4.108   4.392 -0.0801  0.0319  0.3259
 1222TIP3    H1 3630   6.114   4.154   4.368 -1.1484  2.3993  0.9037
 1222TIP3    H2 3631   5.968   4.143   4.331 -0.8596 -1.2034  0.4226
 1223TIP3   OH2 3632   7.155   4.454   2.083  0.5433 -0.6400  0.8438
 1223TIP3    H1 3633   7.231   4.402   2.057  1.0931 -0.7679  2.5673
 1223TIP3    H2 3634   7.080   4.397   2.066  0.8830 -0.7949 -0.1765
 1224TIP3   OH2 3635   6.282   3.835   0.090  0.1254 -0.4339  0.1023
 1224TIP3    H1 3636   6.202   3.886   0.080  0.9125  0.7276 -0.5559
 1224TIP3    H2 3637   6.352   3.900   0.085  1.0989 -1.3575  1.1604
 1225TIP3   OH2 3638   5.386   3.302   1.338  0.3920 -0.5000  0.2772
 1225TIP3    H1 3639   5.396   3.384   1.387 -0.5967 -0.6380  0.7416
 1225TIP3    H2 3640   5.436   3.238   1.388  0.4832 -0.3598  0.3693
 1226TIP3   OH2 3641   0.941   6.646   0.325 -0.1266 -0.7419 -0.3573
 1226TIP3    H1 3642   0.970   6.700   0.251  1.3174 -1.2345 -0.1770
 1226TIP3    H2 3643   1.018   6.638   0.381 -0.8470 -1.4286  0.5792
 1227TIP3   OH2 3644   6.180   2.215   0.360  0.3135  0.1711 -0.6315
 1227TIP3    H1 3645   6.234   2.279   0.406 -0.9982  1.2528 -0.5135
 1227TIP3    H2 3646   6.196   2.232   0.267  1.5172 -0.7283 -0.6021
 1228TIP3   OH2 3647   6.291   4.792   4.768  0.0927 -0.0988 -0.0986
 1228TIP3    H1 3648   6.384   4.790   4.792  0.3782  0.3381 -1.1056
 1228TIP3    H2 3649   6.291   4.780   4.673 -0.8233  0.7013 -0.2162
 1229TIP3   OH2 3650   1.901   0.146   0.037  0.1438 -1.2104 -0.3990
 1229TIP3    H1 3651   1.969   0.204   0.003  1.0455 -2.0606 -0.0848
 1229TIP3    H2 3652   1.891   0.172   0.128  0.8514 -1.8056 -0.1406
 1230TIP3   OH2 3653   5.719   1.418   3.618  0.0433 -0.2802  0.1154
 1230TIP3    H1 3654   5.696   1.500   3.663 -0.1805 -0.8168  0.9889
 1230TIP3    H2 3655   5.810   1.431   3.590 -0.0883  0.3852 -0.0326
 1231TIP3   OH2 3656   4.552   0.032   3.984 -0.2496  0.0711 -0.0947
 1231TIP3    H1 3657   4.482   0.001   4.041 -0.9047  0.3870 -0.7078
 1231TIP3    H2 3658   4.627   0.045   4.042 -1.0335  0.8423  0.7765
 1232TIP3   OH2 3659   0.748   5.777   5.519 -0.6198  0.3056  0.6721
 1232TIP3    H1 3660   0.777   5.749   5.605  0.8468  0.7026  0.3314
 1232TIP3    H2 3661   0.668   5.827   5.536 -0.8014 -0.3164  1.7055
 1233TIP3   OH2 3662   1.874   5.578   1.537 -0.3275 -0.0458  0.5631
 1233TIP3    H1 3663   1.801   5.527   1.504  0.6085 -1.4075  0.5098
 1233TIP3    H2 3664   1.857   5.667   1.507 -1.1426 -0.6339 -0.7921
 1234TIP3   OH2 3665   6.035   0.667   1.400  0.0315 -0.3263 -0.0944
 1234TIP3    H1 3666   5.968   0.602   1.420 -0.2399 -0.1307 -0.3558
 1234TIP3    H2 3667   6.118   0.621   1.412 -0.1463 -0.5557  0.2772
 1235TIP3   OH2 3668   6.552   2.580   4.854  0.5676  0.0434  0.2229
 1235TIP3    H1 3669   6.597   2.539   4.781  1.0419  0.2739  0.3783
 1235TIP3    H2 3670   6.547   2.673   4.831 -2.7787 -0.3933 -1.3103
 1236TIP3   OH2 3671   5.071   2.926   5.893 -0.1038  0.1366 -0.1115
 1236TIP3    H1 3672   5.116   3.008   5.912  1.0590 -0.3616 -0.5994
 1236TIP3    H2 3673   5.090   2.909   5.801 -1.8841  0.2396 -0.5358
 1237TIP3   OH2 3674   6.615   3.423   5.040 -0.2551 -0.1298 -0.6649
 1237TIP3    H1 3675   6.657   3.380   4.965 -0.8471 -1.0318 -0.4888
 1237TIP3    H2 3676   6.652   3.379   5.117 -1.0467 -0.4996 -0.4887
 1238TIP3   OH2 3677   3.312   2.907   5.646 -0.4480  1.0472  0.3367
 1238TIP3    H1 3678   3.218   2.916   5.628 -0.4797 -0.6490 -0.5369
 1238TIP3    H2 3679   3.352   2.984   5.607 -1.0666 -0.1579 -2.9630
 1239TIP3   OH2 3680   0.216   1.810   4.413 -0.0691  0.3291  0.1972
 1239TIP3    H1 3681   0.199   1.748   4.484 -0.6082  1.4906  1.1170
 1239TIP3    H2 3682   0.132   1.852   4.397  0.2890  0.8312 -0.4215
 1240TIP3   OH2 3683   1.235   6.760   2.183 -0.0755  0.2968 -0.2876
 1240TIP3    H1 3684   1.294   6.827   2.148 -1.5583  1.5414 -0.5154
 1240TIP3    H2 3685   1.281   6.726   2.260  1.4823  0.3106 -1.1667
 1241TIP3   OH2 3686   5.485   5.533   1.871 -0.5710 -0.2700 -0.3305
 1241TIP3    H1 3687   5.554   5.598   1.889  0.2274 -0.8273 -1.2495
 1241TIP3    H2 3688   5.419   5.582   1.822  0.1644 -0.1876 -1.2760
 1242TIP3   OH2 3689   0.328   4.052   1.345  0.0239 -0.0486 -0.1314
 1242TIP3    H1 3690   0.385   4.128   1.359 -0.5872  0.1960  1.1602
 1242TIP3    H2 3691   0.365   3.984   1.401 -0.6388 -0.0371  0.3373
 1243TIP3   OH2 3692   1.237   2.701   4.995  0.4636 -0.4997  0.3984
 1243TIP3    H1 3693   1.307   2.657   4.946 -0.0317 -0.9138  0.0507
 1243TIP3    H2 3694   1.212   2.640   5.063  1.4124  0.2331  1.4369
 1244TIP3   OH2 3695   0.264   0.081   2.711  0.5258  0.7392 -0.5291
 1244TIP3    H1 3696   0.255   0.146   2.781 -1.1026  1.4331 -1.3206
 1244TIP3    H2 3697   0.266   0.133   2.631  0.4976 -0.1264 -1.0986
 1245TIP3   OH2 3698   6.595   6.358   2.227 -0.1583 -0.1324 -0.5141
 1245TIP3    H1 3699   6.545   6.427   2.271  0.2346 -0.3388  0.2774
 1245TIP3    H2 3700   6.563   6.277   2.266  1.3262 -0.2317  0.6094
 1246TIP3   OH2 3701   0.037   5.912   5.389 -0.5543  0.0813 -0.1134
 1246TIP3    H1 3702  -0.039   5.910   5.447  0.4358  0.9596  1.2569
 1246TIP3    H2 3703   0.108   5.874   5.440  0.1601  0.1114 -1.0520
 1247TIP3   OH2 3704   0.346   1.971   1.849  0.1770 -0.4225 -0.8248
 1247TIP3    H1 3705   0.364   1.937   1.937  1.0943  1.3536 -0.2832
 1247TIP3    H2 3706   0.431   1.968   1.805  0.5608  2.0289 -0.4029
 1248TIP3   OH2 3707   6.416   6.290   4.182  0.4012  0.3611 -0.0087
 1248TIP3    H1 3708   6.511   6.299   4.173  0.3764 -0.1336 -1.0462
 1248TIP3    H2 3709   6.381   6.343   4.110 -0.0698 -0.0164 -0.0596
 1249TIP3   OH2 3710   1.260   3.190   4.798 -0.1559  0.2925  0.8745
 1249TIP3    H1 3711   1.245   3.144   4.715 -0.5036  0.6893  0.7164
 1249TIP3    H2 3712   1.177   3.185   4.844  0.8596 -2.7617  2.6598
 1250TIP3   OH2 3713   0.229   4.125   4.560  0.6636 -0.4079 -0.6160
 1250TIP3    H1 3714   0.167   4.071   4.608 -1.5754  1.2991 -1.3973
 1250TIP3    H2 3715   0.220   4.097   4.469 -0.8017  1.4224 -1.0875
 1251TIP3   OH2 3716   4.446   2.208   0.556  0.2202  0.5623  0.4302
 1251TIP3    H1 3717   4.381   2.215   0.626 -0.5352  0.9568 -0.2884
 1251TIP3    H2 3718   4.394   2.197   0.476  0.9610  2.1210 -0.3221
 1252TIP3   OH2 3719   5.369   2.064   3.772 -0.4347  0.3753 -0.2491
 1252TIP3    H1 3720   5.276   2.084   3.778 -0.1462  1.3048  2.1002
 1252TIP3    H2 3721   5.412   2.144   3.802  1.1725  0.0842 -1.6133
 1253TIP3   OH2 3722   1.863   6.240   2.213  0.1527 -0.0560 -0.3043
 1253TIP3    H1 3723   1.779   6.197   2.196  0.0723 -0.0570  0.0719
 1253TIP3    H2 3724   1.839   6.320   2.260  0.4004 -0.3747  0.3798
 1254TIP3   OH2 3725   1.377   1.754   1.755 -0.4385 -0.3447  0.7748
 1254TIP3    H1 3726   1.382   1.717   1.843  0.3146 -2.0968  0.0397
 1254TIP3    H2 3727   1.284   1.774   1.744 -0.7306 -1.1489  1.5762
 1255TIP3   OH2 3728   4.151   5.462   1.728 -0.0096 -0.2489  0.5171
 1255TIP3    H1 3729   4.134   5.448   1.634  1.1950  0.7440  0.1147
 1255TIP3    H2 3730   4.091   5.403   1.772 -1.0963 -0.2510 -0.8735
 1256TIP3   OH2 3731   4.567   1.484   1.749  0.0444 -0.2379  0.0821
 1256TIP3    H1 3732   4.633   1.511   1.814 -1.1423  1.5267  0.6431
 1256TIP3    H2 3733   4.484   1.495   1.794 -0.7303 -0.4710 -1.2503
 1257TIP3   OH2 3734   2.076   1.129   2.809 -0.3833 -0.3273  1.1754
 1257TIP3    H1 3735   2.093   1.047   2.855 -0.1179 -0.4288  0.9031
 1257TIP3    H2 3736   2.007   1.108   2.746  1.9393 -1.2618 -1.2755
 1258TIP3   OH2 3737   4.264   6.545   5.182  0.2850 -0.1808 -0.2012
 1258TIP3    H1 3738   4.242   6.594   5.103 -1.4248 -2.0350 -0.9909
 1258TIP3    H2 3739   4.233   6.600   5.253 -2.4050 -0.3879 -1.0894
 1259TIP3   OH2 3740   2.823   2.810   3.873  0.4981 -0.1883  0.2787
 1259TIP3    H1 3741   2.757   2.852   3.818  1.4554  0.0225 -0.7311
 1259TIP3    H2 3742   2.823   2.719   3.846  1.2117 -0.0162 -0.3391
 1260TIP3   OH2 3743   2.000   3.088   0.421  0.3339 -0.1223  0.5552
 1260TIP3    H1 3744   1.921   3.034   0.426 -0.2412  0.7738  1.5517
 1260TIP3    H2 3745   1.989   3.141   0.342  0.6539 -1.0597 -0.1348
 1261TIP3   OH2 3746   1.848   2.485   0.136  0.0229  0.3424  0.1877
 1261TIP3    H1 3747   1.872   2.567   0.179  0.8966 -0.2587  0.8763
 1261TIP3    H2 3748   1.853   2.505   0.042 -1.5879  1.5749  0.3197
 1262TIP3   OH2 3749   6.079   4.624   0.615  0.2611 -0.1893 -0.0149
 1262TIP3    H1 3750   6.050   4.597   0.528 -2.1269 -3.0078  1.4761
 1262TIP3    H2 3751   6.019   4.694   0.639 -1.8221 -2.1006  0.7772
 1263TIP3   OH2 3752   2.715   4.072   3.756 -0.5060  0.1837 -0.1124
 1263TIP3    H1 3753   2.780   4.026   3.809 -0.2158  0.5073 -0.1818
 1263TIP3    H2 3754   2.640   4.084   3.814 -0.6848 -0.5866 -0.1625
 1264TIP3   OH2 3755   1.607   1.572   1.809  0.4498 -0.0856 -0.0626
 1264TIP3    H1 3756   1.622   1.612   1.723 -0.6433  0.0410 -0.2038
 1264TIP3    H2 3757   1.528   1.519   1.797  0.5744 -0.4652  0.7421
 1265TIP3   OH2 3758   0.693   5.832   0.814  0.0929 -0.7323  0.4713
 1265TIP3    H1 3759   0.728   5.825   0.725  0.6833  1.1022  0.5036
 1265TIP3    H2 3760   0.771   5.844   0.868 -0.3962  1.7615  0.7488
 1266TIP3   OH2 3761   0.606   6.764   2.074  0.0770 -0.4200  0.2365
 1266TIP3    H1 3762   0.534   6.713   2.110  0.1297 -0.4881  0.2470
 1266TIP3    H2 3763   0.670   6.769   2.145 -0.6972  1.2001  0.8467
 1267TIP3   OH2 3764   5.421   0.402   5.778 -0.4365  0.2104  0.4875
 1267TIP3    H1 3765   5.394   0.311   5.780  1.7017 -0.5189 -0.4279
 1267TIP3    H2 3766   5.486   0.406   5.708  0.1149  2.2639  1.0389
 1268TIP3   OH2 3767   5.678   0.284   1.095  0.5926  0.8129 -0.4639
 1268TIP3    H1 3768   5.660   0.335   1.174  0.1160  2.0703 -1.3608
 1268TIP3    H2 3769   5.734   0.340   1.042 -1.2237  1.1179 -2.1750
 1269TIP3   OH2 3770   3.374   4.356   4.196  0.3986  0.1116  0.0281
 1269TIP3    H1 3771   3.405   4.406   4.271 -1.9760  0.2265  1.0063
 1269TIP3    H2 3772   3.282   4.381   4.186 -0.1886 -2.1786 -1.0190
 1270TIP3   OH2 3773   6.043   4.133   2.740  0.7888 -0.2041  0.1900
 1270TIP3    H1 3774   6.002   4.220   2.749  1.2093 -0.1603  2.1787
 1270TIP3    H2 3775   5.970   4.072   2.747  0.7247 -0.0495  0.9874
 1271TIP3   OH2 3776   6.896   2.981   3.642 -0.0141  0.7664  0.2458
 1271TIP3    H1 3777   6.853   2.993   3.727 -0.1321  0.7617  0.1876
 1271TIP3    H2 3778   6.877   3.062   3.595 -1.5572  0.0412 -0.4749
 1272TIP3   OH2 3779   2.111   6.487   0.156 -0.6567 -0.1590 -0.2281
 1272TIP3    H1 3780   2.074   6.423   0.094 -1.5238  0.6658 -0.5873
 1272TIP3    H2 3781   2.050   6.485   0.230 -0.7828  0.3874 -0.3198
 1273TIP3   OH2 3782   6.772   5.213   4.485  0.0025 -0.1215 -0.3905
 1273TIP3    H1 3783   6.861   5.194   4.456  0.1442  1.9377 -1.4681
 1273TIP3    H2 3784   6.775   5.200   4.580  1.0314 -1.4964 -0.5786
 1274TIP3   OH2 3785   5.638   0.383   3.935 -0.0318 -0.5779 -0.5647
 1274TIP3    H1 3786   5.545   0.380   3.956 -0.2055  3.5123 -0.0312
 1274TIP3    H2 3787   5.664   0.473   3.951  4.2635 -1.6982  0.0354
 1275TIP3   OH2 3788   2.415   0.462   1.392  0.9026  0.3148  0.0773
 1275TIP3    H1 3789   2.404   0.549   1.353  0.0883  0.7613  1.2475
 1275TIP3    H2 3790   2.341   0.411   1.359  2.0990 -0.3590 -1.6567
 1276TIP3   OH2 3791   2.050   2.003   1.179 -0.1285 -0.8120 -0.6913
 1276TIP3    H1 3792   2.064   2.009   1.273 -0.1665 -3.5564 -0.4199
 1276TIP3    H2 3793   1.971   1.950   1.170  0.2529 -1.1764 -2.2468
 1277TIP3   OH2 3794   0.940   4.942   1.003  0.5959 -0.0114 -0.3910
 1277TIP3    H1 3795   0.867   5.003   1.000  1.7390  1.5214  1.1822
 1277TIP3    H2 3796   1.015   4.991   0.971  1.4093 -0.8056  0.2346
 1278TIP3   OH2 3797   1.475   4.331   1.356  0.2094  0.6892  0.5777
 1278TIP3    H1 3798   1.557   4.377   1.374 -0.0207  0.6568  1.8189
 1278TIP3    H2 3799   1.494   4.240   1.377 -0.1916  0.7087  1.0218
 1279TIP3   OH2 3800   1.956   4.800   0.556 -0.3136  0.1790  0.2811
 1279TIP3    H1 3801   1.920   4.740   0.621  0.7033 -0.2041  0.5161
 1279TIP3    H2 3802   1.883   4.819   0.497 -0.7947 -0.8667  0.5211
 1280TIP3   OH2 3803   6.865   0.424   4.701 -0.1254 -0.4595 -0.4125
 1280TIP3    H1 3804   6.847   0.512   4.669  1.1353 -0.0201  0.0237
 1280TIP3    H2 3805   6.803   0.368   4.654 -1.6122  0.7528 -0.0046
 1281TIP3   OH2 3806   6.347   3.692   3.865 -0.9177 -0.7831  0.7981
 1281TIP3    H1 3807   6.401   3.763   3.898 -0.1627 -0.4902 -0.9439
 1281TIP3    H2 3808   6.257   3.721   3.880 -0.6302  0.7688 -0.2673
 1282TIP3   OH2 3809   4.155   6.317   5.304 -0.0457 -0.0114 -0.2258
 1282TIP3    H1 3810   4.205   6.294   5.383 -2.1533  3.0283  2.2511
 1282TIP3    H2 3811   4.196   6.396   5.271 -2.8338  2.5297  1.8379
 1283TIP3   OH2 3812   2.169   0.395   5.002 -0.2288 -0.6609 -0.4700
 1283TIP3    H1 3813   2.091   0.435   5.042  0.1527 -0.9955  0.6372
 1283TIP3    H2 3814   2.211   0.347   5.074  1.7211  0.5853 -0.7089
 1284TIP3   OH2 3815   0.440   6.203   4.629 -0.2001  0.0664 -0.1894
 1284TIP3    H1 3816   0.514   6.188   4.570  1.8656 -1.3358  2.5202
 1284TIP3    H2 3817   0.434   6.122   4.680 -1.5931  1.3261  1.7834
 1285TIP3   OH2 3818   6.875   6.347   2.890 -0.3041  0.3549  0.2785
 1285TIP3    H1 3819   6.883   6.274   2.951  1.2359  0.7295  0.5620
 1285TIP3    H2 3820   6.809   6.319   2.827 -0.2802 -0.9621  0.8173
 1286TIP3   OH2 3821   3.214   0.555   2.857  0.2785 -0.1104  0.1295
 1286TIP3    H1 3822   3.295   0.504   2.849 -0.5664 -1.4636 -0.0812
 1286TIP3    H2 3823   3.152   0.511   2.798 -0.6194  0.9124  0.2747
 1287TIP3   OH2 3824   4.010   6.643   2.955  0.0664 -0.5162 -0.6723
 1287TIP3    H1 3825   4.087   6.641   3.010 -0.5881  0.5314  0.3266
 1287TIP3    H2 3826   4.030   6.584   2.882  1.3520 -1.1098  0.1415
 1288TIP3   OH2 3827   3.567   3.866   0.273  0.1238  0.0042  0.1836
 1288TIP3    H1 3828   3.575   3.792   0.333 -2.1927 -1.1774 -0.8072
 1288TIP3    H2 3829   3.604   3.834   0.191  1.2906  0.8314  0.3715
 1289TIP3   OH2 3830   5.854   1.293   2.766  0.3377  0.0023 -0.2036
 1289TIP3    H1 3831   5.937   1.252   2.743  1.5337  0.4997  2.6997
 1289TIP3    H2 3832   5.877   1.384   2.788 -0.9269  0.1431  0.6829
 1290TIP3   OH2 3833   0.800   5.681   5.752 -0.6542 -0.3598  0.3412
 1290TIP3    H1 3834   0.825   5.745   5.820 -0.0756  1.2169 -1.2717
 1290TIP3    H2 3835   0.868   5.614   5.756  0.4197  0.6751  0.1376
 1291TIP3   OH2 3836   0.327   0.572   5.170  0.0434 -1.0635  0.8047
 1291TIP3    H1 3837   0.381   0.646   5.198 -1.0589 -1.3592  4.2069
 1291TIP3    H2 3838   0.388   0.511   5.130  1.2910  0.7503 -0.2331
 1292TIP3   OH2 3839   5.618   1.817   1.861 -0.1492 -0.6807  0.3302
 1292TIP3    H1 3840   5.602   1.731   1.822  1.0670 -0.7012 -0.1816
 1292TIP3    H2 3841   5.687   1.801   1.926 -1.9895 -0.6139  2.4142
 1293TIP3   OH2 3842   3.931   0.467   4.046  0.2247  0.3666 -0.8355
 1293TIP3    H1 3843   3.953   0.538   4.106 -2.6566  1.3098 -0.7764
 1293TIP3    H2 3844   3.943   0.388   4.098 -0.8270  1.0811  0.5664
 1294TIP3   OH2 3845   7.108   3.094   3.924 -0.2118 -0.1643  0.3064
 1294TIP3    H1 3846   7.082   3.167   3.868  0.9935  0.0275 -0.0273
 1294TIP3    H2 3847   7.103   3.017   3.868 -1.7875 -0.4257  0.7415
 1295TIP3   OH2 3848   7.177   5.094   2.411  0.1789  0.9448  0.6117
 1295TIP3    H1 3849   7.100   5.075   2.358  1.3775 -0.3304 -0.7621
 1295TIP3    H2 3850   7.221   5.010   2.422  2.0892  1.8221  0.1899
 1296TIP3   OH2 3851   6.075   4.234   3.805 -0.3769 -0.2945  0.6932
 1296TIP3    H1 3852   6.031   4.182   3.872 -1.0035 -1.0376 -0.2643
 1296TIP3    H2 3853   6.024   4.219   3.726  1.7340 -1.4126 -0.5511
 1297TIP3   OH2 3854   0.217   3.566   1.167  0.6280 -0.3434 -0.0837
 1297TIP3    H1 3855   0.302   3.524   1.181  0.1105 -1.7767 -1.0578
 1297TIP3    H2 3856   0.234   3.659   1.183  2.6305 -0.4496 -1.2602
 1298TIP3   OH2 3857   2.329   1.184   4.448 -0.1483 -0.3441  0.2220
 1298TIP3    H1 3858   2.363   1.098   4.473 -1.0274 -0.7415  0.1047
 1298TIP3    H2 3859   2.323   1.232   4.530  2.9561  0.6272  0.0017
 1299TIP3   OH2 3860   2.878   4.964   0.280 -0.0377 -0.4903  0.0159
 1299TIP3    H1 3861   2.877   5.041   0.223  0.3322 -0.6580 -0.2222
 1299TIP3    H2 3862   2.968   4.959   0.312 -0.0790 -0.7869  0.0864
 1300TIP3   OH2 3863   4.897   0.923   2.901 -0.1240 -0.7025  0.0992
 1300TIP3    H1 3864   4.877   0.833   2.878  0.3824 -0.6523 -0.5838
 1300TIP3    H2 3865   4.989   0.921   2.928  0.5199 -0.0710 -1.8784
 1301TIP3   OH2 3866   3.917   1.517   1.759 -0.2417 -0.1388  1.1275
 1301TIP3    H1 3867   3.920   1.514   1.855 -0.1531 -1.4932  1.1075
 1301TIP3    H2 3868   3.909   1.425   1.733 -1.2831  0.2913 -0.1393
 1302TIP3   OH2 3869   6.435   0.544   5.493 -0.6048 -0.0612  0.6433
 1302TIP3    H1 3870   6.380   0.550   5.415  0.2934 -0.3510 -0.0345
 1302TIP3    H2 3871   6.514   0.594   5.471 -0.1488 -0.5162  1.1956
 1303TIP3   OH2 3872   5.720   3.156   3.990 -0.0069  0.5390 -0.8607
 1303TIP3    H1 3873   5.633   3.121   3.970 -0.1933  1.7032 -2.2982
 1303TIP3    H2 3874   5.707   3.251   3.993  1.5551  0.9466 -3.4225
 1304TIP3   OH2 3875   4.485   1.808   5.356 -0.0878 -0.1275  0.2331
 1304TIP3    H1 3876   4.510   1.885   5.408 -0.9878  0.2946  0.0640
 1304TIP3    H2 3877   4.404   1.778   5.395 -0.4200 -0.2130 -0.5112
 1305TIP3   OH2 3878   5.862   5.405   4.726  0.1585 -0.1353  0.2497
 1305TIP3    H1 3879   5.913   5.327   4.701  0.7560  0.6084 -0.9231
 1305TIP3    H2 3880   5.772   5.381   4.706  0.4741 -0.0734 -1.3652
 1306TIP3   OH2 3881   1.977   1.767   4.462  0.0703  0.0979  0.0123
 1306TIP3    H1 3882   2.050   1.707   4.446  0.7673  1.2024 -1.1106
 1306TIP3    H2 3883   2.019   1.848   4.491 -0.5014  1.2974 -2.2265
 1307TIP3   OH2 3884   2.093   4.818   2.137  0.0528  0.0151  0.4052
 1307TIP3    H1 3885   2.037   4.860   2.071  0.7698 -0.5022 -0.5519
 1307TIP3    H2 3886   2.063   4.727   2.139 -0.6619  0.2516  1.5740
 1308TIP3   OH2 3887   7.002   0.175   5.708 -0.0913  0.2649 -0.0866
 1308TIP3    H1 3888   7.014   0.148   5.799  0.3340  0.7002 -0.0061
 1308TIP3    H2 3889   6.975   0.096   5.662 -1.2047  0.2407  0.5860
 1309TIP3   OH2 3890   6.293   0.574   2.117  0.0910 -0.3633 -0.3057
 1309TIP3    H1 3891   6.261   0.613   2.036 -0.4694 -0.9939 -0.4013
 1309TIP3    H2 3892   6.387   0.593   2.118  0.1514 -0.5712 -1.2350
 1310TIP3   OH2 3893   1.283   0.533   1.365  0.1303  0.7098 -0.0355
 1310TIP3    H1 3894   1.258   0.500   1.278 -1.2035 -0.0621  0.6096
 1310TIP3    H2 3895   1.365   0.487   1.384  0.0679  0.3468 -0.5945
 1311TIP3   OH2 3896   7.052   3.734   4.474 -0.1562  0.7584  0.3652
 1311TIP3    H1 3897   7.071   3.796   4.403  0.6228  1.1584  0.9102
 1311TIP3    H2 3898   6.960   3.710   4.461  0.4498 -0.6253 -1.9011
 1312TIP3   OH2 3899   1.543   5.512   3.653  0.2378  0.4857 -0.3445
 1312TIP3    H1 3900   1.543   5.605   3.673  1.1594  0.6700 -1.1303
 1312TIP3    H2 3901   1.595   5.504   3.573 -1.1966 -0.5149 -1.2360
 1313TIP3   OH2 3902   6.718   0.627   0.797  0.3554 -0.5630  0.7294
 1313TIP3    H1 3903   6.708   0.687   0.871  0.2001  1.0732 -0.5610
 1313TIP3    H2 3904   6.693   0.541   0.832 -1.6053  0.4819  2.0778
 1314TIP3   OH2 3905   4.724   1.838   1.072 -0.1035  0.4073 -0.0481
 1314TIP3    H1 3906   4.811   1.798   1.070  0.3839  1.3486  1.0337
 1314TIP3    H2 3907   4.703   1.854   0.980  0.0561 -1.4904 -0.4407
 1315TIP3   OH2 3908   1.675   2.854   3.496  0.3577 -0.1606 -0.0814
 1315TIP3    H1 3909   1.592   2.892   3.523  1.2509  1.2916  0.7918
 1315TIP3    H2 3910   1.740   2.899   3.549  1.7023 -1.3828 -0.6104
 1316TIP3   OH2 3911   6.880   2.452   2.725  0.9543  0.0183  0.1255
 1316TIP3    H1 3912   6.920   2.378   2.679 -0.1004 -0.0594 -0.7052
 1316TIP3    H2 3913   6.930   2.528   2.697 -0.8011  0.2639 -2.7319
 1317TIP3   OH2 3914   6.354   1.699   0.840  0.6540  0.3166 -0.2779
 1317TIP3    H1 3915   6.448   1.684   0.851  0.7318  0.3823 -0.8168
 1317TIP3    H2 3916   6.349   1.780   0.789  0.2677  1.3730  1.3861
 1318TIP3   OH2 3917   1.089   0.888   5.617 -0.1346  0.6991 -0.0191
 1318TIP3    H1 3918   1.107   0.886   5.523  0.1392  0.3165  0.0371
 1318TIP3    H2 3919   0.995   0.900   5.624 -0.1236  0.9887 -0.3406
 1319TIP3   OH2 3920   6.352   4.858   3.371 -0.0941 -0.0183 -0.5033
 1319TIP3    H1 3921   6.365   4.764   3.360  0.5451  0.2344 -2.2297
 1319TIP3    H2 3922   6.409   4.882   3.444 -1.3879 -1.1734  0.9626
 1320TIP3   OH2 3923   5.462   3.807   3.933 -0.2367  0.7889  0.2237
 1320TIP3    H1 3924   5.446   3.785   3.841  0.0253  2.2901 -0.2118
 1320TIP3    H2 3925   5.429   3.732   3.982  0.4800 -0.4483 -1.1404
 1321TIP3   OH2 3926   2.573   1.890   4.986  0.2722  0.0690 -0.2336
 1321TIP3    H1 3927   2.573   1.942   4.906 -1.7870 -1.6452 -1.4699
 1321TIP3    H2 3928   2.665   1.875   5.005  0.8366  1.9317 -1.2971
 1322TIP3   OH2 3929   5.333   6.434   3.679 -0.3424 -0.3796  0.0415
 1322TIP3    H1 3930   5.325   6.440   3.584 -1.2765  0.6800  0.1752
 1322TIP3    H2 3931   5.245   6.414   3.710 -0.0518 -0.6859  0.7062
 1323TIP3   OH2 3932   6.958   2.553   0.899  0.2930 -0.3994  0.2011
 1323TIP3    H1 3933   6.894   2.527   0.965 -0.1100  0.0376 -0.0089
 1323TIP3    H2 3934   7.036   2.501   0.918 -0.6332 -2.1063 -0.4934
 1324TIP3   OH2 3935   2.564   3.199   2.051 -0.1729  0.0466  0.2131
 1324TIP3    H1 3936   2.629   3.262   2.083  0.9536 -2.4866  3.3117
 1324TIP3    H2 3937   2.482   3.225   2.094 -0.2191  0.6184 -0.2072
 1325TIP3   OH2 3938   4.540   6.742   5.489 -0.1383 -0.1329  0.3939
 1325TIP3    H1 3939   4.538   6.647   5.507 -0.7079 -0.0354  0.9078
 1325TIP3    H2 3940   4.580   6.749   5.403  0.2023 -0.8254  0.4832
 1326TIP3   OH2 3941   0.719   1.940   1.056 -0.0511  0.3344  0.0847
 1326TIP3    H1 3942   0.646   1.954   0.995 -1.9489 -0.0241  2.1551
 1326TIP3    H2 3943   0.698   1.995   1.131  1.1952 -0.6990  1.2321
 1327TIP3   OH2 3944   0.602   0.363   4.378  0.4396  0.1134 -0.3172
 1327TIP3    H1 3945   0.618   0.340   4.286  1.0438  0.2561 -0.2497
 1327TIP3    H2 3946   0.595   0.278   4.422 -0.0270  0.0416 -0.5175
 1328TIP3   OH2 3947   5.506   0.937   4.863 -0.1306  0.0277 -0.2977
 1328TIP3    H1 3948   5.602   0.941   4.867 -0.1867  0.2377  1.7853
 1328TIP3    H2 3949   5.483   0.858   4.912 -0.9858 -1.8443 -3.3682
 1329TIP3   OH2 3950   3.780   1.096   1.134  0.0099  0.2853  0.8992
 1329TIP3    H1 3951   3.754   1.188   1.142  2.1253  0.9918  0.3041
 1329TIP3    H2 3952   3.725   1.061   1.064 -0.6329  1.1545  0.9517
 1330TIP3   OH2 3953   6.256   3.965   5.076  0.0224  0.1690  0.1741
 1330TIP3    H1 3954   6.350   3.970   5.092  0.5086  0.8451 -2.5347
 1330TIP3    H2 3955   6.221   4.046   5.113  0.5405  0.0757  0.8919
 1331TIP3   OH2 3956   0.231   2.921   0.441  0.6980  0.3576 -0.3734
 1331TIP3    H1 3957   0.173   2.901   0.368  0.2822  2.1249 -0.5647
 1331TIP3    H2 3958   0.192   2.877   0.517 -0.2564  0.5866 -0.7292
 1332TIP3   OH2 3959   2.749   3.408   2.177  0.0955 -0.1222  0.1544
 1332TIP3    H1 3960   2.728   3.502   2.181 -0.8101 -0.3435  0.6798
 1332TIP3    H2 3961   2.791   3.389   2.261 -0.2018 -0.3048  0.2609
 1333TIP3   OH2 3962   3.905   0.303   2.246 -0.0522 -0.7715  0.1101
 1333TIP3    H1 3963   3.962   0.245   2.196  0.8652  0.6698 -0.5583
 1333TIP3    H2 3964   3.847   0.342   2.180  0.6913  0.6011  0.2505
 1334TIP3   OH2 3965   2.997   2.230   3.674 -0.0974  0.2001 -0.3740
 1334TIP3    H1 3966   2.918   2.260   3.718 -0.3510  0.3430 -0.9200
 1334TIP3    H2 3967   3.050   2.309   3.662 -0.0631  0.1732 -0.4005
 1335TIP3   OH2 3968   4.068   3.660   2.246  0.1329 -0.3301 -0.0869
 1335TIP3    H1 3969   4.151   3.625   2.213 -0.2278 -0.7634 -0.5587
 1335TIP3    H2 3970   4.014   3.669   2.167 -0.3248 -0.2113  0.2387
 1336TIP3   OH2 3971   3.891   2.808   4.536  0.2406 -0.0878  0.2117
 1336TIP3    H1 3972   3.966   2.796   4.595 -0.7003  0.3681  1.5439
 1336TIP3    H2 3973   3.821   2.841   4.592 -1.5518 -2.2237 -0.6025
 1337TIP3   OH2 3974   4.527   2.730   0.993 -0.0433 -0.3998  0.5450
 1337TIP3    H1 3975   4.590   2.687   0.935  0.5207 -1.5896  1.9986
 1337TIP3    H2 3976   4.451   2.745   0.937  1.2409  0.4838 -1.0880
 1338TIP3   OH2 3977   2.644   0.126   0.089 -0.4204  0.1947  0.0192
 1338TIP3    H1 3978   2.731   0.134   0.128  0.0004  2.0826 -1.1919
 1338TIP3    H2 3979   2.592   0.195   0.130 -0.5714  0.8151 -1.1830
 1339TIP3   OH2 3980   1.569   0.657   3.324  0.4840 -0.9109 -0.1754
 1339TIP3    H1 3981   1.612   0.573   3.341 -1.4338 -1.5180  2.2603
 1339TIP3    H2 3982   1.479   0.634   3.301  0.1856  0.4335 -0.4265
 1340TIP3   OH2 3983   4.833   4.081   5.485 -0.2000  0.1506 -0.0483
 1340TIP3    H1 3984   4.779   4.085   5.564 -0.6838  1.0092 -0.4080
 1340TIP3    H2 3985   4.882   4.163   5.486  1.2665 -0.6998  0.3694
 1341TIP3   OH2 3986   0.273   4.419   1.105 -0.6624 -0.0162  0.8888
 1341TIP3    H1 3987   0.209   4.391   1.171 -0.5723 -0.0654  0.9551
 1341TIP3    H2 3988   0.264   4.354   1.034 -1.1848  0.3785  0.5826
 1342TIP3   OH2 3989   3.036   0.523   4.321  0.3482  0.1996 -0.5914
 1342TIP3    H1 3990   2.942   0.507   4.312  0.3806 -1.1487  1.0676
 1342TIP3    H2 3991   3.060   0.567   4.239 -1.3557 -1.1015 -1.8785
 1343TIP3   OH2 3992   6.987   2.794   5.182  0.0116  0.2458 -0.1555
 1343TIP3    H1 3993   6.898   2.829   5.189  0.7521  2.0552  0.8966
 1343TIP3    H2 3994   6.995   2.734   5.257 -0.9952 -1.7018 -1.5114
 1344TIP3   OH2 3995   0.565   3.259   5.140 -0.0744  0.1811 -0.5139
 1344TIP3    H1 3996   0.641   3.204   5.160  1.1360  1.5359 -1.1915
 1344TIP3    H2 3997   0.516   3.265   5.222  1.3865  0.5186  0.3672
 1345TIP3   OH2 3998   4.561   0.443   5.180 -0.1151 -0.0850 -0.1771
 1345TIP3    H1 3999   4.473   0.406   5.169 -0.1873 -0.0562  0.3147
 1345TIP3    H2 4000   4.546   0.536   5.199 -0.1353 -0.6446  3.0006
 1346TIP3   OH2 4001   6.282   4.802   0.408 -0.3490 -0.1626  0.1606
 1346TIP3    H1 4002   6.254   4.893   0.397 -1.9342 -0.1502  3.2996
 1346TIP3    H2 4003   6.203   4.750   0.393  0.5571 -1.1325 -1.6853
 1347TIP3   OH2 4004   0.721   2.897   1.823  0.3254  0.3407  0.1192
 1347TIP3    H1 4005   0.759   2.911   1.736 -1.7326  2.6006 -0.5394
 1347TIP3    H2 4006   0.791   2.921   1.884  1.6308 -0.7476 -0.8829
 1348TIP3   OH2 4007   0.908   3.738   0.781  0.7472  0.4742 -0.3799
 1348TIP3    H1 4008   0.817   3.760   0.758  0.1571 -1.6616 -0.3910
 1348TIP3    H2 4009   0.961   3.782   0.715 -0.4432  0.2785 -1.5074
 1349TIP3   OH2 4010   3.678   0.260   2.569  0.1555  0.0966 -0.6698
 1349TIP3    H1 4011   3.672   0.313   2.649  1.3430 -1.2413  0.3594
 1349TIP3    H2 4012   3.772   0.242   2.560 -0.1057 -0.8731 -1.6324
 1350TIP3   OH2 4013   3.132   0.986   0.473 -0.1025  0.5119  0.1226
 1350TIP3    H1 4014   3.226   0.993   0.492  0.0728  0.8308 -0.8343
 1350TIP3    H2 4015   3.118   0.894   0.454 -0.1268  0.3355  0.9296
 1351TIP3   OH2 4016   1.677   1.261   4.338  0.0012 -0.0050  0.3196
 1351TIP3    H1 4017   1.637   1.187   4.384 -2.1356  0.7948 -0.1480
 1351TIP3    H2 4018   1.665   1.241   4.245  2.9784 -0.9000  0.0134
 1352TIP3   OH2 4019   0.784   3.001   0.551 -0.2668 -0.7836 -0.1399
 1352TIP3    H1 4020   0.704   3.009   0.603  0.4398  1.2205  0.7414
 1352TIP3    H2 4021   0.798   3.088   0.515  1.7669 -0.9559  0.1257
 1353TIP3   OH2 4022   4.685   2.367   0.965  0.7281  0.3993  0.6248
 1353TIP3    H1 4023   4.671   2.415   1.046  2.4409  2.2669 -0.0985
 1353TIP3    H2 4024   4.611   2.391   0.910  1.0408  1.4541  0.6392
 1354TIP3   OH2 4025   4.116   5.745   3.730 -0.3441  0.0408 -0.6105
 1354TIP3    H1 4026   4.119   5.705   3.817 -1.0146  2.5039  0.6608
 1354TIP3    H2 4027   4.048   5.698   3.683 -1.3744 -0.0650  0.9317
 1355TIP3   OH2 4028   0.375   4.775   2.500  0.1514  0.0841  0.0661
 1355TIP3    H1 4029   0.385   4.703   2.562  1.5478  0.1485 -0.0412
 1355TIP3    H2 4030   0.448   4.763   2.438 -1.2350 -0.0460 -1.6421
 1356TIP3   OH2 4031   4.632   1.830   2.562 -0.1266 -0.3520  0.2386
 1356TIP3    H1 4032   4.585   1.887   2.622 -0.4468  0.7367 -0.9970
 1356TIP3    H2 4033   4.723   1.833   2.592 -0.4307 -0.5590  1.2033
 1357TIP3   OH2 4034   3.118   1.964   4.117  0.7074 -0.3315 -0.3906
 1357TIP3    H1 4035   3.030   1.962   4.080 -0.0255 -0.5827  1.2900
 1357TIP3    H2 4036   3.141   2.056   4.122  0.8944 -0.3020 -1.6008
 1358TIP3   OH2 4037   4.235   2.865   5.282 -0.7538  0.3855  0.4143
 1358TIP3    H1 4038   4.157   2.846   5.334  0.3044 -2.1058  1.2841
 1358TIP3    H2 4039   4.274   2.779   5.267  0.9825  1.4145 -1.3538
 1359TIP3   OH2 4040   4.807   2.048   0.147  1.0021 -0.5078 -0.3356
 1359TIP3    H1 4041   4.797   2.124   0.090  1.4648  0.6117  0.9937
 1359TIP3    H2 4042   4.886   2.067   0.198 -1.5042  0.6611  3.6253
 1360TIP3   OH2 4043   1.114   2.811   4.782  0.0943  0.1260 -0.2913
 1360TIP3    H1 4044   1.037   2.806   4.725  0.7596 -0.6235 -1.1528
 1360TIP3    H2 4045   1.102   2.741   4.845  0.3002 -0.3202 -0.7387
 1361TIP3   OH2 4046   1.799   0.989   5.746 -0.9503  0.4400  0.0318
 1361TIP3    H1 4047   1.843   1.045   5.811  0.0656  0.1841 -0.4068
 1361TIP3    H2 4048   1.726   1.041   5.714  0.4042  1.8495 -0.9128
 1362TIP3   OH2 4049   4.664   1.460   3.116  0.1966  0.2547  0.0914
 1362TIP3    H1 4050   4.679   1.505   3.199  0.0982  3.4392 -1.5029
 1362TIP3    H2 4051   4.721   1.504   3.053 -0.6177 -1.2355 -1.8102
 1363TIP3   OH2 4052   6.830   1.510   2.265 -0.9652 -0.0443  0.1768
 1363TIP3    H1 4053   6.923   1.491   2.252 -0.8483  1.0640 -0.7774
 1363TIP3    H2 4054   6.799   1.542   2.180 -2.0374  0.3058  0.6716
 1364TIP3   OH2 4055   3.310   6.807   4.887  0.4630 -0.3828  0.0060
 1364TIP3    H1 4056   3.315   6.714   4.911  0.3789 -0.6922 -1.1301
 1364TIP3    H2 4057   3.220   6.819   4.857  0.1534  0.3349  1.1440
 1365TIP3   OH2 4058   2.033   2.292   3.827  0.3829 -0.5359  0.4270
 1365TIP3    H1 4059   2.116   2.273   3.784 -0.1943 -1.4198 -0.3491
 1365TIP3    H2 4060   1.969   2.293   3.755 -0.1382  1.1569  0.8731
 1366TIP3   OH2 4061   0.943   0.569   0.055 -0.4603  0.2085  0.1382
 1366TIP3    H1 4062   1.022   0.551   0.004 -0.6923  1.9816 -0.9318
 1366TIP3    H2 4063   0.908   0.650   0.017 -2.7857 -0.5081  0.5909
 1367TIP3   OH2 4064   0.573   4.746   1.653  0.7464  0.7197  0.3440
 1367TIP3    H1 4065   0.529   4.664   1.677  2.1450 -1.1331 -2.8948
 1367TIP3    H2 4066   0.528   4.775   1.573  4.1629 -0.4132 -2.1860
 1368TIP3   OH2 4067   0.262   3.282   2.378  0.6450 -0.3897  0.0139
 1368TIP3    H1 4068   0.305   3.360   2.412 -0.0424 -0.4486  1.0623
 1368TIP3    H2 4069   0.287   3.279   2.285  1.3843  0.5804  0.1694
 1369TIP3   OH2 4070   4.665   3.029   3.316  0.5510  0.2190  0.5811
 1369TIP3    H1 4071   4.695   3.095   3.253 -0.0900  0.2019  0.2457
 1369TIP3    H2 4072   4.576   3.057   3.338 -0.2695 -1.2789 -0.6175
 1370TIP3   OH2 4073   4.329   4.777   3.950  0.2100 -0.2572  0.0928
 1370TIP3    H1 4074   4.311   4.842   3.883 -2.0645  0.6030  1.4067
 1370TIP3    H2 4075   4.244   4.735   3.965  1.0978 -1.7799  1.0440
 1371TIP3   OH2 4076   1.632   0.473   2.495  0.4924  0.0704  0.4695
 1371TIP3    H1 4077   1.663   0.557   2.529 -1.0653  1.5132 -1.4552
 1371TIP3    H2 4078   1.703   0.441   2.440  0.2904  1.2575 -0.5365
 1372TIP3   OH2 4079   4.501   4.365   3.812 -0.0083  0.2725 -0.3646
 1372TIP3    H1 4080   4.519   4.457   3.793  1.3962 -0.0937 -0.9600
 1372TIP3    H2 4081   4.579   4.319   3.782 -0.4673 -1.0660  0.4083
 1373TIP3   OH2 4082   5.668   3.357   3.402  0.3139 -0.1974 -0.0445
 1373TIP3    H1 4083   5.590   3.307   3.425  0.9959 -0.5846  1.5410
 1373TIP3    H2 4084   5.648   3.446   3.431  0.3752 -0.2425  0.1332
 1374TIP3   OH2 4085   2.584   6.636   5.423 -0.4532 -0.2547 -0.2892
 1374TIP3    H1 4086   2.659   6.632   5.483  1.8724  0.2560 -2.9254
 1374TIP3    H2 4087   2.588   6.554   5.374 -1.2125  0.0707 -0.9171
 1375TIP3   OH2 4088   1.854   3.694   5.753  0.4415  0.2790 -0.4465
 1375TIP3    H1 4089   1.843   3.785   5.782 -0.7802  0.1140 -0.3121
 1375TIP3    H2 4090   1.905   3.700   5.672  0.9735  1.0220 -0.0632
 1376TIP3   OH2 4091   5.212   1.318   3.435 -0.0055  0.3715  0.6062
 1376TIP3    H1 4092   5.242   1.247   3.378  0.3612 -1.4143  2.8493
 1376TIP3    H2 4093   5.293   1.357   3.469 -0.1329 -0.4746  2.0037
 1377TIP3   OH2 4094   7.053   5.492   4.427  0.1931  0.3801 -0.3237
 1377TIP3    H1 4095   6.991   5.459   4.492  1.6131 -1.1087  0.3211
 1377TIP3    H2 4096   7.026   5.451   4.345 -0.8685  1.3313 -0.4811
 1378TIP3   OH2 4097   0.016   5.544   5.590 -0.4192  0.5148  0.4299
 1378TIP3    H1 4098   0.099   5.498   5.577 -1.5859 -1.3406 -1.1724
 1378TIP3    H2 4099  -0.014   5.564   5.501 -2.1317  0.2263  0.9072
 1379TIP3   OH2 4100   1.037   4.235   2.545  0.2340  0.0206 -0.0921
 1379TIP3    H1 4101   0.984   4.301   2.501 -0.0110 -0.1999 -0.1319
 1379TIP3    H2 4102   0.985   4.209   2.621  1.6103  2.0095  1.6251
 1380TIP3   OH2 4103   5.397   3.612   4.109  0.0704  0.0513 -0.0552
 1380TIP3    H1 4104   5.332   3.548   4.078  1.5405 -0.9494 -1.2383
 1380TIP3    H2 4105   5.444   3.566   4.179 -2.2124  1.7624  2.8347
 1381TIP3   OH2 4106   5.704   4.822   5.155  0.4508 -0.2136 -0.1813
 1381TIP3    H1 4107   5.799   4.828   5.166  0.5666 -2.8855  1.1882
 1381TIP3    H2 4108   5.669   4.830   5.244 -0.3792 -1.8883 -0.3232
 1382TIP3   OH2 4109   2.410   2.835   2.249 -0.4186 -0.4188 -0.0167
 1382TIP3    H1 4110   2.470   2.855   2.177 -0.5661  0.2534  0.0354
 1382TIP3    H2 4111   2.333   2.889   2.231 -0.8882 -1.0421  0.0821
 1383TIP3   OH2 4112   1.911   3.667   0.028 -0.3709 -0.3004 -0.4041
 1383TIP3    H1 4113   1.891   3.583   0.068  2.2182 -1.4285 -1.2486
 1383TIP3    H2 4114   1.847   3.728   0.065 -2.9455 -2.7654 -0.4663
 1384TIP3   OH2 4115   5.599   1.657   5.832 -0.3660 -0.2095  0.4435
 1384TIP3    H1 4116   5.686   1.690   5.852 -0.0294 -0.6368 -0.2987
 1384TIP3    H2 4117   5.574   1.701   5.750 -0.8046 -0.1681  0.5935
 1385TIP3   OH2 4118   3.392   4.317   3.303 -0.2869  0.6686  0.1835
 1385TIP3    H1 4119   3.353   4.390   3.351 -2.3430  0.0498 -0.4498
 1385TIP3    H2 4120   3.333   4.244   3.318 -0.0824  0.0084 -1.8830
 1386TIP3   OH2 4121   5.577   2.634   5.011  0.2589  0.2384  0.2233
 1386TIP3    H1 4122   5.559   2.550   5.052 -0.4731  0.8230  1.1504
 1386TIP3    H2 4123   5.610   2.689   5.082  2.5286  0.2265 -0.7465
 1387TIP3   OH2 4124   0.790   1.454   5.672 -0.2636 -0.5762  0.2706
 1387TIP3    H1 4125   0.761   1.510   5.600  0.0337  0.3866  0.8759
 1387TIP3    H2 4126   0.733   1.479   5.745  1.6804  0.9852  1.3395
 1388TIP3   OH2 4127   0.867   0.697   3.734  0.1169 -0.3806 -0.3358
 1388TIP3    H1 4128   0.929   0.728   3.668  0.6150 -0.5949  0.0290
 1388TIP3    H2 4129   0.781   0.720   3.699  0.3768 -0.5393 -1.0836
 1389TIP3   OH2 4130   2.119   5.531   0.123  0.2008 -0.0054 -0.2748
 1389TIP3    H1 4131   2.116   5.582   0.043 -1.1602 -0.0594 -0.2816
 1389TIP3    H2 4132   2.136   5.595   0.192 -0.5494  0.3351 -0.3942
 1390TIP3   OH2 4133   7.126   3.104   5.269 -0.0067 -0.4559  0.1203
 1390TIP3    H1 4134   7.067   3.164   5.223 -0.8913 -0.4500  1.2248
 1390TIP3    H2 4135   7.157   3.152   5.345 -0.0892 -1.1121  0.5820
 1391TIP3   OH2 4136   2.776   0.796   4.112  0.0858  0.2026  0.2027
 1391TIP3    H1 4137   2.869   0.777   4.111  0.0169 -0.3215  1.4974
 1391TIP3    H2 4138   2.766   0.866   4.177 -0.4999 -0.2494  0.6103
 1392TIP3   OH2 4139   2.517   2.104   4.814 -0.1361  0.1182 -0.0940
 1392TIP3    H1 4140   2.526   2.179   4.873 -0.8213  0.2311 -0.1219
 1392TIP3    H2 4141   2.570   2.126   4.738 -0.1879  0.5004 -0.0227
 1393TIP3   OH2 4142   4.011   1.146   1.300  0.3658 -0.2228 -0.1179
 1393TIP3    H1 4143   3.932   1.117   1.253  1.6162 -1.8532 -1.3132
 1393TIP3    H2 4144   4.025   1.079   1.367  1.2589 -0.4536 -0.5260
 1394TIP3   OH2 4145   0.055   1.904   2.117  0.8123  0.0955 -0.6792
 1394TIP3    H1 4146  -0.006   1.892   2.044  0.9762  0.0382 -0.8066
 1394TIP3    H2 4147   0.003   1.885   2.195  0.6040  0.2761 -0.7733
 1395TIP3   OH2 4148   0.512   1.734   5.248 -0.1985  0.3965  0.3613
 1395TIP3    H1 4149   0.416   1.725   5.250 -0.1200 -0.5587  0.4967
 1395TIP3    H2 4150   0.535   1.718   5.156 -0.3051  2.4877 -0.0766
 1396TIP3   OH2 4151   0.314   2.504   0.576  0.2913 -0.7473  0.0343
 1396TIP3    H1 4152   0.369   2.426   0.575  1.7904  0.2452 -1.9257
 1396TIP3    H2 4153   0.229   2.473   0.608  1.1491 -2.9067  0.4213
 1397TIP3   OH2 4154   5.392   5.845   0.011  0.4585  0.1193 -0.0632
 1397TIP3    H1 4155   5.445   5.829  -0.067 -0.6514 -0.8437 -0.6366
 1397TIP3    H2 4156   5.394   5.762   0.059  0.1748  0.3474  0.3495
 1398TIP3   OH2 4157   3.753   5.351   3.563  0.0437  0.7062  0.0612
 1398TIP3    H1 4158   3.770   5.362   3.656  2.5345 -2.3870  0.1324
 1398TIP3    H2 4159   3.836   5.374   3.521 -0.8289  1.3831 -1.3926
 1399TIP3   OH2 4160   4.069   2.563   0.966 -0.2190 -0.1840 -0.6209
 1399TIP3    H1 4161   4.109   2.642   1.001 -0.4199 -0.8221  1.1286
 1399TIP3    H2 4162   4.117   2.546   0.885  0.3561  1.2649 -0.6192
 1400TIP3   OH2 4163   5.045   5.130   3.008  0.0567 -0.1934  0.2312
 1400TIP3    H1 4164   4.982   5.170   2.949 -0.2002 -0.8016  0.0808
 1400TIP3    H2 4165   5.116   5.101   2.951  0.0816 -0.2530  0.2922
 1401TIP3   OH2 4166   0.651   3.285   0.869 -0.2183  0.8400 -0.5503
 1401TIP3    H1 4167   0.662   3.355   0.806 -1.0952  1.3817 -0.1224
 1401TIP3    H2 4168   0.571   3.240   0.842  0.9415 -0.7592 -1.5079
 1402TIP3   OH2 4169   1.335   5.258   0.860 -0.0498 -0.0372  0.2543
 1402TIP3    H1 4170   1.382   5.330   0.820 -1.8461  0.5354 -0.9786
 1402TIP3    H2 4171   1.321   5.195   0.789 -0.2344 -0.6799  0.8390
 1403TIP3   OH2 4172   5.437   4.870   2.150 -0.2919  0.6207 -0.0635
 1403TIP3    H1 4173   5.471   4.885   2.238 -1.7159  1.1957  0.4177
 1403TIP3    H2 4174   5.474   4.941   2.097  2.4094 -0.9866 -0.5250
 1404TIP3   OH2 4175   2.656   2.727   2.914  0.5344  0.4018  0.3919
 1404TIP3    H1 4176   2.720   2.733   2.843  0.2496 -0.2286  0.0704
 1404TIP3    H2 4177   2.642   2.633   2.926 -0.0596  0.5241  0.7069
 1405TIP3   OH2 4178   0.093   0.781   5.477  0.7055 -0.5277 -0.6124
 1405TIP3    H1 4179   0.060   0.804   5.564 -1.0803 -0.2005 -1.3372
 1405TIP3    H2 4180   0.102   0.686   5.479  0.1609 -0.5768 -0.2265
 1406TIP3   OH2 4181   4.209   6.185   0.461  0.2930  0.0745 -0.1846
 1406TIP3    H1 4182   4.243   6.272   0.440 -0.1300  0.6476  1.3726
 1406TIP3    H2 4183   4.118   6.200   0.486  0.1722 -0.8454 -0.0267
 1407TIP3   OH2 4184   3.535   4.521   2.936  0.3058 -0.4481 -0.8724
 1407TIP3    H1 4185   3.585   4.482   3.008 -0.3909  0.8577  0.3545
 1407TIP3    H2 4186   3.602   4.548   2.873  1.0386 -0.1822  0.0010
 1408TIP3   OH2 4187   1.140   2.447   5.816  0.0815 -0.3766 -0.4559
 1408TIP3    H1 4188   1.144   2.457   5.721  1.2939 -0.5534 -0.4337
 1408TIP3    H2 4189   1.231   2.444   5.844 -0.2570 -1.0013  0.6404
 1409TIP3   OH2 4190   3.578   1.814   4.691  0.0462 -0.2664  0.0914
 1409TIP3    H1 4191   3.573   1.854   4.778 -0.2593  0.0902 -0.0844
 1409TIP3    H2 4192   3.572   1.720   4.708  0.4712 -0.2285  0.4889
 1410TIP3   OH2 4193   1.164   2.562   3.586  0.5838 -0.2412 -0.1982
 1410TIP3    H1 4194   1.151   2.483   3.638  2.0149 -0.1200  0.3909
 1410TIP3    H2 4195   1.257   2.581   3.593  0.4968  0.7920 -1.3750
 1411TIP3   OH2 4196   4.169   1.731   3.623 -1.1132  0.1969 -0.1420
 1411TIP3    H1 4197   4.167   1.729   3.527  0.2822  0.5692 -0.2054
 1411TIP3    H2 4198   4.147   1.821   3.645  1.0087  0.7991 -0.2585
 1412TIP3   OH2 4199   6.164   2.309   4.714 -0.5116 -0.0390 -0.1121
 1412TIP3    H1 4200   6.179   2.378   4.779  1.4719 -0.9874  0.5345
 1412TIP3    H2 4201   6.164   2.228   4.766 -1.9589 -0.6088 -0.9526
 1413TIP3   OH2 4202   0.385   6.468   1.591 -0.1142  0.2371  0.0021
 1413TIP3    H1 4203   0.409   6.547   1.542 -1.7787  0.9860  0.3321
 1413TIP3    H2 4204   0.411   6.487   1.681 -0.6273  0.4718  0.1041
 1414TIP3   OH2 4205   0.707   1.165   1.077 -0.2057 -0.4894  0.2372
 1414TIP3    H1 4206   0.775   1.222   1.115 -1.6103  0.2224  1.8050
 1414TIP3    H2 4207   0.720   1.081   1.120  0.9801 -0.9820 -1.0317
 1415TIP3   OH2 4208   3.163   3.429   0.862  0.1335  0.4381  0.1590
 1415TIP3    H1 4209   3.081   3.446   0.909  0.0255  1.1740 -0.2875
 1415TIP3    H2 4210   3.168   3.499   0.797  1.1326  0.4093  0.1979
 1416TIP3   OH2 4211   4.014   1.289   4.488 -0.1837 -0.2601 -0.2694
 1416TIP3    H1 4212   4.008   1.288   4.583 -1.9975 -0.7098 -0.3519
 1416TIP3    H2 4213   4.104   1.259   4.470 -0.0946 -1.0630  1.2773
 1417TIP3   OH2 4214   3.405   0.687   2.061  0.9592  0.1740  0.0908
 1417TIP3    H1 4215   3.317   0.659   2.087  0.8949  1.0781  0.8860
 1417TIP3    H2 4216   3.453   0.694   2.143  2.2509 -1.7874 -0.4338
 1418TIP3   OH2 4217   5.667   4.807   5.874 -0.2177 -0.7466  0.0641
 1418TIP3    H1 4218   5.703   4.895   5.881  0.9729 -0.9294 -2.6697
 1418TIP3    H2 4219   5.572   4.820   5.870 -0.2789  0.1099  2.5097
 1419TIP3   OH2 4220   0.827   6.636   1.866  0.2253  0.3390  0.8542
 1419TIP3    H1 4221   0.849   6.718   1.909 -1.8279  0.6774  1.3607
 1419TIP3    H2 4222   0.751   6.603   1.914 -0.2229 -0.8409 -0.5863
 1420TIP3   OH2 4223   5.762   2.723   1.609 -0.3258  0.4684  0.2570
 1420TIP3    H1 4224   5.727   2.646   1.653  0.7735  0.8553  1.9006
 1420TIP3    H2 4225   5.854   2.725   1.634  0.3533  0.7843 -2.0190
 1421TIP3   OH2 4226   4.400   4.354   2.936 -0.2849  0.2166 -0.0664
 1421TIP3    H1 4227   4.381   4.396   3.020 -1.1705 -0.5553  0.1397
 1421TIP3    H2 4228   4.338   4.394   2.875 -0.1928  0.1947 -0.1739
 1422TIP3   OH2 4229   4.507   4.593   2.652 -0.3787 -0.3494  0.3674
 1422TIP3    H1 4230   4.498   4.498   2.645 -1.4518 -0.4320  2.1882
 1422TIP3    H2 4231   4.453   4.616   2.727  1.1696  1.5216  0.9739
 1423TIP3   OH2 4232   6.594   3.383   5.518  0.2350 -0.1308 -0.0369
 1423TIP3    H1 4233   6.506   3.393   5.481  0.1620  1.0515  0.4297
 1423TIP3    H2 4234   6.653   3.412   5.449  0.1393  1.2205  0.4230
 1424TIP3   OH2 4235   3.092   1.327   3.816 -0.2293 -0.0126  0.0713
 1424TIP3    H1 4236   3.163   1.368   3.766 -0.5927  1.0414  0.3877
 1424TIP3    H2 4237   3.093   1.235   3.789 -0.0279  0.4032 -1.4196
 1425TIP3   OH2 4238   1.439   4.895   2.212 -0.4254 -0.4576 -0.1577
 1425TIP3    H1 4239   1.394   4.940   2.140  1.7857 -0.1901 -1.4773
 1425TIP3    H2 4240   1.457   4.808   2.177  1.0261 -0.1915 -0.1170
 1426TIP3   OH2 4241   3.920   3.994   5.175 -0.0470 -0.0520  0.0244
 1426TIP3    H1 4242   3.959   3.959   5.095  0.6918 -0.3269  0.4916
 1426TIP3    H2 4243   3.984   4.058   5.206 -1.1912  1.4326 -0.5995
 1427TIP3   OH2 4244   2.698   3.008   1.210  0.0777  0.1093 -0.6449
 1427TIP3    H1 4245   2.717   3.073   1.278  0.2329 -0.0508 -0.5351
 1427TIP3    H2 4246   2.753   2.933   1.232 -1.5125 -0.8209  0.3723
 1428TIP3   OH2 4247   6.393   0.810   3.113  0.0333 -0.0685 -0.0748
 1428TIP3    H1 4248   6.306   0.803   3.153 -0.8777 -0.0603 -1.9453
 1428TIP3    H2 4249   6.449   0.840   3.184 -1.3402 -0.7292  1.3633
 1429TIP3   OH2 4250   1.885   5.174   1.746  0.0291 -0.7790 -0.6334
 1429TIP3    H1 4251   1.796   5.137   1.746 -0.2656 -0.1132  0.1323
 1429TIP3    H2 4252   1.906   5.186   1.654 -1.0334 -0.1627 -0.8176
 1430TIP3   OH2 4253   5.077   3.094   2.125  0.0651 -0.3603  0.0232
 1430TIP3    H1 4254   5.008   3.083   2.060 -1.8092 -1.1757  2.0134
 1430TIP3    H2 4255   5.132   3.165   2.091 -2.9515  1.8006 -0.7370
 1431TIP3   OH2 4256   6.017   5.093   1.751  0.6037 -0.0625 -0.2303
 1431TIP3    H1 4257   6.112   5.085   1.755  0.6689  1.0676  0.9723
 1431TIP3    H2 4258   5.995   5.153   1.822 -0.9682  0.0325 -0.7679
 1432TIP3   OH2 4259   6.814   6.508   1.957 -0.6305 -0.0360 -0.5098
 1432TIP3    H1 4260   6.838   6.594   1.991 -0.2459 -0.3587  0.0503
 1432TIP3    H2 4261   6.741   6.525   1.897  0.8689  0.9466 -2.1375
 1433TIP3   OH2 4262   5.097   6.179   2.008  0.0179 -0.2559  0.9656
 1433TIP3    H1 4263   5.168   6.199   1.948 -0.6475 -1.1799 -0.1695
 1433TIP3    H2 4264   5.070   6.265   2.042  0.6938  0.2375  0.2893
 1434TIP3   OH2 4265   3.089   1.631   5.817  0.1660 -0.0382  0.1698
 1434TIP3    H1 4266   3.061   1.709   5.866 -1.9256  0.4192 -1.6052
 1434TIP3    H2 4267   3.065   1.557   5.873 -3.5555  0.4072 -0.6092
 1435TIP3   OH2 4268   4.763   3.196   3.992  0.2338 -0.0489  0.8706
 1435TIP3    H1 4269   4.716   3.254   4.052 -0.4846  0.4343 -0.1353
 1435TIP3    H2 4270   4.761   3.111   4.036 -1.2453  0.0450  1.0438
 1436TIP3   OH2 4271   5.634   3.383   4.492 -0.2505  0.4187  0.0593
 1436TIP3    H1 4272   5.614   3.355   4.581  0.5668 -0.7180 -0.0961
 1436TIP3    H2 4273   5.720   3.424   4.499  0.3859 -0.7880 -0.3894
 1437TIP3   OH2 4274   5.267   6.488   3.342 -0.3934 -0.3350  0.1535
 1437TIP3    H1 4275   5.322   6.483   3.264 -1.6599  0.6267 -0.8506
 1437TIP3    H2 4276   5.212   6.565   3.328 -1.7578 -1.0537  1.2426
 1438TIP3   OH2 4277   6.830   2.258   3.232  0.2054 -0.4211  0.1330
 1438TIP3    H1 4278   6.735   2.265   3.231  0.2434  0.0120 -0.3896
 1438TIP3    H2 4279   6.858   2.287   3.146  0.8257 -0.3794  0.3409
 1439TIP3   OH2 4280   4.870   6.209   1.062  0.6033  0.0146  0.3566
 1439TIP3    H1 4281   4.848   6.270   1.133  1.8254  3.0606 -1.6836
 1439TIP3    H2 4282   4.947   6.162   1.095 -0.5738 -0.7781  2.1325
 1440TIP3   OH2 4283   1.943   5.017   0.319 -0.4754 -0.1673  0.2424
 1440TIP3    H1 4284   1.893   5.011   0.238 -0.7884  2.4178  0.1890
 1440TIP3    H2 4285   2.034   5.006   0.292 -0.6783 -0.6934 -0.2400
 1441TIP3   OH2 4286   4.852   5.164   0.517 -0.6160 -0.8564 -0.3014
 1441TIP3    H1 4287   4.784   5.170   0.584 -0.4529 -0.5344 -0.1625
 1441TIP3    H2 4288   4.814   5.109   0.449 -2.4270  2.2105 -1.9586
 1442TIP3   OH2 4289   2.553   5.603   3.013  0.5616 -0.1109  0.1995
 1442TIP3    H1 4290   2.476   5.572   2.965  0.0699 -0.4633  1.1905
 1442TIP3    H2 4291   2.603   5.524   3.033  1.4745  0.1690 -0.9055
 1443TIP3   OH2 4292   0.940   4.948   2.292  0.0026 -0.0167 -0.0585
 1443TIP3    H1 4293   1.033   4.929   2.285  0.3621  1.2515  1.0015
 1443TIP3    H2 4294   0.897   4.870   2.255  1.4253 -1.5038  1.2606
 1444TIP3   OH2 4295   2.813   4.585   2.242  0.2499 -0.0886 -0.1522
 1444TIP3    H1 4296   2.719   4.572   2.227  0.1814  0.8799 -0.6648
 1444TIP3    H2 4297   2.853   4.502   2.216 -0.5279 -0.7927  0.8379
 1445TIP3   OH2 4298   1.021   1.184   3.769 -0.4777  0.1185  1.0156
 1445TIP3    H1 4299   0.971   1.262   3.793 -0.7354  0.0699  0.6462
 1445TIP3    H2 4300   1.043   1.197   3.676 -0.1761 -0.0616  1.0606
 1446TIP3   OH2 4301   1.014   5.494   4.937  0.3093 -0.1611 -0.4138
 1446TIP3    H1 4302   1.021   5.548   4.858  2.4943 -0.9348 -0.8078
 1446TIP3    H2 4303   0.993   5.557   5.006  0.2687  0.8126 -1.2781
 1447TIP3   OH2 4304   4.199   3.759   3.180  0.2347 -0.1817 -0.4930
 1447TIP3    H1 4305   4.217   3.710   3.100 -0.2995  0.8319 -1.2519
 1447TIP3    H2 4306   4.189   3.691   3.247  1.5130 -1.0078 -1.0961
 1448TIP3   OH2 4307   0.491   3.288   3.193  0.4700  0.0471 -0.3906
 1448TIP3    H1 4308   0.489   3.219   3.259 -1.3390  0.8825  0.5165
 1448TIP3    H2 4309   0.410   3.337   3.207  1.1517  1.6797 -1.7348
 1449TIP3   OH2 4310   1.458   6.623   5.339  0.7734  0.1741 -0.0336
 1449TIP3    H1 4311   1.365   6.620   5.363  0.8364 -1.0866  0.1145
 1449TIP3    H2 4312   1.459   6.665   5.253  0.1549  0.9219  0.3059
 1450TIP3   OH2 4313   2.555   3.766   2.825 -0.3749 -0.1578 -0.1206
 1450TIP3    H1 4314   2.618   3.827   2.864  0.0737  0.3394 -1.5425
 1450TIP3    H2 4315   2.499   3.740   2.897 -0.2086  1.4802  0.6483
 1451TIP3   OH2 4316   4.296   2.256   4.115  0.0310  0.7313 -0.3163
 1451TIP3    H1 4317   4.236   2.246   4.042 -0.4820 -1.5273  0.3349
 1451TIP3    H2 4318   4.275   2.341   4.153 -2.5990  0.1310 -0.2832
 1452TIP3   OH2 4319   4.958   0.884   3.280  0.2248  0.1570 -0.1702
 1452TIP3    H1 4320   5.038   0.852   3.320 -0.1640  0.3170  0.7562
 1452TIP3    H2 4321   4.901   0.807   3.273  0.8836 -0.2249 -1.9732
 1453TIP3   OH2 4322   6.551   6.487   3.927  0.4364  0.0095  0.6901
 1453TIP3    H1 4323   6.461   6.454   3.926 -0.8247  3.1111 -1.5594
 1453TIP3    H2 4324   6.603   6.415   3.890 -1.4611 -1.0248 -0.1115
 1454TIP3   OH2 4325   1.941   0.032   2.458  0.2115 -0.0866 -0.8071
 1454TIP3    H1 4326   1.924  -0.043   2.515  0.3491  0.5561  0.1186
 1454TIP3    H2 4327   1.875   0.027   2.390 -1.3745  0.3040  0.6195
 1455TIP3   OH2 4328   1.686   4.131   3.521 -0.2594  0.6116 -0.2445
 1455TIP3    H1 4329   1.683   4.147   3.426  2.0050 -0.7528 -0.6316
 1455TIP3    H2 4330   1.610   4.075   3.538  0.1425 -0.3879 -1.5667
 1456TIP3   OH2 4331   2.799   2.271   2.341 -0.3078 -0.2632  0.5001
 1456TIP3    H1 4332   2.716   2.236   2.375 -0.3597  0.2987  0.9616
 1456TIP3    H2 4333   2.858   2.196   2.341 -0.3733 -0.3327  1.6370
 1457TIP3   OH2 4334   3.605   0.744   3.397 -0.9133  0.0150  0.2550
 1457TIP3    H1 4335   3.651   0.689   3.461 -2.6647 -1.6649  0.1561
 1457TIP3    H2 4336   3.625   0.703   3.313  0.3012  1.4398 -0.1989
 1458TIP3   OH2 4337   2.460   2.963   0.508 -0.3642 -0.1759 -0.2104
 1458TIP3    H1 4338   2.555   2.955   0.498 -0.4427  0.5037 -1.8063
 1458TIP3    H2 4339   2.436   2.894   0.569  1.1594 -0.3332  0.2432
 1459TIP3   OH2 4340   0.711   4.020   0.028  0.2530 -0.2842  0.1215
 1459TIP3    H1 4341   0.802   3.992   0.029 -0.1405 -1.7246  1.4045
 1459TIP3    H2 4342   0.665   3.951  -0.020 -0.2931 -0.1564  0.4457
 1460TIP3   OH2 4343   1.723   0.733   0.084  0.4628 -0.1316  0.3836
 1460TIP3    H1 4344   1.728   0.818   0.128  0.2590  0.2807 -0.3664
 1460TIP3    H2 4345   1.629   0.714   0.079  0.4411  0.2052 -0.5724
 1461TIP3   OH2 4346   6.160   1.422   1.487 -0.6003  0.2927 -0.1946
 1461TIP3    H1 4347   6.141   1.387   1.400 -0.1736  0.2885 -0.2897
 1461TIP3    H2 4348   6.193   1.346   1.536  0.3711  0.5508 -0.4151
 1462TIP3   OH2 4349   4.320   5.867   0.333  0.3111  0.7429  0.1536
 1462TIP3    H1 4350   4.239   5.843   0.377 -0.1337 -0.1448 -1.0865
 1462TIP3    H2 4351   4.388   5.821   0.382 -0.3022 -1.2827 -0.7645
 1463TIP3   OH2 4352   4.763   1.084   3.146  0.1290  0.5152 -0.0236
 1463TIP3    H1 4353   4.790   1.054   3.233 -0.2833 -0.1551 -0.1203
 1463TIP3    H2 4354   4.803   1.021   3.085 -0.4520  0.3588 -0.2495
 1464TIP3   OH2 4355   5.671   4.554   2.609 -0.7580  0.6713 -0.0853
 1464TIP3    H1 4356   5.675   4.515   2.522 -1.1064 -0.5148  0.3951
 1464TIP3    H2 4357   5.712   4.639   2.600  1.8534 -0.5741 -0.7942
 1465TIP3   OH2 4358   4.253   3.488   2.204 -0.4955  0.8550  0.5724
 1465TIP3    H1 4359   4.338   3.532   2.212 -1.1196  1.8998  2.0621
 1465TIP3    H2 4360   4.265   3.423   2.135  2.5069 -1.3713  2.9228
 1466TIP3   OH2 4361   6.022   0.239   4.288  0.0139 -0.0599  0.3840
 1466TIP3    H1 4362   6.080   0.313   4.305  0.6111 -0.3377 -0.3621
 1466TIP3    H2 4363   6.022   0.189   4.370 -0.3444  0.7140  0.8699
 1467TIP3   OH2 4364   5.022   2.956   3.415  0.3252 -0.0250 -0.3972
 1467TIP3    H1 4365   5.001   3.038   3.369 -1.9086  0.7375  1.7573
 1467TIP3    H2 4366   4.963   2.891   3.377  0.1511  0.0475 -0.2566
 1468TIP3   OH2 4367   5.154   6.055   3.502 -0.0047  0.1671  0.6985
 1468TIP3    H1 4368   5.235   6.046   3.551  0.3056 -1.4351 -0.0354
 1468TIP3    H2 4369   5.085   6.053   3.568  0.4853 -0.1003  1.2026
 1469TIP3   OH2 4370   2.621   0.914   1.382 -0.0018 -0.3348 -0.2641
 1469TIP3    H1 4371   2.536   0.898   1.423 -0.1648 -0.4372 -0.6356
 1469TIP3    H2 4372   2.649   0.998   1.416  0.3694 -0.9124  0.9044
 1470TIP3   OH2 4373   0.900   3.553   5.025 -0.1506 -0.4606  0.5938
 1470TIP3    H1 4374   0.991   3.561   4.999  0.2706  2.7984  2.5192
 1470TIP3    H2 4375   0.904   3.535   5.119 -1.2668  3.3349  1.5440
 1471TIP3   OH2 4376   0.900   4.837   3.636 -0.1490 -0.7573 -0.2495
 1471TIP3    H1 4377   0.969   4.903   3.640 -0.5788 -0.3040 -0.0797
 1471TIP3    H2 4378   0.936   4.768   3.581 -0.5651  0.7065 -2.5148
 1472TIP3   OH2 4379   5.823   5.442   5.106  0.1295  0.6582  0.1369
 1472TIP3    H1 4380   5.895   5.501   5.085 -1.9246  3.6281  0.8235
 1472TIP3    H2 4381   5.744   5.496   5.101 -1.8974 -1.8986  1.4202
 1473TIP3   OH2 4382   0.222   1.211   1.056  0.6354 -0.2651 -0.0373
 1473TIP3    H1 4383   0.252   1.246   0.972 -0.2082  1.0870  0.1887
 1473TIP3    H2 4384   0.144   1.161   1.035 -0.2221  0.9905  0.0337
 1474TIP3   OH2 4385   3.382   2.906   5.027 -0.0376 -0.3181  0.5149
 1474TIP3    H1 4386   3.442   2.940   4.961  0.3981 -1.2391  0.4307
 1474TIP3    H2 4387   3.427   2.919   5.110 -0.1921 -0.0129  0.5536
 1475TIP3   OH2 4388   1.765   2.667   5.247 -0.5817 -0.8064  0.9630
 1475TIP3    H1 4389   1.689   2.712   5.209 -1.0983 -0.7979  1.9828
 1475TIP3    H2 4390   1.820   2.645   5.172 -0.0802  1.9392  0.4267
 1476TIP3   OH2 4391   2.722   6.488   3.545  0.5339  0.1393 -0.6791
 1476TIP3    H1 4392   2.711   6.517   3.454 -0.7533  1.1176 -0.2438
 1476TIP3    H2 4393   2.723   6.393   3.540 -3.3118 -0.0194 -1.4297
 1477TIP3   OH2 4394   3.323   2.900   3.721  0.1721  0.0845 -0.5727
 1477TIP3    H1 4395   3.250   2.854   3.763  0.1502 -0.5552 -1.2766
 1477TIP3    H2 4396   3.283   2.977   3.682  0.1529  0.5568  0.3712
 1478TIP3   OH2 4397   3.784   0.616   3.855 -0.6992 -0.2282 -0.2536
 1478TIP3    H1 4398   3.740   0.685   3.904  0.6389 -0.9193  2.0665
 1478TIP3    H2 4399   3.812   0.553   3.922 -0.0735 -2.0021 -2.0793
 1479TIP3   OH2 4400   5.973   5.188   4.567 -0.2788 -0.4161 -0.4255
 1479TIP3    H1 4401   5.921   5.154   4.495 -3.5053  3.4555 -0.2679
 1479TIP3    H2 4402   6.056   5.213   4.527 -0.7704 -1.2501 -2.0623
 1480TIP3   OH2 4403   2.059   4.982   1.515  0.5614 -0.0499  0.1150
 1480TIP3    H1 4404   2.145   4.976   1.474  0.7562 -0.6324  0.5981
 1480TIP3    H2 4405   2.024   5.066   1.484  1.4845  0.4024  0.2658
 1481TIP3   OH2 4406   7.134   0.670   1.740 -0.3361  0.2546 -0.0779
 1481TIP3    H1 4407   7.042   0.662   1.762 -0.2738  0.2351  0.1844
 1481TIP3    H2 4408   7.179   0.621   1.809 -0.2188 -1.0350 -1.0436
 1482TIP3   OH2 4409   1.008   4.983   5.270  0.4384  0.3446  0.4181
 1482TIP3    H1 4410   1.063   4.957   5.196 -0.6392  1.3542 -0.7811
 1482TIP3    H2 4411   0.963   4.903   5.296 -0.2543  0.2447 -0.9815
 1483TIP3   OH2 4412   4.357   6.300   3.308 -0.4423 -0.9968  0.0355
 1483TIP3    H1 4413   4.337   6.206   3.314  0.4387 -1.1554  0.6171
 1483TIP3    H2 4414   4.313   6.338   3.384  0.7209 -1.2269  0.8525
 1484TIP3   OH2 4415   3.787   0.326   5.523 -0.4865 -0.0090  0.0216
 1484TIP3    H1 4416   3.793   0.231   5.537 -0.3502  0.2123  1.6805
 1484TIP3    H2 4417   3.714   0.353   5.579 -0.0731  0.9619  0.1098
 1485TIP3   OH2 4418   1.480   3.657   0.972 -0.4791 -0.1114 -0.1772
 1485TIP3    H1 4419   1.448   3.652   1.063  0.1893 -1.2765  0.0093
 1485TIP3    H2 4420   1.571   3.628   0.977  0.0100  1.1795 -1.0246
 1486TIP3   OH2 4421   5.752   5.361   4.013  0.6673 -0.4163  0.0254
 1486TIP3    H1 4422   5.784   5.296   3.950  0.6908 -0.4677  0.0899
 1486TIP3    H2 4423   5.831   5.400   4.050  0.6666 -0.9434  0.5989
 1487TIP3   OH2 4424   2.297   5.762   0.633 -0.0252  0.2104 -0.1252
 1487TIP3    H1 4425   2.381   5.775   0.675 -0.1935 -0.6864  0.5129
 1487TIP3    H2 4426   2.252   5.846   0.641  0.3949  0.3822  0.4665
 1488TIP3   OH2 4427   5.800   5.425   1.738  0.7737  0.2639 -0.5870
 1488TIP3    H1 4428   5.791   5.483   1.663  0.0462  0.8223 -0.0850
 1488TIP3    H2 4429   5.731   5.359   1.726  1.9659 -0.8688 -1.4583
 1489TIP3   OH2 4430   3.598   0.728   2.932 -0.5373 -0.4822  0.0481
 1489TIP3    H1 4431   3.638   0.717   2.846 -1.9647 -0.0714 -0.6974
 1489TIP3    H2 4432   3.656   0.680   2.992  1.3715  0.5808 -0.8700
 1490TIP3   OH2 4433   5.824   4.371   3.473 -0.4962  0.0781 -0.3672
 1490TIP3    H1 4434   5.797   4.329   3.392 -1.6241 -2.8628  1.3648
 1490TIP3    H2 4435   5.838   4.299   3.534 -0.5745  2.1557  2.3283
 1491TIP3   OH2 4436   5.639   4.521   4.135  0.1620 -0.4629  0.2874
 1491TIP3    H1 4437   5.593   4.598   4.101  1.7954  0.1441 -0.6308
 1491TIP3    H2 4438   5.599   4.447   4.087  0.8250  0.1613 -1.2908
 1492TIP3   OH2 4439   2.032   5.616   5.131  0.1427  0.3614  0.4693
 1492TIP3    H1 4440   2.001   5.704   5.113  0.9174  0.8952  1.6417
 1492TIP3    H2 4441   2.090   5.596   5.057  0.3720  1.0459  0.4541
 1493TIP3   OH2 4442   4.756   0.899   2.398 -0.1246 -0.0230  0.1028
 1493TIP3    H1 4443   4.749   0.824   2.339  2.6391  0.8839 -1.5325
 1493TIP3    H2 4444   4.809   0.868   2.471 -2.5204 -0.7763  1.6667
 1494TIP3   OH2 4445   5.895   1.508   0.223  0.1426 -0.7879  0.0034
 1494TIP3    H1 4446   5.872   1.450   0.296 -0.2690 -0.6490 -0.0118
 1494TIP3    H2 4447   5.990   1.516   0.228  0.2308 -1.6606 -0.1488
 1495TIP3   OH2 4448   5.029   3.507   3.259 -0.0590  0.3505 -0.4340
 1495TIP3    H1 4449   5.010   3.415   3.241  0.3005 -0.0071  0.9502
 1495TIP3    H2 4450   5.114   3.506   3.304  0.6758  1.4850 -1.7023
 1496TIP3   OH2 4451   2.106   5.717   4.770  0.2272  0.0440  0.2612
 1496TIP3    H1 4452   2.152   5.776   4.830  0.4592  0.2692 -0.1341
 1496TIP3    H2 4453   2.176   5.663   4.732  0.3633  1.3832 -1.4548
 1497TIP3   OH2 4454   4.984   5.794  -0.022  0.4808 -0.3722  0.5334
 1497TIP3    H1 4455   4.894   5.789   0.008  0.2919 -2.2196 -0.2419
 1497TIP3    H2 4456   5.035   5.809   0.058 -0.4266  0.0084  1.0578
 1498TIP3   OH2 4457   1.214   1.378   2.495  0.2249  0.1696 -0.0372
 1498TIP3    H1 4458   1.167   1.311   2.445 -0.0399  1.0763 -1.0522
 1498TIP3    H2 4459   1.174   1.376   2.582  0.7044 -1.4609  0.1832
 1499TIP3   OH2 4460   1.839   6.092   0.391  0.1728  0.5864 -0.1945
 1499TIP3    H1 4461   1.889   6.014   0.366  1.5444  1.4367 -0.1684
 1499TIP3    H2 4462   1.753   6.078   0.351 -0.3303 -1.9097  1.5463
 1500TIP3   OH2 4463   6.763   3.430   5.758 -0.4026 -0.0283  0.2048
 1500TIP3    H1 4464   6.743   3.354   5.812  2.1014 -1.7338 -1.0481
 1500TIP3    H2 4465   6.703   3.424   5.684  0.2486 -1.2957 -0.2592
 1501TIP3   OH2 4466   1.410   0.569   2.709  0.1580 -0.0589  0.0436
 1501TIP3    H1 4467   1.320   0.575   2.676  0.5186  0.5429 -0.8728
 1501TIP3    H2 4468   1.452   0.504   2.653  0.5906  0.4669 -0.2467
 1502TIP3   OH2 4469   4.804   2.072   4.965  0.1034  0.3405  0.1131
 1502TIP3    H1 4470   4.786   1.994   4.914  1.5548  2.1729 -3.6117
 1502TIP3    H2 4471   4.894   2.059   4.997  0.3512  0.4353 -0.5195
 1503TIP3   OH2 4472   4.148   2.938   4.356 -0.3779  0.5034  0.7819
 1503TIP3    H1 4473   4.176   2.877   4.424  2.5931  1.8205  0.8710
 1503TIP3    H2 4474   4.223   2.946   4.298 -1.9157  1.4626 -1.1977
 1504TIP3   OH2 4475   3.925   4.157   3.357  0.2178 -0.0401 -0.4831
 1504TIP3    H1 4476   3.843   4.200   3.337  0.9398  1.5769 -0.1164
 1504TIP3    H2 4477   3.986   4.188   3.290  0.9988  0.2941  0.3520
 1505TIP3   OH2 4478   3.212   1.272   3.451 -0.5497  0.0094  0.4871
 1505TIP3    H1 4479   3.122   1.283   3.420 -0.3852  2.2709  0.6876
 1505TIP3    H2 4480   3.203   1.224   3.533 -1.5139 -0.4012  0.1601
 1506TIP3   OH2 4481   1.924   5.481   5.764  0.0449 -0.3192  0.0728
 1506TIP3    H1 4482   1.832   5.488   5.737  0.5096 -1.1153 -1.8273
 1506TIP3    H2 4483   1.951   5.571   5.779 -1.5365 -0.1501  2.5817
 1507TIP3   OH2 4484   6.115   6.662   2.276 -0.6410  0.8721 -0.1593
 1507TIP3    H1 4485   6.196   6.629   2.237  0.6351  1.1151  2.0679
 1507TIP3    H2 4486   6.076   6.718   2.209  0.8273  0.4263 -1.4353
 1508TIP3   OH2 4487   6.911   1.671   5.807 -0.0967 -0.5433  0.2303
 1508TIP3    H1 4488   6.981   1.701   5.748 -0.1155 -0.0748  0.4417
 1508TIP3    H2 4489   6.906   1.739   5.875 -2.3704  0.7342 -1.0605
 1509TIP3   OH2 4490   3.576   4.497   5.261  0.0852  0.3139 -0.2193
 1509TIP3    H1 4491   3.610   4.577   5.221  1.7792  0.8301  2.0565
 1509TIP3    H2 4492   3.650   4.436   5.258  0.2282  0.3200  1.8526
 1510TIP3   OH2 4493   2.876   6.193   2.859 -0.1229  0.0844  0.5885
 1510TIP3    H1 4494   2.939   6.158   2.924 -0.8378 -1.8160  0.3325
 1510TIP3    H2 4495   2.829   6.261   2.906 -0.7383 -1.3567  2.1987
 1511TIP3   OH2 4496   2.745   0.132   0.602 -0.8460  0.2168 -0.7159
 1511TIP3    H1 4497   2.730   0.100   0.513 -0.4413 -1.3331 -0.2595
 1511TIP3    H2 4498   2.822   0.188   0.595  0.5315 -1.6224 -1.0333
 1512TIP3   OH2 4499   5.493   5.554   0.483  0.7320 -0.1629  0.2683
 1512TIP3    H1 4500   5.497   5.649   0.476  0.9172 -0.1834  0.0958
 1512TIP3    H2 4501   5.524   5.535   0.571  0.2130 -0.0319  0.4857
 1513TIP3   OH2 4502   5.761   5.742   3.236  0.1554  0.0908  0.1179
 1513TIP3    H1 4503   5.804   5.824   3.261  1.9287 -0.3815 -1.1443
 1513TIP3    H2 4504   5.679   5.770   3.196  0.7632  1.2795 -0.3744
 1514TIP3   OH2 4505   6.697   2.218   2.546  0.0953  0.3347 -0.0155
 1514TIP3    H1 4506   6.761   2.249   2.482  1.2867  1.4573  1.6391
 1514TIP3    H2 4507   6.668   2.297   2.592 -0.7009 -0.4404  0.8555
 1515TIP3   OH2 4508   6.200   5.323   3.905 -0.5664 -0.0963 -0.1916
 1515TIP3    H1 4509   6.185   5.256   3.971 -0.1663  0.3451  0.3624
 1515TIP3    H2 4510   6.255   5.388   3.949 -1.2558  0.7788 -0.6026
 1516TIP3   OH2 4511   2.121   6.672   1.534  0.0876 -0.5481  0.1880
 1516TIP3    H1 4512   2.103   6.579   1.542 -2.6408  0.0397  3.3807
 1516TIP3    H2 4513   2.094   6.694   1.445 -1.1245 -2.4807  0.0204
 1517TIP3   OH2 4514   1.429   4.300   3.112  0.4300  0.1019  0.5036
 1517TIP3    H1 4515   1.403   4.246   3.037  0.0399 -0.2411  0.8785
 1517TIP3    H2 4516   1.393   4.254   3.188  1.1067  0.2720  0.9316
 1518TIP3   OH2 4517   5.084   1.080   3.130  0.8407 -0.0842 -0.4272
 1518TIP3    H1 4518   5.061   1.159   3.180  1.5308  0.1452 -0.4721
 1518TIP3    H2 4519   5.046   1.009   3.181  2.7279  0.0101  1.2109
 1519TIP3   OH2 4520   0.276   4.119   0.290 -0.1907 -0.0075 -0.1382
 1519TIP3    H1 4521   0.370   4.112   0.273 -0.0491 -2.8929  1.3098
 1519TIP3    H2 4522   0.270   4.174   0.368  0.6666 -2.7640  1.9847
 1520TIP3   OH2 4523   5.872   2.469   3.551 -0.2154  0.6430  0.4404
 1520TIP3    H1 4524   5.899   2.437   3.465  1.2055  1.9061  0.3796
 1520TIP3    H2 4525   5.780   2.447   3.557 -0.3231  0.4642 -1.3794
 1521TIP3   OH2 4526   3.361   6.722   5.779 -0.2880 -0.6963 -0.3878
 1521TIP3    H1 4527   3.452   6.729   5.753 -0.2086 -1.7060 -0.3927
 1521TIP3    H2 4528   3.352   6.635   5.817 -0.9559 -0.1491  0.7906
 1522TIP3   OH2 4529   6.376   6.626   0.370 -0.0080  0.4902  0.6240
 1522TIP3    H1 4530   6.432   6.578   0.430 -0.0130 -2.6248 -1.5958
 1522TIP3    H2 4531   6.392   6.586   0.285 -3.6965  1.1424 -0.5804
 1523TIP3   OH2 4532   5.765   2.380   3.178  0.1992  0.1703 -0.2029
 1523TIP3    H1 4533   5.789   2.362   3.087 -0.6162  0.5876 -0.5161
 1523TIP3    H2 4534   5.839   2.348   3.229  1.0601  0.7079 -1.0638
 1524TIP3   OH2 4535   6.500   3.408   4.490  0.4819  0.6525  0.1734
 1524TIP3    H1 4536   6.480   3.413   4.397 -1.0871  0.7993  0.4790
 1524TIP3    H2 4537   6.535   3.494   4.512 -0.7191  1.1905  0.0347
 1525TIP3   OH2 4538   5.263   3.582   5.088 -0.2954  0.0539  0.0621
 1525TIP3    H1 4539   5.356   3.600   5.082 -0.0641 -0.5617  1.5403
 1525TIP3    H2 4540   5.224   3.663   5.122 -0.2359  0.1203 -0.0267
 1526TIP3   OH2 4541   0.033   4.773   5.859  0.0330 -0.3278 -0.0052
 1526TIP3    H1 4542   0.083   4.810   5.786 -0.2155  0.6679  0.3212
 1526TIP3    H2 4543   0.000   4.849   5.907 -0.4682 -0.9737  0.6950
 1527TIP3   OH2 4544   6.120   5.497   0.921  0.0315  0.2880 -0.5963
 1527TIP3    H1 4545   6.133   5.573   0.864  1.7421  3.2042  3.2503
 1527TIP3    H2 4546   6.207   5.476   0.954 -0.9927 -0.1388  2.1162
 1528TIP3   OH2 4547   6.210   5.699   0.719 -0.2984  0.1009  0.1048
 1528TIP3    H1 4548   6.253   5.638   0.659 -1.5921 -0.5897 -0.1713
 1528TIP3    H2 4549   6.281   5.746   0.762  0.7162 -1.2420 -0.0680
 1529TIP3   OH2 4550   0.915   4.762   3.895  0.5784  0.4917 -0.0081
 1529TIP3    H1 4551   0.890   4.789   3.806  0.4070 -0.8357 -0.3860
 1529TIP3    H2 4552   1.010   4.761   3.894  0.5932  1.3765  0.1107
 1530TIP3   OH2 4553   1.077   0.075   5.235  0.2518  0.3072  0.0018
 1530TIP3    H1 4554   1.082   0.052   5.142 -1.1757  1.8474 -0.5180
 1530TIP3    H2 4555   1.078  -0.008   5.281 -0.3188 -0.5484 -1.4733
 1531TIP3   OH2 4556   0.355   3.739   1.850  0.2071  0.1629 -0.1892
 1531TIP3    H1 4557   0.364   3.662   1.793  1.0304  0.6524 -0.7475
 1531TIP3    H2 4558   0.441   3.782   1.845 -0.4456  1.4858 -0.4371
 1532TIP3   OH2 4559   6.648   6.261   3.820  0.4098 -0.2188 -0.2363
 1532TIP3    H1 4560   6.622   6.194   3.756 -1.7629 -0.4533  0.7902
 1532TIP3    H2 4561   6.658   6.213   3.902  0.9770  0.4120  0.0749
 1533TIP3   OH2 4562   6.314   2.989   0.790  0.1021  0.1737  0.0153
 1533TIP3    H1 4563   6.347   3.028   0.709 -1.1968 -0.8926 -1.0898
 1533TIP3    H2 4564   6.291   3.064   0.845 -2.4058  1.1284 -2.0703
 1534TIP3   OH2 4565   3.833   3.873   3.291 -0.3322 -0.2240  0.7652
 1534TIP3    H1 4566   3.744   3.906   3.284 -0.7320 -1.5108 -1.2346
 1534TIP3    H2 4567   3.871   3.919   3.366 -1.6360  2.7131 -0.2444
 1535TIP3   OH2 4568   2.074   2.827   2.549 -0.0848 -0.5426  0.1039
 1535TIP3    H1 4569   2.029   2.837   2.465 -1.0739 -1.9882  0.4422
 1535TIP3    H2 4570   2.028   2.888   2.608  0.2187  0.0240 -0.2321
 1536TIP3   OH2 4571   0.363   6.303   2.631  0.2223  0.3600 -0.4393
 1536TIP3    H1 4572   0.359   6.382   2.577 -0.0918  0.3745 -0.4009
 1536TIP3    H2 4573   0.335   6.232   2.573  0.5494  0.2695 -0.4872
 1537TIP3   OH2 4574   6.919   1.418   4.394  0.0704 -0.1726 -0.1103
 1537TIP3    H1 4575   6.903   1.324   4.381 -2.9416  0.2989 -0.6619
 1537TIP3    H2 4576   6.884   1.459   4.315  0.7176  1.4633  0.4162
 1538TIP3   OH2 4577   6.557   0.155   4.019 -0.8108  0.1064  0.1916
 1538TIP3    H1 4578   6.634   0.194   4.061  2.0212 -1.6730 -2.8545
 1538TIP3    H2 4579   6.514   0.229   3.976 -0.2640  1.0029  1.1351
 1539TIP3   OH2 4580   1.756   6.096   1.598 -0.7647  0.2435  0.3593
 1539TIP3    H1 4581   1.716   6.019   1.640 -1.1152  0.1492 -0.1372
 1539TIP3    H2 4582   1.807   6.137   1.668 -0.5057 -0.4843  0.6117
 1540TIP3   OH2 4583   2.422   1.113   0.412  0.4702 -0.5956  0.1907
 1540TIP3    H1 4584   2.506   1.149   0.381 -0.1070 -0.8476 -1.7555
 1540TIP3    H2 4585   2.404   1.164   0.491  0.2273  2.7965 -1.8294
 1541TIP3   OH2 4586   6.162   0.967   1.052 -0.2918  0.4550  0.4882
 1541TIP3    H1 4587   6.249   0.942   1.021 -0.5253  0.4128 -0.1539
 1541TIP3    H2 4588   6.135   1.037   0.992  0.1259  1.8981  1.9140
 1542TIP3   OH2 4589   1.694   2.447   4.846 -0.4527 -0.1615  0.2368
 1542TIP3    H1 4590   1.762   2.484   4.903  1.0284  1.0302 -2.1041
 1542TIP3    H2 4591   1.718   2.355   4.838  0.8033  0.1841 -0.3487
 1543TIP3   OH2 4592   3.254   2.004   0.118  0.2762 -0.1066 -0.1435
 1543TIP3    H1 4593   3.314   2.074   0.144 -0.5823 -0.2366  2.5305
 1543TIP3    H2 4594   3.291   1.925   0.157 -0.2610 -0.6384 -0.6925
 1544TIP3   OH2 4595   0.935   2.889   3.781 -0.1586 -0.1667 -0.2127
 1544TIP3    H1 4596   0.885   2.933   3.850 -0.6645  0.7135 -1.1212
 1544TIP3    H2 4597   1.024   2.884   3.816 -0.3660  0.4289  0.4319
 1545TIP3   OH2 4598   4.896   1.687   4.972  0.1031 -0.2553 -0.1447
 1545TIP3    H1 4599   4.820   1.745   4.974  0.4611  0.2430  1.9056
 1545TIP3    H2 4600   4.964   1.739   4.929  0.2224  0.6545  1.0644
 1546TIP3   OH2 4601   0.557   2.647   1.515  0.3149 -0.3006  0.1254
 1546TIP3    H1 4602   0.567   2.599   1.597  1.4746 -0.2829  0.0038
 1546TIP3    H2 4603   0.622   2.610   1.456  1.0208  1.1709 -0.0799
 1547TIP3   OH2 4604   4.484   2.853   3.825 -0.6061  0.4922 -0.2329
 1547TIP3    H1 4605   4.568   2.880   3.863  0.4862 -1.8771 -0.7208
 1547TIP3    H2 4606   4.422   2.920   3.852  1.3282  2.0344  0.6393
 1548TIP3   OH2 4607   5.027   5.358   4.330  0.2127  0.4411  0.1439
 1548TIP3    H1 4608   5.027   5.318   4.417 -0.2287  2.0470  0.9151
 1548TIP3    H2 4609   4.944   5.330   4.291  0.3912 -0.2493  0.2346
 1549TIP3   OH2 4610   1.159   4.675   5.805 -0.5525 -0.3422  0.2933
 1549TIP3    H1 4611   1.136   4.600   5.750 -1.4819 -0.7050  1.1469
 1549TIP3    H2 4612   1.127   4.652   5.892  1.0193  0.1682  1.0326
 1550TIP3   OH2 4613   5.981   5.474   4.141  0.0091  0.3733  0.0826
 1550TIP3    H1 4614   5.993   5.516   4.056 -0.1374 -0.2937 -0.2776
 1550TIP3    H2 4615   6.041   5.399   4.139  1.7806  1.6718  1.5177
 1551TIP3   OH2 4616   3.157   6.261   2.772  0.0071 -0.0359 -0.4465
 1551TIP3    H1 4617   3.195   6.223   2.852  0.4021 -0.0768 -0.6518
 1551TIP3    H2 4618   3.083   6.203   2.752 -0.7027  0.5311  0.4296
 1552TIP3   OH2 4619   1.887   1.962   4.281  0.0068 -0.4967 -0.1793
 1552TIP3    H1 4620   1.970   2.002   4.307 -0.8578 -0.4207  2.8178
 1552TIP3    H2 4621   1.883   1.879   4.330 -2.5435  0.4730  1.4561
 1553TIP3   OH2 4622   4.318   5.684   0.940 -0.1802  0.4517 -0.2020
 1553TIP3    H1 4623   4.329   5.736   0.861 -1.2071  0.8435 -0.1082
 1553TIP3    H2 4624   4.406   5.653   0.962  0.4349  2.0477 -0.3358
 1554TIP3   OH2 4625   6.441   2.435   1.471  0.0092 -0.1947 -0.1910
 1554TIP3    H1 4626   6.432   2.412   1.379  0.1465  0.2265 -0.3089
 1554TIP3    H2 4627   6.433   2.530   1.474  2.3304  0.0605 -0.0584
 1555TIP3   OH2 4628   3.989   0.828   2.656  0.7113  0.1865  0.1715
 1555TIP3    H1 4629   3.932   0.883   2.601  0.9428 -0.0552 -0.3103
 1555TIP3    H2 4630   4.076   0.839   2.619  1.0263  0.7243  1.0421
 1556TIP3   OH2 4631   6.875   1.410   1.818  0.1717 -0.1334 -0.2461
 1556TIP3    H1 4632   6.951   1.359   1.789 -0.5442 -1.9457  0.8833
 1556TIP3    H2 4633   6.823   1.348   1.869 -1.7195  1.2539 -0.3878
 1557TIP3   OH2 4634   4.107   2.228   3.510 -0.3109  0.0466 -0.0571
 1557TIP3    H1 4635   4.137   2.164   3.446 -1.4323 -0.8150  0.2584
 1557TIP3    H2 4636   4.029   2.268   3.471 -1.8254 -1.4599  1.2879
 1558TIP3   OH2 4637   0.136   2.066   1.196 -0.1954  0.0145 -0.0807
 1558TIP3    H1 4638   0.224   2.103   1.203 -0.6557  0.9641  1.0224
 1558TIP3    H2 4639   0.096   2.114   1.124 -0.5206  1.1535  0.8310
 1559TIP3   OH2 4640   7.088   3.829   3.499 -0.0060  0.1876 -0.3056
 1559TIP3    H1 4641   7.156   3.765   3.477 -1.0948 -0.3112 -2.5468
 1559TIP3    H2 4642   7.125   3.913   3.472 -0.4289 -0.1501 -2.0723
 1560TIP3   OH2 4643   3.898   4.372   1.814 -0.1187 -0.4000  0.4755
 1560TIP3    H1 4644   3.928   4.373   1.905 -0.4703  0.2322  0.5884
 1560TIP3    H2 4645   3.884   4.464   1.793 -1.0097 -0.6130  0.1050
 1561TIP3   OH2 4646   1.187   0.183   3.384 -0.0858  0.3043 -0.4521
 1561TIP3    H1 4647   1.149   0.109   3.338  1.5520 -1.0029  0.1992
 1561TIP3    H2 4648   1.122   0.253   3.376 -1.2966 -0.9282 -1.8049
 1562TIP3   OH2 4649   2.757   3.473   1.573  0.2002  0.4251  0.4319
 1562TIP3    H1 4650   2.832   3.529   1.554 -0.8070  1.5675 -0.4244
 1562TIP3    H2 4651   2.706   3.523   1.636 -1.4285  1.2131 -1.3884
 1563TIP3   OH2 4652   5.296   4.177   3.558  0.1723 -0.0447  0.2733
 1563TIP3    H1 4653   5.389   4.156   3.562  0.2877 -0.0440 -1.5682
 1563TIP3    H2 4654   5.258   4.131   3.634  1.5144 -0.8364  0.5014
 1564TIP3   OH2 4655   1.297   5.470   5.022  0.1341  0.5662  0.8159
 1564TIP3    H1 4656   1.317   5.525   4.945  0.5609 -3.9704 -2.7328
 1564TIP3    H2 4657   1.203   5.481   5.035  0.1801  2.0098  0.1716
 1565TIP3   OH2 4658   6.831   2.413   1.105 -0.7474 -0.4428 -0.1092
 1565TIP3    H1 4659   6.878   2.330   1.096 -1.7426 -1.2002  1.2348
 1565TIP3    H2 4660   6.739   2.388   1.102 -1.0612  0.5804  0.5404
 1566TIP3   OH2 4661   3.196   4.341   0.362 -0.2921  0.1120 -0.2110
 1566TIP3    H1 4662   3.224   4.432   0.351  0.4423 -0.2594 -1.7758
 1566TIP3    H2 4663   3.274   4.296   0.394 -1.0744  0.2718  2.0414
 1567TIP3   OH2 4664   3.348   0.501   1.035 -0.1619  0.1146  0.2375
 1567TIP3    H1 4665   3.366   0.499   0.941 -0.2772  0.1801  0.2133
 1567TIP3    H2 4666   3.370   0.414   1.066 -0.0067  0.1310  0.1708
 1568TIP3   OH2 4667   5.721   3.114   4.362  0.0160  0.5811  0.7154
 1568TIP3    H1 4668   5.744   3.202   4.333 -1.0882  0.4030 -0.8750
 1568TIP3    H2 4669   5.800   3.062   4.347 -0.1656  0.7463 -1.0700
 1569TIP3   OH2 4670   2.986   3.974   2.546 -0.7601  0.2246  0.0808
 1569TIP3    H1 4671   3.039   3.978   2.466 -2.1823  0.1567 -0.9155
 1569TIP3    H2 4672   3.015   3.895   2.591 -0.2030  0.0435 -0.5788
 1570TIP3   OH2 4673   1.023   0.318   5.548 -1.0027 -0.5468  0.4556
 1570TIP3    H1 4674   1.077   0.380   5.596 -1.4010  0.1951 -0.0385
 1570TIP3    H2 4675   0.933   0.338   5.575 -1.2491 -0.0128 -0.6842
 1571TIP3   OH2 4676   1.499   1.861   2.888 -0.2296  0.2065  0.2760
 1571TIP3    H1 4677   1.552   1.788   2.920  0.4681 -0.0959 -1.4576
 1571TIP3    H2 4678   1.560   1.915   2.838 -1.4629 -0.1109 -1.7294
 1572TIP3   OH2 4679   4.620   5.754   2.021  0.4024  0.3338 -0.0191
 1572TIP3    H1 4680   4.630   5.709   1.937 -0.6548 -0.5896  0.3196
 1572TIP3    H2 4681   4.629   5.847   1.999  0.4722  0.0919 -1.1001
 1573TIP3   OH2 4682   4.719   4.731   0.669 -0.6839 -0.2874 -0.1359
 1573TIP3    H1 4683   4.806   4.726   0.709 -0.2752 -1.0131 -1.0516
 1573TIP3    H2 4684   4.721   4.664   0.600 -1.7973  0.0393 -0.5107
 1574TIP3   OH2 4685   3.842   5.909   3.754 -0.5681 -0.1879  0.2278
 1574TIP3    H1 4686   3.801   5.992   3.779 -0.9578 -0.1078 -0.6467
 1574TIP3    H2 4687   3.931   5.915   3.787 -0.8831  0.1681  1.0372
 1575TIP3   OH2 4688   3.788   1.701   3.144 -0.3034 -0.3721 -0.2925
 1575TIP3    H1 4689   3.745   1.690   3.059 -0.2861 -0.2709 -0.3138
 1575TIP3    H2 4690   3.836   1.619   3.157 -1.6374 -1.0756  0.3745
 1576TIP3   OH2 4691   6.629   5.659   0.855  0.0478 -0.2535 -0.4766
 1576TIP3    H1 4692   6.665   5.709   0.782 -0.3578  1.6690  0.5877
 1576TIP3    H2 4693   6.534   5.662   0.843 -0.0298  0.1991  0.1934
 1577TIP3   OH2 4694   0.887   5.784   3.485  0.5275 -0.3980 -0.1478
 1577TIP3    H1 4695   0.883   5.863   3.431 -0.3709 -1.4473 -1.7097
 1577TIP3    H2 4696   0.961   5.799   3.544  0.3676  1.5961 -0.3734
 1578TIP3   OH2 4697   0.188   3.885   1.651  0.2596 -0.5122 -0.4533
 1578TIP3    H1 4698   0.236   3.833   1.716 -0.2006 -1.1065 -0.5797
 1578TIP3    H2 4699   0.102   3.899   1.691  0.1467 -0.4439 -0.7210
 1579TIP3   OH2 4700   3.624   6.798   3.540 -0.6607  0.3095  0.1157
 1579TIP3    H1 4701   3.549   6.756   3.498  0.2258 -0.7099 -0.4864
 1579TIP3    H2 4702   3.623   6.765   3.630  0.0239 -1.0107 -0.3509
 1580TIP3   OH2 4703   1.831   0.944   1.160 -0.7862 -0.0785  0.2301
 1580TIP3    H1 4704   1.906   0.995   1.191 -1.3957  0.6518  0.5227
 1580TIP3    H2 4705   1.866   0.856   1.146  0.4633  0.5838 -1.0143
 1581TIP3   OH2 4706   6.308   1.559   3.555 -0.1430 -0.9003 -0.3474
 1581TIP3    H1 4707   6.372   1.630   3.565  0.3745 -1.6561  2.5638
 1581TIP3    H2 4708   6.223   1.602   3.557  0.1848 -0.2669  0.4564
 1582TIP3   OH2 4709   3.379   5.538   4.258  0.0983  0.0469 -0.5182
 1582TIP3    H1 4710   3.366   5.559   4.166  2.3117 -1.7476 -1.3618
 1582TIP3    H2 4711   3.295   5.556   4.300 -0.7607  1.5702 -2.7283
 1583TIP3   OH2 4712   2.203   1.547   3.308  0.5340 -0.6748 -0.4135
 1583TIP3    H1 4713   2.123   1.588   3.342  0.6500 -0.4985 -0.3486
 1583TIP3    H2 4714   2.256   1.621   3.279  0.4545 -0.8235 -0.9384
 1584TIP3   OH2 4715   2.586   1.071   4.229  0.5306 -0.3575  0.3290
 1584TIP3    H1 4716   2.649   1.130   4.271  0.2580  0.1090  0.0854
 1584TIP3    H2 4717   2.589   1.094   4.136 -1.9997  1.6231  0.6243
 1585TIP3   OH2 4718   3.905   3.158   5.014  0.0822  0.9165  0.1523
 1585TIP3    H1 4719   3.830   3.111   4.978  0.0046  1.9506 -1.1612
 1585TIP3    H2 4720   3.870   3.204   5.091 -0.4161  0.6759  0.0746
 1586TIP3   OH2 4721   5.493   4.431   5.619 -0.2136  0.1210 -0.2670
 1586TIP3    H1 4722   5.447   4.506   5.657  0.1132 -0.4357  1.2742
 1586TIP3    H2 4723   5.427   4.388   5.565 -0.9559  0.4101  0.3906
 1587TIP3   OH2 4724   6.842   3.496   0.933 -0.4428  0.4760  0.2356
 1587TIP3    H1 4725   6.763   3.538   0.967 -0.6768  0.5048 -0.3374
 1587TIP3    H2 4726   6.871   3.439   1.004 -0.1328  1.5689  1.0329
 1588TIP3   OH2 4727   1.174   4.017   5.229 -0.2559 -0.0917 -0.2366
 1588TIP3    H1 4728   1.133   3.938   5.194  0.4907 -0.7594  0.3549
 1588TIP3    H2 4729   1.238   3.985   5.292 -1.3369  1.0359  1.5451
 1589TIP3   OH2 4730   0.792   3.045   4.690  0.4434 -0.1128 -0.8836
 1589TIP3    H1 4731   0.854   2.975   4.671  0.5758 -0.0150 -0.8110
 1589TIP3    H2 4732   0.717   3.025   4.634 -0.1393 -1.1366  0.2304
 1590TIP3   OH2 4733   0.127   4.159   1.511  0.4271  0.6485  0.2514
 1590TIP3    H1 4734   0.179   4.096   1.461  0.1517  0.9816 -0.4793
 1590TIP3    H2 4735   0.039   4.120   1.516  0.5427  0.4503  0.7959
 1591TIP3   OH2 4736   4.716   3.482   2.135  0.7464  0.0674 -0.1922
 1591TIP3    H1 4737   4.804   3.447   2.145  1.6193  1.5707 -2.1175
 1591TIP3    H2 4738   4.698   3.477   2.042 -0.6969  0.9859  0.0075
 1592TIP3   OH2 4739   6.068   6.018   0.331  0.1088 -0.1105 -0.1173
 1592TIP3    H1 4740   6.139   5.980   0.279  0.5630  1.1524 -0.4399
 1592TIP3    H2 4741   6.102   6.102   0.361 -0.6472 -0.2183  1.1064
 1593TIP3   OH2 4742   5.605   0.318   5.587  0.5417 -0.3321 -0.4778
 1593TIP3    H1 4743   5.687   0.347   5.547  0.7639 -0.7170 -0.3022
 1593TIP3    H2 4744   5.586   0.234   5.545  0.2257 -0.2359 -0.5300
 1594TIP3   OH2 4745   6.628   0.787   1.365  0.4237  0.0256 -0.1640
 1594TIP3    H1 4746   6.622   0.712   1.426  1.0449  0.5051  0.5105
 1594TIP3    H2 4747   6.584   0.757   1.286 -2.2673  0.1005  1.2086
 1595TIP3   OH2 4748   7.193   2.203   0.940  0.3499  0.6338  0.0502
 1595TIP3    H1 4749   7.162   2.282   0.985 -1.0797  1.2969 -1.9629
 1595TIP3    H2 4750   7.132   2.191   0.868  1.1846 -1.7252 -0.3471
 1596TIP3   OH2 4751   0.420   2.962   5.213  0.1110 -0.2361 -0.3302
 1596TIP3    H1 4752   0.336   2.918   5.222 -0.3806  0.8661  0.6884
 1596TIP3    H2 4753   0.397   3.049   5.180  0.8857 -0.0376 -0.3535
 1597TIP3   OH2 4754   3.484   6.025   3.671  0.1308 -0.5034  0.1013
 1597TIP3    H1 4755   3.418   6.079   3.714  0.4998  0.6053 -0.6519
 1597TIP3    H2 4756   3.561   6.082   3.667  1.3067 -1.9240  1.3982
 1598TIP3   OH2 4757   1.133   6.186   0.391 -0.6172  0.2187  0.4925
 1598TIP3    H1 4758   1.212   6.152   0.350 -1.7076  0.4100 -1.9857
 1598TIP3    H2 4759   1.149   6.280   0.401 -0.0398  0.0416  1.2557
 1599TIP3   OH2 4760   1.309   2.009   1.385  0.3922  0.3243  0.1680
 1599TIP3    H1 4761   1.313   1.949   1.310 -0.2516  0.4377  0.0343
 1599TIP3    H2 4762   1.388   2.063   1.377  0.3574  0.2966 -0.3985
 1600TIP3   OH2 4763   1.590   5.957   0.250  0.1552  0.3857  0.4515
 1600TIP3    H1 4764   1.587   5.950   0.346 -0.5208  0.6380  0.4533
 1600TIP3    H2 4765   1.573   5.867   0.219  0.3915  0.3009  0.5683
 1601TIP3   OH2 4766   2.295   1.933   4.813  0.0457  0.4796 -0.0655
 1601TIP3    H1 4767   2.380   1.971   4.834 -0.1146  0.8475 -0.0863
 1601TIP3    H2 4768   2.244   1.943   4.893 -0.7879  2.4841 -0.7998
 1602TIP3   OH2 4769   3.129   1.310   4.999 -0.0937  0.3948  0.2324
 1602TIP3    H1 4770   3.045   1.356   4.992 -0.0144  0.5149  0.0780
 1602TIP3    H2 4771   3.125   1.244   4.929  1.2789  2.5010 -1.9827
 1603TIP3   OH2 4772   1.366   0.494   2.415 -0.2115  0.1780  0.0092
 1603TIP3    H1 4773   1.461   0.497   2.413 -0.1892  0.2470  0.7672
 1603TIP3    H2 4774   1.341   0.444   2.337  0.5366 -1.6162  0.8672
 1604TIP3   OH2 4775   5.258   5.474   4.796  0.3928 -0.2245  0.1146
 1604TIP3    H1 4776   5.298   5.487   4.711 -1.3965 -0.5060 -0.8253
 1604TIP3    H2 4777   5.293   5.544   4.851 -2.2852  3.4203 -2.3148
 1605TIP3   OH2 4778   5.513   6.519   1.753 -0.4092  0.3142 -0.0977
 1605TIP3    H1 4779   5.477   6.435   1.724  1.2833  0.0689 -1.7060
 1605TIP3    H2 4780   5.437   6.572   1.774 -1.5392 -1.3731  0.2325
 1606TIP3   OH2 4781   6.689   5.256   5.478 -0.2078  0.6374  0.1671
 1606TIP3    H1 4782   6.684   5.351   5.487  0.4590  0.9334 -1.9876
 1606TIP3    H2 4783   6.710   5.242   5.386  2.1296 -1.5224  0.9165
 1607TIP3   OH2 4784   1.524   2.489   4.344  0.1199 -0.4020 -0.1046
 1607TIP3    H1 4785   1.568   2.481   4.428 -0.9892 -0.1717  0.5073
 1607TIP3    H2 4786   1.442   2.442   4.354 -0.0999 -0.2366 -1.0034
 1608TIP3   OH2 4787   0.785   4.769   2.130 -0.3350  0.0600  0.2332
 1608TIP3    H1 4788   0.757   4.785   2.040 -2.0672  0.8079  0.8550
 1608TIP3    H2 4789   0.832   4.686   2.126 -1.8814 -0.8155 -1.1039
 1609TIP3   OH2 4790   0.564   6.431   1.947 -0.1474 -0.7827 -0.6452
 1609TIP3    H1 4791   0.636   6.410   2.007  0.9384 -0.9605 -1.9551
 1609TIP3    H2 4792   0.570   6.365   1.878 -0.4212  0.2855 -1.7318
 1610TIP3   OH2 4793   1.692   0.054   1.093  0.4283 -0.4881 -0.0954
 1610TIP3    H1 4794   1.785   0.041   1.075  0.1354 -1.1121 -1.2797
 1610TIP3    H2 4795   1.656  -0.034   1.100  0.0528 -0.2562  1.1482
 1611TIP3   OH2 4796   2.663   6.262   1.301  0.2019 -0.0487 -0.1634
 1611TIP3    H1 4797   2.575   6.298   1.293 -0.9485 -2.6196 -0.2763
 1611TIP3    H2 4798   2.651   6.167   1.292  3.0543 -0.4702 -0.6493
 1612TIP3   OH2 4799   6.775   4.086   3.627  0.4078 -0.3699 -0.4468
 1612TIP3    H1 4800   6.712   4.020   3.597  1.0751 -0.3750 -1.9550
 1612TIP3    H2 4801   6.791   4.140   3.550 -0.1972  1.6541  0.7721
 1613TIP3   OH2 4802   1.856   2.929   4.153  0.2258 -0.8225  0.3520
 1613TIP3    H1 4803   1.916   3.002   4.137  0.1170 -0.7705  0.1789
 1613TIP3    H2 4804   1.804   2.956   4.228 -1.0747  0.0830 -0.8126
 1614TIP3   OH2 4805   2.721   3.286   4.764  0.5501 -0.2443 -0.3946
 1614TIP3    H1 4806   2.708   3.352   4.832  0.1399  1.0220 -1.6554
 1614TIP3    H2 4807   2.690   3.205   4.804 -0.5453  0.6302  0.6303
 1615TIP3   OH2 4808   3.085   4.839   2.848 -0.2188  0.3948 -0.1124
 1615TIP3    H1 4809   3.152   4.775   2.826 -0.2239  0.6335 -0.8406
 1615TIP3    H2 4810   3.017   4.826   2.782 -0.7720  0.3411  0.4533
 1616TIP3   OH2 4811   5.870   0.538   3.379  0.0172  0.5496  0.7728
 1616TIP3    H1 4812   5.906   0.454   3.354  0.6059  0.9637  0.2045
 1616TIP3    H2 4813   5.777   0.520   3.397  0.0037 -0.1065  0.0932
 1617TIP3   OH2 4814   5.400   2.306   2.769  0.3979  0.2642  0.0386
 1617TIP3    H1 4815   5.460   2.232   2.774  0.9686  0.5428 -1.7318
 1617TIP3    H2 4816   5.455   2.384   2.780  0.0003  0.4678  0.6521
 1618TIP3   OH2 4817   1.500   5.113   2.642 -0.4253 -0.4474 -0.1325
 1618TIP3    H1 4818   1.554   5.114   2.721  0.4236  0.9092 -0.7093
 1618TIP3    H2 4819   1.413   5.089   2.674  0.2670 -1.6451  0.9514
 1619TIP3   OH2 4820   1.328   5.605   1.534 -0.7785 -0.0304  0.5204
 1619TIP3    H1 4821   1.392   5.598   1.604  0.1603  0.9847 -0.1994
 1619TIP3    H2 4822   1.248   5.636   1.577 -0.3317  0.1978  1.1938
 1620TIP3   OH2 4823   3.130   4.347   1.291 -0.5819  0.0980 -0.0165
 1620TIP3    H1 4824   3.057   4.333   1.230 -0.5859 -1.2415  0.2662
 1620TIP3    H2 4825   3.195   4.281   1.266 -0.0536  0.3720  0.6228
 1621TIP3   OH2 4826   3.696   2.016   3.726 -0.3366 -0.2328  0.1415
 1621TIP3    H1 4827   3.635   2.089   3.734  0.1789  0.1929  0.2647
 1621TIP3    H2 4828   3.769   2.039   3.784 -0.5702 -1.2723  0.8766
 1622TIP3   OH2 4829   6.895   0.732   4.407 -0.3092  0.2416  0.1744
 1622TIP3    H1 4830   6.837   0.698   4.475 -0.0837 -0.7938 -0.1318
 1622TIP3    H2 4831   6.968   0.770   4.455 -0.2144 -0.3658  0.5236
 1623TIP3   OH2 4832   6.753   3.517   2.176 -0.6495  0.1010 -0.4707
 1623TIP3    H1 4833   6.660   3.504   2.158 -0.9386  0.5795  0.5962
 1623TIP3    H2 4834   6.770   3.608   2.152 -0.4844  0.0417 -0.5774
 1624TIP3   OH2 4835   1.242   1.321   4.769  0.2171  0.0258  0.5219
 1624TIP3    H1 4836   1.276   1.269   4.696  0.2980  1.0809 -0.2146
 1624TIP3    H2 4837   1.266   1.270   4.847  0.2374 -1.0616 -0.1613
 1625TIP3   OH2 4838   2.540   0.465   1.115 -0.5570 -0.0040  0.5554
 1625TIP3    H1 4839   2.575   0.383   1.079  0.2741  0.8791 -0.7236
 1625TIP3    H2 4840   2.518   0.443   1.206  3.7442 -0.5774  1.6964
 1626TIP3   OH2 4841   0.304   5.211   2.012 -0.4219  0.6185  0.1473
 1626TIP3    H1 4842   0.380   5.165   1.976 -0.8678  0.6220 -0.8450
 1626TIP3    H2 4843   0.229   5.163   1.978 -0.8810 -0.1982  2.2043
 1627TIP3   OH2 4844   2.438   2.700   1.358  0.5710  0.0098  0.4336
 1627TIP3    H1 4845   2.471   2.762   1.424 -0.5681  2.1577 -0.8740
 1627TIP3    H2 4846   2.516   2.657   1.323  1.4843  1.1527  0.9943
 1628TIP3   OH2 4847   6.265   3.173   2.326  0.4560  0.8354 -0.1398
 1628TIP3    H1 4848   6.187   3.182   2.381  0.4195 -1.5680  0.3167
 1628TIP3    H2 4849   6.330   3.230   2.368 -0.0859  0.3907  1.3991
 1629TIP3   OH2 4850   3.611   3.988   3.860 -0.2996 -0.0644 -0.3273
 1629TIP3    H1 4851   3.596   4.011   3.769 -1.1182  1.3570  0.1331
 1629TIP3    H2 4852   3.601   4.070   3.908  1.9872 -0.4124  0.8658
 1630TIP3   OH2 4853   3.800   6.112   5.098  0.1175  0.3792  0.2869
 1630TIP3    H1 4854   3.881   6.162   5.092 -1.3018  2.6980 -1.1017
 1630TIP3    H2 4855   3.731   6.176   5.081 -1.9573 -1.7191  0.2989
 1631TIP3   OH2 4856   1.528   6.436   4.861 -0.0312 -0.5003  0.2103
 1631TIP3    H1 4857   1.581   6.501   4.816 -2.3876  1.8855  0.6488
 1631TIP3    H2 4858   1.537   6.457   4.954 -0.8584 -0.7517  0.3615
 1632TIP3   OH2 4859   1.053   6.139   5.706  0.1146 -0.1335 -0.1490
 1632TIP3    H1 4860   1.017   6.218   5.665 -2.0906 -0.8346  0.2728
 1632TIP3    H2 4861   1.035   6.070   5.642 -0.5423 -0.7263  0.6582
 1633TIP3   OH2 4862   0.274   0.864   0.638 -0.0749 -0.6820 -0.0466
 1633TIP3    H1 4863   0.213   0.791   0.644  0.0590 -0.7616  0.3861
 1633TIP3    H2 4864   0.231   0.935   0.685 -0.9807  0.0703 -1.9230
 1634TIP3   OH2 4865   1.612   4.936   0.768  0.0959  0.1134 -0.7558
 1634TIP3    H1 4866   1.518   4.945   0.784  0.2893  0.0101  0.5548
 1634TIP3    H2 4867   1.653   4.971   0.847  1.2207  1.5985 -1.9172
 1635TIP3   OH2 4868   0.307   3.707   0.438  0.7731 -0.2598 -0.2576
 1635TIP3    H1 4869   0.401   3.701   0.421  1.2310  0.8313  1.6447
 1635TIP3    H2 4870   0.299   3.772   0.508 -1.2335 -1.5809  0.8364
 1636TIP3   OH2 4871   2.556   5.075   3.052 -0.2828 -0.0143 -0.2393
 1636TIP3    H1 4872   2.588   5.165   3.040 -0.9880  0.8143  3.0176
 1636TIP3    H2 4873   2.634   5.021   3.042  0.7102  1.2472  0.3620
 1637TIP3   OH2 4874   4.259   0.532   1.341 -0.2284  0.5827  0.3252
 1637TIP3    H1 4875   4.277   0.439   1.354 -1.5473  0.1829 -0.5114
 1637TIP3    H2 4876   4.169   0.544   1.371 -0.3513  1.4137 -0.3273
 1638TIP3   OH2 4877   0.230   0.621   1.627 -0.1896  0.1853  0.3572
 1638TIP3    H1 4878   0.155   0.593   1.681  0.8507 -2.4466  0.5725
 1638TIP3    H2 4879   0.265   0.540   1.591  0.2840  1.6958 -2.9015
 1639TIP3   OH2 4880   6.922   2.335   2.992 -0.3137 -0.0191  0.9736
 1639TIP3    H1 4881   6.939   2.414   2.941  1.6581 -0.4651  0.8557
 1639TIP3    H2 4882   6.982   2.269   2.956 -0.3138 -0.9286  2.5255
 1640TIP3   OH2 4883   6.719   5.934   4.484 -0.7108  0.0516 -0.0301
 1640TIP3    H1 4884   6.736   6.023   4.514  0.7114 -0.5307  1.0287
 1640TIP3    H2 4885   6.806   5.901   4.458 -1.1890 -1.0653 -0.2722
 1641TIP3   OH2 4886   6.871   3.193   3.044  0.5984  0.3354  0.0813
 1641TIP3    H1 4887   6.904   3.269   2.996 -0.0843  0.8575  0.4200
 1641TIP3    H2 4888   6.924   3.191   3.124  0.7042  0.3677  0.0132
 1642TIP3   OH2 4889   3.820   3.590   3.258  0.4045  0.1032  0.5891
 1642TIP3    H1 4890   3.814   3.580   3.353 -0.0228 -0.6105  0.4978
 1642TIP3    H2 4891   3.810   3.684   3.242 -1.7205 -0.0063  1.0974
 1643TIP3   OH2 4892   7.151   2.449   2.488 -0.1566 -0.0858  0.5708
 1643TIP3    H1 4893   7.187   2.417   2.570  0.0958  0.2791  0.6049
 1643TIP3    H2 4894   7.225   2.490   2.443 -0.4083  0.1845  0.3986
 1644TIP3   OH2 4895   0.659   2.728   0.255 -0.3574  0.3718 -0.2542
 1644TIP3    H1 4896   0.595   2.766   0.315  0.8036  2.3107 -0.1275
 1644TIP3    H2 4897   0.690   2.649   0.299 -1.6652  0.1310  0.2774
 1645TIP3   OH2 4898   5.397   3.065   2.261 -0.2263 -0.0101 -0.3714
 1645TIP3    H1 4899   5.370   3.009   2.335 -1.7337 -0.5028 -1.2381
 1645TIP3    H2 4900   5.437   3.142   2.302  1.2299 -1.3553  0.8815
 1646TIP3   OH2 4901   2.330   6.308   3.707  0.3183 -0.1663 -0.0063
 1646TIP3    H1 4902   2.308   6.306   3.614 -2.4654  0.8206  0.5314
 1646TIP3    H2 4903   2.311   6.220   3.739 -0.4469 -0.0238 -0.0534
 1647TIP3   OH2 4904   5.190   0.458   0.199 -0.2563 -0.4493  0.0229
 1647TIP3    H1 4905   5.128   0.530   0.188 -1.0746 -1.0806  0.3836
 1647TIP3    H2 4906   5.146   0.383   0.159  0.9547 -0.5766 -1.1414
 1648TIP3   OH2 4907   3.424   4.956   2.244 -0.0141 -0.3037 -0.0887
 1648TIP3    H1 4908   3.415   4.950   2.339 -1.4420  0.6877 -0.1271
 1648TIP3    H2 4909   3.518   4.968   2.229  0.4632 -2.0824  1.0605
 1649TIP3   OH2 4910   1.304   1.579   5.015 -0.2495  0.6742 -0.0213
 1649TIP3    H1 4911   1.383   1.543   5.055  0.3798 -1.7706 -3.0761
 1649TIP3    H2 4912   1.240   1.508   5.021 -0.2467  0.3406 -2.7460
 1650TIP3   OH2 4913   2.602   0.365   2.734 -0.3467  0.5456 -0.2752
 1650TIP3    H1 4914   2.678   0.423   2.744 -0.2489  0.5348 -0.9428
 1650TIP3    H2 4915   2.526   0.424   2.737 -0.4234  0.4265  1.8087
 1651TIP3   OH2 4916   0.567   3.504   2.804  0.3130  0.7062  0.3120
 1651TIP3    H1 4917   0.647   3.537   2.762 -0.2865  0.7993 -0.7829
 1651TIP3    H2 4918   0.569   3.410   2.788 -1.2056  1.0402 -2.2672
 1652TIP3   OH2 4919   6.965   5.967   2.443 -0.1586 -0.0389  0.3878
 1652TIP3    H1 4920   6.969   6.044   2.387 -1.8465  1.3457  2.0845
 1652TIP3    H2 4921   6.959   5.893   2.382 -0.3875  1.2930 -1.2499
 1653TIP3   OH2 4922   1.859   1.750   0.355 -0.1837 -0.2874  0.7656
 1653TIP3    H1 4923   1.902   1.672   0.390  1.9026  0.6562  0.4546
 1653TIP3    H2 4924   1.927   1.794   0.304 -1.1374  1.9970  1.3397
 1654TIP3   OH2 4925   1.048   0.738   1.116  0.5209 -0.2177 -0.2918
 1654TIP3    H1 4926   1.011   0.799   1.052 -0.9539 -2.4193 -1.7067
 1654TIP3    H2 4927   1.132   0.711   1.078  0.7317  0.1942 -0.1272
 1655TIP3   OH2 4928   3.702   4.863   3.443  0.0591 -0.3865 -0.6681
 1655TIP3    H1 4929   3.664   4.932   3.496 -0.4258 -1.1670  0.0178
 1655TIP3    H2 4930   3.633   4.838   3.382 -0.0200 -0.7660 -0.4268
 1656TIP3   OH2 4931   0.447   2.973   2.508  0.0730 -0.1989  0.2192
 1656TIP3    H1 4932   0.456   2.967   2.413 -1.5353  0.1492  0.0153
 1656TIP3    H2 4933   0.356   2.948   2.525  0.2903 -0.0902  1.6526
 1657TIP3   OH2 4934   0.833   0.002   0.728 -0.3048  0.0249  0.3842
 1657TIP3    H1 4935   0.834   0.085   0.682 -1.5385 -0.5015 -0.6628
 1657TIP3    H2 4936   0.763   0.011   0.793  0.4428  0.2556  1.1627
 1658TIP3   OH2 4937   4.356   1.943   5.119  0.3890  0.0395 -0.1436
 1658TIP3    H1 4938   4.440   1.989   5.118  1.1199 -1.2119 -2.2312
 1658TIP3    H2 4939   4.372   1.864   5.170 -0.4748  1.2522  2.1882
 1659TIP3   OH2 4940   1.527   3.308   0.791  0.4495 -0.2994 -0.4961
 1659TIP3    H1 4941   1.548   3.389   0.745  1.6412 -0.7102 -0.7308
 1659TIP3    H2 4942   1.440   3.322   0.827 -0.0902  0.4200 -2.0121
 1660TIP3   OH2 4943   4.870   3.289   1.137  0.2896  0.2193 -0.2741
 1660TIP3    H1 4944   4.823   3.288   1.054 -0.8490  0.8976  0.3314
 1660TIP3    H2 4945   4.850   3.375   1.175 -0.6233 -0.6870  1.4566
 1661TIP3   OH2 4946   2.815   0.290   4.757  0.4770 -0.5243 -0.3414
 1661TIP3    H1 4947   2.798   0.265   4.667 -1.2906 -1.2807  0.1624
 1661TIP3    H2 4948   2.888   0.235   4.784  1.5440  0.2649 -1.5189
 1662TIP3   OH2 4949   4.260   2.583   2.711  0.0258  0.3033  0.0390
 1662TIP3    H1 4950   4.228   2.579   2.801 -0.1048 -1.0163 -0.0470
 1662TIP3    H2 4951   4.355   2.590   2.719  0.0138  0.2019  0.2863
 1663TIP3   OH2 4952   5.675   1.616   2.934 -0.6009 -0.1787  0.3301
 1663TIP3    H1 4953   5.718   1.683   2.881 -0.0815 -0.4153  0.4459
 1663TIP3    H2 4954   5.607   1.664   2.983 -0.1493  0.2912  0.5124
 1664TIP3   OH2 4955   4.285   6.781   1.012  0.1278 -0.7921 -0.2101
 1664TIP3    H1 4956   4.289   6.759   1.105  1.8514  0.9051  0.1933
 1664TIP3    H2 4957   4.376   6.801   0.989 -0.6225  1.4149 -1.5673
 1665TIP3   OH2 4958   2.500   0.237   3.737  0.2513  0.1980 -0.6113
 1665TIP3    H1 4959   2.496   0.267   3.646 -1.1876 -2.3436 -1.5030
 1665TIP3    H2 4960   2.411   0.208   3.755  0.2346  1.6182  2.0467
 1666TIP3   OH2 4961   0.055   5.344   2.306 -0.3018  0.5806  0.1577
 1666TIP3    H1 4962   0.144   5.369   2.329 -0.8053  0.7882  2.0463
 1666TIP3    H2 4963   0.045   5.255   2.341 -0.2870 -0.1697 -1.6421
 1667TIP3   OH2 4964   6.503   2.673   4.538 -0.5921 -0.2875  0.4120
 1667TIP3    H1 4965   6.534   2.588   4.508 -1.2275 -0.2102 -0.4931
 1667TIP3    H2 4966   6.422   2.655   4.586 -1.0778 -0.1401 -0.3390
 1668TIP3   OH2 4967   1.945   4.256   2.566 -0.3226 -0.7249  0.1532
 1668TIP3    H1 4968   2.028   4.301   2.549 -0.1053 -0.0105  2.7276
 1668TIP3    H2 4969   1.878   4.324   2.555 -0.2996 -0.5913  0.8270
 1669TIP3   OH2 4970   2.312   5.512   5.784 -0.4176 -0.0100  0.1132
 1669TIP3    H1 4971   2.261   5.484   5.708 -0.7518  0.7246  0.0639
 1669TIP3    H2 4972   2.385   5.562   5.747  0.0529 -0.6057  0.2149
 1670TIP3   OH2 4973   4.814   1.789   4.600  0.1253  0.1219 -0.6074
 1670TIP3    H1 4974   4.818   1.826   4.511 -0.5318  2.1847  0.1710
 1670TIP3    H2 4975   4.848   1.700   4.590  5.8678  2.0199 -1.9546
 1671TIP3   OH2 4976   3.785   5.866   4.936 -0.0540  0.1472 -0.0650
 1671TIP3    H1 4977   3.692   5.866   4.915  0.0307 -0.5254 -0.4942
 1671TIP3    H2 4978   3.806   5.957   4.955 -1.3163  0.0108  2.4155
 1672TIP3   OH2 4979   2.366   6.050   3.730  0.0544 -0.0627 -0.3257
 1672TIP3    H1 4980   2.457   6.030   3.749  0.3800  0.6468 -1.0598
 1672TIP3    H2 4981   2.355   6.026   3.638 -0.8907 -1.4440  0.1196
 1673TIP3   OH2 4982   4.187   4.040   0.244  0.6214 -0.2353 -0.1858
 1673TIP3    H1 4983   4.227   3.954   0.252 -0.0200 -0.6081 -0.9033
 1673TIP3    H2 4984   4.123   4.044   0.315 -0.7841 -1.1677 -1.3418
 1674TIP3   OH2 4985   3.315   4.013   2.545 -0.2166 -0.5256 -0.0928
 1674TIP3    H1 4986   3.252   4.067   2.593 -0.3030 -0.9232  0.2443
 1674TIP3    H2 4987   3.374   4.077   2.503  1.3174 -0.1235  2.4362
 1675TIP3   OH2 4988   6.884   3.481   3.442  0.1601  0.1576 -0.3458
 1675TIP3    H1 4989   6.836   3.554   3.403 -0.2615  0.3450  0.4994
 1675TIP3    H2 4990   6.891   3.503   3.534  1.1851 -0.2544 -0.3140
 1676TIP3   OH2 4991   2.616   6.189   3.245  0.5836 -0.9077  0.1106
 1676TIP3    H1 4992   2.529   6.153   3.225  0.7193 -0.2069 -1.9899
 1676TIP3    H2 4993   2.633   6.250   3.173  3.0452 -1.4295  0.1750
 1677TIP3   OH2 4994   1.524   6.436   1.377 -0.4594  0.0279 -0.1002
 1677TIP3    H1 4995   1.546   6.492   1.302  0.7151 -1.7804 -1.1717
 1677TIP3    H2 4996   1.429   6.432   1.377 -0.4801 -0.0776 -1.6262
 1678TIP3   OH2 4997   1.593   0.944   1.963 -0.0254 -0.4590  0.0186
 1678TIP3    H1 4998   1.537   0.955   1.886  0.9344  1.7086 -0.4581
 1678TIP3    H2 4999   1.597   1.031   2.003  1.0841 -1.0952  1.3951
 1679TIP3   OH2 5000   2.059   2.093   4.018  0.3849  0.2014  0.6463
 1679TIP3    H1 5001   1.969   2.075   3.992  0.2986  0.2449  0.9061
 1679TIP3    H2 5002   2.092   2.154   3.953  0.4265 -0.2921  0.1936
 1680TIP3   OH2 5003   5.727   0.282   1.635 -0.0617  0.2558 -0.0573
 1680TIP3    H1 5004   5.761   0.233   1.560 -0.3525 -1.1625  0.6934
 1680TIP3    H2 5005   5.636   0.251   1.644  0.6974 -1.6329  2.4130
 1681TIP3   OH2 5006   6.414   6.413   4.460 -0.7237 -0.6679  0.3460
 1681TIP3    H1 5007   6.506   6.402   4.485 -0.4544 -1.8014 -1.0053
 1681TIP3    H2 5008   6.405   6.361   4.380 -1.6243  2.3087 -1.6374
 1682TIP3   OH2 5009   6.106   2.780   0.261  0.0759  0.3411  0.1946
 1682TIP3    H1 5010   6.079   2.739   0.179  3.0486 -1.3672 -0.0839
 1682TIP3    H2 5011   6.122   2.871   0.238 -2.5318  0.7650 -0.2070
 1683TIP3   OH2 5012   2.465   1.170   5.257 -0.5198  0.8259  0.1611
 1683TIP3    H1 5013   2.413   1.194   5.180 -2.9180  2.3524  2.1076
 1683TIP3    H2 5014   2.483   1.077   5.245 -0.5444  1.0717 -2.3574
 1684TIP3   OH2 5015   6.696   1.510   0.274  0.5512  0.2104 -0.0228
 1684TIP3    H1 5016   6.633   1.481   0.340  0.9640 -1.5054 -0.3311
 1684TIP3    H2 5017   6.655   1.588   0.235 -0.6541  0.0359  0.8194
 1685TIP3   OH2 5018   2.489   2.825   5.765 -0.4325 -0.0378 -0.2196
 1685TIP3    H1 5019   2.418   2.886   5.785 -2.3731 -2.3089  0.4557
 1685TIP3    H2 5020   2.489   2.818   5.670 -1.9789 -0.8274 -0.2043
 1686TIP3   OH2 5021   0.667   4.359   0.032  0.1337  0.8042 -0.0930
 1686TIP3    H1 5022   0.752   4.392   0.062  1.0447 -1.1843 -0.3854
 1686TIP3    H2 5023   0.680   4.265   0.020 -2.1004  0.4628 -0.2184
 1687TIP3   OH2 5024   3.454   5.664   1.821 -0.0774 -0.2398 -0.3729
 1687TIP3    H1 5025   3.460   5.683   1.728  1.4936 -1.2055 -0.5112
 1687TIP3    H2 5026   3.436   5.570   1.826  0.6275 -0.3605  0.2702
 1688TIP3   OH2 5027   6.568   1.453   1.825  0.5514  0.8180  0.2905
 1688TIP3    H1 5028   6.662   1.450   1.841  0.6474  1.5698 -0.1164
 1688TIP3    H2 5029   6.551   1.543   1.798 -0.1922  0.5374 -0.1983
 1689TIP3   OH2 5030   1.335   6.378   2.615  0.2365 -0.0263  0.7363
 1689TIP3    H1 5031   1.336   6.470   2.644  3.2621  0.5482 -0.8140
 1689TIP3    H2 5032   1.260   6.373   2.556  0.0046  1.4591  0.8611
 1690TIP3   OH2 5033   1.931   4.450   4.961  0.3195 -0.0405  0.4808
 1690TIP3    H1 5034   1.994   4.512   4.999  0.0816  0.9360 -0.6840
 1690TIP3    H2 5035   1.978   4.366   4.960  0.5102 -0.0018  2.4357
 1691TIP3   OH2 5036   3.092   3.549   3.469  0.1508 -0.0198  0.1889
 1691TIP3    H1 5037   3.149   3.625   3.481 -1.0881  0.8459  0.8138
 1691TIP3    H2 5038   3.067   3.524   3.558 -0.0681 -0.6983 -0.0580
 1692TIP3   OH2 5039   5.191   5.122   0.164 -0.2085 -0.1504  0.1154
 1692TIP3    H1 5040   5.139   5.044   0.186  0.4311 -0.4863  0.4932
 1692TIP3    H2 5041   5.179   5.181   0.238 -0.8631  0.1998 -0.2701
 1693TIP3   OH2 5042   6.376   4.270   1.780 -0.2127 -0.3500 -0.9638
 1693TIP3    H1 5043   6.320   4.343   1.753 -2.2117 -1.1782  0.6453
 1693TIP3    H2 5044   6.363   4.204   1.712 -2.6897 -1.1987  0.2047
 1694TIP3   OH2 5045   4.818   3.479   0.680 -0.2623 -0.3481  0.1557
 1694TIP3    H1 5046   4.757   3.552   0.689  1.5802  1.3825 -0.5556
 1694TIP3    H2 5047   4.842   3.479   0.587 -0.7291 -2.3270  0.0021
 1695TIP3   OH2 5048   2.572   4.714   3.267  0.1209 -0.0154 -0.3044
 1695TIP3    H1 5049   2.560   4.808   3.251 -2.0186 -0.2447 -0.4258
 1695TIP3    H2 5050   2.612   4.710   3.353 -2.0123  1.0383  0.8328
 1696TIP3   OH2 5051   2.279   5.176   0.366 -0.4790  0.9958 -0.9812
 1696TIP3    H1 5052   2.325   5.100   0.329  0.8312  1.9814 -1.4743
 1696TIP3    H2 5053   2.255   5.149   0.454 -0.4210 -0.1456 -1.3023
 1697TIP3   OH2 5054   5.399   2.333   5.334 -0.0129  0.4690 -0.0993
 1697TIP3    H1 5055   5.323   2.279   5.353  0.6123 -0.1370  0.7330
 1697TIP3    H2 5056   5.362   2.417   5.307 -0.9751 -0.0092 -0.3272
 1698TIP3   OH2 5057   3.315   4.863   3.081  0.4771 -0.0258  0.2564
 1698TIP3    H1 5058   3.259   4.791   3.050  0.9354 -0.7617  1.0767
 1698TIP3    H2 5059   3.279   4.941   3.039 -0.0633 -0.7240 -0.6216
 1699TIP3   OH2 5060   6.678   1.357   2.980 -0.0901  1.2563 -0.1639
 1699TIP3    H1 5061   6.768   1.368   3.012  0.3097  1.2209 -1.2491
 1699TIP3    H2 5062   6.663   1.263   2.983 -1.0144  1.3974  2.3992
 1700TIP3   OH2 5063   5.286   3.228   4.437  0.4623 -0.0445  0.5005
 1700TIP3    H1 5064   5.301   3.214   4.344 -1.8870  1.0864 -0.1062
 1700TIP3    H2 5065   5.275   3.139   4.473 -0.9537 -0.4224 -0.7708
 1701TIP3   OH2 5066   2.083   1.634   2.124 -0.2759  0.1916  0.1249
 1701TIP3    H1 5067   2.043   1.720   2.115 -0.2707  0.1927  0.1132
 1701TIP3    H2 5068   2.027   1.587   2.186 -0.0213  0.3593  0.4895
 1702TIP3   OH2 5069   1.552   3.963   1.446 -0.1650 -0.1259  0.3920
 1702TIP3    H1 5070   1.476   3.906   1.454 -2.0197  1.8779 -1.4946
 1702TIP3    H2 5071   1.611   3.916   1.387 -1.2896 -0.4558 -0.5038
 1703TIP3   OH2 5072   3.413   5.846   1.610 -0.0401  0.3356 -0.4707
 1703TIP3    H1 5073   3.317   5.849   1.611 -0.1180 -0.8743 -1.5711
 1703TIP3    H2 5074   3.439   5.938   1.619 -1.2773  0.6380  0.3633
 1704TIP3   OH2 5075   1.667   2.741   4.327 -0.6935  0.4580  0.2439
 1704TIP3    H1 5076   1.753   2.725   4.287  0.1474  1.7838  1.4267
 1704TIP3    H2 5077   1.619   2.659   4.314  0.2067  0.1806 -1.7228
 1705TIP3   OH2 5078   4.515   1.040   3.451 -0.4395  0.5858  0.4031
 1705TIP3    H1 5079   4.594   1.007   3.493 -0.7736 -1.2873 -0.3611
 1705TIP3    H2 5080   4.461   0.963   3.437 -2.4212  1.8094  0.8776
 1706TIP3   OH2 5081   5.108   6.253   0.076  0.3737 -0.6320  0.1631
 1706TIP3    H1 5082   5.048   6.238   0.004  1.1723 -1.4033 -0.3642
 1706TIP3    H2 5083   5.189   6.208   0.050  1.1901  0.3889  0.8397
 1707TIP3   OH2 5084   3.590   2.433   5.389  0.0607  0.1570 -1.0878
 1707TIP3    H1 5085   3.611   2.401   5.477  0.8349 -1.2980 -1.7740
 1707TIP3    H2 5086   3.515   2.381   5.361  0.1862  0.1993 -1.5140
 1708TIP3   OH2 5087   3.716   5.703   2.111 -0.0984  0.1717 -0.3482
 1708TIP3    H1 5088   3.648   5.676   2.048  0.8579 -0.7337 -1.0381
 1708TIP3    H2 5089   3.690   5.661   2.193 -0.9490  0.7319 -0.3193
 1709TIP3   OH2 5090   6.054   5.294   5.508  0.0369  0.3287 -0.1484
 1709TIP3    H1 5091   6.135   5.336   5.479  0.3071 -0.5767 -0.7539
 1709TIP3    H2 5092   6.008   5.272   5.427 -0.3649 -0.0199  0.1679
 1710TIP3   OH2 5093   3.891   4.599   4.169 -0.2170 -0.0975 -0.1670
 1710TIP3    H1 5094   3.937   4.675   4.133  1.0822 -0.4747  0.6323
 1710TIP3    H2 5095   3.960   4.534   4.184 -1.2811 -1.4074 -0.7171
 1711TIP3   OH2 5096   1.542   3.582   4.402 -0.0319  0.3145  0.5582
 1711TIP3    H1 5097   1.482   3.634   4.456 -1.3508  0.1781 -0.7136
 1711TIP3    H2 5098   1.533   3.493   4.436  0.0249  0.4161  0.8490
 1712TIP3   OH2 5099   1.414   0.779   1.393 -0.5619 -0.0183  0.0883
 1712TIP3    H1 5100   1.497   0.770   1.439  0.0844 -0.1218 -1.0581
 1712TIP3    H2 5101   1.377   0.690   1.393 -0.1951 -0.1748 -0.2552
 1713TIP3   OH2 5102   5.778   6.446   0.369  0.0512 -0.1226 -0.1989
 1713TIP3    H1 5103   5.770   6.504   0.445  0.8035  1.4161 -1.2435
 1713TIP3    H2 5104   5.730   6.367   0.394 -1.2451  1.0424  1.1854
 1714TIP3   OH2 5105   6.522   1.687   0.111 -0.2989  0.5995 -0.3788
 1714TIP3    H1 5106   6.427   1.691   0.109 -0.3274  1.2129  1.0610
 1714TIP3    H2 5107   6.549   1.771   0.149  0.8041  0.3216 -0.4977
 1715TIP3   OH2 5108   6.416   5.453   5.220  0.2837 -0.1733 -0.1237
 1715TIP3    H1 5109   6.462   5.536   5.226  2.4454 -1.3568  0.6104
 1715TIP3    H2 5110   6.481   5.392   5.185 -1.5715 -1.3520 -1.7392
 1716TIP3   OH2 5111   6.417   4.326   5.501  0.2606 -0.1863 -0.2988
 1716TIP3    H1 5112   6.456   4.251   5.547 -1.3421 -0.7707  0.1550
 1716TIP3    H2 5113   6.427   4.399   5.562  1.4006 -0.1222 -0.5442
 1717TIP3   OH2 5114   4.153   2.532   4.991  0.1448  0.3481  0.7342
 1717TIP3    H1 5115   4.074   2.484   5.017  0.3284  0.6200  1.8585
 1717TIP3    H2 5116   4.129   2.624   4.998  0.3316  0.4256  0.3512
 1718TIP3   OH2 5117   5.286   0.517   3.351  0.0032 -0.2857  0.4744
 1718TIP3    H1 5118   5.360   0.561   3.309 -0.4855 -0.4042 -0.5509
 1718TIP3    H2 5119   5.317   0.428   3.367 -0.0640 -0.4728 -0.3906
 1719TIP3   OH2 5120   1.228   0.133   4.148 -0.1802  0.1888 -0.0716
 1719TIP3    H1 5121   1.213   0.074   4.222 -0.6545 -0.5334 -0.7335
 1719TIP3    H2 5122   1.321   0.123   4.128 -0.3234 -0.5822 -0.3794
 1720TIP3   OH2 5123   0.522   4.885   3.122 -0.3222  0.2958 -0.2053
 1720TIP3    H1 5124   0.521   4.959   3.183 -1.8196  0.6129 -0.5625
 1720TIP3    H2 5125   0.434   4.848   3.128  0.1543 -0.9633 -0.6432
 1721TIP3   OH2 5126   3.543   4.248   2.446  0.5363  0.2802  0.0183
 1721TIP3    H1 5127   3.501   4.330   2.472  0.5726  0.4999 -0.6145
 1721TIP3    H2 5128   3.637   4.268   2.445  0.5257  0.3138 -0.4215
 1722TIP3   OH2 5129   3.269   3.600   0.374  0.3449  0.2480 -0.4535
 1722TIP3    H1 5130   3.206   3.671   0.387  0.5418  0.1582  1.3243
 1722TIP3    H2 5131   3.354   3.643   0.383  0.4784 -0.4141  2.5968
 1723TIP3   OH2 5132   1.404   1.838   5.075 -0.3639  0.3104 -0.6698
 1723TIP3    H1 5133   1.351   1.765   5.043 -0.3212 -0.1671  0.3153
 1723TIP3    H2 5134   1.486   1.798   5.103 -1.5305  0.1307  3.0142
 1724TIP3   OH2 5135   6.623   3.649   0.799 -0.1982  0.1275 -0.1946
 1724TIP3    H1 5136   6.572   3.719   0.759  1.6866  1.1555 -0.9303
 1724TIP3    H2 5137   6.655   3.597   0.725  1.9651  1.0837 -0.0190
 1725TIP3   OH2 5138   5.352   1.894   2.144  0.1537  0.4960 -0.0483
 1725TIP3    H1 5139   5.281   1.914   2.206  0.0006 -0.2347  0.0269
 1725TIP3    H2 5140   5.430   1.933   2.183  0.0006  0.3064  0.4549
 1726TIP3   OH2 5141   3.102   6.529   1.494 -0.0403 -0.5229 -0.1255
 1726TIP3    H1 5142   3.061   6.611   1.467  1.9137  0.3583 -0.6002
 1726TIP3    H2 5143   3.048   6.498   1.567 -1.1692  0.8465 -0.3329
 1727TIP3   OH2 5144   6.495   0.015   0.384 -0.1180  0.2897 -0.4143
 1727TIP3    H1 5145   6.561   0.032   0.316  0.2029  0.6213 -0.0256
 1727TIP3    H2 5146   6.411   0.032   0.341  0.0346 -0.3311 -0.9720
 1728TIP3   OH2 5147   6.469   5.599   3.681 -0.5482  0.3405  0.3634
 1728TIP3    H1 5148   6.502   5.514   3.651 -0.0135  0.2282  1.2365
 1728TIP3    H2 5149   6.402   5.623   3.617  0.1404 -0.1694 -0.5551
 1729TIP3   OH2 5150   5.724   0.930   1.828  0.1016 -0.4182 -0.5052
 1729TIP3    H1 5151   5.816   0.910   1.812  0.4015  1.0026 -0.6464
 1729TIP3    H2 5152   5.714   0.925   1.923  0.3565 -0.4226 -0.4789
 1730TIP3   OH2 5153   0.529   3.568   5.682 -0.1376  0.7694 -0.1252
 1730TIP3    H1 5154   0.484   3.528   5.757  0.6709  0.8244  0.4033
 1730TIP3    H2 5155   0.466   3.630   5.646 -1.1293 -0.3995 -0.4752
 1731TIP3   OH2 5156   2.297   0.248   5.208 -0.0724 -0.1472 -0.0382
 1731TIP3    H1 5157   2.269   0.156   5.199  1.6987 -0.7393  0.1918
 1731TIP3    H2 5158   2.384   0.243   5.247 -0.0145  1.6640  0.1443
 1732TIP3   OH2 5159   4.143   2.837   3.987  0.6168  0.2229  0.4274
 1732TIP3    H1 5160   4.055   2.873   3.974  0.8789  0.0914 -2.3748
 1732TIP3    H2 5161   4.129   2.743   3.994  0.5509  0.0905 -1.0811
 1733TIP3   OH2 5162   4.410   3.659   3.000  0.5445  0.1353  0.2808
 1733TIP3    H1 5163   4.384   3.618   2.918 -2.0088 -0.8664  1.5028
 1733TIP3    H2 5164   4.411   3.753   2.981  0.8223 -0.1188 -1.0717
 1734TIP3   OH2 5165   1.575   5.260   3.272  0.3242  0.0748  0.1358
 1734TIP3    H1 5166   1.622   5.329   3.225  1.7721 -0.4267  0.8020
 1734TIP3    H2 5167   1.624   5.248   3.353 -0.7534 -0.7388  0.6981
 1735TIP3   OH2 5168   5.859   2.050   1.617 -0.2725 -0.0792 -0.1156
 1735TIP3    H1 5169   5.829   2.127   1.569 -0.2094  0.4987  0.7485
 1735TIP3    H2 5170   5.812   2.053   1.700 -0.5607 -1.1999 -0.2252
 1736TIP3   OH2 5171   6.259   4.528   4.499  0.3176  0.1044  0.2450
 1736TIP3    H1 5172   6.166   4.550   4.493  0.6111  1.6816  0.7912
 1736TIP3    H2 5173   6.262   4.446   4.548 -0.8049 -0.3227 -0.3614
 1737TIP3   OH2 5174   4.784   4.021   4.329  0.0487 -0.3970  0.4049
 1737TIP3    H1 5175   4.877   4.006   4.350  0.2735  1.5909  1.0826
 1737TIP3    H2 5176   4.783   4.042   4.236  0.3338 -0.0307  0.4840
 1738TIP3   OH2 5177   4.188   4.865   5.443 -0.2752  0.0662 -0.3587
 1738TIP3    H1 5178   4.208   4.784   5.489 -1.4012 -0.1259 -0.1845
 1738TIP3    H2 5179   4.233   4.856   5.358  0.3503 -0.3376  0.0048
 1739TIP3   OH2 5180   5.866   0.355   2.686 -0.0033 -0.4558 -0.1604
 1739TIP3    H1 5181   5.896   0.339   2.596 -3.5399  0.1129 -1.5747
 1739TIP3    H2 5182   5.848   0.449   2.689  0.6278 -0.3610  1.3890
 1740TIP3   OH2 5183   1.041   4.299   3.448  0.3360  0.4601  0.0263
 1740TIP3    H1 5184   1.059   4.339   3.533  0.7599 -0.0277  0.1723
 1740TIP3    H2 5185   1.008   4.371   3.394  1.4393  1.0916  0.1632
 1741TIP3   OH2 5186   1.803   5.309   0.121  0.2997  0.1168  0.0313
 1741TIP3    H1 5187   1.738   5.315   0.051 -0.9008 -0.7568  1.0153
 1741TIP3    H2 5188   1.841   5.222   0.112 -0.1092 -0.1360  0.6517
 1742TIP3   OH2 5189   5.561   2.406   1.256  0.0464 -0.0353 -0.3836
 1742TIP3    H1 5190   5.470   2.394   1.282 -0.3360  0.9590 -1.1809
 1742TIP3    H2 5191   5.590   2.484   1.303  0.1173  0.3242 -1.0086
 1743TIP3   OH2 5192   7.016   3.197   0.183 -0.7804  0.2414 -0.2575
 1743TIP3    H1 5193   6.968   3.266   0.137 -1.2817  1.0087  1.3551
 1743TIP3    H2 5194   6.949   3.150   0.232 -0.0855  0.4856  0.9727
 1744TIP3   OH2 5195   6.415   5.453   0.970 -0.0485 -0.0823  0.0835
 1744TIP3    H1 5196   6.426   5.507   1.049 -0.7128 -0.1894  0.2606
 1744TIP3    H2 5197   6.477   5.382   0.980  0.0008  0.0072  0.4279
 1745TIP3   OH2 5198   4.432   5.755   0.116  0.4955 -0.7064 -0.2972
 1745TIP3    H1 5199   4.352   5.738   0.067 -0.2503  1.3888  0.0786
 1745TIP3    H2 5200   4.402   5.779   0.204  1.4456  0.8450 -0.3459
 1746TIP3   OH2 5201   3.200   4.271   0.027 -0.0256 -0.2325  0.2896
 1746TIP3    H1 5202   3.177   4.183   0.058 -2.0411 -0.3459 -1.3127
 1746TIP3    H2 5203   3.119   4.322   0.039  0.7095  1.0516 -0.0669
 1747TIP3   OH2 5204   0.829   1.628   3.865  0.1321  0.1117 -0.1281
 1747TIP3    H1 5205   0.874   1.665   3.940  0.7136  0.7506 -0.7768
 1747TIP3    H2 5206   0.822   1.700   3.803 -0.7786 -0.2718 -0.5008
 1748TIP3   OH2 5207   1.514   0.625   5.218  0.1270  0.2103  0.3032
 1748TIP3    H1 5208   1.449   0.555   5.223  0.7239 -0.3381  0.4242
 1748TIP3    H2 5209   1.578   0.595   5.154 -0.7232  1.5938 -1.2822
 1749TIP3   OH2 5210   0.362   0.576   1.086 -0.2825 -0.2848 -0.0477
 1749TIP3    H1 5211   0.287   0.600   1.141  0.7216 -0.4582  1.4528
 1749TIP3    H2 5212   0.439   0.592   1.141  0.6545 -2.8227 -0.4583
 1750TIP3   OH2 5213   6.231   4.353   4.928  0.5074 -0.7295 -0.0219
 1750TIP3    H1 5214   6.308   4.409   4.928  0.3515 -0.4856  1.3622
 1750TIP3    H2 5215   6.229   4.314   5.016 -1.3588 -0.1442  0.2474
 1751TIP3   OH2 5216   4.352   5.681   2.065  0.4196  0.5722 -0.1888
 1751TIP3    H1 5217   4.444   5.706   2.061  0.8479 -1.0516 -1.5265
 1751TIP3    H2 5218   4.338   5.629   1.986 -1.7954  1.2345 -0.2956
 1752TIP3   OH2 5219  -0.001   2.858   2.399  0.0362  0.0915  1.0713
 1752TIP3    H1 5220   0.023   2.766   2.385 -1.4385 -0.2366  0.5057
 1752TIP3    H2 5221   0.030   2.903   2.320  0.2449 -0.0383  1.0797
 1753TIP3   OH2 5222   1.174   0.635   5.348 -0.0918  0.4884 -0.0993
 1753TIP3    H1 5223   1.265   0.653   5.324 -0.0592  0.0245 -0.3313
 1753TIP3    H2 5224   1.132   0.721   5.349  0.0683  0.5888 -1.1663
 1754TIP3   OH2 5225   1.670   3.426   3.447  0.0604  0.3555  0.3231
 1754TIP3    H1 5226   1.756   3.466   3.454 -0.0432  0.5987  0.2065
 1754TIP3    H2 5227   1.612   3.498   3.422  0.1291 -0.1500 -1.4227
 1755TIP3   OH2 5228   3.150   5.628   2.636  0.2861 -0.0692 -0.5155
 1755TIP3    H1 5229   3.136   5.685   2.560 -2.7506 -0.7700 -0.6294
 1755TIP3    H2 5230   3.108   5.545   2.612 -2.0994  0.1237  2.3363
 1756TIP3   OH2 5231   0.617   6.190   2.706  0.4015 -0.1278  0.3500
 1756TIP3    H1 5232   0.546   6.226   2.654  0.9254 -0.5808 -0.7246
 1756TIP3    H2 5233   0.611   6.095   2.692 -0.2264 -0.3940  2.1675
 1757TIP3   OH2 5234   0.431   2.122   4.841 -0.0636  0.6230 -0.2637
 1757TIP3    H1 5235   0.520   2.087   4.844  0.5350  2.0839  0.2313
 1757TIP3    H2 5236   0.393   2.084   4.762  1.7343  1.5932 -1.6702
 1758TIP3   OH2 5237   1.606   0.314   0.131  0.0724  0.1777 -0.2846
 1758TIP3    H1 5238   1.674   0.369   0.169  0.3238  0.7053 -1.4500
 1758TIP3    H2 5239   1.627   0.226   0.162  0.3703  0.5506  0.6200
 1759TIP3   OH2 5240   6.958   2.770   3.080  0.4157  0.3310 -0.4590
 1759TIP3    H1 5241   6.918   2.776   3.167  0.2666  0.4604 -0.5360
 1759TIP3    H2 5242   6.884   2.772   3.019  0.5594  4.8193 -0.8542
 1760TIP3   OH2 5243   5.106   0.921   5.026 -0.4059 -0.1526 -0.4611
 1760TIP3    H1 5244   5.173   0.870   5.072 -0.5588  2.3232  2.8304
 1760TIP3    H2 5245   5.032   0.922   5.085 -1.0452  2.3686 -1.2038
 1761TIP3   OH2 5246   4.205   2.089   1.027 -0.1754 -0.2021 -0.3202
 1761TIP3    H1 5247   4.169   2.011   0.985  1.1200 -0.4000 -1.1344
 1761TIP3    H2 5248   4.273   2.055   1.085  1.4642  0.3727 -1.8266
 1762TIP3   OH2 5249   3.985   4.629   5.171  0.5750  0.0047  0.2165
 1762TIP3    H1 5250   3.892   4.637   5.150  0.6159  0.2370  0.1188
 1762TIP3    H2 5251   3.987   4.620   5.266  0.5419  1.5777  0.3888
 1763TIP3   OH2 5252   3.135   5.930   0.006 -0.5362  0.2809  0.1456
 1763TIP3    H1 5253   3.136   5.841   0.040 -1.1218 -0.3805 -1.4690
 1763TIP3    H2 5254   3.057   5.970   0.046  0.0141  0.2637  1.2777
 1764TIP3   OH2 5255   6.634   1.226   5.769 -0.1219 -0.2359  0.3266
 1764TIP3    H1 5256   6.596   1.295   5.714  0.0361 -0.6495 -0.3062
 1764TIP3    H2 5257   6.685   1.274   5.835  1.2692  0.2403 -1.0389
 1765TIP3   OH2 5258   6.426   2.941   4.539 -0.3037 -0.4733 -0.0697
 1765TIP3    H1 5259   6.458   2.982   4.459 -0.9820  0.3478  0.0729
 1765TIP3    H2 5260   6.448   2.848   4.529 -0.1120 -0.3270 -1.0665
 1766TIP3   OH2 5261   6.887   0.930   5.111  0.6199 -0.0003  0.0901
 1766TIP3    H1 5262   6.963   0.882   5.078  0.2435  0.0275 -0.8366
 1766TIP3    H2 5263   6.871   0.893   5.198  0.2407 -1.6835 -0.6525
 1767TIP3   OH2 5264   5.700   1.299   2.515  0.0101  0.0781 -0.0900
 1767TIP3    H1 5265   5.718   1.207   2.497 -0.9083 -0.0554 -0.3337
 1767TIP3    H2 5266   5.747   1.316   2.597 -0.8854 -0.9628  0.6636
 1768TIP3   OH2 5267   6.020   6.058   3.989  0.1364  0.2218 -0.1769
 1768TIP3    H1 5268   6.000   6.146   4.021  0.5665  0.1080  0.4039
 1768TIP3    H2 5269   5.952   6.003   4.028 -0.8106  0.4505 -1.4274
 1769TIP3   OH2 5270   6.143   3.801   2.954 -0.0210 -0.1811 -0.0128
 1769TIP3    H1 5271   6.228   3.805   2.911  0.4654 -0.4037  0.8903
 1769TIP3    H2 5272   6.141   3.715   2.996 -0.7840 -0.2675 -0.2010
 1770TIP3   OH2 5273   0.968   2.856   1.039  0.1646 -0.4118 -0.1688
 1770TIP3    H1 5274   0.899   2.800   1.073  1.0196 -0.3745  1.7706
 1770TIP3    H2 5275   0.925   2.940   1.022 -0.3151 -0.4114  0.9549
 1771TIP3   OH2 5276   4.933   4.996   5.722  0.1841 -0.0868  0.1512
 1771TIP3    H1 5277   4.876   5.065   5.757  0.0970 -0.4332  0.7025
 1771TIP3    H2 5278   4.998   5.043   5.670  0.4859  0.4618  1.0091
 1772TIP3   OH2 5279   6.654   4.861   1.257  0.2447 -0.0475  0.3578
 1772TIP3    H1 5280   6.730   4.894   1.210 -0.1407  0.9559  0.4025
 1772TIP3    H2 5281   6.627   4.783   1.209  0.5511  0.3088 -0.3984
 1773TIP3   OH2 5282   5.454   1.902   1.645  0.4929  0.5163 -0.1971
 1773TIP3    H1 5283   5.530   1.924   1.592  0.8291 -2.4718 -1.1407
 1773TIP3    H2 5284   5.487   1.901   1.735  2.0896 -2.1011 -0.6835
 1774TIP3   OH2 5285   6.961   3.504   0.245 -0.1341 -0.4601  0.2222
 1774TIP3    H1 5286   7.022   3.550   0.188 -0.3876 -0.1450  0.2012
 1774TIP3    H2 5287   6.892   3.473   0.186  0.6591 -1.9793  0.0290
 1775TIP3   OH2 5288   5.300   1.385   1.439  0.3304 -0.3328 -0.0121
 1775TIP3    H1 5289   5.215   1.342   1.431  0.8100 -1.3842  0.3349
 1775TIP3    H2 5290   5.303   1.414   1.531  0.1136  0.2294 -0.1784
 1776TIP3   OH2 5291   5.930   0.710   4.005  0.2607  0.0976 -0.2419
 1776TIP3    H1 5292   5.851   0.667   3.973  1.1111 -1.6624 -0.0915
 1776TIP3    H2 5293   5.993   0.639   4.018  0.8580  1.0122  2.7222
 1777TIP3   OH2 5294   1.995   5.868   1.720 -0.4494  0.2234 -0.1677
 1777TIP3    H1 5295   2.038   5.785   1.742  0.6665  1.3703  2.4840
 1777TIP3    H2 5296   1.903   5.854   1.745 -0.5065 -0.5584 -0.7928
 1778TIP3   OH2 5297   5.436   5.997   4.039 -0.4070  0.6184 -0.4133
 1778TIP3    H1 5298   5.441   5.937   4.113  0.8918 -2.0746 -2.5143
 1778TIP3    H2 5299   5.512   6.055   4.050  1.7045 -1.7984 -1.1193
 1779TIP3   OH2 5300   0.099   5.812   0.450  0.0074  0.3864  0.2365
 1779TIP3    H1 5301   0.133   5.863   0.523  0.9247  0.2834 -0.1149
 1779TIP3    H2 5302   0.076   5.728   0.488  0.7868  0.2219  0.3448
 1780TIP3   OH2 5303   4.962   3.312   1.885 -0.0900 -0.4380 -0.4257
 1780TIP3    H1 5304   4.902   3.383   1.907  0.3902  0.0651 -0.7159
 1780TIP3    H2 5305   4.906   3.234   1.882 -0.6946 -0.0164 -0.4789
 1781TIP3   OH2 5306   2.308   4.658   3.250 -0.2837 -0.7893  0.0557
 1781TIP3    H1 5307   2.266   4.636   3.334 -0.4728 -0.3838  0.0700
 1781TIP3    H2 5308   2.393   4.694   3.275 -0.0501 -1.3203  0.0404
 1782TIP3   OH2 5309   5.018   4.935   0.303 -0.4940  0.3784 -0.0729
 1782TIP3    H1 5310   4.985   4.962   0.389 -1.3078  3.7785 -1.2937
 1782TIP3    H2 5311   4.946   4.884   0.265 -0.1320 -1.1425  1.1804
 1783TIP3   OH2 5312   4.520   2.213   0.123  0.2797  0.5094  0.4023
 1783TIP3    H1 5313   4.531   2.180   0.213 -0.1110 -3.1037 -0.7175
 1783TIP3    H2 5314   4.425   2.220   0.111  0.3486  1.6699  0.4613
 1784TIP3   OH2 5315   3.028   0.058   4.834 -1.0429 -0.2731 -0.5457
 1784TIP3    H1 5316   3.027   0.019   4.922 -0.6874  0.2736 -0.2925
 1784TIP3    H2 5317   2.959   0.011   4.786  1.3453 -3.4097 -1.2449
 1785TIP3   OH2 5318   4.248   3.948   5.769  0.2903 -0.0403 -0.5473
 1785TIP3    H1 5319   4.210   4.024   5.814 -0.8419 -0.6409 -0.4532
 1785TIP3    H2 5320   4.247   3.878   5.834  0.1506 -0.4809 -1.0137
 1786TIP3   OH2 5321   7.143   3.820   2.642  0.5393  0.1659  0.1106
 1786TIP3    H1 5322   7.148   3.740   2.590  1.1305 -0.7701  1.5447
 1786TIP3    H2 5323   7.067   3.867   2.607  0.8952 -0.4308 -1.5420
 1787TIP3   OH2 5324   1.856   0.182   4.513 -0.0273  0.0614  0.0645
 1787TIP3    H1 5325   1.824   0.222   4.594 -3.2499 -2.3185  0.1852
 1787TIP3    H2 5326   1.821   0.238   4.443 -0.1028  0.2914  0.2860
 1788TIP3   OH2 5327   1.036   2.960   2.544 -0.6622 -0.0953  0.1030
 1788TIP3    H1 5328   1.130   2.968   2.560 -0.9360  1.2338  1.2407
 1788TIP3    H2 5329   1.019   2.866   2.547  0.5154 -0.3079  0.5905
 1789TIP3   OH2 5330   4.778   0.378   3.210 -0.0242  0.1972 -0.3840
 1789TIP3    H1 5331   4.853   0.319   3.215 -0.1030  0.1405  0.4315
 1789TIP3    H2 5332   4.737   0.359   3.126 -0.6137 -1.6467  0.2589
 1790TIP3   OH2 5333   4.722   0.637   3.692 -0.1176  0.1641 -0.1561
 1790TIP3    H1 5334   4.663   0.712   3.693  0.2127  0.4330 -0.6180
 1790TIP3    H2 5335   4.801   0.669   3.649  0.7511  0.0938  1.3226
 1791TIP3   OH2 5336   3.423   1.556   0.528  0.4434  0.4532  0.2158
 1791TIP3    H1 5337   3.434   1.587   0.617 -0.8155  1.2559  0.1151
 1791TIP3    H2 5338   3.512   1.534   0.499  0.9529  0.8638  1.4105
 1792TIP3   OH2 5339   5.531   1.721   3.440 -0.0994 -0.2893  0.1435
 1792TIP3    H1 5340   5.550   1.795   3.383  1.3042 -0.6164  0.1501
 1792TIP3    H2 5341   5.531   1.758   3.529  0.2794 -0.2440  0.1241
 1793TIP3   OH2 5342   4.733   4.567   0.437  0.4020  0.0706 -0.0945
 1793TIP3    H1 5343   4.750   4.479   0.471  1.5623  0.1329 -0.4775
 1793TIP3    H2 5344   4.705   4.552   0.346  0.1750  0.0708 -0.0243
 1794TIP3   OH2 5345   1.473   5.309   1.608  0.2596 -0.5821 -0.0079
 1794TIP3    H1 5346   1.397   5.251   1.603 -0.5397  0.4846 -0.6151
 1794TIP3    H2 5347   1.547   5.250   1.625 -0.9433 -1.4512  2.7522
 1795TIP3   OH2 5348   2.059   4.039   4.836 -0.1602  0.1082 -0.5249
 1795TIP3    H1 5349   2.109   3.979   4.780  1.3254  0.1714  0.6494
 1795TIP3    H2 5350   2.035   4.112   4.779  0.3511 -0.3468 -1.3390
 1796TIP3   OH2 5351   5.581   6.219   0.423 -0.5379 -0.0388  0.0100
 1796TIP3    H1 5352   5.533   6.295   0.455 -1.4691 -0.2245 -0.8835
 1796TIP3    H2 5353   5.516   6.168   0.375  0.0477 -1.4373  0.6436
 1797TIP3   OH2 5354   6.652   1.268   4.344 -0.3612 -0.2993 -0.0508
 1797TIP3    H1 5355   6.660   1.173   4.333 -2.5340 -0.3079 -2.3773
 1797TIP3    H2 5356   6.673   1.304   4.258 -1.1786  1.1992  0.3466
 1798TIP3   OH2 5357   3.772   3.876   1.818  0.1327 -0.5129 -0.3502
 1798TIP3    H1 5358   3.834   3.876   1.745  0.9207 -0.1733  0.2973
 1798TIP3    H2 5359   3.691   3.843   1.781  0.8002 -1.3253 -1.1383
 1799TIP3   OH2 5360   2.197   2.483   0.283 -0.2621 -0.1339 -0.4995
 1799TIP3    H1 5361   2.136   2.544   0.325 -0.1375  1.0023 -1.8609
 1799TIP3    H2 5362   2.191   2.403   0.335 -1.3017  0.6580  0.6703
 1800TIP3   OH2 5363   5.788   3.796   4.496  0.2467  0.0616  0.0184
 1800TIP3    H1 5364   5.750   3.783   4.409  2.1219 -0.0069 -0.8426
 1800TIP3    H2 5365   5.758   3.883   4.522  1.2683  0.9663 -1.6315
 1801TIP3   OH2 5366   5.929   2.782   0.744  0.3348 -0.0897 -0.2374
 1801TIP3    H1 5367   5.838   2.812   0.747  0.4227  0.1448  0.2265
 1801TIP3    H2 5368   5.969   2.836   0.676  0.6565  1.3644  1.0334
 1802TIP3   OH2 5369   1.754   1.759   1.965  0.3274  0.1899  0.1510
 1802TIP3    H1 5370   1.782   1.817   1.894  2.3356  0.5506  1.1467
 1802TIP3    H2 5371   1.689   1.702   1.926  0.0347  1.5770 -1.4815
 1803TIP3   OH2 5372   3.405   0.452   3.318  0.4920 -0.4784 -0.1597
 1803TIP3    H1 5373   3.414   0.514   3.391  3.4951 -0.3396 -0.5356
 1803TIP3    H2 5374   3.328   0.483   3.270  0.3759  1.3884  1.1067
 1804TIP3   OH2 5375   4.192   5.418   0.354 -0.3664 -0.1634 -0.1076
 1804TIP3    H1 5376   4.161   5.442   0.267  0.8308  2.2056  0.0465
 1804TIP3    H2 5377   4.114   5.421   0.409 -1.5422 -3.5615 -1.2897
 1805TIP3   OH2 5378   4.383   2.369   5.018 -0.3467  0.0803 -0.1636
 1805TIP3    H1 5379   4.325   2.421   4.963 -1.7082  0.8955  1.9017
 1805TIP3    H2 5380   4.332   2.290   5.040  0.8165 -1.0571 -1.3789
 1806TIP3   OH2 5381   4.619   4.783   2.806  0.3888  0.3457 -0.2149
 1806TIP3    H1 5382   4.577   4.737   2.734 -0.4646  2.3219 -1.0834
 1806TIP3    H2 5383   4.679   4.720   2.845 -1.5332 -1.8183 -0.5528
 1807TIP3   OH2 5384   2.962   5.945   0.690 -0.5716 -0.0922 -0.0633
 1807TIP3    H1 5385   3.047   5.987   0.704 -0.3358 -0.8312  0.7834
 1807TIP3    H2 5386   2.941   5.904   0.774 -1.0826 -1.1414 -0.6912
 1808TIP3   OH2 5387   1.454   2.810   1.275 -0.4106  0.5780 -0.3726
 1808TIP3    H1 5388   1.456   2.723   1.314  0.6063  0.8801  0.2817
 1808TIP3    H2 5389   1.410   2.797   1.191 -0.9179 -0.4281  0.0324
 1809TIP3   OH2 5390   0.201   0.289   0.027 -0.2535 -0.6299  0.0161
 1809TIP3    H1 5391   0.144   0.229   0.074 -0.3761  0.0928  0.8075
 1809TIP3    H2 5392   0.142   0.338  -0.030 -0.5302  0.5077  1.2422
 1810TIP3   OH2 5393   0.619  -0.010   4.204  0.3493  0.1476  0.5381
 1810TIP3    H1 5394   0.714  -0.002   4.199  0.3140  0.6436  0.6065
 1810TIP3    H2 5395   0.586   0.048   4.136  0.1077 -0.5521  0.0492
 1811TIP3   OH2 5396   6.218   4.683   1.234 -0.0493  0.4497  0.0815
 1811TIP3    H1 5397   6.229   4.671   1.140  0.5029 -0.1046  0.2068
 1811TIP3    H2 5398   6.287   4.745   1.259  0.2995  0.0137  0.2323
 1812TIP3   OH2 5399  -0.004   2.241   0.434  0.1163 -0.3540  0.1073
 1812TIP3    H1 5400   0.065   2.177   0.418  0.6860  0.3673 -0.3166
 1812TIP3    H2 5401  -0.022   2.280   0.349 -1.5823 -1.2837 -0.0076
 1813TIP3   OH2 5402   3.043   3.348   1.309  0.0237 -0.7254  0.0547
 1813TIP3    H1 5403   3.047   3.396   1.392  0.1134 -1.4278  0.4721
 1813TIP3    H2 5404   2.950   3.353   1.284  0.0848 -0.1029 -0.0530
 1814TIP3   OH2 5405   0.111   6.563   3.968 -0.5730  0.0531 -0.9237
 1814TIP3    H1 5406   0.116   6.531   3.878  0.1531 -2.0089 -0.1968
 1814TIP3    H2 5407   0.188   6.526   4.011 -0.9565  0.9331  0.5893
 1815TIP3   OH2 5408   6.881   2.281   5.757 -0.3336  0.0581  0.2897
 1815TIP3    H1 5409   6.814   2.337   5.797  1.1880  1.4751  0.9690
 1815TIP3    H2 5410   6.832   2.224   5.697 -2.4470 -0.7972  2.6821
 1816TIP3   OH2 5411   6.480   1.804   3.548 -0.1070 -0.3559 -0.6145
 1816TIP3    H1 5412   6.571   1.817   3.522 -0.0570 -1.5490 -1.0757
 1816TIP3    H2 5413   6.456   1.886   3.592  1.3577 -0.2300  0.0086
 1817TIP3   OH2 5414   5.932   5.275   2.244 -0.1991 -0.6006  0.0897
 1817TIP3    H1 5415   5.893   5.360   2.224  1.2173  0.3541  1.1937
 1817TIP3    H2 5416   5.857   5.218   2.262 -1.1620  0.5003 -0.2947
 1818TIP3   OH2 5417   0.682   0.559   5.227 -0.0816 -0.0230 -0.0208
 1818TIP3    H1 5418   0.777   0.548   5.239 -0.4134 -0.9481  2.1411
 1818TIP3    H2 5419   0.669   0.550   5.132  1.8991 -0.5359 -0.2934
 1819TIP3   OH2 5420   1.754   2.224   3.115 -0.2550 -0.3517  0.0268
 1819TIP3    H1 5421   1.849   2.224   3.124 -0.2690 -1.4601  0.2769
 1819TIP3    H2 5422   1.728   2.133   3.128 -1.4065  0.0246  0.5227
 1820TIP3   OH2 5423   5.744   2.096   1.871  0.0900  0.4006 -0.6281
 1820TIP3    H1 5424   5.742   2.002   1.892 -0.1727  0.7219  0.8598
 1820TIP3    H2 5425   5.794   2.135   1.942 -0.5854  1.5162 -0.7531
 1821TIP3   OH2 5426   4.709   0.724   2.207  0.1955 -0.2337  0.3031
 1821TIP3    H1 5427   4.723   0.634   2.177 -0.7734 -0.4678  0.5009
 1821TIP3    H2 5428   4.641   0.758   2.149  1.0384  0.6060 -0.2018
 1822TIP3   OH2 5429   2.032   2.565   1.582 -0.5932 -0.1336  0.7566
 1822TIP3    H1 5430   2.082   2.519   1.650 -2.1507  0.1004  2.1349
 1822TIP3    H2 5431   1.945   2.577   1.621 -1.1690  1.1250 -0.8229
 1823TIP3   OH2 5432   5.959   4.923   5.050 -0.2595  0.3229 -0.4308
 1823TIP3    H1 5433   5.951   4.951   4.959 -1.5342 -0.4063 -0.5696
 1823TIP3    H2 5434   5.997   4.998   5.095 -1.8568  1.6099 -1.1224
 1824TIP3   OH2 5435   6.992   1.472   3.753 -0.1814  0.3199 -0.5326
 1824TIP3    H1 5436   7.063   1.511   3.702 -0.4061  0.5335 -0.6844
 1824TIP3    H2 5437   6.969   1.540   3.817  0.4272 -0.1267  0.1822
 1825TIP3   OH2 5438   5.606   3.394   0.741  0.4958 -0.4767 -0.6676
 1825TIP3    H1 5439   5.666   3.455   0.699  1.9795 -1.1673  0.3917
 1825TIP3    H2 5440   5.580   3.334   0.670 -0.2681  0.7934 -1.5041
 1826TIP3   OH2 5441   4.013   6.068   4.378  0.1244 -0.2497 -0.2952
 1826TIP3    H1 5442   3.921   6.072   4.405 -0.2602 -2.6154 -0.9732
 1826TIP3    H2 5443   4.059   6.124   4.441 -1.5422 -0.4472  1.1931
 1827TIP3   OH2 5444   5.579   2.036   0.145  0.3022 -0.7225 -0.3023
 1827TIP3    H1 5445   5.650   2.042   0.081 -0.1059 -0.4537 -0.7344
 1827TIP3    H2 5446   5.510   2.093   0.111 -0.1187 -0.9637  0.1227
 1828TIP3   OH2 5447   5.339   1.363   3.112  0.2590 -0.3388 -0.6265
 1828TIP3    H1 5448   5.255   1.408   3.103  1.4006  1.7797 -1.3750
 1828TIP3    H2 5449   5.395   1.402   3.045  2.4595 -0.1401  1.1881
 1829TIP3   OH2 5450   1.787   0.385   2.745  0.0748  0.2355  0.0397
 1829TIP3    H1 5451   1.825   0.425   2.667 -1.2233  0.9947 -0.2390
 1829TIP3    H2 5452   1.722   0.323   2.710  0.6660 -0.6538  0.5024
 1830TIP3   OH2 5453   4.249   0.826   1.259 -0.2099  0.5587 -0.1760
 1830TIP3    H1 5454   4.260   0.731   1.249 -0.0732  0.7108 -1.6102
 1830TIP3    H2 5455   4.200   0.853   1.182 -1.9230  1.4071  1.1223
 1831TIP3   OH2 5456   7.163   0.453   2.935  0.3179  0.0677 -0.3047
 1831TIP3    H1 5457   7.231   0.518   2.915 -1.0096  1.4785 -0.4553
 1831TIP3    H2 5458   7.081   0.500   2.919 -0.6962 -1.5595 -0.0420
 1832TIP3   OH2 5459   2.281   5.872   2.118 -0.1803  0.3192 -0.0194
 1832TIP3    H1 5460   2.367   5.912   2.104 -0.3752  0.7235 -0.0511
 1832TIP3    H2 5461   2.221   5.945   2.129 -0.3164  0.0255  1.3023
 1833TIP3   OH2 5462   0.912   6.702   2.627  0.5788  0.0202  0.0567
 1833TIP3    H1 5463   0.957   6.678   2.708  1.6882  0.8142 -0.3039
 1833TIP3    H2 5464   0.971   6.676   2.557 -0.8158 -1.5939 -0.5878
 1834TIP3   OH2 5465   3.453   6.641   3.388 -0.0113  0.3129  0.0776
 1834TIP3    H1 5466   3.376   6.586   3.371  0.8032 -0.8722  0.1271
 1834TIP3    H2 5467   3.505   6.634   3.309  1.0820 -0.6653  0.8552
 1835TIP3   OH2 5468   5.346   3.964   3.090 -0.2057 -0.7126  0.2516
 1835TIP3    H1 5469   5.372   3.920   3.171  0.5166 -2.6132 -0.9384
 1835TIP3    H2 5470   5.254   3.987   3.104  0.2275  0.0941  2.0335
 1836TIP3   OH2 5471   4.183   1.322   5.128  0.4362 -0.2684  0.0500
 1836TIP3    H1 5472   4.110   1.262   5.119 -1.2443  1.5249  0.9924
 1836TIP3    H2 5473   4.157   1.400   5.079  0.7362  1.1993  2.0874
 1837TIP3   OH2 5474   4.022   4.924   0.087  0.0843 -0.5651 -0.1215
 1837TIP3    H1 5475   4.098   4.971   0.121 -0.7236  1.8541 -1.3803
 1837TIP3    H2 5476   3.947   4.973   0.120 -0.7843 -0.3833 -2.2052
 1838TIP3   OH2 5477   6.720   2.889   1.778 -0.6084 -0.7131 -0.3811
 1838TIP3    H1 5478   6.804   2.868   1.735 -1.4396 -0.8758 -1.9998
 1838TIP3    H2 5479   6.654   2.871   1.711 -1.7519  2.3256 -0.2183
 1839TIP3   OH2 5480   6.936   4.042   2.765  0.1605  0.3730  0.0266
 1839TIP3    H1 5481   6.868   4.099   2.801  1.7113  1.4208  1.4764
 1839TIP3    H2 5482   7.016   4.095   2.768  1.2846 -1.2041 -0.4891
 1840TIP3   OH2 5483   2.112   4.500   0.619 -0.1298 -0.4601  0.1732
 1840TIP3    H1 5484   2.039   4.546   0.661  1.2498  1.6770  0.4278
 1840TIP3    H2 5485   2.158   4.569   0.570  1.0127 -1.9741 -0.9807
 1841TIP3   OH2 5486   5.996   2.973   5.664 -0.6968  0.0900  0.0261
 1841TIP3    H1 5487   5.955   2.888   5.644 -0.3202  0.0247 -0.4877
 1841TIP3    H2 5488   5.950   3.036   5.610  1.1231 -0.2587 -2.0825
 1842TIP3   OH2 5489   5.201   3.395   4.088 -0.9322 -0.1398 -0.8078
 1842TIP3    H1 5490   5.147   3.320   4.064 -1.8154 -0.0896  0.8561
 1842TIP3    H2 5491   5.236   3.372   4.174 -1.5112  1.4653 -0.1014
 1843TIP3   OH2 5492   2.661   1.210   1.158 -0.0637  0.0273 -0.3298
 1843TIP3    H1 5493   2.625   1.131   1.116  0.5550  0.5299 -1.8732
 1843TIP3    H2 5494   2.586   1.250   1.202 -0.2089 -1.9093  1.3492
 1844TIP3   OH2 5495   0.159   1.573   1.763 -0.3633 -0.1857  0.2874
 1844TIP3    H1 5496   0.156   1.669   1.767  1.9924 -0.0704  0.4381
 1844TIP3    H2 5497   0.109   1.551   1.684  0.5954  1.3088 -0.8011
 1845TIP3   OH2 5498   1.055   2.881   2.930  0.4226  0.5063 -0.3070
 1845TIP3    H1 5499   1.050   2.882   3.026 -0.3998 -1.3567 -0.2931
 1845TIP3    H2 5500   0.967   2.857   2.902  1.3669 -1.9482 -1.3984
 1846TIP3   OH2 5501   4.872   6.082   5.547  0.2207  0.0371 -1.2427
 1846TIP3    H1 5502   4.799   6.023   5.567  1.2135 -1.4763 -1.8971
 1846TIP3    H2 5503   4.864   6.152   5.611 -1.0178 -0.7933 -0.4373
 1847TIP3   OH2 5504   6.492   5.691   5.471  0.8464  0.1597 -0.4470
 1847TIP3    H1 5505   6.454   5.769   5.510  1.3491  0.4483 -0.5257
 1847TIP3    H2 5506   6.479   5.702   5.376  2.5832  1.0730 -0.6241
 1848TIP3   OH2 5507   3.368   3.256   1.965  0.3270  0.5070  0.0342
 1848TIP3    H1 5508   3.370   3.277   2.058  4.0525 -2.1951  0.7885
 1848TIP3    H2 5509   3.454   3.284   1.932  0.4813 -1.7010 -1.6967
 1849TIP3   OH2 5510   0.837   3.774   5.165  0.4222  0.2554  0.4458
 1849TIP3    H1 5511   0.806   3.718   5.094 -0.3872  0.5051  0.5868
 1849TIP3    H2 5512   0.807   3.862   5.142  1.4764  0.6058  0.3457
 1850TIP3   OH2 5513   1.229   1.608   0.491 -0.1320  0.5843  0.1251
 1850TIP3    H1 5514   1.310   1.595   0.541 -0.4078  2.0124  1.0056
 1850TIP3    H2 5515   1.253   1.673   0.425 -0.4764  0.7960  0.2062
 1851TIP3   OH2 5516   1.475   2.498   0.268 -0.1106 -0.5369  0.1572
 1851TIP3    H1 5517   1.438   2.411   0.284 -1.1167 -0.2931 -0.7410
 1851TIP3    H2 5518   1.430   2.529   0.189 -0.9422  1.4704  1.3489
 1852TIP3   OH2 5519   4.026   1.292   2.904 -0.3018 -0.1676 -0.0918
 1852TIP3    H1 5520   3.955   1.352   2.883 -0.7677 -1.2099 -1.6683
 1852TIP3    H2 5521   3.988   1.205   2.890  0.4625 -0.8573  1.7647
 1853TIP3   OH2 5522   5.182   5.724   1.329  0.0918  0.0776  0.5965
 1853TIP3    H1 5523   5.274   5.748   1.341  0.3250 -0.4378 -0.0669
 1853TIP3    H2 5524   5.151   5.700   1.416  0.2467  1.3843  1.0376
 1854TIP3   OH2 5525   3.081   5.030   4.713  0.3629 -0.2617  0.2635
 1854TIP3    H1 5526   3.008   5.067   4.763  0.5707  1.6036 -0.7458
 1854TIP3    H2 5527   3.043   5.009   4.628  0.4164 -1.8323  0.5910
 1855TIP3   OH2 5528   1.933   5.608   0.449 -1.0662  0.0255 -0.2246
 1855TIP3    H1 5529   1.912   5.536   0.390 -0.2579 -0.1171 -0.3599
 1855TIP3    H2 5530   2.002   5.572   0.506  0.0134  0.9577 -0.8938
 1856TIP3   OH2 5531   2.720   1.282   2.487  0.3056  0.4170 -0.0873
 1856TIP3    H1 5532   2.807   1.258   2.518  0.6550  0.1722 -1.1941
 1856TIP3    H2 5533   2.702   1.367   2.529 -0.3191 -0.9716  2.6789
 1857TIP3   OH2 5534   1.614   4.631   1.285  0.6021  0.0070  0.4927
 1857TIP3    H1 5535   1.540   4.684   1.315  1.9877  1.7559  1.0038
 1857TIP3    H2 5536   1.602   4.624   1.190 -0.8603 -0.8117  0.7154
 1858TIP3   OH2 5537   2.008   3.753   5.212  0.1104  0.4052  0.2401
 1858TIP3    H1 5538   2.030   3.846   5.215 -1.0249  0.7134 -0.3191
 1858TIP3    H2 5539   2.091   3.708   5.198  0.5759  1.3853 -0.1565
 1859TIP3   OH2 5540   1.316   6.509   5.810  0.6992  0.9659  0.3746
 1859TIP3    H1 5541   1.345   6.442   5.748 -0.6539 -0.3608  1.1091
 1859TIP3    H2 5542   1.333   6.592   5.765  0.5181  0.0744 -1.4477
 1860TIP3   OH2 5543   3.148   0.047   4.068 -0.3918 -0.7060  0.0860
 1860TIP3    H1 5544   3.116   0.094   3.991  0.9751  1.8861  0.9738
 1860TIP3    H2 5545   3.199  -0.026   4.032 -2.9452 -1.8914 -1.3529
 1861TIP3   OH2 5546   0.858   3.632   1.335 -0.3150  0.2550 -0.6600
 1861TIP3    H1 5547   0.874   3.684   1.256 -4.0382  0.4345 -1.4797
 1861TIP3    H2 5548   0.853   3.541   1.304 -0.5498  0.1852 -0.4233
 1862TIP3   OH2 5549   0.365   0.075   0.240  0.1524 -0.3097  0.0149
 1862TIP3    H1 5550   0.420   0.116   0.174 -1.4014  0.4502 -0.8611
 1862TIP3    H2 5551   0.353   0.142   0.307 -1.5255  0.3884 -0.9114
 1863TIP3   OH2 5552   2.795   1.657   4.626  0.3920 -0.4106  0.2423
 1863TIP3    H1 5553   2.820   1.733   4.679  0.4978 -0.4769  0.2877
 1863TIP3    H2 5554   2.735   1.608   4.681  0.8398 -0.7073  0.4704
 1864TIP3   OH2 5555   5.559   5.276   1.006 -0.2177  0.2076 -0.0523
 1864TIP3    H1 5556   5.541   5.259   1.099  0.9320  1.5577  0.4587
 1864TIP3    H2 5557   5.474   5.267   0.963 -1.1396  1.3379  1.4323
 1865TIP3   OH2 5558   4.324   6.200   5.483  0.3082  0.1699  0.4187
 1865TIP3    H1 5559   4.376   6.124   5.458  0.8343  0.7532 -0.3187
 1865TIP3    H2 5560   4.385   6.256   5.532  0.0608  0.3305  0.5446
 1866TIP3   OH2 5561   5.933   0.105   2.785 -0.0464 -0.1870  0.0551
 1866TIP3    H1 5562   5.908   0.197   2.776 -1.9749 -0.6325  0.3493
 1866TIP3    H2 5563   6.010   0.095   2.730  1.8026  2.1770  1.9933
 1867TIP3   OH2 5564   2.331   1.429   4.268  0.4430 -0.0137  0.0053
 1867TIP3    H1 5565   2.340   1.334   4.275  2.3921  0.2169  1.2596
 1867TIP3    H2 5566   2.402   1.464   4.321  0.9447  2.1681 -1.9645
 1868TIP3   OH2 5567   2.546   6.619   1.127  0.7544  0.5891 -0.4077
 1868TIP3    H1 5568   2.513   6.540   1.171  1.1239  0.5584 -0.1746
 1868TIP3    H2 5569   2.606   6.585   1.060 -0.0010  0.6237 -1.1225
 1869TIP3   OH2 5570   4.784   6.496   3.236 -0.3388 -0.0132  0.0508
 1869TIP3    H1 5571   4.694   6.493   3.204 -0.5194  1.7754  0.2695
 1869TIP3    H2 5572   4.777   6.532   3.325  0.5228 -0.7489  0.4367
 1870TIP3   OH2 5573   1.884   0.825   2.361  0.6216  0.6550 -0.5060
 1870TIP3    H1 5574   1.850   0.801   2.448  1.4173  1.8825  0.1779
 1870TIP3    H2 5575   1.820   0.790   2.300  0.4320 -0.9108  0.5355
 1871TIP3   OH2 5576   2.952   5.686   1.615 -0.0357 -0.1074  0.0693
 1871TIP3    H1 5577   2.949   5.599   1.577 -0.8495  0.0519 -0.2523
 1871TIP3    H2 5578   2.986   5.673   1.704  1.5575 -0.5275 -0.5581
 1872TIP3   OH2 5579   6.381   5.779   4.919  0.0568  0.2208 -0.4989
 1872TIP3    H1 5580   6.312   5.741   4.974  0.5675 -1.0734 -0.7174
 1872TIP3    H2 5581   6.434   5.704   4.893  2.5696  1.3535  1.0391
 1873TIP3   OH2 5582   4.606   5.468   5.504 -0.2068 -0.0634  0.3332
 1873TIP3    H1 5583   4.592   5.448   5.411 -0.4244 -0.7907  0.5132
 1873TIP3    H2 5584   4.584   5.387   5.549 -3.2409  1.1885  1.3071
 1874TIP3   OH2 5585   7.151   5.919   4.866  0.0990  0.3880  0.0361
 1874TIP3    H1 5586   7.121   5.988   4.807 -3.0180 -1.4177 -0.7439
 1874TIP3    H2 5587   7.102   5.935   4.947  1.0442  0.3521  0.6233
 1875TIP3   OH2 5588   3.859   0.073   4.641 -0.4719  0.5913 -0.0262
 1875TIP3    H1 5589   3.827   0.058   4.552 -1.1114 -0.6324  0.3815
 1875TIP3    H2 5590   3.928   0.139   4.631  1.6320 -1.6735 -1.8883
 1876TIP3   OH2 5591   2.854   6.738   4.091 -0.0865 -0.2696 -0.2092
 1876TIP3    H1 5592   2.875   6.823   4.131  1.8809 -1.0353  0.5012
 1876TIP3    H2 5593   2.910   6.734   4.014 -1.3480 -0.2785 -1.1546
 1877TIP3   OH2 5594   7.018   4.046   4.688  0.1285  0.3394  0.4532
 1877TIP3    H1 5595   6.965   4.059   4.609  0.8436 -0.3082 -0.1457
 1877TIP3    H2 5596   6.958   4.066   4.760  0.1183  3.2979 -0.2587
 1878TIP3   OH2 5597   3.218   5.896   5.560 -0.1742  0.1059  0.9118
 1878TIP3    H1 5598   3.236   5.951   5.636  1.9235 -0.4443  0.8858
 1878TIP3    H2 5599   3.299   5.899   5.509 -1.5871  0.6693 -1.4752
 1879TIP3   OH2 5600   6.064   4.471   2.230 -0.7724  0.2854  0.5769
 1879TIP3    H1 5601   6.128   4.449   2.297 -1.5369  0.1776  1.2897
 1879TIP3    H2 5602   6.116   4.495   2.154  0.1054 -1.5074  0.5699
 1880TIP3   OH2 5603   6.321   4.270   0.413 -0.1714  0.0198 -0.3615
 1880TIP3    H1 5604   6.380   4.216   0.359  0.7213 -0.9862  1.5274
 1880TIP3    H2 5605   6.279   4.328   0.350  1.2144 -0.7206 -2.0825
 1881TIP3   OH2 5606   4.054   3.200   4.779  0.4557 -0.7059  0.1605
 1881TIP3    H1 5607   4.030   3.207   4.872 -0.2896 -2.1918  0.1071
 1881TIP3    H2 5608   4.148   3.219   4.777  1.2219 -3.6171  1.7065
 1882TIP3   OH2 5609   6.334   2.054   2.643 -0.4092 -0.3170 -0.6468
 1882TIP3    H1 5610   6.393   2.070   2.569  0.4394 -1.4302 -0.2593
 1882TIP3    H2 5611   6.353   2.124   2.705 -0.2777 -0.0452 -0.9924
 1883TIP3   OH2 5612   5.340   3.902   1.468  0.4986  0.1101 -0.0427
 1883TIP3    H1 5613   5.283   3.920   1.394  0.3461  0.1792  0.0888
 1883TIP3    H2 5614   5.372   3.814   1.453  0.4586  0.1197 -0.1846
 1884TIP3   OH2 5615   2.594   3.420   2.915 -0.2331 -0.2020 -0.5843
 1884TIP3    H1 5616   2.511   3.428   2.869 -0.1225 -0.7867 -0.8947
 1884TIP3    H2 5617   2.570   3.407   3.006 -0.4724  0.0289 -0.6136
 1885TIP3   OH2 5618   7.208   0.073   0.113 -0.4207 -0.1791  0.1404
 1885TIP3    H1 5619   7.265   0.016   0.060 -0.9146  0.1009 -0.7170
 1885TIP3    H2 5620   7.125   0.073   0.066 -0.5624  0.9006  0.3751
 1886TIP3   OH2 5621   7.030   2.106   0.725  0.1438 -0.4090  0.2494
 1886TIP3    H1 5622   6.988   2.192   0.727  2.6690  0.9056  0.6355
 1886TIP3    H2 5623   6.996   2.065   0.645  0.1217  1.6404 -0.8687
 1887TIP3   OH2 5624   5.455   0.735   1.728 -0.2256  0.0105  0.3323
 1887TIP3    H1 5625   5.361   0.752   1.737 -0.5801 -1.9905  1.0056
 1887TIP3    H2 5626   5.496   0.794   1.792 -1.0377  0.7043  0.2282
 1888TIP3   OH2 5627   4.408   5.341   4.791  0.2439 -0.2045 -0.5765
 1888TIP3    H1 5628   4.352   5.331   4.868 -1.8721 -0.6121 -2.0448
 1888TIP3    H2 5629   4.455   5.258   4.784 -1.5807 -1.2476 -1.1579
 1889TIP3   OH2 5630   5.536   6.384   0.735  0.5043 -0.4085  0.1368
 1889TIP3    H1 5631   5.617   6.418   0.697 -0.2261  2.1881  0.7173
 1889TIP3    H2 5632   5.560   6.356   0.823  0.8747 -0.2330  0.0901
 1890TIP3   OH2 5633   6.853   3.228   3.521 -0.4403 -0.1888  0.7105
 1890TIP3    H1 5634   6.872   3.300   3.460 -1.0722 -0.6349 -0.0382
 1890TIP3    H2 5635   6.766   3.198   3.496 -1.3085  0.4677  2.7193
 1891TIP3   OH2 5636   4.956   6.085   4.483 -0.6470 -0.4028  1.0045
 1891TIP3    H1 5637   4.899   6.136   4.540 -0.8434 -1.7832  2.0967
 1891TIP3    H2 5638   4.994   6.018   4.541  1.2916 -0.1662  0.1028
 1892TIP3   OH2 5639   2.230   1.757   2.437  0.3555 -0.3148 -0.2138
 1892TIP3    H1 5640   2.201   1.840   2.399 -0.0557 -0.2178  0.3003
 1892TIP3    H2 5641   2.150   1.718   2.473  0.5855 -0.8284 -0.2437
 1893TIP3   OH2 5642   5.326   0.279   4.551 -0.1517  0.1118  0.2981
 1893TIP3    H1 5643   5.403   0.231   4.520 -1.3148 -1.3015 -0.5398
 1893TIP3    H2 5644   5.252   0.232   4.513 -1.4681  1.0001  1.6686
 1894TIP3   OH2 5645   3.727   6.097   4.362  0.1992 -0.9232  0.6513
 1894TIP3    H1 5646   3.648   6.143   4.334  0.7395 -0.4929 -0.1965
 1894TIP3    H2 5647   3.703   6.004   4.358 -0.4702 -0.7760  1.0517
 1895TIP3   OH2 5648   0.280   0.067   4.604 -0.1981 -0.3040 -0.1597
 1895TIP3    H1 5649   0.223   0.120   4.548 -0.6029 -0.6372 -0.0685
 1895TIP3    H2 5650   0.277   0.110   4.689 -1.2376 -0.9635  0.1560
 1896TIP3   OH2 5651   0.718   6.542   5.283  0.5082  0.2234 -0.0303
 1896TIP3    H1 5652   0.702   6.622   5.332  0.5952 -0.2190  0.7345
 1896TIP3    H2 5653   0.665   6.475   5.326 -1.1148  0.2472 -1.8501
 1897TIP3   OH2 5654   5.760   5.118   0.288 -0.0667  0.0883  0.3106
 1897TIP3    H1 5655   5.755   5.158   0.375 -0.3159  1.5863 -0.3667
 1897TIP3    H2 5656   5.846   5.144   0.255 -0.0367 -0.3543  0.0422
 1898TIP3   OH2 5657   1.572   5.778   3.690 -0.3335  0.6596  0.6725
 1898TIP3    H1 5658   1.658   5.808   3.719 -1.1589  2.7532  1.1494
 1898TIP3    H2 5659   1.546   5.840   3.622 -1.8132  0.6282  1.1638
 1899TIP3   OH2 5660   3.233   5.111   2.989 -0.4026 -0.0564 -0.0920
 1899TIP3    H1 5661   3.274   5.143   2.909 -0.2509 -0.7066 -0.2820
 1899TIP3    H2 5662   3.139   5.120   2.973 -0.4043 -1.0850 -0.7411
 1900TIP3   OH2 5663   6.735   5.551   2.247 -0.1075 -0.0540 -0.3681
 1900TIP3    H1 5664   6.693   5.467   2.230 -1.3961 -0.3032  3.0804
 1900TIP3    H2 5665   6.753   5.550   2.341  1.4032  2.8620 -0.5094
 1901TIP3   OH2 5666   5.458   3.596   2.372  0.4781 -0.0340 -0.5588
 1901TIP3    H1 5667   5.392   3.581   2.305  0.1826  1.0023 -0.5159
 1901TIP3    H2 5668   5.453   3.690   2.391 -0.1694 -0.4566  1.6508
 1902TIP3   OH2 5669   3.465   4.490   4.436  0.3523 -0.1497 -0.2791
 1902TIP3    H1 5670   3.406   4.561   4.460 -1.9453 -1.2735 -2.1793
 1902TIP3    H2 5671   3.548   4.533   4.414 -0.0264  1.5971  1.4550
 1903TIP3   OH2 5672   2.018   1.754   1.569 -0.1781  0.7265 -0.5062
 1903TIP3    H1 5673   1.970   1.830   1.605  0.8101  0.2254  2.1500
 1903TIP3    H2 5674   1.987   1.680   1.621  2.0403  0.0812 -0.0049
 1904TIP3   OH2 5675   6.836   3.049   4.528 -0.1851 -0.2834  0.7716
 1904TIP3    H1 5676   6.828   2.955   4.548 -2.0496 -0.2581  0.3011
 1904TIP3    H2 5677   6.760   3.089   4.569  0.8320  1.1348  1.3658
 1905TIP3   OH2 5678   4.588   1.908   0.279  0.3444 -0.4289 -0.2793
 1905TIP3    H1 5679   4.623   1.883   0.365  0.7631 -1.8125 -0.8222
 1905TIP3    H2 5680   4.655   1.966   0.242 -0.5687  1.5293  0.9315
 1906TIP3   OH2 5681   2.765   6.480   2.227  0.2163 -0.9910 -0.5273
 1906TIP3    H1 5682   2.796   6.428   2.301  0.1899 -0.2212  0.0320
 1906TIP3    H2 5683   2.822   6.454   2.154  0.1546 -1.8498 -0.2785
 1907TIP3   OH2 5684   0.241   4.088   3.888 -0.1370 -0.3603 -0.7298
 1907TIP3    H1 5685   0.158   4.062   3.847 -1.4803 -1.5963  2.4588
 1907TIP3    H2 5686   0.281   4.148   3.825 -3.4440  0.3141 -2.4124
 1908TIP3   OH2 5687   3.560   2.244   2.326  0.1085 -0.4999 -0.6137
 1908TIP3    H1 5688   3.530   2.173   2.383 -1.6830  0.4588 -0.2768
 1908TIP3    H2 5689   3.481   2.296   2.309  1.4989  1.9226 -0.1484
 1909TIP3   OH2 5690   5.763   5.521   3.695  0.1228  0.3435  0.1299
 1909TIP3    H1 5691   5.707   5.445   3.679  0.7897 -0.2021  0.3276
 1909TIP3    H2 5692   5.803   5.504   3.780 -0.0366  1.1173  0.3649
 1910TIP3   OH2 5693   4.321   6.134   1.935 -0.0303 -0.4644  0.4134
 1910TIP3    H1 5694   4.316   6.067   2.004 -0.6294 -0.6852  0.1631
 1910TIP3    H2 5695   4.267   6.099   1.864  0.4478 -0.1615 -0.1053
 1911TIP3   OH2 5696   7.156   5.776   2.671 -0.7237  0.0604 -0.3527
 1911TIP3    H1 5697   7.102   5.728   2.734  0.9520 -0.4439  0.7863
 1911TIP3    H2 5698   7.189   5.851   2.721  0.1962 -0.0479 -0.7714
 1912TIP3   OH2 5699   1.907   0.987   4.843 -0.0806  0.5035  0.3292
 1912TIP3    H1 5700   1.886   1.005   4.751  1.4882  0.7879  0.0001
 1912TIP3    H2 5701   1.905   0.891   4.849  2.3036  0.3147 -0.6923
 1913TIP3   OH2 5702   5.697   2.592   1.841  0.3120 -0.0852  0.2146
 1913TIP3    H1 5703   5.621   2.545   1.876  1.1238 -1.7981 -0.2240
 1913TIP3    H2 5704   5.746   2.618   1.919 -0.8950  1.4381  0.5273
 1914TIP3   OH2 5705   1.416   4.596   3.729 -0.3052 -0.0041 -0.3762
 1914TIP3    H1 5706   1.386   4.685   3.712 -0.1148  0.0728 -0.3131
 1914TIP3    H2 5707   1.491   4.584   3.670  0.7156  0.4589  0.7750
 1915TIP3   OH2 5708   0.100   4.417   3.829 -0.4877  0.4371 -0.0732
 1915TIP3    H1 5709   0.125   4.392   3.740 -1.8423 -0.2155 -0.3003
 1915TIP3    H2 5710   0.047   4.343   3.861 -0.3871  0.8527  1.1115
 1916TIP3   OH2 5711   1.668   6.068   2.117 -0.2654 -0.2799  0.3706
 1916TIP3    H1 5712   1.676   5.978   2.148 -1.7485 -0.3578  0.6136
 1916TIP3    H2 5713   1.623   6.060   2.032  1.1061  0.1411 -0.4354
 1917TIP3   OH2 5714   1.812   3.612   5.357  0.6040  0.1296  0.9408
 1917TIP3    H1 5715   1.863   3.584   5.433  0.5573 -3.1009 -0.0341
 1917TIP3    H2 5716   1.878   3.638   5.292  0.9511 -1.2986  0.6716
 1918TIP3   OH2 5717   4.235   6.448   1.000 -0.1218  0.4410 -0.1170
 1918TIP3    H1 5718   4.159   6.498   0.973 -0.0106  0.5040 -0.3144
 1918TIP3    H2 5719   4.305   6.474   0.939  0.0534  0.3772  0.0539
 1919TIP3   OH2 5720   7.055   2.365   1.652 -0.1206 -0.5311 -0.1843
 1919TIP3    H1 5721   7.100   2.316   1.583  1.4546  0.4707  0.0752
 1919TIP3    H2 5722   7.107   2.445   1.663 -0.3377 -0.6373  2.1316
 1920TIP3   OH2 5723   3.602   0.699   4.056 -0.2114  0.6964 -0.5012
 1920TIP3    H1 5724   3.682   0.750   4.045  1.1681 -1.1080  0.4757
 1920TIP3    H2 5725   3.565   0.731   4.139  0.6714  0.1233  0.1345
 1921TIP3   OH2 5726   2.794   1.409   0.106  0.1546  0.9587  0.4936
 1921TIP3    H1 5727   2.752   1.398   0.021  2.3773  0.3509 -0.6080
 1921TIP3    H2 5728   2.855   1.483   0.094 -0.8824  2.1829  2.1840
 1922TIP3   OH2 5729   7.096   2.769   1.214 -0.4125  0.3206  0.0662
 1922TIP3    H1 5730   7.052   2.687   1.235 -0.9316  0.6563  0.3052
 1922TIP3    H2 5731   7.175   2.769   1.267 -1.5338  1.0028  1.8134
 1923TIP3   OH2 5732   1.921   1.319   1.527  0.4686  0.2255  0.0319
 1923TIP3    H1 5733   1.831   1.350   1.515 -0.3611 -1.6763  0.9017
 1923TIP3    H2 5734   1.965   1.341   1.444 -1.0460  0.3610 -0.7744
 1924TIP3   OH2 5735   0.718   2.042   4.865 -0.6583  0.0474 -0.3723
 1924TIP3    H1 5736   0.797   1.987   4.865 -1.7228 -1.6516 -2.6762
 1924TIP3    H2 5737   0.739   2.114   4.924  2.3725 -0.6775 -0.3970
 1925TIP3   OH2 5738   3.630   6.531   3.159  0.1430  0.1316  0.2729
 1925TIP3    H1 5739   3.707   6.586   3.172  0.7104 -0.4713 -0.4153
 1925TIP3    H2 5740   3.622   6.523   3.064 -1.3681  0.9832  0.2895
 1926TIP3   OH2 5741   1.235   2.434   5.154 -0.0183  0.0112 -0.5240
 1926TIP3    H1 5742   1.304   2.395   5.206 -0.0129  0.4148 -0.2232
 1926TIP3    H2 5743   1.163   2.449   5.215  0.1373  0.8614 -0.5354
 1927TIP3   OH2 5744   6.402   1.404   3.125  0.5534  0.3709 -0.0656
 1927TIP3    H1 5745   6.468   1.335   3.113  0.4098 -0.4015  2.8424
 1927TIP3    H2 5746   6.354   1.378   3.203 -2.8083  1.3045 -1.6376
 1928TIP3   OH2 5747   1.030   5.155   5.511 -0.0163  0.2773 -0.0190
 1928TIP3    H1 5748   0.994   5.084   5.565 -0.6701  0.3497 -0.3479
 1928TIP3    H2 5749   1.074   5.110   5.439  0.5345  0.1883  0.3651
 1929TIP3   OH2 5750   2.646   1.374   5.871 -0.4443  0.1680  0.2635
 1929TIP3    H1 5751   2.708   1.392   5.801 -0.6084  1.4849  0.4246
 1929TIP3    H2 5752   2.588   1.451   5.872 -0.2489  0.3366  2.0484
 1930TIP3   OH2 5753   4.754   3.703   4.632  0.4983 -0.1553 -0.2948
 1930TIP3    H1 5754   4.758   3.611   4.603  2.1217  0.4709 -2.3205
 1930TIP3    H2 5755   4.841   3.738   4.611 -0.2278  1.9594  0.0354
 1931TIP3   OH2 5756   0.954   5.264   2.645  0.0905  0.1589 -0.8826
 1931TIP3    H1 5757   0.911   5.219   2.573 -2.5131 -0.4210  0.9071
 1931TIP3    H2 5758   0.970   5.196   2.710  0.3829  1.0354 -0.0179
 1932TIP3   OH2 5759   6.832   5.632   1.939 -0.8107 -0.2162  0.5672
 1932TIP3    H1 5760   6.769   5.663   2.005 -0.6798  0.2071  0.5014
 1932TIP3    H2 5761   6.809   5.541   1.924 -0.7878 -0.3415  1.2656
 1933TIP3   OH2 5762   5.631   3.959   2.035 -0.0135  0.0581 -0.1167
 1933TIP3    H1 5763   5.548   3.918   2.060 -0.7630  1.0262 -0.9380
 1933TIP3    H2 5764   5.610   4.013   1.959  0.4507  3.4530  1.9200
 1934TIP3   OH2 5765   6.981   4.576   5.814  0.0327 -0.1103 -0.6237
 1934TIP3    H1 5766   7.054   4.516   5.802 -1.7669 -2.9990  1.5580
 1934TIP3    H2 5767   7.019   4.652   5.858  1.5419 -2.4627  2.5691
 1935TIP3   OH2 5768   2.113   5.064   4.403 -0.4167  0.5032 -0.2987
 1935TIP3    H1 5769   2.093   4.989   4.460  1.0299 -0.2297 -0.7035
 1935TIP3    H2 5770   2.077   5.139   4.449 -1.0439 -0.3198  0.6000
 1936TIP3   OH2 5771   3.098   1.143   1.809  0.1991  0.0761 -0.2993
 1936TIP3    H1 5772   3.037   1.095   1.864  1.0493 -0.3983  0.2618
 1936TIP3    H2 5773   3.058   1.143   1.722 -1.4080  1.2709  0.3930
 1937TIP3   OH2 5774   4.880   1.068   1.063  0.3905 -0.5735  0.1117
 1937TIP3    H1 5775   4.957   1.011   1.061  0.6239 -0.2415 -0.3892
 1937TIP3    H2 5776   4.818   1.028   1.002  0.9635  0.2772 -1.0539
 1938TIP3   OH2 5777   6.280   5.215   4.488  0.4298 -0.5290  0.4107
 1938TIP3    H1 5778   6.323   5.300   4.495  1.7219 -0.9693 -1.4998
 1938TIP3    H2 5779   6.350   5.155   4.463 -1.0715 -1.4894 -1.6867
 1939TIP3   OH2 5780   5.910   3.999   1.866 -0.1938  0.2155 -0.3367
 1939TIP3    H1 5781   5.848   3.993   1.794 -1.2439  0.0540  0.5523
 1939TIP3    H2 5782   5.872   4.063   1.926  0.0072 -0.5747  0.6831
 1940TIP3   OH2 5783   3.270   6.411   1.753  0.0803  0.3757  0.0510
 1940TIP3    H1 5784   3.360   6.436   1.776  0.3053  0.1033 -0.5178
 1940TIP3    H2 5785   3.239   6.482   1.697  0.5778 -0.3838 -1.2281
 1941TIP3   OH2 5786   0.242   6.407   4.984 -0.2378  0.1347  0.7091
 1941TIP3    H1 5787   0.152   6.379   4.964  0.6587 -1.3510 -1.6745
 1941TIP3    H2 5788   0.261   6.474   4.918  0.1095  1.1331  1.8065
 1942TIP3   OH2 5789   4.788   0.376   0.492  0.0324 -0.0420  0.0811
 1942TIP3    H1 5790   4.879   0.353   0.470 -0.5854 -1.8086 -0.8014
 1942TIP3    H2 5791   4.779   0.353   0.584  0.3620 -0.2355  0.0681
 1943TIP3   OH2 5792   6.840   2.618   0.093 -0.3233  0.2154  0.2445
 1943TIP3    H1 5793   6.805   2.580   0.174  2.8193  0.6500  1.9818
 1943TIP3    H2 5794   6.914   2.671   0.122  0.2325  1.3447 -2.8669
 1944TIP3   OH2 5795   6.213   6.219   0.583  0.0932  0.2661 -0.0346
 1944TIP3    H1 5796   6.302   6.222   0.617 -0.2676 -0.6909  1.0583
 1944TIP3    H2 5797   6.177   6.136   0.616 -2.0079  1.7379  1.6015
 1945TIP3   OH2 5798   5.964   4.600   3.265  0.2080 -0.1568 -0.5027
 1945TIP3    H1 5799   5.937   4.607   3.356  1.1919 -0.4245 -0.1788
 1945TIP3    H2 5800   5.922   4.520   3.234 -0.0220 -0.1358 -0.2546
 1946TIP3   OH2 5801   3.794   2.226   5.349  0.2788  0.5251  0.6525
 1946TIP3    H1 5802   3.749   2.221   5.433  1.5732 -0.4163  1.3241
 1946TIP3    H2 5803   3.887   2.231   5.371  0.5782  1.7349 -0.7058
 1947TIP3   OH2 5804   2.396   5.797   5.807  0.0615 -0.1335 -0.3478
 1947TIP3    H1 5805   2.314   5.769   5.766  0.2085  1.7069 -2.0607
 1947TIP3    H2 5806   2.379   5.792   5.901 -1.4718 -1.2446 -0.6456
 1948TIP3   OH2 5807   6.953   4.560   4.166 -0.3562  0.0657 -0.9349
 1948TIP3    H1 5808   6.988   4.479   4.130 -0.8575 -1.0704  1.0028
 1948TIP3    H2 5809   6.867   4.536   4.202 -0.5049  1.4327 -0.2995
 1949TIP3   OH2 5810   5.399   1.027   3.360  0.2020 -0.5144 -0.1488
 1949TIP3    H1 5811   5.337   1.033   3.432 -1.7079  1.2591 -1.7998
 1949TIP3    H2 5812   5.468   1.089   3.384  0.0695 -0.6329  0.5714
 1950TIP3   OH2 5813   5.217   2.083   0.233 -0.1390  0.0182 -0.5466
 1950TIP3    H1 5814   5.235   2.029   0.156 -0.6389 -0.9905  0.0166
 1950TIP3    H2 5815   5.192   2.169   0.198 -0.1647 -0.3723 -1.4970
 1951TIP3   OH2 5816   5.895   3.030   1.768  0.3353 -0.4627 -0.2978
 1951TIP3    H1 5817   5.848   3.113   1.765 -0.8881 -1.1363 -0.5765
 1951TIP3    H2 5818   5.980   3.052   1.806  1.5478  1.6033 -3.7668
 1952TIP3   OH2 5819   5.428   1.584   2.042  0.1116 -0.0846 -0.3101
 1952TIP3    H1 5820   5.486   1.562   1.969 -0.7551  2.1489 -1.7964
 1952TIP3    H2 5821   5.448   1.676   2.060 -0.6473 -0.2230  1.4168
 1953TIP3   OH2 5822   1.574   2.909   2.936 -0.4367  0.1331 -0.2256
 1953TIP3    H1 5823   1.478   2.911   2.945 -0.7539 -0.5391 -2.7672
 1953TIP3    H2 5824   1.602   2.837   2.992 -1.5679 -0.5007 -0.4461
 1954TIP3   OH2 5825   4.977   0.041   2.483 -0.2240  0.6169 -0.1699
 1954TIP3    H1 5826   5.004   0.003   2.567  1.6811 -0.8016 -1.3256
 1954TIP3    H2 5827   4.956  -0.034   2.428 -1.6066  1.5269 -0.9317
 1955TIP3   OH2 5828   4.712   5.807   4.481 -0.3060  0.1667 -0.5695
 1955TIP3    H1 5829   4.698   5.902   4.472 -2.1480 -0.0640 -0.4940
 1955TIP3    H2 5830   4.684   5.787   4.570  0.2233 -0.4295 -0.5327
 1956TIP3   OH2 5831   2.113   3.949   2.109 -0.0071  0.7495  0.0251
 1956TIP3    H1 5832   2.069   4.017   2.058 -0.3959 -0.2864 -1.0787
 1956TIP3    H2 5833   2.067   3.948   2.193 -2.7752 -0.8189 -1.3351
 1957TIP3   OH2 5834   4.563   3.771   4.181  0.0338 -0.1230  0.3915
 1957TIP3    H1 5835   4.571   3.842   4.117 -0.5613  0.1161  0.5778
 1957TIP3    H2 5836   4.480   3.788   4.226  0.4972 -0.2236  1.3073
 1958TIP3   OH2 5837   4.404   4.684   3.526 -0.6614 -0.0186  0.0596
 1958TIP3    H1 5838   4.464   4.706   3.597 -3.4548  1.5228  2.1480
 1958TIP3    H2 5839   4.380   4.593   3.542 -0.0869 -0.1752  0.0807
 1959TIP3   OH2 5840   2.800   6.270   0.212  0.2842  0.6715  0.2506
 1959TIP3    H1 5841   2.881   6.270   0.264  0.9787  1.4781 -0.8023
 1959TIP3    H2 5842   2.789   6.179   0.185  1.4455  0.7357 -0.5045
 1960TIP3   OH2 5843   3.546   0.154   5.405 -0.1567 -0.2735  0.9689
 1960TIP3    H1 5844   3.533   0.164   5.499 -1.8338  1.8368  0.5730
 1960TIP3    H2 5845   3.471   0.199   5.365  2.0725  1.6255 -1.4040
 1961TIP3   OH2 5846   5.235   5.494   5.548  0.3716  0.6778  0.3961
 1961TIP3    H1 5847   5.311   5.474   5.493  0.7204 -1.0457  1.4275
 1961TIP3    H2 5848   5.160   5.462   5.497  0.5451  0.4200  0.2998
 1962TIP3   OH2 5849   6.098   5.906   5.188  0.1374  0.4258 -0.3388
 1962TIP3    H1 5850   6.131   5.867   5.269 -0.7287  1.9741  0.8174
 1962TIP3    H2 5851   6.034   5.843   5.155 -2.7710  1.5800  2.5831
 1963TIP3   OH2 5852   6.097   6.594   4.014 -0.1009  0.0563 -0.3797
 1963TIP3    H1 5853   6.115   6.556   4.100  0.7826 -0.1190 -0.6303
 1963TIP3    H2 5854   6.003   6.581   4.001 -0.2812  0.2760  0.6476
 1964TIP3   OH2 5855   0.597   1.094   1.416 -0.4501  0.3469  0.4597
 1964TIP3    H1 5856   0.542   1.074   1.340 -1.9651  0.5085  1.4486
 1964TIP3    H2 5857   0.547   1.060   1.490  0.9912  0.1821  1.3924
 1965TIP3   OH2 5858   4.399   6.193   4.203 -0.0484  0.0410  0.2533
 1965TIP3    H1 5859   4.455   6.143   4.262 -1.7660 -0.7295  1.2838
 1965TIP3    H2 5860   4.387   6.137   4.127 -1.5244 -0.9354  1.1714
 1966TIP3   OH2 5861   0.138   4.875   0.749 -0.2349  0.3881  0.0119
 1966TIP3    H1 5862   0.180   4.807   0.802  0.6432  0.0846 -1.0473
 1966TIP3    H2 5863   0.047   4.847   0.742 -0.2969  0.2618  1.0633
 1967TIP3   OH2 5864   0.197   2.929   2.576  0.3572 -0.4560  0.6058
 1967TIP3    H1 5865   0.169   2.901   2.663 -2.4483  0.0312 -0.0356
 1967TIP3    H2 5866   0.134   2.887   2.517  1.3685  0.3254 -1.0754
 1968TIP3   OH2 5867   4.968   5.662   3.158  0.1411 -0.2835 -0.3114
 1968TIP3    H1 5868   4.923   5.582   3.185 -0.7755  0.8561  1.8325
 1968TIP3    H2 5869   4.988   5.706   3.241  0.1166  1.9634 -1.4407
 1969TIP3   OH2 5870   4.430   0.435   4.652  0.3976 -0.2182 -0.6855
 1969TIP3    H1 5871   4.398   0.524   4.635  0.9986 -0.2814 -2.3095
 1969TIP3    H2 5872   4.520   0.448   4.682 -0.1624 -0.1995  1.1046
 1970TIP3   OH2 5873   4.508   3.219   2.986 -0.7201  0.5869 -0.6620
 1970TIP3    H1 5874   4.462   3.273   3.051  0.0648  1.5866 -0.9207
 1970TIP3    H2 5875   4.463   3.237   2.904 -0.0163  1.3949 -0.8749
 1971TIP3   OH2 5876   2.318   0.013   4.355  0.2049  0.3946  0.2137
 1971TIP3    H1 5877   2.244   0.061   4.318 -0.0212  0.2267  0.4433
 1971TIP3    H2 5878   2.311   0.028   4.450 -0.1171 -0.4305  0.3312
 1972TIP3   OH2 5879   6.475   4.432   5.774 -0.6203  0.3094 -0.0237
 1972TIP3    H1 5880   6.453   4.468   5.860 -2.1233  0.1562 -0.3218
 1972TIP3    H2 5881   6.461   4.338   5.783 -2.5608  0.4654 -0.9010
 1973TIP3   OH2 5882   4.709   4.622   4.042 -0.0658  0.5487 -0.4788
 1973TIP3    H1 5883   4.773   4.554   4.018  0.2682  0.5914  0.2476
 1973TIP3    H2 5884   4.644   4.620   3.972  0.9337  0.7600 -1.4373
 1974TIP3   OH2 5885   1.178   0.525   4.967 -0.0041 -0.0104  0.1235
 1974TIP3    H1 5886   1.145   0.450   4.918  0.2002  0.2981 -0.4976
 1974TIP3    H2 5887   1.243   0.489   5.027 -0.6649 -0.4702  0.5807
 1975TIP3   OH2 5888   4.420   5.103   3.364  0.2388 -0.2857  0.6530
 1975TIP3    H1 5889   4.456   5.024   3.324 -1.6050 -0.1678 -1.4067
 1975TIP3    H2 5890   4.392   5.157   3.290 -0.2324  1.4901  2.0575
 1976TIP3   OH2 5891   4.332   1.694   3.390 -0.0296 -0.2784  0.6466
 1976TIP3    H1 5892   4.367   1.718   3.305  1.2007  0.0106  1.2110
 1976TIP3    H2 5893   4.347   1.599   3.396 -0.3393 -0.3393  0.4391
 1977TIP3   OH2 5894   4.407   0.077   5.906 -0.2995  0.2268  0.2797
 1977TIP3    H1 5895   4.352   0.007   5.872  0.1930  0.2428 -0.5695
 1977TIP3    H2 5896   4.481   0.081   5.846  0.4037  0.5166  1.1335
 1978TIP3   OH2 5897   4.000   1.512   0.845  0.0422 -0.3418 -0.6941
 1978TIP3    H1 5898   3.918   1.470   0.872 -0.1382 -0.8179 -1.9149
 1978TIP3    H2 5899   4.069   1.457   0.882 -0.0841  1.2766  2.2687
 1979TIP3   OH2 5900   5.444   3.068   0.321  0.1707 -1.0507 -0.0053
 1979TIP3    H1 5901   5.355   3.102   0.328  1.4099  2.4411  0.3973
 1979TIP3    H2 5902   5.456   3.050   0.227 -0.8239 -1.2630 -0.1018
 1980TIP3   OH2 5903   6.850   6.125   4.957  0.1313  0.5890 -0.2639
 1980TIP3    H1 5904   6.781   6.173   4.912 -0.2955  0.8791  0.6643
 1980TIP3    H2 5905   6.838   6.034   4.930 -0.2640  0.7232 -0.5385
 1981TIP3   OH2 5906   5.607   6.120   1.932  0.2086  0.0894 -0.1921
 1981TIP3    H1 5907   5.692   6.078   1.928  1.0212  1.6675 -0.3433
 1981TIP3    H2 5908   5.594   6.139   2.025  0.9924  1.6678 -0.3727
 1982TIP3   OH2 5909   2.826   4.102   2.327 -0.4875  0.0773  0.7276
 1982TIP3    H1 5910   2.736   4.117   2.298 -0.6971 -1.4392  0.4768
 1982TIP3    H2 5911   2.817   4.053   2.409  0.1159  0.0834  0.8028
 1983TIP3   OH2 5912   5.340   1.799   0.805  0.3165 -0.5866  0.4773
 1983TIP3    H1 5913   5.380   1.823   0.888 -0.7959  0.2489  0.7909
 1983TIP3    H2 5914   5.331   1.703   0.810  0.2981 -0.5499  1.3020
 1984TIP3   OH2 5915   3.143   3.946   2.805  0.3799  0.2144  0.1066
 1984TIP3    H1 5916   3.152   4.025   2.752 -0.2542 -0.7086 -1.4644
 1984TIP3    H2 5917   3.218   3.949   2.865  1.2636  1.2250 -0.9863
 1985TIP3   OH2 5918   4.549   4.806   1.406  0.2171 -0.1058 -0.1060
 1985TIP3    H1 5919   4.542   4.764   1.491  1.0261 -0.0005  0.0255
 1985TIP3    H2 5920   4.522   4.896   1.421 -0.8592 -0.3908 -0.2423
 1986TIP3   OH2 5921   2.573   1.171   0.022 -0.2058 -0.4276 -0.4061
 1986TIP3    H1 5922   2.595   1.235   0.090 -0.9169 -2.6228  2.0510
 1986TIP3    H2 5923   2.532   1.222  -0.047  2.4523  2.2275 -0.2124
 1987TIP3   OH2 5924   5.260   3.573   0.819 -0.2615 -0.3225  0.4129
 1987TIP3    H1 5925   5.283   3.572   0.726 -0.2166 -0.6834  0.4268
 1987TIP3    H2 5926   5.337   3.610   0.862 -0.9543  1.5845  0.1386
 1988TIP3   OH2 5927   3.879   5.106   1.014  0.3759 -0.2094 -0.1556
 1988TIP3    H1 5928   3.962   5.086   0.970  0.2614 -1.2748  0.1011
 1988TIP3    H2 5929   3.897   5.188   1.060  0.7923  0.4174 -1.3842
 1989TIP3   OH2 5930   4.479   6.241   2.637  0.1319 -0.4207  0.0146
 1989TIP3    H1 5931   4.500   6.267   2.727  0.1809  0.6025 -0.2782
 1989TIP3    H2 5932   4.402   6.294   2.615  1.8836  1.6647 -1.5705
 1990TIP3   OH2 5933   0.707   1.033   2.224 -0.1971  0.8637 -0.1206
 1990TIP3    H1 5934   0.689   0.963   2.162 -1.1922  1.1262 -0.1409
 1990TIP3    H2 5935   0.649   1.017   2.298 -1.0379  2.0894 -0.4701
 1991TIP3   OH2 5936   4.238   3.531   0.340  0.1269 -0.2567 -0.0732
 1991TIP3    H1 5937   4.214   3.439   0.350 -0.7703 -0.0686 -0.4040
 1991TIP3    H2 5938   4.159   3.573   0.307  0.9044  0.4126 -1.1447
 1992TIP3   OH2 5939   3.575   6.483   1.557  0.2477 -0.0969  0.4437
 1992TIP3    H1 5940   3.633   6.558   1.546 -0.1401 -0.0669 -1.8122
 1992TIP3    H2 5941   3.507   6.495   1.491 -0.4572 -1.8639  0.7878
 1993TIP3   OH2 5942   0.966   1.444   0.992  0.9155  0.0742  0.0348
 1993TIP3    H1 5943   0.962   1.382   1.065  0.0197 -0.0457 -0.1098
 1993TIP3    H2 5944   0.897   1.508   1.011 -0.8398 -1.1531 -1.7790
 1994TIP3   OH2 5945   4.091   1.753   1.564 -0.1139  0.0493 -0.0317
 1994TIP3    H1 5946   4.178   1.714   1.555 -0.2916 -0.3085 -0.1949
 1994TIP3    H2 5947   4.062   1.728   1.652 -0.3184 -0.3717 -0.2175
 1995TIP3   OH2 5948   5.529   2.160   4.041  0.9245 -0.3465  0.1851
 1995TIP3    H1 5949   5.604   2.159   3.982  0.9938 -0.6881  0.2814
 1995TIP3    H2 5950   5.473   2.230   4.007  1.8420  0.7198  0.7963
 1996TIP3   OH2 5951   5.664   4.150   3.735 -0.0618  0.1692 -0.0090
 1996TIP3    H1 5952   5.637   4.112   3.651 -0.5272  0.7267 -0.1218
 1996TIP3    H2 5953   5.656   4.079   3.798  0.2815 -0.2515 -0.4361
 1997TIP3   OH2 5954   6.413   6.298   2.651  0.3461  0.4304  0.0390
 1997TIP3    H1 5955   6.484   6.246   2.614  0.9530 -1.6757  3.6264
 1997TIP3    H2 5956   6.352   6.233   2.687 -0.9084  2.1812  1.2470
 1998TIP3   OH2 5957   5.564   2.541   0.417 -0.4668  0.1072 -0.2108
 1998TIP3    H1 5958   5.623   2.550   0.492 -0.2739 -0.5098 -0.2900
 1998TIP3    H2 5959   5.592   2.611   0.357  0.8171 -0.7573 -0.6645
 1999TIP3   OH2 5960   2.021   0.945   3.948 -0.3656  0.0380  0.7224
 1999TIP3    H1 5961   2.105   0.966   3.907  0.5241 -1.5202  1.6841
 1999TIP3    H2 5962   1.961   1.011   3.912  0.9924  0.5056 -0.8491
 2000TIP3   OH2 5963   1.178   6.102  -0.001 -0.0292  0.0806 -0.8810
 2000TIP3    H1 5964   1.265   6.064   0.011  0.1783  0.9304  0.5007
 2000TIP3    H2 5965   1.118   6.040   0.041  0.2568  0.9142  0.8835
 2001TIP3   OH2 5966   2.089   4.819   5.152  0.7974  0.0143  0.3371
 2001TIP3    H1 5967   2.157   4.885   5.164 -0.5091  1.5249 -0.2796
 2001TIP3    H2 5968   2.051   4.808   5.239  2.0794 -1.2053  0.7973
 2002TIP3   OH2 5969   1.612   4.081   3.871 -0.1657  0.1892 -0.1928
 2002TIP3    H1 5970   1.599   4.165   3.917 -1.3601  0.3489 -0.7763
 2002TIP3    H2 5971   1.627   4.106   3.780  2.8333 -0.0887  0.1255
 2003TIP3   OH2 5972   4.101   0.532   4.527 -0.1035 -0.5105  0.3964
 2003TIP3    H1 5973   4.061   0.618   4.514 -0.1395 -0.3768  1.3434
 2003TIP3    H2 5974   4.188   0.540   4.488 -0.1399 -0.0740  0.3983
 2004TIP3   OH2 5975   6.725   0.943   2.210 -0.1932 -0.4213  0.3253
 2004TIP3    H1 5976   6.640   0.973   2.242 -0.4367 -2.7186  2.1139
 2004TIP3    H2 5977   6.714   0.848   2.199  1.8418 -0.6148 -0.4275
 2005TIP3   OH2 5978   6.327   3.021   3.364  0.8483 -0.0674  0.1679
 2005TIP3    H1 5979   6.257   2.971   3.322 -0.1487 -0.0907  1.7650
 2005TIP3    H2 5980   6.282   3.088   3.415  1.6715 -1.8966  3.6704
 2006TIP3   OH2 5981   4.819   1.519   1.867  0.2514 -0.6834 -0.2375
 2006TIP3    H1 5982   4.827   1.488   1.957 -3.8058  1.1329  1.0054
 2006TIP3    H2 5983   4.860   1.606   1.868 -0.7867 -0.1851  0.2237
 2007TIP3   OH2 5984   2.844   5.712   5.035  0.5279  0.5453  0.6244
 2007TIP3    H1 5985   2.890   5.771   5.095  2.3309  0.2696 -0.4188
 2007TIP3    H2 5986   2.816   5.770   4.963  1.0027  0.4044  0.3168
 2008TIP3   OH2 5987   0.905   4.011   2.696 -0.0895  0.7632 -0.4184
 2008TIP3    H1 5988   0.835   3.956   2.660 -0.4532 -0.0063  1.3530
 2008TIP3    H2 5989   0.983   3.955   2.690 -0.3552  0.2147  0.8863
 2009TIP3   OH2 5990   6.668   2.523   3.287  0.0966 -0.4444  0.2921
 2009TIP3    H1 5991   6.584   2.544   3.328 -0.7261 -1.6488 -0.6883
 2009TIP3    H2 5992   6.720   2.486   3.357  0.9042  2.8655  1.6056
 2010TIP3   OH2 5993   3.600   3.528   0.901 -0.2733 -0.3761  0.2008
 2010TIP3    H1 5994   3.658   3.603   0.886 -0.8298 -0.0837 -0.5477
 2010TIP3    H2 5995   3.554   3.517   0.818 -1.0166 -0.8357  0.6670
 2011TIP3   OH2 5996   5.609   3.595   3.496 -0.0952 -0.0044 -0.2551
 2011TIP3    H1 5997   5.684   3.653   3.513  0.6784 -0.6887 -1.1998
 2011TIP3    H2 5998   5.548   3.614   3.567  0.4582  1.4231 -0.1277
 2012TIP3   OH2 5999   7.074   4.319   4.762 -0.4593  0.1373  0.4991
 2012TIP3    H1 6000   7.096   4.226   4.763  0.5450  0.3346  2.5818
 2012TIP3    H2 6001   7.083   4.345   4.671 -1.4296 -1.9391 -0.2517
 2013TIP3   OH2 6002   1.183   5.955   2.377 -0.0562  0.1592 -0.1340
 2013TIP3    H1 6003   1.095   5.938   2.344 -0.1153  0.9434 -0.4078
 2013TIP3    H2 6004   1.232   5.986   2.301  0.9196 -1.7831 -0.3580
 2014TIP3   OH2 6005   6.212   3.190   4.002  0.0971 -0.0280  0.2893
 2014TIP3    H1 6006   6.124   3.222   3.982 -0.6679 -1.8971  0.4586
 2014TIP3    H2 6007   6.268   3.230   3.935 -1.2500 -0.4706 -1.1591
 2015TIP3   OH2 6008   6.567   6.748   3.761 -0.4217  0.3023 -1.1021
 2015TIP3    H1 6009   6.579   6.685   3.832  1.9149  0.6123 -1.1392
 2015TIP3    H2 6010   6.548   6.694   3.684 -1.3371 -0.1402 -0.5812
 2016TIP3   OH2 6011   2.474   4.989   4.305  0.2279 -0.0476 -0.0981
 2016TIP3    H1 6012   2.383   5.011   4.285  0.2047 -0.1861 -0.1460
 2016TIP3    H2 6013   2.474   4.972   4.399  0.0222 -0.9156 -0.2455
 2017TIP3   OH2 6014   3.752   4.337   5.105 -0.0540  0.1145 -0.1203
 2017TIP3    H1 6015   3.713   4.345   5.017  0.6639  0.9717 -0.3791
 2017TIP3    H2 6016   3.702   4.268   5.147 -0.8737  0.1684 -0.9669
 2018TIP3   OH2 6017   2.946   1.886   4.698 -0.5002 -0.0756 -0.5477
 2018TIP3    H1 6018   3.037   1.890   4.668 -0.8009  0.3107 -1.4253
 2018TIP3    H2 6019   2.903   1.959   4.655 -1.2992 -0.4434 -0.3902
 2019TIP3   OH2 6020   4.746   4.197   3.264 -0.6689 -0.1531 -0.3767
 2019TIP3    H1 6021   4.771   4.268   3.205 -2.5223 -0.3287 -1.4484
 2019TIP3    H2 6022   4.829   4.164   3.299  0.2829  1.9399 -0.5203
 2020TIP3   OH2 6023   0.468   1.197   0.530 -0.0368 -0.5956  0.4204
 2020TIP3    H1 6024   0.483   1.143   0.608 -3.0114  0.0714  1.6103
 2020TIP3    H2 6025   0.462   1.134   0.458  0.6696 -1.4181  1.0591
 2021TIP3   OH2 6026   5.440   0.399   2.264 -0.0867 -0.4783 -0.0619
 2021TIP3    H1 6027   5.424   0.493   2.274  0.1867 -0.3327 -0.9358
 2021TIP3    H2 6028   5.362   0.366   2.219  0.1173 -0.5495 -0.3634
 2022TIP3   OH2 6029   3.258   0.287   4.836 -0.0771 -0.6833  0.2942
 2022TIP3    H1 6030   3.193   0.357   4.847 -0.3128 -1.0584  1.3211
 2022TIP3    H2 6031   3.210   0.216   4.794  0.2595 -0.1053 -1.1253
 2023TIP3   OH2 6032   5.569   4.174   1.065  0.2872  0.2414 -0.3612
 2023TIP3    H1 6033   5.607   4.191   0.978  2.6197 -1.2826  0.2748
 2023TIP3    H2 6034   5.615   4.096   1.096 -1.7896 -0.3244  1.5332
 2024TIP3   OH2 6035   3.902   6.608   5.110 -1.1593 -0.2710 -0.0562
 2024TIP3    H1 6036   3.954   6.610   5.030 -1.0197 -0.2502  0.0335
 2024TIP3    H2 6037   3.855   6.691   5.111 -0.5281  0.0913  0.2972
 2025TIP3   OH2 6038   3.736   3.431   0.296 -0.1106  0.2317 -0.2958
 2025TIP3    H1 6039   3.643   3.430   0.270  0.0610 -0.5792 -0.9451
 2025TIP3    H2 6040   3.776   3.365   0.240 -0.1009 -3.3615  3.4593
 2026TIP3   OH2 6041   0.587   6.034   0.561  0.3332 -0.5035 -0.0106
 2026TIP3    H1 6042   0.658   6.097   0.574  0.4926 -0.6085 -0.3453
 2026TIP3    H2 6043   0.632   5.954   0.534  0.3645 -1.5441  2.8491
 2027TIP3   OH2 6044   3.649   5.988   5.653 -0.0964 -0.2933 -0.2944
 2027TIP3    H1 6045   3.573   5.934   5.676 -0.0907  0.4249  1.5976
 2027TIP3    H2 6046   3.686   6.015   5.738  2.1344 -0.4115 -1.1626
 2028TIP3   OH2 6047   4.437   6.508   0.804 -0.4297  0.2080 -0.5221
 2028TIP3    H1 6048   4.412   6.534   0.715  0.7331  1.5996 -0.4852
 2028TIP3    H2 6049   4.515   6.561   0.823 -1.6860  1.3196  2.0031
 2029TIP3   OH2 6050   3.745   3.449   3.774 -0.2293  0.3556  0.1646
 2029TIP3    H1 6051   3.807   3.409   3.835  0.7051  0.2342 -0.8375
 2029TIP3    H2 6052   3.672   3.477   3.829  0.5861  0.2421  1.3376
 2030TIP3   OH2 6053   1.378   6.169   4.801  0.2056 -0.7742  0.0682
 2030TIP3    H1 6054   1.389   6.190   4.893 -0.1544 -0.4039  0.0254
 2030TIP3    H2 6055   1.468   6.163   4.767  0.3254 -0.2236  0.2876
 2031TIP3   OH2 6056   6.154   5.356   1.597  0.9438 -0.2475 -0.0209
 2031TIP3    H1 6057   6.148   5.263   1.577  1.1103 -0.4533  0.8731
 2031TIP3    H2 6058   6.242   5.367   1.633  0.4922  0.0276  1.0242
 2032TIP3   OH2 6059   4.168   1.772   0.980  0.5534  0.0930 -0.3699
 2032TIP3    H1 6060   4.262   1.782   0.965  0.3222  1.8450 -0.8876
 2032TIP3    H2 6061   4.162   1.717   1.058  1.9803 -0.6450 -0.7448
 2033TIP3   OH2 6062   4.635   6.549   0.570 -0.3120  0.1722 -0.2696
 2033TIP3    H1 6063   4.659   6.610   0.640 -0.8844 -0.3563  0.3883
 2033TIP3    H2 6064   4.642   6.462   0.610 -0.7440 -0.1286 -0.8395
 2034TIP3   OH2 6065   1.901   3.248   4.663 -0.3476  0.2914 -0.1486
 2034TIP3    H1 6066   1.848   3.301   4.722  0.9256  1.3619  0.0823
 2034TIP3    H2 6067   1.937   3.179   4.718  0.2755  0.8801  0.2020
 2035TIP3   OH2 6068   0.274   1.354   0.036 -0.1179 -0.2456  0.1701
 2035TIP3    H1 6069   0.187   1.393   0.040 -0.1597 -0.4267  1.8423
 2035TIP3    H2 6070   0.265   1.281  -0.024 -0.6806  0.7257 -0.9823
 2036TIP3   OH2 6071   5.963   0.255   3.705 -0.4577 -0.0902 -0.2348
 2036TIP3    H1 6072   6.022   0.329   3.693 -0.1061 -0.5599 -1.5808
 2036TIP3    H2 6073   5.876   0.291   3.687 -0.3119  0.0496 -0.6802
 2037TIP3   OH2 6074   5.383   2.340   2.470 -0.2411 -0.2988 -0.3971
 2037TIP3    H1 6075   5.301   2.373   2.435  0.3614  2.0521  0.2790
 2037TIP3    H2 6076   5.364   2.319   2.562  0.3731  2.3780  0.4136
 2038TIP3   OH2 6077   3.772   4.741   4.776 -0.2657 -0.0664 -0.2298
 2038TIP3    H1 6078   3.829   4.664   4.773 -0.1007  0.0455 -0.0183
 2038TIP3    H2 6079   3.784   4.785   4.692  1.6848  1.1935  0.6515
 2039TIP3   OH2 6080   3.274   1.789   0.350  0.5033 -0.5054 -0.0100
 2039TIP3    H1 6081   3.239   1.713   0.304  0.7828 -3.0855  3.6534
 2039TIP3    H2 6082   3.360   1.761   0.381  1.7543  2.2709 -0.5577
 2040TIP3   OH2 6083   4.563   1.929   1.416  0.1288  0.0047  0.8282
 2040TIP3    H1 6084   4.622   1.856   1.435  0.1029 -0.1929  0.1869
 2040TIP3    H2 6085   4.622   2.002   1.398  0.1620  0.0059  0.9367
 2041TIP3   OH2 6086   1.369   3.040   3.978  0.4752 -0.2947  0.0820
 2041TIP3    H1 6087   1.361   2.976   4.049 -0.0482 -1.3288 -0.8630
 2041TIP3    H2 6088   1.463   3.057   3.971  0.7445 -1.7890 -0.3133
 2042TIP3   OH2 6089   0.567   0.696   4.098 -0.1986 -0.7136 -0.2750
 2042TIP3    H1 6090   0.571   0.782   4.139 -0.7742 -0.9688  0.3439
 2042TIP3    H2 6091   0.541   0.713   4.008  0.1786 -0.2054 -0.2881
 2043TIP3   OH2 6092   5.811   4.797   2.654  0.9185  0.7077 -0.1815
 2043TIP3    H1 6093   5.810   4.728   2.721  2.9806  0.0802 -0.7246
 2043TIP3    H2 6094   5.815   4.879   2.703 -0.7247  0.4336  0.4650
 2044TIP3   OH2 6095   2.409   5.140   5.652  0.3176 -0.4339  0.2915
 2044TIP3    H1 6096   2.415   5.201   5.725  0.7459  0.4004 -0.4304
 2044TIP3    H2 6097   2.378   5.058   5.692  0.5407  0.0048  1.4007
 2045TIP3   OH2 6098   2.452   0.445   5.580  0.0640 -0.1985 -0.1038
 2045TIP3    H1 6099   2.408   0.397   5.650 -2.3689  0.2857 -1.2125
 2045TIP3    H2 6100   2.382   0.494   5.537  1.9382  1.7434 -1.1036
 2046TIP3   OH2 6101   6.390   2.303   0.770 -0.2542  0.3791  0.1521
 2046TIP3    H1 6102   6.300   2.282   0.746  0.3689 -1.0573 -1.1246
 2046TIP3    H2 6103   6.406   2.390   0.734 -0.8455  0.2468 -0.4399
 2047TIP3   OH2 6104   1.966   4.141   1.955  0.2307 -0.3855  0.3832
 2047TIP3    H1 6105   1.976   4.162   1.862  0.6918 -3.3478 -0.3343
 2047TIP3    H2 6106   1.912   4.063   1.957  0.0715 -0.3036  2.6603
 2048TIP3   OH2 6107   5.848   2.284   4.092  0.4443 -0.4072 -0.2092
 2048TIP3    H1 6108   5.794   2.294   4.170 -0.5729 -1.3624 -0.7570
 2048TIP3    H2 6109   5.929   2.245   4.124  0.0190 -0.8366  0.3797
 2049TIP3   OH2 6110   5.583   2.523   3.349 -0.5680 -0.5711  0.1915
 2049TIP3    H1 6111   5.622   2.483   3.271  3.5729 -1.1559  2.3199
 2049TIP3    H2 6112   5.585   2.454   3.415 -0.2248  0.9931  1.9029
 2050TIP3   OH2 6113   1.683   5.720   4.303 -0.0838  0.3951 -0.5157
 2050TIP3    H1 6114   1.717   5.635   4.274  0.1636 -0.2591  1.5314
 2050TIP3    H2 6115   1.721   5.732   4.390 -2.5502  1.1543  0.5365
 2051TIP3   OH2 6116   2.202   2.893   0.464  0.6229  0.3203  1.0205
 2051TIP3    H1 6117   2.281   2.945   0.458  0.0669  0.9871 -2.2009
 2051TIP3    H2 6118   2.135   2.945   0.419 -0.3235 -2.3976 -1.0338
 2052TIP3   OH2 6119   6.161   0.078   5.121  0.4435  0.4501  0.1939
 2052TIP3    H1 6120   6.210   0.153   5.154  0.6260  0.9040 -1.0640
 2052TIP3    H2 6121   6.121   0.109   5.040  0.1135 -0.6650 -0.0904
 2053TIP3   OH2 6122   3.904   3.725   2.015  0.3047 -0.4653  0.1886
 2053TIP3    H1 6123   3.840   3.746   2.083  0.0347 -0.2127 -0.1421
 2053TIP3    H2 6124   3.871   3.769   1.936  1.1199  0.0489  0.1236
 2054TIP3   OH2 6125   7.108   3.092   0.702 -0.2819 -0.1177 -0.2531
 2054TIP3    H1 6126   7.191   3.136   0.685  0.1364 -0.6853  0.2873
 2054TIP3    H2 6127   7.066   3.143   0.771  0.0553 -0.3632  0.1415
 2055TIP3   OH2 6128   6.659   6.200   2.543  0.2421  0.4661 -0.0319
 2055TIP3    H1 6129   6.627   6.196   2.453 -1.8536  1.1514  0.6120
 2055TIP3    H2 6130   6.734   6.260   2.538  0.0177  0.6894 -1.2851
 2056TIP3   OH2 6131   1.314   2.161   2.570 -0.4377 -0.9621  0.4396
 2056TIP3    H1 6132   1.338   2.143   2.661  2.0237 -3.1689 -0.5148
 2056TIP3    H2 6133   1.352   2.247   2.552  2.0541 -1.9314  0.6448
 2057TIP3   OH2 6134   3.328   4.721   2.708 -0.2854  0.7011 -0.0057
 2057TIP3    H1 6135   3.348   4.723   2.614  2.6804  1.6673  0.5284
 2057TIP3    H2 6136   3.409   4.751   2.750 -1.4307  0.0415  2.8986
 2058TIP3   OH2 6137   4.334   6.420   5.715  0.6592  0.1383  0.0778
 2058TIP3    H1 6138   4.348   6.333   5.752 -1.8851 -0.4790 -0.2030
 2058TIP3    H2 6139   4.421   6.449   5.688  1.7571 -1.7732  1.3156
 2059TIP3   OH2 6140   0.384   2.634   2.666  0.0515  0.0377  0.0094
 2059TIP3    H1 6141   0.303   2.681   2.682  0.0457 -0.4335  1.5254
 2059TIP3    H2 6142   0.357   2.546   2.639  0.0587  0.0365  0.0060
 2060TIP3   OH2 6143   4.906   3.657   5.664  0.2231 -0.3987  0.2660
 2060TIP3    H1 6144   4.887   3.640   5.756  0.7273 -1.9039  0.1237
 2060TIP3    H2 6145   4.933   3.748   5.662 -0.7134 -0.0568  1.4489
 2061TIP3   OH2 6146   3.551   6.349   1.800  0.3404  0.4084  0.3096
 2061TIP3    H1 6147   3.560   6.371   1.707  0.0979  1.3518  0.5010
 2061TIP3    H2 6148   3.628   6.389   1.842 -1.2121  2.9296  0.9908
 2062TIP3   OH2 6149   3.029   4.355   3.912 -0.4163  0.4516  0.1248
 2062TIP3    H1 6150   3.004   4.296   3.984 -0.5358 -1.1345 -1.1685
 2062TIP3    H2 6151   2.954   4.354   3.853  0.5361 -0.0409 -1.1211
 2063TIP3   OH2 6152   2.139   2.481   2.903 -0.1566  0.4855  0.1397
 2063TIP3    H1 6153   2.073   2.472   2.834  0.1245  0.1041 -0.0889
 2063TIP3    H2 6154   2.209   2.531   2.861 -0.2368  0.7631  0.3359
 2064TIP3   OH2 6155   6.031   5.505   1.811 -0.4896 -0.0072 -0.2740
 2064TIP3    H1 6156   6.073   5.446   1.748  0.4796  0.9748 -0.5801
 2064TIP3    H2 6157   5.938   5.481   1.808  0.1470 -3.1475  1.3808
 2065TIP3   OH2 6158   5.290   4.825   0.431  0.0504 -0.0645  0.1908
 2065TIP3    H1 6159   5.217   4.864   0.382  0.9626  1.4954  0.0111
 2065TIP3    H2 6160   5.254   4.744   0.466 -1.1138 -0.4651 -1.7482
 2066TIP3   OH2 6161   2.330   2.602   4.548  0.4873  0.7157  0.1890
 2066TIP3    H1 6162   2.235   2.612   4.545  0.5766  1.4548 -1.4133
 2066TIP3    H2 6163   2.360   2.679   4.596  0.4463  2.4294 -2.3504
 2067TIP3   OH2 6164   5.305   6.263   2.721 -0.2139 -0.0161 -0.3837
 2067TIP3    H1 6165   5.276   6.175   2.745 -0.5324 -0.3036 -1.7128
 2067TIP3    H2 6166   5.240   6.321   2.759  0.3236 -0.3042  1.0150
 2068TIP3   OH2 6167   5.688   2.933   1.161  0.0733  0.2610 -0.0527
 2068TIP3    H1 6168   5.641   2.909   1.241  1.9409  1.1249  1.4203
 2068TIP3    H2 6169   5.636   3.004   1.124 -1.6031 -1.1127 -0.4642
 2069TIP3   OH2 6170   6.439   6.090   3.628 -0.0416 -0.0908  0.2681
 2069TIP3    H1 6171   6.532   6.080   3.607  0.2672  0.4786  1.2735
 2069TIP3    H2 6172   6.412   6.169   3.581 -0.0035 -0.2306  0.0115
 2070TIP3   OH2 6173   6.688   5.685   3.318 -0.3061 -0.5410 -0.6665
 2070TIP3    H1 6174   6.646   5.602   3.297 -0.5776 -0.6993  0.4656
 2070TIP3    H2 6175   6.634   5.751   3.275  0.3885 -0.9778 -2.2842
 2071TIP3   OH2 6176   6.083   0.376   5.446 -0.0821  0.1841 -0.0282
 2071TIP3    H1 6177   6.147   0.444   5.468 -0.8569  0.4817  1.4476
 2071TIP3    H2 6178   6.134   0.295   5.442  0.4556  0.4623  0.8378
 2072TIP3   OH2 6179   1.761   2.584   5.517 -0.3794 -0.5925 -0.1901
 2072TIP3    H1 6180   1.769   2.613   5.426  1.7151  1.1714  0.4597
 2072TIP3    H2 6181   1.681   2.626   5.549  0.1265  0.7351 -0.5967
 2073TIP3   OH2 6182   6.027   4.782   3.818  0.2953  0.1345  0.2119
 2073TIP3    H1 6183   6.094   4.850   3.810  2.0285 -1.3521  1.3524
 2073TIP3    H2 6184   6.070   4.702   3.789 -0.4826 -1.1413  2.3553
 2074TIP3   OH2 6185   4.935   4.210   2.112 -0.0363 -0.4944 -0.0979
 2074TIP3    H1 6186   4.928   4.265   2.191  0.2594 -1.8837  0.9466
 2074TIP3    H2 6187   5.024   4.225   2.081 -0.2854  0.3657 -0.4031
 2075TIP3   OH2 6188   0.342   5.006   2.709  0.2081  0.3980  0.3537
 2075TIP3    H1 6189   0.367   5.094   2.739  0.0002  1.2408 -1.7672
 2075TIP3    H2 6190   0.367   5.005   2.617 -0.1888 -1.6505  0.2371
 2076TIP3   OH2 6191   6.006   0.725   0.841  0.3905  0.2714  0.4037
 2076TIP3    H1 6192   6.088   0.748   0.797  1.2690 -2.6856  0.3086
 2076TIP3    H2 6193   6.027   0.731   0.934  1.3962 -2.2891  0.4140
 2077TIP3   OH2 6194   1.761   3.977   2.066 -0.1745  0.6654  0.0340
 2077TIP3    H1 6195   1.710   4.014   1.994  0.8722  1.8803 -0.1277
 2077TIP3    H2 6196   1.755   4.042   2.136  0.3102  0.3492  0.3761
 2078TIP3   OH2 6197   2.682   2.471   3.403  0.3205  0.5060  0.0771
 2078TIP3    H1 6198   2.654   2.392   3.451 -1.3124  1.5749  0.9968
 2078TIP3    H2 6199   2.607   2.491   3.346  1.3202  0.5816 -1.2507
 2079TIP3   OH2 6200   0.909   1.660   1.933  0.2329  0.2320 -0.6292
 2079TIP3    H1 6201   0.952   1.682   2.015 -0.4882  0.4275 -0.2957
 2079TIP3    H2 6202   0.862   1.579   1.951  1.0966 -0.4300 -1.2264
 2080TIP3   OH2 6203   0.593   4.752   1.070 -0.3425  0.1975 -0.3422
 2080TIP3    H1 6204   0.589   4.839   1.110 -1.5091 -0.9360  2.1617
 2080TIP3    H2 6205   0.687   4.736   1.057 -0.0795  1.5349 -0.2600
 2081TIP3   OH2 6206   6.311   2.040   1.033  0.8406  0.0721  0.3087
 2081TIP3    H1 6207   6.299   2.032   1.127  1.3405  0.6544  0.4321
 2081TIP3    H2 6208   6.399   2.005   1.017  0.7047 -0.1528  0.0362
 2082TIP3   OH2 6209   3.658   0.290   3.610  0.1405  0.0753  0.0558
 2082TIP3    H1 6210   3.597   0.217   3.600 -1.0735  0.9704  0.7035
 2082TIP3    H2 6211   3.680   0.290   3.703  0.3488  0.3641  0.0073
 2083TIP3   OH2 6212   5.423   0.724   5.000  0.1597 -0.4149  0.5680
 2083TIP3    H1 6213   5.351   0.685   4.950 -0.1544  1.3785 -0.4985
 2083TIP3    H2 6214   5.380   0.771   5.071  0.0832  1.5684 -0.6883
 2084TIP3   OH2 6215   2.090   0.321   4.418 -0.0085 -0.1309 -0.0150
 2084TIP3    H1 6216   2.153   0.391   4.436  0.9843 -0.7994 -0.7938
 2084TIP3    H2 6217   2.086   0.271   4.499  1.3009 -0.7192 -0.3027
 2085TIP3   OH2 6218   3.006   3.310   2.879 -0.4965  0.8236  0.0784
 2085TIP3    H1 6219   3.013   3.362   2.960 -2.6286  2.9226 -0.9727
 2085TIP3    H2 6220   2.944   3.240   2.901  1.3721 -0.6083  1.1090
 2086TIP3   OH2 6221   5.094   2.147   4.650 -0.1584 -0.3155  0.6894
 2086TIP3    H1 6222   5.053   2.222   4.693 -2.0575 -0.3321 -0.9381
 2086TIP3    H2 6223   5.081   2.075   4.710 -1.5905 -0.0673  0.7128
 2087TIP3   OH2 6224   2.980   5.482   5.449  0.3146 -0.4104  0.2931
 2087TIP3    H1 6225   2.903   5.447   5.407  0.4913  0.6864 -1.0206
 2087TIP3    H2 6226   2.973   5.577   5.437  1.0749 -0.1710  1.5336
 2088TIP3   OH2 6227   0.586   4.522   4.355  0.0053  0.2780 -0.1708
 2088TIP3    H1 6228   0.512   4.488   4.404  0.5978 -0.1758  0.4254
 2088TIP3    H2 6229   0.643   4.561   4.421 -1.2316  3.6911 -0.8927
 2089TIP3   OH2 6230   2.987   3.704   2.637 -0.0070  0.3865  0.4683
 2089TIP3    H1 6231   2.894   3.716   2.618 -0.3512  0.6331  2.1242
 2089TIP3    H2 6232   2.996   3.731   2.728  2.0591  2.0956 -0.1839
 2090TIP3   OH2 6233   6.107   2.705   5.571  0.1250  0.3260 -0.2048
 2090TIP3    H1 6234   6.181   2.668   5.522 -0.3469 -1.1107  0.1256
 2090TIP3    H2 6235   6.147   2.746   5.648  0.6695  0.5546 -0.6040
 2091TIP3   OH2 6236   6.437   3.496   1.598  0.0925 -0.7159 -0.1384
 2091TIP3    H1 6237   6.513   3.553   1.604  0.0824 -0.5593 -1.1721
 2091TIP3    H2 6238   6.442   3.439   1.674  0.5037  0.1816  0.5143
 2092TIP3   OH2 6239   1.825   6.265   4.453  0.4364  0.3120 -0.9046
 2092TIP3    H1 6240   1.743   6.303   4.485  0.8038  1.7468 -1.5807
 2092TIP3    H2 6241   1.809   6.171   4.450 -0.8569  0.4872 -0.1289
 2093TIP3   OH2 6242   4.602   2.921   0.578 -0.0015  0.7196 -0.1298
 2093TIP3    H1 6243   4.545   2.948   0.506  1.3081  0.4225 -1.3188
 2093TIP3    H2 6244   4.606   2.998   0.635 -0.9687  0.9966 -0.4190
 2094TIP3   OH2 6245   6.424   4.840   0.654 -0.6121 -0.0242 -0.4466
 2094TIP3    H1 6246   6.489   4.910   0.664 -0.0453 -0.3727 -1.5314
 2094TIP3    H2 6247   6.425   4.821   0.560  1.4320 -3.5324  0.1169
 2095TIP3   OH2 6248   0.629   6.669   5.028  0.0803 -0.0523 -0.6454
 2095TIP3    H1 6249   0.698   6.653   5.093  0.9254 -0.2583 -1.5544
 2095TIP3    H2 6250   0.548   6.671   5.078  0.9462  2.9442  0.8983
 2096TIP3   OH2 6251   2.180   2.877   3.785  0.5466 -0.1310 -0.3310
 2096TIP3    H1 6252   2.130   2.825   3.848  0.3595 -0.6516 -0.8915
 2096TIP3    H2 6253   2.261   2.828   3.772  1.7278  1.2489  1.3827
 2097TIP3   OH2 6254   1.877   5.335   0.376  0.0495  0.0871  0.0783
 2097TIP3    H1 6255   1.848   5.335   0.284  1.3061  2.6071 -0.3865
 2097TIP3    H2 6256   1.931   5.256   0.383  0.0611 -0.0694 -1.4080
 2098TIP3   OH2 6257   1.966   4.554   1.596  0.5082  0.4910  0.3649
 2098TIP3    H1 6258   2.018   4.583   1.521  0.8086 -0.3459  0.2411
 2098TIP3    H2 6259   1.998   4.607   1.669  0.3514  1.1756 -0.0510
 2099TIP3   OH2 6260   7.021   3.209   4.645  0.3273  0.2334 -0.6714
 2099TIP3    H1 6261   7.064   3.148   4.705 -2.0966 -0.2218  0.7545
 2099TIP3    H2 6262   6.955   3.156   4.601 -1.3404  1.6197  0.0440
 2100TIP3   OH2 6263   6.922   1.728   4.186  0.2760 -0.6146  0.8948
 2100TIP3    H1 6264   6.827   1.717   4.193  0.2908 -0.6289  1.1017
 2100TIP3    H2 6265   6.943   1.790   4.256  0.2713  0.2643  0.1416
 2101TIP3   OH2 6266   1.173   4.806   3.881 -0.1498  0.7474  0.5434
 2101TIP3    H1 6267   1.202   4.858   3.956  2.0358 -0.7392  0.8158
 2101TIP3    H2 6268   1.240   4.821   3.815  0.5050 -1.5770  0.6006
 2102TIP3   OH2 6269   6.415   5.291   3.370  0.1022  0.2799  0.0544
 2102TIP3    H1 6270   6.436   5.288   3.463 -2.3200  1.2440  0.6972
 2102TIP3    H2 6271   6.432   5.202   3.339 -0.1053 -0.3423  1.6543
 2103TIP3   OH2 6272   7.222   3.409   5.444  0.3782  0.0892 -0.1279
 2103TIP3    H1 6273   7.155   3.445   5.502  0.7671 -0.8989  0.9763
 2103TIP3    H2 6274   7.231   3.317   5.472 -0.4857 -0.8805 -2.7392
 2104TIP3   OH2 6275   6.478   6.264   3.038  0.4946  0.2050  0.1366
 2104TIP3    H1 6276   6.432   6.342   3.009  1.7577  1.0256  0.2755
 2104TIP3    H2 6277   6.542   6.246   2.970  0.4652 -0.5013  0.2802
 2105TIP3   OH2 6278   0.729   5.122   0.980 -0.3443 -0.0084  0.2428
 2105TIP3    H1 6279   0.714   5.214   1.003  0.9394  0.1341  0.6207
 2105TIP3    H2 6280   0.691   5.112   0.893 -2.6738  0.2247  1.1741
 2106TIP3   OH2 6281   2.829   3.627   3.618  0.3396  0.4659 -0.6739
 2106TIP3    H1 6282   2.790   3.576   3.689  1.5267  0.8760  0.3059
 2106TIP3    H2 6283   2.759   3.686   3.590 -1.3741 -2.2314 -2.4783
 2107TIP3   OH2 6284   1.079   4.485   5.324 -0.3196 -0.0772  0.2516
 2107TIP3    H1 6285   1.124   4.421   5.268  0.4145  1.6156 -1.1819
 2107TIP3    H2 6286   0.986   4.465   5.314 -0.1701 -0.1045 -1.2160
 2108TIP3   OH2 6287   5.253   0.911   4.009  0.0464  0.0033  0.2180
 2108TIP3    H1 6288   5.157   0.910   4.017  0.0212  2.1570  0.8981
 2108TIP3    H2 6289   5.284   0.881   4.095 -0.0083 -0.1720  0.1780
 2109TIP3   OH2 6290   3.165   4.829   1.164 -0.0320 -0.5231 -0.2362
 2109TIP3    H1 6291   3.153   4.763   1.233 -1.6291 -1.3866 -1.2705
 2109TIP3    H2 6292   3.259   4.836   1.153  0.2188 -1.1713  1.2730
 2110TIP3   OH2 6293   2.116   1.485   0.942  0.0371  0.2137 -0.0140
 2110TIP3    H1 6294   2.090   1.499   0.851  0.3410 -1.8298 -0.4490
 2110TIP3    H2 6295   2.197   1.536   0.951  0.5809 -0.4071 -1.2025
 2111TIP3   OH2 6296   4.439   1.640   2.725  0.5229  0.1557  0.4763
 2111TIP3    H1 6297   4.349   1.660   2.752  0.2404 -1.1017  0.5266
 2111TIP3    H2 6298   4.494   1.676   2.794 -0.0219 -0.2383  1.1236
 2112TIP3   OH2 6299   2.007   4.543   2.328  0.7331 -0.2200 -0.0960
 2112TIP3    H1 6300   2.021   4.518   2.419  0.5802 -0.8980 -0.2492
 2112TIP3    H2 6301   2.039   4.468   2.277  0.9785  0.2208 -0.6062
 2113TIP3   OH2 6302   5.907   2.168   0.913  0.0088 -0.5236 -0.4000
 2113TIP3    H1 6303   5.832   2.195   0.966  0.2735 -0.7931  0.1229
 2113TIP3    H2 6304   5.961   2.247   0.906  0.3023 -0.6590  0.3022
 2114TIP3   OH2 6305   1.955   6.658   4.052 -0.1831 -0.0810 -0.1101
 2114TIP3    H1 6306   1.958   6.592   3.983  0.2332 -0.2192  0.0346
 2114TIP3    H2 6307   1.935   6.608   4.132  1.4859 -0.2567  0.2442
 2115TIP3   OH2 6308   1.793   6.225   1.083  0.2493 -0.7429  0.4441
 2115TIP3    H1 6309   1.794   6.272   1.000  0.5443 -0.8301  0.3994
 2115TIP3    H2 6310   1.807   6.133   1.060 -2.4938 -1.2175  0.3059
 2116TIP3   OH2 6311   0.627   3.858   5.463 -0.4992 -0.3834 -0.0635
 2116TIP3    H1 6312   0.658   3.942   5.427 -1.2902  0.5219  1.2710
 2116TIP3    H2 6313   0.544   3.880   5.505  0.1914 -1.4451  1.9637
 2117TIP3   OH2 6314   4.006   1.872   3.022  0.7734  0.5854  0.1019
 2117TIP3    H1 6315   4.000   1.804   3.089  1.5303  1.5741  1.2308
 2117TIP3    H2 6316   3.952   1.841   2.951 -1.4800  0.2490  1.8515
 2118TIP3   OH2 6317   4.487   6.801   4.687 -0.0505 -0.7302  0.3985
 2118TIP3    H1 6318   4.556   6.820   4.751 -1.6195  0.1195  1.9278
 2118TIP3    H2 6319   4.468   6.708   4.698  1.1959 -1.1129 -0.4450
 2119TIP3   OH2 6320   1.206   2.867   0.210 -0.5597  0.1167 -0.2564
 2119TIP3    H1 6321   1.242   2.951   0.240  0.5204 -1.1420  2.2779
 2119TIP3    H2 6322   1.112   2.873   0.230 -0.1641  0.0317  1.8684
 2120TIP3   OH2 6323   1.583   4.332   2.054 -0.6557 -0.3128 -0.0426
 2120TIP3    H1 6324   1.591   4.263   1.988 -1.8464 -0.3499 -0.1635
 2120TIP3    H2 6325   1.606   4.288   2.136 -0.5005 -0.6173 -0.2459
 2121TIP3   OH2 6326   1.955   6.311   1.294 -0.0900 -0.1060 -0.4188
 2121TIP3    H1 6327   1.902   6.294   1.216 -1.0167  1.7304 -0.2554
 2121TIP3    H2 6328   1.894   6.354   1.355  0.9762 -0.2243  0.7586
 2122TIP3   OH2 6329   1.654   5.261   0.554 -0.3585 -0.1458 -0.3732
 2122TIP3    H1 6330   1.575   5.285   0.505 -0.1783  1.3803  0.0217
 2122TIP3    H2 6331   1.726   5.291   0.499 -0.1383  0.8677  0.4382
 2123TIP3   OH2 6332   3.232   3.550   2.684  0.0782  0.1353  0.3305
 2123TIP3    H1 6333   3.178   3.487   2.636 -0.8640  0.6270  0.7136
 2123TIP3    H2 6334   3.170   3.600   2.736  1.1037 -0.6105  2.3611
 2124TIP3   OH2 6335   0.947   1.523   2.364  0.4586 -0.3528 -0.6897
 2124TIP3    H1 6336   0.955   1.429   2.347 -1.5616 -0.6013 -0.5276
 2124TIP3    H2 6337   0.971   1.532   2.457  4.5728 -0.0315 -1.6104
 2125TIP3   OH2 6338   4.894   1.193   3.972  0.0127  0.3645 -0.0142
 2125TIP3    H1 6339   4.802   1.221   3.970  0.0985  0.6639  0.1936
 2125TIP3    H2 6340   4.937   1.244   3.904  0.3695  1.4785  1.0060
 2126TIP3   OH2 6341   2.303   5.646   1.531 -0.0677  0.6043  0.1601
 2126TIP3    H1 6342   2.251   5.616   1.606 -2.4903 -0.1275 -1.6688
 2126TIP3    H2 6343   2.238   5.662   1.462  2.0884  0.5638 -2.0277
 2127TIP3   OH2 6344   3.216   6.276   4.795  0.5414 -0.4644  0.4727
 2127TIP3    H1 6345   3.208   6.329   4.873 -1.3023  1.4276 -0.8822
 2127TIP3    H2 6346   3.154   6.204   4.808 -2.4313  1.7417 -0.5612
 2128TIP3   OH2 6347   3.977   6.041   3.140 -0.4415  0.1162 -0.5831
 2128TIP3    H1 6348   4.010   6.016   3.226 -0.4998 -0.9226 -0.8454
 2128TIP3    H2 6349   4.040   6.106   3.108 -0.1694  0.1690  0.0418
 2129TIP3   OH2 6350   3.967   2.545   1.895 -0.6040 -0.2042  0.2578
 2129TIP3    H1 6351   3.970   2.641   1.902  1.9776 -0.2723  0.9694
 2129TIP3    H2 6352   4.043   2.523   1.841 -1.0135 -1.8805  0.3311
 2130TIP3   OH2 6353   5.884   4.197   5.455  0.3441  0.1934 -0.0905
 2130TIP3    H1 6354   5.788   4.192   5.452  0.3208 -1.0464  1.3790
 2130TIP3    H2 6355   5.910   4.211   5.364 -1.2678  1.6314 -0.3817
 2131TIP3   OH2 6356   0.604   0.955   2.828  0.3861  0.1187 -0.2464
 2131TIP3    H1 6357   0.673   1.021   2.818 -0.4415  1.2553  1.1217
 2131TIP3    H2 6358   0.638   0.896   2.895  0.1429  0.5488  0.2636
 2132TIP3   OH2 6359   3.517   3.097   2.709 -0.0924 -0.0291 -0.1480
 2132TIP3    H1 6360   3.543   3.137   2.626 -0.1202 -1.3005 -0.7829
 2132TIP3    H2 6361   3.428   3.129   2.724  0.3143  1.0989 -0.0190
 2133TIP3   OH2 6362   3.746   4.134   5.767  0.2696  0.1969  0.2935
 2133TIP3    H1 6363   3.795   4.084   5.832  0.3294 -0.2528 -0.0847
 2133TIP3    H2 6364   3.672   4.077   5.745 -0.1690  0.6722  0.5226
 2134TIP3   OH2 6365   1.139   6.215   0.910  0.0490 -0.1159 -0.3888
 2134TIP3    H1 6366   1.169   6.131   0.875  2.1604  0.0259  0.8484
 2134TIP3    H2 6367   1.126   6.199   1.003 -1.4762  0.4702 -0.4821
 2135TIP3   OH2 6368   1.388   6.065   2.194 -0.5032  0.4511  0.7658
 2135TIP3    H1 6369   1.394   6.140   2.254  1.9553 -0.6293  2.0038
 2135TIP3    H2 6370   1.478   6.049   2.167 -0.7156 -2.8205  1.5710
 2136TIP3   OH2 6371   0.037   3.538   4.926  0.1097 -0.3398 -0.0270
 2136TIP3    H1 6372   0.067   3.459   4.880 -0.2458 -0.4447 -0.0874
 2136TIP3    H2 6373  -0.029   3.575   4.868  0.7350  0.3582 -0.2941
 2137TIP3   OH2 6374   4.986   1.254   5.490  0.0904  0.9264  0.2049
 2137TIP3    H1 6375   4.951   1.248   5.579  1.6497 -1.3861  0.7783
 2137TIP3    H2 6376   4.957   1.339   5.458 -2.8102  0.7263  1.9042
 2138TIP3   OH2 6377   5.123   6.814   3.652 -0.2152 -0.1485  0.4599
 2138TIP3    H1 6378   5.081   6.731   3.629  0.6647  0.1124 -2.4893
 2138TIP3    H2 6379   5.211   6.788   3.682 -0.2771 -0.3216  0.4953
 2139TIP3   OH2 6380   5.214   0.769   4.282 -0.0948  0.2335  0.0385
 2139TIP3    H1 6381   5.265   0.825   4.341 -0.7402  0.2515  0.5942
 2139TIP3    H2 6382   5.245   0.681   4.300  1.3830  0.4288 -1.2936
 2140TIP3   OH2 6383   4.385   4.790   4.802  0.6936 -0.9264 -0.2506
 2140TIP3    H1 6384   4.454   4.793   4.735  2.7527 -0.6591  1.7535
 2140TIP3    H2 6385   4.367   4.697   4.815  1.6905 -1.0763  0.1378
 2141TIP3   OH2 6386   6.602   4.186   4.557  0.3144  0.0142 -0.5712
 2141TIP3    H1 6387   6.657   4.251   4.601 -1.7992  1.6998 -0.2662
 2141TIP3    H2 6388   6.578   4.124   4.626  1.3280 -0.3964 -0.5790
 2142TIP3   OH2 6389   3.906   6.509   3.530 -0.0856 -0.2113  0.2580
 2142TIP3    H1 6390   3.878   6.588   3.482 -2.2288 -0.8191  0.3969
 2142TIP3    H2 6391   3.825   6.463   3.550  0.9089 -1.1256  2.5484
 2143TIP3   OH2 6392   4.326   4.701   5.682 -1.0330  0.6257 -0.6940
 2143TIP3    H1 6393   4.390   4.641   5.720 -0.9849  0.1241 -1.5273
 2143TIP3    H2 6394   4.365   4.730   5.600 -1.5640  0.8770 -0.8659
 2144TIP3   OH2 6395   3.072   0.434   0.219 -0.4257 -0.4676 -0.6171
 2144TIP3    H1 6396   3.143   0.477   0.172  1.6662 -1.6698  1.2786
 2144TIP3    H2 6397   3.000   0.498   0.216  1.8028  2.2930  0.2381
 2145TIP3   OH2 6398   4.738   0.498   0.760 -0.2279  0.1569 -0.1876
 2145TIP3    H1 6399   4.660   0.461   0.801  0.7684  1.4411  3.2086
 2145TIP3    H2 6400   4.709   0.580   0.721 -0.9964 -0.5548 -1.1537
 2146TIP3   OH2 6401   1.297   0.072   2.076  0.9085 -0.0542  0.2199
 2146TIP3    H1 6402   1.233   0.048   2.009  1.4451  0.3082 -0.4394
 2146TIP3    H2 6403   1.371   0.014   2.060  1.7410  1.2041 -0.6308
 2147TIP3   OH2 6404   1.161   3.612   4.924 -0.5397  0.1377 -0.5034
 2147TIP3    H1 6405   1.224   3.541   4.939 -0.6466  0.3343  1.0046
 2147TIP3    H2 6406   1.191   3.654   4.843  1.1628  0.0964  0.0620
 2148TIP3   OH2 6407   4.979   4.287   4.461 -0.2600  0.1476  0.0680
 2148TIP3    H1 6408   4.886   4.298   4.444  0.0388 -0.3169 -2.0660
 2148TIP3    H2 6409   4.986   4.200   4.501 -0.7317  0.1907  0.2524
 2149TIP3   OH2 6410   0.776   4.795   2.843  0.2054 -0.3585  0.0033
 2149TIP3    H1 6411   0.814   4.709   2.827  0.8028 -0.2862  0.9805
 2149TIP3    H2 6412   0.707   4.803   2.777  0.6357 -1.2696 -0.5820
 2150TIP3   OH2 6413   6.977   2.481   4.757  0.0153  0.4870 -0.4226
 2150TIP3    H1 6414   6.921   2.404   4.743 -0.0218  0.0665  1.7073
 2150TIP3    H2 6415   6.948   2.516   4.842  1.0199  2.0052 -0.6759
 2151TIP3   OH2 6416   5.197   3.603   3.829  0.2360 -0.2094  0.3724
 2151TIP3    H1 6417   5.195   3.531   3.892 -2.2412 -0.1688  0.4520
 2151TIP3    H2 6418   5.139   3.669   3.866 -0.5646  0.2095 -1.4994
 2152TIP3   OH2 6419   2.170   2.052   3.040  0.3839  0.3193  0.0081
 2152TIP3    H1 6420   2.137   2.142   3.036  1.5204  0.7323 -0.5857
 2152TIP3    H2 6421   2.106   2.001   2.990 -0.3115  0.7708  0.4112
 2153TIP3   OH2 6422   0.792   0.973   3.622  0.6491  0.2200  0.3671
 2153TIP3    H1 6423   0.858   1.017   3.675  0.7986 -1.0585  1.3231
 2153TIP3    H2 6424   0.710   1.017   3.643  0.7028 -0.2862  1.7503
 2154TIP3   OH2 6425   5.280   1.873   3.252  0.0828  0.4679  0.3926
 2154TIP3    H1 6426   5.215   1.866   3.322  1.2830  0.1871  1.5057
 2154TIP3    H2 6427   5.354   1.919   3.291  0.9288 -0.0159 -0.5801
 2155TIP3   OH2 6428   0.587   2.983   2.940  0.0156  0.3648 -0.0838
 2155TIP3    H1 6429   0.564   2.890   2.945 -0.3774  0.4815  0.3264
 2155TIP3    H2 6430   0.677   2.988   2.973  0.3130  0.0336 -0.8167
 2156TIP3   OH2 6431   0.768   5.509   3.496 -0.6294  0.7191  0.2017
 2156TIP3    H1 6432   0.790   5.601   3.511 -1.7560  1.0864 -0.2816
 2156TIP3    H2 6433   0.675   5.510   3.471 -0.1981 -0.3441 -1.6795
 2157TIP3   OH2 6434   2.855   1.271   2.006  0.1666  0.1895  0.6410
 2157TIP3    H1 6435   2.761   1.255   2.002  0.2416  0.0030 -1.0199
 2157TIP3    H2 6436   2.891   1.191   2.046 -0.0602 -1.4570 -2.1676
 2158TIP3   OH2 6437   4.657   4.851   5.514 -0.0656  0.1081 -0.7989
 2158TIP3    H1 6438   4.566   4.870   5.489  0.3076  2.4834 -0.5397
 2158TIP3    H2 6439   4.702   4.935   5.506  2.1905 -1.0594 -1.1343
 2159TIP3   OH2 6440   4.764   5.503   5.725 -0.3676  0.2615  0.0490
 2159TIP3    H1 6441   4.781   5.579   5.781 -2.4319 -0.6846  2.0533
 2159TIP3    H2 6442   4.724   5.541   5.646 -0.2772  1.3335  0.4950
 2160TIP3   OH2 6443   1.015   1.704   5.175 -0.2654  0.7791  0.0899
 2160TIP3    H1 6444   1.033   1.782   5.121 -1.2888  1.7962  1.1682
 2160TIP3    H2 6445   1.077   1.710   5.247 -1.1489  1.2668  0.8215
 2161TIP3   OH2 6446   6.534   2.477   4.086 -0.0923  0.1182 -0.0054
 2161TIP3    H1 6447   6.513   2.451   4.175  1.8892  2.1596  1.1744
 2161TIP3    H2 6448   6.554   2.395   4.041 -1.6823 -0.9990  1.2306
 2162TIP3   OH2 6449   2.293   2.080   4.343  0.7929 -0.4227  0.4766
 2162TIP3    H1 6450   2.232   2.129   4.397  2.0480 -0.3930  1.9535
 2162TIP3    H2 6451   2.375   2.081   4.393  1.8676 -0.8562 -1.2008
 2163TIP3   OH2 6452   6.466   1.722   3.942  1.0285 -0.6010  0.1455
 2163TIP3    H1 6453   6.396   1.766   3.895  1.4938 -0.2202 -0.1951
 2163TIP3    H2 6454   6.421   1.674   4.013  0.6109  1.2501  1.1867
 2164TIP3   OH2 6455   3.324   2.080   5.497 -0.5791  0.0406  0.4827
 2164TIP3    H1 6456   3.394   2.075   5.432 -1.5393  0.0650 -0.5876
 2164TIP3    H2 6457   3.369   2.084   5.581  0.6848 -1.4417 -0.0789
 2165TIP3   OH2 6458   1.322   3.271   1.408 -0.0378  0.4165 -0.1177
 2165TIP3    H1 6459   1.375   3.198   1.377  0.4482  0.6799  0.0878
 2165TIP3    H2 6460   1.261   3.232   1.470  0.4815  0.2419  0.2913
 2166TIP3   OH2 6461   2.074   3.520   2.396 -0.0463 -0.0872 -0.0469
 2166TIP3    H1 6462   2.096   3.529   2.489  0.3420  0.8606 -0.2173
 2166TIP3    H2 6463   2.055   3.609   2.367 -1.2503 -0.5190 -0.6205
 2167TIP3   OH2 6464   2.923   1.250   3.399  0.1394  0.1272  0.1724
 2167TIP3    H1 6465   2.880   1.177   3.356  0.7462  0.0633 -0.3543
 2167TIP3    H2 6466   2.927   1.226   3.492  0.3483 -0.5165  0.0002
 2168TIP3   OH2 6467   3.005   4.300   4.803  0.7446 -0.2803 -0.1326
 2168TIP3    H1 6468   3.065   4.360   4.846 -0.3773  0.6865  0.1470
 2168TIP3    H2 6469   3.054   4.265   4.729  1.5144  0.7815 -0.1393
 2169TIP3   OH2 6470   4.989   5.398   1.607 -0.5253 -0.2263 -0.2800
 2169TIP3    H1 6471   4.944   5.351   1.537 -2.5672  2.6984 -1.1291
 2169TIP3    H2 6472   4.982   5.341   1.683 -2.0530 -1.6720 -1.4321
 2170TIP3   OH2 6473   0.622   4.194   4.966  0.2366 -0.0873  0.1531
 2170TIP3    H1 6474   0.642   4.268   4.908 -1.0169  0.0080 -0.1718
 2170TIP3    H2 6475   0.533   4.210   4.995  0.2695 -1.0198  0.7902
 2171TIP3   OH2 6476   0.432   6.617   3.271  0.0065  0.7004  0.2886
 2171TIP3    H1 6477   0.460   6.707   3.290  2.1353  0.2055 -0.2284
 2171TIP3    H2 6478   0.372   6.625   3.197  1.2869  1.6188 -0.6971
 2172TIP3   OH2 6479   1.989   1.688   3.425 -0.2749 -0.1561 -0.0491
 2172TIP3    H1 6480   1.924   1.634   3.470 -0.2576  1.2097  1.6979
 2172TIP3    H2 6481   1.961   1.778   3.439  1.8076  0.4651  0.4938
 2173TIP3   OH2 6482   5.546   1.733   1.358  0.0238  0.1503 -0.4372
 2173TIP3    H1 6483   5.607   1.760   1.289  0.8862  0.2723  0.3462
 2173TIP3    H2 6484   5.597   1.743   1.439 -1.0992  0.4205  0.2509
 2174TIP3   OH2 6485   2.618   6.303   1.836  0.4211 -0.2531 -0.1096
 2174TIP3    H1 6486   2.687   6.274   1.777 -0.8891  0.1828 -1.9512
 2174TIP3    H2 6487   2.540   6.254   1.809 -0.0647 -0.6503  1.8343
 2175TIP3   OH2 6488   0.556   6.165   1.025 -0.4441 -0.0122  0.1442
 2175TIP3    H1 6489   0.588   6.142   0.937 -1.7136 -1.3939 -0.0093
 2175TIP3    H2 6490   0.502   6.243   1.011 -1.1183 -0.5619 -0.4369
 2176TIP3   OH2 6491   5.184   0.305   4.797 -0.0565 -0.0075 -0.0552
 2176TIP3    H1 6492   5.131   0.226   4.794 -1.1739  0.7260 -0.1890
 2176TIP3    H2 6493   5.240   0.300   4.720  2.7413 -2.5361  1.9042
 2177TIP3   OH2 6494   0.877   3.211   1.786 -0.3338  0.6811  0.1475
 2177TIP3    H1 6495   0.920   3.129   1.761 -0.3519  0.9753 -0.9096
 2177TIP3    H2 6496   0.860   3.255   1.702 -2.7018  0.5769  0.5054
 2178TIP3   OH2 6497   5.785   3.797   3.556 -0.0819  0.3887  0.3762
 2178TIP3    H1 6498   5.726   3.871   3.541 -0.2960  0.1664  0.1051
 2178TIP3    H2 6499   5.836   3.789   3.475 -0.0941  0.2088  0.3842
 2179TIP3   OH2 6500   1.826   1.932   1.703  0.3995  0.1937 -0.0728
 2179TIP3    H1 6501   1.861   1.980   1.628  1.0015  0.0960  0.1458
 2179TIP3    H2 6502   1.755   1.988   1.736  2.0916  1.7201  1.1421
 2180TIP3   OH2 6503   2.837   1.745   3.263 -0.9090 -0.2401 -0.1698
 2180TIP3    H1 6504   2.895   1.816   3.237 -0.3706 -0.2013  1.0468
 2180TIP3    H2 6505   2.886   1.665   3.244 -1.7182 -0.3485 -2.0220
 2181TIP3   OH2 6506   0.644   2.573   4.769  0.3948 -0.5336 -0.4274
 2181TIP3    H1 6507   0.674   2.664   4.762 -1.7175  0.1553 -1.2598
 2181TIP3    H2 6508   0.666   2.548   4.858 -0.5539  1.4306  0.4247
 2182TIP3   OH2 6509   0.671   3.800   0.674  0.4498 -0.6250 -0.2116
 2182TIP3    H1 6510   0.686   3.890   0.705  0.0075 -0.3867 -0.6680
 2182TIP3    H2 6511   0.624   3.811   0.591  1.0419 -1.2632 -0.6464
 2183TIP3   OH2 6512   2.735   0.345   0.243  0.1551  0.1069  0.2129
 2183TIP3    H1 6513   2.656   0.389   0.277 -1.0899 -0.4553 -1.7853
 2183TIP3    H2 6514   2.742   0.375   0.153  2.2042  0.0217  0.3018
 2184TIP3   OH2 6515   6.151   1.633   5.636 -0.0044  0.0635 -0.3244
 2184TIP3    H1 6516   6.062   1.662   5.656  0.0739  0.8290 -1.0183
 2184TIP3    H2 6517   6.140   1.543   5.604 -0.2957 -0.5761  1.4890
 2185TIP3   OH2 6518   3.742   0.964   3.702  0.0603  0.3502 -0.2971
 2185TIP3    H1 6519   3.799   1.040   3.693  0.3620  0.1524 -0.0638
 2185TIP3    H2 6520   3.792   0.892   3.663 -0.9888  0.6274 -2.2997
 2186TIP3   OH2 6521   3.494   5.507   2.988  0.0732 -0.3254 -0.0806
 2186TIP3    H1 6522   3.469   5.595   3.018 -1.0819 -0.5602 -0.3241
 2186TIP3    H2 6523   3.535   5.523   2.902  0.1174  0.0029 -0.0019
 2187TIP3   OH2 6524   3.310   2.030   1.014 -0.2068  0.1475  0.0695
 2187TIP3    H1 6525   3.296   2.096   1.082 -1.0048  0.0012  0.0594
 2187TIP3    H2 6526   3.254   2.058   0.942 -1.8693 -1.4064  0.6754
 2188TIP3   OH2 6527   1.383   5.085   3.511  0.3132  0.1247 -0.2901
 2188TIP3    H1 6528   1.451   5.142   3.546  1.7869 -1.9207  0.3286
 2188TIP3    H2 6529   1.301   5.123   3.543  1.3391  1.0001  1.4071
 2189TIP3   OH2 6530   4.109   4.171   1.325 -0.4499 -0.0796 -0.2453
 2189TIP3    H1 6531   4.129   4.165   1.231 -1.7629 -0.6111 -0.5116
 2189TIP3    H2 6532   4.095   4.081   1.352 -0.6961  0.1271  0.3233
 2190TIP3   OH2 6533   1.682   3.269   0.378  0.4158 -0.2495  0.2566
 2190TIP3    H1 6534   1.722   3.299   0.460  1.5615  1.2593 -0.8020
 2190TIP3    H2 6535   1.691   3.174   0.381  2.5172 -0.0844  0.8851
 2191TIP3   OH2 6536   3.649   1.358   4.106 -0.2491  0.0528 -0.0223
 2191TIP3    H1 6537   3.611   1.440   4.073  0.4501  0.5437  0.3644
 2191TIP3    H2 6538   3.599   1.337   4.184  0.6456  1.0273  0.8347
 2192TIP3   OH2 6539   2.371   0.556   4.863 -0.0384 -0.2507 -0.3443
 2192TIP3    H1 6540   2.297   0.525   4.915  0.0937 -0.2776 -0.1706
 2192TIP3    H2 6541   2.421   0.476   4.844 -0.0513 -0.2322 -0.4580
 2193TIP3   OH2 6542   3.291   4.028   0.672  0.2181  0.1291  0.0974
 2193TIP3    H1 6543   3.270   4.023   0.578  1.4023 -0.1338 -0.1655
 2193TIP3    H2 6544   3.253   3.948   0.708  0.0612  0.0544 -0.2222
 2194TIP3   OH2 6545   2.461   2.453   5.289 -0.1055  0.3965 -0.3436
 2194TIP3    H1 6546   2.513   2.380   5.323  0.8775  1.4891  0.6247
 2194TIP3    H2 6547   2.408   2.415   5.220  0.5672 -1.1769 -0.0423
 2195TIP3   OH2 6548   0.148   3.660   2.193 -0.3891  0.6150  0.1242
 2195TIP3    H1 6549   0.172   3.645   2.284 -0.6954 -0.7606 -0.0065
 2195TIP3    H2 6550   0.220   3.623   2.142 -1.1769 -0.5005 -0.2115
 2196TIP3   OH2 6551   4.560   4.861   5.146 -0.2171 -0.2995  0.4365
 2196TIP3    H1 6552   4.606   4.790   5.191 -3.2119 -2.4723  0.4060
 2196TIP3    H2 6553   4.597   4.860   5.057  1.7570  0.1674  1.2055
 2197TIP3   OH2 6554   5.397   3.268   3.506 -0.0041  0.0431 -0.0039
 2197TIP3    H1 6555   5.360   3.212   3.438 -1.8075  0.9286  0.1941
 2197TIP3    H2 6556   5.446   3.207   3.562 -0.6381 -1.0996 -0.6455
 2198TIP3   OH2 6557   4.513   3.605   2.270  0.2456  0.1007 -0.2996
 2198TIP3    H1 6558   4.591   3.561   2.236  0.4701  0.7785 -0.6734
 2198TIP3    H2 6559   4.542   3.694   2.290  0.0226 -0.1649  1.3220
 2199TIP3   OH2 6560   0.024   4.441   5.796 -0.6208  0.1260 -0.2952
 2199TIP3    H1 6561  -0.013   4.366   5.843 -0.5922  0.1531 -0.2279
 2199TIP3    H2 6562   0.078   4.486   5.862 -1.2715  0.6505 -0.1065
 2200TIP3   OH2 6563   6.853   2.241   4.739 -0.2510 -0.5269 -0.0063
 2200TIP3    H1 6564   6.829   2.173   4.802  2.4579  0.8106  2.7125
 2200TIP3    H2 6565   6.911   2.197   4.677 -0.9132 -1.3187 -0.0792
 2201TIP3   OH2 6566   6.059   2.989   4.788 -0.0806 -0.3044 -0.9108
 2201TIP3    H1 6567   5.973   2.965   4.753 -0.0225 -1.2711 -0.4121
 2201TIP3    H2 6568   6.098   3.043   4.720 -1.5504  1.1677 -0.6684
 2202TIP3   OH2 6569   0.277   6.226   3.427  0.6478  0.2158  0.2024
 2202TIP3    H1 6570   0.281   6.318   3.451 -0.4457 -0.2594  2.5379
 2202TIP3    H2 6571   0.185   6.211   3.407  0.8156 -0.3611 -0.1519
 2203TIP3   OH2 6572   2.054   5.824   0.904 -0.2814  0.2625 -0.6177
 2203TIP3    H1 6573   2.085   5.901   0.857 -1.8331  1.6699  0.5604
 2203TIP3    H2 6574   2.094   5.830   0.991  0.1175 -0.6392 -0.7230
 2204TIP3   OH2 6575   1.679   1.805   0.570 -0.5045  0.4070  0.6083
 2204TIP3    H1 6576   1.660   1.898   0.564  0.0293  0.4911  0.1196
 2204TIP3    H2 6577   1.743   1.789   0.501  1.1001  0.1122  2.1008
 2205TIP3   OH2 6578   5.543   4.888   1.026  0.2047 -0.1098  0.2916
 2205TIP3    H1 6579   5.584   4.892   0.940 -0.4271  0.0354 -0.0091
 2205TIP3    H2 6580   5.587   4.957   1.076 -1.1006  1.5094 -0.6750
 2206TIP3   OH2 6581   6.114   0.980   2.870 -0.4961  0.2265  0.2197
 2206TIP3    H1 6582   6.204   1.011   2.865  0.3104 -1.6841  1.7833
 2206TIP3    H2 6583   6.078   1.020   2.949 -0.9181  0.7080 -0.2088
 2207TIP3   OH2 6584   0.288   2.361   4.789 -0.0828  0.0311  0.2947
 2207TIP3    H1 6585   0.341   2.293   4.832  0.8937  0.8328  0.3840
 2207TIP3    H2 6586   0.352   2.416   4.744 -1.0803 -0.8281 -2.3130
 2208TIP3   OH2 6587   5.851   3.977   1.399 -0.3075 -0.5046  0.6220
 2208TIP3    H1 6588   5.784   3.911   1.381 -0.3744 -0.2273 -0.1668
 2208TIP3    H2 6589   5.933   3.928   1.406 -0.4481 -0.7342  0.6396
 2209TIP3   OH2 6590   6.044   3.568   3.161 -0.0739  1.0491 -0.2080
 2209TIP3    H1 6591   6.027   3.524   3.244  1.2508  1.4026  0.2721
 2209TIP3    H2 6592   6.120   3.522   3.124 -1.9101 -0.5238 -2.3117
 2210TIP3   OH2 6593   4.738   4.009   3.525 -0.5218 -0.0292  0.2544
 2210TIP3    H1 6594   4.654   4.036   3.488  0.5469  1.7037 -1.0694
 2210TIP3    H2 6595   4.803   4.048   3.467  1.2516  1.3018  2.9556
 2211TIP3   OH2 6596   0.294   5.576   2.385  0.0028  0.5437  0.1211
 2211TIP3    H1 6597   0.213   5.624   2.400 -0.5528 -0.1461 -0.5992
 2211TIP3    H2 6598   0.298   5.512   2.457 -0.6962 -0.1955 -0.4830
 2212TIP3   OH2 6599   4.428   0.775   2.757  0.3606  0.0620 -0.3412
 2212TIP3    H1 6600   4.436   0.755   2.664  1.6623  0.2871 -0.2890
 2212TIP3    H2 6601   4.511   0.815   2.781 -0.5455  1.5414  0.5494
 2213TIP3   OH2 6602   3.841   1.043   4.310 -0.0537  0.3767 -0.4742
 2213TIP3    H1 6603   3.859   1.047   4.404  2.0028  0.8383 -0.8391
 2213TIP3    H2 6604   3.888   1.118   4.273  1.4973 -1.3013 -2.1709
 2214TIP3   OH2 6605   1.282   5.122   0.621 -0.4352 -0.4920  0.3082
 2214TIP3    H1 6606   1.242   5.070   0.551 -1.5590  0.0358  0.5346
 2214TIP3    H2 6607   1.290   5.210   0.584  2.5990 -1.0006 -0.5180
 2215TIP3   OH2 6608   6.653   1.050   2.998  0.1420 -0.1255 -0.2537
 2215TIP3    H1 6609   6.731   1.009   2.960  0.5798  0.2477  0.2273
 2215TIP3    H2 6610   6.677   1.067   3.089 -1.0509 -1.3978  0.3161
 2216TIP3   OH2 6611   6.954   6.610   3.782  0.1128 -0.4623  0.1477
 2216TIP3    H1 6612   6.955   6.686   3.724  0.7653 -0.4528  0.1648
 2216TIP3    H2 6613   6.992   6.641   3.864  1.8128 -1.1554 -0.3201
 2217TIP3   OH2 6614   6.209   4.192   4.133 -0.3070  0.3639 -0.0299
 2217TIP3    H1 6615   6.249   4.158   4.052 -0.1229 -0.8872  0.5586
 2217TIP3    H2 6616   6.194   4.285   4.115 -1.0002 -0.0481 -1.7886
 2218TIP3   OH2 6617   4.564   5.307   5.803 -0.0538  0.4905 -0.3069
 2218TIP3    H1 6618   4.540   5.258   5.724 -0.9032 -1.1445  0.8844
 2218TIP3    H2 6619   4.648   5.347   5.782  0.0561 -0.4423 -1.8227
 2219TIP3   OH2 6620   1.260   2.630   2.004 -0.2282  0.4743 -0.0298
 2219TIP3    H1 6621   1.314   2.568   1.955 -0.3681  0.5768 -0.3164
 2219TIP3    H2 6622   1.322   2.681   2.056 -0.1665 -0.4417  0.8313
 2220TIP3   OH2 6623   0.716   2.464   1.362 -0.0417  0.3863  0.2684
 2220TIP3    H1 6624   0.766   2.397   1.316  1.2631  0.4575  1.5098
 2220TIP3    H2 6625   0.658   2.416   1.421 -1.2235  0.3151 -0.8980
 2221TIP3   OH2 6626   1.720   1.428   0.237 -0.2483 -0.4113 -0.1564
 2221TIP3    H1 6627   1.649   1.425   0.300 -0.9430 -0.3473 -0.9157
 2221TIP3    H2 6628   1.717   1.343   0.193  0.2838 -0.4907 -0.0495
 2222TIP3   OH2 6629   5.336   1.151   0.274 -0.3604 -0.1773  0.1355
 2222TIP3    H1 6630   5.310   1.161   0.366 -2.0441  1.7101 -0.4752
 2222TIP3    H2 6631   5.369   1.062   0.269  0.1541 -0.2219  2.6524
 2223TIP3   OH2 6632   6.550   4.689   4.516  0.4757 -0.5294  0.3666
 2223TIP3    H1 6633   6.606   4.706   4.592  2.0154 -1.9091 -0.3812
 2223TIP3    H2 6634   6.528   4.596   4.522 -1.2815 -0.1569  0.2956
 2224TIP3   OH2 6635   0.960   2.782   4.066  0.3318  0.6456 -0.0938
 2224TIP3    H1 6636   0.956   2.693   4.033  0.7718  1.1090 -1.4838
 2224TIP3    H2 6637   1.042   2.817   4.029  1.6734  0.7494  2.7280
 2225TIP3   OH2 6638   3.937   4.620   0.191  0.4242  0.1573  0.0550
 2225TIP3    H1 6639   3.968   4.606   0.101  0.9056 -2.3276  0.5231
 2225TIP3    H2 6640   4.017   4.636   0.241  0.5821 -1.8074  0.5276
 2226TIP3   OH2 6641   0.850   2.801   5.071 -0.6376 -0.6560  0.0743
 2226TIP3    H1 6642   0.871   2.709   5.083 -0.6244 -0.9718 -1.9392
 2226TIP3    H2 6643   0.757   2.803   5.049 -0.7062 -0.1535  0.3769
 2227TIP3   OH2 6644   7.049   6.121   3.562 -0.0347 -0.1903  0.0958
 2227TIP3    H1 6645   7.091   6.138   3.646  0.5037 -0.6836 -0.0678
 2227TIP3    H2 6646   6.990   6.047   3.579  0.8206 -0.9593 -0.1769
 2228TIP3   OH2 6647   3.320   6.540   5.301  0.7291  0.5732 -0.0850
 2228TIP3    H1 6648   3.329   6.569   5.392  1.3698  1.3393 -0.3831
 2228TIP3    H2 6649   3.396   6.578   5.256 -0.1959  1.1568 -1.1816
 2229TIP3   OH2 6650   6.498   3.769   1.421 -0.2992 -0.3974  0.0175
 2229TIP3    H1 6651   6.424   3.823   1.391 -0.5997 -1.0439 -0.4355
 2229TIP3    H2 6652   6.574   3.825   1.412  0.0093 -1.1790 -4.1894
 2230TIP3   OH2 6653   5.168   0.248   2.467 -0.6272  0.3356 -0.3969
 2230TIP3    H1 6654   5.139   0.321   2.413 -1.3723 -0.0027 -0.4666
 2230TIP3    H2 6655   5.109   0.177   2.445 -2.2207  0.7117  2.2083
 2231TIP3   OH2 6656   3.454   3.649   1.936 -0.1268 -0.9915 -0.1698
 2231TIP3    H1 6657   3.466   3.559   1.905  0.1038 -0.3395 -2.0992
 2231TIP3    H2 6658   3.360   3.655   1.954  0.0513 -1.9683  1.2156
 2232TIP3   OH2 6659   3.474   0.985   2.066 -0.0862  0.2268  0.0405
 2232TIP3    H1 6660   3.563   1.018   2.051 -0.2759  0.7355  0.0143
 2232TIP3    H2 6661   3.470   0.904   2.014 -0.4047  1.4385 -1.9536
 2233TIP3   OH2 6662   0.168   1.273   2.066  0.0174 -0.3620  0.4003
 2233TIP3    H1 6663   0.168   1.368   2.069  1.6023 -0.3539  1.2961
 2233TIP3    H2 6664   0.076   1.249   2.073 -0.4494  1.0980 -0.3357
 2234TIP3   OH2 6665   6.960   6.500   0.274  0.3117 -0.2160 -0.2351
 2234TIP3    H1 6666   7.027   6.479   0.208 -0.3319  0.9157 -1.2626
 2234TIP3    H2 6667   7.010   6.538   0.346  0.6267  2.9586 -1.9771
 2235TIP3   OH2 6668   3.006   0.146   5.675 -0.6663 -0.2565 -0.4414
 2235TIP3    H1 6669   3.097   0.162   5.701 -0.0914 -1.1971 -1.7283
 2235TIP3    H2 6670   2.961   0.126   5.757 -0.1399  1.9414  0.4551
 2236TIP3   OH2 6671   5.101   2.914   4.110  0.0922  0.0924  0.2168
 2236TIP3    H1 6672   5.146   2.902   4.193 -0.9126 -0.2541  0.7335
 2236TIP3    H2 6673   5.013   2.880   4.126 -0.0164 -0.3092 -1.0888
 2237TIP3   OH2 6674   3.075   0.722   4.781 -0.1522 -0.5266 -0.3471
 2237TIP3    H1 6675   3.118   0.779   4.718  2.3326 -0.8707  0.8996
 2237TIP3    H2 6676   2.982   0.725   4.757  0.1701  2.2652 -1.6548
 2238TIP3   OH2 6677   3.638   3.809   2.476  0.0844  0.1756  0.2727
 2238TIP3    H1 6678   3.554   3.778   2.510  0.0735 -0.8812 -0.6461
 2238TIP3    H2 6679   3.646   3.898   2.509 -3.1976  1.7901 -2.6082
 2239TIP3   OH2 6680   0.284   0.034   0.843 -0.0661  0.0791 -0.0216
 2239TIP3    H1 6681   0.302  -0.028   0.773  0.5928  0.3462 -0.0949
 2239TIP3    H2 6682   0.228   0.100   0.803  0.8048  0.5582 -0.4725
 2240TIP3   OH2 6683   0.056   1.619   3.591  0.6027  0.6573 -0.0572
 2240TIP3    H1 6684  -0.007   1.690   3.586  1.0240  1.0518  0.1192
 2240TIP3    H2 6685   0.031   1.559   3.521  0.4846  1.1835 -0.4725
 2241TIP3   OH2 6686   1.711   4.942   5.160  0.0302  0.0691 -0.0546
 2241TIP3    H1 6687   1.627   4.941   5.207 -0.1312  0.5296 -0.3228
 2241TIP3    H2 6688   1.755   4.862   5.188  0.2468  0.6660  1.4372
 2242TIP3   OH2 6689   4.291   2.216   0.330  0.1689  0.3263 -0.0262
 2242TIP3    H1 6690   4.281   2.295   0.277 -2.1316  1.2609  1.6240
 2242TIP3    H2 6691   4.235   2.151   0.288  0.2113  0.3097 -0.0574
 2243TIP3   OH2 6692   0.659   6.205   3.957  0.1011 -0.9404  0.2220
 2243TIP3    H1 6693   0.577   6.158   3.944 -0.3752 -0.0673 -0.0365
 2243TIP3    H2 6694   0.646   6.256   4.037  0.0830 -0.1732 -0.2592
 2244TIP3   OH2 6695   0.799   5.810   0.534  0.2901  0.7169 -0.1070
 2244TIP3    H1 6696   0.887   5.842   0.517  1.1713 -0.5694  1.7386
 2244TIP3    H2 6697   0.776   5.761   0.455  1.7044  0.1074 -0.1672
 2245TIP3   OH2 6698   4.023   2.718   1.322  0.3380  0.0625 -0.0341
 2245TIP3    H1 6699   3.974   2.636   1.326  2.0075 -0.9666  0.2192
 2245TIP3    H2 6700   4.031   2.737   1.229  1.0293 -0.7671 -0.1566
 2246TIP3   OH2 6701   0.295   1.687   2.693 -1.0634 -0.4080  0.1226
 2246TIP3    H1 6702   0.381   1.663   2.727 -0.3520 -0.0410 -1.3363
 2246TIP3    H2 6703   0.249   1.604   2.681 -0.1927 -0.7609 -0.8922
 2247TIP3   OH2 6704   6.484   4.402   1.467  0.5858  0.1713  0.5937
 2247TIP3    H1 6705   6.428   4.450   1.527  0.2598  1.6553 -0.8249
 2247TIP3    H2 6706   6.444   4.316   1.460 -0.4192  0.5888  1.0667
 2248TIP3   OH2 6707   2.693   4.090   0.311 -0.5943  0.3685 -0.1272
 2248TIP3    H1 6708   2.768   4.140   0.279  0.1665  0.7405  2.0662
 2248TIP3    H2 6709   2.714   3.999   0.290  1.3534  0.2641  1.9142
 2249TIP3   OH2 6710   3.604   1.974   3.035  0.0706 -0.4590  0.5980
 2249TIP3    H1 6711   3.596   2.007   2.945  1.1895 -0.9147  0.3126
 2249TIP3    H2 6712   3.603   1.879   3.026  1.4428 -0.5238  0.9148
 2250TIP3   OH2 6713   2.355   2.082   3.440 -0.3926  0.0724 -0.3216
 2250TIP3    H1 6714   2.442   2.120   3.423  0.4178 -0.1043  2.8878
 2250TIP3    H2 6715   2.360   1.995   3.402  0.8860  0.0260 -0.1064
 2251TIP3   OH2 6716   2.859   0.240   3.009  0.1714  0.9411 -0.3743
 2251TIP3    H1 6717   2.771   0.211   2.986  0.7277 -0.1959 -1.1676
 2251TIP3    H2 6718   2.846   0.305   3.078 -1.3302  1.5007 -1.1475
 2252TIP3   OH2 6719   4.845   2.766   0.044 -0.2264 -0.0507 -0.2588
 2252TIP3    H1 6720   4.911   2.716  -0.003 -1.1144 -0.1321 -1.4531
 2252TIP3    H2 6721   4.870   2.757   0.136  1.3831 -0.1137 -0.6714
 2253TIP3   OH2 6722   3.318   5.047   4.885  0.0712  0.1705 -0.4204
 2253TIP3    H1 6723   3.347   5.133   4.913 -0.8051  0.1918  0.4746
 2253TIP3    H2 6724   3.242   5.064   4.830 -1.4892 -0.0888  1.5610
 2254TIP3   OH2 6725   5.334   2.312   0.959  0.2789  0.2795  0.1647
 2254TIP3    H1 6726   5.310   2.345   1.046  1.5041  2.3174 -0.2005
 2254TIP3    H2 6727   5.384   2.384   0.920 -2.1528  0.3729 -3.1460
 2255TIP3   OH2 6728   0.452   0.710   1.696 -0.1690 -0.3989  0.1461
 2255TIP3    H1 6729   0.477   0.701   1.789 -0.9250 -1.6648  0.2569
 2255TIP3    H2 6730   0.363   0.676   1.693  0.8381 -3.2464 -1.5246
 2256TIP3   OH2 6731   1.575   5.587   1.707  0.5225 -0.6830 -0.2065
 2256TIP3    H1 6732   1.589   5.528   1.781  2.8134  0.3997  0.2892
 2256TIP3    H2 6733   1.590   5.532   1.630 -0.0710 -1.3794  0.1546
 2257TIP3   OH2 6734   5.563   0.379   0.379 -0.3905 -0.2790  0.0310
 2257TIP3    H1 6735   5.474   0.402   0.408  0.1839  1.8352  0.2888
 2257TIP3    H2 6736   5.620   0.416   0.445  0.7288 -1.0274 -0.4903
 2258TIP3   OH2 6737   4.924   2.546   0.437 -0.0691  0.0516 -0.1472
 2258TIP3    H1 6738   4.879   2.584   0.512  1.2451 -1.4409  1.4946
 2258TIP3    H2 6739   4.859   2.490   0.395 -0.7911  0.8190 -0.0644
 2259TIP3   OH2 6740   4.684   1.171   5.627  0.1561  0.0247  0.2022
 2259TIP3    H1 6741   4.722   1.136   5.546  1.1423 -1.0883  1.1014
 2259TIP3    H2 6742   4.603   1.122   5.639 -0.1730  0.4442 -0.2939
 2260TIP3   OH2 6743   0.737   2.166   0.211 -0.6996 -0.3575 -0.1947
 2260TIP3    H1 6744   0.695   2.156   0.296 -0.4108  0.0870  0.0068
 2260TIP3    H2 6745   0.678   2.224   0.162  0.4505  1.6540  0.6701
 2261TIP3   OH2 6746   2.256   5.072   4.178 -0.1080 -0.2271 -0.0403
 2261TIP3    H1 6747   2.185   5.044   4.121 -1.5047  1.6485  0.6994
 2261TIP3    H2 6748   2.214   5.092   4.262  1.6218 -1.1452  1.1228
 2262TIP3   OH2 6749   2.226   3.055   2.214 -0.3469  0.0368  0.2753
 2262TIP3    H1 6750   2.134   3.076   2.229 -0.5559 -0.6708  0.0509
 2262TIP3    H2 6751   2.274   3.131   2.246 -0.8850 -0.4053  2.3418
 2263TIP3   OH2 6752   5.047   3.982   2.512  0.0659 -0.2276 -0.2475
 2263TIP3    H1 6753   5.055   3.971   2.607 -1.1524 -0.9290 -0.2024
 2263TIP3    H2 6754   5.121   4.038   2.488 -0.7627  1.7193  1.4306
 2264TIP3   OH2 6755   1.079   4.739   1.645  0.1344  0.3766 -0.3943
 2264TIP3    H1 6756   1.134   4.700   1.577 -0.3080 -0.0928 -0.4876
 2264TIP3    H2 6757   0.993   4.699   1.633  0.2471 -0.3346  0.9435
 2265TIP3   OH2 6758   4.017   4.448   3.366 -0.4909 -0.8616  0.4043
 2265TIP3    H1 6759   3.970   4.515   3.415 -0.1723  0.4107 -0.9281
 2265TIP3    H2 6760   3.951   4.405   3.313 -0.4539 -0.3869 -0.0368
 2266TIP3   OH2 6761   6.476   0.939   1.009 -0.3799  0.1941  0.0330
 2266TIP3    H1 6762   6.551   0.881   1.025  0.0285  0.2166 -1.6504
 2266TIP3    H2 6763   6.512   1.027   1.021  0.0159  0.2250 -1.2552
 2267TIP3   OH2 6764   2.235   1.660   4.648 -0.0565 -0.1790  0.4914
 2267TIP3    H1 6765   2.149   1.652   4.689 -0.1678 -0.3817  0.2191
 2267TIP3    H2 6766   2.281   1.726   4.701  0.1411 -1.1162  1.5105
 2268TIP3   OH2 6767   4.164   6.007   5.257  0.0397 -0.4499  0.5140
 2268TIP3    H1 6768   4.222   6.001   5.181 -1.5523 -0.5800 -0.7331
 2268TIP3    H2 6769   4.141   6.100   5.262  0.3354 -0.3981  1.0129
 2269TIP3   OH2 6770   6.130   2.401   2.507  0.3345  0.8256 -0.4497
 2269TIP3    H1 6771   6.223   2.423   2.504  0.0543  2.3503  0.6166
 2269TIP3    H2 6772   6.089   2.478   2.546 -1.1966 -0.3670  0.4148
 2270TIP3   OH2 6773   2.241   2.346   5.614  0.0688 -0.2369 -0.4190
 2270TIP3    H1 6774   2.229   2.394   5.696 -0.3670 -0.8448 -0.1168
 2270TIP3    H2 6775   2.155   2.350   5.571  0.7392  1.6043 -1.7142
 2271TIP3   OH2 6776   3.217   5.003   0.822 -0.2069 -0.8625 -0.3847
 2271TIP3    H1 6777   3.256   5.055   0.752 -2.9487 -0.5399 -1.8056
 2271TIP3    H2 6778   3.198   5.067   0.892  1.0014 -0.8940 -0.0070
 2272TIP3   OH2 6779   4.037   4.048   2.867 -0.0074 -0.4068  0.2220
 2272TIP3    H1 6780   4.009   3.997   2.943 -0.8903 -0.8299 -0.3707
 2272TIP3    H2 6781   4.063   3.982   2.803  0.8031 -0.0511  0.1813
 2273TIP3   OH2 6782   5.892   5.526   5.488 -0.2595  0.4557 -0.4573
 2273TIP3    H1 6783   5.840   5.475   5.426 -1.1102  1.0693 -0.2743
 2273TIP3    H2 6784   5.931   5.460   5.546  0.4362 -0.1138 -1.5308
 2274TIP3   OH2 6785  -0.032   1.487   5.588  0.0038  0.1939 -0.1075
 2274TIP3    H1 6786   0.044   1.489   5.530  0.0764  1.2410 -0.0046
 2274TIP3    H2 6787   0.002   1.455   5.671  0.5896  1.6511  0.2527
 2275TIP3   OH2 6788   3.339   4.885   1.861  0.5239  0.5547 -0.2393
 2275TIP3    H1 6789   3.321   4.798   1.895 -0.9500  1.3837  1.2121
 2275TIP3    H2 6790   3.266   4.903   1.801 -0.0136  1.3534  0.6250
 2276TIP3   OH2 6791   3.043   4.836   0.535 -0.0084  0.2145  0.1348
 2276TIP3    H1 6792   2.977   4.769   0.551 -0.8604  0.9208 -0.3709
 2276TIP3    H2 6793   3.115   4.813   0.594 -0.3733 -1.0187  0.1164
 2277TIP3   OH2 6794   5.663   5.751   1.190 -0.5788  0.0190 -0.2355
 2277TIP3    H1 6795   5.587   5.809   1.179  0.2158  0.6568 -3.0373
 2277TIP3    H2 6796   5.641   5.673   1.139  0.9852  0.6380 -1.9753
 2278TIP3   OH2 6797   2.282   4.394   1.719 -0.2373 -0.1588  0.2161
 2278TIP3    H1 6798   2.316   4.365   1.634 -0.6043 -1.8955  0.6240
 2278TIP3    H2 6799   2.310   4.485   1.726  1.2745 -0.4896 -0.9987
 2279TIP3   OH2 6800   0.367   2.550   3.475 -0.2050  0.2152  0.3418
 2279TIP3    H1 6801   0.461   2.552   3.492 -0.4661  0.0694  1.9106
 2279TIP3    H2 6802   0.356   2.606   3.398  1.2462 -0.4340 -0.3840
 2280TIP3   OH2 6803   1.181   4.011   0.466  0.1435 -0.4094  0.0238
 2280TIP3    H1 6804   1.268   3.977   0.448  0.2690  0.3586 -0.8704
 2280TIP3    H2 6805   1.155   4.056   0.385  0.3942  2.4681  1.3963
 2281TIP3   OH2 6806   1.282   5.668   3.678 -0.0115  0.5523  0.3407
 2281TIP3    H1 6807   1.250   5.757   3.693  1.8914  1.4889 -0.7916
 2281TIP3    H2 6808   1.369   5.667   3.719  0.3677 -0.4927 -0.4476
 2282TIP3   OH2 6809   2.197   0.847   4.931  0.1041 -0.0464  0.0019
 2282TIP3    H1 6810   2.177   0.923   4.876  1.7938  0.5342  0.1260
 2282TIP3    H2 6811   2.126   0.785   4.914 -0.2092  0.7248 -1.6975
 2283TIP3   OH2 6812   3.167   3.120   3.708 -0.3704 -0.4769 -0.2931
 2283TIP3    H1 6813   3.140   3.206   3.678 -0.2883 -0.4926 -0.4142
 2283TIP3    H2 6814   3.113   3.058   3.659 -0.3518 -0.4982 -0.2871
 2284TIP3   OH2 6815   2.523   0.289   1.588 -0.3331  0.3969  0.1096
 2284TIP3    H1 6816   2.447   0.234   1.609 -2.0513  2.5666 -0.0714
 2284TIP3    H2 6817   2.496   0.338   1.511  1.2400  1.2656  0.0780
 2285TIP3   OH2 6818   6.784   3.953   5.808 -0.2239 -0.6019 -0.6134
 2285TIP3    H1 6819   6.789   4.021   5.875  0.9043 -0.4605 -0.8124
 2285TIP3    H2 6820   6.757   3.875   5.855  0.4769 -0.4807  0.0074
 2286TIP3   OH2 6821   5.647   5.777   4.731 -0.5735 -0.3910 -0.0653
 2286TIP3    H1 6822   5.610   5.742   4.650 -0.1221 -1.7984  0.3099
 2286TIP3    H2 6823   5.621   5.714   4.799  0.2061  0.0254  0.6432
 2287TIP3   OH2 6824   6.694   1.810   1.608 -0.3802  0.3507 -0.0172
 2287TIP3    H1 6825   6.776   1.764   1.592  0.2785  1.0496  1.2440
 2287TIP3    H2 6826   6.660   1.772   1.689 -1.3798 -0.0111 -0.5860
 2288TIP3   OH2 6827   4.074   0.909   1.492  0.4005  0.1669  0.2459
 2288TIP3    H1 6828   4.140   0.871   1.433  2.2616  1.2162  1.5348
 2288TIP3    H2 6829   4.120   0.920   1.575 -1.0401  2.1180  0.8689
 2289TIP3   OH2 6830   5.852   5.872   1.476  0.1498 -0.2247  0.0758
 2289TIP3    H1 6831   5.825   5.898   1.564 -1.1067 -0.3828 -0.2497
 2289TIP3    H2 6832   5.855   5.776   1.480  1.2675 -0.1976  0.2654
 2290TIP3   OH2 6833   4.100   6.422   4.860 -0.3605 -0.5731 -0.0301
 2290TIP3    H1 6834   4.043   6.368   4.806  0.1597  0.1310 -1.3292
 2290TIP3    H2 6835   4.186   6.417   4.817 -0.1418  0.7131  0.2118
 2291TIP3   OH2 6836   5.413   6.311   1.639  0.1797 -0.3747 -0.7085
 2291TIP3    H1 6837   5.451   6.325   1.552 -0.7600  0.2677 -1.0342
 2291TIP3    H2 6838   5.340   6.251   1.624  1.2349 -1.8662 -0.0359
 2292TIP3   OH2 6839   6.497   4.093   0.290  0.0434 -0.3774  0.7394
 2292TIP3    H1 6840   6.567   4.029   0.281  1.4448  1.2788 -1.2068
 2292TIP3    H2 6841   6.450   4.089   0.206 -3.3797 -2.5508  2.4885
 2293TIP3   OH2 6842   2.507   0.427   3.367 -0.6648  0.2092  0.5041
 2293TIP3    H1 6843   2.494   0.485   3.292 -1.0805 -0.1285  0.3086
 2293TIP3    H2 6844   2.579   0.467   3.417  2.5397 -1.6529 -2.2029
 2294TIP3   OH2 6845   6.727   3.869   1.219 -0.3974 -0.6231  0.0191
 2294TIP3    H1 6846   6.774   3.906   1.144  0.0800 -1.0997  0.0767
 2294TIP3    H2 6847   6.713   3.777   1.196 -0.2662 -0.7661  0.5033
 2295TIP3   OH2 6848   5.447   4.910   2.949 -0.6172 -0.7342  0.2366
 2295TIP3    H1 6849   5.421   4.979   3.010 -0.6164  0.5888 -1.2180
 2295TIP3    H2 6850   5.510   4.858   2.999 -2.1572 -0.9641  2.0734
 2296TIP3   OH2 6851   5.099   0.904   1.048 -0.5003 -0.0650 -0.5154
 2296TIP3    H1 6852   5.193   0.917   1.048 -0.4412 -0.4658 -0.0620
 2296TIP3    H2 6853   5.079   0.875   1.137 -0.9940 -0.3959 -0.7325
 2297TIP3   OH2 6854   3.940   2.305   1.723  0.7141 -0.0356 -0.6455
 2297TIP3    H1 6855   3.978   2.281   1.808  0.0331  1.0750  0.0032
 2297TIP3    H2 6856   3.993   2.379   1.694  0.2677  0.2811 -0.6604
 2298TIP3   OH2 6857   3.466   1.579   4.738 -0.4428 -0.1415 -0.3265
 2298TIP3    H1 6858   3.373   1.592   4.753 -0.4017  0.0259 -0.2166
 2298TIP3    H2 6859   3.470   1.513   4.669 -0.6343 -0.8145  0.2895
 2299TIP3   OH2 6860   3.296   2.376   2.333 -0.0636 -0.1163 -0.2822
 2299TIP3    H1 6861   3.237   2.317   2.285 -0.9805 -0.1618  0.8242
 2299TIP3    H2 6862   3.257   2.463   2.323 -0.5694 -0.1967  0.7508
 2300TIP3   OH2 6863   2.873   3.309   4.262 -0.5184 -0.2465 -0.0662
 2300TIP3    H1 6864   2.807   3.240   4.272 -0.7656 -0.0534 -0.3687
 2300TIP3    H2 6865   2.828   3.389   4.289  0.1668 -0.3878  1.5926
 2301TIP3   OH2 6866   0.831   1.152   5.002 -0.0874  0.2128 -0.1457
 2301TIP3    H1 6867   0.918   1.190   4.990 -0.1543  0.2740 -0.4276
 2301TIP3    H2 6868   0.790   1.156   4.916  0.6325 -2.2819 -0.6950
 2302TIP3   OH2 6869   2.246   5.977   1.808  0.3135  0.5462  0.1303
 2302TIP3    H1 6870   2.162   5.986   1.762  0.1500  1.2880  0.5625
 2302TIP3    H2 6871   2.221   5.957   1.898  0.6347 -2.5262 -0.3454
 2303TIP3   OH2 6872   5.756   0.831   4.641 -0.8119 -0.7046  0.1864
 2303TIP3    H1 6873   5.718   0.743   4.629 -1.1479 -0.3696 -1.3974
 2303TIP3    H2 6874   5.754   0.870   4.554 -3.5617  2.0561  1.2758
 2304TIP3   OH2 6875   2.450   4.732   3.711 -0.5492 -0.1617 -0.6607
 2304TIP3    H1 6876   2.378   4.682   3.751 -1.6093  1.3170 -0.6368
 2304TIP3    H2 6877   2.509   4.665   3.678 -2.8735 -1.5286 -2.4180
 2305TIP3   OH2 6878   3.342   1.422   5.110 -0.7616  0.3371 -0.2661
 2305TIP3    H1 6879   3.286   1.366   5.057 -0.5630 -1.1478  1.0237
 2305TIP3    H2 6880   3.359   1.499   5.055 -0.3726 -1.2058 -2.3960
 2306TIP3   OH2 6881   2.090   2.111   3.505 -0.1623  0.9712 -0.0529
 2306TIP3    H1 6882   2.025   2.168   3.464 -0.7896 -2.5294 -4.8989
 2306TIP3    H2 6883   2.172   2.135   3.463  0.2173  0.5629  0.4512
 2307TIP3   OH2 6884   4.443   3.615   0.121  0.4086  0.4840  0.0470
 2307TIP3    H1 6885   4.526   3.644   0.083  0.2700 -0.0023 -0.6549
 2307TIP3    H2 6886   4.446   3.519   0.114 -0.4148  0.4821 -0.4301
 2308TIP3   OH2 6887   1.681   5.280   4.804 -0.3418 -0.0445 -0.6230
 2308TIP3    H1 6888   1.746   5.308   4.869 -0.3381 -1.8234  0.2095
 2308TIP3    H2 6889   1.643   5.361   4.772  1.8691  1.0437 -0.7155
 2309TIP3   OH2 6890   4.142   3.427   0.651  0.1904  0.2958 -0.2646
 2309TIP3    H1 6891   4.139   3.379   0.568 -1.2573 -1.4689  0.7368
 2309TIP3    H2 6892   4.192   3.371   0.709 -1.7308 -0.1820  1.0046
 2310TIP3   OH2 6893   5.355   4.499   4.068 -0.0558  0.5642  0.4138
 2310TIP3    H1 6894   5.305   4.470   4.144 -1.6912  0.8902 -0.4863
 2310TIP3    H2 6895   5.425   4.434   4.058 -0.9523 -0.5363  1.0850
 2311TIP3   OH2 6896   6.442   4.524   4.952 -0.5849  0.0623 -0.6622
 2311TIP3    H1 6897   6.461   4.525   5.045 -1.2328  0.1442 -0.5274
 2311TIP3    H2 6898   6.464   4.613   4.922  0.2528 -0.1546 -0.7287
 2312TIP3   OH2 6899   0.752   4.471   3.724 -0.1859  0.0530  0.7159
 2312TIP3    H1 6900   0.670   4.472   3.773 -0.9308 -0.4634 -0.4643
 2312TIP3    H2 6901   0.814   4.428   3.782 -1.3983 -1.8524  0.6945
 2313TIP3   OH2 6902   3.425   3.797   3.963  0.3181 -0.1377  0.0803
 2313TIP3    H1 6903   3.356   3.854   3.997 -0.8974 -1.0503 -0.7723
 2313TIP3    H2 6904   3.479   3.854   3.909  0.5375  0.6921  1.1455
 2314TIP3   OH2 6905   0.721   1.251   3.563  0.1390  0.7651  0.1178
 2314TIP3    H1 6906   0.790   1.297   3.610 -0.2481  2.0903 -0.5604
 2314TIP3    H2 6907   0.646   1.310   3.565 -0.5135 -0.0169 -0.4291
 2315TIP3   OH2 6908   3.659   1.126   2.671 -0.5420  0.1967  0.2651
 2315TIP3    H1 6909   3.613   1.044   2.655  1.6150 -0.6505 -2.2264
 2315TIP3    H2 6910   3.652   1.174   2.589  0.5429  1.3174  0.7923
 2316TIP3   OH2 6911   6.546   5.911   3.190  0.1607 -0.9001 -0.3788
 2316TIP3    H1 6912   6.559   5.995   3.233  1.6362 -0.9727 -0.6282
 2316TIP3    H2 6913   6.453   5.892   3.202 -0.8327  1.9585 -2.5306
 2317TIP3   OH2 6914   0.683   5.843   4.591  0.3509  0.0368  0.7501
 2317TIP3    H1 6915   0.717   5.812   4.507  3.1151 -1.3280  2.2477
 2317TIP3    H2 6916   0.747   5.909   4.619  0.0640 -0.3110  2.2648
 2318TIP3   OH2 6917   3.795   4.614   5.852  0.2914 -0.0678 -0.4199
 2318TIP3    H1 6918   3.854   4.660   5.792 -0.7298  0.3979 -1.0876
 2318TIP3    H2 6919   3.740   4.683   5.889  1.3141 -0.2594  1.5731
 2319TIP3   OH2 6920   3.591   5.371   5.652  0.0675 -0.2736  0.2681
 2319TIP3    H1 6921   3.545   5.444   5.612 -4.3271 -1.5142  2.4291
 2319TIP3    H2 6922   3.662   5.412   5.702 -1.5717  2.4443  0.5643
 2320TIP3   OH2 6923   5.064   0.065   1.864 -0.6801  0.0955 -0.1845
 2320TIP3    H1 6924   5.003   0.064   1.790 -0.6346 -0.6540 -0.2253
 2320TIP3    H2 6925   5.075  -0.028   1.886  0.7452  0.1903 -0.4227
 2321TIP3   OH2 6926   3.108   1.822   0.558 -0.1525  0.5291 -0.2131
 2321TIP3    H1 6927   3.183   1.808   0.500  0.3486  0.6427  0.4050
 2321TIP3    H2 6928   3.039   1.856   0.500 -0.4540 -1.5869 -1.2296
 2322TIP3   OH2 6929   3.487   3.203   5.294 -0.3685 -0.5464  0.6301
 2322TIP3    H1 6930   3.480   3.212   5.199 -2.3271  1.0933  0.8721
 2322TIP3    H2 6931   3.500   3.109   5.307 -3.2308 -1.3152 -1.1495
 2323TIP3   OH2 6932   2.892   2.837   1.337  0.4735  0.0078 -0.4579
 2323TIP3    H1 6933   2.892   2.807   1.428  1.5256  3.6402  0.9258
 2323TIP3    H2 6934   2.951   2.777   1.291 -1.1668 -2.7714  0.8017
 2324TIP3   OH2 6935   5.675   2.698   3.151 -0.2712 -0.0654 -0.2648
 2324TIP3    H1 6936   5.616   2.683   3.077  0.6334 -0.2723 -0.9736
 2324TIP3    H2 6937   5.628   2.666   3.227 -1.8816  1.6057 -0.4927
 2325TIP3   OH2 6938   5.819   2.284   1.475  0.2438 -0.2367 -0.6246
 2325TIP3    H1 6939   5.861   2.329   1.402 -2.8774  2.2676 -1.1241
 2325TIP3    H2 6940   5.828   2.345   1.549  0.5152 -1.2556  0.2036
 2326TIP3   OH2 6941   7.161   6.254   0.625 -0.3950  0.1026  0.0109
 2326TIP3    H1 6942   7.170   6.266   0.720 -0.7920 -1.1842  0.2347
 2326TIP3    H2 6943   7.178   6.341   0.588  1.8318  0.2068  1.0948
 2327TIP3   OH2 6944   0.832   4.929   3.343 -0.1414 -0.8649  0.1699
 2327TIP3    H1 6945   0.878   4.853   3.379 -1.2140 -1.8450 -0.4584
 2327TIP3    H2 6946   0.898   4.974   3.290  0.1887 -2.1034 -0.5097
 2328TIP3   OH2 6947   4.084   5.121   4.019  0.3722  0.1571 -0.1406
 2328TIP3    H1 6948   4.078   5.207   3.977  0.8664  0.5361  0.5468
 2328TIP3    H2 6949   4.139   5.136   4.096 -0.6544 -0.4900  0.7438
 2329TIP3   OH2 6950   4.445   3.905   1.083 -0.2512 -0.4191  0.0062
 2329TIP3    H1 6951   4.470   3.813   1.094  1.7097 -0.0663 -1.0207
 2329TIP3    H2 6952   4.410   3.909   0.994  1.0360  0.0527 -0.5068
 2330TIP3   OH2 6953   2.238   2.199   0.461  0.6380 -0.0733 -0.6394
 2330TIP3    H1 6954   2.320   2.248   0.465  1.0135 -0.7884  1.4489
 2330TIP3    H2 6955   2.217   2.178   0.552 -1.8778  0.0685 -1.0914
 2331TIP3   OH2 6956   4.131   2.522   2.189  0.4477  0.3175  0.3823
 2331TIP3    H1 6957   4.209   2.477   2.158  0.4710  0.0795  0.7764
 2331TIP3    H2 6958   4.143   2.527   2.284  0.2859  0.8517  0.3787
 2332TIP3   OH2 6959   3.004   3.237   2.365  0.1219 -0.2610  0.1093
 2332TIP3    H1 6960   2.968   3.149   2.375 -0.2247 -0.2408 -0.8866
 2332TIP3    H2 6961   3.014   3.248   2.271 -1.8469  1.5384  0.0286
 2333TIP3   OH2 6962   1.399   4.629   2.866 -0.1812  0.4315  0.8498
 2333TIP3    H1 6963   1.373   4.705   2.815 -0.5432  0.0257  0.4197
 2333TIP3    H2 6964   1.413   4.663   2.954  2.5380  1.5614  0.0802
 2334TIP3   OH2 6965   3.023   4.030   4.969  0.3906 -0.4155 -0.6324
 2334TIP3    H1 6966   2.948   4.088   4.952  0.5732 -0.0384 -0.1786
 2334TIP3    H2 6967   3.098   4.089   4.974  0.8259 -0.8548 -1.7302
 2335TIP3   OH2 6968   3.167   5.033   3.889  0.4242 -0.1372  0.0684
 2335TIP3    H1 6969   3.168   5.003   3.798  2.9997 -0.5147  0.1400
 2335TIP3    H2 6970   3.258   5.027   3.917 -0.3941 -0.7324  2.9297
 2336TIP3   OH2 6971   4.788   5.112   5.489  0.1780 -0.5215 -0.1497
 2336TIP3    H1 6972   4.795   5.152   5.402  2.2384  0.7071  0.5278
 2336TIP3    H2 6973   4.837   5.170   5.547 -1.9639 -0.7626  2.0698
 2337TIP3   OH2 6974   0.212   3.687   5.049  0.6197  0.1068  0.2862
 2337TIP3    H1 6975   0.154   3.621   5.012  0.7263  0.0369  0.2417
 2337TIP3    H2 6976   0.216   3.665   5.142  0.4991  0.1695  0.3056
 2338TIP3   OH2 6977   6.759   1.005   2.627 -0.3542  0.4527 -0.3298
 2338TIP3    H1 6978   6.809   0.975   2.703 -0.9738 -0.3750 -0.2339
 2338TIP3    H2 6979   6.821   1.000   2.554 -0.0416  0.2913 -0.0542
 2339TIP3   OH2 6980   2.022   2.255   4.987  0.2132  0.2378 -0.1474
 2339TIP3    H1 6981   1.970   2.332   5.008 -0.1301 -0.1693  0.5123
 2339TIP3    H2 6982   2.113   2.285   4.993  0.0847  0.5695  0.1697
 2340TIP3   OH2 6983   2.004   0.792   1.401  0.0768 -0.0081 -0.1581
 2340TIP3    H1 6984   2.024   0.880   1.370 -0.3963 -0.3212 -1.4103
 2340TIP3    H2 6985   2.015   0.797   1.496 -0.9178  1.6556 -0.0911
 2341TIP3   OH2 6986   6.808   4.463   2.552  0.0704  0.1858  0.0879
 2341TIP3    H1 6987   6.871   4.402   2.514  0.1841 -0.2956  1.0304
 2341TIP3    H2 6988   6.733   4.409   2.575  0.6185  0.1670  1.9895
 2342TIP3   OH2 6989   3.584   1.616   5.765  0.0716  0.0279  0.1344
 2342TIP3    H1 6990   3.503   1.573   5.791 -0.8428  2.2214  1.1958
 2342TIP3    H2 6991   3.572   1.635   5.671 -1.1614  1.2560  0.5030
 2343TIP3   OH2 6992   0.887   0.548   5.908 -0.3808 -0.1934 -0.0195
 2343TIP3    H1 6993   0.865   0.527   5.818  2.1440  0.8828 -0.9883
 2343TIP3    H2 6994   0.951   0.619   5.901  0.5417 -0.6645  2.5752
 2344TIP3   OH2 6995   3.995   0.244   4.831  0.4656 -0.3896  0.3062
 2344TIP3    H1 6996   3.964   0.317   4.778 -1.3831 -0.9876  0.4789
 2344TIP3    H2 6997   4.085   0.229   4.802 -0.1115  0.0258 -1.8627
 2345TIP3   OH2 6998   2.791   4.793   4.582 -0.2316  0.6280 -0.4531
 2345TIP3    H1 6999   2.800   4.702   4.610 -0.6604  0.7157 -0.0042
 2345TIP3    H2 7000   2.842   4.799   4.502 -2.0564 -0.6042 -1.7918
 2346TIP3   OH2 7001   1.515   5.215   5.369 -0.3951  0.1380 -0.4768
 2346TIP3    H1 7002   1.574   5.280   5.332  1.0992 -0.6870  0.3419
 2346TIP3    H2 7003   1.480   5.168   5.294  1.1909 -0.3305 -0.9801
 2347TIP3   OH2 7004   2.196   3.478   3.238  0.3651 -0.0703 -0.2271
 2347TIP3    H1 7005   2.201   3.569   3.267  0.5605 -0.3254  0.5473
 2347TIP3    H2 7006   2.194   3.427   3.319  1.5718 -0.8202 -0.6582
 2348TIP3   OH2 7007   0.797   4.917   5.712 -0.9130 -0.5856  0.2208
 2348TIP3    H1 7008   0.824   4.925   5.804 -1.0373 -1.3915  0.3324
 2348TIP3    H2 7009   0.850   4.845   5.678 -0.7443 -0.1768 -0.3922
 2349TIP3   OH2 7010   3.523   5.784   2.974 -0.7681 -0.4314  0.0340
 2349TIP3    H1 7011   3.588   5.841   3.015 -1.3234  0.8407 -0.7945
 2349TIP3    H2 7012   3.521   5.812   2.882 -1.3720 -1.5030 -0.2946
 2350TIP3   OH2 7013   5.011   6.074   3.854 -1.0119  0.2828  0.2788
 2350TIP3    H1 7014   5.009   5.993   3.905 -2.0378  0.5089  0.6115
 2350TIP3    H2 7015   5.059   6.135   3.910 -2.3322  0.5991  1.1184
 2351TIP3   OH2 7016   3.921   2.864   5.442  0.1070  0.4837  0.2720
 2351TIP3    H1 7017   3.874   2.792   5.400 -0.3798  0.7807  0.3040
 2351TIP3    H2 7018   3.864   2.891   5.514  1.6070 -1.0679  2.1721
 2352TIP3   OH2 7019   7.020   2.976   4.159  0.2491  0.2614  0.2477
 2352TIP3    H1 7020   7.062   2.893   4.136 -0.6875 -0.8776  2.3449
 2352TIP3    H2 7021   7.023   3.028   4.079  1.4323 -1.5497 -0.9472
 2353TIP3   OH2 7022   3.188   5.639   4.839  0.0317  0.1999 -0.0238
 2353TIP3    H1 7023   3.277   5.637   4.873 -0.1373  0.2237  0.4241
 2353TIP3    H2 7024   3.179   5.727   4.802  0.6903 -0.2955 -1.4438
 2354TIP3   OH2 7025   2.961   3.822   5.272  0.1175  0.0503 -0.4947
 2354TIP3    H1 7026   2.987   3.736   5.305 -1.5910 -1.1434 -2.0453
 2354TIP3    H2 7027   3.013   3.833   5.193  0.7339  0.7275 -0.0063
 2355TIP3   OH2 7028   4.477   6.538   3.582  0.4851 -0.4410 -0.3707
 2355TIP3    H1 7029   4.568   6.555   3.560  2.0342 -0.3829  4.7774
 2355TIP3    H2 7030   4.448   6.617   3.627 -1.6909 -0.9938 -0.6948
 2356TIP3   OH2 7031   0.781   1.595   4.258  0.3610 -0.3370  0.3253
 2356TIP3    H1 7032   0.768   1.500   4.258 -1.2118 -0.1546 -0.0232
 2356TIP3    H2 7033   0.784   1.619   4.165  0.6130 -0.0250  0.4117
 2357TIP3   OH2 7034   1.491   1.432   2.120  0.2719  0.6367 -0.5671
 2357TIP3    H1 7035   1.425   1.438   2.051 -0.6529 -0.4882  0.1994
 2357TIP3    H2 7036   1.550   1.363   2.091  0.1281  0.4584 -0.4348
 2358TIP3   OH2 7037   6.107   5.567   1.395 -0.2024 -0.0121  0.1577
 2358TIP3    H1 7038   6.196   5.588   1.366 -0.3459 -0.6037 -0.7167
 2358TIP3    H2 7039   6.119   5.529   1.482  0.1488  2.7980  1.4646
 2359TIP3   OH2 7040   6.628   4.883   2.906 -0.0922  0.3766 -0.2586
 2359TIP3    H1 7041   6.534   4.890   2.924 -0.3874  0.4290 -1.7112
 2359TIP3    H2 7042   6.634   4.827   2.829  0.9383  1.7456 -1.2201
 2360TIP3   OH2 7043   5.427   0.221   4.906  0.1459  0.2021 -0.4330
 2360TIP3    H1 7044   5.431   0.143   4.851  1.3519  0.8425 -1.2879
 2360TIP3    H2 7045   5.336   0.251   4.900  0.2345  0.1987 -2.0138
 2361TIP3   OH2 7046   3.993   1.762   0.414  0.2134  0.1122 -0.4614
 2361TIP3    H1 7047   4.039   1.732   0.492 -0.5340 -2.5688 -0.9252
 2361TIP3    H2 7048   3.901   1.741   0.430 -0.0040 -0.1727 -1.8824
 2362TIP3   OH2 7049   1.975   1.503   2.335  0.1515 -0.1388  0.1370
 2362TIP3    H1 7050   2.042   1.440   2.361  0.1287 -0.6567 -0.9707
 2362TIP3    H2 7051   1.894   1.452   2.335  0.3995 -0.7246 -2.6628
 2363TIP3   OH2 7052   5.026   2.013   5.163 -0.3998  0.7927  0.2481
 2363TIP3    H1 7053   5.061   2.079   5.223 -0.9696  0.3623  1.0663
 2363TIP3    H2 7054   5.103   1.974   5.122  0.0044  1.0060  0.7955
 2364TIP3   OH2 7055   2.842   3.412   4.561 -0.0354 -0.0378 -0.0177
 2364TIP3    H1 7056   2.758   3.426   4.518 -0.6199 -1.6817  0.5183
 2364TIP3    H2 7057   2.820   3.369   4.644  1.3106 -0.2429  0.2575
 2365TIP3   OH2 7058   0.127   0.614   4.005  0.2118  0.0895 -0.3517
 2365TIP3    H1 7059   0.191   0.543   4.004 -0.3769 -0.5245  1.4941
 2365TIP3    H2 7060   0.068   0.592   4.077  0.4749  2.8387  0.8246
 2366TIP3   OH2 7061   0.662   6.514   1.141  0.0510 -0.0695 -0.2131
 2366TIP3    H1 7062   0.711   6.435   1.163  2.0866  1.6986  2.2560
 2366TIP3    H2 7063   0.585   6.512   1.197 -0.4140 -0.7395 -0.8655
 2367TIP3   OH2 7064   0.674   6.580   2.517  0.3223  1.0190 -0.7229
 2367TIP3    H1 7065   0.714   6.510   2.465 -0.1005 -1.2428  1.7567
 2367TIP3    H2 7066   0.747   6.619   2.565  0.0986 -1.4820  1.9530
 2368TIP3   OH2 7067   5.556   3.060   4.648 -0.0763  0.5840 -0.9904
 2368TIP3    H1 7068   5.605   3.079   4.568  1.8097 -0.6883 -0.1948
 2368TIP3    H2 7069   5.575   2.968   4.666 -0.8124  0.7330  0.6979
 2369TIP3   OH2 7070   2.491   4.976   1.203 -0.1380  0.0720 -0.6863
 2369TIP3    H1 7071   2.515   5.030   1.278 -1.4758 -0.3527  0.0859
 2369TIP3    H2 7072   2.557   4.996   1.136 -0.0819  1.9731 -0.1199
 2370TIP3   OH2 7073   7.126   6.182   3.079 -0.1351  0.1529 -0.4708
 2370TIP3    H1 7074   7.109   6.124   3.005  1.8933 -1.4410  0.2258
 2370TIP3    H2 7075   7.079   6.142   3.152  1.2976 -0.6754  0.0209
 2371TIP3   OH2 7076   5.947   4.815   5.332 -0.4813  0.0377 -0.6820
 2371TIP3    H1 7077   5.967   4.735   5.283  1.3067 -0.0492  0.1245
 2371TIP3    H2 7078   5.994   4.884   5.285 -0.0112  0.2025  0.0168
 2372TIP3   OH2 7079   4.523   6.473   3.133 -0.0844  0.4551 -1.1604
 2372TIP3    H1 7080   4.439   6.494   3.092 -1.6275 -0.9166  1.0824
 2372TIP3    H2 7081   4.500   6.419   3.209  2.8118  0.4088 -0.1970
 2373TIP3   OH2 7082   5.414   3.020   2.896 -0.2579 -0.1422  0.2957
 2373TIP3    H1 7083   5.457   3.009   2.981 -0.0828  0.3331  0.2695
 2373TIP3    H2 7084   5.478   3.065   2.841  0.2161 -1.8208 -0.5888
 2374TIP3   OH2 7085   0.060   3.288   4.497  0.6013  0.3714 -0.4219
 2374TIP3    H1 7086   0.037   3.246   4.414  2.2342 -2.9697  0.6316
 2374TIP3    H2 7087  -0.024   3.297   4.543  0.1054 -1.6372 -0.8290
 2375TIP3   OH2 7088   0.288   3.828   1.183  0.4966 -0.4164  0.2608
 2375TIP3    H1 7089   0.334   3.803   1.103 -2.0858  0.5653 -1.6634
 2375TIP3    H2 7090   0.312   3.919   1.197  0.3019 -0.3401  0.1054
 2376TIP3   OH2 7091   1.701   4.173   2.267 -0.0818 -0.4585  0.3063
 2376TIP3    H1 7092   1.638   4.154   2.336  0.2396 -0.9094  0.4811
 2376TIP3    H2 7093   1.767   4.229   2.309 -0.3277 -0.0317  0.1375
 2377TIP3   OH2 7094   6.829   0.033   3.065  0.0064 -0.0605 -0.2994
 2377TIP3    H1 7095   6.883   0.007   3.140 -0.7454 -2.2047 -0.4208
 2377TIP3    H2 7096   6.743   0.050   3.103  0.3400  1.8612 -0.3115
 2378TIP3   OH2 7097   4.388   3.923   2.943  0.0002  0.5869  0.2847
 2378TIP3    H1 7098   4.353   3.976   2.872  1.6193  0.9764 -0.2745
 2378TIP3    H2 7099   4.382   3.980   3.020  0.4585  1.0906 -0.0417
 2379TIP3   OH2 7100   6.368   4.621   4.061  0.3300  0.0058  0.5120
 2379TIP3    H1 7101   6.304   4.583   4.120  0.6965  0.3923  1.1645
 2379TIP3    H2 7102   6.346   4.584   3.975  0.4534 -1.4132  1.0599
 2380TIP3   OH2 7103   5.618   3.568   1.908  0.2728  0.1187 -0.4535
 2380TIP3    H1 7104   5.659   3.651   1.931  1.1205 -0.3631 -0.1789
 2380TIP3    H2 7105   5.667   3.537   1.831  0.5565 -0.5499 -0.0166
 2381TIP3   OH2 7106   5.756   6.316   2.788 -0.5033  0.1322  0.0383
 2381TIP3    H1 7107   5.839   6.353   2.757 -0.0054 -0.1031  1.0409
 2381TIP3    H2 7108   5.736   6.246   2.726 -0.1932  0.4804 -0.4651
 2382TIP3   OH2 7109   0.286   1.482   4.375 -0.0156 -0.1792 -0.4716
 2382TIP3    H1 7110   0.201   1.513   4.406  0.6130 -0.7933  2.0725
 2382TIP3    H2 7111   0.339   1.562   4.369  0.1631 -0.1363  1.2245
 2383TIP3   OH2 7112   7.184   2.926   5.029 -0.1241  0.5165 -0.5998
 2383TIP3    H1 7113   7.116   2.866   5.059 -0.9593  1.0418 -1.4002
 2383TIP3    H2 7114   7.181   2.998   5.093 -0.9952  0.9987 -1.1592
 2384TIP3   OH2 7115   4.377   6.618   2.453  0.1102  0.0112 -0.2446
 2384TIP3    H1 7116   4.304   6.661   2.499 -0.4765 -2.2995  1.1471
 2384TIP3    H2 7117   4.335   6.554   2.395  0.9987 -0.6658 -0.1668
 2385TIP3   OH2 7118   2.772   6.692   0.954  0.1277 -0.1888 -0.1176
 2385TIP3    H1 7119   2.727   6.663   0.874  1.2603 -0.3807 -0.7069
 2385TIP3    H2 7120   2.728   6.774   0.977 -1.1210 -0.8248 -0.1421
 2386TIP3   OH2 7121   5.432   0.584   1.997 -0.0691 -0.3925  0.2081
 2386TIP3    H1 7122   5.351   0.572   2.047  0.1000  0.6604  0.7559
 2386TIP3    H2 7123   5.420   0.529   1.919 -0.4326 -1.9096  1.2713
 2387TIP3   OH2 7124   1.174   0.807   2.985 -0.5984  1.4067  0.0918
 2387TIP3    H1 7125   1.115   0.808   2.910 -0.0223  1.8260 -0.3570
 2387TIP3    H2 7126   1.251   0.855   2.956 -0.6226  2.1155  1.1542
 2388TIP3   OH2 7127   4.414   4.373   3.482  0.0839  0.5361  0.6034
 2388TIP3    H1 7128   4.505   4.401   3.477  0.9542 -1.9137  1.3838
 2388TIP3    H2 7129   4.418   4.278   3.485 -2.4892  0.3700  1.2435
 2389TIP3   OH2 7130   5.138   2.329   3.304 -0.0625 -0.3773 -0.6338
 2389TIP3    H1 7131   5.228   2.342   3.274 -0.3680 -0.3924 -1.5846
 2389TIP3    H2 7132   5.118   2.407   3.354  0.8064 -0.8101  0.4223
 2390TIP3   OH2 7133   0.106   0.353   1.509  0.0197  0.1510 -0.3983
 2390TIP3    H1 7134   0.142   0.273   1.548 -1.1050  0.1832  0.8028
 2390TIP3    H2 7135   0.143   0.356   1.421  0.1344 -1.6768 -0.4576
 2391TIP3   OH2 7136   5.591   1.141   4.137  0.0947  0.1724  0.5165
 2391TIP3    H1 7137   5.674   1.133   4.184  0.0957  0.8622  0.6434
 2391TIP3    H2 7138   5.602   1.219   4.082 -0.2883 -0.0180  0.1660
 2392TIP3   OH2 7139   3.438   4.856   0.296  0.1069 -0.1509  0.4336
 2392TIP3    H1 7140   3.496   4.800   0.347 -0.7189  1.0104  2.7612
 2392TIP3    H2 7141   3.486   4.871   0.214  1.7943 -1.5071  1.1041
 2393TIP3   OH2 7142   3.430   2.671   5.363  0.0868 -0.8461 -0.2156
 2393TIP3    H1 7143   3.501   2.620   5.324  0.1981  0.9074 -2.5157
 2393TIP3    H2 7144   3.352   2.646   5.313 -0.8091 -1.9914  1.6132
 2394TIP3   OH2 7145   3.619   2.310   2.877 -0.7148  0.3996 -0.0865
 2394TIP3    H1 7146   3.704   2.300   2.919  0.5204  0.3536 -2.4244
 2394TIP3    H2 7147   3.639   2.314   2.783 -3.4086 -1.1403 -0.8388
 2395TIP3   OH2 7148   2.065   0.550   3.807  0.6430 -0.2467  0.3864
 2395TIP3    H1 7149   2.113   0.478   3.848  1.9587 -0.3281 -1.1532
 2395TIP3    H2 7150   1.986   0.509   3.772  0.8824 -0.7477  0.4193
 2396TIP3   OH2 7151   1.265   5.040   2.385  0.2596 -0.7207 -0.1741
 2396TIP3    H1 7152   1.304   5.125   2.369  0.0751 -0.4413  0.8045
 2396TIP3    H2 7153   1.313   4.980   2.327  0.1420  0.0909 -1.1354
 2397TIP3   OH2 7154   3.007   4.690   1.829  0.3393  0.2833  0.1488
 2397TIP3    H1 7155   3.080   4.661   1.884  0.1717 -0.7614 -0.1449
 2397TIP3    H2 7156   2.944   4.726   1.891  0.8154  0.5697  0.4735
 2398TIP3   OH2 7157   2.847   5.532   2.357  0.7649  0.0018 -0.1722
 2398TIP3    H1 7158   2.856   5.602   2.422 -1.3371  0.0926  0.1044
 2398TIP3    H2 7159   2.816   5.457   2.407 -1.2515  0.1739 -1.0427
 2399TIP3   OH2 7160   6.143   4.046   3.111  0.0046 -0.1648 -0.1500
 2399TIP3    H1 7161   6.152   4.087   3.025  3.4342  0.5282  0.3983
 2399TIP3    H2 7162   6.119   3.955   3.091 -1.8210  0.5813 -1.6565
 2400TIP3   OH2 7163   3.277   2.466   0.080  1.0334 -0.1182 -0.5788
 2400TIP3    H1 7164   3.285   2.561   0.073  0.7980 -0.1293 -1.0043
 2400TIP3    H2 7165   3.183   2.450   0.091  1.1935 -0.2197  0.8439
 2401TIP3   OH2 7166   3.540   4.559   0.472 -0.0733  0.2705 -1.1164
 2401TIP3    H1 7167   3.515   4.469   0.451 -0.0401  0.6541 -3.0059
 2401TIP3    H2 7168   3.498   4.577   0.556  1.3990 -2.0828  0.2027
 2402TIP3   OH2 7169   1.715   5.842   1.700 -0.3705 -0.0297  0.5538
 2402TIP3    H1 7170   1.677   5.881   1.779 -1.3083  0.7946 -0.2808
 2402TIP3    H2 7171   1.661   5.765   1.683  1.0137 -1.3478  1.7657
 2403TIP3   OH2 7172   5.091   0.282   0.606  0.0236  0.2710  0.5407
 2403TIP3    H1 7173   5.165   0.318   0.556  1.6022 -0.2497  2.3862
 2403TIP3    H2 7174   5.107   0.187   0.606 -1.8982 -0.1071 -0.8765
 2404TIP3   OH2 7175   4.274   3.987   1.741 -0.0747 -0.3014  0.0173
 2404TIP3    H1 7176   4.367   4.008   1.744 -0.2392  0.3309  0.8109
 2404TIP3    H2 7177   4.233   4.064   1.703 -0.1764 -0.9778 -1.3075
 2405TIP3   OH2 7178   5.122   3.537   2.443  0.1518 -0.0580  0.0611
 2405TIP3    H1 7179   5.189   3.606   2.446  0.9071 -0.7790  0.2934
 2405TIP3    H2 7180   5.098   3.523   2.534 -0.2311  0.1142 -0.0132
 2406TIP3   OH2 7181   5.346   2.897   3.972  0.2025  0.4606  0.1674
 2406TIP3    H1 7182   5.362   2.877   4.064  0.9688 -0.0715 -0.0694
 2406TIP3    H2 7183   5.251   2.898   3.964  0.1308 -0.2523  0.8091
 2407TIP3   OH2 7184   0.790   2.661   3.251 -0.1904  0.1384  0.2949
 2407TIP3    H1 7185   0.702   2.698   3.254 -0.5392 -0.6537 -0.0527
 2407TIP3    H2 7186   0.791   2.595   3.320 -0.0249 -0.1980 -0.0290
 2408TIP3   OH2 7187   2.406   3.537   1.881  0.0182  0.3664  0.4295
 2408TIP3    H1 7188   2.423   3.565   1.971  0.8413  2.6824 -0.3992
 2408TIP3    H2 7189   2.325   3.581   1.857 -0.1044 -0.1088 -0.0420
 2409TIP3   OH2 7190   6.883   3.974   2.516 -0.0157  0.1321  0.9364
 2409TIP3    H1 7191   6.791   3.968   2.490 -0.2009 -0.5189  1.6892
 2409TIP3    H2 7192   6.880   4.014   2.603  0.4845  0.8898  0.6153
 2410TIP3   OH2 7193   4.254   5.724   2.846 -0.5226 -0.0362 -0.0748
 2410TIP3    H1 7194   4.213   5.751   2.763 -2.2723 -0.9675  0.4350
 2410TIP3    H2 7195   4.264   5.805   2.896 -0.6311  0.3650 -0.6908
 2411TIP3   OH2 7196   3.747   2.517   2.316 -0.0303  0.4620  0.1067
 2411TIP3    H1 7197   3.748   2.450   2.385  1.0448 -0.1524 -0.4738
 2411TIP3    H2 7198   3.807   2.483   2.249 -0.2858  1.5158 -0.6792
 2412TIP3   OH2 7199   4.519   6.002   5.451 -0.5138  0.3580  0.1100
 2412TIP3    H1 7200   4.559   5.956   5.525  1.4393 -0.2640 -1.2498
 2412TIP3    H2 7201   4.510   5.935   5.383 -0.2438  1.3691 -0.9465
 2413TIP3   OH2 7202   6.172   3.887   4.247 -0.3971 -0.2356  0.0844
 2413TIP3    H1 7203   6.128   3.955   4.299  1.4084  1.8010 -0.9105
 2413TIP3    H2 7204   6.102   3.848   4.195 -1.1957  2.8727 -1.4248
 2414TIP3   OH2 7205   1.556   1.008   4.497 -0.3375  0.4478 -0.3542
 2414TIP3    H1 7206   1.556   0.921   4.535  0.7903  0.5484 -0.0940
 2414TIP3    H2 7207   1.577   0.993   4.404 -1.7667  0.3196 -0.6816
 2415TIP3   OH2 7208   5.489   2.523   4.668 -0.0387 -0.4114 -0.0925
 2415TIP3    H1 7209   5.567   2.486   4.709  0.1899 -0.8623 -0.9119
 2415TIP3    H2 7210   5.441   2.447   4.636  0.4487 -0.0350 -1.8251
 2416TIP3   OH2 7211   4.903   6.586   0.398  0.7232 -0.1008  0.6271
 2416TIP3    H1 7212   4.836   6.538   0.447 -1.5158  0.9240 -1.2561
 2416TIP3    H2 7213   4.935   6.524   0.333  0.6607 -0.2037  0.6948
 2417TIP3   OH2 7214   2.735   5.945   3.215  0.5933 -0.0355 -0.1196
 2417TIP3    H1 7215   2.727   5.901   3.299  1.8370 -0.2244 -0.0813
 2417TIP3    H2 7216   2.695   6.031   3.229  0.7631 -0.0743  0.6496
 2418TIP3   OH2 7217   6.058   2.649   3.335 -0.1026 -0.3808 -0.3215
 2418TIP3    H1 7218   6.092   2.712   3.272  0.1074  1.8233  1.8195
 2418TIP3    H2 7219   6.118   2.655   3.410 -1.4999 -1.2519  0.9355
 2419TIP3   OH2 7220   5.031   1.540   2.167  0.0119 -0.2763 -0.0380
 2419TIP3    H1 7221   5.107   1.539   2.109 -0.7060  0.6307 -1.0439
 2419TIP3    H2 7222   5.047   1.470   2.229  1.7041 -0.0506 -0.1715
 2420TIP3   OH2 7223   4.082   4.671   3.183  0.2139 -0.1558  0.2246
 2420TIP3    H1 7224   4.032   4.750   3.204  2.6927  1.0287  2.3353
 2420TIP3    H2 7225   4.068   4.613   3.257 -0.4195 -1.1349 -0.6331
 2421TIP3   OH2 7226   2.464   5.866   1.633 -0.5699 -0.2117  0.1995
 2421TIP3    H1 7227   2.375   5.832   1.636 -1.0525  0.6108 -2.1165
 2421TIP3    H2 7228   2.512   5.802   1.581 -0.1446 -0.0351  0.3702
 2422TIP3   OH2 7229   3.806   3.094   1.750 -0.1357  0.1806  0.9143
 2422TIP3    H1 7230   3.816   3.009   1.707  0.1729  0.5197  0.2942
 2422TIP3    H2 7231   3.885   3.102   1.804 -0.7103 -0.4166  1.8665
 2423TIP3   OH2 7232   4.204   5.309   2.363  0.5706 -0.1483 -0.0912
 2423TIP3    H1 7233   4.177   5.399   2.384 -0.6295 -0.2289 -1.1649
 2423TIP3    H2 7234   4.143   5.254   2.411 -0.0394 -0.3474 -1.0524
 2424TIP3   OH2 7235   4.373   3.519   2.506 -0.1103  0.4158  0.2739
 2424TIP3    H1 7236   4.307   3.480   2.448  0.2092  0.6937 -0.2894
 2424TIP3    H2 7237   4.435   3.561   2.446  1.2235 -0.8327  0.7285
 2425TIP3   OH2 7238   5.207   5.358   3.125  0.2004 -0.4990  0.1821
 2425TIP3    H1 7239   5.218   5.263   3.128 -0.1699 -0.5374  0.4860
 2425TIP3    H2 7240   5.166   5.375   3.041 -2.3439 -0.9212  1.2342
 2426TIP3   OH2 7241   5.009   3.909   5.625  0.4672  0.6179 -0.3589
 2426TIP3    H1 7242   5.068   3.983   5.639  2.4052 -0.6593 -1.4014
 2426TIP3    H2 7243   4.940   3.944   5.568  0.4421  1.9943  0.4653
 2427TIP3   OH2 7244   1.717   5.344   5.598  0.1059 -0.3277  0.2899
 2427TIP3    H1 7245   1.810   5.341   5.576 -0.0070  0.7552 -0.4012
 2427TIP3    H2 7246   1.673   5.361   5.515 -0.6507 -0.0534  0.7368
 2428TIP3   OH2 7247   3.645   0.390   5.747  0.0624  0.1108  0.2536
 2428TIP3    H1 7248   3.601   0.473   5.729  1.9310  1.1587  0.3034
 2428TIP3    H2 7249   3.683   0.401   5.834 -0.9196 -1.4042  0.9319
 2429TIP3   OH2 7250   0.374   2.651   1.048 -0.4734  0.0097  0.4422
 2429TIP3    H1 7251   0.378   2.679   0.956 -1.7683 -0.0408  0.3491
 2429TIP3    H2 7252   0.444   2.699   1.091 -0.1252  0.3618 -0.4917
 2430TIP3   OH2 7253   2.492   4.832   5.110  0.0107  0.4681 -0.5081
 2430TIP3    H1 7254   2.560   4.899   5.105  0.2171  0.2983 -0.0537
 2430TIP3    H2 7255   2.410   4.881   5.108  0.1543  0.9423  1.9856
 2431TIP3   OH2 7256   0.446   5.790   0.430  0.2640 -0.0923 -0.1790
 2431TIP3    H1 7257   0.473   5.859   0.370  0.3571 -0.1454 -0.1996
 2431TIP3    H2 7258   0.378   5.742   0.383 -1.7754  1.6283  0.8759
 2432TIP3   OH2 7259   4.439   3.053   4.838 -0.2618 -0.3719  0.1215
 2432TIP3    H1 7260   4.376   3.120   4.811  0.8864  0.7778  0.1932
 2432TIP3    H2 7261   4.423   3.042   4.932  0.5398  0.9627  0.4481
 2433TIP3   OH2 7262   4.845   1.374   4.891  0.2278  0.4982  0.5568
 2433TIP3    H1 7263   4.936   1.345   4.896  0.9415  1.8361 -2.3041
 2433TIP3    H2 7264   4.847   1.466   4.916 -0.4691  0.3623  1.1373
 2434TIP3   OH2 7265   3.389   1.554   1.992  0.0011  0.5203 -0.3055
 2434TIP3    H1 7266   3.415   1.639   1.958 -0.7300  0.9141  0.0711
 2434TIP3    H2 7267   3.340   1.514   1.921  1.8798 -0.3826 -1.1514
 2435TIP3   OH2 7268   6.230   3.960   1.417  0.0106 -0.1837 -0.2169
 2435TIP3    H1 7269   6.156   3.914   1.458 -0.9957  0.4079 -1.3100
 2435TIP3    H2 7270   6.216   3.948   1.323  0.7349  0.8216 -0.4607
 2436TIP3   OH2 7271   5.147   5.898   0.897  0.5213 -0.1683 -0.1690
 2436TIP3    H1 7272   5.211   5.827   0.899  0.2225 -0.4390  1.8315
 2436TIP3    H2 7273   5.197   5.973   0.865  2.1044 -0.2027  1.9764
 2437TIP3   OH2 7274   5.782   1.954   4.177  0.2504 -0.1160  0.0265
 2437TIP3    H1 7275   5.689   1.963   4.201  0.2742  1.5526 -0.4382
 2437TIP3    H2 7276   5.828   1.954   4.261 -0.0357  1.0284  0.2023
 2438TIP3   OH2 7277   0.772   5.666   0.302  0.0634 -0.6747 -0.8372
 2438TIP3    H1 7278   0.780   5.752   0.261  2.0362  0.0164  0.8599
 2438TIP3    H2 7279   0.702   5.623   0.253  0.9391  0.8076 -3.5657
 2439TIP3   OH2 7280   3.417   3.001   0.597 -0.0744 -0.5821  0.3720
 2439TIP3    H1 7281   3.350   3.062   0.627  0.4860  0.5427 -0.6026
 2439TIP3    H2 7282   3.481   2.997   0.669  0.7202  1.2732 -0.1784
 2440TIP3   OH2 7283   0.898   2.687   5.352 -0.1036 -0.0330  0.6079
 2440TIP3    H1 7284   0.975   2.738   5.380 -0.1297  0.5076 -0.2668
 2440TIP3    H2 7285   0.824   2.746   5.366 -0.1561  0.1095 -0.2414
 2441TIP3   OH2 7286   3.274   2.877   0.381 -0.0171  0.2371 -0.0680
 2441TIP3    H1 7287   3.348   2.909   0.433  0.8188  0.5411 -1.4085
 2441TIP3    H2 7288   3.225   2.823   0.443  1.5226 -0.2846  0.7826
 2442TIP3   OH2 7289   4.317   0.722   5.571 -0.1426 -0.3295 -0.2078
 2442TIP3    H1 7290   4.287   0.788   5.634  1.1864  2.1763 -2.0578
 2442TIP3    H2 7291   4.249   0.720   5.504 -0.0458 -0.6327 -0.2981
 2443TIP3   OH2 7292   7.132   4.225   2.667  0.4812 -0.3662  0.2293
 2443TIP3    H1 7293   7.201   4.166   2.699  0.8856  0.6020  1.1866
 2443TIP3    H2 7294   7.134   4.215   2.572  1.9090 -0.4015  0.2474
 2444TIP3   OH2 7295   5.207   1.863   5.006  0.1663 -0.3204 -0.4476
 2444TIP3    H1 7296   5.254   1.947   5.007  2.7215 -1.6403  0.2693
 2444TIP3    H2 7297   5.222   1.828   4.918  0.5038 -0.7135 -0.2404
 2445TIP3   OH2 7298   6.944   3.453   0.684  0.3180  0.7221 -0.2755
 2445TIP3    H1 7299   6.918   3.471   0.775  0.2584 -1.7079  0.2475
 2445TIP3    H2 7300   7.037   3.433   0.689  0.7296  2.2580 -1.0653
 2446TIP3   OH2 7301   3.392   4.791   4.335  0.1688 -0.3413  0.8776
 2446TIP3    H1 7302   3.399   4.809   4.428  1.0538  0.4659  0.6681
 2446TIP3    H2 7303   3.466   4.837   4.295 -1.3514  1.1026 -0.4641
 2447TIP3   OH2 7304   2.560   5.030   5.411  0.5378 -0.5572 -0.5260
 2447TIP3    H1 7305   2.549   5.079   5.493  0.4611 -1.2209 -0.1323
 2447TIP3    H2 7306   2.651   5.002   5.412 -0.2374 -3.4316  1.0059
 2448TIP3   OH2 7307   5.475   5.850   0.447  0.0938 -0.2818 -0.0664
 2448TIP3    H1 7308   5.563   5.889   0.452  0.5294 -1.1151 -0.9804
 2448TIP3    H2 7309   5.427   5.908   0.388 -0.0724  0.3343  0.6558
 2449TIP3   OH2 7310   0.942   2.428   5.266 -0.5271 -0.0301  0.2552
 2449TIP3    H1 7311   0.922   2.394   5.353  0.1412  0.9566  0.8089
 2449TIP3    H2 7312   0.901   2.515   5.264 -1.4144 -0.4557 -0.7959
 2450TIP3   OH2 7313   3.582   1.693   3.814 -0.7073 -0.6099  0.6678
 2450TIP3    H1 7314   3.677   1.707   3.818 -0.0596 -2.6381 -3.2061
 2450TIP3    H2 7315   3.549   1.764   3.759 -0.4913 -2.5291 -2.1767
 2451TIP3   OH2 7316   3.669   1.634   2.696 -0.5037 -0.2351 -0.4792
 2451TIP3    H1 7317   3.704   1.681   2.621 -1.2838  1.7866  0.3583
 2451TIP3    H2 7318   3.599   1.579   2.660  0.7663 -1.2108 -1.5500
 2452TIP3   OH2 7319   5.372   5.254   5.133  0.2589  0.1585  0.2414
 2452TIP3    H1 7320   5.339   5.223   5.217 -0.6172  0.9004  0.1966
 2452TIP3    H2 7321   5.467   5.243   5.138  0.1971 -0.0030  1.2406
 2453TIP3   OH2 7322   0.074   2.018   4.778 -0.5631  0.5573  0.8770
 2453TIP3    H1 7323   0.058   1.925   4.759  0.0622  0.3225  1.4313
 2453TIP3    H2 7324   0.161   2.035   4.741 -1.4710  1.4487 -0.9227
 2454TIP3   OH2 7325   0.139   0.853   3.863  0.2885  0.0846  0.4385
 2454TIP3    H1 7326   0.175   0.837   3.776  0.2710  2.7776 -0.1484
 2454TIP3    H2 7327   0.144   0.768   3.907 -0.4854 -1.5840 -2.4380
 2455TIP3   OH2 7328   2.213   4.445   0.902 -0.1500 -0.7503 -0.4718
 2455TIP3    H1 7329   2.182   4.497   0.827  0.5910  0.7322  0.1901
 2455TIP3    H2 7330   2.136   4.429   0.955 -0.1768  1.1115  0.1178
 2456TIP3   OH2 7331   4.720   4.450   1.367 -0.6899 -0.5095 -0.0540
 2456TIP3    H1 7332   4.778   4.494   1.429 -1.1395  0.1520 -0.0931
 2456TIP3    H2 7333   4.779   4.404   1.308 -0.2265 -0.3385  0.2699
 2457TIP3   OH2 7334   1.954   1.949   4.796 -0.2490 -0.1616  0.6118
 2457TIP3    H1 7335   2.014   1.963   4.869 -0.2690 -0.1535  0.6269
 2457TIP3    H2 7336   1.900   1.875   4.823  0.4451 -0.8488  0.1516
 2458TIP3   OH2 7337   0.113   0.856   2.078 -0.0118  0.6979 -0.7740
 2458TIP3    H1 7338   0.170   0.780   2.088 -1.1179 -0.1378 -0.6503
 2458TIP3    H2 7339   0.156   0.910   2.012  0.5362 -0.2931 -1.2432
 2459TIP3   OH2 7340   2.622   3.169   4.296  0.5847 -0.4306 -0.0076
 2459TIP3    H1 7341   2.550   3.228   4.273 -0.2992 -1.1551  0.8610
 2459TIP3    H2 7342   2.593   3.125   4.376  1.7918 -1.0829  0.0887
 2460TIP3   OH2 7343   2.492   1.601   2.343  0.1425 -0.3886  0.8817
 2460TIP3    H1 7344   2.413   1.634   2.387  0.0119 -0.3299  0.6048
 2460TIP3    H2 7345   2.461   1.575   2.256  0.5424  0.1622  0.5721
 2461TIP3   OH2 7346   5.136   1.573   5.606  0.1633  0.4855 -0.1004
 2461TIP3    H1 7347   5.156   1.481   5.589 -0.7645  0.6007 -2.0847
 2461TIP3    H2 7348   5.220   1.613   5.627  0.7036 -0.6358 -0.0889
 2462TIP3   OH2 7349   0.759   3.971   4.991  0.3843 -0.4996 -0.3749
 2462TIP3    H1 7350   0.708   4.052   4.986  0.8368 -0.0627  1.4399
 2462TIP3    H2 7351   0.838   3.989   4.940  1.6401  1.1502  1.9940
 2463TIP3   OH2 7352   2.581   2.655   4.068 -0.4613 -0.4285  0.8950
 2463TIP3    H1 7353   2.663   2.615   4.098  1.0606  1.2891 -0.6841
 2463TIP3    H2 7354   2.584   2.647   3.972 -1.6349  0.5990  0.7450
 2464TIP3   OH2 7355   6.037   3.494   5.573  0.0305 -0.0519 -0.3855
 2464TIP3    H1 7356   6.112   3.487   5.631  0.2790 -0.8878 -0.7951
 2464TIP3    H2 7357   6.009   3.404   5.558 -0.2729  0.1723 -1.2516
 2465TIP3   OH2 7358   6.991   1.089   4.635 -0.2278  0.4765  0.4280
 2465TIP3    H1 7359   6.979   1.114   4.544 -1.4500 -0.2634  0.3702
 2465TIP3    H2 7360   6.999   0.993   4.633  0.4636  0.5157  1.0253
 2466TIP3   OH2 7361   2.056   2.914   0.177 -0.1991 -0.3126  0.4878
 2466TIP3    H1 7362   2.021   2.911   0.088 -2.7621 -0.6854  1.4261
 2466TIP3    H2 7363   2.126   2.980   0.173  1.2621 -1.8505 -2.2352
 2467TIP3   OH2 7364   4.759   6.359   4.217  0.2705  0.1185 -0.3093
 2467TIP3    H1 7365   4.736   6.267   4.221 -0.7073  0.3261 -1.0104
 2467TIP3    H2 7366   4.678   6.404   4.196 -0.3059  1.6163  4.0997
 2468TIP3   OH2 7367   1.721   3.545   1.894  0.3006  0.2925  0.3580
 2468TIP3    H1 7368   1.761   3.606   1.956  1.4816 -0.7520  0.6675
 2468TIP3    H2 7369   1.720   3.594   1.811  1.1367  0.7888  0.6172
 2469TIP3   OH2 7370   3.521   5.878   0.581 -0.6602  0.2173  0.0298
 2469TIP3    H1 7371   3.446   5.837   0.537  0.1024  0.1587 -1.2762
 2469TIP3    H2 7372   3.503   5.867   0.674 -3.4460  2.2334 -0.1099
 2470TIP3   OH2 7373   4.216   6.755   1.772  0.7667 -0.1760 -0.0363
 2470TIP3    H1 7374   4.149   6.733   1.836  1.0843 -0.8751  0.0602
 2470TIP3    H2 7375   4.240   6.846   1.793 -1.1614  0.6168 -0.9786
 2471TIP3   OH2 7376   0.222   2.954   4.635  0.3698  0.3975 -0.3948
 2471TIP3    H1 7377   0.267   2.881   4.592  1.8374  1.3680 -0.6180
 2471TIP3    H2 7378   0.131   2.947   4.606  0.3630 -1.5895 -0.0251
 2472TIP3   OH2 7379   3.266   2.725   4.416 -0.6319 -0.3403 -0.0768
 2472TIP3    H1 7380   3.270   2.630   4.411 -0.5627 -0.3520  0.1951
 2472TIP3    H2 7381   3.275   2.745   4.509  0.9675  0.0117 -0.2701
 2473TIP3   OH2 7382   1.754   4.439   1.411  0.1497 -0.2142 -0.0219
 2473TIP3    H1 7383   1.703   4.512   1.374 -0.0672 -1.2937 -2.0025
 2473TIP3    H2 7384   1.819   4.482   1.467 -1.1389  1.3757  0.3427
 2474TIP3   OH2 7385   6.456   1.690   2.087 -0.0555  0.0695  0.1751
 2474TIP3    H1 7386   6.375   1.663   2.131  0.2042 -1.2884 -0.1356
 2474TIP3    H2 7387   6.433   1.772   2.043 -1.0508  0.0710  0.6649
 2475TIP3   OH2 7388   4.970   4.675   2.999  0.2295  0.1196 -0.1615
 2475TIP3    H1 7389   5.062   4.694   3.014  0.3097  0.3287 -0.8560
 2475TIP3    H2 7390   4.922   4.742   3.046  0.4101 -0.4125  0.7976
 2476TIP3   OH2 7391   4.543   6.398   1.269  0.1105 -0.3755  0.0411
 2476TIP3    H1 7392   4.469   6.426   1.323  0.4205 -2.3844  1.6078
 2476TIP3    H2 7393   4.512   6.319   1.225  1.4351 -1.5718  1.1494
 2477TIP3   OH2 7394   3.464   5.286   3.840  0.2841 -0.0121 -0.1216
 2477TIP3    H1 7395   3.560   5.284   3.842  0.2894  0.0762 -0.2631
 2477TIP3    H2 7396   3.439   5.306   3.930  0.4117  0.4869 -0.1939
 2478TIP3   OH2 7397   6.220   2.231   4.450  0.3417 -0.4314  0.3423
 2478TIP3    H1 7398   6.225   2.257   4.542  0.3094 -1.7814  0.7459
 2478TIP3    H2 7399   6.296   2.273   4.410 -0.2268  1.0299  0.7453
 2479TIP3   OH2 7400   5.997   5.102   2.750 -0.2443 -0.0168 -0.0537
 2479TIP3    H1 7401   5.919   5.097   2.806  0.7070  0.6846  1.3867
 2479TIP3    H2 7402   6.032   5.190   2.766  2.3759 -1.2424  1.4817
 2480TIP3   OH2 7403   1.056   3.484   4.328  0.0755 -0.7895 -0.4987
 2480TIP3    H1 7404   1.053   3.389   4.326 -0.3810 -0.7815 -0.3667
 2480TIP3    H2 7405   1.027   3.511   4.241  0.2957 -0.7735 -0.5666
 2481TIP3   OH2 7406   4.387   3.912   3.252  0.6368  0.6433 -0.5096
 2481TIP3    H1 7407   4.431   3.834   3.285  1.3449  0.6465 -1.3816
 2481TIP3    H2 7408   4.320   3.878   3.192 -1.0058  0.6144  1.2764
 2482TIP3   OH2 7409   6.113   1.269   2.355  0.0596  0.7298  0.6397
 2482TIP3    H1 7410   6.056   1.318   2.414 -0.5002  2.5252 -1.2698
 2482TIP3    H2 7411   6.196   1.318   2.355  0.5410 -0.0780  1.0324
 2483TIP3   OH2 7412   1.830   4.708   1.025  0.3729  0.0239  0.0549
 2483TIP3    H1 7413   1.835   4.716   1.120  0.1559 -1.5526  0.2300
 2483TIP3    H2 7414   1.916   4.674   1.000  0.4150  0.3970 -0.3162
 2484TIP3   OH2 7415   2.524   5.839   0.752 -0.2483  0.3052 -0.5507
 2484TIP3    H1 7416   2.470   5.902   0.800 -0.0351 -0.2165  0.3874
 2484TIP3    H2 7417   2.591   5.893   0.711 -0.9183  0.8550 -0.9633
 2485TIP3   OH2 7418   1.393   1.041   1.237  0.4333  0.4231 -0.1374
 2485TIP3    H1 7419   1.356   1.126   1.260  1.0255  0.6509 -0.0020
 2485TIP3    H2 7420   1.400   0.995   1.321 -1.9190 -0.6226 -0.4339
 2486TIP3   OH2 7421   5.337   1.486   1.717 -0.3896 -0.0295  0.4707
 2486TIP3    H1 7422   5.297   1.573   1.728  0.0084  0.0803  1.0760
 2486TIP3    H2 7423   5.426   1.497   1.748 -0.3765 -0.6928  0.6678
 2487TIP3   OH2 7424   3.258   5.890   1.168 -0.0644  0.4429  0.0879
 2487TIP3    H1 7425   3.336   5.926   1.125 -0.2918  1.1215  0.2386
 2487TIP3    H2 7426   3.221   5.963   1.217 -0.3909 -0.0622  0.6107
 2488TIP3   OH2 7427   4.804   3.671   4.103 -0.3178  0.4802  0.1172
 2488TIP3    H1 7428   4.781   3.685   4.011 -0.0635 -1.4932 -0.2911
 2488TIP3    H2 7429   4.725   3.694   4.152 -0.6671  0.9165 -0.6438
 2489TIP3   OH2 7430   4.843   2.348   3.983 -0.6749 -0.2399 -0.6584
 2489TIP3    H1 7431   4.911   2.373   4.045 -0.7698 -0.5161 -0.4377
 2489TIP3    H2 7432   4.883   2.279   3.930 -1.4340 -1.9300  0.8474
 2490TIP3   OH2 7433   1.449   0.911   0.302 -0.2426 -0.1544 -0.0797
 2490TIP3    H1 7434   1.439   0.885   0.210 -0.0176  0.7168 -0.3656
 2490TIP3    H2 7435   1.416   1.001   0.304 -1.3953 -0.5722  0.9558
 2491TIP3   OH2 7436   0.888   1.496   1.593  0.4313  0.2264  0.2901
 2491TIP3    H1 7437   0.817   1.533   1.645 -1.4354 -0.3588 -1.7317
 2491TIP3    H2 7438   0.846   1.431   1.537  2.9801 -2.2398  0.9634
 2492TIP3   OH2 7439   2.883   4.305   0.691 -0.7699 -0.3479  0.0993
 2492TIP3    H1 7440   2.902   4.291   0.598 -0.8660  2.8999 -0.5478
 2492TIP3    H2 7441   2.938   4.380   0.715 -0.5424 -1.2843  2.7732
 2493TIP3   OH2 7442   4.515   4.764   0.288  0.3458 -0.0481 -1.0045
 2493TIP3    H1 7443   4.571   4.686   0.291 -0.4666 -0.6138  0.3333
 2493TIP3    H2 7444   4.452   4.744   0.218 -1.3454 -1.7188  0.8590
 2494TIP3   OH2 7445   6.829   6.514   3.203 -0.4495 -0.0812  0.0274
 2494TIP3    H1 7446   6.753   6.496   3.258 -0.9462  1.1703 -0.2258
 2494TIP3    H2 7447   6.904   6.505   3.263 -0.6706 -2.3599  0.0358
 2495TIP3   OH2 7448   6.885   6.396   5.730 -0.0478 -0.5206 -0.0870
 2495TIP3    H1 7449   6.823   6.343   5.681 -0.2796  0.5487 -0.9981
 2495TIP3    H2 7450   6.912   6.465   5.668  1.5412 -0.5714  0.4948
 2496TIP3   OH2 7451   3.293   0.083   1.991 -0.5067  0.6036 -0.3436
 2496TIP3    H1 7452   3.244   0.132   1.925 -1.6538  0.9694  0.7441
 2496TIP3    H2 7453   3.325   0.150   2.052  0.6558  0.2880 -0.5807
 2497TIP3   OH2 7454   5.144   4.991   4.938  0.6366  0.1175 -0.5149
 2497TIP3    H1 7455   5.197   5.067   4.911 -0.6382  0.8165 -1.1581
 2497TIP3    H2 7456   5.056   5.010   4.904 -0.1288 -0.8346  0.8184
 2498TIP3   OH2 7457   0.321   1.699   4.172  0.5511  0.0231  0.9448
 2498TIP3    H1 7458   0.337   1.748   4.253  0.8505 -0.5688  1.2438
 2498TIP3    H2 7459   0.226   1.683   4.173  0.3612  1.0113  0.5988
 2499TIP3   OH2 7460   1.185   0.798   1.917  0.1519  0.2330 -1.5180
 2499TIP3    H1 7461   1.119   0.867   1.907  0.2539  0.7304  0.6912
 2499TIP3    H2 7462   1.134   0.719   1.937  0.1760  0.7322  0.7380
 2500TIP3   OH2 7463   0.728   4.390   1.418 -0.0385  0.1238 -0.1034
 2500TIP3    H1 7464   0.757   4.367   1.506  2.9421 -0.5040 -1.1132
 2500TIP3    H2 7465   0.751   4.482   1.409  0.7776 -0.1107 -0.5682
 2501TIP3   OH2 7466   2.872   4.249   0.168 -0.4362  0.0527 -0.1478
 2501TIP3    H1 7467   2.881   4.331   0.119  0.1052  0.1850  0.1724
 2501TIP3    H2 7468   2.871   4.181   0.100  0.2340  0.2422 -0.3493
 2502TIP3   OH2 7469   1.342   5.741   2.468  0.3327  0.3494 -0.3215
 2502TIP3    H1 7470   1.366   5.683   2.396  0.0783  0.5817 -0.5952
 2502TIP3    H2 7471   1.309   5.820   2.425 -0.7080  0.1243  0.0443
 2503TIP3   OH2 7472   4.446   6.086   0.557  0.1789 -0.2104  0.0270
 2503TIP3    H1 7473   4.448   5.990   0.557  0.4021 -0.2084  0.5186
 2503TIP3    H2 7474   4.356   6.108   0.532  0.4704 -0.5307 -1.3914
 2504TIP3   OH2 7475   1.722   5.790   5.502 -0.5028 -0.0054  0.3229
 2504TIP3    H1 7476   1.805   5.780   5.455 -1.8001 -1.6705 -1.8257
 2504TIP3    H2 7477   1.717   5.883   5.522  1.2606  0.3677 -0.7069
 2505TIP3   OH2 7478   1.262   0.685   0.556  0.2111 -0.6410 -0.1011
 2505TIP3    H1 7479   1.317   0.611   0.579  1.9523  0.0871 -1.6841
 2505TIP3    H2 7480   1.187   0.646   0.512  0.7317 -1.5115 -0.2369
 2506TIP3   OH2 7481   3.595   2.517   0.390  0.0470  0.8057  0.3087
 2506TIP3    H1 7482   3.518   2.540   0.441  0.3338  1.7694  0.3117
 2506TIP3    H2 7483   3.580   2.426   0.364 -0.9951  0.9223  0.4772
 2507TIP3   OH2 7484   5.290   5.358   1.945 -0.1717  0.5487  0.0094
 2507TIP3    H1 7485   5.361   5.422   1.946  0.1520  0.1843  1.2069
 2507TIP3    H2 7486   5.212   5.407   1.969 -0.2687  0.8644 -0.9078
 2508TIP3   OH2 7487   2.415   6.162   1.729 -0.4318  0.1903 -0.3849
 2508TIP3    H1 7488   2.472   6.106   1.675 -2.1928 -1.1411 -0.9864
 2508TIP3    H2 7489   2.370   6.101   1.788 -2.2420  0.9484 -0.8925
 2509TIP3   OH2 7490   1.997   5.317   4.522 -0.2088  0.0327  0.2875
 2509TIP3    H1 7491   1.924   5.262   4.551 -0.5453 -0.5064 -1.4563
 2509TIP3    H2 7492   1.955   5.396   4.488 -0.0587 -0.5060 -1.2251
 2510TIP3   OH2 7493   6.634   5.532   1.372  0.4371 -0.1069  0.1835
 2510TIP3    H1 7494   6.726   5.515   1.354  0.1099 -1.1554 -0.6231
 2510TIP3    H2 7495   6.596   5.445   1.387 -0.3521  0.3365  0.8250
 2511TIP3   OH2 7496   1.743   1.424   5.344 -0.3674 -0.0139 -0.0880
 2511TIP3    H1 7497   1.808   1.422   5.273  0.2524  1.1750  0.4070
 2511TIP3    H2 7498   1.749   1.513   5.378  0.0102 -0.7969  2.0538
 2512TIP3   OH2 7499   6.810   0.066   5.060 -0.0346  0.3046  0.4612
 2512TIP3    H1 7500   6.842   0.139   5.114  0.0938  1.7301 -1.4464
 2512TIP3    H2 7501   6.717   0.085   5.046  0.0744  0.2887 -0.3235
 2513TIP3   OH2 7502   0.513   0.969   0.754 -0.2884 -0.6362 -0.0842
 2513TIP3    H1 7503   0.427   0.930   0.740  0.9991 -3.7621 -0.1528
 2513TIP3    H2 7504   0.575   0.900   0.730  2.3010  1.7407 -0.7903
 2514TIP3   OH2 7505   2.692   1.290   0.337  0.2171  0.3870 -0.0602
 2514TIP3    H1 7506   2.738   1.299   0.254  2.0934  1.3244  1.0184
 2514TIP3    H2 7507   2.651   1.375   0.352  0.2838  0.3778  0.1843
 2515TIP3   OH2 7508   2.017   6.189   0.610 -0.5005  0.0596 -0.1347
 2515TIP3    H1 7509   2.094   6.157   0.563 -0.3373  0.2873 -0.0265
 2515TIP3    H2 7510   1.943   6.150   0.564 -0.3074 -0.4867  0.0109
 2516TIP3   OH2 7511   1.103   4.379   5.674 -0.4587 -0.0924  0.0093
 2516TIP3    H1 7512   1.043   4.449   5.649  0.5150  0.6065 -0.4031
 2516TIP3    H2 7513   1.096   4.315   5.603 -0.5190  0.1025 -0.1613
 2517TIP3   OH2 7514   3.346   6.356   0.467  0.3079  0.1794 -0.2526
 2517TIP3    H1 7515   3.376   6.267   0.456 -0.3287 -0.2386  1.0954
 2517TIP3    H2 7516   3.413   6.410   0.426 -0.0018 -0.9560 -2.3582
 2518TIP3   OH2 7517   2.547   2.234   5.647  0.1777  0.1640  0.2305
 2518TIP3    H1 7518   2.453   2.250   5.640  0.1088  0.3069  1.3706
 2518TIP3    H2 7519   2.575   2.284   5.724  0.7042 -1.8348  1.4140
 2519TIP3   OH2 7520   4.084   2.120   1.294  0.4313 -0.2133 -0.3526
 2519TIP3    H1 7521   4.082   2.132   1.199  1.8856 -0.7131 -0.4734
 2519TIP3    H2 7522   4.152   2.180   1.324  0.1385 -0.2240  0.3484
 2520TIP3   OH2 7523   3.801   1.399   2.777 -0.1357  0.5311  0.0965
 2520TIP3    H1 7524   3.769   1.486   2.752 -2.0686 -0.1425  0.0179
 2520TIP3    H2 7525   3.758   1.340   2.716  0.5873 -0.5418  0.6053
 2521TIP3   OH2 7526   5.933   4.759   3.505  0.7488  0.4553  0.3018
 2521TIP3    H1 7527   5.975   4.732   3.587  2.1323 -1.8937 -1.0875
 2521TIP3    H2 7528   5.965   4.848   3.490  1.0565  0.6498  1.8973
 2522TIP3   OH2 7529   2.342   0.128   1.358  0.1624 -0.3377 -0.1273
 2522TIP3    H1 7530   2.257   0.173   1.352 -0.9597 -2.2382  0.6830
 2522TIP3    H2 7531   2.355   0.113   1.451  1.4291 -0.0565 -0.2442
 2523TIP3   OH2 7532   2.813   1.169   5.583  0.2469 -0.5617  0.6449
 2523TIP3    H1 7533   2.727   1.192   5.546  1.2402 -0.1384 -1.5779
 2523TIP3    H2 7534   2.838   1.246   5.634 -0.2470 -0.2498  0.4333
 2524TIP3   OH2 7535   2.849   4.412   3.215 -0.0146  0.1753  0.5121
 2524TIP3    H1 7536   2.833   4.406   3.309 -1.3663 -2.5528  0.2155
 2524TIP3    H2 7537   2.925   4.355   3.200  0.4482  0.9144 -0.0208
 2525TIP3   OH2 7538   3.746   5.448   0.324 -0.3259 -0.0586  0.2691
 2525TIP3    H1 7539   3.717   5.489   0.242  1.2240  1.1052  0.2417
 2525TIP3    H2 7540   3.741   5.519   0.388  3.1521  0.5351  0.0608
 2526TIP3   OH2 7541   4.223   4.767   1.322  0.4193  0.0947  0.0493
 2526TIP3    H1 7542   4.209   4.688   1.271  0.6682  0.0367  0.0703
 2526TIP3    H2 7543   4.277   4.739   1.396 -0.4504  0.0594  0.6763
 2527TIP3   OH2 7544   4.698   4.502   4.944  0.6522 -0.2309  0.2217
 2527TIP3    H1 7545   4.713   4.438   4.874  2.2752  0.8342 -0.4616
 2527TIP3    H2 7546   4.751   4.470   5.017  1.0500  0.0502  0.0579
 2528TIP3   OH2 7547   1.746   4.686   4.944  0.1327  0.1094 -0.1488
 2528TIP3    H1 7548   1.770   4.596   4.921 -0.0474  0.7844 -3.5259
 2528TIP3    H2 7549   1.827   4.736   4.934 -0.3382  0.7270 -1.0262
 2529TIP3   OH2 7550   7.035   1.546   2.654 -0.0796  0.2190  0.4929
 2529TIP3    H1 7551   7.047   1.456   2.687 -1.7104  0.2059  1.1672
 2529TIP3    H2 7552   7.077   1.601   2.720  1.1715 -0.0348 -0.0623
 2530TIP3   OH2 7553   4.216   2.287   5.613 -0.0993 -0.4471  0.0966
 2530TIP3    H1 7554   4.244   2.210   5.663  0.2375  0.3230  1.1501
 2530TIP3    H2 7555   4.188   2.349   5.680 -1.3762 -0.0404 -0.7898
 2531TIP3   OH2 7556   3.689   4.040   2.616  0.1636 -0.0692  0.4067
 2531TIP3    H1 7557   3.738   4.116   2.585 -0.0599  0.2346  0.7854
 2531TIP3    H2 7558   3.656   4.067   2.702 -0.5252 -0.3297  0.2263
 2532TIP3   OH2 7559   5.270   5.824   2.000  0.0183  0.3033 -0.4989
 2532TIP3    H1 7560   5.252   5.741   1.956  0.2504 -1.0338  1.7547
 2532TIP3    H2 7561   5.213   5.822   2.078  1.5711  1.2436  0.7114
 2533TIP3   OH2 7562   3.286   3.432   1.613 -0.4334 -0.5242 -0.4180
 2533TIP3    H1 7563   3.305   3.340   1.594  0.7912 -0.5053  0.5574
 2533TIP3    H2 7564   3.368   3.478   1.595  0.2619 -0.2391  2.8030
 2534TIP3   OH2 7565   0.250   6.672   1.146 -0.2721 -0.2492 -0.5758
 2534TIP3    H1 7566   0.313   6.654   1.215  0.2802 -0.2706 -1.0750
 2534TIP3    H2 7567   0.292   6.641   1.066 -0.4334  0.7650 -1.0804
 2535TIP3   OH2 7568   6.707   0.689   5.003 -0.1258 -0.0661  0.0126
 2535TIP3    H1 7569   6.622   0.662   4.969 -0.2219  0.8224 -0.4889
 2535TIP3    H2 7570   6.688   0.761   5.064  0.0759 -1.4184  1.7465
 2536TIP3   OH2 7571   4.637   1.332   0.681  0.0352  0.4214  0.1366
 2536TIP3    H1 7572   4.681   1.250   0.658  0.8772  0.7467  0.5372
 2536TIP3    H2 7573   4.597   1.362   0.599  1.0501  0.3960 -0.3878
 2537TIP3   OH2 7574   1.406   5.281   2.412 -0.6618 -0.5229 -0.1102
 2537TIP3    H1 7575   1.339   5.323   2.466 -0.2509 -0.6704  0.5334
 2537TIP3    H2 7576   1.450   5.221   2.472  1.8828  1.5470  0.2442
 2538TIP3   OH2 7577   5.012   5.635   3.787  0.4353  0.2002  0.4593
 2538TIP3    H1 7578   4.936   5.581   3.811  0.5883  0.9032  2.7829
 2538TIP3    H2 7579   4.982   5.686   3.711 -0.8180 -0.7788  0.2607
 2539TIP3   OH2 7580   2.054   5.226   3.977 -0.7775  0.4076  0.5181
 2539TIP3    H1 7581   2.070   5.201   3.886  0.1461 -0.1414  0.8188
 2539TIP3    H2 7582   2.032   5.319   3.972  1.1958  0.8981 -0.1089
 2540TIP3   OH2 7583   2.210   2.467   1.778 -0.8112  0.5370 -0.4416
 2540TIP3    H1 7584   2.301   2.487   1.757 -0.0936 -1.8665  0.1245
 2540TIP3    H2 7585   2.187   2.531   1.846  1.3536 -0.4622  1.3493
 2541TIP3   OH2 7586   6.323   0.452   3.226 -0.1886 -0.5219 -0.4297
 2541TIP3    H1 7587   6.343   0.489   3.312  2.2247 -0.6679 -0.8587
 2541TIP3    H2 7588   6.284   0.524   3.177 -1.0777 -0.2849  0.5687
 2542TIP3   OH2 7589   4.930   3.913   3.741 -0.3272  0.0647  0.3655
 2542TIP3    H1 7590   4.919   3.822   3.768 -1.1027 -0.6662 -2.1740
 2542TIP3    H2 7591   4.857   3.930   3.681  1.5165  1.3472 -1.6544
 2543TIP3   OH2 7592   5.866   2.410   1.716 -0.6716  0.3816 -0.0123
 2543TIP3    H1 7593   5.909   2.356   1.783 -1.5409 -1.0358 -0.5531
 2543TIP3    H2 7594   5.817   2.476   1.766 -1.4135 -0.7305  0.7660
 2544TIP3   OH2 7595   1.214   6.350   3.974 -0.3332 -0.1944  0.2668
 2544TIP3    H1 7596   1.144   6.404   3.938 -1.4815 -0.3645  2.1165
 2544TIP3    H2 7597   1.281   6.412   4.003 -0.6952  0.1114  0.4551
 2545TIP3   OH2 7598   0.634   0.623   1.183  0.1497 -0.4354  0.0550
 2545TIP3    H1 7599   0.677   0.582   1.258 -1.0166  0.5527  1.3088
 2545TIP3    H2 7600   0.656   0.566   1.109  2.0678 -0.9564  0.9468
 2546TIP3   OH2 7601   7.052   0.620   0.781 -0.4623 -0.3262 -0.1912
 2546TIP3    H1 7602   7.052   0.585   0.692 -0.0629 -3.1036  0.7991
 2546TIP3    H2 7603   6.999   0.558   0.831  0.9551  0.0312  1.9022
 2547TIP3   OH2 7604   2.728   1.094   0.519 -0.4146  0.4995 -0.2287
 2547TIP3    H1 7605   2.720   1.170   0.461 -1.2830  0.8844  0.3703
 2547TIP3    H2 7606   2.763   1.129   0.600 -0.1183  0.1252 -0.1916
 2548TIP3   OH2 7607   4.668   0.331   5.636 -0.5041 -0.0103 -0.1508
 2548TIP3    H1 7608   4.723   0.387   5.690  1.8548 -1.0270 -1.3238
 2548TIP3    H2 7609   4.655   0.252   5.687 -0.8340  0.1958  0.0906
 2549TIP3   OH2 7610   0.209   5.317   4.317 -0.6914 -0.1422 -0.1019
 2549TIP3    H1 7611   0.243   5.313   4.406 -2.4587  1.0915  0.7052
 2549TIP3    H2 7612   0.232   5.232   4.279 -0.6844 -1.0811  1.8377
 2550TIP3   OH2 7613   5.107   5.395   2.842  0.3870 -0.0796 -0.4790
 2550TIP3    H1 7614   5.016   5.374   2.823  0.4506 -0.1877 -0.6717
 2550TIP3    H2 7615   5.155   5.314   2.822  0.3805 -0.4086  0.7481
 2551TIP3   OH2 7616   4.874   4.927   2.744 -0.1777  0.3231  0.0858
 2551TIP3    H1 7617   4.830   4.921   2.829  0.0229  1.7066  0.3154
 2551TIP3    H2 7618   4.902   4.837   2.725 -0.0458  0.0152  1.5795
 2552TIP3   OH2 7619   1.102   6.276   2.493  0.2708 -0.4837 -0.3393
 2552TIP3    H1 7620   1.155   6.203   2.462  0.1359 -1.1707  0.9836
 2552TIP3    H2 7621   1.020   6.235   2.521  0.4265  0.0829  0.9874
 2553TIP3   OH2 7622   5.616   1.541   1.809  0.5590  0.7192  0.3108
 2553TIP3    H1 7623   5.669   1.533   1.730  1.4458 -1.2971  1.0550
 2553TIP3    H2 7624   5.674   1.515   1.880 -1.0553 -0.3447  1.3027
 2554TIP3   OH2 7625   3.056   1.089   2.457  0.0575 -0.2909  0.0541
 2554TIP3    H1 7626   3.033   1.176   2.492  0.2172 -0.2495  0.0574
 2554TIP3    H2 7627   3.063   1.033   2.535  2.9448  0.3589  0.4009
 2555TIP3   OH2 7628   6.032   6.115   2.135 -0.5604 -0.0386  0.0677
 2555TIP3    H1 7629   5.976   6.192   2.147 -0.2262  0.8172 -2.9329
 2555TIP3    H2 7630   6.098   6.122   2.204 -2.1090  0.8157  1.5445
 2556TIP3   OH2 7631   2.292   3.770   4.869  0.0384 -0.1296  0.2290
 2556TIP3    H1 7632   2.320   3.799   4.956  0.4110 -0.5349  0.2542
 2556TIP3    H2 7633   2.208   3.728   4.883  0.7887 -1.5652  0.6680
 2557TIP3   OH2 7634   6.152   0.058   0.538  0.2079 -0.2683 -0.5291
 2557TIP3    H1 7635   6.062   0.090   0.531  0.9364  1.9707 -0.1959
 2557TIP3    H2 7636   6.159  -0.006   0.467 -1.7312 -0.7711 -0.3402
 2558TIP3   OH2 7637   3.623   4.396   2.199 -0.8940 -0.2841  0.3964
 2558TIP3    H1 7638   3.684   4.332   2.162 -0.9186  0.8067 -1.7071
 2558TIP3    H2 7639   3.581   4.350   2.272 -0.2561 -2.3278 -0.4410
 2559TIP3   OH2 7640   1.169   6.014   2.039 -0.2334  0.4548  0.7154
 2559TIP3    H1 7641   1.187   6.046   1.950 -1.2717  0.8320  0.6328
 2559TIP3    H2 7642   1.252   6.025   2.085  0.0382  1.2206  0.0722
 2560TIP3   OH2 7643   2.555   6.394   4.025 -0.3191  0.3242 -0.1328
 2560TIP3    H1 7644   2.559   6.361   3.935 -0.4544 -1.1653  0.3894
 2560TIP3    H2 7645   2.558   6.490   4.015  0.4667  0.1728 -1.6647
 2561TIP3   OH2 7646   6.327   6.220   5.015  0.1218  0.1930  0.6493
 2561TIP3    H1 7647   6.242   6.207   5.057  0.8516 -0.0623  2.0792
 2561TIP3    H2 7648   6.381   6.147   5.046  0.9320  0.4543 -0.0990
 2562TIP3   OH2 7649   4.374   0.522   4.942  0.6385  0.1400  0.3950
 2562TIP3    H1 7650   4.329   0.493   4.863  0.5366 -0.6794  0.7416
 2562TIP3    H2 7651   4.459   0.555   4.912 -0.3646  2.2360 -0.3358
 2563TIP3   OH2 7652   3.602   0.572   1.903  0.0455 -0.0191  0.4202
 2563TIP3    H1 7653   3.631   0.637   1.840 -0.5598  0.3833  0.5498
 2563TIP3    H2 7654   3.529   0.613   1.948  0.1152 -0.5162  1.0004
 2564TIP3   OH2 7655   7.091   6.675   4.124 -0.2907  0.3955 -0.7470
 2564TIP3    H1 7656   7.094   6.713   4.212 -0.9682 -0.8087 -0.1772
 2564TIP3    H2 7657   7.172   6.624   4.118 -1.7926 -2.3828  0.5896
 2565TIP3   OH2 7658   0.063   3.113   1.061 -0.2006  0.6291  0.3622
 2565TIP3    H1 7659   0.105   3.188   1.020 -0.7160  0.7967  0.1333
 2565TIP3    H2 7660   0.052   3.139   1.153  1.3952  0.0659  0.7558
 2566TIP3   OH2 7661   3.326   1.791   5.738 -0.4502 -0.6472 -0.7681
 2566TIP3    H1 7662   3.263   1.724   5.767 -0.6936 -0.4890 -0.9258
 2566TIP3    H2 7663   3.294   1.872   5.778  0.2080 -0.7305 -0.0519
 2567TIP3   OH2 7664   2.779   0.723   4.518 -0.3070  0.3635  0.2791
 2567TIP3    H1 7665   2.787   0.629   4.506 -0.3529  0.0970  1.9970
 2567TIP3    H2 7666   2.780   0.735   4.613 -0.3316  2.0947  0.0998
 2568TIP3   OH2 7667   3.957   5.036   2.568 -0.6745  0.0024 -0.3085
 2568TIP3    H1 7668   3.872   5.067   2.600 -0.0698 -0.4328  1.9036
 2568TIP3    H2 7669   4.016   5.110   2.582 -0.7327  0.5151 -2.3912
 2569TIP3   OH2 7670   0.465   0.042   5.768  0.3597  0.8899  0.5567
 2569TIP3    H1 7671   0.417   0.111   5.814 -0.3816 -0.2465  1.5301
 2569TIP3    H2 7672   0.555   0.052   5.798  0.0333  0.6795  1.6595
 2570TIP3   OH2 7673   4.948   2.213   1.643 -0.3053 -0.1616 -0.6018
 2570TIP3    H1 7674   4.911   2.125   1.634  0.3522 -0.4201 -0.8107
 2570TIP3    H2 7675   5.035   2.207   1.603  0.5452  0.0648  1.1214
 2571TIP3   OH2 7676   5.537   2.040   5.187  0.3581 -0.1024 -1.0360
 2571TIP3    H1 7677   5.616   1.993   5.160  0.2421 -0.3557 -0.9376
 2571TIP3    H2 7678   5.489   1.978   5.241  0.1686  0.1066 -0.9595
 2572TIP3   OH2 7679   1.810   5.373   2.543 -0.3749 -0.1905  0.5293
 2572TIP3    H1 7680   1.748   5.377   2.616 -1.2930 -0.0459 -0.2350
 2572TIP3    H2 7681   1.774   5.434   2.478  1.1252  0.6802  0.4747
 2573TIP3   OH2 7682   5.898   2.949   4.065 -0.3532  0.0031  0.2191
 2573TIP3    H1 7683   5.831   3.015   4.048 -1.5279 -1.0903  0.4122
 2573TIP3    H2 7684   5.955   2.951   3.988  0.0836  1.7378  0.5558
 2574TIP3   OH2 7685   3.752   0.431   2.078  0.1314 -0.6970  0.0654
 2574TIP3    H1 7686   3.673   0.436   2.024 -0.6781  2.5460  1.3616
 2574TIP3    H2 7687   3.818   0.479   2.029 -0.3145  1.3461  1.3454
 2575TIP3   OH2 7688   3.392   3.524   4.884 -0.8474 -0.1300 -0.3556
 2575TIP3    H1 7689   3.350   3.448   4.844  1.2640 -2.0969  0.9667
 2575TIP3    H2 7690   3.353   3.531   4.971 -0.2488 -0.4023 -0.0609
 2576TIP3   OH2 7691   6.764   2.771   3.289  0.4753 -0.0976 -0.1465
 2576TIP3    H1 7692   6.761   2.676   3.300  0.2969  0.1343  2.4298
 2576TIP3    H2 7693   6.675   2.801   3.307  0.6279  0.5873 -0.4940
 2577TIP3   OH2 7694   5.861   3.923   2.752 -0.1651 -0.1598 -1.2110
 2577TIP3    H1 7695   5.939   3.867   2.762 -0.6088 -0.4043  1.9412
 2577TIP3    H2 7696   5.803   3.873   2.695  0.4473 -1.8354 -0.4538
 2578TIP3   OH2 7697   1.683   1.535   3.713  0.1553 -0.3642  0.6401
 2578TIP3    H1 7698   1.677   1.591   3.790  2.1008 -0.3320  0.8183
 2578TIP3    H2 7699   1.725   1.455   3.744  0.7792 -0.4282 -0.3295
 2579TIP3   OH2 7700   2.964   1.006   1.619 -0.0175 -0.2911 -0.6914
 2579TIP3    H1 7701   2.903   0.940   1.652 -1.0466  0.6193 -0.7223
 2579TIP3    H2 7702   3.034   0.956   1.578  0.0316 -1.4048  0.6825
 2580TIP3   OH2 7703   5.522   0.843   0.792  0.4578  0.2555 -0.1815
 2580TIP3    H1 7704   5.525   0.747   0.790 -0.9747  0.1902 -1.2465
 2580TIP3    H2 7705   5.553   0.867   0.879 -0.4045 -1.2407  0.5711
 2581TIP3   OH2 7706   1.085   5.550   2.375 -0.0797  0.5413 -0.3672
 2581TIP3    H1 7707   1.139   5.599   2.312  0.5327  0.9207  0.4240
 2581TIP3    H2 7708   1.046   5.618   2.430  2.8607  0.1900  2.4354
 2582TIP3   OH2 7709   2.657   5.856   2.369 -0.0853 -0.1174 -0.0576
 2582TIP3    H1 7710   2.615   5.881   2.287 -1.5404  0.7171  0.9093
 2582TIP3    H2 7711   2.585   5.840   2.430  0.9652  0.8976  1.5341
 2583TIP3   OH2 7712   3.747   4.724   0.000 -0.3886  0.5636  0.2047
 2583TIP3    H1 7713   3.773   4.733   0.092  0.6476 -0.6517  0.0677
 2583TIP3    H2 7714   3.758   4.811  -0.037  3.8533  0.2398  0.1303
 2584TIP3   OH2 7715   1.653   5.431   1.199 -0.1672 -0.4959  0.4252
 2584TIP3    H1 7716   1.648   5.476   1.115  0.1723 -0.8619  0.2106
 2584TIP3    H2 7717   1.601   5.352   1.187  0.1845 -0.7308  0.4430
 2585TIP3   OH2 7718   6.643   4.827   0.400 -0.1139  0.5896 -0.6982
 2585TIP3    H1 7719   6.723   4.878   0.412  0.5386 -0.7391  0.9280
 2585TIP3    H2 7720   6.667   4.758   0.339 -0.0864  0.3234 -0.3864
 2586TIP3   OH2 7721   4.650   2.358   4.838  0.0897  0.6630  0.2894
 2586TIP3    H1 7722   4.603   2.422   4.785 -0.0008  0.0658 -0.3677
 2586TIP3    H2 7723   4.585   2.325   4.901 -0.6145 -0.7001 -1.0934
 2587TIP3   OH2 7724   0.292   4.077   0.914 -0.3685 -0.4747  0.0132
 2587TIP3    H1 7725   0.306   3.987   0.887 -0.2002 -0.6983  0.8191
 2587TIP3    H2 7726   0.380   4.110   0.934 -0.2945  0.2136 -1.2790
 2588TIP3   OH2 7727   0.277   5.244   4.592 -0.5844  0.2674 -0.0894
 2588TIP3    H1 7728   0.199   5.201   4.623 -1.2691  0.1701 -1.8170
 2588TIP3    H2 7729   0.267   5.336   4.619 -0.4897 -0.0639  1.1019
 2589TIP3   OH2 7730   6.904   5.474   1.322  0.2412 -0.4994  0.2071
 2589TIP3    H1 7731   6.899   5.449   1.229 -0.6863  0.5700 -0.0489
 2589TIP3    H2 7732   6.984   5.431   1.353  0.8543 -0.4642 -1.2129
 2590TIP3   OH2 7733   4.300   2.680   0.028 -0.3135 -0.1908  0.4897
 2590TIP3    H1 7734   4.261   2.751  -0.023 -0.6374 -0.5624  0.2066
 2590TIP3    H2 7735   4.391   2.706   0.041 -0.1572 -0.1997 -0.5028
 2591TIP3   OH2 7736   6.807   2.256   2.148  0.1837  0.1937  0.0912
 2591TIP3    H1 7737   6.774   2.334   2.105 -0.3541 -0.3212 -0.4535
 2591TIP3    H2 7738   6.849   2.288   2.228 -0.4279  0.9951  0.1018
 2592TIP3   OH2 7739   1.692   0.909   5.056 -0.1974  0.4651  0.3474
 2592TIP3    H1 7740   1.662   0.983   5.108  0.4912  0.6846  0.4515
 2592TIP3    H2 7741   1.771   0.940   5.013  0.8765 -0.5926  1.4452
 2593TIP3   OH2 7742   3.653   0.773   5.709 -0.3256  0.0941  0.6480
 2593TIP3    H1 7743   3.721   0.723   5.664  0.3660  3.1421 -2.0875
 2593TIP3    H2 7744   3.573   0.722   5.698  0.5520 -1.0332 -0.7900
 2594TIP3   OH2 7745   5.807   2.525   2.924  0.0168 -0.5754  0.7364
 2594TIP3    H1 7746   5.714   2.533   2.904 -0.0949 -0.8045  1.1629
 2594TIP3    H2 7747   5.817   2.565   3.010  0.9530  2.8863 -0.7867
 2595TIP3   OH2 7748   6.364   5.863   1.624  0.1916 -0.1647 -0.5627
 2595TIP3    H1 7749   6.399   5.840   1.710  0.6312 -0.4310 -0.8090
 2595TIP3    H2 7750   6.276   5.827   1.623  0.2682 -0.3587 -0.3106
 2596TIP3   OH2 7751   3.543   5.226   1.673  0.6483  0.2293 -0.1748
 2596TIP3    H1 7752   3.526   5.298   1.734  0.9099 -0.3976  0.6587
 2596TIP3    H2 7753   3.457   5.186   1.660  0.5532  0.5063 -0.3992
 2597TIP3   OH2 7754   6.499   6.473   0.549  0.0847  0.3675 -0.5465
 2597TIP3    H1 7755   6.594   6.474   0.558  0.1032 -0.5448 -0.4918
 2597TIP3    H2 7756   6.477   6.380   0.546 -1.0356  0.4413  2.1567
 2598TIP3   OH2 7757   4.853   1.862   4.348 -0.3758  0.0339 -0.2884
 2598TIP3    H1 7758   4.800   1.788   4.319  0.5669 -0.4798 -0.7711
 2598TIP3    H2 7759   4.829   1.934   4.291 -0.5661 -0.1932 -0.4968
 2599TIP3   OH2 7760   5.008   1.594   3.308  0.0513 -0.2806 -0.0023
 2599TIP3    H1 7761   4.945   1.666   3.316  0.5765  0.0483  1.7025
 2599TIP3    H2 7762   5.063   1.618   3.234 -2.1305 -0.8635 -1.9141
 2600TIP3   OH2 7763   4.465   0.777   3.717  0.7555  0.2559 -0.0763
 2600TIP3    H1 7764   4.411   0.698   3.724 -0.3421  0.8943 -1.0644
 2600TIP3    H2 7765   4.408   0.842   3.677  1.2184  1.9721  1.8828
 2601TIP3   OH2 7766   6.600   0.395   4.255  0.0375  0.3656  0.6636
 2601TIP3    H1 7767   6.649   0.466   4.214  0.5808 -0.0998  0.4911
 2601TIP3    H2 7768   6.663   0.323   4.261 -1.3046 -1.1813 -1.9920
 2602TIP3   OH2 7769   7.166   1.956   4.142 -0.8351 -0.1449  0.8229
 2602TIP3    H1 7770   7.078   1.993   4.134 -0.7155 -0.1871 -0.8880
 2602TIP3    H2 7771   7.213   2.020   4.196 -1.3191  0.9713 -0.0304
 2603TIP3   OH2 7772   6.332   2.691   3.019 -0.2249  0.0722 -0.0792
 2603TIP3    H1 7773   6.400   2.624   3.014 -0.7228 -0.4314 -0.2712
 2603TIP3    H2 7774   6.376   2.768   3.054  0.5810 -0.0695 -0.7424
 2604TIP3   OH2 7775   0.536   5.367   1.355 -0.1010 -0.4104 -0.2991
 2604TIP3    H1 7776   0.518   5.409   1.439  2.1613 -0.3165  0.2119
 2604TIP3    H2 7777   0.632   5.365   1.349 -0.1756 -2.0710 -2.0459
 2605TIP3   OH2 7778   6.245   2.847   3.708  0.2600  0.0091  0.7631
 2605TIP3    H1 7779   6.333   2.869   3.679 -0.2905  1.3244 -0.0509
 2605TIP3    H2 7780   6.243   2.868   3.801  0.7651  0.1153  0.7487
 2606TIP3   OH2 7781   4.868   0.211   4.074 -0.4069 -0.1316 -0.5849
 2606TIP3    H1 7782   4.960   0.221   4.099 -0.5078  0.6717 -0.4954
 2606TIP3    H2 7783   4.860   0.263   3.994 -1.7620  3.7176  1.7783
 2607TIP3   OH2 7784   2.179   5.136   2.458 -0.4574  0.5001 -0.3752
 2607TIP3    H1 7785   2.210   5.183   2.535 -0.1739  0.2692 -0.3484
 2607TIP3    H2 7786   2.088   5.112   2.479 -0.4618  0.6612 -0.2168
 2608TIP3   OH2 7787   6.411   4.676   0.168 -0.8209 -0.0933  0.2417
 2608TIP3    H1 7788   6.411   4.741   0.238  3.9602  1.5904 -0.9218
 2608TIP3    H2 7789   6.387   4.725   0.089  1.7542  0.1551 -0.4670
 2609TIP3   OH2 7790   2.213   1.131   1.499 -0.3100  0.3309  0.0727
 2609TIP3    H1 7791   2.232   1.225   1.488 -0.3642  0.2370 -0.9685
 2609TIP3    H2 7792   2.298   1.092   1.520 -0.4993  0.7654  1.8165
 2610TIP3   OH2 7793   6.274   0.515   1.462 -0.4467 -0.0928 -0.2574
 2610TIP3    H1 7794   6.275   0.454   1.388 -1.3002 -0.4234 -0.0062
 2610TIP3    H2 7795   6.298   0.461   1.538  0.0594  0.1643 -0.2312
 2611TIP3   OH2 7796   1.472   3.478   0.399 -0.3947 -0.2251  0.2976
 2611TIP3    H1 7797   1.470   3.511   0.310 -0.1189 -2.5743 -0.6713
 2611TIP3    H2 7798   1.531   3.402   0.395  1.7980  1.1371  3.0803
 2612TIP3   OH2 7799   5.872   3.501   4.476  0.1772  0.0400 -0.1442
 2612TIP3    H1 7800   5.935   3.448   4.525 -0.1226 -1.4130 -1.2619
 2612TIP3    H2 7801   5.918   3.583   4.459  1.3652 -0.5802 -0.0115
 2613TIP3   OH2 7802   0.054   4.673   3.912 -0.0127  0.4092  0.4349
 2613TIP3    H1 7803   0.077   4.586   3.881 -1.2155 -0.1855  1.1315
 2613TIP3    H2 7804  -0.012   4.704   3.850  1.4005  1.4391 -0.6254
 2614TIP3   OH2 7805   3.780   3.346   2.694  0.1957 -0.1247 -0.0134
 2614TIP3    H1 7806   3.752   3.404   2.623 -1.2737 -0.3993  0.3250
 2614TIP3    H2 7807   3.700   3.305   2.725  0.9546 -0.7799  1.1447
 2615TIP3   OH2 7808   4.499   5.236   2.677 -0.1268 -0.1043  0.1788
 2615TIP3    H1 7809   4.516   5.307   2.739 -0.3801 -0.2305  0.3954
 2615TIP3    H2 7810   4.548   5.260   2.599  0.1983  0.0531  0.4312
 2616TIP3   OH2 7811   4.964   3.076   2.901 -0.4294  0.4998  0.4638
 2616TIP3    H1 7812   4.880   3.124   2.903 -1.1461 -0.6523 -0.3786
 2616TIP3    H2 7813   4.944   2.997   2.850  0.8553 -0.4331  1.3653
 2617TIP3   OH2 7814   6.878   4.109   4.452 -1.0579 -0.2472 -0.4333
 2617TIP3    H1 7815   6.903   4.074   4.366 -1.7412  0.3247 -0.8792
 2617TIP3    H2 7816   6.783   4.117   4.447 -1.3799 -2.2810  1.1661
 2618TIP3   OH2 7817   2.102   2.346   1.230 -0.4812  0.5881  0.1353
 2618TIP3    H1 7818   2.043   2.324   1.302  0.5726 -1.0027  0.5730
 2618TIP3    H2 7819   2.173   2.395   1.272  1.4080 -2.3943  0.7878
 2619TIP3   OH2 7820   2.075   3.712   2.886 -0.0617 -0.2834 -0.0970
 2619TIP3    H1 7821   2.053   3.638   2.943  0.1741 -1.0840 -1.0094
 2619TIP3    H2 7822   1.990   3.753   2.866 -0.0885  0.4445  1.3551
 2620TIP3   OH2 7823   5.965   1.440   3.523 -0.0921 -0.2787 -0.2486
 2620TIP3    H1 7824   5.999   1.507   3.582 -1.6323  0.2864  0.0339
 2620TIP3    H2 7825   5.970   1.479   3.436  0.1574 -0.2793 -0.2351
 2621TIP3   OH2 7826   3.889   4.164   3.641  0.2295  0.3595  0.4005
 2621TIP3    H1 7827   3.885   4.164   3.545  2.2430  2.3322  0.2557
 2621TIP3    H2 7828   3.933   4.082   3.663  2.0865  1.0458 -0.5595
 2622TIP3   OH2 7829   2.514   0.186   5.366 -0.4288 -0.7418 -0.1283
 2622TIP3    H1 7830   2.492   0.264   5.417 -0.6262 -1.0149  0.2087
 2622TIP3    H2 7831   2.582   0.143   5.416 -0.0426 -0.5838 -0.5139
 2623TIP3   OH2 7832   5.576   5.665   4.329  0.2323  0.1295  0.4039
 2623TIP3    H1 7833   5.586   5.570   4.339  2.1395  0.3402  0.9562
 2623TIP3    H2 7834   5.666   5.698   4.325 -0.3886  1.8836 -0.2518
 2624TIP3   OH2 7835   4.522   3.776   5.884 -0.7272 -0.1503 -0.3546
 2624TIP3    H1 7836   4.483   3.799   5.800 -0.3803 -0.3294 -0.5669
 2624TIP3    H2 7837   4.541   3.861   5.925 -0.6961 -0.0634 -0.5500
 2625TIP3   OH2 7838   4.754   0.286   3.466  0.2091  0.3565 -0.0308
 2625TIP3    H1 7839   4.754   0.345   3.390 -2.6819  0.5047 -0.0144
 2625TIP3    H2 7840   4.711   0.336   3.535 -1.0458 -1.2287  0.3932
 2626TIP3   OH2 7841   0.623   2.964   4.122 -0.5956 -0.5940 -0.0896
 2626TIP3    H1 7842   0.564   2.934   4.053  0.6592 -4.4187  0.3052
 2626TIP3    H2 7843   0.707   2.979   4.077 -1.1232  2.5919 -0.2452
 2627TIP3   OH2 7844   0.519   4.036   2.428 -0.2275  0.3212 -0.4643
 2627TIP3    H1 7845   0.466   3.988   2.492 -1.1455  1.2805 -0.4950
 2627TIP3    H2 7846   0.609   4.009   2.447 -0.5048  0.4196  1.0940
 2628TIP3   OH2 7847   4.376   2.051   4.317 -0.5339 -0.0052  0.3544
 2628TIP3    H1 7848   4.380   1.962   4.281  3.2137  0.6811 -1.4703
 2628TIP3    H2 7849   4.387   2.108   4.240 -0.5040  1.9474  1.7345
 2629TIP3   OH2 7850   4.847   2.423   1.526 -0.5644  0.2361  0.9179
 2629TIP3    H1 7851   4.871   2.480   1.599  1.7636  0.4197  0.1012
 2629TIP3    H2 7852   4.875   2.336   1.553  1.3423  0.4665 -0.0776
 2630TIP3   OH2 7853   2.957   6.517   1.779  0.1254 -0.0964 -0.0103
 2630TIP3    H1 7854   3.031   6.579   1.778  0.2542 -0.2096  1.1197
 2630TIP3    H2 7855   2.894   6.557   1.838 -1.1712  0.4684 -1.6976
 2631TIP3   OH2 7856   2.301   3.455   0.914  0.2657  0.1317  0.7532
 2631TIP3    H1 7857   2.253   3.527   0.873  0.0240 -0.0200  0.7707
 2631TIP3    H2 7858   2.347   3.412   0.841  1.5038  1.1224  0.9074
 2632TIP3   OH2 7859   7.102   4.232   3.884  0.0876  0.8203 -0.3977
 2632TIP3    H1 7860   7.053   4.168   3.937  1.9281 -0.6348 -0.3719
 2632TIP3    H2 7861   7.102   4.195   3.796  0.6772  1.1004 -0.5162
 2633TIP3   OH2 7862   0.905   0.041   0.337 -0.0333  0.2771  0.0942
 2633TIP3    H1 7863   0.915   0.119   0.392 -0.4394 -0.5272  1.3591
 2633TIP3    H2 7864   0.835  -0.009   0.379  1.4439 -1.6672  0.4122
 2634TIP3   OH2 7865   5.110   1.561   0.725 -0.2147 -0.4549  0.1311
 2634TIP3    H1 7866   5.107   1.514   0.642 -0.4130 -0.2762  0.0329
 2634TIP3    H2 7867   5.201   1.555   0.754  0.1543  0.5637 -0.7370
 2635TIP3   OH2 7868   6.570   5.455   3.212  0.4380 -0.2858  0.5008
 2635TIP3    H1 7869   6.488   5.418   3.243 -0.3121  1.4405  0.7003
 2635TIP3    H2 7870   6.637   5.398   3.249 -0.6590 -1.6680  0.4116
 2636TIP3   OH2 7871   4.914   6.348   3.973  0.5025 -0.1770 -0.7119
 2636TIP3    H1 7872   4.862   6.384   4.045 -0.2368  1.7108 -2.1196
 2636TIP3    H2 7873   4.975   6.287   4.015 -0.2439  0.4804  1.4250
 2637TIP3   OH2 7874   3.723   1.386   1.201 -0.6499  0.2280 -0.3672
 2637TIP3    H1 7875   3.728   1.482   1.201  0.3129  0.1882  0.2542
 2637TIP3    H2 7876   3.688   1.365   1.288 -1.2029  0.0153 -0.6334
 2638TIP3   OH2 7877   2.485   0.164   4.177  0.2762 -0.9538 -0.1858
 2638TIP3    H1 7878   2.412   0.114   4.212  0.1960 -1.1118 -0.5688
 2638TIP3    H2 7879   2.474   0.251   4.215 -1.2194 -0.4225 -1.6870
 2639TIP3   OH2 7880   6.971   5.723   2.255  0.4551  0.4524  0.1088
 2639TIP3    H1 7881   6.997   5.651   2.198  0.5867  1.1444 -0.7201
 2639TIP3    H2 7882   6.880   5.704   2.278  1.4646 -1.7923  2.7245
 2640TIP3   OH2 7883   5.960   6.259   5.373 -0.2164 -0.5005 -0.2000
 2640TIP3    H1 7884   5.864   6.266   5.376 -0.2211  0.8577 -2.0558
 2640TIP3    H2 7885   5.984   6.235   5.463 -2.1646  1.0648  0.8350
 2641TIP3   OH2 7886   1.200   1.474   3.405 -0.2717 -0.0860 -0.3058
 2641TIP3    H1 7887   1.264   1.416   3.364  1.8762  2.2712 -0.5312
 2641TIP3    H2 7888   1.177   1.537   3.337  0.5488  1.7014  0.9836
 2642TIP3   OH2 7889   1.029   0.220   2.609  0.2098 -0.1906  1.1240
 2642TIP3    H1 7890   1.077   0.234   2.527  0.3473 -0.0889  1.2221
 2642TIP3    H2 7891   0.964   0.153   2.587  1.0342 -1.0539  1.2412
 2643TIP3   OH2 7892   2.862   6.442   0.570  0.2619 -0.2132 -0.2936
 2643TIP3    H1 7893   2.840   6.349   0.555  1.9407 -0.5789 -0.7004
 2643TIP3    H2 7894   2.955   6.448   0.546 -0.4477  2.1426 -2.8765
 2644TIP3   OH2 7895   3.084   3.670   2.905  0.1672  0.0650 -0.2895
 2644TIP3    H1 7896   3.092   3.763   2.884 -2.1656  0.2953 -0.4661
 2644TIP3    H2 7897   3.005   3.664   2.959  1.5645 -1.5576  1.6917
 2645TIP3   OH2 7898   5.638   1.753   2.177 -0.1838 -0.0701 -0.5557
 2645TIP3    H1 7899   5.631   1.714   2.264  0.8019  0.1402 -0.3756
 2645TIP3    H2 7900   5.679   1.685   2.124  0.0517  0.1358 -0.6362
 2646TIP3   OH2 7901   3.292   2.843   1.034 -0.3973  0.5169  0.1975
 2646TIP3    H1 7902   3.338   2.915   1.079 -0.9201  1.4585 -0.7330
 2646TIP3    H2 7903   3.361   2.799   0.983 -0.1590  0.6479  0.4036
 2647TIP3   OH2 7904   5.520   0.653   4.471 -0.0148  0.1353  0.0061
 2647TIP3    H1 7905   5.496   0.744   4.459  1.5159  0.5189 -0.4174
 2647TIP3    H2 7906   5.550   0.624   4.385  0.5161 -0.4385  0.3689
 2648TIP3   OH2 7907   0.872   2.029   3.439  0.2776  0.2786 -0.0313
 2648TIP3    H1 7908   0.866   2.065   3.351  0.2851  0.4763  0.0504
 2648TIP3    H2 7909   0.786   1.990   3.455  0.9559 -1.8204 -1.0237
 2649TIP3   OH2 7910   6.679   2.381   3.549 -0.3351 -0.5785 -0.0663
 2649TIP3    H1 7911   6.587   2.357   3.540 -0.7014  0.6261  0.3262
 2649TIP3    H2 7912   6.680   2.449   3.617  0.8165 -0.4402 -0.2005
 2650TIP3   OH2 7913   3.251   3.171   2.754 -0.2775 -0.5930 -0.1214
 2650TIP3    H1 7914   3.273   3.224   2.678  0.1573 -1.3234 -0.5188
 2650TIP3    H2 7915   3.160   3.193   2.773 -1.1314 -2.0187 -2.2267
 2651TIP3   OH2 7916   1.034   5.180   3.285  0.0698 -0.1203  0.2753
 2651TIP3    H1 7917   0.945   5.177   3.249  0.0114  2.7330 -0.0227
 2651TIP3    H2 7918   1.024   5.222   3.370  1.1553  0.2751  0.2098
 2652TIP3   OH2 7919   0.387   2.712   0.782 -0.3178 -0.4416 -0.4142
 2652TIP3    H1 7920   0.316   2.767   0.749  0.3924 -0.3035 -1.8174
 2652TIP3    H2 7921   0.360   2.623   0.763 -0.4431 -0.4315 -0.2805
 2653TIP3   OH2 7922   4.082   4.630   1.842  0.2669  0.2103  0.4834
 2653TIP3    H1 7923   4.085   4.603   1.934  0.2635  0.4512  0.5544
 2653TIP3    H2 7924   4.109   4.552   1.793 -1.4845 -0.5200  0.5805
 2654TIP3   OH2 7925   0.109   6.474   3.669  0.1645  0.3978 -0.2827
 2654TIP3    H1 7926   0.057   6.553   3.655  0.2985  0.2695 -1.7107
 2654TIP3    H2 7927   0.193   6.493   3.626  0.4674 -0.2451  0.0104
 2655TIP3   OH2 7928   5.860   0.314   2.404 -0.2420  0.0208  0.2643
 2655TIP3    H1 7929   5.782   0.282   2.360 -0.6020  1.7124 -0.4117
 2655TIP3    H2 7930   5.894   0.383   2.346  1.9645 -0.9057  0.3619
 2656TIP3   OH2 7931   7.049   3.370   2.916 -0.0481  0.3441 -0.0092
 2656TIP3    H1 7932   7.075   3.326   2.997 -0.5274 -0.1418 -0.1129
 2656TIP3    H2 7933   7.090   3.319   2.847 -0.5670  0.0781 -0.1283
 2657TIP3   OH2 7934   3.881   1.026   4.585  0.4117  0.4873  0.2176
 2657TIP3    H1 7935   3.976   1.039   4.586  0.4989  0.1569 -1.5275
 2657TIP3    H2 7936   3.860   1.000   4.675  1.5803  3.0952  1.3469
 2658TIP3   OH2 7937   3.281   1.849   3.813  0.0476  0.2496 -0.5753
 2658TIP3    H1 7938   3.310   1.820   3.726  4.7702  0.7102  0.6180
 2658TIP3    H2 7939   3.257   1.941   3.800  0.1275  0.1623 -1.4559
 2659TIP3   OH2 7940   4.567   4.332   2.697  0.1144 -0.2399  0.1722
 2659TIP3    H1 7941   4.532   4.308   2.782  0.5928 -0.8535  0.2053
 2659TIP3    H2 7942   4.655   4.294   2.696  0.1165 -0.2308 -0.5872
 2660TIP3   OH2 7943   1.493   5.743   1.354  0.2342  0.1270  0.1793
 2660TIP3    H1 7944   1.584   5.713   1.348  0.6381  1.4874 -0.7375
 2660TIP3    H2 7945   1.454   5.686   1.421  2.5619  1.4887  2.8906
 2661TIP3   OH2 7946   1.841   0.363   5.138 -0.2751 -0.4563  0.0253
 2661TIP3    H1 7947   1.829   0.456   5.123 -0.7424 -0.5326 -0.1044
 2661TIP3    H2 7948   1.757   0.324   5.112  0.2305 -1.0118 -0.8108
 2662TIP3   OH2 7949   5.041   1.027   4.297 -0.1002 -0.0961  0.0576
 2662TIP3    H1 7950   4.953   1.059   4.280  0.5240  1.0438 -1.2258
 2662TIP3    H2 7951   5.035   0.932   4.286 -0.5363  0.2014 -3.3408
 2663TIP3   OH2 7952   6.818   1.290   4.757  0.0656 -0.1629  0.1611
 2663TIP3    H1 7953   6.881   1.355   4.788  0.1750  0.3155 -1.0036
 2663TIP3    H2 7954   6.872   1.213   4.735  0.5420  0.8241 -2.4623
 2664TIP3   OH2 7955   6.588   5.241   5.726  0.2205 -0.4098  0.4740
 2664TIP3    H1 7956   6.666   5.241   5.670  0.8759 -0.2617  1.3487
 2664TIP3    H2 7957   6.532   5.309   5.689  0.3785 -0.7186 -0.3424
 2665TIP3   OH2 7958   3.829   2.112   3.927 -0.3763  0.4111 -0.5767
 2665TIP3    H1 7959   3.782   2.036   3.962 -1.4333  0.7220 -1.2699
 2665TIP3    H2 7960   3.769   2.186   3.942 -0.2355  0.7736 -1.7238
 2666TIP3   OH2 7961   3.855   3.751   1.310 -0.0879 -0.6080  0.4646
 2666TIP3    H1 7962   3.924   3.790   1.255  0.0406 -2.8183 -1.0658
 2666TIP3    H2 7963   3.779   3.743   1.251 -0.2807 -2.0958  0.8671
 2667TIP3   OH2 7964   2.148   3.713   2.029 -0.3134 -0.0435  0.1858
 2667TIP3    H1 7965   2.155   3.727   1.935 -0.3834  2.0098  0.4367
 2667TIP3    H2 7966   2.158   3.800   2.067  0.0425 -0.8685  2.1058
 2668TIP3   OH2 7967   0.857   4.156   1.772 -0.1532  0.0008  0.2322
 2668TIP3    H1 7968   0.877   4.249   1.761  1.2630 -0.1235  1.3734
 2668TIP3    H2 7969   0.941   4.116   1.795 -0.5225 -1.7495 -1.2009
 2669TIP3   OH2 7970   1.745   6.194   3.737 -0.4585  0.2372 -0.4780
 2669TIP3    H1 7971   1.652   6.211   3.746 -0.3930  1.7321 -2.0174
 2669TIP3    H2 7972   1.785   6.236   3.814 -1.0101 -0.0774 -0.0174
 2670TIP3   OH2 7973   3.500   1.449   2.603  0.4861 -0.2075  0.3447
 2670TIP3    H1 7974   3.529   1.369   2.559 -0.5805 -1.8787  2.5152
 2670TIP3    H2 7975   3.410   1.463   2.573  0.0277 -0.9115  1.3368
 2671TIP3   OH2 7976   1.489   6.522   3.425  0.0383 -0.2752 -0.8502
 2671TIP3    H1 7977   1.463   6.435   3.456 -1.8283  0.2342 -0.8513
 2671TIP3    H2 7978   1.408   6.572   3.424  0.8420  1.0843 -2.1585
 2672TIP3   OH2 7979   4.503   1.037   2.225  0.1597 -0.2366 -0.0691
 2672TIP3    H1 7980   4.595   1.059   2.236  1.1718 -4.5763  2.4847
 2672TIP3    H2 7981   4.463   1.053   2.311 -0.8546 -0.7405 -0.4242
 2673TIP3   OH2 7982   0.038   5.764   3.708 -0.2644  0.0388  0.0968
 2673TIP3    H1 7983   0.039   5.779   3.613 -1.0371 -0.7813 -0.0528
 2673TIP3    H2 7984  -0.001   5.843   3.744 -2.9082 -0.8815 -0.5526
 2674TIP3   OH2 7985   6.077   4.225   1.355 -0.1738 -0.2509 -0.0608
 2674TIP3    H1 7986   6.048   4.231   1.446  0.1571 -0.3411  0.0525
 2674TIP3    H2 7987   6.016   4.163   1.314 -1.0271  0.6620 -0.1933
 2675TIP3   OH2 7988   0.061   4.037   2.810  0.1980  0.4063 -0.1213
 2675TIP3    H1 7989   0.095   3.986   2.883  1.0364 -0.7958 -1.3005
 2675TIP3    H2 7990   0.048   3.973   2.740 -3.3848  0.9989 -0.1589
 2676TIP3   OH2 7991   3.428   6.133   4.344  0.0484 -0.0777  0.0320
 2676TIP3    H1 7992   3.333   6.138   4.356  0.3073  1.9824  1.9086
 2676TIP3    H2 7993   3.446   6.191   4.271 -0.1088 -0.3387 -0.2170
 2677TIP3   OH2 7994   3.210   2.569   5.208  0.1600 -0.8154  0.0841
 2677TIP3    H1 7995   3.116   2.556   5.198 -0.3598  1.7851  0.8419
 2677TIP3    H2 7996   3.242   2.589   5.120 -0.7084  1.9127  0.3237
 2678TIP3   OH2 7997   5.265   1.859   5.709 -0.2274  0.3520  0.0433
 2678TIP3    H1 7998   5.226   1.850   5.796  0.5552 -1.0872  0.2793
 2678TIP3    H2 7999   5.226   1.939   5.673 -2.5174 -0.3835  0.7069
 2679TIP3   OH2 8000   1.717   2.204   4.499  0.0348 -0.2329 -0.0196
 2679TIP3    H1 8001   1.753   2.210   4.588 -0.0515  0.0111  0.0012
 2679TIP3    H2 8002   1.791   2.225   4.442  0.7584 -2.8043 -0.1407
 2680TIP3   OH2 8003   4.730   3.320   2.728 -0.7684 -0.1639  0.0969
 2680TIP3    H1 8004   4.750   3.397   2.781 -0.1799 -0.1260 -0.1815
 2680TIP3    H2 8005   4.715   3.354   2.640 -0.5640 -0.3594 -0.0152
 2681TIP3   OH2 8006   4.907   4.621   5.210 -0.3381  0.0815 -0.4803
 2681TIP3    H1 8007   4.888   4.710   5.240  2.0978  0.8623 -1.0193
 2681TIP3    H2 8008   4.940   4.632   5.121  0.7457 -1.2719 -0.2779
 2682TIP3   OH2 8009   5.912   0.371   0.081 -0.4430 -0.0984 -0.0839
 2682TIP3    H1 8010   5.823   0.378   0.047 -0.7783 -1.0671  0.5293
 2682TIP3    H2 8011   5.965   0.348   0.004 -0.7651  0.1906 -0.3981
 2683TIP3   OH2 8012   0.413   3.483   4.966  0.0214  0.9151  0.4106
 2683TIP3    H1 8013   0.360   3.430   5.026  0.3688  0.0217 -0.0546
 2683TIP3    H2 8014   0.502   3.450   4.978  0.3140  1.6876  0.4156
 2684TIP3   OH2 8015   0.951   5.525   3.285 -0.5479 -0.0477  0.2976
 2684TIP3    H1 8016   1.021   5.488   3.338  0.0569  1.4485  0.5970
 2684TIP3    H2 8017   0.873   5.521   3.342 -0.3856 -0.4112  0.4950
 2685TIP3   OH2 8018   2.396   6.415   5.232 -0.3218  0.1633 -0.6414
 2685TIP3    H1 8019   2.391   6.374   5.146  0.7285  0.8290 -1.0345
 2685TIP3    H2 8020   2.482   6.390   5.265 -1.1753 -1.1108  0.7605
 2686TIP3   OH2 8021   3.618   6.454   3.753 -0.4263 -0.3063  0.8255
 2686TIP3    H1 8022   3.593   6.543   3.778 -0.0530  0.0374 -0.0074
 2686TIP3    H2 8023   3.611   6.452   3.658 -0.0921 -1.0656  0.8062
 2687TIP3   OH2 8024   6.495   3.440   2.140  0.6110  0.2942  0.2296
 2687TIP3    H1 8025   6.453   3.390   2.210  1.1419  0.1582  0.4523
 2687TIP3    H2 8026   6.428   3.502   2.112  0.3744  0.3111  0.8149
 2688TIP3   OH2 8027   3.691   6.002   2.120 -0.4862  0.6509 -0.5367
 2688TIP3    H1 8028   3.741   5.922   2.137 -0.7185  0.1590 -2.0095
 2688TIP3    H2 8029   3.620   5.974   2.062 -1.8756  1.5341  0.6724
 2689TIP3   OH2 8030   0.822   1.863   1.643 -0.0283  0.8369 -0.3639
 2689TIP3    H1 8031   0.916   1.847   1.632  0.1085  1.1360  0.3453
 2689TIP3    H2 8032   0.781   1.778   1.627  0.4043  0.5876 -0.1579
 2690TIP3   OH2 8033   5.624   5.010   4.790 -0.0117 -0.6992  0.1015
 2690TIP3    H1 8034   5.711   5.018   4.829  0.2160  0.8033 -0.6778
 2690TIP3    H2 8035   5.640   5.009   4.696 -0.6786 -2.8365 -0.0316
 2691TIP3   OH2 8036   3.785   2.226   1.191 -0.3758  0.5241  0.2631
 2691TIP3    H1 8037   3.777   2.131   1.187  1.5485  0.1581  2.5761
 2691TIP3    H2 8038   3.854   2.247   1.128  0.0207  0.2248  0.5907
 2692TIP3   OH2 8039   0.917   2.522   0.679 -0.2814 -0.2061  0.1404
 2692TIP3    H1 8040   0.855   2.574   0.730 -0.0879 -0.3661  0.5417
 2692TIP3    H2 8041   0.937   2.447   0.735  1.2325  0.4774  0.5421
 2693TIP3   OH2 8042   0.189   1.019   1.873 -0.4565 -0.0267 -0.2682
 2693TIP3    H1 8043   0.199   1.110   1.844 -2.6111  0.9057  1.5982
 2693TIP3    H2 8044   0.120   0.984   1.816  0.1326 -0.3992 -0.7595
 2694TIP3   OH2 8045   4.494   2.625   2.481 -0.0833  0.6125 -0.0115
 2694TIP3    H1 8046   4.464   2.549   2.431  0.4542 -0.6971  1.5795
 2694TIP3    H2 8047   4.512   2.591   2.568 -0.7417  2.7626  1.0445
 2695TIP3   OH2 8048   0.761   0.382   0.068 -0.0276 -0.1294  0.1402
 2695TIP3    H1 8049   0.679   0.421   0.038 -0.0264  0.1260  0.4513
 2695TIP3    H2 8050   0.825   0.454   0.063 -0.1623  0.1036  1.3173
 2696TIP3   OH2 8051   4.332   5.770   3.269  0.2836 -0.2669  0.4358
 2696TIP3    H1 8052   4.296   5.785   3.356  0.2171 -0.1947  0.3964
 2696TIP3    H2 8053   4.323   5.676   3.254  3.0339 -0.8483  1.7408
 2697TIP3   OH2 8054   1.377   1.300   5.420 -0.1175 -0.0730 -0.0953
 2697TIP3    H1 8055   1.303   1.249   5.386  0.3269  0.0763 -1.3268
 2697TIP3    H2 8056   1.339   1.385   5.443 -0.2808  0.1088 -1.0129
 2698TIP3   OH2 8057   3.916   2.389   2.579  0.2683  0.0465 -0.3886
 2698TIP3    H1 8058   3.946   2.479   2.592 -0.8065  0.6366 -1.7442
 2698TIP3    H2 8059   3.835   2.384   2.628  1.2566 -0.7951  1.2360
 2699TIP3   OH2 8060   6.996   3.317   3.772 -0.2152  0.0315  0.2599
 2699TIP3    H1 8061   7.063   3.340   3.707 -0.3785  1.5284  0.6051
 2699TIP3    H2 8062   6.923   3.284   3.721  0.1180  0.0373 -0.2269
 2700TIP3   OH2 8063   1.145   1.691   0.974  0.1490  0.6121  0.1420
 2700TIP3    H1 8064   1.106   1.740   0.901 -4.1619 -1.5478  0.6659
 2700TIP3    H2 8065   1.176   1.610   0.934  0.5790  0.7072  0.2845
 2701TIP3   OH2 8066   1.552   4.823   4.807 -0.3889  0.5418  0.1095
 2701TIP3    H1 8067   1.576   4.741   4.851  1.0643  0.4460 -0.7901
 2701TIP3    H2 8068   1.610   4.889   4.846  0.4107  0.5894 -1.1060
 2702TIP3   OH2 8069   5.146   1.521   0.057 -0.7173 -0.0166  0.3711
 2702TIP3    H1 8070   5.085   1.592   0.077 -0.6440  0.5705 -1.2971
 2702TIP3    H2 8071   5.173   1.538  -0.033 -1.5374 -2.8031 -0.4853
 2703TIP3   OH2 8072   2.762   3.721   4.012  0.5229 -0.3649  0.2425
 2703TIP3    H1 8073   2.799   3.806   3.989 -0.1841 -0.8689 -3.4725
 2703TIP3    H2 8074   2.688   3.741   4.070  0.5565  1.5293 -0.3281
 2704TIP3   OH2 8075   6.223   0.157   5.452 -0.5700 -0.8217 -0.0892
 2704TIP3    H1 8076   6.223   0.073   5.498 -0.6714 -0.0804  1.3527
 2704TIP3    H2 8077   6.286   0.147   5.382  0.5071 -1.6388  0.9575
 2705TIP3   OH2 8078   5.424   3.272   2.434  0.2907  1.0266 -0.3192
 2705TIP3    H1 8079   5.444   3.364   2.417 -0.3238  1.2505  0.1132
 2705TIP3    H2 8080   5.346   3.274   2.490 -0.0416  0.2364 -0.7220
 2706TIP3   OH2 8081   0.200   3.951   3.292 -0.1926  0.1250  0.5859
 2706TIP3    H1 8082   0.227   4.033   3.250 -3.0494  0.9678  0.2061
 2706TIP3    H2 8083   0.225   3.884   3.228  1.3935  0.7299  0.5094
 2707TIP3   OH2 8084   2.644   4.546   2.507 -0.1507 -0.1131 -0.5547
 2707TIP3    H1 8085   2.710   4.572   2.442 -0.0881  1.2199  0.0052
 2707TIP3    H2 8086   2.639   4.621   2.566 -1.3272 -0.6872  0.0924
 2708TIP3   OH2 8087   0.895   2.007   0.794 -0.1522 -0.0702 -0.3312
 2708TIP3    H1 8088   0.813   2.001   0.744 -0.7965  2.6471  0.2040
 2708TIP3    H2 8089   0.869   1.990   0.884 -0.0646  0.3947 -0.2163
 2709TIP3   OH2 8090   0.715   0.054   2.810  0.1310  0.2546 -0.2200
 2709TIP3    H1 8091   0.657   0.059   2.734  0.0926  1.0357 -0.1507
 2709TIP3    H2 8092   0.716   0.143   2.845  1.2436  0.2276 -0.1243
 2710TIP3   OH2 8093   3.439   1.363   2.862 -0.0387 -0.1727  0.2159
 2710TIP3    H1 8094   3.441   1.373   2.767 -1.1598 -0.1958  0.1832
 2710TIP3    H2 8095   3.488   1.282   2.878 -0.9322 -0.8613 -0.4525
 2711TIP3   OH2 8096   2.655   4.634   5.243  0.2474  0.2151  0.2935
 2711TIP3    H1 8097   2.660   4.661   5.335  1.6559  1.1833 -0.0415
 2711TIP3    H2 8098   2.609   4.705   5.199  1.1332  0.5837 -0.0480
 2712TIP3   OH2 8099   4.881   4.995   4.841 -0.3879  0.2170 -0.2242
 2712TIP3    H1 8100   4.880   5.086   4.814  0.7822 -0.0645 -1.3208
 2712TIP3    H2 8101   4.791   4.976   4.867 -0.5671  1.7579  0.3360
 2713TIP3   OH2 8102   5.067   2.211   1.167  0.3310 -0.5712  0.3364
 2713TIP3    H1 8103   5.059   2.186   1.074  1.8152 -0.6823  0.2017
 2713TIP3    H2 8104   5.030   2.137   1.214  0.6768 -1.0836 -0.1664
 2714TIP3   OH2 8105   3.319   1.591   2.255 -0.1100  0.1561  0.3541
 2714TIP3    H1 8106   3.303   1.593   2.161  0.3356  1.4728  0.2901
 2714TIP3    H2 8107   3.411   1.612   2.265 -0.0496 -0.3860  1.0768
 2715TIP3   OH2 8108   5.560   5.282   4.923  0.0778 -0.0466  0.1313
 2715TIP3    H1 8109   5.478   5.248   4.957 -1.6837  1.7536 -1.9805
 2715TIP3    H2 8110   5.624   5.214   4.942 -1.7869 -1.3809  2.1476
 2716TIP3   OH2 8111   6.866   2.216   0.240  0.5415  0.2870  0.4140
 2716TIP3    H1 8112   6.787   2.246   0.285 -0.1428 -0.8150 -0.0128
 2716TIP3    H2 8113   6.846   2.226   0.147  0.4407 -1.0581  0.2707
 2717TIP3   OH2 8114   5.997   0.244   5.905 -0.1359  0.3966  0.3277
 2717TIP3    H1 8115   6.031   0.319   5.856 -1.8959  2.4470  2.0417
 2717TIP3    H2 8116   5.908   0.234   5.873 -0.2549 -0.2981  0.8785
 2718TIP3   OH2 8117   1.458   4.580   2.110  0.2316  0.0514 -0.5305
 2718TIP3    H1 8118   1.411   4.607   2.030 -0.5687 -0.5090 -0.2574
 2718TIP3    H2 8119   1.496   4.495   2.087 -0.3107 -0.2813 -0.1914
 2719TIP3   OH2 8120   3.424   2.094   2.497 -0.0163  0.2171 -0.4034
 2719TIP3    H1 8121   3.346   2.149   2.499  0.1927  0.5203  1.1851
 2719TIP3    H2 8122   3.392   2.008   2.526  0.0694  0.0908 -0.6824
 2720TIP3   OH2 8123   6.556   1.491   2.405  0.3434 -0.6335 -0.3556
 2720TIP3    H1 8124   6.526   1.401   2.417 -2.4420  0.1675 -0.4361
 2720TIP3    H2 8125   6.639   1.484   2.359  1.3863 -3.2042  1.6930
 2721TIP3   OH2 8126   4.270   6.435   1.814 -0.5760  0.1856  0.2903
 2721TIP3    H1 8127   4.291   6.348   1.849 -1.4163  0.5267  1.6982
 2721TIP3    H2 8128   4.175   6.442   1.823 -0.7422  0.5889 -1.4361
 2722TIP3   OH2 8129   3.084   4.550   2.767 -0.0692  0.0986 -0.1269
 2722TIP3    H1 8130   3.040   4.465   2.759  1.1772 -0.5802  0.0341
 2722TIP3    H2 8131   3.124   4.564   2.682 -0.0194  0.3859 -0.0557
 2723TIP3   OH2 8132   6.889   2.897   2.014  0.4466  0.2575  0.3307
 2723TIP3    H1 8133   6.809   2.896   1.962 -0.4719 -3.1411  1.5759
 2723TIP3    H2 8134   6.952   2.845   1.964  1.2572  1.2095  0.3168
 2724TIP3   OH2 8135   6.870   5.240   2.895 -0.2286 -0.6920  0.4522
 2724TIP3    H1 8136   6.779   5.259   2.874 -0.1247  1.0926  1.4229
 2724TIP3    H2 8137   6.866   5.184   2.973 -0.4916 -0.3691  0.6706
 2725TIP3   OH2 8138   2.305   5.511   3.501  0.1257 -0.7176  0.1819
 2725TIP3    H1 8139   2.389   5.494   3.542  0.5905  0.2538 -0.3373
 2725TIP3    H2 8140   2.245   5.449   3.543  0.6036  0.1141  2.2128
 2726TIP3   OH2 8141   1.051   3.517   2.668 -0.3235  0.0402  0.2670
 2726TIP3    H1 8142   1.057   3.491   2.760  1.1283 -1.8373 -0.3049
 2726TIP3    H2 8143   1.092   3.446   2.620  0.0395  1.5372 -1.7644
 2727TIP3   OH2 8144   0.231   5.734   2.957 -0.0979  0.3424  0.4173
 2727TIP3    H1 8145   0.296   5.803   2.972  0.1271  0.1340  0.4059
 2727TIP3    H2 8146   0.161   5.753   3.020  0.6194 -0.2473  1.4233
 2728TIP3   OH2 8147   6.484   1.278   0.818  0.0666  0.2591  0.2162
 2728TIP3    H1 8148   6.439   1.225   0.753  0.2521 -1.5794  1.5127
 2728TIP3    H2 8149   6.417   1.299   0.883  0.3579  0.2518  0.5246
 2729TIP3   OH2 8150   6.939   4.048   1.855 -0.5403 -0.4722 -0.3024
 2729TIP3    H1 8151   6.934   4.022   1.947  0.0863  0.2384 -0.0580
 2729TIP3    H2 8152   6.859   4.013   1.816 -1.4675  0.3437  0.8015
 2730TIP3   OH2 8153   4.074   4.851   1.579  0.2304  0.3005 -0.6740
 2730TIP3    H1 8154   4.163   4.816   1.575 -0.3234 -1.3863  0.5942
 2730TIP3    H2 8155   4.061   4.894   1.494  1.3950 -1.5724 -1.8790
 2731TIP3   OH2 8156   0.436   2.765   2.023 -0.2706 -0.1820  0.2163
 2731TIP3    H1 8157   0.460   2.774   1.931  0.0530 -0.1412  0.3012
 2731TIP3    H2 8158   0.409   2.853   2.049  3.5872  0.8809  1.2365
 2732TIP3   OH2 8159   2.950   3.261   0.748  1.0488 -0.0382  0.2199
 2732TIP3    H1 8160   2.903   3.215   0.817 -0.3358  0.2654 -0.4855
 2732TIP3    H2 8161   3.011   3.319   0.794  1.0133 -0.7220  1.1462
 2733TIP3   OH2 8162   0.162   3.351   0.964  0.5002  0.4221  0.2696
 2733TIP3    H1 8163   0.218   3.399   0.903 -1.8426  1.9431 -0.8075
 2733TIP3    H2 8164   0.160   3.405   1.043  2.2414 -0.7554  1.1977
 2734TIP3   OH2 8165   3.719   4.287   4.615  0.2804  0.1574  0.3879
 2734TIP3    H1 8166   3.625   4.302   4.625  0.1536 -0.1807 -0.2529
 2734TIP3    H2 8167   3.741   4.222   4.682  0.0213  0.0757  0.3922
 2735TIP3   OH2 8168   2.838   3.664   5.708  0.2729 -0.2274 -0.0933
 2735TIP3    H1 8169   2.749   3.670   5.744  0.2287 -0.4000 -0.1778
 2735TIP3    H2 8170   2.845   3.575   5.675  0.4126 -0.1539 -0.2601
 2736TIP3   OH2 8171   6.830   1.978   1.309  0.0242  0.2881 -0.0848
 2736TIP3    H1 8172   6.880   2.041   1.361  1.8352 -1.2325  0.0983
 2736TIP3    H2 8173   6.792   1.918   1.373 -1.3409  0.8850 -0.2899
 2737TIP3   OH2 8174   4.456   3.823   1.901 -0.3685  0.1238 -0.7533
 2737TIP3    H1 8175   4.455   3.880   1.978  0.7448 -0.6155 -0.1649
 2737TIP3    H2 8176   4.394   3.864   1.840 -2.2628  0.0228  1.0099
 2738TIP3   OH2 8177   0.086   5.615   3.954  0.2838  0.4147  0.3043
 2738TIP3    H1 8178  -0.002   5.621   3.991 -0.7208 -1.0154 -1.6713
 2738TIP3    H2 8179   0.080   5.659   3.869  1.8351  1.4005  0.6593
 2739TIP3   OH2 8180   6.419   0.897   1.565 -0.0661  0.3299 -0.2620
 2739TIP3    H1 8181   6.454   0.876   1.479 -0.9393 -0.6492 -0.4035
 2739TIP3    H2 8182   6.485   0.954   1.605  0.6108  0.3324 -1.3535
 2740TIP3   OH2 8183   3.134   5.916   2.888  0.1044  0.0477  0.3390
 2740TIP3    H1 8184   3.129   5.941   2.796 -2.2952  0.9491  0.6377
 2740TIP3    H2 8185   3.083   5.835   2.893 -0.4957  0.4601  0.9956
 2741TIP3   OH2 8186   5.352   6.027   4.587 -0.3097  0.3919  0.0618
 2741TIP3    H1 8187   5.387   5.938   4.589  0.6726  0.7821  0.8459
 2741TIP3    H2 8188   5.297   6.033   4.665 -0.3686  0.4865  0.0134
 2742TIP3   OH2 8189   4.876   0.898   4.722 -0.2197  0.7120 -0.1982
 2742TIP3    H1 8190   4.937   0.972   4.723 -0.5349  0.9700  0.5820
 2742TIP3    H2 8191   4.848   0.892   4.631  2.4461 -0.6455 -1.0268
 2743TIP3   OH2 8192   6.716   4.642   4.715  0.0622  0.4234  0.1177
 2743TIP3    H1 8193   6.733   4.552   4.743 -2.8266  0.1672  1.3149
 2743TIP3    H2 8194   6.802   4.685   4.722  1.1632 -1.7733  1.1907
 2744TIP3   OH2 8195   4.948   3.199   5.541 -0.0115  0.1660  0.5692
 2744TIP3    H1 8196   4.858   3.224   5.563  0.2821  0.5732  1.3255
 2744TIP3    H2 8197   4.996   3.205   5.623  0.4409 -1.3318  0.4537
 2745TIP3   OH2 8198   4.114   2.218   1.924  0.6267 -0.0532  0.2463
 2745TIP3    H1 8199   4.110   2.197   2.017  2.3681 -1.1112  0.1227
 2745TIP3    H2 8200   4.206   2.238   1.907  0.2116  0.8899 -1.1040
 2746TIP3   OH2 8201   3.374   2.490   1.005  0.3003 -0.4734  0.2081
 2746TIP3    H1 8202   3.439   2.420   1.007  2.2702  1.2358 -0.0510
 2746TIP3    H2 8203   3.366   2.517   1.096 -0.3412 -0.9210  0.2876
 2747TIP3   OH2 8204   4.291   4.334   5.125  0.2756 -0.0687  0.2117
 2747TIP3    H1 8205   4.374   4.328   5.173  0.6812  0.7173 -0.3679
 2747TIP3    H2 8206   4.227   4.356   5.192  0.7754  0.6695  0.4679
 2748TIP3   OH2 8207   5.121   4.805   5.722  0.5810  0.4640  0.1300
 2748TIP3    H1 8208   5.168   4.819   5.640  2.1057  0.0830  0.8890
 2748TIP3    H2 8209   5.036   4.847   5.709 -1.0864 -3.2521 -3.2500
 2749TIP3   OH2 8210   2.061  -0.020   0.539 -0.1916 -0.2149  0.2590
 2749TIP3    H1 8211   2.100   0.019   0.461 -1.4026 -0.3867 -0.4606
 2749TIP3    H2 8212   2.050   0.053   0.600 -1.2444  0.3445 -0.5771
 2750TIP3   OH2 8213   6.515   5.285   4.918 -0.4413  0.1822 -0.4174
 2750TIP3    H1 8214   6.601   5.264   4.882 -0.0701  0.3475  0.3521
 2750TIP3    H2 8215   6.457   5.219   4.881  0.3628 -1.0776  0.4964
 2751TIP3   OH2 8216   4.566   3.397   4.571 -0.1850  0.0569 -0.2532
 2751TIP3    H1 8217   4.502   3.441   4.515 -0.0836  1.1659  0.4569
 2751TIP3    H2 8218   4.651   3.428   4.540 -0.0320 -0.6681 -0.5809
 2752TIP3   OH2 8219   3.679   1.479   2.163  0.1890 -0.3480 -0.1468
 2752TIP3    H1 8220   3.603   1.511   2.113 -0.7526  0.7165  1.8194
 2752TIP3    H2 8221   3.676   1.529   2.245  3.0304 -0.3020  0.0272
 2753TIP3   OH2 8222   6.730   1.262   2.383  0.0706  0.2632  0.1794
 2753TIP3    H1 8223   6.744   1.245   2.477  1.1208  1.0001  0.1862
 2753TIP3    H2 8224   6.803   1.320   2.359  0.0557 -0.2590 -1.1982
 2754TIP3   OH2 8225   6.610   5.291   2.132  0.2089 -0.3625 -0.3111
 2754TIP3    H1 8226   6.585   5.199   2.126  0.3492 -0.3684 -0.8740
 2754TIP3    H2 8227   6.584   5.329   2.048  0.9079 -0.0769 -0.4031
 2755TIP3   OH2 8228  -0.001   4.142   5.626  0.3664  0.6236  0.6067
 2755TIP3    H1 8229   0.071   4.160   5.566  0.7804  2.3456  1.5696
 2755TIP3    H2 8230   0.031   4.071   5.681  0.6478  0.2223 -0.0619
 2756TIP3   OH2 8231   5.457   1.801   3.699  0.6677  0.3560  0.3079
 2756TIP3    H1 8232   5.459   1.896   3.711  1.7054  0.1910  1.7649
 2756TIP3    H2 8233   5.371   1.774   3.731  0.7555  0.7010  0.8473
 2757TIP3   OH2 8234   2.160   0.516   2.003 -0.2432 -0.5347  0.1056
 2757TIP3    H1 8235   2.159   0.552   2.092  1.2017  0.6272 -0.3047
 2757TIP3    H2 8236   2.133   0.588   1.947  1.8705 -0.2651 -0.6514
 2758TIP3   OH2 8237   3.342   4.291   5.236  0.1533  0.3741 -0.1962
 2758TIP3    H1 8238   3.356   4.233   5.311 -0.7189 -2.1565 -1.8366
 2758TIP3    H2 8239   3.419   4.347   5.234 -0.3222  1.4082  3.2184
 2759TIP3   OH2 8240   2.687   0.707   0.439 -0.7025  0.2928 -0.7024
 2759TIP3    H1 8241   2.645   0.635   0.392 -1.2773 -0.8560  1.4646
 2759TIP3    H2 8242   2.656   0.786   0.393 -2.7843 -0.6749 -1.0766
 2760TIP3   OH2 8243   2.832   4.302   3.706  0.5100 -0.1151 -0.0620
 2760TIP3    H1 8244   2.769   4.358   3.660  1.9378  0.0125 -1.9556
 2760TIP3    H2 8245   2.780   4.226   3.734 -0.5941  0.1957 -1.1639
 2761TIP3   OH2 8246   6.881   3.745   4.983 -0.2137  0.1855  0.3373
 2761TIP3    H1 8247   6.974   3.753   4.965 -0.2067  0.8294  0.6273
 2761TIP3    H2 8248   6.843   3.712   4.901  0.2397  0.0990  0.1626
 2762TIP3   OH2 8249   0.611   4.401   3.466  0.1361 -0.5464  0.0898
 2762TIP3    H1 8250   0.569   4.323   3.502  0.8855 -0.4905  1.1533
 2762TIP3    H2 8251   0.658   4.439   3.541  0.7756  0.2532 -0.6948
 2763TIP3   OH2 8252   5.435   3.595   0.311 -0.6496 -0.3094 -0.3794
 2763TIP3    H1 8253   5.371   3.629   0.248  0.3675  1.2048 -0.6726
 2763TIP3    H2 8254   5.479   3.524   0.264 -1.6970 -0.9535 -0.3946
 2764TIP3   OH2 8255   3.456   5.836   2.308  0.1835 -0.3923  0.9535
 2764TIP3    H1 8256   3.366   5.860   2.330  0.0960 -0.8034  1.0515
 2764TIP3    H2 8257   3.478   5.892   2.233  0.3278  0.6995  1.7790
 2765TIP3   OH2 8258   6.628   4.290   0.970  0.1060 -0.5283  0.0321
 2765TIP3    H1 8259   6.632   4.361   0.906 -0.5173 -0.1334  0.4179
 2765TIP3    H2 8260   6.583   4.218   0.924 -0.3967 -0.2241  0.0366
 2766TIP3   OH2 8261   0.626   3.467   4.676  0.0097  0.7087 -0.0826
 2766TIP3    H1 8262   0.708   3.420   4.686 -2.6165 -4.1408  1.9051
 2766TIP3    H2 8263   0.607   3.501   4.764 -0.1009  2.0377 -0.5878
 2767TIP3   OH2 8264   5.534   4.161   5.710  0.2425  0.1723  0.1347
 2767TIP3    H1 8265   5.520   4.251   5.680 -0.9293 -0.0795 -0.1259
 2767TIP3    H2 8266   5.628   4.155   5.726  0.2358  1.6427  0.8028
 2768TIP3   OH2 8267   0.587   2.000   1.753  0.1405  0.4050 -0.3321
 2768TIP3    H1 8268   0.627   2.075   1.796  0.4755  0.0102  0.0645
 2768TIP3    H2 8269   0.660   1.957   1.708  0.9936 -2.2749  3.1749
 2769TIP3   OH2 8270   1.819   2.259   5.842 -0.1785  0.2463 -0.8820
 2769TIP3    H1 8271   1.743   2.275   5.898  0.5807  0.9441 -0.0188
 2769TIP3    H2 8272   1.852   2.173   5.868  0.5747  0.8579  0.2497
 2770TIP3   OH2 8273   0.474   5.070   4.651  0.0662  0.3902  0.2620
 2770TIP3    H1 8274   0.407   5.137   4.636 -0.9899 -0.5935  0.4465
 2770TIP3    H2 8275   0.557   5.114   4.631 -0.3166  2.5379  2.7649
 2771TIP3   OH2 8276   4.406   1.450   0.875 -0.6359  0.0054 -0.3786
 2771TIP3    H1 8277   4.405   1.471   0.781 -0.6393  0.3099 -0.3122
 2771TIP3    H2 8278   4.467   1.514   0.912 -1.2929  0.4452 -0.0439
 2772TIP3   OH2 8279   3.089   4.469   0.829 -0.4361  0.2927 -0.3248
 2772TIP3    H1 8280   3.171   4.513   0.806 -0.2778  0.3238  0.2853
 2772TIP3    H2 8281   3.046   4.528   0.891 -0.8333  0.1917 -0.5028
 2773TIP3   OH2 8282   0.116   5.171   5.460  0.5246  0.0824 -0.0311
 2773TIP3    H1 8283   0.078   5.134   5.380 -0.1934 -0.0666  0.3700
 2773TIP3    H2 8284   0.043   5.218   5.501  0.0675 -2.2240  1.9956
 2774TIP3   OH2 8285   1.398   3.791   3.259  0.0901 -0.0839 -0.7921
 2774TIP3    H1 8286   1.395   3.777   3.164  0.9940 -1.9286 -0.6043
 2774TIP3    H2 8287   1.483   3.832   3.274  0.2788 -0.5004 -0.7137
 2775TIP3   OH2 8288   7.010   1.241   2.733  0.4763  0.0188  0.2955
 2775TIP3    H1 8289   6.925   1.265   2.695  0.2752 -1.0006  0.0857
 2775TIP3    H2 8290   6.988   1.183   2.806  0.9003  1.3080  1.4878
 2776TIP3   OH2 8291   6.772   4.659   2.057  0.3787  0.0342  0.3031
 2776TIP3    H1 8292   6.784   4.665   2.152  1.8377  0.7465  0.0902
 2776TIP3    H2 8293   6.844   4.709   2.020  0.4874 -1.1794 -1.2168
 2777TIP3   OH2 8294   0.623   0.087   2.526 -0.2359 -0.2887  0.3770
 2777TIP3    H1 8295   0.710   0.051   2.509 -0.8075 -1.3236 -0.4998
 2777TIP3    H2 8296   0.621   0.170   2.478  0.5268  0.1292  1.0514
 2778TIP3   OH2 8297   1.530   2.390   3.170  0.1144 -0.0006  0.2221
 2778TIP3    H1 8298   1.575   2.472   3.190  2.0116 -0.6214 -1.1578
 2778TIP3    H2 8299   1.596   2.323   3.181  0.1174 -0.8215 -3.3710
 2779TIP3   OH2 8300   7.150   2.880   4.444 -0.3232 -0.2451 -0.1172
 2779TIP3    H1 8301   7.156   2.965   4.401 -2.8657 -0.6750 -1.5319
 2779TIP3    H2 8302   7.060   2.875   4.476 -0.2569 -2.4054 -0.0888
 2780TIP3   OH2 8303   2.914   2.206   0.545 -0.1365  0.1376  0.6513
 2780TIP3    H1 8304   2.861   2.190   0.623  0.1667  0.4512  0.9269
 2780TIP3    H2 8305   2.924   2.120   0.504  0.3520 -0.1675  1.3865
 2781TIP3   OH2 8306   2.727   2.003   3.007  0.4777  0.5503 -0.2888
 2781TIP3    H1 8307   2.765   2.043   2.929  0.3483  1.4083  0.0846
 2781TIP3    H2 8308   2.802   1.990   3.066  0.3456  1.3649  0.0683
 2782TIP3   OH2 8309   5.573   1.786   0.294 -0.2821 -0.0532 -0.1507
 2782TIP3    H1 8310   5.520   1.825   0.364 -1.5541 -1.0919 -0.4907
 2782TIP3    H2 8311   5.560   1.843   0.218 -2.1244 -1.0592 -0.6449
 2783TIP3   OH2 8312   4.469   5.344   3.087 -0.1502 -0.2524 -0.4729
 2783TIP3    H1 8313   4.452   5.407   3.017 -0.2563  0.4762  0.1883
 2783TIP3    H2 8314   4.480   5.398   3.165  0.4248 -1.0198 -0.0071
 2784TIP3   OH2 8315   5.425   2.893   5.406 -0.8718  0.4618  0.1189
 2784TIP3    H1 8316   5.453   2.961   5.467 -0.1291  1.2187 -1.0212
 2784TIP3    H2 8317   5.390   2.941   5.331  2.2216 -0.2092 -1.9699
 2785TIP3   OH2 8318   2.800   0.259   4.477  0.2957 -0.0892 -0.7665
 2785TIP3    H1 8319   2.844   0.200   4.415 -0.0157  1.1419 -2.2324
 2785TIP3    H2 8320   2.751   0.320   4.421  0.5992  1.5570  0.6772
 2786TIP3   OH2 8321   1.546   4.684   5.390  0.2678  0.7602 -0.5839
 2786TIP3    H1 8322   1.607   4.616   5.416  2.5566  3.1035  0.7048
 2786TIP3    H2 8323   1.528   4.667   5.298 -1.5112 -3.0549  0.2573
 2787TIP3   OH2 8324   6.269   6.011   3.863 -0.3029  0.1212  0.0468
 2787TIP3    H1 8325   6.233   6.055   3.787  0.1379  1.2893  0.4975
 2787TIP3    H2 8326   6.205   6.026   3.933  0.0402  0.4009  0.3053
 2788TIP3   OH2 8327   0.641   3.356   1.883 -0.8273 -0.0884 -0.5410
 2788TIP3    H1 8328   0.708   3.298   1.846 -0.8782  0.3904 -1.4030
 2788TIP3    H2 8329   0.588   3.299   1.938  0.4266 -0.4399  0.3645
 2789TIP3   OH2 8330   5.511   5.226   2.960  0.2216  0.6913  0.0426
 2789TIP3    H1 8331   5.566   5.248   2.885 -2.0840  0.6169 -1.7867
 2789TIP3    H2 8332   5.568   5.238   3.036  2.3221  1.9063 -1.6139
 2790TIP3   OH2 8333   4.021   3.393   2.354  0.2051  0.2441  0.6861
 2790TIP3    H1 8334   4.005   3.478   2.395 -1.4438  0.4684 -0.3344
 2790TIP3    H2 8335   4.081   3.414   2.281 -1.1565  0.7929 -0.3278
 2791TIP3   OH2 8336   5.999   4.207   0.801 -0.0408  0.4623  0.2192
 2791TIP3    H1 8337   6.081   4.161   0.784 -0.8367 -0.9328 -0.1026
 2791TIP3    H2 8338   6.024   4.290   0.840  1.5316  0.2705 -0.3436
 2792TIP3   OH2 8339   4.344   3.970   5.211  0.4513  0.2021  0.4107
 2792TIP3    H1 8340   4.413   3.974   5.277  0.5113  1.3629  0.3029
 2792TIP3    H2 8341   4.384   4.007   5.132  0.3567 -1.0997 -0.2625
 2793TIP3   OH2 8342   2.495   4.354   4.280  0.1294 -0.1340  0.5231
 2793TIP3    H1 8343   2.545   4.307   4.348  1.0503  0.1442  0.0502
 2793TIP3    H2 8344   2.433   4.408   4.329  0.6335 -0.1071  1.1454
 2794TIP3   OH2 8345   0.026   3.701   0.833 -0.0185 -0.0471 -0.0208
 2794TIP3    H1 8346  -0.017   3.628   0.788 -0.3498 -0.0206  0.2524
 2794TIP3    H2 8347  -0.003   3.694   0.923  0.5282 -0.0064  0.1607
 2795TIP3   OH2 8348   4.810   1.167   4.277 -0.0219 -0.1545  0.0622
 2795TIP3    H1 8349   4.765   1.170   4.192 -0.9645  1.5360  0.5647
 2795TIP3    H2 8350   4.745   1.129   4.336  0.3583 -0.6268  0.1728
 2796TIP3   OH2 8351   5.595   5.158   1.440 -0.1397 -0.1579  0.3757
 2796TIP3    H1 8352   5.679   5.203   1.428 -0.5249  0.4533 -0.0470
 2796TIP3    H2 8353   5.547   5.211   1.502 -0.0557 -0.7439  0.9580
 2797TIP3   OH2 8354   4.609   5.862   2.588  0.6319 -0.1196  0.0606
 2797TIP3    H1 8355   4.544   5.930   2.606 -0.1053 -1.0394  1.0036
 2797TIP3    H2 8356   4.610   5.854   2.493  0.8352  1.2880 -0.0787
 2798TIP3   OH2 8357   7.043   3.424   1.652 -0.5878 -0.6399 -0.2473
 2798TIP3    H1 8358   7.026   3.501   1.598  0.4073 -0.2174  0.0169
 2798TIP3    H2 8359   7.042   3.457   1.741  1.5672 -0.5506 -0.2066
 2799TIP3   OH2 8360   0.861   4.028   0.481  0.2345  0.1515  0.4094
 2799TIP3    H1 8361   0.910   4.104   0.513  1.1218 -0.4877  0.6289
 2799TIP3    H2 8362   0.913   3.996   0.407  0.4549 -0.8647  0.9865
 2800TIP3   OH2 8363   3.877   5.674   3.620  0.1961 -0.4905  0.1293
 2800TIP3    H1 8364   3.860   5.760   3.657  3.8878  0.3545  0.1982
 2800TIP3    H2 8365   3.799   5.655   3.567 -1.3260  2.2098  1.2130
 2801TIP3   OH2 8366   1.190   4.877   0.511  0.3773 -0.4166  0.1442
 2801TIP3    H1 8367   1.207   4.788   0.541 -0.0084 -0.6360 -0.2843
 2801TIP3    H2 8368   1.106   4.872   0.466 -0.0297  0.3227  0.7918
 2802TIP3   OH2 8369   1.408   3.924   0.899  0.0283 -0.1529  0.1339
 2802TIP3    H1 8370   1.430   3.831   0.909 -0.0674 -0.2897 -0.8494
 2802TIP3    H2 8371   1.373   3.949   0.984 -1.3284 -1.4107 -0.0227
 2803TIP3   OH2 8372   0.689   0.884   4.254 -0.6530  1.0254 -0.3999
 2803TIP3    H1 8373   0.721   0.799   4.283  0.8746  1.3087 -1.1352
 2803TIP3    H2 8374   0.660   0.928   4.334 -0.9543  0.0366  0.0511
 2804TIP3   OH2 8375   0.605   4.250   4.544 -0.1319 -0.2786 -0.4383
 2804TIP3    H1 8376   0.571   4.190   4.477 -2.2075  0.6490 -0.2774
 2804TIP3    H2 8377   0.533   4.259   4.607  1.0410  0.4739  0.8469
 2805TIP3   OH2 8378   2.390   1.676   5.024  0.1943 -0.1214  0.4200
 2805TIP3    H1 8379   2.453   1.743   4.999  0.6007 -0.9048 -0.7260
 2805TIP3    H2 8380   2.442   1.607   5.065 -0.0169 -0.4041  0.2185
 2806TIP3   OH2 8381   0.351   5.421   1.120  0.3889 -0.1086 -0.0145
 2806TIP3    H1 8382   0.373   5.404   1.212 -0.2926 -0.6710  0.0545
 2806TIP3    H2 8383   0.321   5.511   1.118  1.4173  0.2493  0.1203
 2807TIP3   OH2 8384   1.956   5.689   2.441  0.0436 -0.4788  0.3023
 2807TIP3    H1 8385   1.885   5.752   2.456 -0.0991 -1.1808  3.2625
 2807TIP3    H2 8386   2.033   5.743   2.423 -0.6452  0.4051 -0.0827
 2808TIP3   OH2 8387   3.866   2.592   4.345  0.1672 -0.3314 -0.3489
 2808TIP3    H1 8388   3.782   2.554   4.370 -0.1413  0.0934 -0.7205
 2808TIP3    H2 8389   3.856   2.686   4.360  0.8690 -0.3633  0.4084
 2809TIP3   OH2 8390   2.534   6.376   2.133  0.1655 -0.5144  0.1310
 2809TIP3    H1 8391   2.578   6.353   2.051  0.0296  0.1041 -0.1244
 2809TIP3    H2 8392   2.587   6.448   2.168 -1.4316  1.3185 -0.9451
 2810TIP3   OH2 8393   7.077   0.809   5.693 -0.2603 -0.0081 -0.1515
 2810TIP3    H1 8394   7.007   0.748   5.714 -1.3147  1.6223  1.3671
 2810TIP3    H2 8395   7.040   0.867   5.627 -0.8065  1.5081  1.4028
 2811TIP3   OH2 8396   0.142   2.746   0.662  0.0883 -0.9791 -0.0678
 2811TIP3    H1 8397   0.135   2.811   0.732  1.2921 -1.5226  0.6007
 2811TIP3    H2 8398   0.097   2.669   0.697  0.6637 -1.2405  0.1261
 2812TIP3   OH2 8399   4.201   3.713   3.494 -0.3483 -0.0611 -0.1420
 2812TIP3    H1 8400   4.158   3.792   3.461 -1.8347 -1.0840 -0.7877
 2812TIP3    H2 8401   4.166   3.643   3.439  0.6329 -1.2225  0.6739
 2813TIP3   OH2 8402   0.606   3.493   0.702 -0.0138 -0.0924  0.1965
 2813TIP3    H1 8403   0.647   3.554   0.763  1.0876 -1.0499  0.4404
 2813TIP3    H2 8404   0.645   3.516   0.617 -0.2386  0.0975  0.1440
 2814TIP3   OH2 8405   6.488   0.502   0.867  0.2453  0.2379 -0.3060
 2814TIP3    H1 8406   6.393   0.491   0.871  0.1253  1.4465  1.7426
 2814TIP3    H2 8407   6.523   0.417   0.895 -0.1590 -0.5214 -1.9700
 2815TIP3   OH2 8408   3.528   1.617   0.230  0.0486 -0.4128  0.2434
 2815TIP3    H1 8409   3.471   1.675   0.179  0.2408 -0.4501 -0.0165
 2815TIP3    H2 8410   3.553   1.548   0.168  0.5612 -0.2730  0.2930
 2816TIP3   OH2 8411   5.869   1.343   1.036  0.5084 -0.0814 -0.5424
 2816TIP3    H1 8412   5.819   1.417   1.002  0.1910 -0.7270 -1.5077
 2816TIP3    H2 8413   5.805   1.287   1.079  0.6433 -0.1394 -0.4126
 2817TIP3   OH2 8414   1.027   6.309   3.631  0.2356  0.3472 -0.4079
 2817TIP3    H1 8415   0.987   6.263   3.705  0.1709  1.0550  0.0137
 2817TIP3    H2 8416   1.031   6.400   3.660  1.5259  0.4060 -0.7129
 2818TIP3   OH2 8417   2.755   2.061   4.587 -0.7981 -0.5411 -0.0006
 2818TIP3    H1 8418   2.815   2.134   4.567 -1.1825  0.4017  2.0550
 2818TIP3    H2 8419   2.687   2.067   4.520  0.4909 -0.5967 -1.3720
 2819TIP3   OH2 8420   0.748   4.779   1.855  0.1228  0.1038  0.4570
 2819TIP3    H1 8421   0.685   4.792   1.784  0.1585  2.1204  0.7295
 2819TIP3    H2 8422   0.831   4.808   1.819  0.6250 -1.0822  0.6039
 2820TIP3   OH2 8423   0.564   0.474   3.836 -0.5243  0.7313 -0.4355
 2820TIP3    H1 8424   0.644   0.522   3.813 -0.2030  0.3465 -0.1289
 2820TIP3    H2 8425   0.582   0.384   3.810 -0.4325  0.4287  0.6530
 2821TIP3   OH2 8426   5.324   6.543   0.586 -0.0568 -0.4882 -0.0580
 2821TIP3    H1 8427   5.367   6.552   0.671  0.9090 -2.0269 -0.3397
 2821TIP3    H2 8428   5.237   6.580   0.600  1.3793  3.1065  0.4175
 2822TIP3   OH2 8429   7.034   0.480   5.589 -0.0408 -0.1382 -0.1412
 2822TIP3    H1 8430   6.959   0.491   5.529  1.0782  0.1440 -1.5482
 2822TIP3    H2 8431   7.015   0.398   5.635 -1.6588  0.3960  0.2142
 2823TIP3   OH2 8432   6.665   6.596   1.729 -0.0143 -0.2797  0.7184
 2823TIP3    H1 8433   6.607   6.663   1.765 -0.1706 -0.0506  0.0649
 2823TIP3    H2 8434   6.607   6.527   1.699  0.0391 -0.0752  0.1158
 2824TIP3   OH2 8435   6.709   1.742   5.095  0.0500  0.3823  0.4659
 2824TIP3    H1 8436   6.790   1.701   5.067 -1.1528 -0.5625 -1.9301
 2824TIP3    H2 8437   6.680   1.690   5.170  2.3522  1.7266  2.4584
 2825TIP3   OH2 8438   2.331   5.088   3.200  0.0737 -0.0387  0.3071
 2825TIP3    H1 8439   2.357   5.061   3.289  0.8020  0.0885  0.1423
 2825TIP3    H2 8440   2.414   5.099   3.154 -0.3091 -1.2766 -0.7498
 2826TIP3   OH2 8441   6.978   2.084   0.457  0.2019  0.0124  0.6334
 2826TIP3    H1 8442   7.041   2.154   0.470  0.6048 -0.1375 -0.3800
 2826TIP3    H2 8443   6.933   2.107   0.375  0.5417 -1.0379  0.1186
 2827TIP3   OH2 8444   4.381   2.797   3.277  0.2053 -0.2690  0.3834
 2827TIP3    H1 8445   4.318   2.725   3.276  0.0699 -0.1567 -0.6747
 2827TIP3    H2 8446   4.456   2.764   3.227  0.2780  0.2046  0.1755
 2828TIP3   OH2 8447   5.883   4.815   0.710 -0.5954  0.2130 -0.4367
 2828TIP3    H1 8448   5.805   4.792   0.760 -0.0152 -0.2797  0.2598
 2828TIP3    H2 8449   5.906   4.902   0.742  1.2220 -1.0806  2.0677
 2829TIP3   OH2 8450   6.137   1.044   3.352 -0.0232  0.7187  0.2003
 2829TIP3    H1 8451   6.233   1.034   3.348  0.0346  1.0297  0.7958
 2829TIP3    H2 8452   6.122   1.099   3.428 -0.6979  0.4723  0.2462
 2830TIP3   OH2 8453   6.786   3.613   3.662 -0.2877 -0.0769 -0.3528
 2830TIP3    H1 8454   6.718   3.679   3.653 -0.8643 -0.6433 -0.2152
 2830TIP3    H2 8455   6.866   3.663   3.675 -0.7558  0.5855  0.0433
 2831TIP3   OH2 8456   3.129   5.720   2.363  0.6547 -0.7972  0.2587
 2831TIP3    H1 8457   3.138   5.740   2.270  0.9449  0.5042  0.5435
 2831TIP3    H2 8458   3.059   5.654   2.367 -0.9862  0.7912 -0.7125
 2832TIP3   OH2 8459   5.534   1.837   5.596 -0.0894 -0.5440 -0.3194
 2832TIP3    H1 8460   5.492   1.856   5.513  0.4000 -2.4301 -1.0453
 2832TIP3    H2 8461   5.471   1.866   5.662 -0.3190  1.3246 -1.2991
 2833TIP3   OH2 8462   6.203   3.380   5.034  0.1720 -0.5772  0.2181
 2833TIP3    H1 8463   6.272   3.441   5.060  0.6072 -0.1208 -1.7957
 2833TIP3    H2 8464   6.128   3.435   5.014 -0.7456 -1.0537  2.1198
 2834TIP3   OH2 8465   1.960   1.584   5.585  0.5488  0.5954 -0.4417
 2834TIP3    H1 8466   1.962   1.646   5.512 -2.7081  0.1881 -1.0234
 2834TIP3    H2 8467   1.897   1.622   5.647 -0.0217 -1.1494  0.1142
 2835TIP3   OH2 8468   5.217   3.494   4.519 -0.3199  0.2317  0.2258
 2835TIP3    H1 8469   5.172   3.416   4.485 -2.1992  0.6557  1.6184
 2835TIP3    H2 8470   5.204   3.490   4.614 -1.1949  2.6805  0.2600
 2836TIP3   OH2 8471   0.863   1.265   3.015 -0.2292 -0.0184  0.4216
 2836TIP3    H1 8472   0.832   1.215   2.940 -0.3358 -0.3394  0.6775
 2836TIP3    H2 8473   0.956   1.243   3.022 -0.0938  0.4264  0.0608
 2837TIP3   OH2 8474   2.941   5.984   3.966 -0.2375  0.0169 -0.0824
 2837TIP3    H1 8475   2.979   6.060   4.011 -2.1159  1.7425 -1.2398
 2837TIP3    H2 8476   3.016   5.943   3.923  0.9983  0.5378  1.4332
 2838TIP3   OH2 8477   4.847   2.309   2.757 -0.4460 -0.2509  0.4948
 2838TIP3    H1 8478   4.841   2.338   2.666  0.9113 -2.3602 -0.3354
 2838TIP3    H2 8479   4.785   2.236   2.763 -0.9527  0.2272  1.4599
 2839TIP3   OH2 8480   3.897   4.432   3.718 -0.4497 -0.2248  0.1732
 2839TIP3    H1 8481   3.993   4.434   3.715 -0.4507 -0.2508  0.1261
 2839TIP3    H2 8482   3.875   4.341   3.696 -0.5591  0.1961 -1.6130
 2840TIP3   OH2 8483   0.148   1.771   0.299 -0.6753 -0.2087 -0.6972
 2840TIP3    H1 8484   0.217   1.734   0.354 -0.1697  0.3753 -0.9292
 2840TIP3    H2 8485   0.067   1.754   0.348 -0.3275 -0.5041 -0.2105
 2841TIP3   OH2 8486   6.710   4.619   5.793  0.7170 -0.0257 -0.4136
 2841TIP3    H1 8487   6.659   4.548   5.755 -0.8803  1.8697 -2.0529
 2841TIP3    H2 8488   6.799   4.585   5.799 -0.1017 -2.3470 -0.5153
 2842TIP3   OH2 8489   4.865   5.694   2.902  0.0679  0.3208 -0.2676
 2842TIP3    H1 8490   4.872   5.789   2.890 -0.8310  0.6087  1.2989
 2842TIP3    H2 8491   4.901   5.678   2.989 -0.0569 -0.7448 -0.4034
 2843TIP3   OH2 8492   2.184   3.725   0.124 -0.5792  0.5294  0.3586
 2843TIP3    H1 8493   2.136   3.746   0.043 -0.7559  0.1601  0.3682
 2843TIP3    H2 8494   2.257   3.787   0.124 -1.0817  1.1397  0.3675
 2844TIP3   OH2 8495   5.596   5.334   5.742  0.1133 -0.6944 -0.7450
 2844TIP3    H1 8496   5.664   5.393   5.708  0.4606 -0.6488  0.0145
 2844TIP3    H2 8497   5.590   5.355   5.835 -0.0045 -1.6122 -0.5315
 2845TIP3   OH2 8498   6.218   5.545   4.316  0.3653  0.3300 -0.0281
 2845TIP3    H1 8499   6.214   5.538   4.221 -0.8770 -1.8785  0.1246
 2845TIP3    H2 8500   6.139   5.593   4.341  0.3227  0.2815 -0.0701
 2846TIP3   OH2 8501   2.077   3.985   2.376 -0.1753  0.4113 -0.3528
 2846TIP3    H1 8502   2.156   3.961   2.424  0.0508 -0.5435 -1.1480
 2846TIP3    H2 8503   2.009   3.927   2.411 -0.6713  1.6166  0.7206
 2847TIP3   OH2 8504   0.607   6.161   5.309  0.0006  0.4153 -0.5187
 2847TIP3    H1 8505   0.679   6.224   5.303 -1.4196  2.1002 -0.4073
 2847TIP3    H2 8506   0.532   6.205   5.269 -2.0940  0.4660  3.0393
 2848TIP3   OH2 8507   1.246   6.220   4.315 -0.0121  0.7423  0.1282
 2848TIP3    H1 8508   1.292   6.256   4.239  0.3345  2.4678  1.1110
 2848TIP3    H2 8509   1.266   6.280   4.386 -1.4356 -0.0838  1.2858
 2849TIP3   OH2 8510   1.299   2.995   3.239  0.6357 -0.3719  0.2239
 2849TIP3    H1 8511   1.272   3.085   3.223  1.4815  0.1193  1.5004
 2849TIP3    H2 8512   1.394   2.997   3.241  0.6524 -1.1542  1.0138
 2850TIP3   OH2 8513   3.303   0.993   3.239  0.0900  0.2385  0.3843
 2850TIP3    H1 8514   3.253   1.055   3.186  3.4212  1.0342 -2.1417
 2850TIP3    H2 8515   3.380   1.043   3.268  0.4313 -1.3845  2.5685
 2851TIP3   OH2 8516   4.417   3.973   2.127  0.3069 -0.3729 -0.2385
 2851TIP3    H1 8517   4.329   3.968   2.165  0.5679  0.6409  0.5522
 2851TIP3    H2 8518   4.474   3.934   2.194  0.6576  0.5754  0.0300
 2852TIP3   OH2 8519   6.873   5.020   0.173 -0.6992  0.0552  0.5454
 2852TIP3    H1 8520   6.902   5.052   0.258 -0.5129 -0.6468  0.7553
 2852TIP3    H2 8521   6.948   4.971   0.139 -0.5201  0.9298 -0.3480
 2853TIP3   OH2 8522   1.709   2.080   5.139 -0.0718  0.3353  0.5159
 2853TIP3    H1 8523   1.649   2.111   5.071 -0.7597 -0.4633  0.7434
 2853TIP3    H2 8524   1.750   2.159   5.173  1.7372  0.6842 -2.1084
 2854TIP3   OH2 8525   0.811   1.087   0.611 -0.4867  0.0729 -0.5617
 2854TIP3    H1 8526   0.776   1.020   0.552  1.4068  0.8227 -2.6740
 2854TIP3    H2 8527   0.747   1.092   0.682 -2.5354 -1.4079 -2.1710
 2855TIP3   OH2 8528   4.723   0.812   0.052 -0.0037  0.0391  0.6192
 2855TIP3    H1 8529   4.814   0.784   0.043 -0.8015 -2.0560 -2.3215
 2855TIP3    H2 8530   4.675   0.732   0.075 -1.3453  0.6202 -0.0041
 2856TIP3   OH2 8531   5.631   1.304   0.297  0.2207  0.2751 -0.1152
 2856TIP3    H1 8532   5.663   1.388   0.332 -1.8564  0.9342  0.3379
 2856TIP3    H2 8533   5.574   1.329   0.224  0.1209 -0.7986 -0.4106
 2857TIP3   OH2 8534   5.048   2.631   5.092 -0.1368 -0.6207  0.2053
 2857TIP3    H1 8535   5.049   2.536   5.087  0.8397 -0.6702  1.1472
 2857TIP3    H2 8536   4.983   2.650   5.160 -0.6782 -0.5866 -0.3135
 2858TIP3   OH2 8537   4.980   2.342   2.177 -0.2967  0.0613 -0.2742
 2858TIP3    H1 8538   4.886   2.328   2.190 -0.3315  0.0942 -0.4877
 2858TIP3    H2 8539   4.989   2.356   2.083 -0.2397  1.2447 -0.1064
 2859TIP3   OH2 8540   2.284   5.998   3.469  0.2772 -0.0515  0.5768
 2859TIP3    H1 8541   2.272   5.916   3.421  0.6060  0.2879 -0.0973
 2859TIP3    H2 8542   2.313   6.061   3.403  2.6035 -0.0313  1.5357
 2860TIP3   OH2 8543   4.690   6.261   0.594  0.0186 -0.7585  0.1964
 2860TIP3    H1 8544   4.722   6.230   0.678 -1.0302  0.7904  1.2043
 2860TIP3    H2 8545   4.613   6.207   0.576  0.8039 -1.7437 -0.2588
 2861TIP3   OH2 8546   0.969   5.425   5.526 -0.4657  0.4216 -0.1508
 2861TIP3    H1 8547   0.881   5.441   5.492 -0.2735  1.7795 -0.0752
 2861TIP3    H2 8548   0.983   5.331   5.515 -1.5645  0.3451 -1.0392
 2862TIP3   OH2 8549   3.182   1.680   2.689  0.5002 -0.2395 -0.4913
 2862TIP3    H1 8550   3.087   1.684   2.678  0.4969  0.7036 -0.1895
 2862TIP3    H2 8551   3.211   1.616   2.624 -0.6381 -2.9747  1.4930
 2863TIP3   OH2 8552   4.947   4.952   1.559 -0.2483  0.3986  0.3788
 2863TIP3    H1 8553   4.899   4.919   1.635  0.8480  0.0826  0.9562
 2863TIP3    H2 8554   4.918   4.897   1.487 -0.8217  0.2729  0.6972
 2864TIP3   OH2 8555   5.807   4.219   1.286 -0.0690 -0.3782  0.2081
 2864TIP3    H1 8556   5.862   4.251   1.357  0.3022 -1.1522  0.2824
 2864TIP3    H2 8557   5.799   4.125   1.302 -1.8978 -0.2061  0.5284
 2865TIP3   OH2 8558   3.447   0.521   5.052 -0.4112 -0.0053 -0.0955
 2865TIP3    H1 8559   3.367   0.564   5.021 -0.2539  0.0593 -0.4152
 2865TIP3    H2 8560   3.517   0.582   5.029 -0.4480  0.9043  2.0021
 2866TIP3   OH2 8561   5.901   2.148   4.449  0.3424 -0.4156 -0.4330
 2866TIP3    H1 8562   5.992   2.153   4.480  0.1273 -0.2509  0.1807
 2866TIP3    H2 8563   5.907   2.172   4.357  0.9736 -0.7672 -0.4947
 2867TIP3   OH2 8564   5.861   1.884   2.001 -0.0850  0.6660 -0.2931
 2867TIP3    H1 8565   5.947   1.868   1.963 -0.4831  1.2639 -1.4992
 2867TIP3    H2 8566   5.872   1.867   2.094  1.4899  1.3106 -0.3352
 2868TIP3   OH2 8567   3.452   0.371   3.831 -0.0980 -0.1558 -0.5833
 2868TIP3    H1 8568   3.414   0.284   3.821  0.6364 -0.4361 -1.0719
 2868TIP3    H2 8569   3.543   0.355   3.857  0.1092  0.4506 -0.9018
 2869TIP3   OH2 8570   2.698   2.535   4.668 -0.1402  0.1336 -0.1255
 2869TIP3    H1 8571   2.622   2.564   4.718 -0.3512 -2.3435  1.1289
 2869TIP3    H2 8572   2.769   2.591   4.697 -0.9686  0.8763  0.5110
 2870TIP3   OH2 8573   6.119   2.341   5.865 -0.5675 -0.2908  0.0896
 2870TIP3    H1 8574   6.130   2.248   5.882 -0.0488 -0.0487  1.1809
 2870TIP3    H2 8575   6.208   2.375   5.861 -0.6871 -0.1233 -2.1046
 2871TIP3   OH2 8576   6.750   3.227   2.242  0.2919 -0.0457 -0.3053
 2871TIP3    H1 8577   6.784   3.303   2.194 -2.4098  1.6835  0.3386
 2871TIP3    H2 8578   6.706   3.174   2.175 -1.2719  1.0581 -0.1882
 2872TIP3   OH2 8579   3.499   0.066   3.581 -0.2130  0.5857 -0.0575
 2872TIP3    H1 8580   3.447   0.081   3.660 -0.4875 -1.0971  0.1254
 2872TIP3    H2 8581   3.434   0.067   3.510 -0.0287  1.6554 -0.2200
 2873TIP3   OH2 8582   2.460   2.775   0.700  0.2302  0.3161  0.3606
 2873TIP3    H1 8583   2.544   2.729   0.706 -0.7620 -1.5707  0.3398
 2873TIP3    H2 8584   2.396   2.714   0.735 -1.5467  0.6078 -2.1094
 2874TIP3   OH2 8585   1.839   6.638   0.030 -0.3930 -0.6976 -0.3780
 2874TIP3    H1 8586   1.756   6.617   0.071  0.1286 -0.2579  0.9692
 2874TIP3    H2 8587   1.896   6.662   0.103  0.9429 -1.0761 -1.2594
 2875TIP3   OH2 8588   6.062   3.823   1.571 -0.2679  0.0332 -0.4753
 2875TIP3    H1 8589   6.003   3.752   1.598  0.9083 -0.9171 -0.3344
 2875TIP3    H2 8590   6.091   3.863   1.653 -0.0975 -0.0148 -0.5121
 2876TIP3   OH2 8591   6.330   3.033   1.567 -0.1894 -0.5430  0.4793
 2876TIP3    H1 8592   6.402   2.981   1.530  1.5149  1.1037  1.3053
 2876TIP3    H2 8593   6.259   3.024   1.504  0.3402 -3.0517  0.1269
 2877TIP3   OH2 8594   3.773   0.512   4.435 -0.0123  0.0332 -0.6273
 2877TIP3    H1 8595   3.782   0.506   4.530 -0.2859  1.6759 -0.4802
 2877TIP3    H2 8596   3.681   0.491   4.419  0.3900 -1.8638 -0.7222
 2878TIP3   OH2 8597   3.456   1.332   0.879  0.4981 -0.1700 -0.6365
 2878TIP3    H1 8598   3.362   1.334   0.861  0.2944  2.2857  0.3708
 2878TIP3    H2 8599   3.468   1.256   0.936 -0.9613 -0.2058 -0.3400
 2879TIP3   OH2 8600   4.676   6.092   4.516  0.3686  0.3074 -0.3831
 2879TIP3    H1 8601   4.683   6.171   4.571 -0.9656  0.7774 -0.8664
 2879TIP3    H2 8602   4.721   6.116   4.435 -0.8492  0.9482 -0.9028
 2880TIP3   OH2 8603   1.981   3.954   3.256 -0.2838  0.2027 -0.2607
 2880TIP3    H1 8604   1.980   3.976   3.163  0.1754  4.4457  0.5032
 2880TIP3    H2 8605   1.893   3.977   3.287 -0.3762 -0.9676  0.3899
 2881TIP3   OH2 8606   5.709   5.868   5.143 -0.2170 -0.2327 -0.1733
 2881TIP3    H1 8607   5.794   5.828   5.163 -1.2818 -2.7220 -0.2369
 2881TIP3    H2 8608   5.730   5.939   5.083  1.6571 -2.7714 -2.8582
 2882TIP3   OH2 8609   0.061   0.286   3.948  0.4270  0.1495 -0.3819
 2882TIP3    H1 8610   0.063   0.286   4.044 -0.7586 -0.7576 -0.3336
 2882TIP3    H2 8611   0.147   0.254   3.922  1.4205  2.0905  0.3212
 2883TIP3   OH2 8612   1.901   6.509   3.795  0.1453  0.1732  0.2061
 2883TIP3    H1 8613   1.809   6.524   3.772 -0.6262 -0.7772  2.4250
 2883TIP3    H2 8614   1.899   6.430   3.849  2.4579 -0.6153 -0.7531
 2884TIP3   OH2 8615   5.751   2.545   0.988 -0.0221  0.3417 -0.1216
 2884TIP3    H1 8616   5.678   2.607   0.988  0.4343  0.9002  0.4561
 2884TIP3    H2 8617   5.710   2.459   0.992 -0.6451  0.6738  0.9847
 2885TIP3   OH2 8618   1.309   4.107   4.515  0.2333 -0.0733 -0.3184
 2885TIP3    H1 8619   1.297   4.012   4.525  0.3887 -0.3831 -2.6023
 2885TIP3    H2 8620   1.381   4.128   4.575 -0.7309 -1.1131  1.2769
 2886TIP3   OH2 8621   2.360   0.716   1.280  0.6477 -1.0686  0.3800
 2886TIP3    H1 8622   2.435   0.740   1.226 -0.8868  0.6964 -1.0893
 2886TIP3    H2 8623   2.357   0.782   1.349 -0.6392  0.0789 -0.7173
 2887TIP3   OH2 8624   1.333   1.578   5.761 -0.4877 -0.8072 -0.9189
 2887TIP3    H1 8625   1.290   1.600   5.678 -1.6574  0.1107 -0.0958
 2887TIP3    H2 8626   1.287   1.629   5.827  2.0209  0.4296  0.0224
 2888TIP3   OH2 8627   2.532   2.141   4.474 -0.2348 -0.2977 -0.0558
 2888TIP3    H1 8628   2.585   2.169   4.400 -0.6895  0.2757 -0.1731
 2888TIP3    H2 8629   2.502   2.222   4.514 -1.2733 -0.6033 -0.1759
 2889TIP3   OH2 8630   6.836   1.126   1.506  0.1276 -0.4032  0.4081
 2889TIP3    H1 8631   6.911   1.066   1.499  0.7697  0.5056 -1.1704
 2889TIP3    H2 8632   6.875   1.213   1.504 -0.8170  0.1039  2.4287
 2890TIP3   OH2 8633   1.148   4.422   0.810 -0.5871  0.1209 -0.6465
 2890TIP3    H1 8634   1.127   4.426   0.904 -2.1969 -0.7466 -0.9445
 2890TIP3    H2 8635   1.244   4.417   0.808 -0.3632  2.2188  0.8553
 2891TIP3   OH2 8636   0.452   5.257   5.210  0.3375  0.9117  0.0330
 2891TIP3    H1 8637   0.419   5.212   5.288  0.8055 -0.7356 -0.6761
 2891TIP3    H2 8638   0.468   5.187   5.147  0.6522  2.1417 -1.3035
 2892TIP3   OH2 8639   5.338   1.841   2.860 -0.3405  0.1162 -0.5149
 2892TIP3    H1 8640   5.387   1.769   2.820 -0.6578 -0.8077  0.6884
 2892TIP3    H2 8641   5.405   1.900   2.894 -0.0767  0.4561 -1.5920
 2893TIP3   OH2 8642   3.576   0.741   2.302 -0.1511 -0.2830  0.0631
 2893TIP3    H1 8643   3.633   0.671   2.333 -0.6593 -0.1467  1.3653
 2893TIP3    H2 8644   3.635   0.803   2.259  0.5017 -0.7844  0.2251
 2894TIP3   OH2 8645   3.059   2.874   4.350  0.2403  0.0389 -0.1501
 2894TIP3    H1 8646   3.140   2.827   4.368  0.6860  0.6493 -0.4957
 2894TIP3    H2 8647   3.085   2.967   4.348  0.1680  0.1145 -3.2412
 2895TIP3   OH2 8648   4.701   4.408   3.477 -0.0968  0.6169  0.8818
 2895TIP3    H1 8649   4.699   4.369   3.565  1.7876  1.2774  1.2551
 2895TIP3    H2 8650   4.793   4.406   3.452 -0.7302 -0.7326 -1.6618
 2896TIP3   OH2 8651   2.389   5.242   4.744 -0.1781 -0.2417  0.2813
 2896TIP3    H1 8652   2.363   5.265   4.655 -0.1820 -0.3887  0.2447
 2896TIP3    H2 8653   2.482   5.266   4.748 -0.2939  0.1949  0.3839
 2897TIP3   OH2 8654   0.043   3.300   4.806 -0.2414  0.1812 -0.1606
 2897TIP3    H1 8655   0.120   3.244   4.802  0.5475  1.3040 -0.9842
 2897TIP3    H2 8656  -0.015   3.267   4.737 -0.2325 -0.2678  0.0461
 2898TIP3   OH2 8657   4.358   1.541   5.826 -0.2697 -0.2256  0.5420
 2898TIP3    H1 8658   4.316   1.613   5.780  2.3504  0.5938 -0.7580
 2898TIP3    H2 8659   4.380   1.576   5.912 -0.1016  0.0994  0.3639
 2899TIP3   OH2 8660   0.458   0.407   1.837 -0.1575  0.0493  0.5041
 2899TIP3    H1 8661   0.515   0.333   1.859 -0.8626 -0.3686  0.9547
 2899TIP3    H2 8662   0.471   0.420   1.743 -1.7357 -2.1490 -0.0745
 2900TIP3   OH2 8663   0.524   4.165   2.184  0.0788 -0.4933 -0.0634
 2900TIP3    H1 8664   0.536   4.131   2.273 -0.6504  1.1537  0.7076
 2900TIP3    H2 8665   0.603   4.138   2.137  0.3430 -1.6467  0.9771
 2901TIP3   OH2 8666   4.893   1.793   2.655  0.0645 -0.0001  0.2113
 2901TIP3    H1 8667   4.928   1.864   2.601  0.3540  0.4674  0.9857
 2901TIP3    H2 8668   4.970   1.751   2.692 -0.1202 -0.5200  0.0175
 2902TIP3   OH2 8669   0.426   2.351   2.586 -0.0859  0.7809  0.6987
 2902TIP3    H1 8670   0.479   2.364   2.665  2.0035 -0.4705 -0.4031
 2902TIP3    H2 8671   0.486   2.370   2.514 -1.6569  0.9316 -0.6259
 2903TIP3   OH2 8672   1.611   0.605   4.775  0.7146 -0.5449 -0.0936
 2903TIP3    H1 8673   1.664   0.613   4.696 -1.0944 -0.5449 -1.3675
 2903TIP3    H2 8674   1.624   0.515   4.804  2.2299 -0.2372  0.2776
 2904TIP3   OH2 8675   2.838   0.627   2.518  0.8258 -0.1575  0.5728
 2904TIP3    H1 8676   2.792   0.556   2.473  0.7248  0.6048 -0.5834
 2904TIP3    H2 8677   2.769   0.690   2.540  1.1388  0.4185 -0.0589
 2905TIP3   OH2 8678   4.436   0.588   0.703  0.4015 -0.7775 -0.7632
 2905TIP3    H1 8679   4.347   0.568   0.735 -0.0603  1.2918 -0.6181
 2905TIP3    H2 8680   4.458   0.514   0.646 -1.2060 -1.5857 -0.4013
 2906TIP3   OH2 8681   0.842   1.782   2.785 -0.0666 -0.3033  0.2834
 2906TIP3    H1 8682   0.789   1.812   2.711  1.8726  1.5831 -0.4490
 2906TIP3    H2 8683   0.879   1.862   2.823  1.4633 -1.4440  1.3492
 2907TIP3   OH2 8684   0.266   6.033   0.590  0.0538  0.0574 -0.3146
 2907TIP3    H1 8685   0.281   5.986   0.673 -1.0649  0.1108 -0.0709
 2907TIP3    H2 8686   0.337   6.004   0.533  0.6917 -0.1771  0.5827
 2908TIP3   OH2 8687   3.236   0.904   2.617 -0.1865  0.1272 -0.0682
 2908TIP3    H1 8688   3.167   0.858   2.664 -1.1503 -0.2499 -1.7484
 2908TIP3    H2 8689   3.219   0.997   2.632  1.0531  0.0196  2.3587
 2909TIP3   OH2 8690   5.123   5.369   5.110  0.1565 -0.2663 -0.4088
 2909TIP3    H1 8691   5.208   5.329   5.091 -0.0345 -0.7439 -0.2650
 2909TIP3    H2 8692   5.125   5.387   5.204 -0.2895 -1.2132 -0.2083
 2910TIP3   OH2 8693   2.385   4.269   1.418  0.2622  0.4277 -0.1066
 2910TIP3    H1 8694   2.342   4.199   1.467  0.7392 -0.0360 -0.3359
 2910TIP3    H2 8695   2.400   4.232   1.331  0.8780  0.6757 -0.1121
 2911TIP3   OH2 8696   0.867   6.439   3.250 -0.2550 -0.6120 -0.1444
 2911TIP3    H1 8697   0.869   6.533   3.268 -0.7033 -0.5482 -0.3990
 2911TIP3    H2 8698   0.852   6.433   3.156 -1.7649 -0.9167  0.0760
 2912TIP3   OH2 8699   4.403   1.894   3.859  0.1404  0.4705  0.5856
 2912TIP3    H1 8700   4.473   1.922   3.918  2.3536 -1.6504 -0.8119
 2912TIP3    H2 8701   4.412   1.950   3.782 -0.5795  1.0455  0.9092
 2913TIP3   OH2 8702   4.526   4.558   2.357  0.0187 -0.5913  0.1707
 2913TIP3    H1 8703   4.532   4.571   2.451 -0.2841  0.5313  0.0395
 2913TIP3    H2 8704   4.617   4.551   2.328  0.1062 -1.0991  0.5589
 2914TIP3   OH2 8705   6.455   6.590   3.149  0.3631 -0.7056  0.7097
 2914TIP3    H1 8706   6.508   6.670   3.142 -1.6968  0.6728 -0.0702
 2914TIP3    H2 8707   6.482   6.551   3.232  0.4501  1.5736  1.8282
 2915TIP3   OH2 8708   3.818   1.223   3.591 -0.2001  0.1436 -0.1212
 2915TIP3    H1 8709   3.730   1.191   3.570 -0.2807 -0.2598  0.8043
 2915TIP3    H2 8710   3.805   1.283   3.664  0.1842  0.8547 -0.6236
 2916TIP3   OH2 8711   4.540   3.090   0.124  0.6780  0.0312  0.3430
 2916TIP3    H1 8712   4.506   3.058   0.041  0.4728  1.0119  0.0343
 2916TIP3    H2 8713   4.626   3.049   0.132  0.3293 -0.7788  0.0952
 2917TIP3   OH2 8714   2.023   0.247   0.663  0.2153 -0.1817 -0.8666
 2917TIP3    H1 8715   2.024   0.327   0.610  0.7003  1.2494  1.1408
 2917TIP3    H2 8716   2.090   0.263   0.730 -1.9015 -0.8116  1.5600
 2918TIP3   OH2 8717   4.194   2.154   5.063 -0.5817 -0.0231  0.1976
 2918TIP3    H1 8718   4.172   2.143   4.970  0.3838  0.1541 -0.0577
 2918TIP3    H2 8719   4.266   2.093   5.078 -0.2735  0.4435  0.6572
 2919TIP3   OH2 8720   5.469   2.738   2.630  0.3977 -0.2540 -0.9310
 2919TIP3    H1 8721   5.557   2.775   2.621  0.4282 -0.0272  0.2175
 2919TIP3    H2 8722   5.475   2.680   2.705 -0.2861 -0.7234 -1.2298
 2920TIP3   OH2 8723   0.945   0.064   0.065 -0.5712 -0.7071  0.6027
 2920TIP3    H1 8724   0.942   0.035   0.156 -1.0835 -0.7069  0.5898
 2920TIP3    H2 8725   0.879   0.011   0.021 -0.6324 -0.4011  0.3225
 2921TIP3   OH2 8726   0.808   2.853   4.285  0.3320  0.2018 -0.0582
 2921TIP3    H1 8727   0.733   2.898   4.246  0.2036 -0.0786 -0.1406
 2921TIP3    H2 8728   0.853   2.812   4.211  0.4920  0.2577  0.0071
 2922TIP3   OH2 8729   2.457   0.581   1.736  0.5306 -0.1607 -0.0316
 2922TIP3    H1 8730   2.505   0.639   1.795 -0.4920  0.9214 -0.1998
 2922TIP3    H2 8731   2.503   0.588   1.652  0.5863  0.2187  0.0260
 2923TIP3   OH2 8732   7.011   3.098   0.977  0.3172 -0.5490  0.5393
 2923TIP3    H1 8733   6.990   3.005   0.976  0.1999 -0.5309  1.0505
 2923TIP3    H2 8734   7.103   3.101   1.003  0.8907 -0.6101 -1.3471
 2924TIP3   OH2 8735   0.267   3.915   0.104  0.2559  0.5735  0.4987
 2924TIP3    H1 8736   0.356   3.882   0.119  0.8872  2.1720  0.5140
 2924TIP3    H2 8737   0.257   3.987   0.167 -0.9054  0.6578  0.2388
 2925TIP3   OH2 8738   2.963   4.024   1.080 -0.5624  0.2213 -0.0082
 2925TIP3    H1 8739   3.034   4.081   1.051  1.6153 -1.6080  1.3705
 2925TIP3    H2 8740   2.959   4.038   1.175  0.4352 -2.2564  0.4538
 2926TIP3   OH2 8741   0.114   2.003   5.329 -0.0900 -0.2175  0.0570
 2926TIP3    H1 8742   0.137   2.083   5.377 -0.1760 -0.2369  0.1301
 2926TIP3    H2 8743   0.044   1.963   5.380 -1.8846  0.9994 -1.3357
 2927TIP3   OH2 8744   3.157   3.293   5.840 -0.6000  0.4821  0.5514
 2927TIP3    H1 8745   3.066   3.315   5.861 -0.9778 -0.0239 -0.4965
 2927TIP3    H2 8746   3.168   3.204   5.872 -0.0647  0.9925  1.8430
 2928TIP3   OH2 8747   2.914   4.330   2.170  0.4715  0.0434  0.0567
 2928TIP3    H1 8748   2.971   4.282   2.230  0.6870  0.1060 -0.0933
 2928TIP3    H2 8749   2.830   4.285   2.175  1.0445 -1.2565 -1.1478
 2929TIP3   OH2 8750   2.778   6.368   1.073 -0.6039  0.1966  0.1099
 2929TIP3    H1 8751   2.867   6.402   1.065 -0.3654 -0.2754  0.7288
 2929TIP3    H2 8752   2.766   6.352   1.166  0.0062 -3.1941 -0.2540
 2930TIP3   OH2 8753   6.781   2.633   2.387 -0.5228  0.5716  0.7569
 2930TIP3    H1 8754   6.856   2.682   2.354 -0.1196 -0.2257  0.4858
 2930TIP3    H2 8755   6.705   2.680   2.352 -0.1938  1.8133  1.6259
 2931TIP3   OH2 8756   5.025   1.816   0.789 -0.2860  0.1220  0.2867
 2931TIP3    H1 8757   5.100   1.868   0.760 -1.4545  1.0882 -1.2228
 2931TIP3    H2 8758   5.052   1.725   0.776  0.7573  0.4359  0.1697
 2932TIP3   OH2 8759   4.860   4.874   4.550 -0.2754  0.0271 -0.2705
 2932TIP3    H1 8760   4.832   4.790   4.585  2.7314  0.2954  3.4023
 2932TIP3    H2 8761   4.952   4.859   4.524  0.7289  2.3429  1.6175
 2933TIP3   OH2 8762   6.582   5.744   2.010  0.4501  0.2640  0.6224
 2933TIP3    H1 8763   6.598   5.754   1.916  0.8595 -2.0288  0.3827
 2933TIP3    H2 8764   6.496   5.782   2.025 -1.0824 -2.1712 -1.3475
 2934TIP3   OH2 8765   5.477   1.527   1.072  0.1897 -0.1939 -0.3472
 2934TIP3    H1 8766   5.413   1.476   1.023  0.3262  0.2148 -0.9775
 2934TIP3    H2 8767   5.513   1.467   1.137 -1.2293 -0.2733  0.3999
 2935TIP3   OH2 8768   3.794   6.685   5.484 -0.3373 -0.0203 -0.0555
 2935TIP3    H1 8769   3.830   6.632   5.412  1.0313 -1.0663  1.3268
 2935TIP3    H2 8770   3.848   6.662   5.559 -1.3259  1.5235  1.1781
 2936TIP3   OH2 8771   1.279   5.085   0.298 -0.4667 -0.0004 -0.0763
 2936TIP3    H1 8772   1.362   5.062   0.255 -1.0707  1.4844 -2.1797
 2936TIP3    H2 8773   1.244   5.001   0.327  1.1586 -0.8021 -0.2919
 2937TIP3   OH2 8774   4.475   2.202   2.561 -0.0275 -0.2134 -0.0006
 2937TIP3    H1 8775   4.474   2.295   2.539  0.8361 -0.5695 -1.6490
 2937TIP3    H2 8776   4.549   2.193   2.622  1.2717 -0.1494 -1.5169
 2938TIP3   OH2 8777   5.949   1.390   0.496 -0.5941  0.2612  0.2057
 2938TIP3    H1 8778   5.945   1.315   0.555  2.1381 -2.0888 -2.3017
 2938TIP3    H2 8779   6.026   1.439   0.525 -0.4976  0.2927 -0.0980
 2939TIP3   OH2 8780   4.030   1.440   2.350  0.0526  0.1974 -0.4611
 2939TIP3    H1 8781   4.050   1.398   2.434 -0.4308 -0.7607 -0.8086
 2939TIP3    H2 8782   4.075   1.525   2.354  1.3566 -0.4861  0.1310
 2940TIP3   OH2 8783   6.770   3.390   4.807  1.0606  0.3948  0.4531
 2940TIP3    H1 8784   6.712   3.331   4.759  0.6216  0.5248  0.8125
 2940TIP3    H2 8785   6.796   3.457   4.743  2.3284 -0.6999 -0.2199
 2941TIP3   OH2 8786   0.234   5.403   3.341 -0.3644  0.4133 -0.2005
 2941TIP3    H1 8787   0.155   5.388   3.289 -1.7378  1.5948  1.4127
 2941TIP3    H2 8788   0.210   5.474   3.400  1.5217 -0.0318  1.1895
 2942TIP3   OH2 8789   1.683   6.404   1.985  0.4724 -0.2890  0.3457
 2942TIP3    H1 8790   1.605   6.359   1.953  0.2411  1.2611 -1.4316
 2942TIP3    H2 8791   1.701   6.471   1.919  1.5338  1.3863  2.2289
 2943TIP3   OH2 8792   6.347   3.737   5.729 -0.2103 -0.1616  0.4460
 2943TIP3    H1 8793   6.299   3.655   5.743  1.2827 -0.7453  2.6127
 2943TIP3    H2 8794   6.280   3.798   5.698 -1.5955 -1.8511 -0.0947
 2944TIP3   OH2 8795   3.381   6.544   4.872  0.3400  0.4658  0.2453
 2944TIP3    H1 8796   3.313   6.499   4.922  0.0114  0.0733 -0.5371
 2944TIP3    H2 8797   3.378   6.503   4.786 -0.0496  2.0406 -0.5353
 2945TIP3   OH2 8798   5.148   4.198   4.775  0.8144  0.3398 -0.0307
 2945TIP3    H1 8799   5.226   4.152   4.806  0.3142 -0.2826  0.3380
 2945TIP3    H2 8800   5.077   4.135   4.787 -0.1753  1.7287  2.0108
 2946TIP3   OH2 8801   6.409   5.301   2.381  0.1656  0.7245 -0.3188
 2946TIP3    H1 8802   6.398   5.206   2.390  1.0223  0.7565  1.5374
 2946TIP3    H2 8803   6.468   5.312   2.307  0.3993 -0.2195 -0.2827
 2947TIP3   OH2 8804   7.016   6.193   2.291 -0.0543  0.1639 -0.1036
 2947TIP3    H1 8805   6.977   6.275   2.259 -1.2785  0.0412  0.9704
 2947TIP3    H2 8806   7.082   6.222   2.354 -0.6439  0.3539  0.4487
 2948TIP3   OH2 8807   5.258   1.095   5.805  0.2096  0.0948 -0.2643
 2948TIP3    H1 8808   5.313   1.157   5.757 -0.2574  0.3548 -0.4626
 2948TIP3    H2 8809   5.320   1.031   5.840  0.7803  1.0455  0.5258
 2949TIP3   OH2 8810   3.035   1.718   3.924  0.3948  0.4252  0.4504
 2949TIP3    H1 8811   3.113   1.773   3.914  1.5666 -0.7444  2.5168
 2949TIP3    H2 8812   3.066   1.639   3.968 -1.8513 -0.3832  0.7282
 2950TIP3   OH2 8813   1.903   4.831   3.819  0.0034 -0.1856  0.1147
 2950TIP3    H1 8814   1.984   4.783   3.834  0.4724  0.7064  0.5378
 2950TIP3    H2 8815   1.834   4.767   3.834  0.5743 -0.4629  1.8442
 2951TIP3   OH2 8816   2.370   1.954   5.372  0.7432 -0.9310  0.1684
 2951TIP3    H1 8817   2.461   1.944   5.400  1.1459 -1.4700 -1.2491
 2951TIP3    H2 8818   2.376   1.985   5.281 -0.4981 -0.0168  0.3680
 2952TIP3   OH2 8819   5.022   3.095   1.409  0.4678 -0.2144  0.4333
 2952TIP3    H1 8820   5.103   3.045   1.418 -0.8856 -2.0838  3.8497
 2952TIP3    H2 8821   5.037   3.174   1.461  0.5452  0.1316 -0.1034
 2953TIP3   OH2 8822   4.203   0.647   1.914  0.1684  0.0825  0.1370
 2953TIP3    H1 8823   4.163   0.562   1.935  1.0250 -0.7125 -1.3451
 2953TIP3    H2 8824   4.192   0.656   1.819 -1.3514  2.4058  0.4435
 2954TIP3   OH2 8825   4.044   4.224   5.670  0.1777 -0.0931  0.0641
 2954TIP3    H1 8826   3.977   4.292   5.662 -0.4410 -0.6816  0.1596
 2954TIP3    H2 8827   4.039   4.196   5.761 -0.4409 -1.1343 -0.2775
 2955TIP3   OH2 8828   7.176   3.181   4.260 -0.2340 -0.2146 -0.5298
 2955TIP3    H1 8829   7.119   3.109   4.233  0.4005 -1.2585  0.7886
 2955TIP3    H2 8830   7.258   3.166   4.213  1.1342 -2.4624  2.2724
 2956TIP3   OH2 8831   0.322   1.842   2.100  0.3886  0.1157  0.1455
 2956TIP3    H1 8832   0.326   1.752   2.068  0.8048  0.3509 -0.4961
 2956TIP3    H2 8833   0.231   1.869   2.087  0.8591  0.7365 -2.4288
 2957TIP3   OH2 8834   2.919   2.222   2.763  0.3699 -0.0598 -0.4482
 2957TIP3    H1 8835   2.969   2.294   2.799  0.8456 -0.0989 -1.0172
 2957TIP3    H2 8836   2.828   2.253   2.763  0.4022  0.0605  0.4543
 2958TIP3   OH2 8837   1.725   0.451   3.001  0.4987  0.2953 -0.0686
 2958TIP3    H1 8838   1.757   0.415   2.917  3.6663  0.2185  1.0294
 2958TIP3    H2 8839   1.794   0.512   3.028  0.3638 -0.8316  3.1809
 2959TIP3   OH2 8840   6.524   6.123   2.326 -0.3017 -0.2135  0.1878
 2959TIP3    H1 8841   6.578   6.045   2.318 -0.6055 -0.2488 -2.0637
 2959TIP3    H2 8842   6.441   6.098   2.285  0.2887  1.8734 -2.5052
 2960TIP3   OH2 8843   1.255   3.672   5.751  0.0812 -0.1477  0.1809
 2960TIP3    H1 8844   1.343   3.633   5.746  0.7293  1.2246  0.4278
 2960TIP3    H2 8845   1.196   3.598   5.739  1.2627 -1.1763  0.4362
 2961TIP3   OH2 8846   4.053   5.088   3.540  0.1718  0.1819 -0.0602
 2961TIP3    H1 8847   4.097   5.003   3.529 -1.1281 -0.6462  0.8775
 2961TIP3    H2 8848   3.984   5.071   3.604 -1.4977  1.4232 -1.4256
 2962TIP3   OH2 8849   5.606   0.739   2.204 -0.0913 -0.5541  0.2895
 2962TIP3    H1 8850   5.584   0.731   2.112  0.7158 -0.9188  0.1131
 2962TIP3    H2 8851   5.527   0.711   2.250 -0.7612  0.3661 -0.2714
 2963TIP3   OH2 8852   5.289   2.297   3.986  0.0106 -0.0365  0.3582
 2963TIP3    H1 8853   5.261   2.340   3.906 -0.7404 -0.3695  0.4384
 2963TIP3    H2 8854   5.284   2.365   4.053 -0.9932 -0.1994  0.4501
 2964TIP3   OH2 8855   5.927   1.176   1.425  0.0313 -0.1174  0.5121
 2964TIP3    H1 8856   5.955   1.179   1.517 -0.5981 -1.0241  0.7459
 2964TIP3    H2 8857   5.963   1.094   1.392 -0.4131 -0.1845  0.1809
 2965TIP3   OH2 8858   4.156   0.385   5.047 -0.2089  0.2715  0.2466
 2965TIP3    H1 8859   4.077   0.368   4.995  0.5176  0.5511 -0.9758
 2965TIP3    H2 8860   4.210   0.441   4.992  0.4779  0.8080  1.4264
 2966TIP3   OH2 8861   1.421   2.287   1.360  0.2869  0.1921  0.0900
 2966TIP3    H1 8862   1.480   2.362   1.361  1.1378 -0.3677 -1.9478
 2966TIP3    H2 8863   1.411   2.262   1.452  4.0977 -0.3148  0.5416
 2967TIP3   OH2 8864   1.211   6.577   5.476  0.0206 -0.2080 -0.4660
 2967TIP3    H1 8865   1.150   6.582   5.401 -0.4418  2.9107 -0.0265
 2967TIP3    H2 8866   1.260   6.497   5.461 -2.1049 -1.2742 -2.4976
 2968TIP3   OH2 8867   5.642   6.173   5.274  0.0582  0.2687  0.0996
 2968TIP3    H1 8868   5.695   6.153   5.197 -0.2810 -1.6317  0.3305
 2968TIP3    H2 8869   5.586   6.245   5.245  1.4330  1.0663 -0.7280
 2969TIP3   OH2 8870   5.343   3.328   0.944  0.3447 -0.1246 -0.2045
 2969TIP3    H1 8871   5.301   3.413   0.925  0.1470  0.0607  0.9318
 2969TIP3    H2 8872   5.392   3.307   0.865  1.3715  1.6424 -0.0920
 2970TIP3   OH2 8873   5.323   2.773   3.705  0.0791 -0.4522  0.4764
 2970TIP3    H1 8874   5.380   2.725   3.645 -0.5507 -1.5924  0.7571
 2970TIP3    H2 8875   5.374   2.850   3.731 -0.6464  1.7526 -3.7555
 2971TIP3   OH2 8876   2.483   6.724   2.132  0.1122 -0.4694 -0.3835
 2971TIP3    H1 8877   2.516   6.664   2.065  2.3469  1.6982 -1.3833
 2971TIP3    H2 8878   2.515   6.688   2.214  0.8166 -1.0136 -0.8817
 2972TIP3   OH2 8879   2.186   6.339   3.150 -0.1866 -0.0714 -0.2078
 2972TIP3    H1 8880   2.144   6.332   3.065 -1.3195  0.8579  0.2408
 2972TIP3    H2 8881   2.266   6.390   3.134  0.3352 -1.0820 -0.9220
 2973TIP3   OH2 8882   4.514   4.397   1.104  0.5666  0.9424 -0.2151
 2973TIP3    H1 8883   4.506   4.491   1.119 -0.5318  0.8210  0.0571
 2973TIP3    H2 8884   4.448   4.358   1.162  2.2613 -0.1235  1.0909
 2974TIP3   OH2 8885   5.444   2.802   1.273  0.3093  0.6834 -0.4899
 2974TIP3    H1 8886   5.388   2.800   1.195 -0.4403  1.6907 -0.0073
 2974TIP3    H2 8887   5.419   2.724   1.322 -1.3198  1.5466  0.1237
 2975TIP3   OH2 8888   3.349   0.174   3.051 -0.0993 -0.2594  0.1467
 2975TIP3    H1 8889   3.283   0.138   2.992 -0.2073  1.2029 -0.6797
 2975TIP3    H2 8890   3.377   0.255   3.009 -0.9656  1.4473  2.5621
 2976TIP3   OH2 8891   1.603   1.536   4.344 -0.3432 -0.4036 -0.2412
 2976TIP3    H1 8892   1.606   1.446   4.374 -1.4946 -0.7318 -1.0498
 2976TIP3    H2 8893   1.590   1.530   4.249 -2.3618  0.5868 -0.0727
 2977TIP3   OH2 8894   2.510   3.997   4.329 -0.4502 -0.5299  0.2378
 2977TIP3    H1 8895   2.458   4.053   4.387  0.2474 -0.0788  0.4335
 2977TIP3    H2 8896   2.592   4.044   4.317  1.0504 -2.4488  2.1407
 2978TIP3   OH2 8897   2.538   5.360   3.244 -0.2165  0.2231  0.0587
 2978TIP3    H1 8898   2.582   5.332   3.164 -1.2521  1.8678 -1.1631
 2978TIP3    H2 8899   2.583   5.440   3.270  0.5085 -0.6332  1.5064
 2979TIP3   OH2 8900   4.800   0.255   4.443 -0.2863 -0.0081  0.6075
 2979TIP3    H1 8901   4.732   0.194   4.415  0.8237 -0.6500 -0.8420
 2979TIP3    H2 8902   4.769   0.341   4.412  0.1872 -0.4961 -1.3918
 2980TIP3   OH2 8903   4.898   0.965   1.595  0.0594  0.8582 -0.3945
 2980TIP3    H1 8904   4.942   0.893   1.550 -0.7784 -0.7905  1.2662
 2980TIP3    H2 8905   4.808   0.962   1.563 -0.3772  0.0925  0.7969
 2981TIP3   OH2 8906   3.458   1.096   1.029 -0.3415  0.0852 -0.6501
 2981TIP3    H1 8907   3.366   1.079   1.009  0.0693 -2.0572 -0.9255
 2981TIP3    H2 8908   3.470   1.061   1.118  0.0124  1.1577 -0.2627
 2982TIP3   OH2 8909   1.015   1.680   1.221  0.3109  0.5343 -0.3518
 2982TIP3    H1 8910   0.929   1.649   1.194  0.5889  0.5949 -1.3479
 2982TIP3    H2 8911   1.069   1.673   1.142  0.9416  1.4914 -0.0214
 2983TIP3   OH2 8912   6.706   2.760   2.961 -0.2834  0.1097  0.6920
 2983TIP3    H1 8913   6.688   2.765   2.867  0.6160 -0.3465  0.4832
 2983TIP3    H2 8914   6.659   2.682   2.991 -0.4731  0.1893  0.6059
 2984TIP3   OH2 8915   3.265   2.276   1.598 -0.3285  0.3676 -0.2171
 2984TIP3    H1 8916   3.304   2.199   1.556  1.2953  1.6361 -1.1487
 2984TIP3    H2 8917   3.266   2.254   1.692  1.4718 -0.1983 -0.3182
 2985TIP3   OH2 8918   3.684   0.499   2.377 -0.2724  0.1108 -0.1703
 2985TIP3    H1 8919   3.714   0.468   2.291 -0.2799 -0.2616 -0.0433
 2985TIP3    H2 8920   3.668   0.418   2.427 -0.3583  0.3233  0.1490
 2986TIP3   OH2 8921   4.214   4.368   1.805 -0.3675  0.1859 -0.0142
 2986TIP3    H1 8922   4.160   4.323   1.739  0.7559  0.4774 -1.1753
 2986TIP3    H2 8923   4.263   4.298   1.848 -1.3116 -0.0348  0.7327
 2987TIP3   OH2 8924   7.175   1.906   4.461 -0.2179  0.5419  0.2594
 2987TIP3    H1 8925   7.081   1.909   4.449 -0.2004  0.0830 -0.0380
 2987TIP3    H2 8926   7.189   1.852   4.539 -0.2201  1.0360  0.6024
 2988TIP3   OH2 8927   2.770   0.315   1.233  0.2169  0.1713  0.3609
 2988TIP3    H1 8928   2.783   0.385   1.297  0.2165  1.0774 -0.5925
 2988TIP3    H2 8929   2.760   0.236   1.285 -0.8862  1.0334  1.5334
 2989TIP3   OH2 8930   2.726   4.452   3.454  0.2217 -0.2003  0.4973
 2989TIP3    H1 8931   2.699   4.513   3.523  0.1155  0.5434 -0.1876
 2989TIP3    H2 8932   2.644   4.427   3.410  0.3038 -0.5621  0.5457
 2990TIP3   OH2 8933   4.695   2.531   3.322 -0.2432  0.1420  0.0544
 2990TIP3    H1 8934   4.752   2.460   3.291 -0.2771  0.1049  0.0767
 2990TIP3    H2 8935   4.720   2.542   3.414 -0.2974  0.1009  0.0741
 2991TIP3   OH2 8936   4.217   2.920   1.909  0.3369 -0.3303 -0.3783
 2991TIP3    H1 8937   4.304   2.923   1.869  0.8217 -0.7107  0.6044
 2991TIP3    H2 8938   4.207   3.006   1.949 -0.5987  0.4480 -2.1710
 2992TIP3   OH2 8939   3.752   0.920   0.528  0.2605 -0.0111  0.2569
 2992TIP3    H1 8940   3.725   1.012   0.537 -0.4516 -0.3828  2.4663
 2992TIP3    H2 8941   3.840   0.917   0.566  0.3274 -0.2212  0.0837
 2993TIP3   OH2 8942   5.215   3.207   2.908  0.2496  0.1993 -0.3745
 2993TIP3    H1 8943   5.133   3.171   2.941  1.1856  0.7164  2.7648
 2993TIP3    H2 8944   5.278   3.134   2.916  0.9052  0.8726  0.7488
 2994TIP3   OH2 8945   6.080   2.810   2.002 -0.5718  0.0632  0.9174
 2994TIP3    H1 8946   6.122   2.889   2.035 -1.2274  1.0249 -0.4889
 2994TIP3    H2 8947   6.145   2.771   1.943 -1.2027  0.9843 -0.4303
 2995TIP3   OH2 8948   5.556   1.262   1.420 -0.0489 -0.1235  0.1320
 2995TIP3    H1 8949   5.544   1.212   1.500  2.5880 -0.8961  0.1315
 2995TIP3    H2 8950   5.484   1.325   1.420 -1.0610 -1.1828  2.2451
 2996TIP3   OH2 8951   3.528   2.098   3.471  0.0988 -0.2823  0.4366
 2996TIP3    H1 8952   3.585   2.080   3.545  1.7925  0.9809 -0.4776
 2996TIP3    H2 8953   3.547   2.028   3.408  1.8254  0.9241 -0.4656
 2997TIP3   OH2 8954   1.145   5.262   4.770  0.2219  0.3572 -0.0676
 2997TIP3    H1 8955   1.158   5.320   4.845 -3.3493  0.5690  0.5530
 2997TIP3    H2 8956   1.141   5.175   4.809  1.1353  0.1445 -0.4262
 2998TIP3   OH2 8957   1.306   1.515   4.274  0.2290  0.5901  0.3780
 2998TIP3    H1 8958   1.348   1.496   4.357  0.7975 -0.3950 -0.1219
 2998TIP3    H2 8959   1.372   1.495   4.208 -0.3603  0.9347 -0.3370
 2999TIP3   OH2 8960   3.900   6.606   4.817 -0.7868  0.6019  0.3008
 2999TIP3    H1 8961   3.895   6.699   4.795 -1.1757  0.4415 -0.3027
 2999TIP3    H2 8962   3.990   6.581   4.796 -1.1114  0.4802 -1.0261
 3000TIP3   OH2 8963   3.087   5.817   3.615  0.7058 -0.0564 -0.5402
 3000TIP3    H1 8964   3.118   5.844   3.702 -0.3599  1.1506 -0.5012
 3000TIP3    H2 8965   3.100   5.723   3.613  3.7661  0.2740 -0.3147
 3001TIP3   OH2 8966   5.305   5.275   3.437  0.1221 -0.6288 -0.3979
 3001TIP3    H1 8967   5.386   5.308   3.398  0.3881 -0.3960  0.3408
 3001TIP3    H2 8968   5.237   5.331   3.400  0.2852 -0.8677 -1.0726
 3002TIP3   OH2 8969   5.183   3.769   5.825 -0.1076  0.2414 -0.3109
 3002TIP3    H1 8970   5.116   3.746   5.760 -0.9770 -1.5877  1.1383
 3002TIP3    H2 8971   5.254   3.706   5.810  0.0239  0.3089  0.0251
 3003TIP3   OH2 8972   7.043   6.541   2.750  0.0339  0.0698  0.0682
 3003TIP3    H1 8973   6.988   6.498   2.684 -0.2327 -0.9972  0.9498
 3003TIP3    H2 8974   7.000   6.521   2.833  0.9035  0.5536  0.6507
 3004TIP3   OH2 8975   2.133   5.761   4.475 -0.1365  0.4334 -0.0034
 3004TIP3    H1 8976   2.184   5.744   4.396 -1.0461 -0.6520 -0.3968
 3004TIP3    H2 8977   2.148   5.684   4.530 -0.8159  0.3959  0.1446
 3005TIP3   OH2 8978   5.170   6.375   2.294  1.1479 -0.5186 -0.5520
 3005TIP3    H1 8979   5.170   6.283   2.267  1.0979 -0.5752 -0.3622
 3005TIP3    H2 8980   5.262   6.401   2.290  1.6831 -1.5326  2.5678
 3006TIP3   OH2 8981   6.970   1.493   3.367  0.1905 -0.1897  0.2784
 3006TIP3    H1 8982   7.048   1.529   3.325  1.0886 -0.3941  1.7167
 3006TIP3    H2 8983   6.922   1.570   3.398  0.6604 -0.1145  0.8350
 3007TIP3   OH2 8984   2.735   0.865   2.362  0.7636 -0.1078 -1.1469
 3007TIP3    H1 8985   2.712   0.779   2.327  0.7104 -0.1775 -0.9382
 3007TIP3    H2 8986   2.701   0.865   2.451  1.3406 -0.1158 -0.9261
 3008TIP3   OH2 8987   5.073   2.880   1.788 -0.5381 -0.1866  0.6756
 3008TIP3    H1 8988   5.073   2.933   1.868 -0.9293  0.2886  0.3624
 3008TIP3    H2 8989   4.988   2.896   1.748  0.4647  1.3175 -0.9835
 3009TIP3   OH2 8990   5.005   5.630   2.394  0.0580 -0.2583 -0.2212
 3009TIP3    H1 8991   4.941   5.608   2.326  0.3279  1.0025 -0.9059
 3009TIP3    H2 8992   5.025   5.546   2.436 -1.3237 -0.8123 -0.6193
 3010TIP3   OH2 8993   3.191   6.165   1.281  0.0906  0.1121 -0.0075
 3010TIP3    H1 8994   3.167   6.207   1.363  0.4884  1.3220 -0.4913
 3010TIP3    H2 8995   3.287   6.164   1.282  0.0909 -0.2222 -0.2766
 3011TIP3   OH2 8996   2.788   0.769   4.786 -0.1565  0.1019  0.4570
 3011TIP3    H1 8997   2.707   0.822   4.782  0.5744  1.3739  1.6528
 3011TIP3    H2 8998   2.768   0.700   4.849 -1.2066 -1.3080 -1.3001
 3012TIP3   OH2 8999   1.092   3.070   2.115 -0.1795 -0.0290  0.6947
 3012TIP3    H1 9000   1.161   3.029   2.169  0.4624  2.2315  1.7325
 3012TIP3    H2 9001   1.140   3.122   2.051 -0.8697  1.4791  1.3491
 3013TIP3   OH2 9002   1.369   5.936   3.070 -0.2069  0.2518  0.3251
 3013TIP3    H1 9003   1.313   5.932   2.992  0.8211  0.2165 -0.4279
 3013TIP3    H2 9004   1.439   5.996   3.047  0.3568 -0.0995  1.0672
 3014TIP3   OH2 9005   4.616   5.697   2.826  0.1989  0.3781  0.3197
 3014TIP3    H1 9006   4.711   5.684   2.829  0.0939 -0.6384 -0.2005
 3014TIP3    H2 9007   4.601   5.747   2.745  0.0720 -2.0983 -1.3119
 3015TIP3   OH2 9008   1.857   0.657   1.089 -0.2449  0.0606  0.0697
 3015TIP3    H1 9009   1.932   0.655   1.149 -0.0740 -1.0777 -0.1716
 3015TIP3    H2 9010   1.782   0.638   1.145 -0.3373  0.9685  0.2689
 3016TIP3   OH2 9011   1.882   6.093   5.349 -0.3948 -0.6044 -0.5903
 3016TIP3    H1 9012   1.826   6.038   5.293 -0.9165  0.1203 -0.8002
 3016TIP3    H2 9013   1.832   6.103   5.430  0.0829 -1.1437 -0.2317
 3017TIP3   OH2 9014   5.870   4.495   0.159  0.0017 -0.5227 -0.1300
 3017TIP3    H1 9015   5.942   4.541   0.116  0.4283 -1.2871 -0.2480
 3017TIP3    H2 9016   5.883   4.403   0.135  0.7373 -1.1166  2.2968
 3018TIP3   OH2 9017   3.370   0.066   3.842  0.4757 -0.3924 -0.6058
 3018TIP3    H1 9018   3.329  -0.018   3.862 -1.6706  0.2142 -2.0501
 3018TIP3    H2 9019   3.418   0.089   3.922 -0.1993 -2.2265  0.3859
 3019TIP3   OH2 9020   7.127   5.525   2.143  0.1896 -0.1274  0.0377
 3019TIP3    H1 9021   7.187   5.599   2.143  0.9373 -0.6913  1.5124
 3019TIP3    H2 9022   7.179   5.452   2.174 -0.2909 -1.5325 -2.2367
 3020TIP3   OH2 9023   0.451   4.286   1.402  0.1713 -0.1266  0.4151
 3020TIP3    H1 9024   0.377   4.346   1.388  0.4087  0.2447  0.7650
 3020TIP3    H2 9025   0.527   4.342   1.408  0.9386 -0.6188 -2.7102
 3021TIP3   OH2 9026   4.763   1.845   0.795 -0.2342 -0.0956 -0.3592
 3021TIP3    H1 9027   4.854   1.872   0.804 -0.6251  0.6964  1.7012
 3021TIP3    H2 9028   4.740   1.867   0.705  1.4563  0.1677 -0.7515
 3022TIP3   OH2 9029   7.115   3.496   2.229  0.2399  0.2352 -0.0160
 3022TIP3    H1 9030   7.147   3.471   2.315  0.1299  2.2385  0.6584
 3022TIP3    H2 9031   7.160   3.579   2.210 -0.7037  0.4777 -1.3163
 3023TIP3   OH2 9032   2.662   4.510   5.805  0.3445 -0.1279 -0.1023
 3023TIP3    H1 9033   2.665   4.437   5.743  0.2024 -0.9451  0.8320
 3023TIP3    H2 9034   2.677   4.469   5.891 -0.9035  0.7691  0.5692
 3024TIP3   OH2 9035   7.021   3.740   1.817 -0.5842  0.1213 -0.4135
 3024TIP3    H1 9036   6.970   3.708   1.742 -3.0047  0.1114  1.1574
 3024TIP3    H2 9037   7.025   3.665   1.877 -0.2704  0.6930  0.2908
 3025TIP3   OH2 9038   2.113   1.164   4.876  0.5991  0.2126  0.2445
 3025TIP3    H1 9039   2.046   1.104   4.910  1.1846  0.0010  1.0770
 3025TIP3    H2 9040   2.068   1.215   4.809 -0.2260 -0.3574  0.3441
 3026TIP3   OH2 9041   5.975   1.392   1.721 -0.0982  0.3909  0.1159
 3026TIP3    H1 9042   6.067   1.366   1.729 -0.0497  0.9522  2.0022
 3026TIP3    H2 9043   5.928   1.325   1.771 -0.8566 -0.4029 -1.5827
 3027TIP3   OH2 9044   3.857   6.292   0.223 -0.2544 -0.0046  0.2136
 3027TIP3    H1 9045   3.907   6.347   0.284  0.5393 -1.1440  0.6231
 3027TIP3    H2 9046   3.925   6.251   0.168 -0.6646 -2.0238  1.1399
 3028TIP3   OH2 9047   1.561   1.247   0.379 -0.0960  0.0130 -0.0498
 3028TIP3    H1 9048   1.595   1.265   0.467  1.7845  1.6548 -1.0359
 3028TIP3    H2 9049   1.468   1.231   0.392  0.2058 -0.2138  2.2778
 3029TIP3   OH2 9050   7.152   1.327   3.468  0.3956  0.0451 -0.0306
 3029TIP3    H1 9051   7.210   1.328   3.392  1.6034 -0.2228  0.8639
 3029TIP3    H2 9052   7.090   1.398   3.452  0.8202  0.1820 -1.1190
 3030TIP3   OH2 9053   5.831   3.458   1.326 -0.6301  0.4814 -0.1885
 3030TIP3    H1 9054   5.809   3.492   1.239 -0.0418  0.9218 -0.1685
 3030TIP3    H2 9055   5.796   3.369   1.326  1.2858 -0.3603 -1.6907
 3031TIP3   OH2 9056   5.543   6.168   5.669  0.0467  0.2177  0.3751
 3031TIP3    H1 9057   5.488   6.219   5.729  0.5913  0.2536  0.8526
 3031TIP3    H2 9058   5.491   6.160   5.589 -0.4346  0.7028  0.6369
 3032TIP3   OH2 9059   6.596   1.539   3.792  0.7463  0.3728 -0.1802
 3032TIP3    H1 9060   6.676   1.559   3.841 -0.3946 -0.4916  2.2186
 3032TIP3    H2 9061   6.538   1.613   3.808 -0.3548 -0.7803  1.5579
 3033TIP3   OH2 9062   2.803   4.890   5.661 -0.0184 -0.3345 -0.2244
 3033TIP3    H1 9063   2.821   4.984   5.663 -4.5754  0.8334 -2.1046
 3033TIP3    H2 9064   2.776   4.870   5.751  1.3486 -0.0015  0.2858
 3034TIP3   OH2 9065   3.175   1.652   4.829 -0.3116 -0.1599  0.1374
 3034TIP3    H1 9066   3.188   1.741   4.859  2.6986 -0.2428 -0.5921
 3034TIP3    H2 9067   3.121   1.611   4.897 -3.2265  2.5312 -0.3031
 3035TIP3   OH2 9068   0.880   6.267   5.543  0.2712  0.3598 -0.6823
 3035TIP3    H1 9069   0.848   6.357   5.550 -0.0938  0.3379 -1.8921
 3035TIP3    H2 9070   0.901   6.256   5.450 -1.2372 -1.3189 -0.8644
 3036TIP3   OH2 9071   2.955   1.487   1.864  0.0780  0.0227  0.9230
 3036TIP3    H1 9072   2.875   1.455   1.822  0.1629  0.5122  0.3677
 3036TIP3    H2 9073   2.977   1.420   1.927 -0.1365 -0.6782  0.2730
 3037TIP3   OH2 9074   1.759   2.620   2.140  0.7318  0.0394  0.2842
 3037TIP3    H1 9075   1.819   2.591   2.071  1.7263  3.3598 -0.3993
 3037TIP3    H2 9076   1.696   2.677   2.096 -0.5200 -0.1861  1.6820
 3038TIP3   OH2 9077   5.248   3.891   5.147 -0.9322 -0.0552  1.0410
 3038TIP3    H1 9078   5.194   3.965   5.121  0.3599  1.1293  1.5645
 3038TIP3    H2 9079   5.281   3.914   5.234 -0.0929 -1.0018  1.0022
 3039TIP3   OH2 9080   4.188   6.256   3.752 -0.1477 -0.2380 -0.2438
 3039TIP3    H1 9081   4.275   6.216   3.753 -0.2245 -0.3993 -0.0338
 3039TIP3    H2 9082   4.185   6.310   3.831 -1.5360 -3.0167  1.7603
 3040TIP3   OH2 9083   1.963   5.037   5.629 -0.4041 -0.3014  0.4476
 3040TIP3    H1 9084   1.893   4.972   5.624  0.5133 -1.3982  1.2655
 3040TIP3    H2 9085   1.972   5.056   5.722  2.8924 -3.1294  0.9130
 3041TIP3   OH2 9086   0.683   3.879   0.344  0.1133  0.0317  0.2997
 3041TIP3    H1 9087   0.755   3.866   0.283  0.1902 -2.6060  0.8326
 3041TIP3    H2 9088   0.712   3.950   0.402  1.7306 -0.1189 -0.2806
 3042TIP3   OH2 9089   4.714   2.905   4.928  0.2259  1.0538 -0.4764
 3042TIP3    H1 9090   4.688   2.816   4.902  1.3359  0.0480  1.5495
 3042TIP3    H2 9091   4.697   2.907   5.022  0.0228  3.0971 -0.5202
 3043TIP3   OH2 9092   1.647   4.244   4.443 -0.3860 -0.8322 -0.3551
 3043TIP3    H1 9093   1.684   4.157   4.458 -0.3689 -0.6227  0.9786
 3043TIP3    H2 9094   1.710   4.287   4.386  0.6287 -1.0378  0.5683
 3044TIP3   OH2 9095   2.189   3.626   2.646  0.1160  0.0332 -0.1125
 3044TIP3    H1 9096   2.126   3.659   2.710 -1.7707 -1.8165 -0.9169
 3044TIP3    H2 9097   2.234   3.705   2.614 -1.4040  1.3644  0.8871
 3045TIP3   OH2 9098   3.614   3.177   2.473  0.3235 -0.1002  0.8550
 3045TIP3    H1 9099   3.584   3.213   2.390 -2.3966 -1.6660  1.0471
 3045TIP3    H2 9100   3.708   3.163   2.461  0.0127 -0.2128 -1.9345
 3046TIP3   OH2 9101   2.851   0.773   1.286 -0.0974 -0.0809 -0.3908
 3046TIP3    H1 9102   2.937   0.813   1.270 -0.2061  0.3237  0.0118
 3046TIP3    H2 9103   2.799   0.843   1.326 -0.2905 -0.6153  0.3272
 3047TIP3   OH2 9104   2.384   2.651   3.755  0.4144  0.6801  0.0145
 3047TIP3    H1 9105   2.349   2.635   3.842  0.2811  2.2138  0.2593
 3047TIP3    H2 9106   2.421   2.566   3.729 -0.5025 -0.0850  1.0969
 3048TIP3   OH2 9107   1.079   2.784   5.534 -0.7596 -0.3300  0.1398
 3048TIP3    H1 9108   1.151   2.847   5.530  0.1057 -1.2804  0.3325
 3048TIP3    H2 9109   1.040   2.797   5.620  0.2231 -0.9065  0.6863
 3049TIP3   OH2 9110   2.658   3.764   3.158  0.2182 -0.0675  0.1553
 3049TIP3    H1 9111   2.741   3.729   3.127  1.2216  2.1161  0.2029
 3049TIP3    H2 9112   2.605   3.686   3.176  1.8707 -1.5042 -0.8195
 3050TIP3   OH2 9113   6.302   1.342   2.810 -0.4815 -0.4167  0.4762
 3050TIP3    H1 9114   6.295   1.354   2.905 -0.3823 -0.2822  0.4668
 3050TIP3    H2 9115   6.376   1.397   2.784 -0.2247 -0.8031  0.3823
 3051TIP3   OH2 9116   1.181   4.026   4.827  0.1437 -0.0264 -0.0639
 3051TIP3    H1 9117   1.206   3.935   4.810 -0.9670 -0.4573  0.4829
 3051TIP3    H2 9118   1.085   4.024   4.831  0.1150  1.1271  0.2140
 3052TIP3   OH2 9119   4.979   3.747   5.248  0.0629  0.4630 -0.3289
 3052TIP3    H1 9120   5.018   3.833   5.264  1.4144 -0.0680 -0.5865
 3052TIP3    H2 9121   4.979   3.704   5.334  0.2194  0.4064 -0.3558
 3053TIP3   OH2 9122   0.481   6.083   4.901 -0.1764 -0.4131 -0.4793
 3053TIP3    H1 9123   0.557   6.140   4.909 -0.8769  0.4298  0.2957
 3053TIP3    H2 9124   0.406   6.141   4.914 -0.9311 -1.3487 -0.5816
 3054TIP3   OH2 9125   0.701   0.921   3.355 -0.1553  0.0681 -0.3744
 3054TIP3    H1 9126   0.746   0.837   3.358  1.9079  1.1066 -0.1110
 3054TIP3    H2 9127   0.666   0.933   3.443  2.6835  1.0110  0.7297
 3055TIP3   OH2 9128   0.316   5.956   4.483 -0.0759 -0.3483  0.2888
 3055TIP3    H1 9129   0.371   6.013   4.428 -0.6346  0.4100  0.4904
 3055TIP3    H2 9130   0.319   5.871   4.440  2.5930 -0.7935  1.1846
 3056TIP3   OH2 9131   6.803   0.320   2.136  0.1347 -0.3769  0.7007
 3056TIP3    H1 9132   6.853   0.256   2.186 -1.1400 -1.6026  0.4695
 3056TIP3    H2 9133   6.731   0.345   2.194 -0.3518 -0.4667  0.1433
 3057TIP3   OH2 9134   6.988   6.430   1.065  0.3527  0.0246  0.4190
 3057TIP3    H1 9135   6.916   6.388   1.112  1.1901  0.0188  1.7517
 3057TIP3    H2 9136   7.029   6.358   1.017 -0.1097 -0.0973  0.1937
 3058TIP3   OH2 9137   6.601   4.295   2.591  0.0510  0.2963  0.5146
 3058TIP3    H1 9138   6.514   4.323   2.564  0.3210 -0.3205 -1.1798
 3058TIP3    H2 9139   6.604   4.202   2.568  1.3737  0.4738 -0.1344
 3059TIP3   OH2 9140   1.770   3.652   3.279  0.4446 -0.0541  0.1342
 3059TIP3    H1 9141   1.834   3.634   3.210 -0.3971  1.8282 -1.2323
 3059TIP3    H2 9142   1.685   3.651   3.234 -0.2020  0.5591  1.2807
 3060TIP3   OH2 9143   0.511   0.410   5.071 -0.3781 -0.3564  0.0639
 3060TIP3    H1 9144   0.543   0.331   5.113  1.2763 -0.3634 -1.1290
 3060TIP3    H2 9145   0.541   0.403   4.980 -0.4356  1.5000 -0.1407
 3061TIP3   OH2 9146   2.959   2.117   5.185  0.3900 -0.7273  0.3050
 3061TIP3    H1 9147   3.038   2.156   5.148  0.3506 -1.6881 -0.8670
 3061TIP3    H2 9148   2.989   2.071   5.263  1.0955 -1.4485 -0.3662
 3062TIP3   OH2 9149   6.671   2.049   2.758 -0.0025  0.6450  0.6443
 3062TIP3    H1 9150   6.732   1.976   2.751 -0.7575 -0.0393  1.0997
 3062TIP3    H2 9151   6.684   2.099   2.677  0.2896 -0.1687  0.1779
 3063TIP3   OH2 9152   7.083   0.038   1.390 -0.1773  0.6964 -0.0948
 3063TIP3    H1 9153   7.063   0.124   1.353  0.0087  1.2127  0.9575
 3063TIP3    H2 9154   7.021   0.029   1.463  0.2114  0.2112  0.1823
 3064TIP3   OH2 9155   1.452   2.498   0.600 -0.0793  0.0693 -0.5497
 3064TIP3    H1 9156   1.428   2.427   0.541 -1.8692  1.0628 -1.0780
 3064TIP3    H2 9157   1.507   2.555   0.547  0.3584 -0.2843 -0.4865
 3065TIP3   OH2 9158   1.367   4.300   5.508 -0.6983 -0.1770  0.5784
 3065TIP3    H1 9159   1.314   4.378   5.525  0.5982  0.6162  1.0961
 3065TIP3    H2 9160   1.335   4.268   5.423 -0.7183  1.3775 -0.0278
 3066TIP3   OH2 9161   5.148   1.622   0.375  0.0754  0.6680  0.3851
 3066TIP3    H1 9162   5.174   1.595   0.287  0.0947  3.7332 -0.6843
 3066TIP3    H2 9163   5.228   1.615   0.426  0.8177  1.5719 -0.6087
 3067TIP3   OH2 9164   6.848   0.266   5.239 -0.1588  0.2849 -0.0258
 3067TIP3    H1 9165   6.837   0.328   5.312 -0.0774  0.8563 -0.4913
 3067TIP3    H2 9166   6.834   0.319   5.161 -0.0464 -0.2825 -0.4323
 3068TIP3   OH2 9167   5.589   0.496   1.273 -0.1633 -0.3417 -0.2398
 3068TIP3    H1 9168   5.661   0.551   1.304  1.0598 -1.7866 -0.3530
 3068TIP3    H2 9169   5.511   0.531   1.315  0.4376  1.8886 -0.8806
 3069TIP3   OH2 9170   3.592   0.788   1.298 -0.1304  0.2414 -0.3912
 3069TIP3    H1 9171   3.592   0.702   1.339  0.4150  1.5973  2.7009
 3069TIP3    H2 9172   3.685   0.811   1.291 -0.2581  0.4583 -1.5362
 3070TIP3   OH2 9173   6.135   5.238   4.226 -0.7957 -0.3251 -0.2838
 3070TIP3    H1 9174   6.200   5.257   4.294 -0.8084 -0.7709 -0.1418
 3070TIP3    H2 9175   6.130   5.142   4.224 -1.0748 -0.3058 -0.6506
 3071TIP3   OH2 9176   5.611   2.217   5.431 -0.2854 -0.5695 -0.0266
 3071TIP3    H1 9177   5.627   2.151   5.365  2.3198  1.2653 -1.3853
 3071TIP3    H2 9178   5.540   2.271   5.395 -0.3522 -0.8477 -0.3071
 3072TIP3   OH2 9179   4.668   3.360   1.847  0.1573 -0.6216 -0.2352
 3072TIP3    H1 9180   4.682   3.310   1.766  0.0520 -1.3727  0.1950
 3072TIP3    H2 9181   4.695   3.449   1.825  1.1348 -1.0286 -0.7973
 3073TIP3   OH2 9182   0.810   2.527   1.670 -0.2911 -0.5261 -0.0040
 3073TIP3    H1 9183   0.734   2.525   1.728 -1.0477 -2.7535 -0.9752
 3073TIP3    H2 9184   0.862   2.451   1.696 -0.3094 -1.1821 -1.7690
 3074TIP3   OH2 9185   6.491   1.826   3.207  0.2826 -0.3203 -0.5399
 3074TIP3    H1 9186   6.487   1.823   3.112  1.9770 -2.8284 -0.6245
 3074TIP3    H2 9187   6.552   1.897   3.226  0.2925 -0.1080 -1.3445
 3075TIP3   OH2 9188   1.685   0.809   1.488  0.3863  0.7880 -0.6330
 3075TIP3    H1 9189   1.714   0.790   1.577 -0.8909 -0.3168 -0.4135
 3075TIP3    H2 9190   1.736   0.886   1.462  2.8853 -0.5371 -0.0174
 3076TIP3   OH2 9191   0.347   3.935   4.137  0.1608  0.6812  1.4763
 3076TIP3    H1 9192   0.274   3.916   4.195  0.1331 -1.9673  0.7297
 3076TIP3    H2 9193   0.307   3.979   4.062 -0.7929 -1.0248  0.9271
 3077TIP3   OH2 9194   2.283   3.714   5.196 -0.4200 -0.3648  0.6583
 3077TIP3    H1 9195   2.257   3.716   5.288 -1.0455 -1.3297  0.5134
 3077TIP3    H2 9196   2.313   3.624   5.181  1.4740  0.2662  0.3863
 3078TIP3   OH2 9197   0.205   6.536   4.714  0.1747 -0.6236  0.0969
 3078TIP3    H1 9198   0.192   6.446   4.685 -0.8459 -1.0350  1.6977
 3078TIP3    H2 9199   0.135   6.586   4.670  1.3217 -0.3897 -1.5466
 3079TIP3   OH2 9200   4.666   5.722   3.841  0.2660 -0.0633  0.1292
 3079TIP3    H1 9201   4.591   5.672   3.807  0.3871  0.3811 -0.8113
 3079TIP3    H2 9202   4.722   5.656   3.881 -0.2473 -0.5055  0.1299
 3080TIP3   OH2 9203   2.538   2.865   3.801 -0.2496  0.2009  0.6371
 3080TIP3    H1 9204   2.514   2.871   3.893 -1.2889  0.7404  0.3465
 3080TIP3    H2 9205   2.499   2.782   3.772 -0.2633  0.2237  0.5902
 3081TIP3   OH2 9206   5.042   2.675   2.460  0.5366  0.1062  0.1883
 3081TIP3    H1 9207   4.951   2.653   2.475  0.5372  0.1611  0.2691
 3081TIP3    H2 9208   5.048   2.690   2.365  0.7168 -1.0727  0.0016
 3082TIP3   OH2 9209   5.661   2.467   3.998  0.0120 -0.2040 -0.2415
 3082TIP3    H1 9210   5.652   2.512   4.082 -2.1356 -2.0006  0.5915
 3082TIP3    H2 9211   5.734   2.407   4.011 -0.3874 -0.5613  0.4115
 3083TIP3   OH2 9212   4.462   0.930   4.700  0.9000 -0.0835 -0.0952
 3083TIP3    H1 9213   4.435   0.953   4.610  0.5630  2.9289  0.6706
 3083TIP3    H2 9214   4.468   1.014   4.745  1.7960 -1.4664  2.5445
 3084TIP3   OH2 9215   3.637   2.859   2.135  0.0618  0.0580  0.1496
 3084TIP3    H1 9216   3.691   2.862   2.214 -1.3816 -0.6350  1.1959
 3084TIP3    H2 9217   3.574   2.789   2.151 -1.4224  1.1008 -0.8385
 3085TIP3   OH2 9218   0.446   0.989   1.621 -0.4292  0.6024  0.6359
 3085TIP3    H1 9219   0.413   1.042   1.693 -1.5398  1.0930 -0.2191
 3085TIP3    H2 9220   0.455   0.901   1.658  0.6959  1.1867  1.8440
 3086TIP3   OH2 9221   2.361   1.387   1.861 -0.1420  0.5695 -0.3339
 3086TIP3    H1 9222   2.377   1.471   1.816  1.3295 -0.2657 -1.4819
 3086TIP3    H2 9223   2.268   1.371   1.848 -0.8430  2.7592  1.3016
 3087TIP3   OH2 9224   3.666   3.868   4.292  0.4029 -0.1985 -0.0080
 3087TIP3    H1 9225   3.741   3.875   4.233  0.5125 -0.6568  0.0774
 3087TIP3    H2 9226   3.699   3.819   4.367 -0.2475 -1.2572 -0.3998
 3088TIP3   OH2 9227   6.712   6.697   5.397  0.0155  0.3752  0.2824
 3088TIP3    H1 9228   6.712   6.784   5.437 -0.3715  0.5729 -0.1264
 3088TIP3    H2 9229   6.619   6.676   5.385 -0.0003 -1.1181  2.5056
 3089TIP3   OH2 9230   5.686   2.892   1.916  0.3396 -0.4821  0.3548
 3089TIP3    H1 9231   5.746   2.945   1.863  3.5972 -2.8134  1.3551
 3089TIP3    H2 9232   5.654   2.825   1.856  1.7264 -1.3840  0.5620
 3090TIP3   OH2 9233   4.128   4.611   2.117 -0.2945 -0.1522 -0.5914
 3090TIP3    H1 9234   4.189   4.607   2.191 -2.1182 -1.1559  0.9357
 3090TIP3    H2 9235   4.084   4.526   2.118 -1.1714  0.2444 -2.1577
 3091TIP3   OH2 9236   2.287   5.369   4.478 -0.0377  0.2626  0.5633
 3091TIP3    H1 9237   2.281   5.424   4.399  1.0983  0.6744  0.7463
 3091TIP3    H2 9238   2.218   5.304   4.467 -0.5030  0.8820 -0.3295
 3092TIP3   OH2 9239   5.112   2.420   5.380  0.1209  0.1293 -0.1437
 3092TIP3    H1 9240   5.133   2.504   5.339 -1.8910  1.7250  1.8690
 3092TIP3    H2 9241   5.150   2.426   5.468  1.1503 -1.6700 -0.4330
 3093TIP3   OH2 9242   5.651   6.685   4.437  0.0259 -0.1782 -0.2226
 3093TIP3    H1 9243   5.679   6.650   4.522 -0.5347 -0.0910  0.0028
 3093TIP3    H2 9244   5.561   6.654   4.426 -0.0342  0.1229 -0.6126
 3094TIP3   OH2 9245   4.709   2.887   1.409 -0.1423  0.6142  0.3395
 3094TIP3    H1 9246   4.689   2.804   1.452  2.0139  0.0338  0.3327
 3094TIP3    H2 9247   4.753   2.939   1.476 -0.5417  1.3594  0.0402
 3095TIP3   OH2 9248   3.440   3.279   2.249 -0.3589  0.2966  0.0671
 3095TIP3    H1 9249   3.410   3.192   2.222 -1.1603  1.3552 -2.8581
 3095TIP3    H2 9250   3.359   3.327   2.267 -0.0107  0.8928  0.0381
 3096TIP3   OH2 9251   5.102   0.227   5.090 -0.6082  0.4541  0.5809
 3096TIP3    H1 9252   5.094   0.253   4.998  0.3081 -0.1258  0.3139
 3096TIP3    H2 9253   5.013   0.209   5.118 -0.7434 -1.3830 -0.8268
 3097TIP3   OH2 9254   2.607   0.910   0.279 -0.4827  0.2621 -0.4150
 3097TIP3    H1 9255   2.546   0.957   0.336  1.0013 -0.5628  1.9910
 3097TIP3    H2 9256   2.687   0.962   0.280  0.1390 -0.6633 -0.2973
 3098TIP3   OH2 9257   3.420   2.010   4.573 -0.3186  0.4360 -0.2058
 3098TIP3    H1 9258   3.483   1.941   4.596 -0.1510  1.2368  1.9546
 3098TIP3    H2 9259   3.425   2.015   4.478  1.4836 -0.8407 -0.2470
 3099TIP3   OH2 9260   5.902   6.306   2.471 -0.1768 -0.6171 -0.4697
 3099TIP3    H1 9261   5.995   6.329   2.477  0.0012 -1.7161  2.3888
 3099TIP3    H2 9262   5.857   6.379   2.514 -0.3932 -1.3035  0.4759
 3100TIP3   OH2 9263   7.234   2.595   4.297  0.1953 -0.3956  0.3933
 3100TIP3    H1 9264   7.183   2.628   4.370  1.0777  3.0317 -0.3667
 3100TIP3    H2 9265   7.182   2.615   4.219  0.1094 -2.2813 -0.0857
 3101TIP3   OH2 9266   2.799   1.673   2.929  0.5214 -0.2355 -0.1304
 3101TIP3    H1 9267   2.868   1.729   2.892 -0.0486 -0.1050 -1.0134
 3101TIP3    H2 9268   2.847   1.603   2.973  1.2216 -0.5037 -1.2787
 3102TIP3   OH2 9269   1.651   6.071   2.679  0.0985  0.3714 -0.3847
 3102TIP3    H1 9270   1.655   6.047   2.771  1.2067 -1.0218 -0.7544
 3102TIP3    H2 9271   1.563   6.107   2.667 -0.2846 -0.0163  1.0652
 3103TIP3   OH2 9272   5.776   1.051   3.596 -0.6372  0.2339 -0.2629
 3103TIP3    H1 9273   5.844   1.002   3.641  0.4286  1.3735 -0.5650
 3103TIP3    H2 9274   5.747   1.116   3.661  0.3584  1.3726 -0.9076
 3104TIP3   OH2 9275   3.380   1.699   0.856 -0.2689 -0.7198 -0.1909
 3104TIP3    H1 9276   3.471   1.695   0.883 -0.8046 -2.6271  1.5059
 3104TIP3    H2 9277   3.368   1.789   0.826  2.0440 -0.3307 -0.1063
 3105TIP3   OH2 9278   5.403   0.895   0.290  0.2920 -0.5396 -0.1820
 3105TIP3    H1 9279   5.472   0.830   0.278 -0.3989 -1.4555  0.5874
 3105TIP3    H2 9280   5.386   0.894   0.385  0.6692  1.2002 -0.0770
 3106TIP3   OH2 9281   3.232   4.479   2.296  0.2174  0.1817 -0.9975
 3106TIP3    H1 9282   3.178   4.509   2.222 -1.1274  0.0141 -0.1286
 3106TIP3    H2 9283   3.212   4.386   2.303 -1.0301  0.5303  0.6274
 3107TIP3   OH2 9284   2.870   4.879   2.000  0.5401 -0.6952 -0.0572
 3107TIP3    H1 9285   2.922   4.956   1.978  1.7410 -1.8303 -1.4628
 3107TIP3    H2 9286   2.905   4.848   2.083 -1.1083  1.1900  1.4244
 3108TIP3   OH2 9287   0.978   5.908   1.410  0.0775  0.0352  0.8494
 3108TIP3    H1 9288   0.952   5.845   1.342  1.6184  1.3457 -1.0504
 3108TIP3    H2 9289   0.908   5.973   1.409 -0.3494 -0.4061  1.1755
 3109TIP3   OH2 9290   4.805   5.466   4.968 -0.0236  0.7048  0.2493
 3109TIP3    H1 9291   4.880   5.506   5.012 -0.5354  2.1269 -0.1003
 3109TIP3    H2 9292   4.738   5.460   5.036 -0.4698  1.9491 -0.0504
 3110TIP3   OH2 9293   2.479   4.753   2.283  0.3200  0.1509 -0.0073
 3110TIP3    H1 9294   2.537   4.826   2.304  0.5848  0.1548 -0.7221
 3110TIP3    H2 9295   2.443   4.776   2.197 -1.6350  0.7176  0.9039
 3111TIP3   OH2 9296   4.283   0.856   5.267  0.0465  0.4531  0.2547
 3111TIP3    H1 9297   4.371   0.884   5.291  0.1020  0.0228  0.5706
 3111TIP3    H2 9298   4.286   0.842   5.173  0.0823  1.2594  0.1311
 3112TIP3   OH2 9299   6.278   6.150   3.184 -0.8133  0.0410  0.3452
 3112TIP3    H1 9300   6.346   6.181   3.124 -0.7744  0.6491  0.6995
 3112TIP3    H2 9301   6.253   6.065   3.149 -2.0257  1.1104 -1.5686
 3113TIP3   OH2 9302   2.171   6.005   0.155 -0.3466 -0.2077  0.1461
 3113TIP3    H1 9303   2.197   6.075   0.215 -0.5165  0.4676 -0.5454
 3113TIP3    H2 9304   2.252   5.959   0.134 -0.2762 -0.4099  0.8355
 3114TIP3   OH2 9305   1.637   3.279   3.221  0.6472 -0.1835  0.5333
 3114TIP3    H1 9306   1.657   3.306   3.310  0.1930  2.1543 -0.0148
 3114TIP3    H2 9307   1.583   3.350   3.185  2.0174 -0.3046 -2.0579
 3115TIP3   OH2 9308   6.098   3.304   0.307 -0.2014  0.3700  0.0620
 3115TIP3    H1 9309   6.160   3.378   0.311 -0.6024  0.7220 -0.1402
 3115TIP3    H2 9310   6.047   3.311   0.387  0.6231 -0.4706  0.6855
 3116TIP3   OH2 9311   2.724   0.405   2.440  0.3319  0.2967  0.3573
 3116TIP3    H1 9312   2.789   0.338   2.421  0.0249 -0.1572  0.8857
 3116TIP3    H2 9313   2.682   0.376   2.521  0.2161  1.1382  0.6110
 3117TIP3   OH2 9314   0.084   3.197   1.313 -0.0401 -0.3040 -0.9448
 3117TIP3    H1 9315   0.155   3.235   1.366 -0.9868 -1.9885  1.7626
 3117TIP3    H2 9316   0.005   3.236   1.349 -0.7605 -1.9359 -0.6819
 3118TIP3   OH2 9317   4.975   2.974   0.552  0.3868  0.4781  0.6659
 3118TIP3    H1 9318   4.888   3.009   0.534  0.2686  0.6354  1.4989
 3118TIP3    H2 9319   5.003   2.935   0.469 -0.5940  0.1650  0.4671
 3119TIP3   OH2 9320   1.628   5.966   3.369 -0.9735 -1.0442 -0.3621
 3119TIP3    H1 9321   1.666   6.049   3.341  2.0032 -1.6160  1.4873
 3119TIP3    H2 9322   1.559   5.991   3.431 -0.4887  0.0730 -0.2500
 3120TIP3   OH2 9323   1.382   3.033   0.529 -0.2314  0.4263  0.2474
 3120TIP3    H1 9324   1.322   3.061   0.598  0.5228 -0.4133  1.2841
 3120TIP3    H2 9325   1.468   3.062   0.560  0.1963 -0.5346 -0.0142
 3121TIP3   OH2 9326   4.701   6.710   5.257  0.3904 -0.2584 -0.5142
 3121TIP3    H1 9327   4.732   6.801   5.256 -1.4161  0.4853  2.0807
 3121TIP3    H2 9328   4.646   6.703   5.179 -0.3398  1.2296 -0.1686
 3122TIP3   OH2 9329   1.039   6.565   4.968  0.2343 -0.1513 -0.3464
 3122TIP3    H1 9330   1.077   6.652   4.973  0.2671 -0.2446  2.5667
 3122TIP3    H2 9331   0.959   6.576   4.917  1.3662  1.0784 -1.9550
 3123TIP3   OH2 9332   1.694   4.308   2.982  0.3840 -1.0377 -0.2020
 3123TIP3    H1 9333   1.789   4.301   2.993  0.8397  0.9942 -2.1344
 3123TIP3    H2 9334   1.658   4.294   3.070  2.3049 -3.4382  0.3196
 3124TIP3   OH2 9335   1.371   1.851   1.160 -0.6286 -0.0270 -0.3455
 3124TIP3    H1 9336   1.424   1.840   1.081 -0.3754  1.1237 -0.3475
 3124TIP3    H2 9337   1.281   1.856   1.127 -0.4799  0.9520 -0.6109
 3125TIP3   OH2 9338   2.687   4.698   5.510  0.2865 -0.1846  0.5340
 3125TIP3    H1 9339   2.598   4.716   5.540  0.3171 -0.0646  0.5527
 3125TIP3    H2 9340   2.743   4.745   5.571  0.4035 -1.0157  1.0798
 3126TIP3   OH2 9341   0.308   4.203   5.437 -0.1955 -0.0038 -0.2286
 3126TIP3    H1 9342   0.326   4.297   5.447 -2.2977  0.4537 -0.3075
 3126TIP3    H2 9343   0.238   4.199   5.372 -1.8684 -1.4296  1.5262
 3127TIP3   OH2 9344   0.036   4.980   0.487 -0.3213  0.4161  0.1953
 3127TIP3    H1 9345   0.005   4.917   0.552  0.5591 -0.2480 -0.0232
 3127TIP3    H2 9346   0.016   4.940   0.402  0.6720  0.2165  0.0551
 3128TIP3   OH2 9347   5.415   3.783   3.659 -0.3858 -0.1161  0.6455
 3128TIP3    H1 9348   5.443   3.839   3.586  1.9052 -0.5981  1.0619
 3128TIP3    H2 9349   5.361   3.716   3.618  1.8366 -1.1138 -0.9131
 3129TIP3   OH2 9350   2.107   5.501   3.833 -0.1772 -0.7055  0.5835
 3129TIP3    H1 9351   2.203   5.497   3.839 -0.2351 -0.2536  2.4660
 3129TIP3    H2 9352   2.085   5.438   3.764  1.4749 -0.6780 -0.0194
 3130TIP3   OH2 9353   5.031   0.251   3.550 -0.2176  0.1524 -0.1315
 3130TIP3    H1 9354   4.940   0.227   3.530 -0.0824  1.2401 -2.3808
 3130TIP3    H2 9355   5.043   0.336   3.508  1.7179  0.2574  0.5325
 3131TIP3   OH2 9356   3.753   5.499   4.392 -0.3159 -1.2383 -0.7748
 3131TIP3    H1 9357   3.812   5.431   4.423  1.0655  0.1939 -0.0888
 3131TIP3    H2 9358   3.722   5.542   4.471 -0.0910 -0.2436 -1.2021
 3132TIP3   OH2 9359   1.633   0.321   0.520 -0.0563 -0.0151 -0.7490
 3132TIP3    H1 9360   1.629   0.252   0.454 -1.0038  0.3770 -1.1282
 3132TIP3    H2 9361   1.654   0.275   0.601 -2.9722 -1.1689 -0.5101
 3133TIP3   OH2 9362   2.202   0.873   2.713  0.1481 -0.4247 -0.0434
 3133TIP3    H1 9363   2.139   0.859   2.783 -2.1875  1.7506 -1.5363
 3133TIP3    H2 9364   2.248   0.953   2.738  2.6982 -2.1206  1.1584
 3134TIP3   OH2 9365   7.109   5.318   3.092 -0.1278  0.1763 -0.6653
 3134TIP3    H1 9366   7.160   5.252   3.045 -1.4270 -0.3414 -1.3666
 3134TIP3    H2 9367   7.036   5.339   3.035 -1.4368 -0.0293  0.8549
 3135TIP3   OH2 9368   6.283   6.752   4.728 -0.1741  0.2696  0.4206
 3135TIP3    H1 9369   6.265   6.661   4.706  0.3060  0.1630  0.4406
 3135TIP3    H2 9370   6.339   6.747   4.806  1.0349  0.5157 -0.3920
 3136TIP3   OH2 9371   3.502   2.229   4.957 -0.8097  0.4297  0.4410
 3136TIP3    H1 9372   3.541   2.234   4.870  1.2029 -2.5985  1.0399
 3136TIP3    H2 9373   3.564   2.275   5.014  0.1046 -1.2371  0.8451
 3137TIP3   OH2 9374   2.037   5.571   4.088 -0.5323  0.2318  0.0550
 3137TIP3    H1 9375   2.026   5.665   4.076  1.7428  0.6651  0.8000
 3137TIP3    H2 9376   2.033   5.534   4.000 -2.3522  0.8678 -0.1668
 3138TIP3   OH2 9377   3.385   1.801   4.073 -0.4194  0.0282  0.5133
 3138TIP3    H1 9378   3.358   1.808   3.982  1.4333  1.9641  0.0487
 3138TIP3    H2 9379   3.337   1.871   4.118  1.1856  1.3229  0.3085
 3139TIP3   OH2 9380   1.027   1.545   0.266 -0.2015  0.6992 -0.0049
 3139TIP3    H1 9381   0.943   1.592   0.274  0.4743  1.9058  0.2144
 3139TIP3    H2 9382   1.089   1.599   0.314  0.5701 -0.5801  0.4633
 3140TIP3   OH2 9383   5.129   1.335   1.023  1.0284  0.4528 -0.0106
 3140TIP3    H1 9384   5.151   1.266   1.085 -0.9510 -0.9176 -0.6963
 3140TIP3    H2 9385   5.132   1.292   0.937 -0.8779  0.9684 -0.3976
 3141TIP3   OH2 9386   0.135   4.711   1.428 -0.2132  0.2782 -0.3925
 3141TIP3    H1 9387   0.217   4.754   1.451 -1.3761  2.0252  0.7303
 3141TIP3    H2 9388   0.137   4.707   1.332  0.2413  2.3206 -0.5186
 3142TIP3   OH2 9389   6.068   3.451   3.628  0.3513 -0.0683 -0.1474
 3142TIP3    H1 9390   6.139   3.406   3.675 -0.0899  0.6546  1.2752
 3142TIP3    H2 9391   6.051   3.529   3.680  0.7856  1.5584 -2.3094
 3143TIP3   OH2 9392   7.129   2.894   5.452  0.8360  0.0552 -0.3346
 3143TIP3    H1 9393   7.085   2.809   5.449 -0.1061  0.5529 -0.9185
 3143TIP3    H2 9394   7.088   2.945   5.384 -0.8573  2.0555  2.0079
 3144TIP3   OH2 9395   2.105   0.660   1.198  0.3142  0.1964  0.2367
 3144TIP3    H1 9396   2.047   0.679   1.272  0.2188  0.1390  0.1761
 3144TIP3    H2 9397   2.191   0.690   1.227  0.2026  0.5373  0.2192
 3145TIP3   OH2 9398   3.715   3.127   1.160 -0.8768 -0.6001 -0.0903
 3145TIP3    H1 9399   3.650   3.185   1.199 -0.2331 -0.4630  0.8261
 3145TIP3    H2 9400   3.764   3.184   1.100 -0.8993 -0.4421  0.0401
 3146TIP3   OH2 9401   5.093   0.340   1.287 -0.2032  0.0050  0.6056
 3146TIP3    H1 9402   5.101   0.245   1.274 -2.7406 -0.0784 -1.1002
 3146TIP3    H2 9403   5.096   0.352   1.382  0.1656 -1.7829  0.8559
 3147TIP3   OH2 9404   2.142   5.388   5.607 -0.8794  0.2222  0.2980
 3147TIP3    H1 9405   2.123   5.453   5.540  0.5958 -0.1405 -0.5238
 3147TIP3    H2 9406   2.063   5.386   5.662 -1.6681  1.3540 -0.7361
 3148TIP3   OH2 9407   6.676   6.640   2.655  0.0067 -0.2405 -0.0666
 3148TIP3    H1 9408   6.596   6.687   2.678  0.7831  1.2344 -0.2327
 3148TIP3    H2 9409   6.698   6.590   2.733 -0.0840  0.8101  0.6567
 3149TIP3   OH2 9410   6.259   4.038   2.054  0.0361  0.0288 -0.1277
 3149TIP3    H1 9411   6.207   4.113   2.026 -1.1738 -0.8704 -0.3466
 3149TIP3    H2 9412   6.256   4.041   2.150 -1.4860 -0.7099 -0.1257
 3150TIP3   OH2 9413   7.014   5.812   0.332  0.5599 -0.0742 -0.2934
 3150TIP3    H1 9414   6.939   5.766   0.369 -0.1785 -0.3399 -2.0064
 3150TIP3    H2 9415   7.070   5.833   0.407 -1.5832  0.8320  1.1304
 3151TIP3   OH2 9416   0.081   2.387   0.667  0.5992  0.0156  0.5656
 3151TIP3    H1 9417   0.112   2.330   0.738  0.7977 -0.3090  0.2268
 3151TIP3    H2 9418   0.056   2.326   0.597 -0.8408  0.2561  0.8272
 3152TIP3   OH2 9419   3.956   0.078   5.505  0.4252 -0.1957  0.0696
 3152TIP3    H1 9420   4.040   0.080   5.551  1.1777  0.6120 -1.2669
 3152TIP3    H2 9421   3.978   0.098   5.414 -1.0339 -1.5868 -0.6325
 3153TIP3   OH2 9422   6.314   2.633   4.248 -0.3745 -0.2403 -0.0886
 3153TIP3    H1 9423   6.225   2.606   4.227  0.3003 -1.9536 -0.9173
 3153TIP3    H2 9424   6.358   2.552   4.274  1.3092  0.3111 -1.0774
 3154TIP3   OH2 9425   2.684   1.550   4.039  0.3263 -0.8099  0.2520
 3154TIP3    H1 9426   2.606   1.605   4.047 -0.8711 -2.1732 -1.3410
 3154TIP3    H2 9427   2.725   1.554   4.125 -1.6858 -0.3006  1.2475
 3155TIP3   OH2 9428   5.433   1.471   3.521  0.2776  0.3658 -0.3012
 3155TIP3    H1 9429   5.451   1.561   3.495  1.3510  0.6865  1.3432
 3155TIP3    H2 9430   5.519   1.437   3.548 -0.4098 -0.5201  0.8620
 3156TIP3   OH2 9431   1.365   2.199   1.613 -0.2732  0.1266  0.0700
 3156TIP3    H1 9432   1.272   2.180   1.605 -0.6251  0.3921  2.6609
 3156TIP3    H2 9433   1.406   2.114   1.631  0.0003  0.0252 -0.9618
 3157TIP3   OH2 9434   4.781   4.712   3.317 -0.1545 -0.4269 -0.2829
 3157TIP3    H1 9435   4.855   4.668   3.359  0.1791 -1.1115 -1.5442
 3157TIP3    H2 9436   4.821   4.787   3.272 -0.5553  0.5049  0.8385
 3158TIP3   OH2 9437   6.997   1.946   0.121  0.4382  0.5786 -0.0351
 3158TIP3    H1 9438   7.018   2.029   0.077 -0.2963  0.9166  0.2354
 3158TIP3    H2 9439   6.904   1.952   0.141  0.9110  0.8637  2.4349
 3159TIP3   OH2 9440   6.158   0.859   2.629 -0.3127  0.0435 -0.0959
 3159TIP3    H1 9441   6.182   0.767   2.615 -0.7264 -0.0274 -0.3544
 3159TIP3    H2 9442   6.146   0.868   2.723  2.3438  0.4746  0.2850
 3160TIP3   OH2 9443   5.655   4.568   0.296  0.4214  0.1937  0.1912
 3160TIP3    H1 9444   5.682   4.645   0.346 -1.2189  0.2778  1.0235
 3160TIP3    H2 9445   5.733   4.542   0.248  1.3403  1.6616  0.8169
 3161TIP3   OH2 9446   2.574   2.781   1.012 -0.5800  0.7037  0.3443
 3161TIP3    H1 9447   2.607   2.775   1.102 -1.5203  1.1877  0.7284
 3161TIP3    H2 9448   2.647   2.750   0.958  0.2759  1.1444  1.2166
 3162TIP3   OH2 9449   2.447   4.727   5.647 -0.5234  0.3918 -0.0906
 3162TIP3    H1 9450   2.436   4.799   5.709  0.0470 -0.2718  0.8169
 3162TIP3    H2 9451   2.406   4.652   5.690  1.3701 -0.4840  0.2848
 3163TIP3   OH2 9452   4.607   5.665   3.098  0.0034 -0.0279 -0.0618
 3163TIP3    H1 9453   4.620   5.681   3.005  1.8525 -0.6866  0.0486
 3163TIP3    H2 9454   4.669   5.724   3.142  0.0614 -0.6433  0.7029
 3164TIP3   OH2 9455   0.472   4.470   3.219 -0.1994  0.4718 -0.6658
 3164TIP3    H1 9456   0.498   4.441   3.307 -2.2408  0.5473  0.0224
 3164TIP3    H2 9457   0.555   4.487   3.174  1.1508 -4.4348 -0.5281
 3165TIP3   OH2 9458   6.724   1.384   0.932 -0.0466  0.2064  0.2131
 3165TIP3    H1 9459   6.650   1.371   0.872  0.1964  2.6138 -0.7350
 3165TIP3    H2 9460   6.684   1.396   1.018 -0.6840  0.3815 -0.1044
 3166TIP3   OH2 9461   6.403   3.969   4.126  0.1014  0.8737 -0.2760
 3166TIP3    H1 9462   6.418   4.033   4.195  1.6999  0.5527 -0.2714
 3166TIP3    H2 9463   6.313   3.940   4.139 -0.5687  2.9099 -0.1342
 3167TIP3   OH2 9464   6.582   3.160   4.910  0.7848  1.0021 -0.1688
 3167TIP3    H1 9465   6.488   3.174   4.915  0.8220  1.2200 -0.0890
 3167TIP3    H2 9466   6.599   3.144   4.817  0.5197 -0.0897 -0.0431
 3168TIP3   OH2 9467   3.228   5.881   4.708  0.4352 -0.3169 -0.1897
 3168TIP3    H1 9468   3.320   5.858   4.697 -0.0646 -2.0819 -1.1241
 3168TIP3    H2 9469   3.198   5.903   4.620 -0.5549 -2.0155 -0.3118
 3169TIP3   OH2 9470   3.695   5.952   0.938 -0.5530 -0.6317 -0.1814
 3169TIP3    H1 9471   3.788   5.928   0.946 -0.0984  0.1173 -2.3221
 3169TIP3    H2 9472   3.652   5.871   0.911 -0.1135 -0.5403 -1.2395
 3170TIP3   OH2 9473   5.153   6.767   3.354  0.0742 -0.3990  0.1255
 3170TIP3    H1 9474   5.117   6.770   3.442 -1.5425  1.6177 -0.5313
 3170TIP3    H2 9475   5.081   6.735   3.300  0.6149 -0.3103 -0.6702
 3171TIP3   OH2 9476   6.343   6.677   5.673 -0.4701 -0.1389 -0.2027
 3171TIP3    H1 9477   6.270   6.683   5.735  0.4221  0.7007  0.8110
 3171TIP3    H2 9478   6.347   6.764   5.633 -0.5583 -0.4432 -0.8842
 3172TIP3   OH2 9479   2.029   2.092   0.314 -0.2708  0.0757 -0.5116
 3172TIP3    H1 9480   1.983   2.037   0.378 -0.4752 -1.5836 -2.0061
 3172TIP3    H2 9481   2.105   2.125   0.362 -0.2179 -1.3953  0.5068
 3173TIP3   OH2 9482   0.152   3.197   0.558 -0.2247  0.8177 -0.1669
 3173TIP3    H1 9483   0.203   3.132   0.509 -0.2060  0.1236  0.7496
 3173TIP3    H2 9484   0.082   3.222   0.498 -0.3926 -0.2611 -0.4486
 3174TIP3   OH2 9485   0.747   0.947   3.929  0.4074  0.1851 -0.4058
 3174TIP3    H1 9486   0.659   0.969   3.962  0.2477  0.1932 -0.8305
 3174TIP3    H2 9487   0.731   0.898   3.848  0.7359 -1.9330  0.7331
 3175TIP3   OH2 9488   0.247   5.395   0.571  0.0364 -0.7305  0.2047
 3175TIP3    H1 9489   0.237   5.409   0.665  1.0010  0.3459  0.1686
 3175TIP3    H2 9490   0.334   5.429   0.550 -0.4404 -0.2853 -1.1910
 3176TIP3   OH2 9491   6.461   1.301   0.082 -0.2912 -0.4562 -0.4402
 3176TIP3    H1 9492   6.442   1.303  -0.012 -0.2825 -0.3489 -0.4400
 3176TIP3    H2 9493   6.545   1.347   0.090  0.2385 -1.4014 -0.5034
 3177TIP3   OH2 9494   1.713   4.520   1.802 -0.7702 -0.1025 -0.6533
 3177TIP3    H1 9495   1.768   4.442   1.797 -0.4165  0.0562  0.5676
 3177TIP3    H2 9496   1.653   4.503   1.874 -0.1098  1.1048  0.2131
 3178TIP3   OH2 9497   2.904   2.983   4.073  0.7019  0.1575 -0.0105
 3178TIP3    H1 9498   2.845   2.975   4.148 -0.4774  3.4959 -0.4168
 3178TIP3    H2 9499   2.892   2.902   4.024 -0.7514 -0.8154  1.8168
 3179TIP3   OH2 9500   5.244   1.838   4.313 -0.4164  0.3098  0.0729
 3179TIP3    H1 9501   5.262   1.913   4.370  0.0123  0.2257  0.0454
 3179TIP3    H2 9502   5.270   1.762   4.364  1.2666  0.2997 -0.7281
 3180TIP3   OH2 9503   2.300   1.846   3.245  0.1571  0.1959  0.5618
 3180TIP3    H1 9504   2.390   1.849   3.214 -0.3781  1.5287 -1.0229
 3180TIP3    H2 9505   2.256   1.918   3.199 -1.4137  0.4217  2.2873
 3181TIP3   OH2 9506   4.653   0.723   4.557  0.0481  0.2147  0.1931
 3181TIP3    H1 9507   4.690   0.646   4.600 -1.1319 -0.0360  0.7998
 3181TIP3    H2 9508   4.724   0.757   4.503  0.9109 -0.6829  0.7368
 3182TIP3   OH2 9509   4.269   2.055   5.392  0.0111  0.7578 -0.4643
 3182TIP3    H1 9510   4.351   2.095   5.421 -0.2959  0.7420  0.4585
 3182TIP3    H2 9511   4.292   2.009   5.312  0.8815  0.8531 -0.2798
 3183TIP3   OH2 9512   4.960   1.140   3.631  0.2883  0.2877  0.1413
 3183TIP3    H1 9513   5.034   1.106   3.580  0.1145 -0.9820  0.6729
 3183TIP3    H2 9514   4.995   1.219   3.674  0.4774  1.2728 -1.7516
 3184TIP3   OH2 9515   4.498   6.437   0.062  0.1203  0.0363 -0.0140
 3184TIP3    H1 9516   4.471   6.357   0.016 -0.3293 -0.2022  0.6431
 3184TIP3    H2 9517   4.552   6.405   0.135  2.3458  0.5147 -1.3692
 3185TIP3   OH2 9518   3.534   0.385   4.810  0.9570 -0.2096  0.1247
 3185TIP3    H1 9519   3.541   0.425   4.897  0.7150 -2.5064  1.2697
 3185TIP3    H2 9520   3.441   0.364   4.801  1.2659 -1.6320  0.1139
 3186TIP3   OH2 9521   2.220   1.799   0.765 -0.0921 -0.1653  0.1611
 3186TIP3    H1 9522   2.132   1.779   0.733  0.3038 -1.5672 -0.0995
 3186TIP3    H2 9523   2.219   1.894   0.778 -2.0466 -0.2941  1.3939
 3187TIP3   OH2 9524   0.434   2.937   1.798  0.1894 -0.3828  0.0934
 3187TIP3    H1 9525   0.410   2.933   1.705  0.1716  0.0605  0.0734
 3187TIP3    H2 9526   0.529   2.930   1.798  0.0865 -2.0181  0.1634
 3188TIP3   OH2 9527   2.637   0.789   2.607  0.2060 -0.0689 -0.1111
 3188TIP3    H1 9528   2.615   0.830   2.691 -0.5281  0.4537 -0.5469
 3188TIP3    H2 9529   2.553   0.775   2.564  0.6329  1.0387 -1.3918
 3189TIP3   OH2 9530   6.091   1.774   0.304  0.2828  0.3145 -0.4718
 3189TIP3    H1 9531   6.164   1.829   0.334  0.8567 -0.4163 -0.5006
 3189TIP3    H2 9532   6.113   1.753   0.213  0.5860 -0.7747 -0.1649
 3190TIP3   OH2 9533   4.475   0.281   1.374  0.1946  0.3568 -0.2035
 3190TIP3    H1 9534   4.451   0.294   1.465 -0.0228 -0.8156 -0.0731
 3190TIP3    H2 9535   4.523   0.360   1.350 -0.5199  1.0761  0.6502
 3191TIP3   OH2 9536   2.899   3.981   0.568  0.4991  0.5090 -0.8586
 3191TIP3    H1 9537   2.898   4.076   0.578 -0.4846  0.5338 -1.0630
 3191TIP3    H2 9538   2.806   3.956   0.570  0.7703 -0.5128 -0.1638
 3192TIP3   OH2 9539   4.203   1.987   0.658 -0.6270  0.4954 -0.0629
 3192TIP3    H1 9540   4.155   1.904   0.658  0.8147 -0.4212  1.8056
 3192TIP3    H2 9541   4.296   1.961   0.660 -0.1401  2.1525  0.1806
 3193TIP3   OH2 9542   2.611   0.020   3.365  0.3531  0.7107  0.1494
 3193TIP3    H1 9543   2.578   0.082   3.300  1.3641  0.6755 -0.4239
 3193TIP3    H2 9544   2.696   0.056   3.390  0.6930 -0.1415  0.2433
 3194TIP3   OH2 9545   4.822   1.874   2.291 -0.5683  0.2942  0.0135
 3194TIP3    H1 9546   4.883   1.812   2.330 -0.7857  0.9680  1.5284
 3194TIP3    H2 9547   4.864   1.902   2.210  0.2917 -0.5857  0.1397
 3195TIP3   OH2 9548   6.996   4.807   1.558 -0.1284 -0.0006 -0.2148
 3195TIP3    H1 9549   7.038   4.841   1.479 -0.9089  0.9354 -0.2376
 3195TIP3    H2 9550   6.945   4.880   1.592 -2.2621 -1.2437 -0.5489
 3196TIP3   OH2 9551   6.116   2.045   3.127 -0.5965 -0.5434  0.1345
 3196TIP3    H1 9552   6.106   1.951   3.110 -0.4038 -0.3132 -1.3211
 3196TIP3    H2 9553   6.102   2.053   3.222 -1.2564 -1.9478  0.1825
 3197TIP3   OH2 9554   6.086   2.025   0.086  0.0929 -0.2161 -0.0970
 3197TIP3    H1 9555   6.181   2.011   0.089 -0.0006 -0.7156  0.7637
 3197TIP3    H2 9556   6.062   2.002  -0.004  1.0894  2.0648 -1.0211
 3198TIP3   OH2 9557   0.637   0.488   5.686  0.0130  0.2974  0.0340
 3198TIP3    H1 9558   0.592   0.434   5.620  0.1457  0.5209 -0.2410
 3198TIP3    H2 9559   0.666   0.565   5.638 -1.7303  1.4876  0.7938
 3199TIP3   OH2 9560   6.000   2.988   0.573 -0.4139  0.2364 -0.5321
 3199TIP3    H1 9561   5.999   3.060   0.636 -1.4614 -0.0236 -0.2268
 3199TIP3    H2 9562   6.088   2.990   0.535 -0.5122  1.8439 -0.7418
 3200TIP3   OH2 9563   3.563   0.987  -0.015  0.2425  0.3547 -0.2837
 3200TIP3    H1 9564   3.643   1.000   0.035 -0.0698 -1.2372  0.6981
 3200TIP3    H2 9565   3.494   1.024   0.040  0.0972  0.1826 -0.3508
 3201TIP3   OH2 9566   1.217   6.172   1.820 -0.1195  0.4639 -0.2750
 3201TIP3    H1 9567   1.155   6.211   1.758  0.3817  1.2905 -0.2744
 3201TIP3    H2 9568   1.290   6.142   1.764 -0.5426 -0.5844 -0.2871
 3202TIP3   OH2 9569   2.953   6.084   3.134  0.4957 -0.3580  0.3489
 3202TIP3    H1 9570   2.878   6.025   3.141 -1.5120  1.7468 -1.6860
 3202TIP3    H2 9571   3.029   6.028   3.152 -1.4173 -2.9471  0.9885
 3203TIP3   OH2 9572   2.753   3.712   1.198  0.0889 -0.6112 -0.1488
 3203TIP3    H1 9573   2.665   3.747   1.213 -0.7720 -3.1569  1.3481
 3203TIP3    H2 9574   2.746   3.619   1.220  3.0260 -1.0319 -0.5937
 3204TIP3   OH2 9575   2.072   0.700   1.835 -0.1255  0.5952 -0.0058
 3204TIP3    H1 9576   2.124   0.777   1.814 -0.0597  0.4970 -0.2106
 3204TIP3    H2 9577   2.101   0.633   1.773  0.8878 -0.0631  1.1291
 3205TIP3   OH2 9578   0.838   4.133   1.298 -0.6945  0.4252 -0.2598
 3205TIP3    H1 9579   0.810   4.043   1.280 -0.8394  0.6108 -0.9824
 3205TIP3    H2 9580   0.759   4.177   1.330 -0.3025 -0.0610  1.5168
 3206TIP3   OH2 9581   5.921   2.984   5.040  0.1096  0.2007 -0.6086
 3206TIP3    H1 9582   5.946   3.008   4.951  1.0855 -2.4508 -1.1365
 3206TIP3    H2 9583   5.859   2.912   5.029  0.9985 -0.8381  0.8411
 3207TIP3   OH2 9584   6.472   3.757   2.331  0.5118 -0.0001  0.3849
 3207TIP3    H1 9585   6.441   3.841   2.365 -0.7374 -0.1854 -0.2525
 3207TIP3    H2 9586   6.469   3.767   2.236  1.5682 -0.3432  0.3026
 3208TIP3   OH2 9587   3.788   0.884   1.602 -0.1079 -0.0770  0.2727
 3208TIP3    H1 9588   3.873   0.887   1.558 -1.3799 -1.7174 -2.5774
 3208TIP3    H2 9589   3.749   0.970   1.585 -0.0456 -0.2342 -0.7320
 3209TIP3   OH2 9590   4.094   1.556   5.022 -1.0464  0.3982 -0.4363
 3209TIP3    H1 9591   4.106   1.635   5.074 -1.1736  0.4622 -0.5035
 3209TIP3    H2 9592   4.025   1.578   4.960  0.0859  0.8032 -1.5881
 3210TIP3   OH2 9593   1.133   5.393   1.375  0.3217 -0.3415 -0.0197
 3210TIP3    H1 9594   1.172   5.480   1.366 -0.5382 -0.0014 -0.6345
 3210TIP3    H2 9595   1.178   5.339   1.312  2.4604 -0.9668  1.9118
 3211TIP3   OH2 9596   0.582   1.277   2.426 -0.2598 -0.1554  0.3020
 3211TIP3    H1 9597   0.504   1.234   2.389  0.8684 -1.8087 -0.2746
 3211TIP3    H2 9598   0.557   1.300   2.515 -2.1268  1.3801 -0.5444
 3212TIP3   OH2 9599   5.942   3.438   3.397 -0.1663 -0.1864  0.2232
 3212TIP3    H1 9600   5.976   3.456   3.485 -0.4182  3.4144 -0.2489
 3212TIP3    H2 9601   5.847   3.436   3.408 -0.1834 -0.0498  0.1027
 3213TIP3   OH2 9602   0.916   4.132   2.243  0.2700  0.5142 -0.4166
 3213TIP3    H1 9603   0.917   4.219   2.282  1.3838  0.1310  0.4847
 3213TIP3    H2 9604   1.009   4.106   2.241  0.2201  0.2551 -2.7781
 3214TIP3   OH2 9605   1.168   2.434   0.611 -0.0055 -0.4225  0.8046
 3214TIP3    H1 9606   1.181   2.406   0.520  0.9506  0.8007  0.5518
 3214TIP3    H2 9607   1.078   2.465   0.613 -0.0275 -0.4354  0.2740
 3215TIP3   OH2 9608   1.586   4.574   0.978 -0.0500  0.5148  0.0426
 3215TIP3    H1 9609   1.552   4.574   0.889 -0.6142 -0.1106  0.2537
 3215TIP3    H2 9610   1.673   4.614   0.970  0.2057 -0.1939 -0.9015
 3216TIP3   OH2 9611   6.209   6.214   1.044  0.0673 -0.6089  0.6154
 3216TIP3    H1 9612   6.209   6.139   0.984  0.7461 -0.5076  0.4786
 3216TIP3    H2 9613   6.135   6.267   1.016  0.1524 -0.7539  0.1079
 3217TIP3   OH2 9614   4.863   6.378   1.288 -0.0609  0.0131  0.0115
 3217TIP3    H1 9615   4.947   6.356   1.327 -0.1485 -0.8700 -0.2924
 3217TIP3    H2 9616   4.870   6.472   1.267  0.8419 -0.0550 -0.0105
 3218TIP3   OH2 9617   6.560   6.471   1.438  0.0638 -0.1650 -0.0646
 3218TIP3    H1 9618   6.546   6.440   1.527  0.0390  0.9609  0.3510
 3218TIP3    H2 9619   6.477   6.454   1.393  0.0970 -0.7922  0.1121
 3219TIP3   OH2 9620   6.714   2.188   1.564 -0.0233 -0.0140 -0.2053
 3219TIP3    H1 9621   6.750   2.133   1.633  2.8402  1.7020 -0.1758
 3219TIP3    H2 9622   6.638   2.140   1.532  0.5284 -2.4520  1.8564
 3220TIP3   OH2 9623   3.831   4.808   3.182  0.3610  0.0474 -0.0111
 3220TIP3    H1 9624   3.837   4.876   3.116  0.2184  1.2365  1.1570
 3220TIP3    H2 9625   3.818   4.855   3.264 -0.0273 -1.4014  0.8009
 3221TIP3   OH2 9626   6.117   2.460   2.993  0.7245  0.1118  0.0727
 3221TIP3    H1 9627   6.184   2.441   2.928 -1.1818  0.3680 -2.1394
 3221TIP3    H2 9628   6.142   2.545   3.030  0.7230  1.1151 -2.0758
 3222TIP3   OH2 9629   0.943   2.803   2.288 -0.1805 -0.1480  0.6313
 3222TIP3    H1 9630   0.866   2.858   2.273 -0.4324 -0.4353  0.8694
 3222TIP3    H2 9631   1.017   2.864   2.286 -0.4434  0.1764  0.7384
 3223TIP3   OH2 9632   3.972   4.347   3.960  0.3428  0.1560  0.0641
 3223TIP3    H1 9633   3.948   4.282   4.026 -0.6199 -0.3280 -0.7107
 3223TIP3    H2 9634   3.889   4.365   3.914  0.8219  1.0969 -0.4541
 3224TIP3   OH2 9635   0.761   0.518   0.489  0.3711 -0.1815 -0.1363
 3224TIP3    H1 9636   0.707   0.465   0.430 -1.2570  0.9404  0.2802
 3224TIP3    H2 9637   0.802   0.583   0.433 -1.7689  1.3608 -0.0152
 3225TIP3   OH2 9638   3.611   4.587   1.073 -0.2282  0.2180 -0.4280
 3225TIP3    H1 9639   3.632   4.494   1.066 -1.3400 -0.0270 -0.7115
 3225TIP3    H2 9640   3.678   4.631   1.021 -0.2420 -0.4986 -1.0717
 3226TIP3   OH2 9641   3.533   1.306   1.921 -0.0823  0.6835 -0.0035
 3226TIP3    H1 9642   3.589   1.338   1.850 -0.1091 -1.0683 -0.8887
 3226TIP3    H2 9643   3.445   1.334   1.896  0.1628  1.8719  0.4386
 3227TIP3   OH2 9644   3.580   5.052   0.594  0.2291 -0.1064 -0.1702
 3227TIP3    H1 9645   3.573   5.075   0.501  0.7261 -3.0422 -1.0538
 3227TIP3    H2 9646   3.493   5.067   0.629 -0.4493 -0.5371 -1.5689
 3228TIP3   OH2 9647   4.914   1.871   3.160 -0.5748 -0.1984  0.0701
 3228TIP3    H1 9648   4.983   1.872   3.094  0.6831 -0.6551  1.3255
 3228TIP3    H2 9649   4.875   1.958   3.155 -0.0495  0.0054 -0.7933
 3229TIP3   OH2 9650   3.200   2.417   2.657 -0.2975 -0.4252  0.8272
 3229TIP3    H1 9651   3.112   2.398   2.624 -0.2982  1.8957 -0.7433
 3229TIP3    H2 9652   3.257   2.409   2.581  0.5992 -0.3693  1.4750
 3230TIP3   OH2 9653   2.863   0.982   0.305 -0.3191  0.4615  0.2927
 3230TIP3    H1 9654   2.949   1.022   0.291 -0.5816  1.2058  0.7483
 3230TIP3    H2 9655   2.848   0.991   0.399 -0.6414 -0.2062  0.3154
 3231TIP3   OH2 9656   1.600   4.249   0.574  0.2826  0.2801 -0.1060
 3231TIP3    H1 9657   1.549   4.210   0.645 -0.5657 -0.9191 -1.3118
 3231TIP3    H2 9658   1.644   4.323   0.614  1.1819 -1.3285  2.0800
 3232TIP3   OH2 9659   4.331   3.980   2.519  0.1592  0.2752 -0.8244
 3232TIP3    H1 9660   4.264   3.970   2.452 -1.2527 -0.6637  0.6536
 3232TIP3    H2 9661   4.287   3.958   2.601  1.6963  1.8136  0.4987
 3233TIP3   OH2 9662   5.513   0.400   5.322 -0.1042 -0.4689  0.9696
 3233TIP3    H1 9663   5.563   0.366   5.395  1.8097  0.2202  0.0475
 3233TIP3    H2 9664   5.480   0.484   5.353  0.7016 -0.1763  1.0640
 3234TIP3   OH2 9665   7.164   2.742   4.073  0.7604 -0.6145  0.2188
 3234TIP3    H1 9666   7.082   2.695   4.058  1.5569 -1.8892 -0.3441
 3234TIP3    H2 9667   7.203   2.749   3.985  0.9214  0.6229  0.3779
 3235TIP3   OH2 9668   4.174   0.745   2.411  0.2165  0.4584 -0.0360
 3235TIP3    H1 9669   4.124   0.664   2.414  1.4316 -0.2937  1.0118
 3235TIP3    H2 9670   4.211   0.748   2.323  1.7050 -1.1333  0.4761
 3236TIP3   OH2 9671   4.861   3.565   0.424  0.2299 -1.1933  0.7796
 3236TIP3    H1 9672   4.936   3.515   0.392  0.8405 -0.5575  1.2065
 3236TIP3    H2 9673   4.885   3.656   0.410  0.7334 -0.8400  3.4173
 3237TIP3   OH2 9674   4.975   6.674   3.142 -0.1594  0.5401 -0.2405
 3237TIP3    H1 9675   4.910   6.737   3.174 -0.5718  0.3997 -0.8063
 3237TIP3    H2 9676   4.929   6.590   3.142  0.4426  0.1917  0.6853
 3238TIP3   OH2 9677   5.766   3.593   2.234  0.3824  0.2942 -0.5810
 3238TIP3    H1 9678   5.676   3.618   2.253  0.1338 -0.0330 -1.2653
 3238TIP3    H2 9679   5.783   3.629   2.146  1.3826  1.5252  0.0875
 3239TIP3   OH2 9680   3.777   1.834   1.856  0.6675 -0.2507  0.7559
 3239TIP3    H1 9681   3.854   1.841   1.801  0.6144  1.8603  0.8758
 3239TIP3    H2 9682   3.706   1.874   1.805 -0.1732 -1.3798  0.9899
 3240TIP3   OH2 9683   5.114   0.126   3.777  0.5244 -0.1335 -0.8920
 3240TIP3    H1 9684   5.083   0.176   3.701 -1.3282  0.9241  0.4847
 3240TIP3    H2 9685   5.078   0.038   3.764  0.3862 -0.0128 -1.3292
 3241TIP3   OH2 9686   4.121   6.638   2.546 -0.1265 -0.4755 -0.4184
 3241TIP3    H1 9687   4.051   6.616   2.608 -2.0020 -0.9738 -2.5821
 3241TIP3    H2 9688   4.076   6.653   2.463  2.3168 -0.3767 -1.8197
 3242TIP3   OH2 9689   0.079   3.976   5.278  0.3399  0.4746 -0.1245
 3242TIP3    H1 9690   0.031   4.057   5.294  0.2024  0.3276  0.2238
 3242TIP3    H2 9691   0.095   3.975   5.184  0.5285  1.0100 -0.1004
 3243TIP3   OH2 9692   0.619   6.640   2.811  0.3351 -0.1909  0.3386
 3243TIP3    H1 9693   0.566   6.560   2.820  0.2154 -0.1626 -0.0784
 3243TIP3    H2 9694   0.683   6.618   2.743 -0.5558  0.5050 -0.7611
 3244TIP3   OH2 9695   3.624   6.138   3.347 -0.3876 -0.0827 -0.2392
 3244TIP3    H1 9696   3.577   6.067   3.390 -0.9383  0.1259 -0.4890
 3244TIP3    H2 9697   3.560   6.178   3.289  0.4005 -0.5176 -1.4588
 3245TIP3   OH2 9698   4.431   0.568   2.298 -0.2291  0.6741  0.0120
 3245TIP3    H1 9699   4.481   0.521   2.231 -1.4317  1.1869 -1.2963
 3245TIP3    H2 9700   4.372   0.503   2.334  0.2299  0.4645  0.4009
 3246TIP3   OH2 9701   0.770   1.013   4.771  0.4023  0.1916 -0.6970
 3246TIP3    H1 9702   0.724   0.937   4.737  0.1350  0.7924 -1.7202
 3246TIP3    H2 9703   0.767   1.077   4.700  0.4790  1.2162  0.1921
 3247TIP3   OH2 9704   3.287   5.267   5.245 -0.3754  0.3520  0.5465
 3247TIP3    H1 9705   3.313   5.203   5.312 -1.2695 -1.7242 -0.9515
 3247TIP3    H2 9706   3.369   5.290   5.201 -0.1305 -0.6167  0.4549
 3248TIP3   OH2 9707   3.345   2.321   3.408 -0.4548 -0.4761 -0.0237
 3248TIP3    H1 9708   3.359   2.348   3.317  0.3809  0.2127  0.2991
 3248TIP3    H2 9709   3.424   2.270   3.430  0.5534  1.4524  1.0759
 3249TIP3   OH2 9710   6.171   3.225   3.176 -0.3416 -0.1498 -0.0541
 3249TIP3    H1 9711   6.102   3.162   3.200 -0.9739 -0.3521 -2.1999
 3249TIP3    H2 9712   6.221   3.181   3.108 -0.2486  1.3272 -0.9785
 3250TIP3   OH2 9713   6.822   0.749   5.734 -0.4682  0.4275  0.5684
 3250TIP3    H1 9714   6.753   0.813   5.747 -0.5286  1.0942 -2.3558
 3250TIP3    H2 9715   6.786   0.687   5.672  1.4530  0.7280 -0.9353
 3251TIP3   OH2 9716   3.161   0.619   5.345 -0.2039 -0.5919 -0.0166
 3251TIP3    H1 9717   3.066   0.618   5.358 -0.1067 -0.9237  0.7314
 3251TIP3    H2 9718   3.193   0.545   5.397  0.4566 -0.5381 -0.3342
 3252TIP3   OH2 9719   4.887   0.262   1.120 -0.3400  0.5785 -0.4586
 3252TIP3    H1 9720   4.969   0.267   1.170 -0.7619 -1.0063  0.4414
 3252TIP3    H2 9721   4.820   0.289   1.181 -0.7102 -0.0244 -0.5925
 3253TIP3   OH2 9722   1.553   3.543   0.657 -0.5056  0.1152 -0.3495
 3253TIP3    H1 9723   1.539   3.550   0.563 -0.7968 -1.6611 -0.4760
 3253TIP3    H2 9724   1.477   3.588   0.696 -0.8677  0.0382 -0.9619
 3254TIP3   OH2 9725   3.499   0.430   4.458  0.2038 -0.1483  0.3734
 3254TIP3    H1 9726   3.463   0.516   4.437  0.0092 -0.5835 -1.1773
 3254TIP3    H2 9727   3.455   0.404   4.538 -1.7294  0.0457 -0.5785
 3255TIP3   OH2 9728   4.343   3.423   1.379 -0.2596 -0.0892  0.1654
 3255TIP3    H1 9729   4.285   3.478   1.432  0.2869  0.0046  0.6792
 3255TIP3    H2 9730   4.285   3.383   1.314 -0.7306  0.7956  0.0219
 3256TIP3   OH2 9731   3.579   6.073   1.660 -0.7594  0.2961 -0.0244
 3256TIP3    H1 9732   3.583   6.132   1.735 -1.4936 -0.0481  0.2959
 3256TIP3    H2 9733   3.606   5.988   1.696  1.0627  0.5757 -0.6538
 3257TIP3   OH2 9734   0.099   4.197   4.176 -0.0465  0.0498 -0.1274
 3257TIP3    H1 9735   0.008   4.225   4.165  0.6242  1.5880 -2.3832
 3257TIP3    H2 9736   0.137   4.203   4.089  2.0319 -1.3634  0.6053
 3258TIP3   OH2 9737   7.191   5.985   4.510 -0.5178  0.3133  0.4244
 3258TIP3    H1 9738   7.139   5.911   4.541 -0.2572  0.0628  0.2732
 3258TIP3    H2 9739   7.240   5.950   4.436 -0.1422  0.5486  0.5592
 3259TIP3   OH2 9740   3.849   0.438   1.188  0.4471 -0.2789  0.1176
 3259TIP3    H1 9741   3.909   0.363   1.191  0.2962 -0.5579 -2.1333
 3259TIP3    H2 9742   3.838   0.456   1.095 -1.2311  1.1937  0.5453
 3260TIP3   OH2 9743   2.742   6.728   3.092 -0.4323  0.5640 -0.8756
 3260TIP3    H1 9744   2.817   6.678   3.061 -0.8782  0.5075 -1.9048
 3260TIP3    H2 9745   2.767   6.820   3.079  0.3460  0.6534  0.9207
 3261TIP3   OH2 9746   4.997   3.572   4.313  1.1444  0.0352 -0.0535
 3261TIP3    H1 9747   5.015   3.479   4.321 -0.9319 -0.3245  1.0302
 3261TIP3    H2 9748   4.934   3.578   4.241  2.6064  0.8382 -1.3291
 3262TIP3   OH2 9749   3.732   2.746   0.286  0.7332 -0.0903  0.5480
 3262TIP3    H1 9750   3.670   2.807   0.246  1.9097 -0.0277 -1.3091
 3262TIP3    H2 9751   3.678   2.677   0.322 -0.5288  1.1021  1.0473
 3263TIP3   OH2 9752   0.294   0.195   4.285  0.1412  0.0608 -0.3468
 3263TIP3    H1 9753   0.221   0.254   4.266 -0.6303 -1.4677 -2.4064
 3263TIP3    H2 9754   0.342   0.189   4.202  1.8494 -0.0476  0.5961
 3264TIP3   OH2 9755   5.989   5.114   3.371 -0.2458  0.2077  0.4450
 3264TIP3    H1 9756   5.989   5.086   3.280 -0.4679 -2.0308  1.0708
 3264TIP3    H2 9757   6.007   5.208   3.368  0.3215  0.0666 -1.8502
 3265TIP3   OH2 9758   4.453   4.447   0.441  0.2032  0.0294 -0.1873
 3265TIP3    H1 9759   4.360   4.440   0.418 -0.0544  3.1659 -0.4279
 3265TIP3    H2 9760   4.489   4.508   0.377  2.2212 -0.3518  0.5238
 3266TIP3   OH2 9761   0.688   2.406   2.410  0.7337  0.4259 -0.2152
 3266TIP3    H1 9762   0.723   2.353   2.338  3.0878  0.1135  1.0635
 3266TIP3    H2 9763   0.669   2.491   2.370  0.6889 -0.1327 -1.4522
 3267TIP3   OH2 9764   3.252   3.891   1.551 -0.0486  0.2226 -0.3545
 3267TIP3    H1 9765   3.261   3.980   1.584  0.7306 -0.3444  1.0774
 3267TIP3    H2 9766   3.206   3.900   1.468 -0.0167  1.9454 -0.2144
 3268TIP3   OH2 9767   3.474   1.540   4.004  0.4785  0.7916  0.5630
 3268TIP3    H1 9768   3.431   1.603   4.063 -0.3339  0.6047  0.1838
 3268TIP3    H2 9769   3.501   1.592   3.929 -0.4988  0.6385  0.0950
 3269TIP3   OH2 9770   0.563   0.103   3.227 -0.5037 -0.5410 -0.2834
 3269TIP3    H1 9771   0.582   0.049   3.150 -1.4727 -1.1627 -0.1010
 3269TIP3    H2 9772   0.495   0.054   3.274 -0.0015 -0.1142  0.9087
 3270TIP3   OH2 9773   0.751   5.633   3.899  0.7618  0.2996 -0.0127
 3270TIP3    H1 9774   0.846   5.644   3.896  0.9212 -0.5838  1.3648
 3270TIP3    H2 9775   0.735   5.548   3.857  0.5562  0.4672 -0.2848
 3271TIP3   OH2 9776   3.050   1.269   0.251 -0.9503  1.0569  0.0125
 3271TIP3    H1 9777   2.997   1.334   0.205 -1.6781  0.5651  0.1472
 3271TIP3    H2 9778   3.060   1.198   0.188 -0.5814  1.0766  0.0459
 3272TIP3   OH2 9779   2.543   4.252   3.337  0.0183  0.4552 -0.3615
 3272TIP3    H1 9780   2.498   4.284   3.415 -0.2057  0.6276 -0.5595
 3272TIP3    H2 9781   2.566   4.161   3.358 -2.5605 -0.4825 -1.1024
 3273TIP3   OH2 9782   5.352   6.268   1.891 -0.5870  0.0061  0.4981
 3273TIP3    H1 9783   5.380   6.277   1.800 -0.5513 -0.3255  0.4748
 3273TIP3    H2 9784   5.423   6.220   1.933 -1.6740 -1.9962  0.1467
 3274TIP3   OH2 9785   0.565   4.781   5.392 -0.1117 -0.7107  0.0031
 3274TIP3    H1 9786   0.646   4.772   5.443  0.9129  0.7794 -1.2655
 3274TIP3    H2 9787   0.516   4.701   5.411  1.5148 -1.5165  1.0609
 3275TIP3   OH2 9788   2.553   0.381   2.106 -0.1942 -0.2145  0.2214
 3275TIP3    H1 9789   2.475   0.396   2.054  0.0387  0.4458  0.0529
 3275TIP3    H2 9790   2.623   0.425   2.058  0.7431 -2.6709 -0.8389
 3276TIP3   OH2 9791   0.243   4.135   5.030  0.5877  0.6397  0.0384
 3276TIP3    H1 9792   0.317   4.147   5.089 -0.1746 -0.7738  1.3370
 3276TIP3    H2 9793   0.208   4.223   5.017  1.8179  1.1869  0.2626
 3277TIP3   OH2 9794   6.387   5.901   0.777  0.1295  0.3047 -0.0197
 3277TIP3    H1 9795   6.434   5.927   0.697  0.3810  1.2903  0.4327
 3277TIP3    H2 9796   6.432   5.948   0.847  1.0466 -1.8948  0.9671
 3278TIP3   OH2 9797   3.608   5.195   0.334 -0.4410 -0.4088 -0.3037
 3278TIP3    H1 9798   3.518   5.198   0.303 -0.1915  1.5139 -1.0025
 3278TIP3    H2 9799   3.648   5.275   0.298  1.6099 -1.3484 -0.2561
 3279TIP3   OH2 9800   1.444   0.212   1.068 -0.1604 -0.2462  0.1885
 3279TIP3    H1 9801   1.392   0.150   1.119  0.3718  0.0845  1.1651
 3279TIP3    H2 9802   1.534   0.178   1.073 -0.1344 -0.3292 -0.7257
 3280TIP3   OH2 9803   4.480   0.962   3.099  0.0549 -0.6645 -0.3246
 3280TIP3    H1 9804   4.502   0.961   3.006  0.1143 -0.3640 -0.3149
 3280TIP3    H2 9805   4.521   1.042   3.133 -0.3096 -0.5592 -0.1257
 3281TIP3   OH2 9806   4.144   1.621   1.229 -0.1537  0.0926 -0.0308
 3281TIP3    H1 9807   4.232   1.642   1.259 -0.3140  1.4136 -0.4388
 3281TIP3    H2 9808   4.138   1.526   1.238  1.4394 -0.0690 -0.3508
 3282TIP3   OH2 9809   4.582   3.796   3.654 -0.4570 -0.1732 -0.1576
 3282TIP3    H1 9810   4.643   3.740   3.703 -0.8408 -0.1294  0.3836
 3282TIP3    H2 9811   4.637   3.861   3.612  0.0996 -1.4595 -1.5118
 3283TIP3   OH2 9812   5.729   5.052   1.162 -0.5183  0.0509 -0.1356
 3283TIP3    H1 9813   5.804   4.993   1.161 -0.8199 -0.3359 -1.1324
 3283TIP3    H2 9814   5.714   5.069   1.255  1.5971  1.1848  0.0669
 3284TIP3   OH2 9815   3.439   5.971   5.408 -0.1460  0.7070  0.4285
 3284TIP3    H1 9816   3.493   6.046   5.429  0.8244 -0.2386  1.4434
 3284TIP3    H2 9817   3.495   5.915   5.354 -0.1824 -0.1368  1.2279
 3285TIP3   OH2 9818   2.736   5.321   2.017 -0.3871 -0.5857  0.3634
 3285TIP3    H1 9819   2.706   5.247   2.068  1.0334 -0.1691  1.9014
 3285TIP3    H2 9820   2.718   5.297   1.926 -1.0320 -2.2851  0.9082
 3286TIP3   OH2 9821   6.708   6.256   0.803  0.0865 -0.1300  0.5272
 3286TIP3    H1 9822   6.752   6.222   0.881 -2.0065  0.8439  2.2102
 3286TIP3    H2 9823   6.726   6.350   0.805  0.3548 -0.1464 -0.4424
 3287TIP3   OH2 9824   6.408   1.820   0.389 -0.0961 -0.3245  0.2367
 3287TIP3    H1 9825   6.450   1.884   0.446  3.0312 -1.4226 -0.6403
 3287TIP3    H2 9826   6.411   1.860   0.302 -1.3349 -0.2750  0.1927
 3288TIP3   OH2 9827   5.528   1.603   5.204 -0.0612  0.4972  0.2686
 3288TIP3    H1 9828   5.530   1.526   5.261  0.0850 -1.1112 -1.8341
 3288TIP3    H2 9829   5.435   1.623   5.195 -0.1831 -0.2623 -0.2324
 3289TIP3   OH2 9830   5.237   1.360   4.116  0.2835  0.0114 -0.3090
 3289TIP3    H1 9831   5.263   1.451   4.100  2.9280 -0.7210 -0.7892
 3289TIP3    H2 9832   5.146   1.355   4.089  0.2662  2.3740 -0.8693
 3290TIP3   OH2 9833   5.445   4.141   1.802  0.3995  0.0124 -0.4302
 3290TIP3    H1 9834   5.475   4.128   1.712  0.4528 -1.1021 -0.2665
 3290TIP3    H2 9835   5.511   4.200   1.841  0.2937  0.6172 -1.1508
 3291TIP3   OH2 9836   5.455   6.231   0.165  0.0203  0.6868  0.6089
 3291TIP3    H1 9837   5.504   6.207   0.086 -2.2722  2.8681 -1.6348
 3291TIP3    H2 9838   5.395   6.158   0.180 -0.7442  1.0083 -0.7697
 3292TIP3   OH2 9839   4.425   1.948   1.154  0.0722  0.2360 -0.1296
 3292TIP3    H1 9840   4.428   1.868   1.102 -3.1396 -0.4394  0.5480
 3292TIP3    H2 9841   4.501   1.942   1.212  1.5226 -0.8542 -2.0112
 3293TIP3   OH2 9842   4.410   3.657   5.564 -0.1996  0.3781 -0.6519
 3293TIP3    H1 9843   4.471   3.587   5.586 -1.9652 -0.5993  1.4292
 3293TIP3    H2 9844   4.451   3.736   5.598 -0.3335 -0.3588  1.3366
 3294TIP3   OH2 9845   0.276   0.133   1.546  0.0689  0.2709  0.2414
 3294TIP3    H1 9846   0.337   0.059   1.542 -1.6539 -1.1916 -1.0216
 3294TIP3    H2 9847   0.210   0.106   1.611  0.6181  1.7518  1.4759
 3295TIP3   OH2 9848   3.430   3.639   5.408 -0.4552  0.1999 -0.0840
 3295TIP3    H1 9849   3.384   3.557   5.389 -0.3614  0.1639 -0.1569
 3295TIP3    H2 9850   3.442   3.638   5.503  1.8106 -1.0995 -0.3060
 3296TIP3   OH2 9851   1.304   4.878   2.684  0.5282 -0.6739  0.4790
 3296TIP3    H1 9852   1.333   4.919   2.766  1.4732 -1.4467  0.5452
 3296TIP3    H2 9853   1.218   4.917   2.668 -0.1275 -1.2337  2.3491
 3297TIP3   OH2 9854   0.068   2.780   3.460  0.4675  0.8592 -0.3380
 3297TIP3    H1 9855   0.042   2.688   3.472  1.1650  0.7776  0.7295
 3297TIP3    H2 9856  -0.014   2.826   3.444 -0.5634  0.7217  3.6153
 3298TIP3   OH2 9857   1.405   2.010   3.124 -0.1207 -0.4698 -0.8055
 3298TIP3    H1 9858   1.345   2.044   3.190 -1.3737 -2.0105 -1.0772
 3298TIP3    H2 9859   1.492   2.019   3.163 -0.6912  0.0941  0.3834
 3299TIP3   OH2 9860   4.283   0.933   3.608 -0.5899 -0.5325 -0.3178
 3299TIP3    H1 9861   4.305   1.004   3.548 -2.0747  0.1271 -0.1408
 3299TIP3    H2 9862   4.200   0.961   3.647  0.1316 -1.1225  1.7425
 3300TIP3   OH2 9863   0.554   1.054   5.858 -0.4908 -0.8153  0.7584
 3300TIP3    H1 9864   0.583   1.140   5.891 -0.1115 -1.3021  1.7297
 3300TIP3    H2 9865   0.497   1.075   5.784  0.7515  0.2317  0.0619
 3301TIP3   OH2 9866   3.494   2.213   3.749  0.4391  0.1552 -0.4238
 3301TIP3    H1 9867   3.402   2.195   3.730  0.2869 -0.6885  0.9589
 3301TIP3    H2 9868   3.502   2.308   3.741 -1.2505  0.6120  2.0878
 3302TIP3   OH2 9869   6.045   3.280   4.753 -0.2365  0.4029 -0.1712
 3302TIP3    H1 9870   6.116   3.331   4.715  1.2003 -0.9274  0.6503
 3302TIP3    H2 9871   6.017   3.331   4.829 -0.1773  0.9155 -0.4835
 3303TIP3   OH2 9872   6.829   0.434   2.934 -0.2922  0.0757 -0.4607
 3303TIP3    H1 9873   6.860   0.479   3.013  0.9531 -2.2325  0.4583
 3303TIP3    H2 9874   6.861   0.488   2.862  1.1754  0.6649  0.5801
 3304TIP3   OH2 9875   5.135   5.003   1.985  0.1025  0.2406 -0.4115
 3304TIP3    H1 9876   5.102   5.011   2.074 -1.7234 -1.1258 -0.9198
 3304TIP3    H2 9877   5.113   4.914   1.958  1.7157  0.2084 -1.8296
 3305TIP3   OH2 9878   4.396   5.800   0.666 -0.0178 -0.2385  0.0159
 3305TIP3    H1 9879   4.403   5.711   0.632  0.9647  0.0652 -0.6274
 3305TIP3    H2 9880   4.478   5.814   0.713  0.4108  0.7452 -0.9696
 3306TIP3   OH2 9881   0.452   6.305   5.121  0.1544  0.7433 -0.0934
 3306TIP3    H1 9882   0.527   6.311   5.063  0.6919  1.0178  0.6106
 3306TIP3    H2 9883   0.379   6.342   5.072  0.2201 -0.5088 -1.1906
 3307TIP3   OH2 9884   0.054   0.055   1.704  0.0444 -0.0724 -0.0776
 3307TIP3    H1 9885  -0.036   0.075   1.679 -0.3894  0.7102  1.9838
 3307TIP3    H2 9886   0.047  -0.017   1.765  0.9707 -0.9740 -0.9901
 3308TIP3   OH2 9887   0.245   2.215   4.146  0.1272 -0.2830  0.5486
 3308TIP3    H1 9888   0.239   2.173   4.060  0.0223  0.9286 -0.0515
 3308TIP3    H2 9889   0.162   2.194   4.189 -0.2159 -0.0990 -0.0190
 3309TIP3   OH2 9890   0.122   5.996   2.732 -0.0407 -0.3895  0.3682
 3309TIP3    H1 9891   0.083   6.075   2.695  0.5814 -0.3671 -0.2695
 3309TIP3    H2 9892   0.160   6.025   2.815  0.6450  0.1162 -0.1060
 3310TIP3   OH2 9893   5.040   6.510   5.500  0.9035 -0.1733  0.3705
 3310TIP3    H1 9894   5.135   6.517   5.489  0.8689 -0.5357 -0.1892
 3310TIP3    H2 9895   5.004   6.525   5.413  0.3920  0.7365  0.7166
 3311TIP3   OH2 9896   5.389   5.559   2.283 -0.1415 -0.3310 -0.3835
 3311TIP3    H1 9897   5.362   5.648   2.309  0.9264  0.1197 -0.7593
 3311TIP3    H2 9898   5.321   5.531   2.222 -0.6355  0.1219 -0.0561
 3312TIP3   OH2 9899   0.200   0.338   5.176  0.4306 -0.1031 -0.1244
 3312TIP3    H1 9900   0.209   0.433   5.180 -2.1428  0.2895 -1.5167
 3312TIP3    H2 9901   0.229   0.315   5.088  1.6717 -0.7448  0.4271
 3313TIP3   OH2 9902   5.705   5.987   5.517  0.0130 -0.2276  0.1715
 3313TIP3    H1 9903   5.700   6.028   5.431 -0.5455 -1.2324 -0.3001
 3313TIP3    H2 9904   5.645   6.038   5.572 -0.1237  0.0318 -0.2157
 3314TIP3   OH2 9905   0.959   2.353   1.880  0.0364 -0.2094 -0.0683
 3314TIP3    H1 9906   1.047   2.358   1.842 -0.3058 -0.4404 -0.9250
 3314TIP3    H2 9907   0.971   2.306   1.963  0.6194 -0.9510 -0.5535
 3315TIP3   OH2 9908   4.754   6.168   2.509  0.2035  0.1401 -0.1122
 3315TIP3    H1 9909   4.700   6.200   2.581  0.3704  0.5795 -0.1792
 3315TIP3    H2 9910   4.822   6.233   2.500  0.1703  0.0962 -0.6855
 3316TIP3   OH2 9911   3.017   5.741   5.414 -0.8379  0.0282  0.6064
 3316TIP3    H1 9912   3.011   5.800   5.338 -0.5710  0.6171  1.0336
 3316TIP3    H2 9913   3.092   5.774   5.463 -0.6131 -0.7510  0.7902
 3317TIP3   OH2 9914   3.342   1.524   3.063 -0.2358 -0.5570 -0.3384
 3317TIP3    H1 9915   3.372   1.502   2.974 -0.5730  0.5881 -0.7600
 3317TIP3    H2 9916   3.264   1.469   3.076  0.1380 -1.1432 -0.5247
 3318TIP3   OH2 9917   4.835   2.169   0.703 -0.0198  0.2053 -0.4891
 3318TIP3    H1 9918   4.884   2.251   0.694  0.4709  0.0571  0.6293
 3318TIP3    H2 9919   4.746   2.197   0.724  0.2279  0.4601  0.2451
 3319TIP3   OH2 9920   6.447   4.078   3.214  0.0578  0.0675  0.0170
 3319TIP3    H1 9921   6.408   4.159   3.247 -1.7311 -1.0332  0.7216
 3319TIP3    H2 9922   6.441   4.086   3.119 -4.6566 -1.1652 -0.0432
 3320TIP3   OH2 9923   0.045   4.290   2.966 -0.2914  0.0888  0.1880
 3320TIP3    H1 9924   0.076   4.213   2.918 -0.0327  0.2970  0.0153
 3320TIP3    H2 9925  -0.016   4.333   2.906  0.9367  1.0089 -0.4641
 3321TIP3   OH2 9926   5.379   3.947   5.387 -0.2723  0.2576  0.1683
 3321TIP3    H1 9927   5.444   3.987   5.445 -0.5945  0.3670  0.4507
 3321TIP3    H2 9928   5.413   3.859   5.370 -0.2776  0.1588  0.6754
 3322TIP3   OH2 9929   5.187   4.426   4.284  0.3624 -0.1238 -0.1404
 3322TIP3    H1 9930   5.128   4.379   4.342 -0.2160 -1.0158 -1.4217
 3322TIP3    H2 9931   5.159   4.518   4.291 -0.3254 -0.3571  0.2507
 3323TIP3   OH2 9932   0.349   4.465   0.200 -0.2662  0.2123  0.1647
 3323TIP3    H1 9933   0.370   4.459   0.106 -1.3042 -0.0807 -0.0588
 3323TIP3    H2 9934   0.284   4.534   0.206  1.3750  1.7676  0.9788
 3324TIP3   OH2 9935   0.449   3.517   1.748  0.0679  0.1614 -0.0234
 3324TIP3    H1 9936   0.529   3.549   1.706  0.4782 -0.6078  0.1405
 3324TIP3    H2 9937   0.479   3.448   1.808 -0.8871 -1.7103 -1.5719
 3325TIP3   OH2 9938   1.260   3.300   5.419  0.0440 -0.0530 -0.3735
 3325TIP3    H1 9939   1.244   3.368   5.355 -1.5529 -0.0668 -0.0309
 3325TIP3    H2 9940   1.179   3.248   5.421  1.6146 -2.7911 -1.5783
 3326TIP3   OH2 9941   1.175   4.882   5.069 -0.0775 -0.1769 -0.5061
 3326TIP3    H1 9942   1.201   4.825   5.142  0.9244 -0.0958 -0.7938
 3326TIP3    H2 9943   1.194   4.831   4.990 -0.4496  0.0371 -0.7390
 3327TIP3   OH2 9944   5.145   5.678   2.786 -0.3505  0.1211 -0.3413
 3327TIP3    H1 9945   5.080   5.717   2.727 -0.3315 -0.9010 -1.0617
 3327TIP3    H2 9946   5.122   5.586   2.790  0.9744 -0.2430 -0.5049
 3328TIP3   OH2 9947   6.542   2.868   2.017  0.0296 -0.2961 -0.0150
 3328TIP3    H1 9948   6.580   2.859   1.929  0.8879  0.1030  0.3061
 3328TIP3    H2 9949   6.456   2.909   2.001  0.8905  1.4317 -0.5632
 3329TIP3   OH2 9950   4.910   2.645   1.711 -0.1083 -0.0694 -0.5250
 3329TIP3    H1 9951   4.957   2.635   1.795  0.1488  0.9254 -0.5348
 3329TIP3    H2 9952   4.820   2.662   1.736  0.4273  2.9701 -0.3041
 3330TIP3   OH2 9953   2.999   1.768   0.801 -0.4679 -0.4925 -0.0754
 3330TIP3    H1 9954   2.949   1.692   0.771 -3.2110  1.4019 -0.6399
 3330TIP3    H2 9955   3.032   1.809   0.721  2.3175 -1.7987  0.2914
 3331TIP3   OH2 9956   5.364   2.382   3.092  0.1484 -0.4241  0.2279
 3331TIP3    H1 9957   5.312   2.334   3.029  1.5422 -0.4849 -0.9115
 3331TIP3    H2 9958   5.390   2.462   3.046 -0.3343  0.4243  1.3637
 3332TIP3   OH2 9959   6.250   3.098   2.939 -0.2542  0.1024 -0.0476
 3332TIP3    H1 9960   6.274   3.141   2.858 -3.1230  2.2276  0.1001
 3332TIP3    H2 9961   6.171   3.049   2.918 -0.0802 -0.7011  1.0875
 3333TIP3   OH2 9962   1.941   0.328   1.929  0.6440  0.0183  0.5430
 3333TIP3    H1 9963   2.023   0.314   1.976  0.8441  1.6466  0.7348
 3333TIP3    H2 9964   1.925   0.422   1.936 -1.1673 -0.2404  0.3897
 3334TIP3   OH2 9965   6.977   1.257   5.502  0.2022  0.4597  0.3981
 3334TIP3    H1 9966   7.056   1.262   5.448 -0.0873 -1.9636 -0.3766
 3334TIP3    H2 9967   7.004   1.290   5.588  2.3075 -1.0448  0.3803
 3335TIP3   OH2 9968   5.466   6.388   2.174 -0.4186  0.4801  0.3357
 3335TIP3    H1 9969   5.490   6.462   2.230  1.3887  0.8724 -0.8629
 3335TIP3    H2 9970   5.466   6.425   2.085  1.7117 -1.1513 -0.4400
 3336TIP3   OH2 9971   1.087   6.752   1.768  0.4334 -0.3608 -0.1058
 3336TIP3    H1 9972   1.063   6.817   1.834  0.3312  0.5696 -1.0377
 3336TIP3    H2 9973   1.009   6.697   1.759 -0.3440  0.8417 -0.9867
 3337TIP3   OH2 9974   2.517   4.021   0.862 -0.4665 -0.2752  0.2982
 3337TIP3    H1 9975   2.429   4.034   0.828 -0.1920 -0.1978 -0.3948
 3337TIP3    H2 9976   2.525   3.926   0.871  0.2215 -0.4953 -1.9963
 3338TIP3   OH2 9977   6.303   3.160   4.882  0.3752  0.6369  0.1017
 3338TIP3    H1 9978   6.237   3.213   4.927  0.4216  0.8135 -0.0384
 3338TIP3    H2 9979   6.273   3.155   4.792  0.8159  1.1428 -0.0777
 3339TIP3   OH2 9980   1.638   0.572   1.790  0.2579 -0.0355  0.4059
 3339TIP3    H1 9981   1.667   0.663   1.784  0.2207 -0.0858 -0.6965
 3339TIP3    H2 9982   1.543   0.576   1.777 -0.1215 -0.0153  2.6707
 3340TIP3   OH2 9983   2.894   2.472   1.159 -0.1531 -0.1446  1.2622
 3340TIP3    H1 9984   2.844   2.427   1.090  1.2189  0.2527 -0.0546
 3340TIP3    H2 9985   2.834   2.477   1.233 -1.4802 -1.1459  0.3039
 3341TIP3   OH2 9986   6.763   3.970   0.382 -0.4484 -0.1173 -0.4811
 3341TIP3    H1 9987   6.805   3.933   0.460 -0.1913  1.1843  0.0342
 3341TIP3    H2 9988   6.716   3.897   0.343  1.8503 -1.5370 -0.7839
 3342TIP3   OH2 9989   7.128   5.344   1.383 -0.1297  0.0207  0.4161
 3342TIP3    H1 9990   7.171   5.414   1.433  0.8561 -0.0895 -0.2356
 3342TIP3    H2 9991   7.195   5.275   1.377 -1.1059 -1.0179  1.0972
 3343TIP3   OH2 9992   0.781   4.958   4.044 -0.1519 -0.2093  0.2938
 3343TIP3    H1 9993   0.700   4.993   4.007 -1.5312 -0.4382  2.8468
 3343TIP3    H2 9994   0.808   4.889   3.984 -3.0055 -1.5000  0.3521
 3344TIP3   OH2 9995   5.229   3.558   3.558 -0.0092  0.1789 -0.3239
 3344TIP3    H1 9996   5.203   3.571   3.649  0.4819  0.1381 -0.1763
 3344TIP3    H2 9997   5.235   3.463   3.548 -0.7339  0.1511 -0.5948
 3345TIP3   OH2 9998   0.273   2.838   3.248 -0.1308 -0.3033 -0.2470
 3345TIP3    H1 9999   0.232   2.819   3.164 -0.8059 -1.6390  0.3459
 3345TIP3    H210000   0.218   2.793   3.312  0.2358  0.8719  0.9439
 3346TIP3   OH210001   0.213   0.546   2.270 -0.2560  0.1702  0.0958
 3346TIP3    H110002   0.181   0.500   2.348  0.8576 -1.1391 -0.1723
 3346TIP3    H210003   0.145   0.531   2.204  1.1403 -3.4973 -0.7935
 3347TIP3   OH210004   1.328   5.378   5.489  0.3366 -0.2535  0.2178
 3347TIP3    H110005   1.299   5.341   5.573  0.9918 -2.9924 -0.6386
 3347TIP3    H210006   1.373   5.305   5.446  0.8380  1.3472 -2.1358
 3348TIP3   OH210007   6.271   3.986   3.837 -0.0515  0.6747  0.2616
 3348TIP3    H110008   6.317   4.070   3.846 -1.2619  1.2819  1.0353
 3348TIP3    H210009   6.261   3.975   3.742  0.4666  1.2160  0.1398
 3349TIP3   OH210010   1.764   0.222   0.777 -0.1709  0.5690 -1.0184
 3349TIP3    H110011   1.746   0.302   0.827 -0.4454 -0.4674  0.5981
 3349TIP3    H210012   1.857   0.228   0.755  0.1953  0.6061  0.4715
 3350TIP3   OH210013   4.131   2.176   2.207  0.2870  0.0881 -0.0064
 3350TIP3    H110014   4.220   2.142   2.202  0.9244  1.8195 -1.4799
 3350TIP3    H210015   4.128   2.226   2.289  1.5786  2.2557 -1.1959
 3351TIP3   OH210016   2.646   4.703   0.585  1.0816  0.3732 -0.6883
 3351TIP3    H110017   2.586   4.689   0.512  0.3524  1.7694 -0.3931
 3351TIP3    H210018   2.603   4.769   0.639  1.2905 -1.0752  1.3621
 3352TIP3   OH210019   6.429   2.921   0.295  0.5865 -0.0336 -0.0051
 3352TIP3    H110020   6.350   2.929   0.242  0.8549 -0.9320 -0.5539
 3352TIP3    H210021   6.456   3.012   0.312 -0.2703  0.2700 -0.2426
 3353TIP3   OH210022   6.947   0.160   3.971  0.0419  0.1721  0.3979
 3353TIP3    H110023   6.983   0.237   4.015  1.3059 -0.9076  1.3368
 3353TIP3    H210024   6.892   0.195   3.901  1.7933  1.9320 -0.1696
 3354TIP3   OH210025   2.973   2.864   2.008  0.1871 -0.0199  0.0504
 3354TIP3    H110026   2.956   2.783   1.960  3.0839 -0.6099 -0.1229
 3354TIP3    H210027   2.909   2.926   1.973 -2.6884 -2.3591  0.7838
 3355TIP3   OH210028   2.387   2.807   0.107 -0.3027 -0.3073 -0.1490
 3355TIP3    H110029   2.310   2.752   0.101  0.2178 -0.9499 -1.2373
 3355TIP3    H210030   2.353   2.896   0.119 -1.1778 -0.6731  0.1075
 3356TIP3   OH210031   5.100   1.784   4.075  0.2763  0.5581  0.0584
 3356TIP3    H110032   5.042   1.845   4.029  0.8523 -0.6265 -2.4115
 3356TIP3    H210033   5.138   1.836   4.146  0.4421  2.9823 -1.6850
 3357TIP3   OH210034   5.007   5.438   0.625  0.5233  0.7842 -0.5612
 3357TIP3    H110035   4.942   5.425   0.693 -0.6739  2.5933 -1.2891
 3357TIP3    H210036   5.000   5.359   0.570 -0.3151  0.4794 -0.0330
 3358TIP3   OH210037   1.619   3.002   0.352 -0.0208  0.4899 -0.2864
 3358TIP3    H110038   1.615   2.908   0.367  0.8735  0.3364 -0.9066
 3358TIP3    H210039   1.653   3.010   0.263 -1.7217  1.3846 -0.9008
 3359TIP3   OH210040   0.702   0.757   4.550  0.4511 -0.4039  0.5628
 3359TIP3    H110041   0.754   0.689   4.507 -0.0784 -0.8171  0.5698
 3359TIP3    H210042   0.760   0.834   4.552 -0.0181  0.1120 -2.2488
 3360TIP3   OH210043   5.889   6.288   3.781  0.1611  0.0600 -0.4943
 3360TIP3    H110044   5.971   6.240   3.772 -0.0648 -0.2966 -0.7163
 3360TIP3    H210045   5.893   6.355   3.713 -0.1764 -0.6235 -1.2077
 3361TIP3   OH210046   7.040   5.367   4.150 -0.1659 -0.6557 -0.8465
 3361TIP3    H110047   7.111   5.339   4.207  1.0098  0.1313 -1.8621
 3361TIP3    H210048   7.044   5.308   4.075 -0.1092 -0.1457 -1.2478
 3362TIP3   OH210049   4.382   3.701   5.044 -0.2945  0.2958  0.1161
 3362TIP3    H110050   4.357   3.616   5.009  0.0564  0.4672 -0.5635
 3362TIP3    H210051   4.360   3.697   5.137 -1.6352 -0.0147 -0.2073
 3363TIP3   OH210052   2.195   3.477   1.165  0.2242  0.0654 -0.2383
 3363TIP3    H110053   2.271   3.510   1.214  1.4994 -0.9393 -1.4694
 3363TIP3    H210054   2.230   3.457   1.078 -1.8161  1.1089 -1.3610
 3364TIP3   OH210055   0.639   4.227   5.716 -0.0518 -0.1849 -0.0956
 3364TIP3    H110056   0.685   4.287   5.775 -0.6361  0.2853 -0.0967
 3364TIP3    H210057   0.562   4.199   5.766  0.4840 -1.3544  0.0951
 3365TIP3   OH210058   5.751   1.800   1.561  0.1071  0.2537  0.4068
 3365TIP3    H110059   5.810   1.758   1.624 -1.2784  1.1966  2.4464
 3365TIP3    H210060   5.776   1.892   1.563 -0.3302  0.3833  0.0121
 3366TIP3   OH210061   4.787   1.709   0.391  0.4953  0.1780  0.0379
 3366TIP3    H110062   4.810   1.616   0.385 -1.1995 -0.3933  1.4667
 3366TIP3    H210063   4.828   1.738   0.472 -3.6840 -1.0004  2.9458
 3367TIP3   OH210064   5.949   6.068   1.866  0.1510  0.5321 -0.4633
 3367TIP3    H110065   5.991   6.151   1.889  1.9149 -0.2230 -0.8280
 3367TIP3    H210066   5.998   6.002   1.915 -1.1162 -0.3316 -0.3076
 3368TIP3   OH210067   0.727   5.313   0.660 -0.2379 -0.0360  0.2757
 3368TIP3    H110068   0.664   5.374   0.699 -0.6118  1.3261 -2.2323
 3368TIP3    H210069   0.674   5.263   0.598  0.6239 -0.9888  0.2980
 3369TIP3   OH210070   3.543   0.888   4.277 -0.3215  0.6090 -0.1286
 3369TIP3    H110071   3.609   0.898   4.345  1.4984 -1.5140 -1.4575
 3369TIP3    H210072   3.550   0.969   4.225  0.6040  0.8089  0.2909
 3370TIP3   OH210073   0.006   6.433   0.148  0.3231  0.3108  0.3158
 3370TIP3    H110074  -0.028   6.356   0.194 -1.4544  0.8166 -0.0637
 3370TIP3    H210075   0.100   6.419   0.145 -0.0137 -2.4382 -0.7740
 3371TIP3   OH210076   6.804   4.121   4.912  0.3967  0.1908 -0.0600
 3371TIP3    H110077   6.875   4.118   4.976  0.7202 -1.7685 -0.4443
 3371TIP3    H210078   6.741   4.056   4.943 -0.0098  0.0825 -1.0885
 3372TIP3   OH210079   1.399   4.845   5.833  0.1132  0.0768  0.1374
 3372TIP3    H110080   1.330   4.780   5.822 -0.3098  0.5686 -0.1940
 3372TIP3    H210081   1.468   4.818   5.773 -1.2874  1.5411 -2.3336
 3373TIP3   OH210082   6.394   5.063   1.063  0.4153 -0.7967 -0.2532
 3373TIP3    H110083   6.309   5.075   1.104 -0.4781 -2.0561 -1.6312
 3373TIP3    H210084   6.403   4.968   1.051  1.1777 -0.5816 -1.7657
 3374TIP3   OH210085   3.878   2.146   4.830  0.4594  0.4292  0.0897
 3374TIP3    H110086   3.965   2.132   4.792  0.8160 -1.3296  1.4294
 3374TIP3    H210087   3.818   2.136   4.757  1.2899 -0.1425 -0.5382
 3375TIP3   OH210088   2.193   0.742   4.354  0.3629  0.2956  0.2764
 3375TIP3    H110089   2.138   0.775   4.283  2.0842 -0.1401 -1.3268
 3375TIP3    H210090   2.282   0.753   4.323  1.1241 -1.9159  1.4464
 3376TIP3   OH210091   4.535   5.728   0.430 -0.0552 -0.4011 -0.2798
 3376TIP3    H110092   4.626   5.733   0.400 -0.0476  1.1811 -0.0766
 3376TIP3    H210093   4.517   5.634   0.436  1.5746 -0.7457 -0.2755
 3377TIP3   OH210094   1.465   1.932   4.723  0.2256 -0.5831  0.2927
 3377TIP3    H110095   1.384   1.887   4.745 -0.2435 -0.7511 -1.5429
 3377TIP3    H210096   1.523   1.863   4.690  0.6691 -0.2932  0.4569
 3378TIP3   OH210097   0.835   0.244   0.562 -0.3766  0.4885 -0.5757
 3378TIP3    H110098   0.871   0.328   0.532 -1.3142  0.4943 -1.7685
 3378TIP3    H210099   0.745   0.243   0.529 -0.8839 -0.3320  0.7412
 3379TIP3   OH210100   0.570   5.535   5.644 -0.0030 -0.6957 -0.0330
 3379TIP3    H110101   0.621   5.466   5.601  1.2039 -0.5118  1.0317
 3379TIP3    H210102   0.636   5.594   5.681 -1.0084  0.2938  0.2404
 3380TIP3   OH210103   0.027   2.137   5.796 -0.1805 -0.2710  0.0942
 3380TIP3    H110104   0.040   2.215   5.743 -0.2287 -0.6984 -0.5565
 3380TIP3    H210105  -0.050   2.158   5.850 -1.1478 -0.4194 -1.1592
 3381TIP3   OH210106   0.441   4.813   4.321 -0.2800  0.5918  0.4961
 3381TIP3    H110107   0.422   4.768   4.238  0.0297  0.9769  0.2149
 3381TIP3    H210108   0.527   4.853   4.308 -0.9128  1.9982  0.4246
 3382TIP3   OH210109   1.555   3.254   0.136  0.5727 -0.1141 -0.4484
 3382TIP3    H110110   1.607   3.294   0.205  1.2828  1.6762 -1.9419
 3382TIP3    H210111   1.497   3.323   0.106 -0.3056 -1.0989 -1.1011
 3383TIP3   OH210112   6.268   5.136   2.989  0.2330  0.0821 -0.5619
 3383TIP3    H110113   6.345   5.146   3.045 -0.6988  0.9095  0.6360
 3383TIP3    H210114   6.258   5.221   2.946 -0.5772  0.3236  0.0733
 3384TIP3   OH210115   0.446   6.105   4.306 -0.6330 -0.7909 -0.5885
 3384TIP3    H110116   0.538   6.081   4.314 -0.8293 -1.0336  1.3382
 3384TIP3    H210117   0.447   6.201   4.296 -0.2196 -0.6507  0.7061
 3385TIP3   OH210118   6.496   3.089   3.681  0.1143 -0.4558 -0.0485
 3385TIP3    H110119   6.460   3.130   3.759 -0.2938  1.2149 -1.0563
 3385TIP3    H210120   6.567   3.034   3.712 -1.7360 -2.0009  1.7766
 3386TIP3   OH210121   0.745   3.898   1.573  0.4110  0.0354 -0.2237
 3386TIP3    H110122   0.763   3.912   1.480 -0.6902 -0.9298 -0.5994
 3386TIP3    H210123   0.738   3.987   1.609  0.6965  0.4228 -1.0837
 3387TIP3   OH210124   5.422   5.806   1.395 -0.7333 -0.2311  0.0429
 3387TIP3    H110125   5.483   5.747   1.440 -1.1465 -1.5453 -1.0501
 3387TIP3    H210126   5.473   5.886   1.380  0.2509 -0.7626  0.4401
 3388TIP3   OH210127   4.221   3.529   1.017 -0.2496 -0.2844 -0.1920
 3388TIP3    H110128   4.280   3.496   0.950 -0.3953  1.3196 -1.1767
 3388TIP3    H210129   4.278   3.566   1.084 -0.1148  0.3666 -0.6600
 3389TIP3   OH210130   0.071   6.250   2.414 -0.1950 -0.1736  0.4139
 3389TIP3    H110131   0.162   6.269   2.393  0.0453 -0.3060  1.3068
 3389TIP3    H210132   0.056   6.293   2.499 -0.5366 -1.3381  0.9662
 3390TIP3   OH210133   3.799   4.304   2.496  0.5337  0.0772 -0.0248
 3390TIP3    H110134   3.861   4.233   2.476  0.0554 -0.1535 -0.6936
 3390TIP3    H210135   3.854   4.381   2.507  0.9046 -0.0306 -1.0798
 3391TIP3   OH210136   6.925   1.697   2.451  0.3395 -0.0271  0.5732
 3391TIP3    H110137   6.976   1.633   2.502 -0.7646 -0.5061  1.1015
 3391TIP3    H210138   6.834   1.675   2.468 -0.0764  0.0325 -1.3484
 3392TIP3   OH210139   3.856   6.762   3.418  0.2741 -0.3812 -0.2964
 3392TIP3    H110140   3.840   6.767   3.323  0.2517 -1.0160 -0.3362
 3392TIP3    H210141   3.769   6.747   3.456  0.4889 -1.9157 -0.3438
 3393TIP3   OH210142   6.540   3.878   3.921 -0.0996  0.4070  0.4419
 3393TIP3    H110143   6.603   3.813   3.952 -0.0270  1.2901  2.2615
 3393TIP3    H210144   6.499   3.912   4.001 -0.0973  2.6315 -0.4215
 3394TIP3   OH210145   0.098   1.865   3.055  0.0584  0.0916  0.4552
 3394TIP3    H110146   0.181   1.817   3.050  0.3707  0.5336  1.1469
 3394TIP3    H210147   0.080   1.870   3.149 -1.1965 -0.7336  0.2796
 3395TIP3   OH210148   2.957   5.703   2.814  0.0857  0.2614 -0.2452
 3395TIP3    H110149   3.040   5.670   2.781  0.7146  0.2467  1.2488
 3395TIP3    H210150   2.956   5.676   2.906 -1.2918  0.8071 -0.0787
 3396TIP3   OH210151   2.011   3.487   3.746  0.2032  0.1252 -0.2085
 3396TIP3    H110152   1.962   3.405   3.748  0.6330 -0.1468 -0.7698
 3396TIP3    H210153   1.945   3.554   3.762 -0.0123 -0.3806  1.1201
 3397TIP3   OH210154   3.548   6.716   4.066 -0.7720 -0.0212  0.2551
 3397TIP3    H110155   3.504   6.791   4.106 -2.1288 -0.6014 -0.0808
 3397TIP3    H210156   3.600   6.677   4.137 -0.6080  0.8191  0.6028
 3398TIP3   OH210157   5.190   3.652   4.803 -0.5552  0.5853 -0.0513
 3398TIP3    H110158   5.228   3.659   4.715  2.4280 -0.3862  1.0453
 3398TIP3    H210159   5.239   3.715   4.855  0.3058 -1.4496  1.6864
 3399TIP3   OH210160   2.141   1.887   3.696 -0.0752  1.2726  0.5741
 3399TIP3    H110161   2.223   1.912   3.737  0.0637  3.9763 -1.1681
 3399TIP3    H210162   2.112   1.964   3.648 -1.9650 -0.6153 -1.6002
 3400TIP3   OH210163   2.126   1.588   0.155  0.0277 -0.0900 -0.2998
 3400TIP3    H110164   2.048   1.572   0.102 -0.5446 -1.1385  0.7836
 3400TIP3    H210165   2.125   1.682   0.171 -2.3456 -0.3142  1.5253
 3401TIP3   OH210166   5.826   5.486   3.289  0.0289  0.0224 -0.0385
 3401TIP3    H110167   5.871   5.495   3.373  0.2996  0.4148 -0.2233
 3401TIP3    H210168   5.803   5.576   3.264 -0.8021 -0.1665  0.0199
 3402TIP3   OH210169   4.273   1.953   4.549  0.4245  0.1435  0.3620
 3402TIP3    H110170   4.285   2.024   4.486  0.1761 -1.1355 -1.1804
 3402TIP3    H210171   4.208   1.896   4.509  0.1218 -0.6310  1.8808
 3403TIP3   OH210172   6.964   6.788   5.114  0.3726 -0.1000 -0.4807
 3403TIP3    H110173   6.990   6.709   5.160  0.9177  1.4089  2.0028
 3403TIP3    H210174   6.874   6.804   5.142  1.1799  1.6197  1.4099
 3404TIP3   OH210175   2.181   4.723   3.819  0.7067  0.4706 -0.5689
 3404TIP3    H110176   2.128   4.662   3.871  1.2733  1.2705  1.0265
 3404TIP3    H210177   2.173   4.691   3.729 -0.0952 -1.1417  0.0292
 3405TIP3   OH210178   3.082   3.840   4.261  0.2098 -0.5115 -0.3408
 3405TIP3    H110179   3.152   3.890   4.304  0.5011 -1.2154  0.0173
 3405TIP3    H210180   3.115   3.825   4.173  0.5479 -0.9053 -0.1507
 3406TIP3   OH210181   2.398   3.665   2.321  0.2320  0.0884 -0.0706
 3406TIP3    H110182   2.364   3.695   2.405 -1.6936 -0.1200 -0.7358
 3406TIP3    H210183   2.470   3.606   2.344  0.3171  0.7153  1.3843
 3407TIP3   OH210184   5.544   2.197   3.178 -0.1102 -0.3889 -0.9535
 3407TIP3    H110185   5.479   2.264   3.162 -0.0843 -0.1549 -0.1131
 3407TIP3    H210186   5.621   2.244   3.210  0.6684 -0.6057 -2.4061
 3408TIP3   OH210187   5.729   2.927   3.010 -0.4005  1.0143 -0.2508
 3408TIP3    H110188   5.715   2.856   3.073  0.5691  0.2532 -0.8600
 3408TIP3    H210189   5.646   2.932   2.961  0.3127 -1.4794 -1.9052
 3409TIP3   OH210190   2.182   2.129   1.986  0.1416  0.4868 -0.0067
 3409TIP3    H110191   2.127   2.198   2.023 -0.9452  0.2917 -1.1712
 3409TIP3    H210192   2.121   2.061   1.960  1.0467 -0.2066 -0.3774
 3410TIP3   OH210193   5.219   6.203   4.426  0.0326 -0.4431 -0.3918
 3410TIP3    H110194   5.275   6.138   4.469 -0.6660  0.9055  2.8729
 3410TIP3    H210195   5.139   6.156   4.405  0.4845 -1.2181 -0.4052
 3411TIP3   OH210196   6.613   3.794   0.225 -0.3325  0.1757  0.4547
 3411TIP3    H110197   6.561   3.843   0.162 -1.6754 -1.5518  0.1501
 3411TIP3    H210198   6.608   3.703   0.196  2.2100 -0.1768  0.8982
 3412TIP3   OH210199   2.876   2.531   3.631  0.1342  0.2375  0.1407
 3412TIP3    H110200   2.855   2.526   3.538  1.1755 -1.8871 -0.0323
 3412TIP3    H210201   2.794   2.560   3.672 -0.3125  1.3320 -1.4074
 3413TIP3   OH210202   2.317   0.878   0.662 -0.2911  0.8270 -0.0524
 3413TIP3    H110203   2.266   0.939   0.714 -0.1601  1.1713 -0.3216
 3413TIP3    H210204   2.407   0.889   0.693 -0.3796  0.1705  0.4712
 3414TIP3   OH210205   4.739   6.154   1.730 -0.7099 -0.5612  0.6486
 3414TIP3    H110206   4.677   6.081   1.730 -3.4874  1.6567  0.1259
 3414TIP3    H210207   4.752   6.174   1.637  0.9560 -1.0331  0.7387
 3415TIP3   OH210208   3.907   4.681   3.478 -0.1683  0.0864 -0.2662
 3415TIP3    H110209   3.988   4.732   3.477 -0.2832  0.2959 -2.0373
 3415TIP3    H210210   3.840   4.741   3.448 -0.1576 -1.2232 -3.2684
 3416TIP3   OH210211   5.607   1.005   0.032  0.2522 -0.0720 -0.3988
 3416TIP3    H110212   5.514   1.013   0.054  0.5030  0.0906  0.6804
 3416TIP3    H210213   5.649   0.989   0.116  0.9464 -2.6461 -1.1660
 3417TIP3   OH210214   0.369   5.860   2.107  0.5376  0.2164  0.2376
 3417TIP3    H110215   0.449   5.821   2.143  1.9142  2.3336 -0.3593
 3417TIP3    H210216   0.314   5.875   2.183  0.4717 -1.6686  0.6154
 3418TIP3   OH210217   0.001   1.229   5.039  0.0750  0.4629  0.0643
 3418TIP3    H110218   0.019   1.153   5.094 -2.8213 -1.0685 -0.9081
 3418TIP3    H210219   0.014   1.198   4.950 -2.3705  0.6023 -0.4187
 3419TIP3   OH210220   1.974   3.072   2.336 -0.2059 -0.5185 -0.0450
 3419TIP3    H110221   1.963   2.992   2.285 -1.1430 -0.6691  0.3691
 3419TIP3    H210222   1.905   3.131   2.305 -0.2002 -0.2699  0.4037
 3420TIP3   OH210223   3.124   5.249   5.487  0.0274  0.4491 -0.4124
 3420TIP3    H110224   3.090   5.325   5.440 -0.2117  0.8879  0.4440
 3420TIP3    H210225   3.118   5.274   5.580 -0.1566 -0.6457 -0.1151
 3421TIP3   OH210226   2.926   5.062   2.362  0.1590  0.0791  0.0094
 3421TIP3    H110227   2.835   5.048   2.388  0.1727 -0.3278 -0.1531
 3421TIP3    H210228   2.957   4.975   2.337  1.3053 -0.2460  2.3062
 3422TIP3   OH210229   6.474   0.017   2.015  0.1092  0.6164  0.2423
 3422TIP3    H110230   6.401   0.051   2.067 -0.2049  1.1668 -0.5452
 3422TIP3    H210231   6.535  -0.018   2.080 -0.8499  0.1423  0.9150
 3423TIP3   OH210232   4.700   6.321   4.649 -0.4993  0.2646  0.4549
 3423TIP3    H110233   4.640   6.324   4.723 -0.5876 -0.3715  0.4151
 3423TIP3    H210234   4.695   6.408   4.610  2.0347  1.8113  3.1388
 3424TIP3   OH210235   4.351   4.153   3.900  1.1934  0.0622  0.1288
 3424TIP3    H110236   4.292   4.140   3.825  0.8267  0.2020  0.3899
 3424TIP3    H210237   4.394   4.236   3.882 -1.0352  1.6145  1.4564
 3425TIP3   OH210238   2.646   1.029   3.089 -0.1118 -0.7035 -0.4191
 3425TIP3    H110239   2.575   1.043   3.152  0.0333 -2.1116  0.0873
 3425TIP3    H210240   2.725   1.057   3.135 -0.2185  0.0870 -0.6910
 3426TIP3   OH210241   4.486   1.468   3.429 -0.2881  0.1509  0.0398
 3426TIP3    H110242   4.541   1.397   3.463  0.4613  0.5083 -0.4152
 3426TIP3    H210243   4.546   1.541   3.416 -0.6475  0.1972 -1.5518
 3427TIP3   OH210244   5.717   5.196   3.302 -0.0511  0.1650 -0.6818
 3427TIP3    H110245   5.633   5.166   3.268 -0.6341 -1.0047  1.5677
 3427TIP3    H210246   5.769   5.117   3.313  0.0190  0.4226  1.2114
 3428TIP3   OH210247   3.235   0.176   2.591  0.0335  0.5842  0.1360
 3428TIP3    H110248   3.268   0.103   2.644  1.2674 -2.1441 -3.9231
 3428TIP3    H210249   3.313   0.213   2.550 -1.0523  0.3255 -2.2876
 3429TIP3   OH210250   5.971   6.619   5.340  0.0792  0.2427  0.1847
 3429TIP3    H110251   6.046   6.578   5.383 -0.4116 -0.5515  0.3227
 3429TIP3    H210252   5.978   6.591   5.249 -0.9337 -1.2415  0.5169
 3430TIP3   OH210253   6.996   3.692   3.228 -0.4555  0.2754 -0.1700
 3430TIP3    H110254   7.012   3.762   3.291 -0.1388  0.6152 -0.6207
 3430TIP3    H210255   7.069   3.632   3.239  1.4208  1.9583 -2.4078
 3431TIP3   OH210256   6.127   5.042   5.260  0.2175  0.2045 -0.0803
 3431TIP3    H110257   6.215   5.080   5.249  1.3856 -2.6445 -1.7211
 3431TIP3    H210258   6.126   5.011   5.350  0.9378  0.1984 -0.0659
 3432TIP3   OH210259   4.312   4.281   5.752 -0.6360  0.0552  0.3996
 3432TIP3    H110260   4.251   4.258   5.681 -0.9267 -0.3416  0.7700
 3432TIP3    H210261   4.266   4.253   5.831  0.6728 -1.7194  0.5897
 3433TIP3   OH210262   2.227   4.746   0.912  0.0417  0.0945 -0.5415
 3433TIP3    H110263   2.236   4.822   0.969  0.0826 -0.9352  0.9067
 3433TIP3    H210264   2.226   4.671   0.973 -0.7803 -1.0051 -1.8488
 3434TIP3   OH210265   4.379   0.315   3.251  0.9652 -0.9267  0.3725
 3434TIP3    H110266   4.464   0.336   3.290  0.8117 -0.5221  0.4872
 3434TIP3    H210267   4.349   0.237   3.298  0.3889  0.0440  1.6529
 3435TIP3   OH210268   6.099   5.612   2.060 -0.3363 -0.1728 -0.4456
 3435TIP3    H110269   6.008   5.599   2.085 -1.0963 -0.1447 -2.8733
 3435TIP3    H210270   6.099   5.601   1.964  2.0316  0.7871 -0.6312
 3436TIP3   OH210271   0.828   1.154   2.760 -0.3183  0.0870 -0.1002
 3436TIP3    H110272   0.830   1.105   2.678  0.1350 -1.4443  0.7759
 3436TIP3    H210273   0.918   1.150   2.793 -0.9315 -1.3458  1.5627
 3437TIP3   OH210274   3.405   5.411   0.546 -0.3171 -0.0640  0.0792
 3437TIP3    H110275   3.389   5.421   0.452  2.6937 -0.3697 -0.5410
 3437TIP3    H210276   3.451   5.492   0.572 -1.7577  0.3683  1.5190
 3438TIP3   OH210277   6.370   1.097   0.257 -0.3866 -0.0188  0.0442
 3438TIP3    H110278   6.404   1.020   0.211 -3.7546 -0.6538 -1.7510
 3438TIP3    H210279   6.381   1.169   0.195 -1.8065 -0.1505 -0.3875
 3439TIP3   OH210280   4.466   0.144   0.383  0.0139  0.5706  0.1322
 3439TIP3    H110281   4.522   0.096   0.444 -0.1505  0.7348  0.4128
 3439TIP3    H210282   4.517   0.148   0.302  0.6294  1.1653  0.5359
 3440TIP3   OH210283   0.180   0.528   3.347 -0.3865  0.0283 -0.4227
 3440TIP3    H110284   0.164   0.440   3.379 -0.4888  0.2593  0.1804
 3440TIP3    H210285   0.218   0.575   3.422  2.3000 -0.2300 -1.5265
 3441TIP3   OH210286   1.490   1.033   4.858  1.1636  0.1238  0.0243
 3441TIP3    H110287   1.494   0.944   4.821  1.6273  0.3034 -0.3654
 3441TIP3    H210288   1.515   1.022   4.950  0.6630 -0.2289  0.1258
 3442TIP3   OH210289   2.829   5.953   4.871  0.1602  0.1445 -0.5557
 3442TIP3    H110290   2.910   6.003   4.882  0.6188 -0.6224 -0.3371
 3442TIP3    H210291   2.831   5.924   4.780  0.6017 -0.6537 -0.2996
 3443TIP3   OH210292   6.852   5.056   1.616 -1.1198  0.1048 -0.3115
 3443TIP3    H110293   6.815   5.144   1.604  1.1894  0.8933 -2.7387
 3443TIP3    H210294   6.929   5.070   1.671 -0.8409 -0.4089 -0.5650
 3444TIP3   OH210295   4.278   3.259   2.402  0.5088 -0.0071 -0.2723
 3444TIP3    H110296   4.311   3.234   2.316 -0.3323 -0.9280 -0.3331
 3444TIP3    H210297   4.201   3.313   2.384  0.6079  0.2012 -0.0912
 3445TIP3   OH210298   3.683   5.895   5.229  0.6174  0.2074 -0.2515
 3445TIP3    H110299   3.744   5.846   5.284  0.0705  0.8027  0.9263
 3445TIP3    H210300   3.740   5.951   5.175  1.1592 -0.0703  0.0207
 3446TIP3   OH210301   4.456   5.013   4.358 -0.1833 -0.4534 -0.8138
 3446TIP3    H110302   4.376   4.962   4.372  0.5478 -1.2370  0.7521
 3446TIP3    H210303   4.511   4.992   4.433  1.0601  0.9276 -1.2960
 3447TIP3   OH210304   5.067   0.051   4.802  0.8165  0.1831 -0.4240
 3447TIP3    H110305   5.093  -0.040   4.788 -1.8866 -0.9444  1.1718
 3447TIP3    H210306   4.979   0.057   4.765  0.2110  1.6048  1.1152
 3448TIP3   OH210307   5.128   2.597   4.528 -0.2796 -0.5223  0.4188
 3448TIP3    H110308   5.098   2.611   4.618 -1.3702 -1.1619  0.1833
 3448TIP3    H210309   5.047   2.596   4.476  0.0881 -2.8279 -0.2043
 3449TIP3   OH210310   1.097   3.714   4.486 -0.5035  0.1895  0.0801
 3449TIP3    H110311   1.083   3.628   4.447  0.5665 -0.9275  2.0192
 3449TIP3    H210312   1.094   3.774   4.411 -1.2311 -1.4972 -1.3408
 3450TIP3   OH210313   5.285   0.897   4.721 -0.0942 -0.0640  0.4774
 3450TIP3    H110314   5.367   0.896   4.770 -0.4175 -0.6705  1.0210
 3450TIP3    H210315   5.238   0.974   4.754  0.2376  0.2727  0.1795
 3451TIP3   OH210316   5.681   6.773   2.501  0.2835 -0.2267  0.5379
 3451TIP3    H110317   5.681   6.679   2.518  0.1506 -0.3584 -0.1704
 3451TIP3    H210318   5.698   6.781   2.407  1.3077  0.4978  0.7679
 3452TIP3   OH210319   1.382   1.134   2.509 -0.0971 -0.4786  0.4378
 3452TIP3    H110320   1.297   1.177   2.516  0.3371  0.2416  1.5208
 3452TIP3    H210321   1.384   1.099   2.420 -0.8753  0.8706 -0.1449
 3453TIP3   OH210322   1.148   0.041   0.899 -0.2217  0.3922 -0.1640
 3453TIP3    H110323   1.131   0.135   0.900  1.0212  0.6301  0.0823
 3453TIP3    H210324   1.232   0.031   0.944 -1.3693 -1.0670  1.8212
 3454TIP3   OH210325   1.402   6.406   2.148 -0.8007 -0.0671  0.1876
 3454TIP3    H110326   1.465   6.368   2.087 -0.3772  1.9517 -0.6985
 3454TIP3    H210327   1.423   6.365   2.232 -0.0167 -1.3410 -0.5951
 3455TIP3   OH210328   5.711   0.341   3.662  0.3289  0.1185  0.4242
 3455TIP3    H110329   5.664   0.358   3.744  0.4731 -1.4658  0.8775
 3455TIP3    H210330   5.669   0.399   3.598 -2.0273 -0.9028  0.9064
 3456TIP3   OH210331   5.759   2.119   2.877 -0.2655 -0.1407  0.0386
 3456TIP3    H110332   5.837   2.131   2.931 -0.1400  1.4638 -0.4530
 3456TIP3    H210333   5.764   2.187   2.811 -1.2921 -1.0019 -0.9840
 3457TIP3   OH210334   4.016   0.310   0.907 -0.3294 -0.3360  0.2281
 3457TIP3    H110335   4.097   0.351   0.877  0.4298  0.1262  2.6727
 3457TIP3    H210336   3.949   0.377   0.897 -0.1679 -0.2889 -0.6082
 3458TIP3   OH210337   0.962   3.797   5.466 -0.7342 -0.2051  0.0374
 3458TIP3    H110338   1.053   3.805   5.494 -0.8692  1.7765  0.0576
 3458TIP3    H210339   0.912   3.837   5.537 -1.3867  1.1041 -1.1026
 3459TIP3   OH210340   1.310   3.856   1.531 -0.1331 -0.2690 -0.5762
 3459TIP3    H110341   1.255   3.932   1.551  0.3902 -0.4233  1.6692
 3459TIP3    H210342   1.248   3.785   1.516 -0.6368 -0.4879  2.1136
 3460TIP3   OH210343   4.794   1.901   3.910  0.1806  0.8242 -0.0675
 3460TIP3    H110344   4.772   1.868   3.822  0.4803 -0.4795  0.3248
 3460TIP3    H210345   4.717   1.879   3.963  0.9166 -0.4575  0.4940
 3461TIP3   OH210346   1.510   3.016   2.701  0.5434  0.4144 -0.4702
 3461TIP3    H110347   1.532   2.970   2.782  0.5278 -1.6352 -1.5791
 3461TIP3    H210348   1.593   3.022   2.654  0.3032  0.3447 -0.9073
 3462TIP3   OH210349   1.657   1.185   2.081 -0.0905 -0.3442  0.7816
 3462TIP3    H110350   1.689   1.152   2.165 -1.6645  0.0826  1.5973
 3462TIP3    H210351   1.723   1.249   2.053 -0.1137  0.3953  2.3205
 3463TIP3   OH210352   1.441   0.603   5.615  0.4779 -0.5847  0.6094
 3463TIP3    H110353   1.491   0.521   5.617  0.6667 -0.4630  1.8174
 3463TIP3    H210354   1.488   0.659   5.554 -0.5114 -1.8821 -1.4423
 3464TIP3   OH210355   3.521   5.119   2.531  0.2771  0.7991 -0.4298
 3464TIP3    H110356   3.615   5.120   2.515  0.2854  1.9865 -0.4602
 3464TIP3    H210357   3.496   5.027   2.528  1.4899  0.4451 -0.0886
 3465TIP3   OH210358   3.225   1.070   2.179  0.3054 -0.3260 -0.4934
 3465TIP3    H110359   3.206   1.025   2.262 -1.4391 -0.7247 -1.0812
 3465TIP3    H210360   3.301   1.023   2.144  1.2279 -0.0078  0.9540
 3466TIP3   OH210361   3.709   5.237   4.102 -0.0323 -0.0608 -0.0225
 3466TIP3    H110362   3.640   5.224   4.167  0.3489 -0.8025  0.2436
 3466TIP3    H210363   3.706   5.331   4.082  0.4725  0.3803  1.7962
 3467TIP3   OH210364   0.731   1.441   0.800  0.0704 -0.7971 -0.0574
 3467TIP3    H110365   0.819   1.433   0.837  0.3310  0.3891 -0.3924
 3467TIP3    H210366   0.699   1.351   0.797 -0.1586 -0.9786  3.4558
 3468TIP3   OH210367   7.170   0.522   2.116 -0.1237 -0.0647 -0.1779
 3468TIP3    H110368   7.080   0.550   2.101  0.3029  1.1771 -0.5324
 3468TIP3    H210369   7.215   0.542   2.033  0.5899 -0.1883  0.1713
 3469TIP3   OH210370   2.635   3.156   2.805  0.5402  0.2565 -0.4168
 3469TIP3    H110371   2.612   3.224   2.868 -0.6087 -0.5352  0.0658
 3469TIP3    H210372   2.702   3.103   2.850  1.1406  0.8115 -0.6384
 3470TIP3   OH210373   0.195   2.889   4.119 -0.1812 -0.0837 -0.3863
 3470TIP3    H110374   0.100   2.877   4.123 -0.2041  0.3655  0.9704
 3470TIP3    H210375   0.230   2.800   4.123 -0.5179 -0.1780  1.9823
 3471TIP3   OH210376   0.515   1.658   4.396 -0.0786  0.1431 -0.9909
 3471TIP3    H110377   0.580   1.615   4.341 -1.3215 -0.9616 -1.6466
 3471TIP3    H210378   0.558   1.738   4.425  1.2337 -0.0989 -2.1489
 3472TIP3   OH210379   3.128   6.185   4.037  0.2212 -0.7310 -0.3413
 3472TIP3    H110380   3.222   6.176   4.020  0.5159  0.3667  0.5920
 3472TIP3    H210381   3.095   6.237   3.964  0.5338 -0.2850 -0.1706
 3473TIP3   OH210382   4.313   2.848   1.552 -0.4921  0.5371  0.0139
 3473TIP3    H110383   4.347   2.931   1.585  0.8250 -0.2526  0.7145
 3473TIP3    H210384   4.319   2.855   1.457  0.8224  0.7707  0.0989
 3474TIP3   OH210385   5.183   4.622   0.607 -0.5237  0.6200  0.2743
 3474TIP3    H110386   5.094   4.641   0.580 -0.3713 -0.8224 -1.4163
 3474TIP3    H210387   5.181   4.531   0.636  0.4623  0.4482 -0.1444
 3475TIP3   OH210388   5.020   5.264   4.873  0.0445  0.3268  0.2709
 3475TIP3    H110389   5.037   5.287   4.965 -0.1294 -0.6287  0.5491
 3475TIP3    H210390   4.987   5.345   4.835  1.1536  1.0500  0.7689
 3476TIP3   OH210391   6.008   6.806   0.037  0.2914  0.0336  0.5431
 3476TIP3    H110392   5.916   6.831   0.025  0.6101  2.3512  2.0461
 3476TIP3    H210393   6.005   6.736   0.102 -0.4288  0.6727  1.2392
 3477TIP3   OH210394   4.017   0.994   0.770  0.2313  0.6946  0.4141
 3477TIP3    H110395   3.988   1.082   0.746 -2.5849 -0.4852 -0.8920
 3477TIP3    H210396   4.040   0.953   0.687  0.0351 -0.2886  0.8294
 3478TIP3   OH210397   5.044   6.007   5.373 -0.1253  0.2047 -0.1083
 3478TIP3    H110398   5.043   5.914   5.397 -1.3368  0.1926 -0.1834
 3478TIP3    H210399   4.984   6.048   5.435 -1.3543  0.5796 -1.5092
 3479TIP3   OH210400   2.880   6.170   5.345  0.8136 -0.4687  0.2935
 3479TIP3    H110401   2.969   6.159   5.380  1.7363  2.3566 -0.8836
 3479TIP3    H210402   2.869   6.264   5.337 -3.2159 -0.5234  2.4667
 3480TIP3   OH210403   2.353   6.087   5.699  0.2483 -0.0171 -0.0301
 3480TIP3    H110404   2.386   6.131   5.620 -0.5900 -0.9493 -0.9122
 3480TIP3    H210405   2.281   6.033   5.669 -2.5332  2.2992  1.8956
 3481TIP3   OH210406   0.872   6.304   5.276  0.1400 -0.8338 -0.5490
 3481TIP3    H110407   0.831   6.390   5.277  1.1094 -0.3634  0.0116
 3481TIP3    H210408   0.901   6.293   5.185 -0.1061 -0.6321 -0.6537
 3482TIP3   OH210409   0.595   0.201   1.919 -0.2763 -0.2597 -0.1009
 3482TIP3    H110410   0.595   0.109   1.894  0.6068 -0.5055  0.7504
 3482TIP3    H210411   0.549   0.203   2.003 -1.2814  0.2454 -0.6446
 3483TIP3   OH210412   6.216   5.391   3.144  0.1137  0.3367 -0.1071
 3483TIP3    H110413   6.183   5.477   3.117 -2.4457 -0.9466 -1.4037
 3483TIP3    H210414   6.175   5.376   3.230  1.0592  0.6371  0.4094
 3484TIP3   OH210415   2.383   2.050   0.285  0.2116 -0.1252 -0.1531
 3484TIP3    H110416   2.478   2.055   0.294  0.2326 -1.7456  0.9592
 3484TIP3    H210417   2.349   2.096   0.362  0.1805 -1.7101  0.8375
 3485TIP3   OH210418   4.775   6.722   3.925  0.1526 -0.0875  0.0032
 3485TIP3    H110419   4.691   6.694   3.962 -0.0049  0.3924  0.0154
 3485TIP3    H210420   4.824   6.755   4.000 -0.4443  1.5672 -0.3156
 3486TIP3   OH210421   0.399   3.091   3.368 -0.9665 -0.1533  0.3858
 3486TIP3    H110422   0.350   3.041   3.303  0.5181 -2.0757  0.6568
 3486TIP3    H210423   0.441   3.024   3.423  1.7603  1.3493  0.3039
 3487TIP3   OH210424   4.409   5.499   1.832 -0.0380  0.6396 -0.3568
 3487TIP3    H110425   4.322   5.510   1.793 -0.3115  0.1537  0.1152
 3487TIP3    H210426   4.433   5.409   1.811  1.5720  1.5515 -2.9277
 3488TIP3   OH210427   0.229   5.626   1.314 -0.3706 -0.3211 -0.1731
 3488TIP3    H110428   0.231   5.711   1.270  0.7193 -0.3099 -0.1335
 3488TIP3    H210429   0.296   5.633   1.383 -1.0678 -0.8220  0.5768
 3489TIP3   OH210430   4.650   1.285   1.391 -0.0155 -0.3741 -0.7840
 3489TIP3    H110431   4.721   1.227   1.418  0.9484  1.2578  0.3548
 3489TIP3    H210432   4.675   1.314   1.303  1.0445  0.6212 -0.1738
 3490TIP3   OH210433   1.315   6.395   0.787 -0.4540 -0.1347 -0.0835
 3490TIP3    H110434   1.241   6.338   0.807 -0.6391  0.7458  1.9558
 3490TIP3    H210435   1.372   6.389   0.864  0.7732  0.4864 -0.9024
 3491TIP3   OH210436   0.349   1.183   2.265  1.1928  0.3245 -0.2552
 3491TIP3    H110437   0.280   1.216   2.207  2.8164  0.9944 -1.9080
 3491TIP3    H210438   0.307   1.113   2.314 -0.5625  0.4493 -1.4781
 3492TIP3   OH210439   0.493   0.370   3.257 -0.1925 -0.1150 -0.7481
 3492TIP3    H110440   0.533   0.283   3.248  0.8751  0.4525 -1.5788
 3492TIP3    H210441   0.426   0.373   3.188 -0.6700 -0.4999 -0.3136
 3493TIP3   OH210442   2.289   0.081   0.737 -0.3354 -0.4024 -0.2821
 3493TIP3    H110443   2.283  -0.010   0.767  0.4003 -0.2445  0.3867
 3493TIP3    H210444   2.267   0.133   0.814  1.8609  0.0164  0.1387
 3494TIP3   OH210445   2.064   3.630   4.949 -0.0187  0.0272 -0.0440
 3494TIP3    H110446   2.088   3.539   4.968  1.4390  0.4386  0.1686
 3494TIP3    H210447   1.994   3.649   5.012  0.7616 -0.4582  1.0018
 3495TIP3   OH210448   5.738   1.641   4.072 -0.1519  0.0243  0.0225
 3495TIP3    H110449   5.812   1.678   4.024  0.2737  0.1118  0.7316
 3495TIP3    H210450   5.690   1.717   4.105  0.1146 -0.0418  0.5666
 3496TIP3   OH210451   3.317   4.987   3.351  0.7165  0.3489 -0.4626
 3496TIP3    H110452   3.222   4.991   3.360  0.6878 -0.0515 -0.5718
 3496TIP3    H210453   3.335   4.899   3.318  1.0192  0.9033 -1.8679
 3497TIP3   OH210454   5.361   4.518   2.277 -0.3130  0.0914  0.5931
 3497TIP3    H110455   5.367   4.424   2.258 -0.3397  0.5158 -1.9044
 3497TIP3    H210456   5.451   4.549   2.273 -0.5426  0.6885 -2.1966
 3498TIP3   OH210457   5.365   4.583   0.267 -0.4623 -0.3793 -0.3930
 3498TIP3    H110458   5.450   4.538   0.272 -1.6664 -2.9178 -1.2550
 3498TIP3    H210459   5.381   4.667   0.309  1.8674 -1.7128  1.7144
 3499TIP3   OH210460   2.573   1.827   3.173 -0.2142 -0.0240 -0.0071
 3499TIP3    H110461   2.646   1.776   3.208 -0.8431  1.1399  3.3562
 3499TIP3    H210462   2.613   1.880   3.104  2.0266  0.0587  1.2306
 3500TIP3   OH210463   4.408   3.013   0.397 -0.2133 -0.1545 -0.3081
 3500TIP3    H110464   4.437   3.020   0.306  1.8623 -1.5191  0.1813
 3500TIP3    H210465   4.337   2.949   0.394  0.0268 -0.4010 -0.9294
 3501TIP3   OH210466   2.334   6.117   3.213 -0.2822 -0.2719 -0.3044
 3501TIP3    H110467   2.280   6.048   3.175  0.4620 -0.8928 -0.2608
 3501TIP3    H210468   2.302   6.198   3.173 -0.8077 -0.6956 -0.7597
 3502TIP3   OH210469   3.797   1.977   1.454  0.8431  0.1856  0.0339
 3502TIP3    H110470   3.802   2.069   1.480 -1.3886  0.1290  0.8634
 3502TIP3    H210471   3.709   1.966   1.419  1.2946 -1.4932 -0.6831
 3503TIP3   OH210472   2.652   2.445   2.598 -0.2346 -0.0111  0.2627
 3503TIP3    H110473   2.680   2.425   2.687  1.3885  0.8887 -0.0072
 3503TIP3    H210474   2.626   2.360   2.562  1.3731 -0.7996  0.8490
 3504TIP3   OH210475   0.884   5.213   5.829  0.0552  0.3115  0.5762
 3504TIP3    H110476   0.804   5.173   5.797  0.1067  1.1621 -0.6832
 3504TIP3    H210477   0.944   5.139   5.841 -0.8256 -0.3081  1.3235
 3505TIP3   OH210478   3.331   1.532   1.089 -0.2036  0.1922  0.3267
 3505TIP3    H110479   3.368   1.596   1.029  0.8583 -1.3660 -0.7824
 3505TIP3    H210480   3.246   1.509   1.052  0.3587 -0.6099 -0.4937
 3506TIP3   OH210481   5.617   0.927   5.569  0.1822 -1.1354 -0.1846
 3506TIP3    H110482   5.601   1.021   5.559  2.2790 -0.4368  1.9907
 3506TIP3    H210483   5.529   0.888   5.570 -0.7520  0.8010 -0.9902
 3507TIP3   OH210484   0.367   1.065   1.239  0.1210 -0.8241  0.2014
 3507TIP3    H110485   0.364   0.981   1.195 -1.1166 -0.5816 -0.2335
 3507TIP3    H210486   0.302   1.118   1.193 -1.0298 -0.4737  2.1170
 3508TIP3   OH210487   2.642   0.145   2.878  0.6131  0.0691  0.2924
 3508TIP3    H110488   2.609   0.223   2.835  1.0979 -0.1933 -0.5656
 3508TIP3    H210489   2.704   0.106   2.816 -0.0839 -1.3432  0.4368
 3509TIP3   OH210490   4.979   6.583   4.322 -0.2314  0.0862 -0.0116
 3509TIP3    H110491   4.922   6.508   4.306 -0.9064 -0.1127  2.8921
 3509TIP3    H210492   5.067   6.548   4.313 -0.5197 -0.4407 -1.0435
 3510TIP3   OH210493   1.115   3.773   5.137 -0.1581 -0.1468 -0.1247
 3510TIP3    H110494   1.023   3.762   5.159 -0.1288 -0.1324  0.0093
 3510TIP3    H210495   1.125   3.734   5.051 -0.7062  1.5775 -1.0223
 3511TIP3   OH210496   6.321   6.264   3.438  0.3655 -0.2709  0.1620
 3511TIP3    H110497   6.297   6.348   3.398 -1.4831  0.6989  2.9715
 3511TIP3    H210498   6.276   6.198   3.385 -0.1217  0.7306 -0.7077
 3512TIP3   OH210499   0.658   2.186   3.836  0.6277 -0.4665  0.5661
 3512TIP3    H110500   0.601   2.109   3.844 -1.1283  0.6139 -0.7666
 3512TIP3    H210501   0.604   2.258   3.868  1.6106  0.4697  0.1469
 3513TIP3   OH210502   3.400   0.486   1.358  0.4382  0.3712 -0.4967
 3513TIP3    H110503   3.367   0.406   1.400  1.2313  1.3386  2.2055
 3513TIP3    H210504   3.324   0.544   1.354 -1.1232 -1.4904 -5.7619
 3514TIP3   OH210505   2.981   4.737   3.306  0.1513 -0.0893 -0.5493
 3514TIP3    H110506   2.950   4.699   3.223  1.0651 -0.7493 -0.5884
 3514TIP3    H210507   2.984   4.664   3.367 -1.1864  0.5157  0.2922
 3515TIP3   OH210508   6.484   3.073   4.256 -0.3600 -0.1841 -0.6669
 3515TIP3    H110509   6.567   3.086   4.211  1.1480 -2.0091  1.4378
 3515TIP3    H210510   6.453   2.988   4.225 -1.1237  0.1718 -0.9099
 3516TIP3   OH210511   5.375   4.490   0.825 -0.3083  0.0912  0.4740
 3516TIP3    H110512   5.470   4.478   0.818 -0.0939  1.0788  1.3036
 3516TIP3    H210513   5.365   4.557   0.893 -1.3606  3.1551 -2.3771
 3517TIP3   OH210514   3.536   3.540   1.584 -0.1529  0.2945  0.4649
 3517TIP3    H110515   3.579   3.616   1.621  0.5855 -0.5475  1.3876
 3517TIP3    H210516   3.558   3.468   1.643 -2.9211 -0.1842  1.0883
 3518TIP3   OH210517   5.183   2.490   5.675 -0.1354  0.1440  0.4453
 3518TIP3    H110518   5.107   2.458   5.723  0.5469 -1.5665  0.4508
 3518TIP3    H210519   5.259   2.458   5.725  0.5730 -0.0551 -0.7135
 3519TIP3   OH210520   5.052   1.303   1.982  0.3162 -0.1886 -0.1972
 3519TIP3    H110521   5.005   1.242   1.925 -0.1472 -0.7243  0.7362
 3519TIP3    H210522   4.985   1.365   2.011  0.4961 -0.0783 -0.0191
 3520TIP3   OH210523   6.739   2.071   5.623 -0.0955  0.4401  0.0582
 3520TIP3    H110524   6.663   2.014   5.611 -1.4269  2.1191 -0.0000
 3520TIP3    H210525   6.772   2.087   5.535 -0.9245  1.2721 -0.1149
 3521TIP3   OH210526   4.923   2.624   1.221  0.5921  0.0595 -0.5619
 3521TIP3    H110527   4.956   2.713   1.211  1.7849 -0.4197 -1.1295
 3521TIP3    H210528   4.846   2.633   1.277 -0.9916  1.7963 -2.8363
 3522TIP3   OH210529   1.968   2.363   3.534 -0.1939 -0.6243  0.0142
 3522TIP3    H110530   1.883   2.381   3.572 -0.4741  0.0438 -0.8981
 3522TIP3    H210531   1.972   2.417   3.455  0.5762 -1.5648 -0.6257
 3523TIP3   OH210532   4.325   1.103   4.183  0.2270 -0.4464 -0.1687
 3523TIP3    H110533   4.313   1.182   4.236  2.0136 -0.5092  0.4112
 3523TIP3    H210534   4.247   1.097   4.129 -1.0362  0.3840  1.4985
 3524TIP3   OH210535   6.551   5.691   4.520  0.3617 -0.4573 -0.3245
 3524TIP3    H110536   6.557   5.730   4.433  0.0347 -1.6166 -0.8877
 3524TIP3    H210537   6.582   5.759   4.579 -0.4341  0.7404 -1.2346
 3525TIP3   OH210538   2.891   4.643   0.660 -0.5175  0.0828 -0.6849
 3525TIP3    H110539   2.802   4.653   0.625  0.2448  1.2031 -2.4468
 3525TIP3    H210540   2.879   4.640   0.754 -2.5516 -1.3248 -0.9206
 3526TIP3   OH210541   6.525   3.622   4.657  0.5727 -0.1552  0.7034
 3526TIP3    H110542   6.456   3.677   4.620 -0.4165 -0.7620  1.6154
 3526TIP3    H210543   6.515   3.630   4.751  0.7010 -1.5286  0.8579
 3527TIP3   OH210544   3.867   5.329   2.919  0.5458  0.0096  0.3721
 3527TIP3    H110545   3.917   5.409   2.903 -0.7265  0.6057 -0.7948
 3527TIP3    H210546   3.856   5.326   3.014  1.8260  0.4341  0.5625
 3528TIP3   OH210547   6.558   1.333   4.592  0.1639  0.2611  0.1628
 3528TIP3    H110548   6.589   1.332   4.501  0.6384 -0.7492  0.3143
 3528TIP3    H210549   6.638   1.334   4.644 -0.0912 -0.2776  0.5699
 3529TIP3   OH210550   5.711   4.999   4.115  0.3539 -0.1574  0.3209
 3529TIP3    H110551   5.685   4.911   4.086  0.1464 -0.7218  2.0835
 3529TIP3    H210552   5.768   5.031   4.046  1.7199 -2.3368  0.3432
 3530TIP3   OH210553   5.751   0.494   0.557  0.0230  0.4002 -0.5230
 3530TIP3    H110554   5.844   0.470   0.555  0.0792  0.6392 -1.6533
 3530TIP3    H210555   5.751   0.590   0.552 -0.2810  0.3489 -2.4131
 3531TIP3   OH210556   0.198   3.783   5.576 -0.1554 -0.9643 -0.0249
 3531TIP3    H110557   0.213   3.728   5.499  0.3888  1.3604 -1.6882
 3531TIP3    H210558   0.268   3.848   5.572 -0.5359 -0.3769  2.0822
 3532TIP3   OH210559   4.048   5.815   1.506 -0.5346 -0.7905 -0.2986
 3532TIP3    H110560   3.962   5.835   1.470 -0.2905  0.7045 -0.1310
 3532TIP3    H210561   4.034   5.806   1.600 -0.2792  1.2127 -0.0223
 3533TIP3   OH210562   6.591   5.054   3.421  0.1497  0.1865  0.1073
 3533TIP3    H110563   6.630   5.009   3.346  2.3523 -1.5569  2.1595
 3533TIP3    H210564   6.585   4.987   3.489 -2.3019  1.5553  1.4055
 3534TIP3   OH210565   1.151   6.320   1.589  0.1308 -0.0783  0.1645
 3534TIP3    H110566   1.222   6.368   1.547 -0.1706 -0.8719 -1.3442
 3534TIP3    H210567   1.119   6.378   1.658 -0.5388  2.1031 -1.8572
 3535TIP3   OH210568   3.113   6.407   0.213 -0.1531  0.3432  0.5522
 3535TIP3    H110569   3.089   6.344   0.145 -0.4047  1.0936 -0.0751
 3535TIP3    H210570   3.104   6.359   0.295 -2.7126  0.2397  0.2741
 3536TIP3   OH210571   7.112   5.021   1.713  0.2636  0.0477  0.1569
 3536TIP3    H110572   7.146   4.934   1.735 -1.0690 -0.8982 -1.3593
 3536TIP3    H210573   7.172   5.055   1.647  0.6342  0.1873  0.5593
 3537TIP3   OH210574   6.116   2.467   4.201 -0.4716  0.1477  0.2360
 3537TIP3    H110575   6.133   2.385   4.154 -3.0605 -0.2463 -0.1918
 3537TIP3    H210576   6.113   2.534   4.132 -0.8630  0.1542  0.2549
 3538TIP3   OH210577   2.847   6.669   2.005 -0.5473 -0.3293 -0.3069
 3538TIP3    H110578   2.799   6.645   2.084 -0.0723  1.8859  0.7232
 3538TIP3    H210579   2.939   6.669   2.032 -0.4908  2.3776 -0.1976
 3539TIP3   OH210580   1.742   0.939   0.299  0.3501  0.4855  0.1291
 3539TIP3    H110581   1.809   0.899   0.353  1.9595  0.6311 -1.6507
 3539TIP3    H210582   1.668   0.953   0.358  2.0514  0.8172  2.2988
 3540TIP3   OH210583   2.418   2.723   5.224 -0.5234  0.3946  0.2201
 3540TIP3    H110584   2.329   2.759   5.215 -0.0839  1.6624  0.6119
 3540TIP3    H210585   2.405   2.635   5.257 -1.6501  0.5022  0.1107
 3541TIP3   OH210586   4.012   2.976   1.433  0.7980  0.1547  0.4438
 3541TIP3    H110587   4.000   2.899   1.378 -0.3384  0.8861 -0.3760
 3541TIP3    H210588   4.107   2.983   1.446  1.3646  1.1729 -3.2235
 3542TIP3   OH210589   6.537   1.147   2.217 -0.3503  0.6213 -0.4085
 3542TIP3    H110590   6.496   1.226   2.180  1.0416  1.2980 -0.5849
 3542TIP3    H210591   6.580   1.178   2.296  0.7611  0.1926 -0.8268
 3543TIP3   OH210592   7.111   1.195   1.442 -0.0024 -0.0717  0.6969
 3543TIP3    H110593   7.161   1.117   1.415 -1.8960 -0.7525 -1.1242
 3543TIP3    H210594   7.143   1.264   1.385 -1.8852 -0.8091 -1.4098
 3544TIP3   OH210595   4.982   2.815   0.807 -0.2794 -0.2288  0.3558
 3544TIP3    H110596   5.000   2.849   0.719  1.1519  1.7093  1.3214
 3544TIP3    H210597   5.042   2.741   0.817 -2.0854 -2.0140 -1.0672
 3545TIP3   OH210598   0.673   3.788   4.477 -0.1110  0.0172  0.3681
 3545TIP3    H110599   0.593   3.834   4.450  0.1918  0.3275 -0.0237
 3545TIP3    H210600   0.665   3.701   4.438  0.4337  0.5351 -0.9911
 3546TIP3   OH210601   7.202   5.610   1.028 -0.2154 -0.1934  0.2870
 3546TIP3    H110602   7.212   5.516   1.010  0.4819  0.0423 -0.6809
 3546TIP3    H210603   7.153   5.644   0.953 -0.0905  0.2858  0.4192
 3547TIP3   OH210604   2.904   2.490   4.342  0.3573 -0.2510 -0.0311
 3547TIP3    H110605   2.986   2.453   4.375  0.0157 -0.0708  1.0544
 3547TIP3    H210606   2.891   2.569   4.394  0.9035  1.2662 -2.0545
 3548TIP3   OH210607   6.855   3.203   5.355 -0.1213  0.1767  0.3309
 3548TIP3    H110608   6.858   3.155   5.272 -0.9654 -1.8402  1.4018
 3548TIP3    H210609   6.803   3.281   5.336  1.3510  0.7913 -1.4848
 3549TIP3   OH210610   0.780   5.650   2.855 -0.0092 -0.2433 -0.7127
 3549TIP3    H110611   0.755   5.561   2.882  3.8083 -1.0906  0.6339
 3549TIP3    H210612   0.752   5.656   2.764 -0.4022 -2.8228 -0.8444
 3550TIP3   OH210613   6.842   0.632   1.684  0.6446 -0.4578  0.2007
 3550TIP3    H110614   6.835   0.577   1.762  0.1808 -0.5448  0.1021
 3550TIP3    H210615   6.833   0.570   1.611  2.3638 -0.5708  0.0445
 3551TIP3   OH210616   5.001   2.097   3.378  0.3701  0.2693 -0.1025
 3551TIP3    H110617   5.069   2.136   3.324  1.2925  0.5589  1.2168
 3551TIP3    H210618   4.943   2.170   3.400  1.6138  0.7726  1.6517
 3552TIP3   OH210619   5.915   3.235   5.514  0.0381 -0.5037 -0.1484
 3552TIP3    H110620   5.826   3.267   5.495  0.3470  0.3637 -0.1467
 3552TIP3    H210621   5.955   3.223   5.428  0.0794 -0.4586 -0.1351
 3553TIP3   OH210622   4.326   0.207   2.984 -0.1040  0.8302 -0.5308
 3553TIP3    H110623   4.413   0.169   2.973 -1.1871 -1.8966 -0.2794
 3553TIP3    H210624   4.332   0.257   3.066  0.7836 -0.7693  0.4272
 3554TIP3   OH210625   2.215   2.341   3.246  0.0653  0.8729 -0.2888
 3554TIP3    H110626   2.251   2.298   3.324 -0.7262  0.0377 -0.3624
 3554TIP3    H210627   2.181   2.425   3.278  0.0993  0.7070  0.1904
 3555TIP3   OH210628   3.492   0.580   0.383 -0.5978 -0.3223 -0.1197
 3555TIP3    H110629   3.497   0.606   0.291  0.4864  0.0958  0.0461
 3555TIP3    H210630   3.408   0.534   0.390 -1.3380  0.8269 -1.0121
 3556TIP3   OH210631   6.407   4.835   2.367 -0.4903  0.0660  0.3678
 3556TIP3    H110632   6.452   4.776   2.428 -0.0151  0.8253  0.7588
 3556TIP3    H210633   6.440   4.809   2.281 -0.5782 -0.4956  0.5003
 3557TIP3   OH210634   2.663   6.387   5.329  0.0525  0.2447  0.1218
 3557TIP3    H110635   2.624   6.309   5.369 -2.2314  0.4537 -1.5059
 3557TIP3    H210636   2.701   6.356   5.247 -0.6224  0.7680 -0.4011
 3558TIP3   OH210637   6.491   6.505   0.120  0.1238  0.1578 -0.3945
 3558TIP3    H110638   6.495   6.572   0.052  1.2010  0.9310  0.4121
 3558TIP3    H210639   6.454   6.428   0.075  1.4545  0.4207 -2.0443
 3559TIP3   OH210640   4.482   6.768   3.347 -0.5583 -0.4344  0.6600
 3559TIP3    H110641   4.491   6.798   3.438  1.3803 -1.5893  0.9102
 3559TIP3    H210642   4.400   6.718   3.346 -0.6317 -0.3578  1.7476
 3560TIP3   OH210643   1.206   0.923   1.502  0.1332  0.1655 -0.4296
 3560TIP3    H110644   1.284   0.889   1.459  1.4597  0.1572  1.8160
 3560TIP3    H210645   1.133   0.879   1.458  1.3338  0.2682 -2.6720
 3561TIP3   OH210646   5.684   4.156   0.323 -0.2395  0.9147  0.1893
 3561TIP3    H110647   5.613   4.117   0.271  0.6886  1.1237 -1.2666
 3561TIP3    H210648   5.654   4.245   0.341 -0.4053  0.9607 -0.3067
 3562TIP3   OH210649   6.260   1.986   2.283 -0.2735  0.0933 -0.7701
 3562TIP3    H110650   6.310   2.053   2.329 -1.4346  1.8313 -1.9416
 3562TIP3    H210651   6.306   1.975   2.199 -0.7462  0.2870 -1.0571
 3563TIP3   OH210652   0.883   0.940   0.971  0.0088  0.2803 -0.4195
 3563TIP3    H110653   0.796   0.901   0.961  0.7821 -1.3750 -1.2296
 3563TIP3    H210654   0.882   0.979   1.058 -1.3686 -0.1834 -0.1932
 3564TIP3   OH210655   1.675   2.280   2.404 -0.0338 -0.0141  0.1849
 3564TIP3    H110656   1.713   2.361   2.372 -2.0240  0.3078 -1.6204
 3564TIP3    H210657   1.687   2.217   2.333 -0.8716 -0.5250  0.4704
 3565TIP3   OH210658   5.584   1.282   3.173 -0.1142  0.0854  0.7560
 3565TIP3    H110659   5.595   1.240   3.258 -0.7342  0.2749  0.9417
 3565TIP3    H210660   5.490   1.278   3.156 -0.0100  0.1449  0.1275
 3566TIP3   OH210661   5.204   6.008   2.767 -0.1966  0.0640 -0.0616
 3566TIP3    H110662   5.273   5.944   2.749 -0.0833  0.0652  0.3606
 3566TIP3    H210663   5.137   5.991   2.701 -0.8566 -1.4897  0.9624
 3567TIP3   OH210664   3.565   4.579   1.359  0.2460 -0.5730 -0.1070
 3567TIP3    H110665   3.616   4.505   1.391 -2.9255 -1.6535  3.0009
 3567TIP3    H210666   3.562   4.567   1.264  2.7115 -2.3446 -0.0679
 3568TIP3   OH210667   5.319   1.229   1.820  0.1050  0.3054 -0.0531
 3568TIP3    H110668   5.226   1.208   1.831 -0.0213  1.6128  2.0506
 3568TIP3    H210669   5.319   1.320   1.789  0.6987 -0.1867 -1.5810
 3569TIP3   OH210670   4.479   5.086   2.263 -0.4918  0.5987 -0.5127
 3569TIP3    H110671   4.541   5.032   2.312 -1.5936  0.5121  0.8165
 3569TIP3    H210672   4.522   5.172   2.258  0.3974  0.1505 -0.9548
 3570TIP3   OH210673   1.233   5.803   0.966  0.5608  0.3124 -0.7468
 3570TIP3    H110674   1.297   5.737   0.994  0.1419  0.4934  0.7087
 3570TIP3    H210675   1.271   5.887   0.993  0.1199  0.4901 -0.6621
 3571TIP3   OH210676   1.755   2.740   0.719 -0.4464  0.1558 -0.2224
 3571TIP3    H110677   1.820   2.797   0.678 -1.3209 -0.8759 -3.3428
 3571TIP3    H210678   1.685   2.799   0.746  0.4776  0.9641  0.4492
 3572TIP3   OH210679   6.287   3.633   0.521  0.5092  0.5600 -0.0433
 3572TIP3    H110680   6.322   3.707   0.571  1.7966 -0.6350  0.8767
 3572TIP3    H210681   6.349   3.621   0.450  0.1782  0.4815 -0.3244
 3573TIP3   OH210682   1.590   3.459   5.301  0.3679  0.8439  0.2660
 3573TIP3    H110683   1.678   3.498   5.293  0.3593  1.2038  1.7401
 3573TIP3    H210684   1.535   3.515   5.247  0.7361  1.6877  0.7424
 3574TIP3   OH210685   3.689   4.279   3.353  0.5361 -0.0784  0.7544
 3574TIP3    H110686   3.604   4.267   3.311  0.4669 -0.7248  1.0764
 3574TIP3    H210687   3.688   4.371   3.381 -0.1948 -0.1751  1.0643
 3575TIP3   OH210688   2.704   2.545   3.839 -0.4061  0.2397 -0.3005
 3575TIP3    H110689   2.621   2.519   3.799  0.6099 -2.6885 -0.7448
 3575TIP3    H210690   2.763   2.472   3.822  1.7733  1.4227  1.5687
 3576TIP3   OH210691   0.536   3.789   5.099 -0.1409  0.0684 -0.2494
 3576TIP3    H110692   0.583   3.866   5.067 -0.4372  0.3060 -0.1180
 3576TIP3    H210693   0.491   3.820   5.178 -1.0192  0.0105 -0.7168
 3577TIP3   OH210694   2.670   5.297   1.747  0.0175  0.4504  0.4089
 3577TIP3    H110695   2.577   5.280   1.737  0.2068 -0.7091  0.5323
 3577TIP3    H210696   2.711   5.253   1.673  0.4679  1.0755  0.2753
 3578TIP3   OH210697   1.565   6.608   2.844  0.3151 -0.6849  0.8749
 3578TIP3    H110698   1.590   6.619   2.936  2.1611  1.6195  0.2093
 3578TIP3    H210699   1.646   6.581   2.801 -0.2283 -0.5098 -0.2751
 3579TIP3   OH210700   5.864   0.674   1.935  0.4812 -0.0067  0.2591
 3579TIP3    H110701   5.831   0.759   1.964 -0.7764 -0.4972  0.3214
 3579TIP3    H210702   5.867   0.621   2.014  1.8108  0.1366  0.3188
 3580TIP3   OH210703   3.555   1.690   2.296  0.0683  0.4701 -0.3781
 3580TIP3    H110704   3.555   1.786   2.287  2.4087  0.4129 -1.7960
 3580TIP3    H210705   3.626   1.673   2.358 -0.1556 -0.3559 -0.3469
 3581TIP3   OH210706   5.332   6.646   0.105 -0.7892 -0.0987  0.1111
 3581TIP3    H110707   5.286   6.706   0.162 -1.9888 -0.0480 -0.8681
 3581TIP3    H210708   5.382   6.590   0.164 -0.5626  1.1106  1.0887
 3582TIP3   OH210709   6.349   5.224   2.696 -0.3167 -0.6403  0.4796
 3582TIP3    H110710   6.387   5.221   2.608  0.0488 -2.5508  0.6454
 3582TIP3    H210711   6.258   5.253   2.682 -0.1576 -0.5673 -0.4769
 3583TIP3   OH210712   0.270   2.872   0.062  0.0757  0.4651  0.4095
 3583TIP3    H110713   0.222   2.844  -0.016  0.8099 -2.0835  0.7985
 3583TIP3    H210714   0.221   2.948   0.094 -0.7060  1.0883 -2.0312
 3584TIP3   OH210715   0.926   5.357   0.944 -0.0637 -0.3385  0.2846
 3584TIP3    H110716   0.833   5.332   0.942 -0.7062  1.6026  1.6220
 3584TIP3    H210717   0.943   5.392   0.857 -1.0585  0.6274  0.4456
 3585TIP3   OH210718   0.656   2.703   0.800 -0.3622 -0.0653 -0.1707
 3585TIP3    H110719   0.678   2.700   0.893 -0.0552 -1.9421 -0.2693
 3585TIP3    H210720   0.560   2.702   0.797 -0.3708 -0.4959  0.1338
 3586TIP3   OH210721   1.616   6.761   3.359  0.4293  0.8261  0.4005
 3586TIP3    H110722   1.599   6.676   3.399  2.3046  0.8358  1.3243
 3586TIP3    H210723   1.532   6.806   3.362 -0.3769 -0.6329  0.7486
 3587TIP3   OH210724   0.583   6.049   3.325 -0.3695 -0.1748 -0.4742
 3587TIP3    H110725   0.500   6.087   3.297 -1.2939 -0.9986  1.0349
 3587TIP3    H210726   0.559   5.982   3.389  1.4555 -0.5185 -0.0856
 3588TIP3   OH210727   2.622   5.615   5.256  0.7068 -0.6529 -0.0857
 3588TIP3    H110728   2.667   5.694   5.286 -1.0804  0.2368  0.3912
 3588TIP3    H210729   2.674   5.543   5.292  2.5733  0.2628 -0.8194
 3589TIP3   OH210730   5.607   0.154   0.851  0.2533  0.0084 -0.1202
 3589TIP3    H110731   5.526   0.106   0.835  0.2670  0.0674 -0.3700
 3589TIP3    H210732   5.606   0.171   0.945 -0.4797  0.8254 -0.2657
 3590TIP3   OH210733   7.133   4.692   2.504  0.1863  0.0668 -0.3002
 3590TIP3    H110734   7.209   4.729   2.458  0.2615  0.6947  0.3121
 3590TIP3    H210735   7.092   4.634   2.440  1.0503 -0.0929 -0.7163
 3591TIP3   OH210736   1.661   4.968   4.505 -0.1371  0.3132  0.3080
 3591TIP3    H110737   1.624   4.884   4.533  0.6004 -0.5609 -1.2376
 3591TIP3    H210738   1.632   4.977   4.415 -0.0867  1.6802  0.4163
 3592TIP3   OH210739   5.370   6.516   4.831  0.0277 -0.6502 -0.1761
 3592TIP3    H110740   5.295   6.460   4.852 -2.2573  1.8833 -0.9509
 3592TIP3    H210741   5.375   6.515   4.736  0.7984 -0.5583 -0.1427
 3593TIP3   OH210742   1.980   0.818   5.333 -0.6412  0.2230  0.0939
 3593TIP3    H110743   2.045   0.879   5.299 -0.5094 -0.4260 -0.8805
 3593TIP3    H210744   1.903   0.873   5.352  0.1028  0.9604  1.0703
 3594TIP3   OH210745   3.752   6.185   2.423 -0.0817 -0.3112  0.2975
 3594TIP3    H110746   3.664   6.223   2.416 -1.1529 -2.5007  0.9535
 3594TIP3    H210747   3.783   6.179   2.332 -0.3706  0.9319  0.0947
 3595TIP3   OH210748   7.111   2.309   3.762 -0.3768 -0.0913 -0.2481
 3595TIP3    H110749   7.168   2.285   3.689 -1.8074  0.1818 -1.5257
 3595TIP3    H210750   7.169   2.346   3.828  0.9793 -0.4200 -1.2240
 3596TIP3   OH210751   5.771   1.490   5.470  0.1660 -0.1536  0.1581
 3596TIP3    H110752   5.702   1.556   5.484 -0.1976  0.2730 -3.0322
 3596TIP3    H210753   5.738   1.436   5.398  2.6711 -0.6699 -0.6689
 3597TIP3   OH210754   5.326   2.819   0.551  0.4729 -0.4143  0.2098
 3597TIP3    H110755   5.266   2.860   0.488 -1.0977 -2.4031  0.3168
 3597TIP3    H210756   5.298   2.728   0.555  4.1428 -1.7337 -0.4226
 3598TIP3   OH210757   1.612   6.745   0.726  0.1205  0.2451  0.5617
 3598TIP3    H110758   1.703   6.761   0.749  0.3962 -1.4062  0.7199
 3598TIP3    H210759   1.616   6.695   0.644 -0.7050  1.4345 -0.2491
 3599TIP3   OH210760   3.114   5.672   1.224  0.7573 -0.0694  0.3549
 3599TIP3    H110761   3.170   5.749   1.212  1.6653 -0.4965  1.6891
 3599TIP3    H210762   3.071   5.687   1.308  0.0967 -0.5209  0.1029
 3600TIP3   OH210763   2.787   4.272   5.632 -0.4618 -0.2722 -0.3682
 3600TIP3    H110764   2.878   4.242   5.643  0.4480  2.6685  1.5240
 3600TIP3    H210765   2.787   4.320   5.549 -0.8275 -1.7810 -1.2788
 3601TIP3   OH210766   3.786   5.683   0.836 -0.1202  0.0701 -0.3590
 3601TIP3    H110767   3.783   5.618   0.906 -0.2062 -0.3796 -0.7741
 3601TIP3    H210768   3.859   5.739   0.859  0.9968 -1.1368 -0.8187
 3602TIP3   OH210769   6.640   3.467   3.849 -0.0403 -0.5695  0.6097
 3602TIP3    H110770   6.725   3.465   3.805 -0.1426 -0.4015  0.4012
 3602TIP3    H210771   6.584   3.519   3.791  0.1409  0.6746  1.5145
 3603TIP3   OH210772   2.191   3.208   3.317 -0.2093 -0.3772  0.2086
 3603TIP3    H110773   2.108   3.187   3.361 -0.1620 -1.3307 -0.1320
 3603TIP3    H210774   2.204   3.136   3.255  1.4530 -0.8730  1.0663
 3604TIP3   OH210775   3.236   2.864   4.682  0.3361  0.0974  0.5716
 3604TIP3    H110776   3.157   2.917   4.688  0.1374 -0.2983  2.0058
 3604TIP3    H210777   3.204   2.773   4.687  0.6980 -0.1943 -1.4525
 3605TIP3   OH210778   3.346   3.973   3.739  0.6492  0.4579  0.3360
 3605TIP3    H110779   3.257   3.938   3.748  1.2581 -0.8002  2.0509
 3605TIP3    H210780   3.334   4.068   3.736 -0.6803  0.4228  2.3679
 3606TIP3   OH210781   3.483   4.650   0.770  0.2379 -0.2340  0.1410
 3606TIP3    H110782   3.564   4.638   0.819  0.4699  0.3912 -0.0908
 3606TIP3    H210783   3.414   4.624   0.833  0.6307 -1.3829  0.1272
 3607TIP3   OH210784   3.497   1.764   1.570  0.0654 -0.0132 -0.1247
 3607TIP3    H110785   3.413   1.769   1.616  0.7868 -0.3136  1.2842
 3607TIP3    H210786   3.478   1.713   1.492 -0.9005 -0.8144  0.6026
 3608TIP3   OH210787   6.395   0.562   3.465 -0.0914 -0.2919 -0.3974
 3608TIP3    H110788   6.408   0.637   3.523 -0.6103  0.9272 -1.7994
 3608TIP3    H210789   6.475   0.511   3.473  1.0167  1.3333 -0.7116
 3609TIP3   OH210790   4.940   5.070   1.228 -0.0388  0.4906 -0.5219
 3609TIP3    H110791   4.963   5.019   1.151  1.3618  1.5060 -0.7990
 3609TIP3    H210792   4.893   5.008   1.284  0.1068 -0.6185 -1.5891
 3610TIP3   OH210793   0.202   6.114   1.749  0.4220 -0.4518 -0.1722
 3610TIP3    H110794   0.166   6.201   1.734  0.2756 -0.5430 -0.3496
 3610TIP3    H210795   0.128   6.054   1.740  0.6749 -0.6781 -0.9374
 3611TIP3   OH210796   2.046   0.539   3.089 -0.1901  0.0317 -0.2541
 3611TIP3    H110797   2.076   0.457   3.050  1.9118  1.0277 -0.9192
 3611TIP3    H210798   2.014   0.590   3.015 -0.5299  0.2163  0.0151
 3612TIP3   OH210799   4.351   6.023   3.370  0.2662  0.4052 -0.1916
 3612TIP3    H110800   4.388   5.941   3.337  2.0013  0.3373  1.7360
 3612TIP3    H210801   4.257   6.008   3.370  0.3938 -0.7752 -1.8685
 3613TIP3   OH210802   3.922   1.912   4.212  0.5116 -0.6954 -0.0727
 3613TIP3    H110803   3.849   1.922   4.151  1.5422 -0.3201 -1.2889
 3613TIP3    H210804   3.997   1.895   4.156  1.9677  2.0666  0.8540
 3614TIP3   OH210805   1.538   6.579   0.488 -0.6277  0.0109 -0.1526
 3614TIP3    H110806   1.486   6.643   0.440  0.7274  0.9666 -0.3920
 3614TIP3    H210807   1.498   6.495   0.466 -1.0574  0.5791 -1.6418
 3615TIP3   OH210808   0.749   0.419   4.824  0.1658 -0.7160  0.0102
 3615TIP3    H110809   0.695   0.458   4.755 -0.0183  0.2432  0.6736
 3615TIP3    H210810   0.777   0.493   4.877  2.4500 -1.1211 -0.5001
 3616TIP3   OH210811   1.040   5.310   2.251  0.0007 -0.4307  0.0495
 3616TIP3    H110812   1.092   5.296   2.172  0.4707 -1.4630  0.5327
 3616TIP3    H210813   1.081   5.386   2.293  1.3267 -1.3928  0.5673
 3617TIP3   OH210814   5.165   5.727   3.376  0.2187  0.3947 -0.1141
 3617TIP3    H110815   5.234   5.661   3.367 -0.0491  0.2094 -0.9201
 3617TIP3    H210816   5.212   5.807   3.402  0.8590  0.4759 -1.4292
 3618TIP3   OH210817   2.926   2.920   0.718 -0.8770 -0.2727 -0.1012
 3618TIP3    H110818   2.870   2.996   0.706  0.7277  1.4639  2.3480
 3618TIP3    H210819   3.014   2.956   0.733  0.1202 -2.6300  0.2988
 3619TIP3   OH210820   1.482   1.435   1.183  0.9353 -0.0813  0.2612
 3619TIP3    H110821   1.483   1.527   1.211 -1.2845 -0.0061  0.2940
 3619TIP3    H210822   1.491   1.439   1.087 -1.9216  0.4764 -0.0995
 3620TIP3   OH210823   0.116   2.956   1.724  0.0446  0.1840  0.4147
 3620TIP3    H110824   0.143   2.873   1.762  1.0707 -1.2365 -3.0245
 3620TIP3    H210825   0.035   2.937   1.677  0.1434  1.1770 -0.2067
 3621TIP3   OH210826   2.739   1.470   2.144 -0.1297 -0.2404  0.3557
 3621TIP3    H110827   2.661   1.418   2.165  0.9462 -1.9782  0.2119
 3621TIP3    H210828   2.803   1.406   2.113  1.0958  1.2533 -0.3146
 3622TIP3   OH210829   6.061   0.462   3.976  0.2147 -0.1694 -0.0698
 3622TIP3    H110830   6.043   0.369   3.989 -1.6072  0.0284 -0.9137
 3622TIP3    H210831   6.112   0.466   3.895  1.5023 -0.4874  0.6782
 3623TIP3   OH210832   6.085   0.178   3.947 -0.1961 -0.3938 -0.3063
 3623TIP3    H110833   6.084   0.086   3.974 -3.2708  0.0370  1.5488
 3623TIP3    H210834   6.031   0.180   3.868 -0.5452 -0.1351 -0.0642
 3624TIP3   OH210835   6.933   4.088   1.058  0.0771 -0.3631  0.1801
 3624TIP3    H110836   6.996   4.037   1.108  0.2448 -0.0891  0.2476
 3624TIP3    H210837   6.917   4.035   0.979  0.6973 -0.2395 -0.0324
 3625TIP3   OH210838   2.618   5.419   3.574 -0.8166 -0.8891 -0.5173
 3625TIP3    H110839   2.655   5.351   3.630  1.3002  1.0618  0.6392
 3625TIP3    H210840   2.688   5.441   3.513 -0.3687  2.0426  0.8954
 3626TIP3   OH210841   1.220   6.645   3.974 -0.3145  0.2520 -0.4975
 3626TIP3    H110842   1.156   6.630   4.043  0.9219  0.8019  0.8278
 3626TIP3    H210843   1.245   6.737   3.985 -0.5593  0.5349 -2.1032
 3627TIP3   OH210844   3.530   6.736   5.512 -0.7714 -0.0525  0.1863
 3627TIP3    H110845   3.533   6.818   5.463 -1.1115 -0.5302 -0.6594
 3627TIP3    H210846   3.620   6.703   5.510  0.1854  1.9279  3.4621
 3628TIP3   OH210847   0.415   6.065   1.927 -0.0185 -0.4146  0.9773
 3628TIP3    H110848   0.337   6.103   1.886  1.9832  0.8833 -2.0218
 3628TIP3    H210849   0.381   6.014   2.001 -3.5661  0.8710  0.4441
 3629TIP3   OH210850   2.949   0.930   1.961 -0.1015  0.0100 -0.1012
 3629TIP3    H110851   2.923   0.946   2.052 -0.5779 -0.6291 -0.1217
 3629TIP3    H210852   2.971   0.837   1.958 -1.4252 -0.3032 -0.9439
 3630TIP3   OH210853   5.394   4.103   4.473 -0.1248 -0.2324 -0.0952
 3630TIP3    H110854   5.356   4.075   4.390  1.7991 -1.9501 -0.4800
 3630TIP3    H210855   5.417   4.195   4.460  0.8997 -0.6967 -1.7836
 3631TIP3   OH210856   3.648   3.125   3.825 -0.4509  0.2691 -0.1272
 3631TIP3    H110857   3.646   3.074   3.906 -1.7680 -1.8763 -1.4177
 3631TIP3    H210858   3.589   3.199   3.842  0.9095  1.0516  1.5261
 3632TIP3   OH210859   5.159   3.848   0.470 -0.0973  0.0281  0.3914
 3632TIP3    H110860   5.080   3.820   0.424 -0.6642 -3.4973  3.0721
 3632TIP3    H210861   5.213   3.890   0.404 -2.3412 -1.3982 -2.5504
 3633TIP3   OH210862   4.527   1.847   5.782  0.0439 -0.6849  0.5372
 3633TIP3    H110863   4.560   1.759   5.763  0.7129 -0.6010  1.2425
 3633TIP3    H210864   4.560   1.866   5.870 -0.7370 -0.0276  0.6978
 3634TIP3   OH210865   6.198   2.296   3.965  0.3297 -0.3880  0.3952
 3634TIP3    H110866   6.135   2.227   3.982 -0.6553  0.3957  0.0462
 3634TIP3    H210867   6.210   2.294   3.870 -0.9236  0.9254  0.1836
 3635TIP3   OH210868   5.446   2.524   0.846  0.0174 -0.2312 -0.1945
 3635TIP3    H110869   5.512   2.489   0.786 -0.0350  1.8036 -1.5406
 3635TIP3    H210870   5.482   2.609   0.873 -0.5192 -0.5833  1.7618
 3636TIP3   OH210871   2.957   6.588   3.010 -0.0747 -0.5322  0.0203
 3636TIP3    H110872   3.024   6.524   3.035  0.9887  0.0469 -1.2187
 3636TIP3    H210873   2.974   6.605   2.918 -2.2667 -0.7241 -0.4662
 3637TIP3   OH210874   3.696   3.310   3.343 -0.3264  0.0269  0.8032
 3637TIP3    H110875   3.674   3.218   3.356 -1.1021  0.3343  1.8911
 3637TIP3    H210876   3.755   3.331   3.416  0.3677  0.2357  0.1912
 3638TIP3   OH210877   3.056   6.024   2.642  0.0388 -0.0878  0.4258
 3638TIP3    H110878   2.980   6.061   2.688  0.3970  0.6339  0.4477
 3638TIP3    H210879   3.018   5.966   2.576 -0.4766 -2.7035  2.8378
 3639TIP3   OH210880   1.311   0.867   4.254 -0.2184  0.2553 -0.6821
 3639TIP3    H110881   1.357   0.949   4.273  0.3379 -0.6293  2.2428
 3639TIP3    H210882   1.355   0.834   4.175  1.3985  1.4316 -0.3376
 3640TIP3   OH210883   2.824   6.662   5.640  0.1435  0.0855  0.2230
 3640TIP3    H110884   2.896   6.636   5.697  0.4478 -0.9412 -0.5745
 3640TIP3    H210885   2.865   6.715   5.572  0.2342 -0.8161 -0.4455
 3641TIP3   OH210886   6.245   1.676   1.567  0.6902  0.1714 -0.3035
 3641TIP3    H110887   6.188   1.719   1.503 -2.7183 -0.8403  1.7670
 3641TIP3    H210888   6.229   1.582   1.553  2.7798 -0.2140 -0.3522
 3642TIP3   OH210889   6.225   0.126   2.148 -0.4159  0.0309  0.2808
 3642TIP3    H110890   6.194   0.192   2.086  1.7476  0.5055 -0.3607
 3642TIP3    H210891   6.157   0.123   2.216 -1.1774  1.9680 -0.3373
 3643TIP3   OH210892   1.306   2.880   2.568 -0.3149 -0.0334  0.0613
 3643TIP3    H110893   1.375   2.934   2.607  0.3007  0.0916 -1.1732
 3643TIP3    H210894   1.331   2.790   2.589  0.0893  0.0245 -0.1667
 3644TIP3   OH210895   1.302   4.807   3.104  0.3249 -0.2299 -0.2682
 3644TIP3    H110896   1.349   4.739   3.153  1.2175 -0.4528 -1.4005
 3644TIP3    H210897   1.337   4.889   3.137  0.2951 -0.3565  0.0796
 3645TIP3   OH210898   4.271   6.463   3.084  0.5879 -0.0695 -0.0995
 3645TIP3    H110899   4.234   6.378   3.059 -0.4713  0.3426  0.0272
 3645TIP3    H210900   4.294   6.452   3.176  1.2246 -0.4738 -0.2990
 3646TIP3   OH210901   1.991   3.533   4.701  0.0468  0.8082  0.3541
 3646TIP3    H110902   2.026   3.527   4.790 -0.1790 -0.1356  0.3837
 3646TIP3    H210903   1.903   3.496   4.706  0.1141  0.5372 -0.3116
 3647TIP3   OH210904   6.012   0.933   1.813 -0.2016  0.4697 -0.6800
 3647TIP3    H110905   6.082   0.978   1.862  0.9647 -0.6772 -1.2140
 3647TIP3    H210906   6.056   0.902   1.733 -1.0824 -1.0977 -0.5890
 3648TIP3   OH210907   1.412   5.289   3.725 -0.2404 -0.1437 -0.5062
 3648TIP3    H110908   1.472   5.233   3.775  0.9080  0.2996 -1.3269
 3648TIP3    H210909   1.464   5.367   3.705 -1.1101  0.2626 -1.2491
 3649TIP3   OH210910   4.627   1.669   5.167 -0.1742 -0.4620 -0.0973
 3649TIP3    H110911   4.691   1.739   5.153  0.4083 -1.0917 -0.6306
 3649TIP3    H210912   4.571   1.702   5.237  0.6160  0.1858  0.2481
 3650TIP3   OH210913   6.880   3.908   2.095  0.0675 -0.5568  0.0925
 3650TIP3    H110914   6.902   3.871   2.180 -0.5040 -1.4990 -0.1630
 3650TIP3    H210915   6.813   3.850   2.059 -0.3255  0.3099 -0.6348
 3651TIP3   OH210916   2.935   5.969   0.182 -0.1218 -0.9338 -0.3804
 3651TIP3    H110917   2.924   5.940   0.273  0.4030 -1.5821 -0.5134
 3651TIP3    H210918   2.882   5.907   0.131  0.8098 -1.5394 -0.6444
 3652TIP3   OH210919   5.485   5.245   4.046 -0.4715  0.2780 -0.2203
 3652TIP3    H110920   5.576   5.219   4.059 -0.8086 -0.5103  0.6403
 3652TIP3    H210921   5.490   5.337   4.019  0.5996  0.0814 -0.7348
 3653TIP3   OH210922   4.376   4.234   0.044 -0.5840  0.0602 -0.0357
 3653TIP3    H110923   4.316   4.231  -0.031 -1.1216 -0.5267  0.4075
 3653TIP3    H210924   4.327   4.194   0.115  0.0506  0.3035  0.5463
 3654TIP3   OH210925   6.708   3.139   2.744  0.8060  0.3322 -0.2415
 3654TIP3    H110926   6.674   3.079   2.811 -1.3888 -0.1006 -1.6756
 3654TIP3    H210927   6.732   3.218   2.793  0.2795 -0.3592  1.1935
 3655TIP3   OH210928   3.594   1.446   0.041 -0.0253  0.2604 -0.1785
 3655TIP3    H110929   3.674   1.420  -0.005  0.0006 -0.8977  0.4703
 3655TIP3    H210930   3.528   1.454  -0.028  0.3634  0.0308 -0.5830
 3656TIP3   OH210931   6.888   5.004   5.842  0.1530 -0.4783  0.0368
 3656TIP3    H110932   6.907   5.097   5.830 -0.8284 -0.2588  0.0505
 3656TIP3    H210933   6.880   4.970   5.752 -1.5777 -0.0721  0.0058
 3657TIP3   OH210934   1.080   1.175   2.391  0.1533  0.0781  0.0479
 3657TIP3    H110935   0.997   1.199   2.351 -0.6913  0.1854  1.7628
 3657TIP3    H210936   1.056   1.118   2.464  1.6320 -0.3918  0.2075
 3658TIP3   OH210937   3.764   5.772   5.517  0.2043  0.0422 -0.4494
 3658TIP3    H110938   3.735   5.862   5.529  0.2926 -0.0240  0.3773
 3658TIP3    H210939   3.788   5.743   5.606  1.1268 -0.4683 -0.8486
 3659TIP3   OH210940   2.823   5.010   1.773 -0.4597 -0.0946  0.1498
 3659TIP3    H110941   2.825   4.993   1.679 -1.5927 -0.6831  0.2089
 3659TIP3    H210942   2.858   4.930   1.813  2.0855  0.9672  0.1943
 3660TIP3   OH210943   2.107   2.824   3.325 -0.6770  0.3693  0.4288
 3660TIP3    H110944   2.015   2.827   3.297 -0.8585  0.3700  1.0128
 3660TIP3    H210945   2.153   2.882   3.264 -0.7426 -1.0729 -1.0624
 3661TIP3   OH210946   4.289   3.595   2.749  0.0661 -0.8013  0.7382
 3661TIP3    H110947   4.343   3.577   2.672  0.4188  1.3551  0.4380
 3661TIP3    H210948   4.203   3.557   2.728  0.2627 -0.5466 -0.5629
 3662TIP3   OH210949   3.695   5.509   4.037 -0.5194  0.2262 -0.1907
 3662TIP3    H110950   3.699   5.594   3.995 -0.5164  0.0522 -0.5504
 3662TIP3    H210951   3.717   5.526   4.129 -1.2699  0.7187 -0.0929
 3663TIP3   OH210952   1.939   1.357   3.034 -0.2404 -0.3825 -0.3453
 3663TIP3    H110953   1.989   1.279   3.058  1.5578  0.9093  0.3688
 3663TIP3    H210954   1.871   1.364   3.101  0.9283 -0.1851  0.8609
 3664TIP3   OH210955   2.689   2.903   4.242 -0.7643 -0.3285 -0.0709
 3664TIP3    H110956   2.651   2.991   4.240  0.4368  0.2217 -2.1892
 3664TIP3    H210957   2.630   2.850   4.189  1.0883  0.4808 -3.1920
 3665TIP3   OH210958   2.255   6.747   2.300 -0.5227 -0.2331  0.3003
 3665TIP3    H110959   2.335   6.763   2.251 -0.2465  0.7728  1.0466
 3665TIP3    H210960   2.226   6.660   2.272 -0.0840  0.0900 -1.2060
 3666TIP3   OH210961   2.132   3.107   4.384  0.4774 -0.0656  0.2315
 3666TIP3    H110962   2.089   3.116   4.299  3.9488 -0.3212 -1.7383
 3666TIP3    H210963   2.148   3.197   4.412  0.6931  0.0253 -0.1723
 3667TIP3   OH210964   2.644   1.696   3.762  0.3072  0.2702 -0.2577
 3667TIP3    H110965   2.729   1.679   3.720  0.9258  0.3086  0.9243
 3667TIP3    H210966   2.664   1.696   3.855 -0.9113  0.8389  0.0146
 3668TIP3   OH210967   1.942   6.057   3.332  0.6405 -0.0823  0.2656
 3668TIP3    H110968   2.016   6.069   3.273  0.6333  0.8179  0.4215
 3668TIP3    H210969   1.937   5.962   3.345  2.1640 -0.1181  0.7682
 3669TIP3   OH210970   1.688   6.699   3.111  0.3251 -0.1827  0.2619
 3669TIP3    H110971   1.779   6.676   3.131  0.5185  1.6688  1.8821
 3669TIP3    H210972   1.646   6.704   3.197 -1.1531 -0.3548 -0.4222
 3670TIP3   OH210973   0.889   4.383   2.381  0.1845  0.0360 -0.4509
 3670TIP3    H110974   0.911   4.435   2.303  1.5937  0.7924  0.4066
 3670TIP3    H210975   0.802   4.413   2.405  0.5298  1.2485 -0.6158
 3671TIP3   OH210976   4.319   3.917   0.841  0.4793 -0.2999  0.4456
 3671TIP3    H110977   4.380   3.949   0.774  0.7438  1.2559  1.3873
 3671TIP3    H210978   4.308   3.824   0.820  1.3093 -0.0790 -1.1654
 3672TIP3   OH210979   4.202   5.452   3.569 -0.0089  0.4059 -0.2121
 3672TIP3    H110980   4.296   5.436   3.573 -0.0168  0.6309  1.6730
 3672TIP3    H210981   4.171   5.439   3.659 -1.6424  1.1928 -0.6195
 3673TIP3   OH210982   0.149   6.021   2.265 -0.5589  0.5685  0.3248
 3673TIP3    H110983   0.089   6.040   2.193 -0.7039  0.7696  0.4968
 3673TIP3    H210984   0.105   6.055   2.342 -0.4556  0.2468  0.5260
 3674TIP3   OH210985   0.725   1.330   1.415  0.1146 -1.0547  0.1862
 3674TIP3    H110986   0.683   1.245   1.400 -0.1009 -0.7815 -0.8193
 3674TIP3    H210987   0.684   1.389   1.352  1.8007 -0.7056 -0.6632
 3675TIP3   OH210988   0.169   2.651   0.366  0.0285  0.2355  0.2347
 3675TIP3    H110989   0.180   2.560   0.340 -1.2216 -0.6088  2.4243
 3675TIP3    H210990   0.219   2.659   0.448  0.5610  1.6848 -0.1919
 3676TIP3   OH210991   1.380   1.167   4.290  0.1943 -0.0348  0.6915
 3676TIP3    H110992   1.297   1.130   4.259  1.0591 -0.7337 -0.8886
 3676TIP3    H210993   1.364   1.185   4.383 -1.4146 -1.0537  0.6583
 3677TIP3   OH210994   4.648   0.180   2.998  0.0482 -0.3720 -0.1944
 3677TIP3    H110995   4.686   0.104   2.956 -1.4691  0.2307 -2.8645
 3677TIP3    H210996   4.608   0.146   3.078  3.2163 -1.5334  1.0515
 3678TIP3   OH210997   4.850   4.439   5.623  0.1951  0.4094 -0.8330
 3678TIP3    H110998   4.893   4.523   5.636 -0.5741  0.8328 -0.9735
 3678TIP3    H210999   4.846   4.400   5.711  2.5817 -0.5213 -1.0664
 3679TIP3   OH211000   6.950   2.378   3.454 -0.1413 -0.4311 -0.2043
 3679TIP3    H111001   6.861   2.387   3.486 -0.4425  0.7619 -1.3197
 3679TIP3    H211002   6.942   2.320   3.377 -0.2596  1.1471 -1.4222
 3680TIP3   OH211003   4.304   5.134   3.085  0.0769 -0.0830 -0.6807
 3680TIP3    H111004   4.360   5.211   3.086  2.0974 -1.4892 -0.1173
 3680TIP3    H211005   4.355   5.067   3.040 -0.5217 -1.8272  1.0658
 3681TIP3   OH211006   6.768   5.869   2.602  0.2909 -0.0896  0.4390
 3681TIP3    H111007   6.827   5.922   2.548  0.6683 -0.9478 -0.0265
 3681TIP3    H211008   6.700   5.841   2.541 -0.3860  0.5593  0.8826
 3682TIP3   OH211009   4.690   4.202   1.204  0.6988 -0.2849  0.7395
 3682TIP3    H111010   4.776   4.244   1.207  0.3804  0.5690 -0.7824
 3682TIP3    H211011   4.629   4.272   1.180 -0.3142 -1.0193  1.0649
 3683TIP3   OH211012   2.233   3.350   0.386 -0.4270 -0.2468 -0.2665
 3683TIP3    H111013   2.257   3.284   0.451  1.6267  0.5823 -0.1237
 3683TIP3    H211014   2.269   3.432   0.420  0.3673  0.2774 -2.2644
 3684TIP3   OH211015   2.219   2.953   5.573 -0.0308 -0.3421  0.1149
 3684TIP3    H111016   2.304   2.951   5.528 -0.7300  1.3616 -1.3887
 3684TIP3    H211017   2.172   2.877   5.538  0.2123 -0.2677 -0.3764
 3685TIP3   OH211018   0.388   3.463   4.552  0.1192  0.2775  0.4042
 3685TIP3    H111019   0.480   3.467   4.578  0.0345  0.1325  0.7244
 3685TIP3    H211020   0.355   3.551   4.568 -0.2334 -0.1002  1.9117
 3686TIP3   OH211021   0.111   6.035   0.966 -0.2473  0.1378  0.2046
 3686TIP3    H111022   0.106   5.975   0.892 -0.7810  0.0148  0.3349
 3686TIP3    H211023   0.171   5.993   1.028  0.2042  0.2446 -0.1585
 3687TIP3   OH211024   1.767   6.367   3.180  0.9103  0.0283 -0.1444
 3687TIP3    H111025   1.820   6.292   3.152  1.9607  0.9040 -0.5518
 3687TIP3    H211026   1.819   6.443   3.158  0.0990  0.8826  0.7788
 3688TIP3   OH211027   2.905   2.129   4.263 -0.7306 -0.9918  0.3410
 3688TIP3    H111028   2.856   2.210   4.253 -1.1201 -1.3351 -0.6853
 3688TIP3    H211029   2.844   2.060   4.236  0.2225 -1.4477 -0.7417
 3689TIP3   OH211030   7.079   5.138   1.160  0.5315  0.2200 -0.3440
 3689TIP3    H111031   7.019   5.188   1.106  1.1319  0.3825 -0.8749
 3689TIP3    H211032   7.099   5.196   1.234 -0.7460 -0.2271  0.3888
 3690TIP3   OH211033   4.534   0.083   4.460  0.2500 -0.4191  0.5327
 3690TIP3    H111034   4.552   0.105   4.369 -0.1321 -3.6603 -0.4643
 3690TIP3    H211035   4.444   0.112   4.475 -0.4505 -1.7459 -0.8694
 3691TIP3   OH211036   3.439   1.225   1.574  0.4726  0.2444  0.6073
 3691TIP3    H111037   3.418   1.206   1.666  1.1090 -2.6870  0.2160
 3691TIP3    H211038   3.377   1.172   1.524  1.2259  0.5385 -0.6708
 3692TIP3   OH211039   0.810   2.603   2.867  0.0233  0.1771  0.0464
 3692TIP3    H111040   0.816   2.680   2.811  1.6328  0.9198  1.1813
 3692TIP3    H211041   0.871   2.620   2.939  1.5526 -2.7788 -0.3983
 3693TIP3   OH211042   6.802   2.658   5.826  0.1895 -0.0597  0.6283
 3693TIP3    H111043   6.724   2.630   5.875 -0.0659  0.1305  0.3382
 3693TIP3    H211044   6.873   2.656   5.890  0.0389 -0.6775  0.7876
 3694TIP3   OH211045   0.688   5.431   4.881  0.7112 -0.2477  0.6682
 3694TIP3    H111046   0.745   5.364   4.844 -1.4964 -2.3300  0.7692
 3694TIP3    H211047   0.704   5.427   4.975  1.0216 -0.1774  0.6197
 3695TIP3   OH211048   0.171   4.131   0.597 -0.1004 -0.1066  0.2342
 3695TIP3    H111049   0.097   4.191   0.594  0.7009  1.0344  1.8215
 3695TIP3    H211050   0.135   4.050   0.631 -0.7785  0.1525  0.1487
 3696TIP3   OH211051   2.151   6.098   4.992 -0.0454 -0.0801 -0.0865
 3696TIP3    H111052   2.238   6.138   4.998 -0.1731  0.0329  1.5196
 3696TIP3    H211053   2.099   6.162   4.944  0.8329 -0.3307 -1.4378
 3697TIP3   OH211054   4.770   4.115   0.124  0.3618  0.2604 -0.3281
 3697TIP3    H111055   4.766   4.165   0.043 -0.1430  0.3276 -0.2632
 3697TIP3    H211056   4.810   4.176   0.187  0.4945  0.3033 -0.4529
 3698TIP3   OH211057   3.764   4.688   1.911  0.1089 -0.3429  0.1128
 3698TIP3    H111058   3.701   4.617   1.924  0.5659 -1.0122 -1.0726
 3698TIP3    H211059   3.720   4.766   1.943 -1.0303 -0.9122 -0.0122
 3699TIP3   OH211060   2.853   6.012   4.297 -0.4982 -0.6870 -0.1708
 3699TIP3    H111061   2.914   6.020   4.370 -0.3420 -0.5328 -0.3188
 3699TIP3    H211062   2.833   5.919   4.292 -1.5106 -0.5586  0.8932
 3700TIP3   OH211063   3.160   2.394   4.381  0.0884 -0.2160  0.1872
 3700TIP3    H111064   3.227   2.430   4.323  0.3628  1.6916  1.5796
 3700TIP3    H211065   3.167   2.300   4.371  0.7213  0.0283 -2.1759
 3701TIP3   OH211066   3.517   0.967   3.511  0.2507 -0.2398  0.3419
 3701TIP3    H111067   3.542   0.930   3.596 -0.3614 -1.1215  0.1599
 3701TIP3    H211068   3.542   0.899   3.448  1.3721  0.7102 -0.2741
 3702TIP3   OH211069   6.101   3.561   2.767 -0.5353  0.1734  0.0776
 3702TIP3    H111070   6.102   3.492   2.701 -0.1680 -0.0114  0.2682
 3702TIP3    H211071   6.009   3.580   2.781 -0.5996  1.2972 -1.5994
 3703TIP3   OH211072   1.959   6.545   5.524 -0.0396 -0.1355 -0.1974
 3703TIP3    H111073   1.985   6.465   5.477  1.9018 -0.6470  1.6169
 3703TIP3    H211074   1.864   6.550   5.509 -0.2261 -2.7183 -0.4907
 3704TIP3   OH211075   5.653   6.755   1.840  0.8434  0.2193 -0.0009
 3704TIP3    H111076   5.623   6.668   1.812 -0.9676  0.8411 -0.1336
 3704TIP3    H211077   5.653   6.751   1.935  0.8129  0.0679 -0.0065
 3705TIP3   OH211078   4.349   3.819   0.274 -0.4744  0.2239  0.5905
 3705TIP3    H111079   4.427   3.868   0.249 -0.4354  0.1314  0.5349
 3705TIP3    H211080   4.361   3.732   0.237  0.0239 -0.2131  1.7135
 3706TIP3   OH211081   1.457   5.769   5.478 -0.0732  0.1897  0.3383
 3706TIP3    H111082   1.440   5.745   5.388 -0.5181  0.1251  0.4345
 3706TIP3    H211083   1.552   5.774   5.485 -0.0022 -0.6833  0.1000
 3707TIP3   OH211084   1.096   0.247   4.851  0.3176  0.0598 -0.4884
 3707TIP3    H111085   1.006   0.228   4.824  0.0517  0.3188  0.1869
 3707TIP3    H211086   1.150   0.195   4.792 -0.2709 -0.0195 -0.9702
 3708TIP3   OH211087   1.224   2.894   2.286 -0.3213  0.2249 -0.3715
 3708TIP3    H111088   1.242   2.869   2.377 -0.7453  0.5020 -0.2082
 3708TIP3    H211089   1.309   2.891   2.243  0.3393  2.6031  0.6319
 3709TIP3   OH211090   3.925   2.759   3.450 -0.2682 -0.0547  0.2078
 3709TIP3    H111091   3.881   2.813   3.516 -1.8448 -0.4208 -0.5097
 3709TIP3    H211092   3.927   2.815   3.372  0.5954 -0.0347  0.2344
 3710TIP3   OH211093   5.909   2.181   2.117  0.0797  0.7232 -0.3815
 3710TIP3    H111094   5.878   2.240   2.185  0.9152  0.4098  0.2943
 3710TIP3    H211095   5.942   2.105   2.165 -0.9420 -0.2900 -1.2293
 3711TIP3   OH211096   1.031   5.464   0.686 -0.6405 -0.3708  0.3878
 3711TIP3    H111097   0.980   5.467   0.605  1.2023  0.4123 -0.8238
 3711TIP3    H211098   1.063   5.553   0.698 -0.6254 -0.5456  1.8224
 3712TIP3   OH211099   0.414   1.894   5.795 -0.1937 -0.3409  0.0835
 3712TIP3    H111100   0.458   1.860   5.717 -0.7876 -1.8560  0.3743
 3712TIP3    H211101   0.321   1.879   5.779 -0.5561  1.6064  0.0519
 3713TIP3   OH211102   2.165   3.430   3.549 -0.3624 -0.1482  0.0833
 3713TIP3    H111103   2.117   3.467   3.623 -0.1915  1.1809 -0.4495
 3713TIP3    H211104   2.233   3.494   3.529  0.8463 -1.3996  0.0028
 3714TIP3   OH211105   1.584   2.616   3.352  0.2866  0.3958 -0.8645
 3714TIP3    H111106   1.522   2.592   3.421  0.1264 -0.4852 -1.3012
 3714TIP3    H211107   1.645   2.676   3.394 -0.5463  0.8572 -0.2834
 3715TIP3   OH211108   4.741   0.167   5.292  0.2606 -0.2769 -0.2636
 3715TIP3    H111109   4.786   0.148   5.374 -1.1466 -0.2094  0.5668
 3715TIP3    H211110   4.796   0.129   5.224  0.8765 -1.3639  0.8165
 3716TIP3   OH211111   0.277   3.152   4.201  0.4423  0.1392  0.3220
 3716TIP3    H111112   0.349   3.151   4.264  0.1104  0.5673  0.7200
 3716TIP3    H211113   0.247   3.061   4.196 -0.4361  0.2998  1.8642
 3717TIP3   OH211114   1.106   5.725   0.709  0.1991 -0.3598 -0.0536
 3717TIP3    H111115   1.153   5.766   0.782  0.9330 -0.5872 -0.3844
 3717TIP3    H211116   1.044   5.791   0.680  0.5920  0.1015  0.1416
 3718TIP3   OH211117   0.325   3.506   0.750 -0.1886  0.5666 -0.0065
 3718TIP3    H111118   0.416   3.499   0.720  0.0321  1.8470  0.3325
 3718TIP3    H211119   0.296   3.591   0.719 -0.9833  0.5594  0.6902
 3719TIP3   OH211120   2.393   0.840   5.766 -0.0934 -0.0554 -0.0294
 3719TIP3    H111121   2.423   0.785   5.694  1.1582 -0.6306  0.9172
 3719TIP3    H211122   2.461   0.906   5.776 -1.1008  1.0868 -0.4907
 3720TIP3   OH211123   2.451   0.881   5.314 -0.2931  0.0741  0.3179
 3720TIP3    H111124   2.505   0.815   5.358 -0.4599  0.9545  1.9314
 3720TIP3    H211125   2.391   0.912   5.382  0.5074  2.6631 -0.0382
 3721TIP3   OH211126   5.477   3.351   5.076 -0.1098  0.4880  0.1938
 3721TIP3    H111127   5.500   3.442   5.058 -1.2407  0.5897 -0.8621
 3721TIP3    H211128   5.558   3.302   5.061  0.8125  1.4119  1.8472
 3722TIP3   OH211129   4.580   4.197   0.461  0.3320  0.4769  0.7983
 3722TIP3    H111130   4.584   4.162   0.372  0.8996 -0.5304  1.2019
 3722TIP3    H211131   4.522   4.273   0.455 -0.3727 -0.1305 -0.2405
 3723TIP3   OH211132   2.860   1.903   4.022  0.3487  0.1198  0.4630
 3723TIP3    H111133   2.801   1.856   4.081 -1.5785  0.0993 -1.3693
 3723TIP3    H211134   2.916   1.834   3.985 -2.5465 -0.9485 -2.3113
 3724TIP3   OH211135   6.546   4.780   4.891 -0.1761  0.0890  0.1632
 3724TIP3    H111136   6.603   4.750   4.820 -1.5770  2.5951 -2.2380
 3724TIP3    H211137   6.593   4.855   4.928 -0.1079 -0.3407  0.9635
 3725TIP3   OH211138   3.149   2.114   3.380  0.0955  0.1525 -0.1881
 3725TIP3    H111139   3.207   2.085   3.309  0.7511  1.3334 -0.1664
 3725TIP3    H211140   3.189   2.196   3.410  1.3240 -1.5303  3.2759
 3726TIP3   OH211141   2.578   0.149   4.620  0.5576  0.6606  0.1666
 3726TIP3    H111142   2.636   0.185   4.553 -0.3900 -2.4098 -2.5566
 3726TIP3    H211143   2.631   0.085   4.667  0.5962  1.2286  0.9311
 3727TIP3   OH211144   5.452   6.483   4.212 -0.3107 -0.2414  0.4571
 3727TIP3    H111145   5.459   6.577   4.232 -1.0296 -0.3547  1.3299
 3727TIP3    H211146   5.454   6.479   4.117  0.2931  0.6075  0.4188
 3728TIP3   OH211147   0.430   1.781   4.763 -0.4176  0.5884 -0.2103
 3728TIP3    H111148   0.454   1.845   4.696 -0.6759  0.5980 -0.2955
 3728TIP3    H211149   0.338   1.759   4.744 -0.1463 -0.2851 -0.5740
 3729TIP3   OH211150   4.445   6.557   4.528 -0.5146  0.3394 -0.3225
 3729TIP3    H111151   4.423   6.491   4.462  0.1081  0.6338 -0.8427
 3729TIP3    H211152   4.484   6.628   4.478 -0.4645  0.7724  0.3197
 3730TIP3   OH211153   4.428   3.171   3.340 -0.0286 -0.6916  0.4722
 3730TIP3    H111154   4.398   3.107   3.405 -0.3816 -1.6041 -0.5498
 3730TIP3    H211155   4.354   3.180   3.280  0.3161  0.0757  0.1513
 3731TIP3   OH211156   5.420   2.364   4.974  0.4226  0.2509  0.0835
 3731TIP3    H111157   5.502   2.360   5.023  1.3704  0.7791 -1.4046
 3731TIP3    H211158   5.417   2.453   4.939 -0.2570 -0.0867 -0.7554
 3732TIP3   OH211159   3.396   3.879   1.125 -0.2348  0.4345 -0.1235
 3732TIP3    H111160   3.420   3.852   1.213 -1.3875  0.8872  0.3514
 3732TIP3    H211161   3.306   3.849   1.115  0.2388 -0.6222 -1.5804
 3733TIP3   OH211162   6.364   6.454   2.878  0.2102  0.6016 -0.4383
 3733TIP3    H111163   6.279   6.496   2.866 -0.4312 -0.3636  0.5047
 3733TIP3    H211164   6.390   6.426   2.790  0.0198  1.7382 -0.8756
 3734TIP3   OH211165   1.437   4.993   5.233 -0.2319 -0.0576  0.5062
 3734TIP3    H111166   1.415   5.063   5.171 -0.2227  0.2411  0.8392
 3734TIP3    H211167   1.352   4.963   5.266 -0.2387 -0.2402  0.3253
 3735TIP3   OH211168   2.557   4.783   1.561 -0.1480  0.2699 -0.0301
 3735TIP3    H111169   2.529   4.834   1.485  0.8202 -0.4065 -0.8608
 3735TIP3    H211170   2.528   4.694   1.542 -0.0010  0.1137  0.4625
 3736TIP3   OH211171   3.000   1.502   0.685  0.3436  0.3457 -0.2648
 3736TIP3    H111172   2.921   1.460   0.649  0.1804  0.3921  0.0411
 3736TIP3    H211173   3.046   1.535   0.607  1.1513 -1.5474 -0.6287
 3737TIP3   OH211174   0.483   4.799   2.808  0.0717 -0.6693  0.6762
 3737TIP3    H111175   0.472   4.779   2.901  1.3772  1.1027  1.2674
 3737TIP3    H211176   0.412   4.860   2.787  0.8160  0.3320  1.0044
 3738TIP3   OH211177   4.336   0.427   4.092  0.2526 -0.7124  0.0150
 3738TIP3    H111178   4.285   0.493   4.045 -0.6455 -0.0465  1.8231
 3738TIP3    H211179   4.427   0.446   4.068 -0.1436 -0.2360 -1.2069
 3739TIP3   OH211180   4.062   5.165   0.209  0.1757  0.0626 -0.2246
 3739TIP3    H111181   3.977   5.138   0.241 -0.1391  0.3833 -0.7746
 3739TIP3    H211182   4.118   5.167   0.286 -0.0486 -1.1643 -0.0241
 3740TIP3   OH211183   2.165   4.895   3.100  0.5854 -0.1363  0.3066
 3740TIP3    H111184   2.202   4.821   3.148 -0.5926 -0.4376  0.7897
 3740TIP3    H211185   2.216   4.971   3.130  1.0865 -0.5924  0.6254
 3741TIP3   OH211186   7.039   4.264   4.186 -0.4428  0.1541 -0.7433
 3741TIP3    H111187   6.954   4.288   4.224 -0.5760 -0.1074 -0.8775
 3741TIP3    H211188   7.021   4.185   4.135 -0.4264  0.9039 -1.9460
 3742TIP3   OH211189   4.436   6.722   3.971  0.0180  0.1861  0.2685
 3742TIP3    H111190   4.416   6.728   3.877 -1.0651  0.4618  0.5006
 3742TIP3    H211191   4.486   6.801   3.990  0.8829 -0.2309 -0.2172
 3743TIP3   OH211192   2.523   4.651   4.589 -0.0572  0.2980  0.0243
 3743TIP3    H111193   2.613   4.638   4.560 -0.4034 -1.4361 -0.4547
 3743TIP3    H211194   2.519   4.610   4.675 -0.4209  0.1614 -0.0529
 3744TIP3   OH211195   6.051   4.272   0.189  0.0159  0.1236 -0.0102
 3744TIP3    H111196   6.130   4.320   0.164 -1.3525  1.8074 -1.4397
 3744TIP3    H211197   6.028   4.307   0.275  0.5037  0.0244  0.1657
 3745TIP3   OH211198   3.310   5.512   1.375  0.1729  0.2050  1.0438
 3745TIP3    H111199   3.242   5.482   1.436  0.6026  0.6958  1.7762
 3745TIP3    H211200   3.271   5.588   1.332 -0.8950 -1.2655 -0.7713
 3746TIP3   OH211201   3.444   2.728   0.845  0.5100 -0.5115 -0.8010
 3746TIP3    H111202   3.402   2.671   0.780  1.7413 -1.2200 -1.0155
 3746TIP3    H211203   3.484   2.667   0.907 -3.0294  0.0446  2.3942
 3747TIP3   OH211204   5.196   4.923   3.258  0.3112  0.1382 -0.6106
 3747TIP3    H111205   5.192   4.951   3.349 -1.1040  1.6156 -1.0743
 3747TIP3    H211206   5.290   4.915   3.239  0.6245 -0.0332  0.8980
 3748TIP3   OH211207   2.050   0.644   0.887  0.6369  0.3342 -0.1529
 3748TIP3    H111208   2.081   0.728   0.921  0.5897  0.1142  0.4381
 3748TIP3    H211209   1.991   0.611   0.955  1.8645 -0.9097  0.3308
 3749TIP3   OH211210   4.187   6.169   3.004  0.4683  0.0790 -0.0749
 3749TIP3    H111211   4.172   6.130   2.918  1.0006  3.0630 -1.6811
 3749TIP3    H211212   4.274   6.139   3.030  0.4629 -0.5553 -0.7664
 3750TIP3   OH211213   4.276   2.074   3.093 -0.4402 -0.3816 -0.3367
 3750TIP3    H111214   4.194   2.030   3.116 -1.6818  1.8743 -0.0721
 3750TIP3    H211215   4.273   2.081   2.998 -1.0541  0.4755 -0.2752
 3751TIP3   OH211216   6.030   4.645   0.335 -0.8817  0.5003  0.5253
 3751TIP3    H111217   5.994   4.734   0.328  1.4217  1.3730 -1.9141
 3751TIP3    H211218   5.975   4.593   0.277 -1.1633  0.7026  0.6039
 3752TIP3   OH211219   2.548   5.806   1.904 -0.2586  0.1255 -0.2460
 3752TIP3    H111220   2.524   5.832   1.815  1.5751 -0.9518 -1.1199
 3752TIP3    H211221   2.624   5.750   1.893  1.4349  1.7243  2.1467
 3753TIP3   OH211222   0.978   4.267   1.080 -0.9460  0.5247  0.7504
 3753TIP3    H111223   1.036   4.341   1.099  0.8342 -0.4671 -0.5751
 3753TIP3    H211224   0.930   4.252   1.162  2.0552  0.1908  2.5896
 3754TIP3   OH211225   3.153   2.117   4.422  0.0937  0.4071  0.3062
 3754TIP3    H111226   3.070   2.110   4.374  0.6110 -3.0527 -0.3730
 3754TIP3    H211227   3.131   2.089   4.511  0.4532 -0.4943  0.1304
 3755TIP3   OH211228   1.257   2.965   1.848 -0.2523 -0.4355 -0.0752
 3755TIP3    H111229   1.312   2.918   1.784  2.0743  2.8402 -0.7875
 3755TIP3    H211230   1.275   2.922   1.931  1.0828 -1.3343 -0.7806
 3756TIP3   OH211231   6.823   2.152   3.615 -0.0526  0.1912  0.3424
 3756TIP3    H111232   6.778   2.234   3.595  1.3670  1.3011  1.4879
 3756TIP3    H211233   6.800   2.093   3.543  0.6198  2.2855 -1.6798
 3757TIP3   OH211234   4.359   2.276   1.796  0.1048  0.3716  0.0289
 3757TIP3    H111235   4.451   2.298   1.814  0.2719 -0.5527  0.3956
 3757TIP3    H211236   4.363   2.216   1.722  0.0843 -1.9803  1.8189
 3758TIP3   OH211237   6.107   4.656   0.906 -0.5524  0.0618  0.1487
 3758TIP3    H111238   6.090   4.647   0.812  0.8773 -0.5058 -0.0825
 3758TIP3    H211239   6.092   4.569   0.941 -1.4793  0.3646  0.5373
 3759TIP3   OH211240   4.051   2.060   1.611 -0.2906  0.3952  0.1891
 3759TIP3    H111241   4.025   2.151   1.622  0.3335  0.5803  0.1207
 3759TIP3    H211242   4.068   2.029   1.700 -0.0029  0.4903  0.1660
 3760TIP3   OH211243   5.002   1.112   2.489  0.0675  0.1795 -0.4941
 3760TIP3    H111244   4.995   1.143   2.580  1.0867 -0.0925 -0.3122
 3760TIP3    H211245   4.982   1.019   2.494  0.8517  0.0126 -0.4306
 3761TIP3   OH211246   1.287   1.112   4.557  0.1496 -0.6555 -0.4939
 3761TIP3    H111247   1.378   1.095   4.581  0.4121 -0.4414 -1.2928
 3761TIP3    H211248   1.242   1.029   4.573  0.0886 -0.2552  1.6156
 3762TIP3   OH211249   3.446   0.387   1.751 -0.3432  0.1289 -0.1604
 3762TIP3    H111250   3.500   0.460   1.780 -1.3913  0.6401  0.5690
 3762TIP3    H211251   3.430   0.404   1.658  0.7408 -0.0431 -0.3924
 3763TIP3   OH211252   4.664   6.494   1.534  0.3067 -0.2934 -0.6172
 3763TIP3    H111253   4.676   6.458   1.446 -0.6070  0.4911 -1.0828
 3763TIP3    H211254   4.584   6.547   1.527  0.6373  0.3711  0.5031
 3764TIP3   OH211255   2.195   0.454   5.515  0.7507 -0.1987  0.1170
 3764TIP3    H111256   2.150   0.537   5.533  0.7544 -0.0526 -0.5266
 3764TIP3    H211257   2.135   0.407   5.457  1.4805  0.0616 -0.8786
 3765TIP3   OH211258   1.807   1.144   4.602  0.5403 -0.1705 -0.5322
 3765TIP3    H111259   1.893   1.182   4.621  0.4848 -1.2897  2.5139
 3765TIP3    H211260   1.827   1.066   4.550  1.1056  0.9076 -1.9993
 3766TIP3   OH211261   7.048   4.539   1.426 -0.1691 -0.5311 -0.3595
 3766TIP3    H111262   6.978   4.483   1.458  0.1614 -1.0893 -0.5997
 3766TIP3    H211263   7.045   4.616   1.483 -1.3080 -0.3079 -0.6960
 3767TIP3   OH211264   5.725   2.515   4.814 -0.0022 -0.5383  0.3251
 3767TIP3    H111265   5.794   2.497   4.878  1.3181  1.7494 -0.3438
 3767TIP3    H211266   5.662   2.570   4.862  0.5484  0.4510 -0.0559
 3768TIP3   OH211267   4.625   4.326   1.745  0.1095  0.1186 -0.0464
 3768TIP3    H111268   4.637   4.260   1.813 -1.2146  0.3334  0.4145
 3768TIP3    H211269   4.660   4.285   1.665  1.3597 -0.2596  0.6699
 3769TIP3   OH211270   5.534   5.888   2.190  0.0085  0.5036  0.0219
 3769TIP3    H111271   5.447   5.851   2.173 -0.2340  1.5468 -1.1319
 3769TIP3    H211272   5.520   5.982   2.197  0.8406  0.5514  1.3863
 3770TIP3   OH211273   0.770   1.245   3.931  0.0286 -0.2489 -0.3289
 3770TIP3    H111274   0.744   1.180   3.866 -0.6306  0.6887 -1.0417
 3770TIP3    H211275   0.688   1.273   3.971  0.2068  0.7325 -0.6200
 3771TIP3   OH211276   2.698   4.006   3.303 -1.0114  0.1902  0.3034
 3771TIP3    H111277   2.651   3.944   3.248  1.4974 -1.3862 -0.2255
 3771TIP3    H211278   2.772   4.034   3.250  0.8173 -0.4495  2.3489
 3772TIP3   OH211279   4.550   1.729   3.594  0.1486 -0.3831 -0.3611
 3772TIP3    H111280   4.566   1.821   3.572  1.1717 -0.3478  0.5098
 3772TIP3    H211281   4.460   1.713   3.563 -0.2966  1.0898  0.0872
 3773TIP3   OH211282   3.274   5.158   1.687 -0.1817 -0.4364 -0.3395
 3773TIP3    H111283   3.181   5.175   1.707 -0.2530  0.6878 -1.4732
 3773TIP3    H211284   3.273   5.128   1.597  0.5625 -0.4130 -0.3543
 3774TIP3   OH211285   5.937   0.700   2.881 -0.2125  0.0555  0.3834
 3774TIP3    H111286   5.963   0.791   2.867 -0.4318  0.0507 -0.0692
 3774TIP3    H211287   5.924   0.665   2.793  0.1259 -0.4903  0.5460
 3775TIP3   OH211288   0.668   3.900   1.294  0.0988 -0.0756  0.1420
 3775TIP3    H111289   0.638   3.809   1.299  1.8024 -0.7192 -0.6003
 3775TIP3    H211290   0.652   3.926   1.203 -0.7472  0.5166  0.4500
 3776TIP3   OH211291   2.886   4.783   3.718 -0.1007  0.2502 -0.1252
 3776TIP3    H111292   2.901   4.876   3.730 -1.8275  0.5337  0.0795
 3776TIP3    H211293   2.942   4.741   3.784 -0.2326  1.1909  0.6027
 3777TIP3   OH211294   1.119   1.958   5.819 -0.5977 -0.1179 -0.3817
 3777TIP3    H111295   1.079   2.040   5.845 -0.4849 -0.7569  2.1025
 3777TIP3    H211296   1.049   1.894   5.825 -0.5996 -0.2992 -1.9400
 3778TIP3   OH211297   6.922   1.917   3.965  0.1480 -0.5799  0.7757
 3778TIP3    H111298   6.953   1.853   4.028  2.7729  0.5636  0.7723
 3778TIP3    H211299   6.930   2.001   4.010  0.2474  0.0810 -0.4196
 3779TIP3   OH211300   3.976   1.257   4.176 -0.5435 -0.3699 -0.5622
 3779TIP3    H111301   3.933   1.330   4.130 -0.6590 -0.2782 -0.3125
 3779TIP3    H211302   4.033   1.300   4.240 -0.4984 -0.4969 -0.5181
 3780TIP3   OH211303   5.248   2.531   2.668  0.4714  0.4110  0.4689
 3780TIP3    H111304   5.323   2.483   2.705  0.6019  1.1807  1.2274
 3780TIP3    H211305   5.175   2.509   2.725  0.5022  0.9967  0.7422
 3781TIP3   OH211306   4.318   5.852   1.655 -0.3032  0.2119 -0.5026
 3781TIP3    H111307   4.300   5.770   1.610  1.4862  0.5342 -1.9413
 3781TIP3    H211308   4.232   5.886   1.678 -1.2963 -0.4326 -2.9392
 3782TIP3   OH211309   1.595   0.141   3.036  0.2011 -0.7803  0.1340
 3782TIP3    H111310   1.530   0.162   3.103  0.5368  1.1118 -0.0629
 3782TIP3    H211311   1.566   0.190   2.959  0.0705 -2.5662 -0.9944
 3783TIP3   OH211312   3.091   2.826   3.838  0.2324  0.0077  0.4667
 3783TIP3    H111313   3.127   2.876   3.911  0.6895  0.8402 -0.3127
 3783TIP3    H211314   2.996   2.827   3.853  0.1986  1.4191  0.2870
 3784TIP3   OH211315   1.369   4.567   1.636  0.2964 -0.3152  0.2153
 3784TIP3    H111316   1.399   4.479   1.656 -0.5453 -0.2610  2.0162
 3784TIP3    H211317   1.350   4.566   1.543  1.0427 -1.7978  0.0504
 3785TIP3   OH211318   0.546   4.455   2.146  0.0627  0.6872  0.1814
 3785TIP3    H111319   0.453   4.462   2.167 -0.0352  0.1247 -0.0473
 3785TIP3    H211320   0.548   4.423   2.056  0.4716  0.0881  0.3942
 3786TIP3   OH211321   0.696   4.931   4.364 -0.5587  0.4212 -0.3044
 3786TIP3    H111322   0.748   4.883   4.300  2.4748  1.1826  1.3979
 3786TIP3    H211323   0.683   5.017   4.324 -1.5090 -0.1076 -1.1864
 3787TIP3   OH211324   3.859   5.047   3.068  0.0720 -0.0517  0.3163
 3787TIP3    H111325   3.827   5.127   3.108  0.1162 -0.2421  0.7435
 3787TIP3    H211326   3.804   5.033   2.992 -0.8620 -0.3700  1.0318
 3788TIP3   OH211327   0.077   2.888   0.895  0.2333  0.2004 -0.2746
 3788TIP3    H111328   0.098   2.951   0.964 -0.8043  0.6583 -0.3569
 3788TIP3    H211329  -0.014   2.907   0.872 -0.2565 -1.5861 -0.0155
 3789TIP3   OH211330   6.030   5.815   4.423  0.2245 -0.7386 -0.2171
 3789TIP3    H111331   6.084   5.797   4.500  0.7125 -0.5505 -0.5132
 3789TIP3    H211332   5.969   5.883   4.451  1.9791  1.0989 -0.6680
 3790TIP3   OH211333   4.575   0.101   0.106 -0.4061 -0.1156 -0.3001
 3790TIP3    H111334   4.655   0.090   0.156 -0.4296  0.0733 -0.2183
 3790TIP3    H211335   4.582   0.038   0.034 -1.1357 -1.6177  0.8781
 3791TIP3   OH211336   0.827   2.897   2.764  0.5449  0.3495  0.0007
 3791TIP3    H111337   0.882   2.905   2.687 -0.1611  0.1171 -0.5400
 3791TIP3    H211338   0.741   2.874   2.730  0.1789  0.4124  0.8453
 3792TIP3   OH211339   0.195   6.018   5.698 -0.3279 -0.6190  0.2058
 3792TIP3    H111340   0.287   6.027   5.673 -0.0590  0.2640  1.4507
 3792TIP3    H211341   0.165   5.941   5.650  1.1639 -1.1335  0.0526
 3793TIP3   OH211342   3.412   5.387   2.451  0.7651 -0.4546 -0.1731
 3793TIP3    H111343   3.474   5.320   2.480 -0.9102 -1.9876  0.1037
 3793TIP3    H211344   3.348   5.339   2.398 -0.7356  0.8406  0.3819
 3794TIP3   OH211345   4.850   3.223   0.736 -0.3565  0.0067  0.0970
 3794TIP3    H111346   4.945   3.223   0.741 -0.3287 -1.0525 -0.2061
 3794TIP3    H211347   4.825   3.315   0.744  0.5341  0.0946  2.7296
 3795TIP3   OH211348   6.544   0.690   2.918  1.0131 -0.4129  0.2912
 3795TIP3    H111349   6.545   0.604   2.960  0.7743 -0.1592  0.8243
 3795TIP3    H211350   6.470   0.736   2.958  0.2559 -0.4519 -1.0091
 3796TIP3   OH211351   3.978   4.260   0.104 -0.5338 -0.2543  0.7027
 3796TIP3    H111352   3.903   4.250   0.162  0.3268  1.6004  2.2251
 3796TIP3    H211353   3.962   4.342   0.057  0.1695 -0.2199  0.5064
 3797TIP3   OH211354   7.131   5.587   0.136 -0.3047 -0.3059 -0.4841
 3797TIP3    H111355   7.187   5.662   0.159 -1.1922  0.6846 -1.4554
 3797TIP3    H211356   7.192   5.523   0.099  0.4303  0.0281  0.1074
 3798TIP3   OH211357   1.398   4.279   3.854 -0.1350  1.1990  0.0950
 3798TIP3    H111358   1.398   4.276   3.759  3.0882 -0.8733  0.0150
 3798TIP3    H211359   1.331   4.215   3.880  0.7609 -0.1926 -0.8817
 3799TIP3   OH211360   2.570   6.684  -0.012  0.0270 -0.5794 -0.0854
 3799TIP3    H111361   2.567   6.779  -0.019  1.7385 -0.5365 -0.7553
 3799TIP3    H211362   2.515   6.663   0.063  1.7946  1.1931  1.8365
 3800TIP3   OH211363   5.865   4.237   4.213 -0.1883  0.8850 -0.3522
 3800TIP3    H111364   5.811   4.270   4.285  0.0151 -0.1346  0.2993
 3800TIP3    H211365   5.882   4.313   4.158 -1.7517  1.3563 -0.2261
 3801TIP3   OH211366   3.391   6.634   0.320 -0.4991 -0.0875  0.2121
 3801TIP3    H111367   3.299   6.608   0.331 -0.7160 -0.6890 -2.3893
 3801TIP3    H211368   3.424   6.643   0.409 -3.0138 -0.0896  1.2267
 3802TIP3   OH211369   3.207   0.551   1.564 -0.0089  0.1298  0.0547
 3802TIP3    H111370   3.224   0.616   1.632 -2.6152  2.6264 -1.4566
 3802TIP3    H211371   3.134   0.500   1.598 -1.5179  1.5760 -0.8352
 3803TIP3   OH211372   5.498   6.702   0.429 -0.6002  0.3365  0.1790
 3803TIP3    H111373   5.515   6.624   0.376  1.4307 -0.1920  1.4969
 3803TIP3    H211374   5.434   6.673   0.494 -0.6657  0.0786  0.0011
 3804TIP3   OH211375   0.089   6.384   0.815  0.5703  0.3020  0.6451
 3804TIP3    H111376   0.181   6.366   0.796  0.2298 -2.7051  1.3411
 3804TIP3    H211377   0.070   6.332   0.894 -2.0718 -0.4966 -0.4000
 3805TIP3   OH211378   4.065   0.384   1.923  0.4978 -0.1210 -0.3883
 3805TIP3    H111379   4.111   0.312   1.967 -0.9556 -1.0656 -0.3471
 3805TIP3    H211380   3.981   0.346   1.896 -0.6212  1.7432  0.2763
 3806TIP3   OH211381   4.992   4.356   0.509 -0.2977 -1.1546 -0.0035
 3806TIP3    H111382   5.014   4.397   0.593 -0.4303  2.4709 -1.5180
 3806TIP3    H211383   5.077   4.330   0.472  0.3521  1.3366 -0.5045
 3807TIP3   OH211384   0.266   0.716   3.545 -0.2354 -0.6718 -0.2943
 3807TIP3    H111385   0.246   0.806   3.520 -1.9131 -0.4150  1.6460
 3807TIP3    H211386   0.359   0.717   3.568 -0.1451  0.4667 -0.6628
 3808TIP3   OH211387   3.595   2.682   5.082 -0.9375  0.1507 -0.1065
 3808TIP3    H111388   3.603   2.593   5.117 -1.1448  0.4972  0.8581
 3808TIP3    H211389   3.655   2.734   5.136  0.6870  0.2816 -1.9055
 3809TIP3   OH211390   7.109   0.297   0.362  0.4117 -0.4201 -0.4653
 3809TIP3    H111391   7.136   0.217   0.318 -1.8792 -0.2581 -2.4252
 3809TIP3    H211392   7.093   0.272   0.452  2.8784 -1.3551 -0.2095
 3810TIP3   OH211393   2.570   5.624   4.251 -0.9036  0.0078  0.1741
 3810TIP3    H111394   2.610   5.578   4.325  2.1483  0.4401 -1.0718
 3810TIP3    H211395   2.600   5.714   4.260 -0.6519  0.1108 -1.4627
 3811TIP3   OH211396   6.735   4.668   1.448  0.5115 -0.4541 -0.0722
 3811TIP3    H111397   6.715   4.748   1.495  0.4317 -0.2684 -0.4205
 3811TIP3    H211398   6.668   4.663   1.380  1.0710 -0.3286 -0.6416
 3812TIP3   OH211399   2.301   1.953   5.732 -0.0827  0.2663 -0.0733
 3812TIP3    H111400   2.346   1.901   5.799  0.5576  2.6146  1.4338
 3812TIP3    H211401   2.368   1.968   5.665  0.0610  0.0705  0.0251
 3813TIP3   OH211402   0.343   4.944   5.226 -0.3178 -0.5218  0.5629
 3813TIP3    H111403   0.383   4.869   5.182 -0.8318 -0.3171 -0.2904
 3813TIP3    H211404   0.249   4.933   5.210 -0.3949  0.3274  0.3774
 3814TIP3   OH211405   2.055   5.319   1.042 -0.0924 -0.7632  0.0834
 3814TIP3    H111406   2.030   5.324   1.134  1.0273  0.2126  0.3661
 3814TIP3    H211407   2.023   5.402   1.004  0.5642 -0.5934 -0.1059
 3815TIP3   OH211408   3.453   5.893   4.485  0.0712 -0.0556 -0.0046
 3815TIP3    H111409   3.392   5.866   4.417  0.5583  0.0072 -0.4721
 3815TIP3    H211410   3.470   5.985   4.467 -0.1119  0.0714  0.4484
 3816TIP3   OH211411   6.289   3.560   1.994 -0.0538  0.3008  0.1506
 3816TIP3    H111412   6.216   3.538   2.052  0.4631 -0.0144  0.6994
 3816TIP3    H211413   6.254   3.548   1.906 -0.7821  0.5473  0.3923
 3817TIP3   OH211414   4.309   3.207   2.120 -0.3394  0.4984  0.1595
 3817TIP3    H111415   4.258   3.133   2.154  0.0890  0.4901  0.7974
 3817TIP3    H211416   4.390   3.167   2.086 -0.3439  0.6157  0.0076
 3818TIP3   OH211417   1.828   2.686   2.740 -0.6241  0.3783 -0.5249
 3818TIP3    H111418   1.876   2.768   2.732 -2.0675  1.3411  0.1461
 3818TIP3    H211419   1.741   2.706   2.705 -1.0278 -0.8416 -0.2730
 3819TIP3   OH211420   6.591   0.389   2.760 -0.3791  0.0339 -0.2769
 3819TIP3    H111421   6.686   0.394   2.751  0.0455 -4.2181 -0.1574
 3819TIP3    H211422   6.573   0.416   2.850  0.4911  2.0695 -0.6716
 3820TIP3   OH211423   2.822   2.542   0.022 -0.2131 -0.1613  0.5667
 3820TIP3    H111424   2.801   2.624   0.066  0.5357  0.0145  0.6222
 3820TIP3    H211425   2.741   2.514  -0.019 -0.0071  1.6698 -1.2171
 3821TIP3   OH211426   2.884   0.199   2.459 -0.1250 -0.7680  0.4249
 3821TIP3    H111427   2.860   0.150   2.537  0.8271  0.9705  1.8851
 3821TIP3    H211428   2.979   0.192   2.454  0.1472  1.5505  1.1926
 3822TIP3   OH211429   2.262   2.383   3.499 -0.2066  0.1378 -0.5210
 3822TIP3    H111430   2.176   2.382   3.541 -0.0114  0.9805 -0.0735
 3822TIP3    H211431   2.271   2.472   3.465  0.4570  0.0398 -0.6164
 3823TIP3   OH211432   1.633   4.789   1.826  0.3638  0.0068  0.3698
 3823TIP3    H111433   1.567   4.815   1.763  0.2287  0.8905  0.8635
 3823TIP3    H211434   1.658   4.700   1.800  0.7986  0.5853 -1.3276
 3824TIP3   OH211435   6.149   3.036   1.360 -0.7051 -0.2916 -0.0697
 3824TIP3    H111436   6.165   3.127   1.333 -3.4845 -0.1778 -1.7691
 3824TIP3    H211437   6.158   2.985   1.280 -0.6486 -1.3174  0.5664
 3825TIP3   OH211438   2.442   1.772   2.652 -0.1442  0.2444  0.1536
 3825TIP3    H111439   2.419   1.790   2.561  2.1926 -0.3079 -0.5947
 3825TIP3    H211440   2.413   1.850   2.700 -0.7266  0.8664 -1.1615
 3826TIP3   OH211441   1.242   6.635   3.459  0.0192  0.5572 -0.2780
 3826TIP3    H111442   1.176   6.570   3.482 -0.4602  0.4744 -1.7782
 3826TIP3    H211443   1.198   6.693   3.397  1.2510  0.6864 -1.0642
 3827TIP3   OH211444   1.136   4.709   0.825  0.3478 -0.3418 -0.1582
 3827TIP3    H111445   1.161   4.646   0.758 -0.5513  0.2039 -1.0455
 3827TIP3    H211446   1.160   4.668   0.907  2.6506 -0.5012 -0.8460
 3828TIP3   OH211447   0.743   1.638   5.469 -0.3918  0.3953  0.4051
 3828TIP3    H111448   0.759   1.680   5.385 -0.7577 -0.7015 -0.2339
 3828TIP3    H211449   0.701   1.705   5.522 -0.0970  1.1189 -0.2542
 3829TIP3   OH211450   5.557   2.587   2.328 -0.1087  0.4079  0.3098
 3829TIP3    H111451   5.501   2.510   2.333  0.5807 -0.3178 -1.9205
 3829TIP3    H211452   5.646   2.553   2.328  0.3707  1.4874  2.8669
 3830TIP3   OH211453   2.321   4.506   4.903  0.4067 -0.2120  0.2288
 3830TIP3    H111454   2.416   4.513   4.901  0.3328  0.8608 -0.0525
 3830TIP3    H211455   2.298   4.528   4.994  0.3917  0.1552  0.1386
 3831TIP3   OH211456   0.870   1.073   4.152 -0.2277 -0.2944  0.0018
 3831TIP3    H111457   0.805   1.010   4.182 -1.7676  1.7501  1.2689
 3831TIP3    H211458   0.853   1.081   4.058 -0.2174 -1.4949 -0.1179
 3832TIP3   OH211459   6.223   0.510   0.972  0.2336 -0.3654 -0.2380
 3832TIP3    H111460   6.199   0.586   1.024 -0.2524  0.1157 -1.1429
 3832TIP3    H211461   6.140   0.477   0.938  0.3420 -1.8126  0.8080
 3833TIP3   OH211462   2.367   6.644   0.169 -0.3235 -1.0549 -0.3101
 3833TIP3    H111463   2.317   6.587   0.227 -1.2013 -2.0308 -1.9246
 3833TIP3    H211464   2.312   6.652   0.091  0.1092  1.4367 -0.4449
 3834TIP3   OH211465   4.980   3.273   4.604  0.1029 -0.3903 -0.0368
 3834TIP3    H111466   4.931   3.200   4.642  0.4807 -0.1348  0.9692
 3834TIP3    H211467   5.072   3.246   4.609  0.1857 -0.1705 -0.3652
 3835TIP3   OH211468   6.081   0.844   2.125 -0.0366 -0.6708 -0.1770
 3835TIP3    H111469   6.068   0.778   2.193  0.7421 -0.8406 -0.1776
 3835TIP3    H211470   6.005   0.902   2.132  1.2639  0.9013  2.6342
 3836TIP3   OH211471   2.807   2.621   1.978 -0.1105  0.1743  0.4701
 3836TIP3    H111472   2.841   2.541   2.020 -0.7791 -0.8960 -0.9373
 3836TIP3    H211473   2.739   2.651   2.038  0.5433  0.0452  1.3114
 3837TIP3   OH211474   4.122   5.540   4.458 -0.0533  0.4067  0.1671
 3837TIP3    H111475   4.048   5.479   4.460 -0.0429  0.3868 -0.1212
 3837TIP3    H211476   4.198   5.486   4.476 -0.4332  0.9321  4.4462
 3838TIP3   OH211477   1.445   2.587   4.850  1.2107  0.9036 -0.0149
 3838TIP3    H111478   1.471   2.497   4.869  1.8570  0.1667 -3.7105
 3838TIP3    H211479   1.527   2.631   4.825  0.7158  2.2059  0.5449
 3839TIP3   OH211480   6.142   1.550   0.712 -0.1797 -0.0386  0.5284
 3839TIP3    H111481   6.200   1.545   0.636 -0.4023  0.6320  0.3129
 3839TIP3    H211482   6.201   1.574   0.784 -0.2691  1.3218  0.1836
 3840TIP3   OH211483   6.299   1.744   2.809  0.1536 -0.0883  0.0946
 3840TIP3    H111484   6.341   1.686   2.745 -1.8626  0.4616 -1.8783
 3840TIP3    H211485   6.361   1.815   2.822  1.0602 -0.7601 -0.4581
 3841TIP3   OH211486   4.607   6.670   4.996  0.2175 -0.6065  0.3312
 3841TIP3    H111487   4.543   6.740   5.007  0.8541  0.1464 -0.5539
 3841TIP3    H211488   4.555   6.591   4.979 -0.4893  0.0550 -0.7049
 3842TIP3   OH211489   1.405   2.347   1.090  0.0207 -0.4545  0.1426
 3842TIP3    H111490   1.481   2.404   1.096 -0.0125 -0.4109  0.1455
 3842TIP3    H211491   1.400   2.304   1.175  0.1387 -0.5799  0.0872
 3843TIP3   OH211492   6.334   4.247   0.685  0.1256  0.0349 -0.1496
 3843TIP3    H111493   6.324   4.341   0.694 -0.9745 -0.0047 -0.7769
 3843TIP3    H211494   6.341   4.233   0.591 -1.3839 -0.6367 -0.1907
 3844TIP3   OH211495   1.614   3.821   4.836  0.1213 -0.0269 -0.0121
 3844TIP3    H111496   1.595   3.810   4.742 -2.0507  0.8712  0.2509
 3844TIP3    H211497   1.673   3.895   4.840 -0.9277  0.8795 -0.6337
 3845TIP3   OH211498   1.078   3.812   2.675 -0.4940 -0.7377 -0.1643
 3845TIP3    H111499   1.070   3.717   2.668 -2.2697 -0.6703  0.4030
 3845TIP3    H211500   1.143   3.826   2.744  1.1284 -1.4913 -1.4725
 3846TIP3   OH211501   6.095   4.832   2.240 -0.2206 -0.2716 -0.7327
 3846TIP3    H111502   6.151   4.778   2.185  0.4215 -0.2270 -0.1248
 3846TIP3    H211503   6.079   4.779   2.318  0.2476  0.3302 -0.2214
 3847TIP3   OH211504   0.487   6.712   1.495 -0.0905 -0.5070 -0.7725
 3847TIP3    H111505   0.490   6.797   1.452 -1.5294  0.1399  0.3239
 3847TIP3    H211506   0.571   6.705   1.540  0.8105 -0.5358 -2.3803
 3848TIP3   OH211507   0.427   2.021   2.712 -0.4394 -0.2379 -0.5329
 3848TIP3    H111508   0.471   2.031   2.627  0.7934 -0.9786 -0.0169
 3848TIP3    H211509   0.481   1.958   2.759 -1.2034  0.0265  0.7454
 3849TIP3   OH211510   5.031   4.420   3.104  0.2599  0.1296  0.0874
 3849TIP3    H111511   5.062   4.396   3.017 -3.0453  0.5980 -1.3967
 3849TIP3    H211512   4.996   4.508   3.094  1.5438  0.9935  2.4629
 3850TIP3   OH211513   2.349   5.055   2.267 -0.9912  0.2929 -0.0800
 3850TIP3    H111514   2.288   5.088   2.333  0.0700  0.2230  0.9602
 3850TIP3    H211515   2.434   5.057   2.310 -0.0734  1.3653 -1.8323
 3851TIP3   OH211516   4.386   5.308   1.431 -0.4164  0.1948 -0.2437
 3851TIP3    H111517   4.294   5.324   1.408 -0.7018 -1.3073 -0.2364
 3851TIP3    H211518   4.392   5.213   1.441  1.2886  0.1979 -0.8760
 3852TIP3   OH211519   2.339   0.503   3.660 -1.0492 -0.0568  0.1059
 3852TIP3    H111520   2.305   0.464   3.740 -2.2780  0.6614 -0.0432
 3852TIP3    H211521   2.320   0.438   3.592 -2.1895  0.3364  0.0232
 3853TIP3   OH211522   6.756   3.177   1.826  0.0609  0.2634  0.3367
 3853TIP3    H111523   6.775   3.085   1.807 -0.9884  0.3123 -1.1270
 3853TIP3    H211524   6.818   3.226   1.772 -0.3410  0.4177  0.0175
 3854TIP3   OH211525   1.058   0.565   1.994 -0.0140  0.6548  1.2358
 3854TIP3    H111526   1.002   0.503   1.947 -0.9122  1.0170  1.7989
 3854TIP3    H211527   1.147   0.533   1.980 -0.4535 -0.7252  1.4585
 3855TIP3   OH211528   5.359   6.010   0.655 -0.2865 -0.1927  0.0102
 3855TIP3    H111529   5.328   6.101   0.656 -0.2220 -0.1733  1.5723
 3855TIP3    H211530   5.405   6.002   0.571  0.0750  1.3390  0.0308
 3856TIP3   OH211531   0.261   0.776   4.379 -0.2628 -0.0673  0.0781
 3856TIP3    H111532   0.278   0.682   4.370  0.2958  0.1462 -1.5397
 3856TIP3    H211533   0.183   0.791   4.326  0.5812  0.6106 -1.0293
 3857TIP3   OH211534   0.859   4.501   2.120  0.2575  0.2842 -0.0269
 3857TIP3    H111535   0.775   4.476   2.081  1.1862 -0.8113 -1.4251
 3857TIP3    H211536   0.923   4.486   2.050  1.7316  0.2869  1.2835
 3858TIP3   OH211537   1.016   0.021   1.251 -0.3667  0.4131  0.0933
 3858TIP3    H111538   0.986   0.010   1.161 -0.3713  0.1976  0.1189
 3858TIP3    H211539   1.109   0.041   1.243 -0.1748 -0.4337  0.0657
 3859TIP3   OH211540   2.541   3.905   3.545  0.1103  0.0422 -0.5621
 3859TIP3    H111541   2.616   3.955   3.513  0.1757  0.2211 -0.1405
 3859TIP3    H211542   2.504   3.960   3.614  0.6301 -0.8320  0.4317
 3860TIP3   OH211543   3.061   5.681   3.073 -0.3466  0.5189  0.1630
 3860TIP3    H111544   3.127   5.622   3.110 -0.2825  1.2468  1.2455
 3860TIP3    H211545   3.009   5.709   3.148 -0.4795  1.7096 -0.3544
 3861TIP3   OH211546   6.782   3.853   1.490  0.2851 -0.6163  0.4872
 3861TIP3    H111547   6.873   3.834   1.516  0.3358 -0.0985  0.7213
 3861TIP3    H211548   6.783   3.848   1.395  1.0151  1.1633  0.3433
 3862TIP3   OH211549   1.018   3.199   1.477  0.1550 -0.3689 -0.1791
 3862TIP3    H111550   0.993   3.150   1.399 -1.1517 -0.2912  0.1545
 3862TIP3    H211551   1.027   3.132   1.545 -1.1021 -0.2230  0.1518
 3863TIP3   OH211552   0.387   1.785   2.434 -0.2621 -0.4987 -0.4059
 3863TIP3    H111553   0.466   1.731   2.432 -1.1538 -1.9158  0.8262
 3863TIP3    H211554   0.370   1.798   2.528 -1.1868  0.2491 -0.6703
 3864TIP3   OH211555   5.832   1.876   3.928  0.6103 -0.4425  0.3101
 3864TIP3    H111556   5.833   1.913   4.016  2.3870 -1.3279  0.7137
 3864TIP3    H211557   5.881   1.938   3.875 -0.9626  0.3849 -0.2185
 3865TIP3   OH211558   0.431   5.863   3.495  0.0809 -0.1415  0.7109
 3865TIP3    H111559   0.479   5.827   3.569 -0.6221 -0.5124  0.9853
 3865TIP3    H211560   0.374   5.792   3.466  0.4037 -0.0282 -0.2364
 3866TIP3   OH211561   6.530   6.617   4.171  0.1503 -0.3832  0.7680
 3866TIP3    H111562   6.560   6.556   4.238 -1.3262 -0.9656  0.9423
 3866TIP3    H211563   6.557   6.577   4.088  0.7974 -0.3303  0.9454
 3867TIP3   OH211564   3.385   1.242   0.508  0.0464 -0.1539  0.3791
 3867TIP3    H111565   3.378   1.282   0.421  2.0300 -0.4946  0.0281
 3867TIP3    H211566   3.354   1.310   0.568 -0.0720  0.5821 -0.4917
 3868TIP3   OH211567   7.118   1.687   2.933 -0.3855 -0.0424  0.1458
 3868TIP3    H111568   7.031   1.694   2.972  0.2338 -0.1137  1.6005
 3868TIP3    H211569   7.160   1.771   2.953  0.0289 -0.1681 -0.1836
 3869TIP3   OH211570   2.179   3.341   4.966  0.0666  0.4601  0.3179
 3869TIP3    H111571   2.121   3.312   5.036 -1.4094 -0.2922 -1.1400
 3869TIP3    H211572   2.154   3.287   4.891  1.7322  1.0923 -0.7442
 3870TIP3   OH211573   4.877   5.250   2.796 -0.4817  0.2285 -0.1167
 3870TIP3    H111574   4.820   5.300   2.738  1.7144  2.6636 -0.3948
 3870TIP3    H211575   4.903   5.174   2.745 -0.3203  1.2061 -1.5583
 3871TIP3   OH211576   4.017   6.467   0.341  0.2390  0.4373  0.1892
 3871TIP3    H111577   4.003   6.551   0.385  0.6857  0.0403  1.1142
 3871TIP3    H211578   4.104   6.476   0.300  0.1438  0.5381  0.0053
 3872TIP3   OH211579   6.124   5.958   0.666 -0.0976  0.1235 -0.0181
 3872TIP3    H111580   6.161   5.870   0.667  0.2599  0.2648  1.3504
 3872TIP3    H211581   6.086   5.969   0.753  1.2729  1.8973  0.4082
 3873TIP3   OH211582   3.001   6.447   5.312  0.6444  0.1216 -0.2261
 3873TIP3    H111583   3.045   6.475   5.232  0.5591 -0.8993 -0.6565
 3873TIP3    H211584   3.067   6.454   5.380  2.0345 -2.7680 -1.1031
 3874TIP3   OH211585   7.096   0.251   2.565 -0.2699  0.1535 -0.3668
 3874TIP3    H111586   7.066   0.176   2.514 -0.0297 -0.6103  0.5845
 3874TIP3    H211587   7.185   0.228   2.592  0.8554  1.9351 -2.2753
 3875TIP3   OH211588   5.767   5.032   2.927 -0.8192 -0.5382 -0.1127
 3875TIP3    H111589   5.817   5.084   2.990 -1.4185  0.9854 -0.8339
 3875TIP3    H211590   5.750   4.950   2.971  0.3189 -0.1921  1.0215
 3876TIP3   OH211591   4.633   0.397   0.054 -0.2746  0.3384  0.3191
 3876TIP3    H111592   4.572   0.373  -0.017 -0.5922 -2.3075  1.3867
 3876TIP3    H211593   4.624   0.327   0.118  0.7468  2.1405  2.5616
 3877TIP3   OH211594   1.361   5.990   1.276 -0.1220  0.0360 -0.2993
 3877TIP3    H111595   1.370   5.915   1.334 -0.8832 -0.4718 -0.8080
 3877TIP3    H211596   1.397   6.064   1.325 -1.9727 -0.0814  1.3962
 3878TIP3   OH211597   5.226   2.309   0.708  0.4071  0.0458  0.1056
 3878TIP3    H111598   5.288   2.281   0.640 -0.0069 -0.0774 -0.2249
 3878TIP3    H211599   5.269   2.288   0.790  0.0189 -1.8037 -0.1210
 3879TIP3   OH211600   1.730   3.435   4.791  0.6304  1.1061 -0.5416
 3879TIP3    H111601   1.645   3.421   4.749  0.8821 -0.1530 -0.6760
 3879TIP3    H211602   1.715   3.417   4.884  0.6869  1.1654 -0.5208
 3880TIP3   OH211603   4.711   0.465   4.656  0.0794  0.4320 -0.0099
 3880TIP3    H111604   4.798   0.496   4.683  0.8628 -2.7329  1.4889
 3880TIP3    H211605   4.729   0.395   4.593 -1.5567  1.5678 -1.8525
 3881TIP3   OH211606   3.381   2.868   2.846  0.3154 -0.5086  0.2811
 3881TIP3    H111607   3.446   2.928   2.810  0.5413  0.4133  2.1137
 3881TIP3    H211608   3.364   2.806   2.776  1.3904  0.6552 -1.0629
 3882TIP3   OH211609   4.242   4.588   2.385 -0.4996 -0.3202  0.3828
 3882TIP3    H111610   4.336   4.579   2.372 -0.5169 -1.2849  0.7882
 3882TIP3    H211611   4.232   4.667   2.437  0.1310 -0.4517  0.7162
 3883TIP3   OH211612   2.387   3.812   2.589 -0.3286 -0.2216  0.3005
 3883TIP3    H111613   2.437   3.804   2.670 -0.0236 -0.3634  0.0992
 3883TIP3    H211614   2.415   3.896   2.552  0.2507 -0.5997 -0.1384
 3884TIP3   OH211615   6.970   1.369   5.770 -0.5207 -0.4356  0.3317
 3884TIP3    H111616   6.988   1.463   5.767  0.2841 -0.6004 -0.6417
 3884TIP3    H211617   6.984   1.345   5.861  0.5212  0.1633  0.3508
 3885TIP3   OH211618   1.133   5.633   1.742  0.5870 -0.5094  0.8582
 3885TIP3    H111619   1.163   5.564   1.802 -0.3132 -0.7710  1.0127
 3885TIP3    H211620   1.041   5.615   1.728  0.0674  1.2483  1.7158
 3886TIP3   OH211621   5.397   5.316   1.630 -0.7586 -0.5806  0.5165
 3886TIP3    H111622   5.393   5.373   1.707 -0.6178  1.3180 -0.8094
 3886TIP3    H211623   5.350   5.237   1.656 -0.1309 -0.2838  2.7578
 3887TIP3   OH211624   2.831   1.767   0.146  0.5734 -0.1697  0.6462
 3887TIP3    H111625   2.809   1.823   0.071  1.7582 -0.1164  0.3225
 3887TIP3    H211626   2.754   1.772   0.202 -0.4600 -0.4403 -0.6972
 3888TIP3   OH211627   1.086   2.430   2.641 -0.2046  0.0144 -0.5920
 3888TIP3    H111628   1.164   2.383   2.611  0.6560  2.1697 -1.9541
 3888TIP3    H211629   1.088   2.422   2.736  0.7857 -1.2986 -0.6952
 3889TIP3   OH211630   4.591   2.656   4.821  0.2909  0.4374 -0.1571
 3889TIP3    H111631   4.568   2.658   4.913 -1.5186  0.9055 -0.5885
 3889TIP3    H211632   4.511   2.678   4.775  1.1708  0.3027 -1.8563
 3890TIP3   OH211633   5.261   5.161   2.827  0.0346 -0.1560 -0.2871
 3890TIP3    H111634   5.298   5.123   2.748  0.6051 -0.5966  0.1785
 3890TIP3    H211635   5.336   5.199   2.873 -0.7075  3.4081 -1.6624
 3891TIP3   OH211636   0.231   2.498   1.274  0.1379  0.1150  0.3619
 3891TIP3    H111637   0.279   2.549   1.209 -0.1525  0.4265  0.3921
 3891TIP3    H211638   0.272   2.411   1.272 -0.3367 -0.1031 -0.7661
 3892TIP3   OH211639   4.212   1.790   2.485  0.5698  0.3067  0.2845
 3892TIP3    H111640   4.197   1.836   2.403  0.2307 -0.7880 -0.2928
 3892TIP3    H211641   4.306   1.768   2.484  0.7165  0.9105  0.5301
 3893TIP3   OH211642   4.185   5.267   2.067 -0.5019  0.0805 -0.4341
 3893TIP3    H111643   4.190   5.288   2.160 -0.0594  0.9017 -0.6380
 3893TIP3    H211644   4.270   5.291   2.032 -0.5932 -0.4229 -1.0159
 3894TIP3   OH211645   4.019   1.497   4.311  0.1289  0.5103  0.6235
 3894TIP3    H111646   4.092   1.553   4.335  2.3286 -1.3159 -1.2960
 3894TIP3    H211647   4.004   1.442   4.388  1.9126 -0.1689  0.5163
 3895TIP3   OH211648   1.305   4.205   3.332  0.3464 -0.2955  0.0933
 3895TIP3    H111649   1.342   4.244   3.411  1.7056  2.2520 -1.6845
 3895TIP3    H211650   1.210   4.219   3.341  0.2881 -1.5312  1.9498
 3896TIP3   OH211651   6.839   6.106   4.256  0.0103 -0.4074 -0.7847
 3896TIP3    H111652   6.887   6.042   4.204 -0.0393  0.3511 -1.8037
 3896TIP3    H211653   6.779   6.054   4.309  0.1257 -1.2195 -1.4317
 3897TIP3   OH211654   4.146   0.040   4.026 -0.3687 -0.2582 -0.6107
 3897TIP3    H111655   4.158   0.125   3.983 -1.2639 -0.8046 -2.0271
 3897TIP3    H211656   4.231  -0.003   4.019  0.3082  0.7623  0.7685
 3898TIP3   OH211657   6.357   2.196   3.097 -0.1128 -0.1876  0.7674
 3898TIP3    H111658   6.366   2.251   3.019  0.1603  0.6746  1.3934
 3898TIP3    H211659   6.264   2.177   3.103 -0.2487  0.4410  0.6911
 3899TIP3   OH211660   4.274   3.550   4.605  0.5866 -0.1051 -0.6411
 3899TIP3    H111661   4.300   3.527   4.516  1.0029  0.4941 -0.6820
 3899TIP3    H211662   4.208   3.618   4.594  1.1462  0.4721 -0.4860
 3900TIP3   OH211663   6.124   3.333   2.148 -0.5965  0.0665 -0.2593
 3900TIP3    H111664   6.184   3.269   2.187  1.4472  2.1121  0.1472
 3900TIP3    H211665   6.054   3.342   2.212 -0.7161 -1.4050 -0.1400
 3901TIP3   OH211666   2.834   5.061   5.380  0.1456 -0.1900 -0.0208
 3901TIP3    H111667   2.904   5.113   5.343  0.6858 -1.1139 -0.3149
 3901TIP3    H211668   2.877   4.982   5.414 -0.9375 -1.6266 -1.8134
 3902TIP3   OH211669   3.923   2.571   3.007 -0.1054 -0.0764  0.5534
 3902TIP3    H111670   3.984   2.567   3.080  1.2418  0.8695 -0.4601
 3902TIP3    H211671   3.905   2.480   2.985  0.6556 -0.3658  1.1011
 3903TIP3   OH211672   5.896   5.251   0.058 -0.1257  0.1508  0.7856
 3903TIP3    H111673   5.880   5.219  -0.030 -0.0518  0.7362  0.5583
 3903TIP3    H211674   5.819   5.303   0.080 -1.2122 -1.8040  1.9458
 3904TIP3   OH211675   3.009   5.349   0.349 -0.1147 -0.1945 -0.3136
 3904TIP3    H111676   3.022   5.436   0.311 -2.0711  0.1262 -0.3604
 3904TIP3    H211677   2.968   5.365   0.434 -0.4814 -1.0621 -0.3090
 3905TIP3   OH211678   1.804   2.909   1.340  0.0372  0.0366  0.1032
 3905TIP3    H111679   1.710   2.895   1.331 -0.0907  1.3943 -1.0976
 3905TIP3    H211680   1.843   2.825   1.318 -0.8887 -0.6965  1.1295
 3906TIP3   OH211681   7.058   6.451   2.078 -0.4683 -0.0520  0.1789
 3906TIP3    H111682   7.093   6.375   2.030 -1.8856  0.0765 -1.1304
 3906TIP3    H211683   6.966   6.454   2.054 -0.8839  0.9482  1.7713
 3907TIP3   OH211684   4.536   4.009   0.686 -0.1353 -0.2677 -0.0961
 3907TIP3    H111685   4.544   4.069   0.612 -2.5757  0.5742  0.2356
 3907TIP3    H211686   4.598   4.042   0.751  1.7203 -0.7615 -1.5229
 3908TIP3   OH211687   3.246   1.029   4.165 -0.0925  0.3436 -0.5611
 3908TIP3    H111688   3.333   1.034   4.126  0.1609  0.0252 -0.0438
 3908TIP3    H211689   3.261   1.042   4.259 -0.5773  0.0658 -0.4412
 3909TIP3   OH211690   2.411   2.400   4.318  0.2104 -0.2862  0.2741
 3909TIP3    H111691   2.457   2.475   4.355  0.7563  0.7030 -2.2412
 3909TIP3    H211692   2.337   2.386   4.377  0.7425  1.4932  1.4414
 3910TIP3   OH211693   1.656   3.117   3.808  0.1024  0.8273 -0.4213
 3910TIP3    H111694   1.636   3.168   3.887  0.2947 -0.2465  0.3351
 3910TIP3    H211695   1.610   3.164   3.738  1.2050  2.7029  0.0323
 3911TIP3   OH211696   4.226   0.694   4.012  0.2562  0.4786 -0.7426
 3911TIP3    H111697   4.159   0.716   3.948  0.7746  1.8063 -0.8797
 3911TIP3    H211698   4.178   0.677   4.093 -0.3807 -0.8973 -1.3860
 3912TIP3   OH211699   5.223   4.736   2.036 -0.3506  0.1632  0.3616
 3912TIP3    H111700   5.302   4.786   2.055  0.1706 -0.3375 -0.4211
 3912TIP3    H211701   5.237   4.651   2.079  0.6910 -0.8527 -1.8200
 3913TIP3   OH211702   1.205   1.991   1.842 -0.0079  0.1449  0.6158
 3913TIP3    H111703   1.122   1.958   1.876  0.4444 -1.1045  0.5779
 3913TIP3    H211704   1.211   1.954   1.754  1.0050 -0.5664  0.9610
 3914TIP3   OH211705   0.731   1.484   2.957  0.1214 -0.1301  0.4911
 3914TIP3    H111706   0.792   1.557   2.960  0.6354 -0.5496  0.3919
 3914TIP3    H211707   0.780   1.410   2.992 -0.7067 -0.2201  1.5117
 3915TIP3   OH211708   4.764   2.442   5.130 -0.1203 -0.3312 -0.5591
 3915TIP3    H111709   4.804   2.437   5.043 -0.8671 -0.9644 -0.8783
 3915TIP3    H211710   4.704   2.516   5.123 -1.0331 -1.0902 -0.9613
 3916TIP3   OH211711   2.216   6.365   4.661 -0.4189  0.7522 -0.2702
 3916TIP3    H111712   2.198   6.291   4.603  2.1072  0.6501 -1.0531
 3916TIP3    H211713   2.176   6.440   4.617 -0.7712  0.2576 -0.8082
 3917TIP3   OH211714   4.432   3.293   0.525  0.3087 -0.3124  0.0752
 3917TIP3    H111715   4.481   3.327   0.451  2.3635 -1.1663  0.9709
 3917TIP3    H211716   4.415   3.202   0.503  0.4327 -0.4189  0.4169
 3918TIP3   OH211717   5.965   1.536   2.804  0.9330 -0.3457 -0.1105
 3918TIP3    H111718   6.039   1.543   2.863  0.5001 -1.9580  0.6775
 3918TIP3    H211719   5.914   1.616   2.819  0.8046 -0.7421  1.7546
 3919TIP3   OH211720   5.385   1.015   5.361 -0.2525 -0.3941 -0.1546
 3919TIP3    H111721   5.461   1.072   5.362 -1.5933  1.5110 -0.3442
 3919TIP3    H211722   5.328   1.050   5.430 -1.4065 -1.0974 -0.7217
 3920TIP3   OH211723   5.750   4.915   1.803 -0.1161 -0.1717  0.2061
 3920TIP3    H111724   5.823   4.964   1.766 -0.8498  1.5521  0.9415
 3920TIP3    H211725   5.773   4.903   1.895 -0.1711 -0.7608  0.1430
 3921TIP3   OH211726   4.047   1.907   1.843  0.0571  0.0998  1.1032
 3921TIP3    H111727   4.037   1.976   1.909  2.6939 -0.9572  2.8306
 3921TIP3    H211728   4.142   1.899   1.832 -0.2065 -2.3698  0.0146
 3922TIP3   OH211729   4.769   0.310   1.382 -0.1165 -0.0068 -0.6472
 3922TIP3    H111730   4.720   0.228   1.384  0.8921 -0.6292  1.3613
 3922TIP3    H211731   4.772   0.338   1.473  2.2906  0.5700 -0.8359
 3923TIP3   OH211732   4.573   6.245   3.515 -0.0399  0.3837 -0.0219
 3923TIP3    H111733   4.520   6.322   3.495  0.6538  0.7257 -0.5608
 3923TIP3    H211734   4.662   6.270   3.491  0.1955 -0.5883 -0.1943
 3924TIP3   OH211735   3.075   6.534   2.746 -0.2791  0.2534  0.0077
 3924TIP3    H111736   3.127   6.564   2.671 -2.0018 -1.0434 -1.7961
 3924TIP3    H211737   3.121   6.457   2.778 -0.4198 -0.1749 -0.8013
 3925TIP3   OH211738   4.262   5.104   5.706  0.1469  0.0847 -0.4090
 3925TIP3    H111739   4.172   5.092   5.677  0.6338 -0.2669 -1.8235
 3925TIP3    H211740   4.266   5.056   5.789 -1.1136  0.6264 -0.0018
 3926TIP3   OH211741   3.433   1.209   5.314  0.2763  0.9174 -0.1170
 3926TIP3    H111742   3.449   1.261   5.236  1.7237  0.8440  0.1060
 3926TIP3    H211743   3.514   1.215   5.364  0.1606 -0.7739  0.3510
 3927TIP3   OH211744   6.938   0.089   1.641 -0.0622 -0.0970  0.2705
 3927TIP3    H111745   6.893   0.043   1.712 -0.0258 -0.4438  0.0706
 3927TIP3    H211746   6.880   0.162   1.620 -0.0889 -0.0104  0.6355
 3928TIP3   OH211747   6.417   0.394   4.467  0.0535  0.6666 -0.2555
 3928TIP3    H111748   6.486   0.384   4.402 -0.4274 -0.8659 -0.5715
 3928TIP3    H211749   6.451   0.353   4.546 -1.0439 -1.6322 -0.8770
 3929TIP3   OH211750   6.235   4.394   2.739 -0.4437 -0.4656 -0.8757
 3929TIP3    H111751   6.230   4.488   2.725  0.5664 -0.4525 -1.1828
 3929TIP3    H211752   6.270   4.359   2.657 -0.3306 -1.0535 -0.5799
 3930TIP3   OH211753   3.072   2.407   0.464  0.8141 -0.7243  0.2814
 3930TIP3    H111754   3.025   2.329   0.492  1.8341 -0.9720  1.3585
 3930TIP3    H211755   3.079   2.398   0.369 -2.1620 -0.1769 -0.1099
 3931TIP3   OH211756   0.158   4.520   2.501 -0.0952 -0.2700  0.5781
 3931TIP3    H111757   0.194   4.566   2.576 -0.0245  0.3420  0.1765
 3931TIP3    H211758   0.063   4.533   2.507 -0.1957 -1.2280  1.2095
 3932TIP3   OH211759   4.044   3.472   2.696  0.4002  0.4020 -0.2313
 3932TIP3    H111760   4.016   3.532   2.627 -0.0365  0.3674 -0.0817
 3932TIP3    H211761   4.010   3.387   2.670 -0.2888  0.4999  0.3374
 3933TIP3   OH211762   0.675   2.052   2.353  0.0249 -0.0542 -0.4122
 3933TIP3    H111763   0.712   2.125   2.303  1.0684 -0.4790 -0.2843
 3933TIP3    H211764   0.694   1.975   2.299  0.5108 -0.4278  0.2854
 3934TIP3   OH211765   2.965   0.288   0.593 -0.2915 -0.2534 -0.3161
 3934TIP3    H111766   2.908   0.365   0.595  0.8502  0.6213 -0.3477
 3934TIP3    H211767   3.035   0.308   0.656  0.2659 -1.0694 -0.6521
 3935TIP3   OH211768   0.342   4.790   3.765 -0.0582  0.1477  0.0944
 3935TIP3    H111769   0.298   4.759   3.686  2.1667 -0.4687 -0.9907
 3935TIP3    H211770   0.423   4.830   3.733  0.8354  0.0029  2.0558
 3936TIP3   OH211771   2.250   0.057   4.605  0.2803 -0.1564 -0.3059
 3936TIP3    H111772   2.272   0.113   4.680 -0.1393 -1.3603  0.7526
 3936TIP3    H211773   2.272  -0.031   4.634  2.4050 -0.4685 -2.4755
 3937TIP3   OH211774   0.996   2.154   3.203 -0.1536  0.2651  0.0798
 3937TIP3    H111775   1.051   2.196   3.137 -0.4896 -1.3609 -1.2857
 3937TIP3    H211776   1.003   2.212   3.279 -0.4681  2.7114 -1.6104
 3938TIP3   OH211777   0.048   1.650   4.198  0.2589  0.0874 -0.2254
 3938TIP3    H111778   0.005   1.603   4.269  0.9443  0.9647  0.8074
 3938TIP3    H211779  -0.005   1.729   4.186  0.0348 -0.1511 -0.8269
 3939TIP3   OH211780   5.738   6.476   3.351 -0.4576 -0.4016  0.2976
 3939TIP3    H111781   5.734   6.381   3.339  0.8787 -0.5213  0.6161
 3939TIP3    H211782   5.693   6.512   3.275 -0.6292 -1.2867 -0.0290
 3940TIP3   OH211783   1.749   3.571   1.120  0.6506  0.2977 -0.4505
 3940TIP3    H111784   1.818   3.624   1.160  0.1551  0.5378  0.0963
 3940TIP3    H211785   1.735   3.499   1.180 -2.2466  2.2710  1.5256
 3941TIP3   OH211786   4.334   2.567   0.474 -0.0884 -0.0680 -0.0872
 3941TIP3    H111787   4.429   2.567   0.460  0.0842 -2.3510  0.5892
 3941TIP3    H211788   4.298   2.529   0.394 -0.2015 -1.2412  0.4924
 3942TIP3   OH211789   3.203   4.720   0.890 -0.5756 -0.3537 -0.8772
 3942TIP3    H111790   3.208   4.809   0.854  0.8212 -0.4245 -0.9220
 3942TIP3    H211791   3.127   4.722   0.948 -0.4141  0.9478 -0.6683
 3943TIP3   OH211792   1.359   0.782   4.006  0.3443  0.0607 -0.2393
 3943TIP3    H111793   1.338   0.852   3.944  1.6027 -1.2392 -2.2699
 3943TIP3    H211794   1.285   0.721   3.998  0.1822  0.2182  0.0551
 3944TIP3   OH211795   6.850   3.869   5.562 -1.2497  0.1734  0.1164
 3944TIP3    H111796   6.783   3.801   5.567 -0.6524 -0.4600 -0.2575
 3944TIP3    H211797   6.835   3.923   5.639 -2.1191 -0.0192  0.0972
 3945TIP3   OH211798   4.677   2.137   1.156 -0.0731 -0.1024 -0.2275
 3945TIP3    H111799   4.698   2.077   1.084 -1.7086 -0.5822 -0.3324
 3945TIP3    H211800   4.684   2.224   1.117 -1.0560 -0.3595 -1.0157
 3946TIP3   OH211801   4.062   0.276   1.283  0.3025  0.1743 -0.0484
 3946TIP3    H111802   4.089   0.297   1.372  2.0140 -0.6584 -0.3220
 3946TIP3    H211803   4.007   0.199   1.292  1.0864 -0.3648  0.2505
 3947TIP3   OH211804   5.079   6.291   5.273  0.0287 -0.3238 -0.6352
 3947TIP3    H111805   5.084   6.375   5.318 -0.4726 -0.5235 -0.2009
 3947TIP3    H211806   5.086   6.226   5.343  0.2833 -0.6466 -0.9568
 3948TIP3   OH211807   6.107   3.846   0.684  0.2030 -0.0801 -0.5443
 3948TIP3    H111808   6.156   3.900   0.746  0.0666  0.2506 -0.7226
 3948TIP3    H211809   6.103   3.899   0.605  0.2396 -0.4382 -0.7855
 3949TIP3   OH211810   4.941   4.895   3.144  0.2456  0.3065  0.5896
 3949TIP3    H111811   4.935   4.985   3.112 -0.0396  0.5436  1.2789
 3949TIP3    H211812   5.028   4.889   3.185  0.8983 -0.2079 -0.8199
 3950TIP3   OH211813   5.594   4.636   2.178  0.0431 -0.2929 -0.0496
 3950TIP3    H111814   5.610   4.619   2.085  0.2958  0.1415 -0.0905
 3950TIP3    H211815   5.561   4.726   2.180  1.8886  0.4122  0.4424
 3951TIP3   OH211816   2.461   2.344   3.101 -0.0802 -0.3826  0.2133
 3951TIP3    H111817   2.486   2.433   3.125 -0.0514 -0.8365  1.9549
 3951TIP3    H211818   2.368   2.339   3.123 -0.0048 -0.8899  0.4099
 3952TIP3   OH211819   7.151   6.452   4.532 -0.3167  0.1491  0.0366
 3952TIP3    H111820   7.207   6.376   4.539  0.7632  0.6915 -2.0113
 3952TIP3    H211821   7.072   6.421   4.488  0.1268  0.1886 -0.8037
 3953TIP3   OH211822   6.931   5.457   5.356 -0.9371 -0.1542  0.0111
 3953TIP3    H111823   6.885   5.455   5.272 -0.9054 -0.9425  0.0011
 3953TIP3    H211824   7.018   5.490   5.335 -0.4605 -1.6396 -0.5320
 3954TIP3   OH211825   2.408   2.253   2.704 -0.0834  0.0410 -0.1920
 3954TIP3    H111826   2.484   2.204   2.671 -0.4648 -0.9501  0.3630
 3954TIP3    H211827   2.368   2.194   2.768 -0.9361  0.8308  0.0133
 3955TIP3   OH211828   2.249   6.652   5.255  0.0587 -0.2713  0.4620
 3955TIP3    H111829   2.292   6.571   5.282 -1.0126 -0.8878  0.3552
 3955TIP3    H211830   2.319   6.703   5.213  0.3429 -1.9720 -1.2565
 3956TIP3   OH211831   5.187   2.576   0.542 -0.0132  0.6121  0.0101
 3956TIP3    H111832   5.195   2.488   0.578 -1.2317  0.6847  0.5261
 3956TIP3    H211833   5.098   2.580   0.506  0.0710  1.5775 -0.1391
 3957TIP3   OH211834   6.362   2.154   4.144  0.3149 -0.1831  0.6042
 3957TIP3    H111835   6.300   2.196   4.084 -0.2323 -1.2861  0.3813
 3957TIP3    H211836   6.380   2.221   4.210  0.2627  0.7576 -0.3075
 3958TIP3   OH211837   4.496   4.513   5.780  0.1546 -0.5158 -0.3614
 3958TIP3    H111838   4.526   4.512   5.871  0.6498 -1.3875 -0.5183
 3958TIP3    H211839   4.459   4.426   5.766 -0.5322 -0.1602 -0.8072
 3959TIP3   OH211840   4.668   4.293   4.776  0.0436  0.0720 -0.5274
 3959TIP3    H111841   4.711   4.216   4.813 -2.0420 -0.1223  1.6661
 3959TIP3    H211842   4.597   4.257   4.722  0.1473  0.4610 -0.9341
 3960TIP3   OH211843   2.256   5.486   5.031 -0.2233  0.7781 -0.5415
 3960TIP3    H111844   2.256   5.390   5.031  0.3238  0.6468  2.6455
 3960TIP3    H211845   2.348   5.510   5.037 -0.4294  1.3085  1.4738
 3961TIP3   OH211846   4.996   5.161   4.042 -0.2257 -0.1656 -0.6185
 3961TIP3    H111847   4.931   5.140   4.109  0.1407  0.3114 -0.1080
 3961TIP3    H211848   5.080   5.149   4.086  0.0108  0.6109 -0.8566
 3962TIP3   OH211849   3.747   2.517   5.796  0.0175  0.3319  0.4317
 3962TIP3    H111850   3.821   2.573   5.771  0.4901 -0.9441 -1.2160
 3962TIP3    H211851   3.676   2.579   5.817  0.9100  1.5523 -0.0130
 3963TIP3   OH211852   7.087   4.550   3.099  0.3164 -1.0045  0.2475
 3963TIP3    H111853   7.133   4.567   3.017  0.8881  0.1906  0.7984
 3963TIP3    H211854   7.077   4.636   3.139 -3.0776 -1.0531 -0.1739
 3964TIP3   OH211855   4.080   5.535   2.469  0.0911 -0.4607  0.1046
 3964TIP3    H111856   4.101   5.610   2.524  0.3227 -1.4928  1.4603
 3964TIP3    H211857   3.985   5.537   2.461  0.1934  0.9100 -1.2715
 3965TIP3   OH211858   4.977   0.187   3.164 -0.1054  0.5758 -0.1359
 3965TIP3    H111859   5.067   0.200   3.190  0.1781  0.1945 -0.8789
 3965TIP3    H211860   4.975   0.211   3.071 -0.6875  0.2726 -0.2103
 3966TIP3   OH211861   6.379   5.991   5.209 -0.6445  0.4630 -0.1599
 3966TIP3    H111862   6.473   5.975   5.216 -0.5686  0.6859 -0.6117
 3966TIP3    H211863   6.350   5.932   5.140 -0.9713 -0.1258  0.4768
 3967TIP3   OH211864   6.195   0.683   1.887  0.6129  0.2355 -0.1575
 3967TIP3    H111865   6.157   0.656   1.803  0.8712 -2.0803  0.4006
 3967TIP3    H211866   6.127   0.736   1.928 -0.0729  0.2270 -1.2336
 3968TIP3   OH211867   3.694   3.714   1.088 -0.0296  0.0861  0.0697
 3968TIP3    H111868   3.616   3.768   1.075  0.3993  0.9486  0.9252
 3968TIP3    H211869   3.661   3.633   1.127 -0.4894  0.4908  0.5379
 3969TIP3   OH211870   6.027   2.566   0.405  0.2136 -0.5615  0.2286
 3969TIP3    H111871   6.043   2.631   0.337 -0.3688  1.1639  1.6723
 3969TIP3    H211872   6.077   2.597   0.481 -1.8461 -0.5479  1.6450
 3970TIP3   OH211873   1.938   1.738   3.837  0.3745  0.3305 -0.1704
 3970TIP3    H111874   2.016   1.782   3.805  1.1604 -1.9278 -1.6250
 3970TIP3    H211875   1.966   1.648   3.852 -1.5733 -0.1729  0.8362
 3971TIP3   OH211876   1.535   4.346   5.142 -0.3441  0.1201  0.6210
 3971TIP3    H111877   1.511   4.274   5.200 -0.8213  0.2272  0.5646
 3971TIP3    H211878   1.586   4.305   5.072 -1.8105 -0.4096 -0.1781
 3972TIP3   OH211879   1.175   6.801   1.523 -0.4007 -0.5614  0.3133
 3972TIP3    H111880   1.138   6.780   1.609  0.9220 -1.3912  0.6961
 3972TIP3    H211881   1.269   6.790   1.533 -0.2404 -1.0436 -1.3502
 3973TIP3   OH211882   1.163   1.678   4.488  0.1803 -0.2271  0.3849
 3973TIP3    H111883   1.199   1.619   4.422 -0.9020 -2.3414  1.5812
 3973TIP3    H211884   1.125   1.750   4.438 -2.8743 -2.9563 -1.6431
 3974TIP3   OH211885   5.494   5.627   0.181 -0.2504 -0.3490 -0.3691
 3974TIP3    H111886   5.565   5.656   0.238 -1.8271  1.7406  0.6728
 3974TIP3    H211887   5.448   5.560   0.231 -1.1805  0.9475  0.5829
 3975TIP3   OH211888   0.156   5.226   2.966 -0.0708  0.0566  0.0911
 3975TIP3    H111889   0.113   5.196   2.886  1.0656  1.2284 -1.0040
 3975TIP3    H211890   0.190   5.313   2.944  2.4756 -0.6143  0.9959
 3976TIP3   OH211891   0.892   6.296   1.486  0.0024 -0.1890  0.4640
 3976TIP3    H111892   0.904   6.381   1.445  1.9308 -0.9433 -0.6792
 3976TIP3    H211893   0.965   6.289   1.548 -1.6222  0.0153  2.5128
 3977TIP3   OH211894   6.478   6.199   0.666 -0.2116  0.0740 -0.6169
 3977TIP3    H111895   6.562   6.197   0.712 -1.0907  1.5217  1.2152
 3977TIP3    H211896   6.471   6.114   0.624  1.5003 -0.6279  0.4190
 3978TIP3   OH211897   4.244   0.785   2.137  0.2134  0.6348  0.3214
 3978TIP3    H111898   4.242   0.734   2.057 -0.9351 -0.4190  0.9800
 3978TIP3    H211899   4.337   0.805   2.151  0.4967  0.2072 -0.8641
 3979TIP3   OH211900   2.695   3.949   5.028  0.0396  0.1658 -0.3486
 3979TIP3    H111901   2.661   3.913   5.110 -0.3838 -1.2667 -1.1122
 3979TIP3    H211902   2.702   4.043   5.043  1.5109 -0.2320  1.8746
 3980TIP3   OH211903   4.980   6.414   2.071  0.4958  0.0140 -0.5474
 3980TIP3    H111904   4.920   6.386   2.002  0.3543 -3.4809  0.7851
 3980TIP3    H211905   4.931   6.401   2.152  1.4608  1.7774  0.3685
 3981TIP3   OH211906   2.954   5.041   2.952  0.0407 -0.2967  0.1116
 3981TIP3    H111907   3.009   4.969   2.923 -1.2845 -1.8133  1.1687
 3981TIP3    H211908   2.891   5.053   2.880  0.0272 -0.4650  0.0947
 3982TIP3   OH211909   3.802   0.554   0.091  0.0118 -0.3198 -0.2962
 3982TIP3    H111910   3.801   0.462   0.116 -1.8239 -0.7972 -1.8351
 3982TIP3    H211911   3.871   0.560   0.025  1.4450 -0.1350  1.1740
 3983TIP3   OH211912   3.888   2.923   3.997  0.3244  0.1536 -0.0608
 3983TIP3    H111913   3.828   2.961   4.061 -1.7857 -0.1495 -1.7864
 3983TIP3    H211914   3.889   2.830   4.018 -0.4628  0.0354 -0.5099
 3984TIP3   OH211915   5.706   4.770   1.432 -0.1336 -0.3675 -0.1152
 3984TIP3    H111916   5.770   4.834   1.464  0.1429 -1.0929  0.8443
 3984TIP3    H211917   5.747   4.732   1.354  0.1714 -0.1410 -0.0689
 3985TIP3   OH211918   2.043   5.282   1.513 -0.4759  0.7746  0.0953
 3985TIP3    H111919   2.129   5.296   1.473 -1.1937  0.3924 -1.6384
 3985TIP3    H211920   2.001   5.368   1.509  0.0870  1.1528  1.6673
 3986TIP3   OH211921   5.171   0.561   2.055  0.3760  0.2550 -0.1760
 3986TIP3    H111922   5.148   0.631   1.994  0.5247 -0.4276 -1.0446
 3986TIP3    H211923   5.149   0.480   2.008  0.6036 -0.2906  0.6363
 3987TIP3   OH211924   5.502   6.398   2.602 -0.0024  0.0425  0.4466
 3987TIP3    H111925   5.414   6.371   2.626 -0.5023  0.5380 -0.7820
 3987TIP3    H211926   5.550   6.401   2.685 -1.1041 -0.3198  1.1074
 3988TIP3   OH211927   5.540   0.575   0.805  0.2450 -0.0567  0.7421
 3988TIP3    H111928   5.489   0.506   0.848 -1.4793  0.6119 -0.1334
 3988TIP3    H211929   5.583   0.530   0.732 -1.8990 -0.0365 -0.6118
 3989TIP3   OH211930   1.920   1.634   2.917 -0.0229 -0.3568 -0.1119
 3989TIP3    H111931   1.871   1.590   2.848 -1.4956  1.0136 -0.0055
 3989TIP3    H211932   1.916   1.575   2.992 -0.7388 -0.6686 -0.3878
 3990TIP3   OH211933   0.518   1.051   3.701  0.0119  0.0381 -0.5712
 3990TIP3    H111934   0.487   1.069   3.612 -1.2243 -2.1001 -0.6195
 3990TIP3    H211935   0.459   1.099   3.757  1.1695  1.9088 -0.8577
 3991TIP3   OH211936   1.421   5.129   1.910  0.5604 -0.5259 -0.5772
 3991TIP3    H111937   1.350   5.067   1.925 -0.2856  0.6571  0.5880
 3991TIP3    H211938   1.486   5.107   1.976  0.0386  0.1148  0.1677
 3992TIP3   OH211939   6.610   5.013   5.878 -0.3818 -0.1284 -0.1991
 3992TIP3    H111940   6.596   5.105   5.855 -1.3309  0.0680  1.0271
 3992TIP3    H211941   6.705   5.004   5.886 -0.3426  1.3736  1.8796
 3993TIP3   OH211942   0.482   4.179   2.709  0.3252 -0.3467  0.0401
 3993TIP3    H111943   0.455   4.088   2.700 -0.9211 -0.0769  0.7472
 3993TIP3    H211944   0.488   4.211   2.619  0.5422 -1.0629 -0.2051
 3994TIP3   OH211945   6.144   5.333   2.453 -0.4695  0.2953 -0.6030
 3994TIP3    H111946   6.084   5.293   2.390 -0.2447  0.7293 -1.0980
 3994TIP3    H211947   6.231   5.311   2.421 -0.3422 -0.7333  0.3706
 3995TIP3   OH211948   5.468   4.687   3.223 -0.7603  0.1554  0.2298
 3995TIP3    H111949   5.538   4.726   3.275 -1.0931  1.0506  0.0276
 3995TIP3    H211950   5.510   4.614   3.178 -0.8619 -1.8238  3.0854
 3996TIP3   OH211951   6.615   3.028   0.517  0.2271 -0.4881  0.2282
 3996TIP3    H111952   6.644   2.978   0.594 -0.4065 -2.2817 -0.6413
 3996TIP3    H211953   6.619   3.120   0.545  0.6605 -1.0515  2.1679
 3997TIP3   OH211954   0.170   6.194   2.942  0.2138  0.0569  0.1481
 3997TIP3    H111955   0.259   6.191   2.977 -0.7365 -0.6198  2.6935
 3997TIP3    H211956   0.115   6.209   3.018 -1.9660 -0.5411 -1.2318
 3998TIP3   OH211957   3.446   4.823   1.159 -0.0894 -0.9051 -0.3246
 3998TIP3    H111958   3.522   4.881   1.154 -0.5948  0.1993  2.9253
 3998TIP3    H211959   3.481   4.737   1.137  1.6534 -0.1190 -0.8588
 3999TIP3   OH211960   5.552   5.018   5.297  0.3026 -0.1180 -0.2561
 3999TIP3    H111961   5.541   5.109   5.326 -2.2420 -0.6208  0.5252
 3999TIP3    H211962   5.472   4.974   5.325  1.8246 -2.8305  0.1360
 4000TIP3   OH211963   7.205   5.024   5.747 -0.0921 -0.6729 -0.7595
 4000TIP3    H111964   7.150   5.100   5.730 -0.2310 -0.1472  1.6061
 4000TIP3    H211965   7.163   4.952   5.700 -0.9132  0.3618 -1.6624
 4001TIP3   OH211966   2.289   2.272   0.094  0.3080  0.5194 -0.2195
 4001TIP3    H111967   2.197   2.266   0.068  0.3749 -0.1423 -0.3257
 4001TIP3    H211968   2.306   2.191   0.141  0.6510  0.9549  0.4211
 4002TIP3   OH211969   6.768   6.190   4.542  0.1732 -0.3636  0.1889
 4002TIP3    H111970   6.853   6.227   4.565 -0.1025  1.3187 -1.2896
 4002TIP3    H211971   6.705   6.259   4.563 -0.5822 -0.7666 -0.6771
 4003TIP3   OH211972   5.750   2.177   3.849  0.0209 -0.1243  0.7496
 4003TIP3    H111973   5.814   2.143   3.787 -0.7458 -1.3841  0.6144
 4003TIP3    H211974   5.802   2.209   3.922  0.9068  0.8891 -0.2877
 4004TIP3   OH211975   4.763   5.808   1.599  0.1007  0.4813 -0.3531
 4004TIP3    H111976   4.758   5.739   1.533 -0.9895  0.6273 -0.4462
 4004TIP3    H211977   4.804   5.882   1.554  1.7250 -0.2431 -0.1126
 4005TIP3   OH211978   6.513   6.715   5.889 -0.4389  0.5074 -0.0398
 4005TIP3    H111979   6.524   6.685   5.799 -0.1722  0.7550 -0.0929
 4005TIP3    H211980   6.422   6.694   5.911  0.3146 -2.5305  0.7245
 4006TIP3   OH211981   2.998   3.879   1.429 -0.2835  0.0271  0.1289
 4006TIP3    H111982   2.968   3.967   1.406  0.6967  0.4871  0.5305
 4006TIP3    H211983   2.931   3.846   1.489 -1.2939  0.0006 -0.9885
 4007TIP3   OH211984   0.050   5.122   3.403 -0.0379 -0.1403  0.0526
 4007TIP3    H111985  -0.033   5.170   3.406 -0.2958 -0.3109 -2.3767
 4007TIP3    H211986   0.050   5.069   3.483 -1.7816  0.6066  0.6037
 4008TIP3   OH211987   0.810   6.277   1.141  0.7626  0.0759 -0.0859
 4008TIP3    H111988   0.844   6.258   1.054 -0.0298  1.5628 -0.7584
 4008TIP3    H211989   0.723   6.237   1.143  1.3150 -1.1561  0.5569
 4009TIP3   OH211990   3.744   0.005   1.877 -0.0782  0.1166 -0.8163
 4009TIP3    H111991   3.674   0.070   1.877  0.0803  0.3940  2.0592
 4009TIP3    H211992   3.709  -0.068   1.928  0.5512 -1.2081 -2.1677
 4010TIP3   OH211993   4.627   4.334   4.185  0.1531  0.7254 -0.2017
 4010TIP3    H111994   4.693   4.365   4.122 -0.4710  0.2903 -1.0862
 4010TIP3    H211995   4.544   4.343   4.139 -0.2865  0.1223  0.4563
 4011TIP3   OH211996   5.715   0.569   3.008  0.4344 -0.0130 -0.0401
 4011TIP3    H111997   5.645   0.596   2.949  0.5989  2.3321  0.7410
 4011TIP3    H211998   5.796   0.597   2.965  0.6921 -0.1587  0.3443
 4012TIP3   OH211999   4.557   5.857   2.319  1.2738  0.5315 -0.6421
 4012TIP3    H112000   4.499   5.924   2.281 -3.6460 -2.1934  1.1963
 4012TIP3    H212001   4.571   5.794   2.248 -0.9188 -0.4089 -0.3039
 4013TIP3   OH212002   0.162   1.123   3.969 -0.8863 -0.0881 -1.0411
 4013TIP3    H112003   0.180   1.033   3.942  0.7136  0.0017 -0.3480
 4013TIP3    H212004   0.229   1.175   3.927 -1.0575  0.6272 -0.4463
 4014TIP3   OH212005   3.725   5.629   3.154 -0.1027  0.6036  0.3398
 4014TIP3    H112006   3.707   5.543   3.192  2.3512 -0.7083 -1.2170
 4014TIP3    H212007   3.658   5.639   3.086  0.5514 -0.8997 -0.5929
 4015TIP3   OH212008   4.355   0.577   2.949 -0.1171  0.1927  0.3539
 4015TIP3    H112009   4.373   0.652   2.894  1.2823 -0.5406 -0.2363
 4015TIP3    H212010   4.315   0.614   3.028 -1.9645  1.2822 -1.0025
 4016TIP3   OH212011   0.465   0.397   2.557  0.1552 -0.5123 -0.3208
 4016TIP3    H112012   0.479   0.377   2.650 -0.7073 -1.2943 -0.3514
 4016TIP3    H212013   0.548   0.437   2.529  0.1927  0.3573  0.9414
 4017TIP3   OH212014   2.550   5.639   4.991  0.3444 -0.0943 -0.4795
 4017TIP3    H112015   2.491   5.713   5.005  1.3075  0.8381 -1.1454
 4017TIP3    H212016   2.591   5.625   5.076 -0.9590 -0.9016  0.0518
 4018TIP3   OH212017   6.905   6.325   1.755 -0.0499 -0.1748  0.2539
 4018TIP3    H112018   6.883   6.355   1.666  0.2866 -0.6803 -0.0043
 4018TIP3    H212019   6.854   6.382   1.812  1.2414  1.4778 -0.1787
 4019TIP3   OH212020   4.089   0.428   0.402  0.1781 -0.0030 -0.2366
 4019TIP3    H112021   4.063   0.375   0.326 -0.6616 -0.5308  0.4039
 4019TIP3    H212022   4.031   0.504   0.399 -0.2124 -0.2839  0.1719
 4020TIP3   OH212023   6.543   0.668   4.460 -0.1913  0.1661  0.5884
 4020TIP3    H112024   6.465   0.696   4.412  0.0340 -0.2567 -0.0291
 4020TIP3    H212025   6.521   0.579   4.489 -0.0605  0.1657  0.6853
 4021TIP3   OH212026   5.410   6.127   2.137  0.1467  0.9852 -0.1494
 4021TIP3    H112027   5.322   6.101   2.167  0.8938 -0.0222  1.2566
 4021TIP3    H212028   5.413   6.222   2.153 -1.7666  1.7073 -3.1773
 4022TIP3   OH212029   4.428   5.221   1.847  0.3749 -0.2752  0.4284
 4022TIP3    H112030   4.416   5.151   1.911  1.0967 -0.6229  0.2023
 4022TIP3    H212031   4.519   5.249   1.859  0.4754 -0.2459 -0.3411
 4023TIP3   OH212032   2.182   1.288   3.274 -0.3279 -0.0899  0.3715
 4023TIP3    H112033   2.139   1.268   3.358  1.0262 -0.3128  1.0338
 4023TIP3    H212034   2.202   1.381   3.280  0.3011 -0.2357  0.5480
 4024TIP3   OH212035   4.736   5.140   1.649 -0.1098 -0.1739 -0.3988
 4024TIP3    H112036   4.744   5.236   1.645  0.1451 -0.2139 -0.9304
 4024TIP3    H212037   4.816   5.108   1.609 -0.1710 -0.6163 -0.1710
 4025TIP3   OH212038   4.018   0.793   3.863 -0.2154  0.2426 -0.0689
 4025TIP3    H112039   4.024   0.854   3.789 -1.6117  0.8433  0.2719
 4025TIP3    H212040   3.955   0.727   3.835  0.7004 -0.6419 -0.1282
 4026TIP3   OH212041   1.862   5.163   4.178 -0.3792  0.1052  0.0674
 4026TIP3    H112042   1.937   5.170   4.119 -1.2493  2.0417 -0.8617
 4026TIP3    H212043   1.901   5.157   4.265  0.8698  0.5564 -0.4404
 4027TIP3   OH212044   5.050   3.173   4.028  0.1060  0.3865 -0.7739
 4027TIP3    H112045   4.970   3.166   3.976 -0.3599 -1.2035  0.0890
 4027TIP3    H212046   5.071   3.083   4.053  3.1315  0.5439 -2.3393
 4028TIP3   OH212047   4.437   5.238   3.605  0.0920 -0.3433  0.2081
 4028TIP3    H112048   4.395   5.180   3.541 -0.2608  0.1850 -0.0466
 4028TIP3    H212049   4.519   5.263   3.563 -1.0465  1.6424 -0.9768
 4029TIP3   OH212050   2.906   3.992   3.952  0.2274 -0.4468  0.0935
 4029TIP3    H112051   2.947   3.905   3.950 -1.2739 -1.3616  3.1467
 4029TIP3    H212052   2.974   4.050   3.987  0.1588 -1.1767  1.5030
 4030TIP3   OH212053   0.903   2.475   2.140  0.9132 -0.1967  0.1941
 4030TIP3    H112054   0.909   2.499   2.048 -0.1100  2.1733  0.6671
 4030TIP3    H212055   0.895   2.559   2.186  1.6785 -1.2880  2.4768
 4031TIP3   OH212056   5.418   0.012   2.512 -0.2272  0.2862  0.2874
 4031TIP3    H112057   5.491   0.068   2.538  0.6976 -1.4281  1.5910
 4031TIP3    H212058   5.340   0.063   2.536  0.4460  2.3627 -1.5879
 4032TIP3   OH212059   4.660   1.677   4.329 -0.2322  0.3915 -0.3073
 4032TIP3    H112060   4.633   1.647   4.242 -1.4598  1.1571 -0.2127
 4032TIP3    H212061   4.597   1.637   4.389  0.4222  0.1156  0.2130
 4033TIP3   OH212062   1.523   1.624   2.614 -0.1343 -0.4543  0.3951
 4033TIP3    H112063   1.452   1.590   2.560  1.1581 -1.3802 -0.8179
 4033TIP3    H212064   1.581   1.668   2.552  1.0298 -0.9147  1.1271
 4034TIP3   OH212065   5.579   0.215   4.469  0.4205  0.0200  0.3261
 4034TIP3    H112066   5.651   0.171   4.513  0.2342  0.0452  0.6642
 4034TIP3    H212067   5.620   0.283   4.417  0.5130  1.3761  2.0948
 4035TIP3   OH212068   0.820   6.421   0.391  0.2011  0.0003 -0.0336
 4035TIP3    H112069   0.774   6.443   0.472 -1.1950  0.4022 -0.8958
 4035TIP3    H212070   0.878   6.495   0.375  0.0432  0.1944  0.2894
 4036TIP3   OH212071   1.292   0.558   4.695 -0.2017 -0.3977 -0.0243
 4036TIP3    H112072   1.250   0.542   4.780  1.4703 -0.4032  0.8439
 4036TIP3    H212073   1.219   0.575   4.635 -1.5579 -2.2107  0.9828
 4037TIP3   OH212074   2.425   3.629   3.924  0.0447 -0.1182  0.1999
 4037TIP3    H112075   2.489   3.567   3.959  0.5255  0.8914  1.1488
 4037TIP3    H212076   2.440   3.710   3.972 -1.1672  0.4929 -0.3913
 4038TIP3   OH212077   3.051   0.813   4.182 -0.6014  0.2040 -0.2236
 4038TIP3    H112078   3.091   0.893   4.147 -0.5069  0.3168  0.1396
 4038TIP3    H212079   3.125   0.754   4.198 -0.7217 -0.2187 -1.1272
 4039TIP3   OH212080   5.491   3.426   2.757 -0.8871 -0.0623 -0.3933
 4039TIP3    H112081   5.494   3.507   2.807 -0.8533 -0.1251 -0.2934
 4039TIP3    H212082   5.415   3.379   2.791 -0.6275 -0.2866 -0.1198
 4040TIP3   OH212083   1.432   4.990   2.899  0.6315  0.4142 -0.3220
 4040TIP3    H112084   1.403   5.069   2.945  0.0757  1.0458 -1.6751
 4040TIP3    H212085   1.514   4.965   2.942  0.7345  1.6527  0.2361
 4041TIP3   OH212086   3.138   4.397   2.017 -0.7073  0.1514  0.0978
 4041TIP3    H112087   3.061   4.390   2.073 -0.7715  0.4152  0.0447
 4041TIP3    H212088   3.133   4.321   1.959 -1.1120  0.3484 -0.1331
 4042TIP3   OH212089   3.686   2.827   4.723  0.1041  0.5793 -0.1894
 4042TIP3    H112090   3.634   2.749   4.741  0.3630  0.2820 -0.7172
 4042TIP3    H212091   3.759   2.821   4.785 -0.3017  0.8177  0.3139
 4043TIP3   OH212092   5.125   5.275   0.375 -0.5772 -0.8470 -0.2388
 4043TIP3    H112093   5.167   5.220   0.442 -0.7828 -1.8684 -0.9220
 4043TIP3    H212094   5.033   5.249   0.378 -1.7345  2.7605  2.6343
 4044TIP3   OH212095   1.609   0.183   5.086 -0.0986  0.3268 -0.3005
 4044TIP3    H112096   1.558   0.200   5.007 -0.5562 -1.5588 -0.4582
 4044TIP3    H212097   1.613   0.087   5.092 -2.1528  0.2622  3.2469
 4045TIP3   OH212098   1.120   1.235   2.097 -0.0771 -0.4388  0.0006
 4045TIP3    H112099   1.118   1.178   2.174  0.3612 -0.1983  0.1987
 4045TIP3    H212100   1.192   1.202   2.044  0.8460  0.5322  0.6070
 4046TIP3   OH212101   2.408   6.152   2.286  0.3415 -0.5314 -0.4754
 4046TIP3    H112102   2.389   6.236   2.244  0.7233 -0.0288  0.3102
 4046TIP3    H212103   2.481   6.116   2.236  1.1484  0.3105  0.0541
 4047TIP3   OH212104   4.208   2.805   0.498 -0.9195 -0.4376  0.0656
 4047TIP3    H112105   4.262   2.726   0.502 -0.8334 -0.3612  0.6368
 4047TIP3    H212106   4.120   2.774   0.476 -0.8167 -0.6562 -0.0355
 4048TIP3   OH212107   7.066   4.093   3.656 -0.0643 -0.5958  0.1943
 4048TIP3    H112108   7.092   4.102   3.564 -0.3816  1.5917  0.2552
 4048TIP3    H212109   6.972   4.075   3.652 -0.4277  1.1509  0.0611
 4049TIP3   OH212110   1.869   1.932   3.471  0.3076 -0.3619 -0.5082
 4049TIP3    H112111   1.807   1.955   3.541 -0.1730 -0.3865 -0.9264
 4049TIP3    H212112   1.955   1.940   3.513  0.0334 -0.1878  0.0359
 4050TIP3   OH212113   0.415   0.732   2.256  0.1016 -0.0191 -0.1150
 4050TIP3    H112114   0.341   0.679   2.284 -0.9626  1.9442  0.9771
 4050TIP3    H212115   0.437   0.697   2.169 -2.7816 -0.0277 -0.9564
 4051TIP3   OH212116   2.458   3.245   0.018  0.1901 -0.2675  0.2892
 4051TIP3    H112117   2.542   3.205  -0.004  0.1832 -0.5337  0.7382
 4051TIP3    H212118   2.482   3.325   0.065  0.2116  0.4901 -0.9470
 4052TIP3   OH212119   0.870   2.806   1.587 -0.4259  0.1150  0.0840
 4052TIP3    H112120   0.824   2.770   1.512 -0.2978  0.9491 -0.4123
 4052TIP3    H212121   0.862   2.740   1.655 -2.8150  0.4377  0.2068
 4053TIP3   OH212122   2.108   2.669   1.941  0.1531 -0.4732  0.2083
 4053TIP3    H112123   2.016   2.695   1.945  0.1855 -0.4425  1.0667
 4053TIP3    H212124   2.156   2.749   1.962  0.3555 -0.6068  0.2546
 4054TIP3   OH212125   3.462   5.712   1.006  0.3020 -0.1057 -0.0631
 4054TIP3    H112126   3.408   5.653   0.952 -0.8792  1.5877 -0.8225
 4054TIP3    H212127   3.407   5.789   1.019  2.2532  1.3852 -0.1968
 4055TIP3   OH212128   3.593   2.804   1.707 -0.8332 -0.2622  0.1403
 4055TIP3    H112129   3.570   2.879   1.763  1.5304  0.1369  0.6970
 4055TIP3    H212130   3.683   2.821   1.680 -1.3145 -1.3159 -2.4539
 4056TIP3   OH212131   4.871   2.977   2.380  0.7156 -0.2657  0.4464
 4056TIP3    H112132   4.910   3.014   2.459 -1.7847  1.3646  1.0410
 4056TIP3    H212133   4.779   2.963   2.403 -0.2407  0.8109 -2.3152
 4057TIP3   OH212134   1.184   0.721   0.266  0.4024 -0.5497 -0.0594
 4057TIP3    H112135   1.184   0.769   0.183  2.2802 -0.5508 -0.1066
 4057TIP3    H212136   1.226   0.781   0.328  0.4521 -1.1542  0.5020
 4058TIP3   OH212137   4.194   0.084   0.266 -0.2769 -0.1742  0.1873
 4058TIP3    H112138   4.181   0.011   0.327 -0.6971 -0.6270 -0.4300
 4058TIP3    H212139   4.289   0.090   0.257 -0.2233 -2.0436 -1.3451
 4059TIP3   OH212140   0.526   3.291   0.491 -0.3975  0.3055 -0.4478
 4059TIP3    H112141   0.445   3.311   0.445 -0.8836  1.7867  0.9557
 4059TIP3    H212142   0.537   3.363   0.554  0.9662 -0.8808  0.7614
 4060TIP3   OH212143   6.682   0.209   4.592 -0.2452 -0.0528  0.1862
 4060TIP3    H112144   6.735   0.140   4.632 -1.3120 -0.3911  1.0905
 4060TIP3    H212145   6.683   0.189   4.499  0.0847 -0.8514  0.3533
 4061TIP3   OH212146   5.741   4.579   3.670 -0.0086  0.2868 -0.1348
 4061TIP3    H112147   5.810   4.644   3.680  0.3792 -0.0430 -0.6224
 4061TIP3    H212148   5.757   4.540   3.584 -0.0274 -0.6842  0.2843
 4062TIP3   OH212149   4.268   1.302   4.376 -0.3654 -0.4082  0.2736
 4062TIP3    H112150   4.348   1.273   4.420 -0.9144 -0.1125  1.4968
 4062TIP3    H212151   4.275   1.397   4.376  0.1737 -0.4201 -1.3549
 4063TIP3   OH212152   2.554   3.016   5.177 -0.0332 -0.2806 -0.1117
 4063TIP3    H112153   2.517   2.928   5.182 -0.0842 -0.2336  0.4385
 4063TIP3    H212154   2.606   3.016   5.097 -2.2664  0.0646 -1.6415
 4064TIP3   OH212155   7.193   1.764   0.055 -0.4017 -0.5300 -0.0541
 4064TIP3    H112156   7.130   1.835   0.068 -1.5479 -1.5842  0.3722
 4064TIP3    H212157   7.259   1.776   0.123 -2.2996 -1.6560  2.1084
 4065TIP3   OH212158   5.771   4.381   3.845  0.2165 -0.3462  0.0075
 4065TIP3    H112159   5.744   4.459   3.795  0.4590  0.1888  0.6900
 4065TIP3    H212160   5.754   4.308   3.786  1.5366  0.3488 -1.3119
 4066TIP3   OH212161   4.451   1.631   1.190 -0.2236 -0.1114 -0.1564
 4066TIP3    H112162   4.495   1.607   1.108 -1.5719 -0.5910 -0.7641
 4066TIP3    H212163   4.517   1.617   1.257  0.3301 -1.5768 -0.9576
 4067TIP3   OH212164   4.469   0.291   2.526 -0.1789 -0.7031  0.2750
 4067TIP3    H112165   4.489   0.199   2.543 -1.1721 -0.6563  1.9015
 4067TIP3    H212166   4.517   0.339   2.593 -2.5085 -0.3473  1.8155
 4068TIP3   OH212167   0.083   3.011   0.185  0.2704 -0.1529 -0.2042
 4068TIP3    H112168   0.025   3.000   0.260 -0.1005 -2.4261 -0.7408
 4068TIP3    H212169   0.081   3.104   0.166 -1.1733  0.1838  1.3867
 4069TIP3   OH212170   6.242   0.933   5.364  0.5293  0.1403  0.6947
 4069TIP3    H112171   6.163   0.896   5.403  0.4051  0.2041  0.5067
 4069TIP3    H212172   6.211   1.013   5.320  0.6665  0.0744  0.4757
 4070TIP3   OH212173   2.953   5.931   5.206 -0.0945  0.3640 -0.8697
 4070TIP3    H112174   3.032   5.978   5.178  0.0682 -0.1124 -1.2262
 4070TIP3    H212175   2.891   6.000   5.231 -0.6719  0.9063 -3.5010
 4071TIP3   OH212176   5.682   3.116   2.182  0.0039  0.0539  0.3762
 4071TIP3    H112177   5.625   3.083   2.112  0.7428 -1.4791  0.4624
 4071TIP3    H212178   5.691   3.042   2.242  0.2261  1.0185  1.5682
 4072TIP3   OH212179   4.792   3.443   2.489  0.1826 -0.0991  0.1136
 4072TIP3    H112180   4.783   3.537   2.505  0.0829  0.4244 -2.5222
 4072TIP3    H212181   4.879   3.433   2.450  0.9507 -1.4245  2.0008
 4073TIP3   OH212182   2.665   6.185   0.904  0.3400  0.2959 -0.6871
 4073TIP3    H112183   2.632   6.210   0.818  1.3205  2.2796 -0.5493
 4073TIP3    H212184   2.717   6.260   0.933 -0.2380 -0.1695  1.8068
 4074TIP3   OH212185   1.086   5.148   4.483 -0.1708 -0.9585 -0.2359
 4074TIP3    H112186   1.102   5.174   4.573 -0.1542 -1.4978 -0.0770
 4074TIP3    H212187   0.993   5.167   4.469  0.1738  0.6117 -0.6278
 4075TIP3   OH212188   3.041   0.458   4.855 -0.4044 -0.2254 -0.2004
 4075TIP3    H112189   2.948   0.442   4.843 -0.1578 -0.9479 -1.3407
 4075TIP3    H212190   3.053   0.550   4.832 -0.3580 -0.9343 -3.4943
 4076TIP3   OH212191   1.290   1.054   1.989  0.5044  0.2197 -0.3714
 4076TIP3    H112192   1.370   1.079   1.943  1.4286 -1.4552  0.2403
 4076TIP3    H212193   1.248   0.989   1.933 -1.2852  2.1459 -1.4125
 4077TIP3   OH212194   7.165   3.491   1.209  0.2841 -0.4012 -0.1224
 4077TIP3    H112195   7.256   3.511   1.185 -0.1203  0.3771 -1.0538
 4077TIP3    H212196   7.113   3.558   1.164 -0.5958  0.6232  2.2717
 4078TIP3   OH212197   6.004   6.690   0.676 -0.0391 -0.1778 -0.2674
 4078TIP3    H112198   5.969   6.731   0.755  2.1111 -0.3083  0.8126
 4078TIP3    H212199   6.034   6.764   0.622  0.2343 -0.1623 -0.0958
 4079TIP3   OH212200   2.394   3.965   5.046  0.7923  0.0356 -0.3505
 4079TIP3    H112201   2.408   4.050   5.089  1.2869 -0.5780  0.7416
 4079TIP3    H212202   2.352   3.911   5.112  0.1579 -0.4854 -1.1564
 4080TIP3   OH212203   1.788   3.432   5.730 -0.1916  0.2202  0.5682
 4080TIP3    H112204   1.796   3.526   5.741 -0.5070  0.4359 -0.8306
 4080TIP3    H212205   1.693   3.416   5.730 -0.1476 -0.0498  0.5298
 4081TIP3   OH212206   1.324   6.649   4.733  0.6190  0.5794 -0.0944
 4081TIP3    H112207   1.246   6.688   4.772 -0.0508 -1.0816  0.3446
 4081TIP3    H212208   1.380   6.723   4.711 -1.7897  1.9701 -2.0739
 4082TIP3   OH212209   2.102   6.106   1.036 -0.0612 -0.8458 -0.1586
 4082TIP3    H112210   2.164   6.145   1.097 -1.8428 -0.7378  1.6667
 4082TIP3    H212211   2.100   6.167   0.962  0.2557  0.4022  0.8313
 4083TIP3   OH212212   6.648   0.204   1.904 -0.6274  0.4788  0.4194
 4083TIP3    H112213   6.712   0.244   1.963 -0.0694 -0.8469  0.7388
 4083TIP3    H212214   6.606   0.136   1.957  1.3362 -2.1918 -1.2152
 4084TIP3   OH212215   0.177   1.078   0.741 -0.0686  0.2531 -0.4373
 4084TIP3    H112216   0.086   1.102   0.758 -0.6570 -1.7542 -0.3885
 4084TIP3    H212217   0.227   1.158   0.754 -1.5679  0.9329  1.6725
 4085TIP3   OH212218   6.827   3.106   5.095 -0.1710  0.4469 -0.0603
 4085TIP3    H112219   6.744   3.127   5.052 -1.3469 -1.2337  1.2860
 4085TIP3    H212220   6.893   3.145   5.037 -1.7047 -0.6384 -2.7637
 4086TIP3   OH212221   4.194   5.152   4.271  0.5778  0.7241  0.0008
 4086TIP3    H112222   4.179   5.068   4.315 -0.2138  0.7550 -0.1939
 4086TIP3    H212223   4.259   5.196   4.325 -0.2196  0.6810  1.0390
 4087TIP3   OH212224   1.511   1.974   1.677  0.2827  0.3069  0.4957
 4087TIP3    H112225   1.454   1.897   1.674 -2.1448  2.0074  0.3958
 4087TIP3    H212226   1.549   1.972   1.765  1.0934 -1.4916  0.1685
 4088TIP3   OH212227   3.224   6.027   3.500 -0.0670 -0.0096  0.3048
 4088TIP3    H112228   3.237   6.094   3.567  0.4398 -0.8853  1.1088
 4088TIP3    H212229   3.180   5.955   3.546  2.2893 -1.5607  0.3496
 4089TIP3   OH212230   6.808   2.058   4.948  0.2194  0.1374 -0.3741
 4089TIP3    H112231   6.891   2.014   4.930 -0.6661 -0.7686 -2.6012
 4089TIP3    H212232   6.833   2.143   4.984  2.2575  0.7930 -3.0011
 4090TIP3   OH212233   2.607   4.408   5.085  0.2979  0.1611 -0.4402
 4090TIP3    H112234   2.559   4.363   5.155  0.4306  0.5391 -0.1040
 4090TIP3    H212235   2.626   4.494   5.121 -1.1117  0.9845 -1.5455
 4091TIP3   OH212236   4.313   2.013   2.026  0.8423 -0.2068  0.2103
 4091TIP3    H112237   4.344   2.000   1.936  0.9934 -0.2106  0.2631
 4091TIP3    H212238   4.323   1.927   2.067 -1.3176 -0.8174 -0.3988
 4092TIP3   OH212239   1.043   3.705   0.499  0.7214  0.0861  0.2590
 4092TIP3    H112240   1.130   3.712   0.460 -0.0930 -0.8879 -1.8541
 4092TIP3    H212241   0.993   3.777   0.459  0.2445 -0.0621  0.5755
 4093TIP3   OH212242   1.069   4.961   2.577  0.2457  0.2261  0.1190
 4093TIP3    H112243   1.146   4.989   2.528  0.5730  2.2789  1.7020
 4093TIP3    H212244   1.011   4.923   2.511  1.7695  0.4542 -1.4087
 4094TIP3   OH212245   0.349   1.616   1.123 -0.3841  0.4140 -0.3384
 4094TIP3    H112246   0.388   1.621   1.035  0.3399 -0.5632 -0.0827
 4094TIP3    H212247   0.367   1.701   1.162 -0.7003  0.8575 -1.1258
 4095TIP3   OH212248   1.935   3.885   1.836  0.2297 -0.0129  1.0843
 4095TIP3    H112249   2.025   3.918   1.838  1.3145 -2.7224  0.8402
 4095TIP3    H212250   1.923   3.855   1.746 -0.6021 -0.5346  1.3585
 4096TIP3   OH212251   4.606   0.073   5.696 -0.0147  0.4536 -0.1981
 4096TIP3    H112252   4.558   0.055   5.616 -1.7072 -0.8385  1.0341
 4096TIP3    H212253   4.695   0.042   5.679 -0.3684  0.1511 -1.5427
 4097TIP3   OH212254   4.714   5.887   5.665 -0.0046  0.1265 -0.5652
 4097TIP3    H112255   4.773   5.825   5.623  0.5784 -0.9311  1.6770
 4097TIP3    H212256   4.630   5.841   5.670  0.0539  0.0628 -0.1534
 4098TIP3   OH212257   1.957   1.314   4.314  0.3426  0.7895  0.0727
 4098TIP3    H112258   1.863   1.298   4.324  0.3622  0.6465  0.0409
 4098TIP3    H212259   1.976   1.387   4.373 -0.1147  1.9759 -1.1967
 4099TIP3   OH212260   6.700   1.846   4.597  0.0846 -0.4242 -0.3363
 4099TIP3    H112261   6.665   1.882   4.678 -1.4294 -2.5166  0.0361
 4099TIP3    H212262   6.739   1.762   4.622 -0.7510 -1.2960 -1.7779
 4100TIP3   OH212263   4.527   2.573   2.759  0.2955  0.4763 -0.1064
 4100TIP3    H112264   4.552   2.598   2.848 -0.2500 -0.1613  0.2347
 4100TIP3    H212265   4.569   2.638   2.703 -1.0497  2.1816  0.7432
 4101TIP3   OH212266   6.041   0.081   2.332 -0.9648  0.4899  0.2088
 4101TIP3    H112267   5.968   0.026   2.303 -0.4912 -0.3057  0.4653
 4101TIP3    H212268   6.000   0.161   2.364 -1.6369  0.5651 -0.7663
 4102TIP3   OH212269   1.717   2.027   4.091 -0.1003  0.1297  0.6342
 4102TIP3    H112270   1.646   1.972   4.125  0.9333 -2.4598 -1.1835
 4102TIP3    H212271   1.789   2.015   4.154 -0.3245  0.5832  0.9904
 4103TIP3   OH212272   6.280   2.913   5.774 -0.4659  0.4174 -0.4236
 4103TIP3    H112273   6.351   2.949   5.721 -0.1524  0.2527 -0.1183
 4103TIP3    H212274   6.200   2.942   5.730 -0.2139 -0.3448 -1.4128
 4104TIP3   OH212275   3.779   1.968   4.597 -0.0446 -0.3287  0.3759
 4104TIP3    H112276   3.854   1.915   4.568  0.4271 -0.2123  1.3366
 4104TIP3    H212277   3.710   1.905   4.615  0.5445 -0.6647  1.6048
 4105TIP3   OH212278   4.464   1.247   4.612 -0.3326  0.1504  0.3449
 4105TIP3    H112279   4.409   1.297   4.673 -1.3866  1.4540 -1.5363
 4105TIP3    H212280   4.537   1.306   4.593 -1.1895  0.7557 -1.3090
 4106TIP3   OH212281   1.006   5.784   2.933  0.1357  0.2778  0.0129
 4106TIP3    H112282   0.935   5.721   2.920  0.4142 -0.2043  0.7485
 4106TIP3    H212283   1.073   5.735   2.981  1.4044  0.4148 -1.5171
 4107TIP3   OH212284   0.585   2.665   5.410 -0.0399 -0.6253 -0.7167
 4107TIP3    H112285   0.663   2.641   5.460  2.4845  1.9062 -3.1056
 4107TIP3    H212286   0.568   2.589   5.354  1.0083 -1.0322 -0.5026
 4108TIP3   OH212287   6.380   2.459   5.760  0.6753  0.2348  0.2689
 4108TIP3    H112288   6.474   2.475   5.774  0.5142  2.7143 -1.0437
 4108TIP3    H212289   6.373   2.444   5.666 -0.0002 -2.4463  0.6658
 4109TIP3   OH212290   5.277   4.856   4.735  0.2899 -0.0504  0.5096
 4109TIP3    H112291   5.234   4.907   4.804  0.4068  0.8287 -0.0453
 4109TIP3    H212292   5.271   4.766   4.765 -1.3420  0.1064  0.7893
 4110TIP3   OH212293   1.018   5.535   2.724 -0.0459  0.3654  0.4471
 4110TIP3    H112294   0.967   5.456   2.708  0.3435  0.1745  0.1163
 4110TIP3    H212295   0.983   5.600   2.663  0.9493 -0.1454 -0.6983
 4111TIP3   OH212296   5.634   3.977   4.227  0.1537  0.3507 -0.1760
 4111TIP3    H112297   5.675   4.001   4.310  0.5758 -1.9400  0.3598
 4111TIP3    H212298   5.540   3.987   4.243  0.2713  0.7825  0.2784
 4112TIP3   OH212299   6.287   5.503   4.740 -0.5625 -0.0751  0.6389
 4112TIP3    H112300   6.327   5.508   4.827  0.3098 -1.8801  0.3793
 4112TIP3    H212301   6.361   5.513   4.680 -1.0546  0.3470  0.0858
 4113TIP3   OH212302   7.017   4.042   5.097 -0.0367  0.2600  0.0114
 4113TIP3    H112303   6.977   3.982   5.160 -1.3643  1.0353 -0.0588
 4113TIP3    H212304   7.098   3.999   5.071  0.6191 -0.0298  2.3229
 4114TIP3   OH212305   1.408   6.529   3.134  0.0828 -0.2391 -0.2483
 4114TIP3    H112306   1.493   6.500   3.101 -0.2313 -0.6963 -0.6715
 4114TIP3    H212307   1.414   6.519   3.229  0.7523  0.4264 -0.2131
 4115TIP3   OH212308   4.620   1.202   0.370 -0.0501 -0.0000 -0.3153
 4115TIP3    H112309   4.588   1.292   0.372  1.7304  0.6646  0.7679
 4115TIP3    H212310   4.560   1.154   0.428  0.4981  1.0852  1.2286
 4116TIP3   OH212311   3.689   1.663   1.285 -0.3045  0.2840 -0.1637
 4116TIP3    H112312   3.599   1.639   1.307  0.1619 -1.0786  0.3067
 4116TIP3    H212313   3.744   1.603   1.335  0.8734  0.7993 -0.7897
 4117TIP3   OH212314   2.443   4.685   1.127 -0.2256 -0.7333 -0.3979
 4117TIP3    H112315   2.520   4.740   1.141 -1.7724  1.5203 -0.1979
 4117TIP3    H212316   2.475   4.611   1.076  1.9403  0.4480 -0.8614
 4118TIP3   OH212317   0.690   1.028   1.781  0.0074  0.4147 -0.0273
 4118TIP3    H112318   0.644   1.049   1.862  0.1792  1.8157 -0.2694
 4118TIP3    H212319   0.625   1.040   1.712 -0.1905 -0.9559 -0.1004
 4119TIP3   OH212320   4.372   0.305   1.949 -0.0846 -0.0673 -0.1415
 4119TIP3    H112321   4.451   0.274   1.993 -1.4059 -1.3265  1.5148
 4119TIP3    H212322   4.301   0.255   1.990 -1.7082  0.6981 -1.8596
 4120TIP3   OH212323   2.910   5.181   0.143  0.1653  0.1364 -0.0606
 4120TIP3    H112324   2.948   5.246   0.201 -1.6017  0.2412  1.0575
 4120TIP3    H212325   2.880   5.230   0.067  2.2265  0.0418 -0.9747
 4121TIP3   OH212326   2.832   1.825   5.033 -0.6765 -0.6587  0.6475
 4121TIP3    H112327   2.874   1.808   4.949  0.2869  1.8578  0.5467
 4121TIP3    H212328   2.896   1.794   5.098 -0.8272 -1.3333  0.4850
 4122TIP3   OH212329   3.122   2.573   1.621 -0.2758 -0.1436  0.1187
 4122TIP3    H112330   3.147   2.482   1.603 -1.0966 -0.3175 -0.1732
 4122TIP3    H212331   3.168   2.624   1.554  0.3876 -0.3121  0.4388
 4123TIP3   OH212332   1.038   0.904   2.171 -0.0025  0.5077  0.7896
 4123TIP3    H112333   1.133   0.896   2.158 -0.1485 -0.8133  0.4166
 4123TIP3    H212334   1.004   0.927   2.085 -0.0711  0.5179  0.8191
 4124TIP3   OH212335   0.771   2.139   1.907 -0.4826 -0.1436  0.3173
 4124TIP3    H112336   0.756   2.167   1.998 -1.2375  0.8055 -0.0818
 4124TIP3    H212337   0.821   2.211   1.868  0.0148 -0.6413  0.0355
 4125TIP3   OH212338   0.203   3.836   4.378 -0.1928 -0.1033 -0.2185
 4125TIP3    H112339   0.128   3.780   4.396 -1.8368  0.1911 -4.9476
 4125TIP3    H212340   0.275   3.775   4.361 -0.9178 -0.6796 -1.3169
 4126TIP3   OH212341   4.590   0.778   1.954  0.1319 -0.6490  0.2810
 4126TIP3    H112342   4.544   0.695   1.941  1.0121 -1.2725  0.9497
 4126TIP3    H212343   4.680   0.759   1.926  0.8494 -0.5662  2.3151
 4127TIP3   OH212344   3.384   0.618   3.900  0.6672 -0.3198 -0.2324
 4127TIP3    H112345   3.458   0.654   3.949  1.2296 -0.3342 -1.0570
 4127TIP3    H212346   3.400   0.523   3.899  0.6583 -0.3206 -0.4312
 4128TIP3   OH212347   1.142   5.054   1.276  0.1643  0.2081 -0.4888
 4128TIP3    H112348   1.161   4.977   1.222  0.7444 -0.2889  0.4093
 4128TIP3    H212349   1.131   5.124   1.212  1.0867 -0.3112 -1.2658
 4129TIP3   OH212350   6.425   6.446   4.895 -0.1287  0.1626  0.4789
 4129TIP3    H112351   6.382   6.459   4.811  1.4879 -0.9423 -0.5836
 4129TIP3    H212352   6.370   6.384   4.942 -0.6093  0.1241 -0.1289
 4130TIP3   OH212353   4.646   1.235   2.938  0.1215  0.2733  0.6525
 4130TIP3    H112354   4.627   1.325   2.911 -0.4338  0.4969  1.7364
 4130TIP3    H212355   4.676   1.242   3.028  2.2629 -0.4335  0.0564
 4131TIP3   OH212356   2.685   2.389   2.859 -0.3940 -0.2183 -0.3290
 4131TIP3    H112357   2.607   2.358   2.905  1.0194 -2.7189  0.5711
 4131TIP3    H212358   2.744   2.418   2.928 -0.0663  0.6055 -0.9307
 4132TIP3   OH212359   3.106   4.154   1.913 -0.3791  0.5288 -0.0546
 4132TIP3    H112360   3.184   4.099   1.907 -0.3190  0.6485 -0.4272
 4132TIP3    H212361   3.038   4.097   1.949 -0.2872  0.2410 -0.3358
 4133TIP3   OH212362   1.327   6.524   1.690 -0.2061  0.0406 -0.0652
 4133TIP3    H112363   1.422   6.512   1.689 -0.3962 -2.0518 -2.8984
 4133TIP3    H212364   1.309   6.557   1.778  3.0250 -0.3335  0.8770
 4134TIP3   OH212365   0.172   2.877   5.269  0.4030 -0.0601 -0.3522
 4134TIP3    H112366   0.091   2.910   5.309 -1.5463 -1.6268 -2.7739
 4134TIP3    H212367   0.207   2.817   5.334  0.1006  1.2549  1.0879
 4135TIP3   OH212368   1.338   0.146   0.576  0.3672 -0.4302 -0.4466
 4135TIP3    H112369   1.337   0.229   0.528 -0.3071 -0.9230 -1.3272
 4135TIP3    H212370   1.396   0.162   0.651  1.6202  0.3156 -1.5266
 4136TIP3   OH212371   1.363   1.602   1.537 -0.2760 -0.1000  0.0656
 4136TIP3    H112372   1.378   1.656   1.614  0.0015 -1.2864  0.8565
 4136TIP3    H212373   1.406   1.650   1.466 -0.3065  0.8681  0.6831
 4137TIP3   OH212374   1.390   5.819   3.934 -0.4195  0.4379 -0.1877
 4137TIP3    H112375   1.464   5.820   3.872 -0.5721  2.0397 -0.3728
 4137TIP3    H212376   1.365   5.911   3.943  1.5408  0.7719  4.6246
 4138TIP3   OH212377   5.562   3.137   2.696 -0.5252  0.1051  0.5604
 4138TIP3    H112378   5.626   3.185   2.749  0.2775 -1.4752  1.1042
 4138TIP3    H212379   5.563   3.181   2.611  0.5783  0.6976  0.8601
 4139TIP3   OH212380   0.401   6.659   4.320 -0.2279  0.2200  0.1338
 4139TIP3    H112381   0.386   6.691   4.231  1.8349 -0.2552 -0.4508
 4139TIP3    H212382   0.313   6.642   4.355 -1.1400  1.6006 -1.3422
 4140TIP3   OH212383   3.913   2.390   2.122  1.1633 -0.5017 -0.2064
 4140TIP3    H112384   4.004   2.393   2.152  1.6815  1.2327 -1.7686
 4140TIP3    H212385   3.912   2.442   2.042 -1.2186 -0.4939 -0.2515
 4141TIP3   OH212386   2.350   3.708   0.649 -0.0196 -0.2092  0.3965
 4141TIP3    H112387   2.369   3.615   0.637 -0.1512 -0.4153  1.5833
 4141TIP3    H212388   2.273   3.708   0.706 -0.4252  0.6314 -0.1406
 4142TIP3   OH212389   5.486   3.601   4.400 -0.1738 -0.5038  0.0671
 4142TIP3    H112390   5.403   3.622   4.444  0.7528  1.5579  0.9346
 4142TIP3    H212391   5.525   3.533   4.454 -1.0712 -1.1805 -0.1070
 4143TIP3   OH212392   4.701   6.657   0.789 -0.1979 -0.0450  0.7514
 4143TIP3    H112393   4.776   6.603   0.815 -1.0236 -0.9650  1.3506
 4143TIP3    H212394   4.683   6.711   0.866  0.0442  0.4148  0.4895
 4144TIP3   OH212395   3.831   3.481   4.332  0.0688  0.1312  0.2027
 4144TIP3    H112396   3.758   3.510   4.276 -0.3719  0.9041  1.1509
 4144TIP3    H212397   3.805   3.506   4.420  1.3380  0.0930  0.6046
 4145TIP3   OH212398   0.010   1.294   5.348 -0.2626 -0.0491  0.0883
 4145TIP3    H112399   0.036   1.386   5.345 -1.3554  0.3346  1.5262
 4145TIP3    H212400   0.090   1.245   5.326  0.7775  1.1793  1.0482
 4146TIP3   OH212401   4.698   3.821   3.190 -0.4659 -0.1157 -0.2226
 4146TIP3    H112402   4.691   3.838   3.284 -0.8087 -0.2516 -0.2192
 4146TIP3    H212403   4.657   3.897   3.149  0.3014  0.2697 -0.2856
 4147TIP3   OH212404   6.111   1.136   5.227  0.3427 -0.2336 -0.7581
 4147TIP3    H112405   6.137   1.217   5.183 -0.5837  1.1428  1.1000
 4147TIP3    H212406   6.044   1.097   5.170  2.2580 -0.8527 -2.7136
 4148TIP3   OH212407   5.456   5.546   5.387 -0.3837 -0.3233  0.1477
 4148TIP3    H112408   5.468   5.629   5.435  3.0858 -0.0124 -1.0313
 4148TIP3    H212409   5.489   5.564   5.299 -3.4202 -1.8815 -1.4670
 4149TIP3   OH212410   6.508   0.896   0.741 -0.2457 -0.3775 -0.6207
 4149TIP3    H112411   6.469   0.930   0.822 -0.2190  1.3579 -1.2996
 4149TIP3    H212412   6.558   0.820   0.769  0.2696  0.5411  1.0965
 4150TIP3   OH212413   3.021   3.523   4.109 -0.3663 -0.1034  0.2367
 4150TIP3    H112414   2.935   3.560   4.126 -0.3192  0.8306 -1.3481
 4150TIP3    H212415   3.012   3.429   4.128 -1.5277  0.0952  0.7233
 4151TIP3   OH212416   2.339   2.191   3.703  0.3067  0.5368 -0.1216
 4151TIP3    H112417   2.331   2.164   3.612 -0.8349  0.7691 -0.1117
 4151TIP3    H212418   2.366   2.112   3.750 -0.6623 -0.0088 -0.4439
 4152TIP3   OH212419   3.944   5.728   5.110 -0.1198 -0.4494 -0.0001
 4152TIP3    H112420   3.877   5.776   5.061  0.7288  0.4774 -0.2881
 4152TIP3    H212421   3.999   5.688   5.042  0.6034  0.1867  0.2030
 4153TIP3   OH212422   1.469   1.458   2.386 -0.0039  0.4131 -0.0532
 4153TIP3    H112423   1.404   1.396   2.421  0.8994 -0.1405  0.7134
 4153TIP3    H212424   1.463   1.448   2.291 -0.3253 -0.3864  0.0428
 4154TIP3   OH212425   0.815   5.470   2.289  0.0405 -0.0693  0.5817
 4154TIP3    H112426   0.760   5.417   2.346  0.8230  1.6592  3.1439
 4154TIP3    H212427   0.904   5.446   2.313  0.4231 -0.1488 -0.8281
 4155TIP3   OH212428   4.004   2.070   5.530  0.3481 -0.0573  0.7650
 4155TIP3    H112429   4.022   2.095   5.621 -0.9671  2.0318  0.5171
 4155TIP3    H212430   4.089   2.075   5.487  1.0011 -1.1255  1.8506
 4156TIP3   OH212431   1.331   4.912   0.784  0.5785 -0.2553  0.6998
 4156TIP3    H112432   1.317   4.983   0.720  2.1647 -0.8417 -0.3679
 4156TIP3    H212433   1.260   4.850   0.767  0.3333  0.1335  0.2676
 4157TIP3   OH212434   4.691   3.341   5.491 -0.5321 -0.9473  0.1743
 4157TIP3    H112435   4.671   3.407   5.556  0.3555 -1.5078  1.0373
 4157TIP3    H212436   4.680   3.386   5.407  1.3583  0.6922  0.7390
 4158TIP3   OH212437   0.931   5.895   2.280 -0.6296 -0.1138  0.3263
 4158TIP3    H112438   0.892   5.965   2.228 -0.6568 -0.2499  0.1645
 4158TIP3    H212439   0.919   5.816   2.228  0.2229 -0.0970  0.0916
 4159TIP3   OH212440   2.946   2.535   5.126  0.3282 -0.3780 -0.2181
 4159TIP3    H112441   2.857   2.565   5.143 -0.4003 -1.7848 -1.3266
 4159TIP3    H212442   2.947   2.515   5.032  2.1173  0.5743 -0.4435
 4160TIP3   OH212443   6.995   3.514   5.595  0.1227  0.0631 -0.3834
 4160TIP3    H112444   6.919   3.484   5.646 -0.4769  0.2375 -1.1455
 4160TIP3    H212445   6.963   3.591   5.548  0.2299 -0.8629 -2.0492
 4161TIP3   OH212446   4.333   1.378   4.808 -0.2014 -0.1116 -0.6733
 4161TIP3    H112447   4.267   1.447   4.803 -1.5210 -1.2559  0.1064
 4161TIP3    H212448   4.396   1.410   4.872 -0.1505  0.8715 -1.1979
 4162TIP3   OH212449   1.315   1.844   4.147 -0.2434 -0.4384 -0.2284
 4162TIP3    H112450   1.383   1.864   4.211 -1.9447  1.4212  1.1104
 4162TIP3    H212451   1.309   1.748   4.147  1.7218 -0.5994  0.2719
 4163TIP3   OH212452   4.400   1.361   3.180 -0.6011 -0.6984  0.2957
 4163TIP3    H112453   4.478   1.402   3.142 -1.6711  0.1029 -1.1175
 4163TIP3    H212454   4.410   1.373   3.274 -0.6966  2.5580 -0.0183
 4164TIP3   OH212455   2.807   0.501   0.570  0.3988 -0.4482  0.5095
 4164TIP3    H112456   2.766   0.550   0.641  1.8601 -0.9947  1.7815
 4164TIP3    H212457   2.802   0.559   0.494 -1.1894  0.1443  1.0462
 4165TIP3   OH212458   2.021   0.003   4.829  0.1794  0.6078  0.2861
 4165TIP3    H112459   2.104   0.037   4.793  0.4867  0.7799  1.1275
 4165TIP3    H212460   2.042  -0.019   4.919 -0.1583 -1.3522 -0.0778
 4166TIP3   OH212461   2.533   6.698   3.284  0.3584 -0.0446  0.0058
 4166TIP3    H112462   2.575   6.745   3.212  0.5115  0.6894  0.5605
 4166TIP3    H212463   2.594   6.707   3.357 -0.8340  1.2803  0.9171
 4167TIP3   OH212464   5.741   0.540   0.990 -0.0078  0.0441 -0.6191
 4167TIP3    H112465   5.675   0.578   0.933 -1.5814  0.0001  1.0701
 4167TIP3    H212466   5.750   0.604   1.061  1.0442 -0.4253 -0.3129
 4168TIP3   OH212467   5.267   0.514   4.316  0.5227  0.4225  0.1806
 4168TIP3    H112468   5.310   0.488   4.397  0.6649  0.8802  0.2541
 4168TIP3    H212469   5.178   0.477   4.323  0.9600 -0.7344 -0.0858
 4169TIP3   OH212470   7.086   1.943   1.915  0.1178  0.0020  0.0564
 4169TIP3    H112471   7.076   2.039   1.911  1.2948  0.1108 -1.2620
 4169TIP3    H212472   7.078   1.915   1.824 -0.0121 -1.1391  0.4068
 4170TIP3   OH212473   3.495   6.536   4.323  0.0935 -0.3782  0.6416
 4170TIP3    H112474   3.408   6.568   4.299  0.3973 -0.6523 -0.9524
 4170TIP3    H212475   3.540   6.612   4.360 -0.5410 -0.0253  0.6867
 4171TIP3   OH212476   3.408   3.886   5.066 -0.5653  0.0567  0.0945
 4171TIP3    H112477   3.394   3.861   4.974 -1.4415 -1.4207  0.6032
 4171TIP3    H212478   3.361   3.969   5.076  0.8544  1.0709 -1.1690
 4172TIP3   OH212479   1.031   6.415   1.831 -0.2017 -0.0546  0.6400
 4172TIP3    H112480   1.108   6.430   1.886 -1.7752  0.5324  2.8027
 4172TIP3    H212481   0.974   6.489   1.849 -1.0449 -0.1666 -1.3763
 4173TIP3   OH212482   4.454   3.673   0.752 -0.1136 -0.4310 -0.2684
 4173TIP3    H112483   4.541   3.701   0.780 -0.4303 -0.2039  0.5307
 4173TIP3    H212484   4.456   3.677   0.657  0.1648  1.3998 -0.2138
 4174TIP3   OH212485   5.381   0.143   5.555  0.3265  0.2309 -0.2203
 4174TIP3    H112486   5.362   0.141   5.649 -1.9970 -0.7981 -0.6332
 4174TIP3    H212487   5.454   0.083   5.544 -0.3353 -0.7863  0.7582
 4175TIP3   OH212488   1.830   6.810   3.671  0.0107  0.1571 -0.2733
 4175TIP3    H112489   1.922   6.784   3.676 -0.1195 -0.4267 -0.7583
 4175TIP3    H212490   1.782   6.736   3.708 -0.3091  0.1173 -0.7540
 4176TIP3   OH212491   6.424   2.453   2.140  0.2600  0.4477 -0.6901
 4176TIP3    H112492   6.341   2.466   2.094  0.2221 -0.4192 -0.8989
 4176TIP3    H212493   6.434   2.531   2.194 -1.6133 -0.2258  0.7606
 4177TIP3   OH212494   7.012   0.459   3.977  0.1152  0.2615 -0.1502
 4177TIP3    H112495   7.103   0.431   3.969  0.0982  0.4530 -1.1323
 4177TIP3    H212496   7.004   0.534   3.919 -0.1888  1.5086  1.4548
 4178TIP3   OH212497   2.441   4.280   3.568  0.2791  0.5615  0.2891
 4178TIP3    H112498   2.368   4.332   3.601 -1.3752 -1.1160 -0.5221
 4178TIP3    H212499   2.458   4.215   3.637  1.6785  1.5051  0.8792
 4179TIP3   OH212500   4.201   1.282   3.914  0.1866 -0.4905 -0.6299
 4179TIP3    H112501   4.235   1.274   3.825 -0.3733 -1.2995 -0.7831
 4179TIP3    H212502   4.275   1.313   3.965  0.2259  1.1003 -1.5756
 4180TIP3   OH212503   1.207   2.102   4.237 -0.0515 -0.4603  0.3801
 4180TIP3    H112504   1.280   2.052   4.200 -0.2792 -0.5647  0.0772
 4180TIP3    H212505   1.248   2.154   4.307  0.5437  0.3477 -0.5293
 4181TIP3   OH212506   1.843   0.474   3.599 -0.1784  0.4465 -0.0395
 4181TIP3    H112507   1.882   0.387   3.591  1.4870  0.9911  1.4954
 4181TIP3    H212508   1.846   0.510   3.510  1.5193 -0.1077 -0.2445
 4182TIP3   OH212509   1.479   0.785   4.630  0.4039 -0.3951 -0.1595
 4182TIP3    H112510   1.389   0.806   4.654 -0.4057 -3.1543 -0.4432
 4182TIP3    H212511   1.509   0.726   4.699  2.5383  1.5333  0.6574
 4183TIP3   OH212512   1.252   2.404   0.884  0.7210 -0.2658 -0.3295
 4183TIP3    H112513   1.312   2.401   0.958 -0.3557 -1.0580  0.5498
 4183TIP3    H212514   1.201   2.323   0.890  0.1309 -0.0153 -1.5258
 4184TIP3   OH212515   3.252   3.376   4.356  0.5348  0.1629 -0.3768
 4184TIP3    H112516   3.336   3.348   4.391 -0.0234 -0.8449  0.2111
 4184TIP3    H212517   3.267   3.466   4.326  1.9057 -0.1185 -0.6174
 4185TIP3   OH212518   1.873   2.311   1.420 -0.4812 -0.0801 -0.1042
 4185TIP3    H112519   1.841   2.400   1.410 -1.4221 -0.4182 -0.1958
 4185TIP3    H212520   1.807   2.268   1.475  0.4270 -0.4753  0.7017
 4186TIP3   OH212521   2.941   3.519   0.939 -0.8854 -0.0449  0.0934
 4186TIP3    H112522   2.931   3.613   0.950  0.9876 -0.1044  3.5865
 4186TIP3    H212523   2.852   3.484   0.948 -1.2361  1.2015  1.8972
 4187TIP3   OH212524   6.562   1.534   1.268  0.0071 -0.0236  0.5073
 4187TIP3    H112525   6.556   1.453   1.218 -0.5095 -0.6978  1.6059
 4187TIP3    H212526   6.556   1.506   1.359  0.8507  1.1685  0.9549
 4188TIP3   OH212527   0.864   0.415   2.197  0.4383  0.3467  0.1266
 4188TIP3    H112528   0.881   0.388   2.107 -1.0891  1.6989 -0.6232
 4188TIP3    H212529   0.841   0.507   2.191 -1.2304  0.0944  1.6985
 4189TIP3   OH212530   5.334   3.546   2.135 -0.2067  0.3610 -0.1318
 4189TIP3    H112531   5.397   3.475   2.122 -1.7650 -1.0281 -0.2886
 4189TIP3    H212532   5.269   3.534   2.066 -0.9154  1.5008  0.3017
 4190TIP3   OH212533   2.522   3.244   5.871 -0.6957  0.1909  0.1086
 4190TIP3    H112534   2.440   3.200   5.848 -0.0086 -1.0552 -0.0153
 4190TIP3    H212535   2.591   3.184   5.841  0.2488  0.5191  1.5388
 4191TIP3   OH212536   1.876   4.058   4.390  0.4247  0.9145  0.0660
 4191TIP3    H112537   1.854   4.140   4.347  1.1873  1.4322  0.6474
 4191TIP3    H212538   1.970   4.048   4.378  0.3196  0.0610 -0.1097
 4192TIP3   OH212539   6.128   3.891   5.672 -0.3432 -0.2032  0.0861
 4192TIP3    H112540   6.157   3.982   5.661 -4.2359  1.1635 -0.4605
 4192TIP3    H212541   6.082   3.871   5.591 -0.2330 -2.4141  0.5268
 4193TIP3   OH212542   3.602   3.122   5.666  0.4274 -0.0606 -0.4351
 4193TIP3    H112543   3.516   3.159   5.684  1.3869  1.0298  2.6737
 4193TIP3    H212544   3.636   3.174   5.593 -0.7474  0.8825 -0.3400
 4194TIP3   OH212545   1.249   5.142   3.892  0.0882 -0.9248  0.3200
 4194TIP3    H112546   1.314   5.145   3.962 -0.0262 -0.2248  0.4034
 4194TIP3    H212547   1.295   5.169   3.814  0.5770 -3.0477 -0.1980
 4195TIP3   OH212548   6.323   5.108   1.520 -0.1533 -0.0095  0.1332
 4195TIP3    H112549   6.338   5.106   1.614  0.0402 -0.6583  0.0962
 4195TIP3    H212550   6.349   5.021   1.490 -1.1943 -0.1637 -0.3616
 4196TIP3   OH212551   0.683   3.987   1.019 -0.2615 -0.1563 -0.7294
 4196TIP3    H112552   0.647   4.073   0.998  1.2940  0.6853 -0.1270
 4196TIP3    H212553   0.778   3.999   1.014 -0.0053 -1.7012 -0.1096
 4197TIP3   OH212554   5.693   0.092   3.881 -0.0274 -0.0532 -0.3731
 4197TIP3    H112555   5.674   0.183   3.858  0.9256 -0.2559 -2.2330
 4197TIP3    H212556   5.746   0.097   3.960  0.0182  1.0239 -0.4629
 4198TIP3   OH212557   4.012   4.719   0.979 -0.1385 -0.2189  0.0147
 4198TIP3    H112558   4.095   4.694   0.938 -1.9552 -3.3094 -2.1667
 4198TIP3    H212559   4.012   4.673   1.063  0.4814  0.0575  0.1700
 4199TIP3   OH212560   6.161   5.722   5.603 -0.1586 -0.2114  0.3794
 4199TIP3    H112561   6.075   5.763   5.593 -0.6249 -0.6648  2.1332
 4199TIP3    H212562   6.143   5.643   5.654  1.0399 -1.3799 -0.9369
 4200TIP3   OH212563   4.774   0.781   0.553 -0.2839  0.0037  0.3749
 4200TIP3    H112564   4.824   0.808   0.476  0.5628  0.6113  1.1143
 4200TIP3    H212565   4.840   0.770   0.622 -0.8987 -1.4370  0.7937
 4201TIP3   OH212566   1.073   1.859   3.496  0.4201 -0.0266  0.6983
 4201TIP3    H112567   1.135   1.854   3.423 -1.6228  0.4921 -1.1838
 4201TIP3    H212568   1.003   1.916   3.464 -1.5670 -1.4158  2.2818
 4202TIP3   OH212569   0.574   5.885   1.312  0.6093 -0.9629 -0.0357
 4202TIP3    H112570   0.571   5.852   1.222 -1.2891  1.7118 -1.0657
 4202TIP3    H212571   0.664   5.915   1.324  0.3951  0.6257 -1.8889
 4203TIP3   OH212572   0.909   4.250   4.889  0.3464  0.0769  0.2060
 4203TIP3    H112573   0.930   4.206   4.807  1.4381 -0.2384  0.6372
 4203TIP3    H212574   0.845   4.317   4.865  2.0113  1.2162 -1.2248
 4204TIP3   OH212575   5.763   3.549   0.583 -0.0187 -0.3586 -0.6769
 4204TIP3    H112576   5.816   3.582   0.510  1.5082 -0.9858  0.1074
 4204TIP3    H212577   5.770   3.616   0.651 -0.4258 -0.3454 -0.6424
 4205TIP3   OH212578   4.644   1.756   2.909  0.1526 -0.0064 -0.4545
 4205TIP3    H112579   4.655   1.847   2.879 -0.8285  0.1303 -0.4302
 4205TIP3    H212580   4.733   1.721   2.911  0.3570  0.2585 -2.6288
 4206TIP3   OH212581   2.943   4.239   0.439 -0.0023 -0.2204 -0.5348
 4206TIP3    H112582   2.893   4.267   0.363 -0.8161  0.0920  0.1021
 4206TIP3    H212583   3.035   4.256   0.415 -0.1783 -0.8616 -1.7304
 4207TIP3   OH212584   5.600   4.303   1.958  0.4011  0.2492  0.5355
 4207TIP3    H112585   5.662   4.320   1.887  0.2064  0.6689  0.4620
 4207TIP3    H212586   5.549   4.384   1.966 -0.7948 -0.4129 -0.0602
 4208TIP3   OH212587   1.932   1.504   5.148  0.3257  0.2512  0.0339
 4208TIP3    H112588   1.876   1.555   5.089  1.9033 -0.8384 -2.5597
 4208TIP3    H212589   2.003   1.564   5.171  0.7851  0.0479 -0.8496
 4209TIP3   OH212590   4.868   1.795   3.417 -0.0110 -0.1702  0.0957
 4209TIP3    H112591   4.857   1.828   3.328 -1.6963  1.2371  0.7865
 4209TIP3    H212592   4.957   1.821   3.441  0.0407  0.4777 -0.7525
 4210TIP3   OH212593   2.635   3.659   2.153 -0.3908 -0.0226 -0.0158
 4210TIP3    H112594   2.565   3.668   2.218 -0.3274 -1.0438  0.2140
 4210TIP3    H212595   2.631   3.740   2.102 -0.7633  0.5821  0.9480
 4211TIP3   OH212596   0.251   0.846   1.440 -0.0324 -0.2078 -0.2519
 4211TIP3    H112597   0.321   0.909   1.457 -1.0167  1.1691 -1.1324
 4211TIP3    H212598   0.230   0.811   1.527  0.8023  0.3628  0.1990
 4212TIP3   OH212599   1.146   5.838   4.145 -0.6822 -0.2111 -0.1066
 4212TIP3    H112600   1.147   5.787   4.064 -1.9307  1.6262 -1.3541
 4212TIP3    H212601   1.239   5.847   4.169 -0.1860  0.2897 -2.0632
 4213TIP3   OH212602   6.901   0.084   0.161  0.4279  0.4605  0.0100
 4213TIP3    H112603   6.809   0.084   0.189  0.5321 -0.8569  0.4235
 4213TIP3    H212604   6.949   0.059   0.240  1.1589  1.2214 -0.1868
 4214TIP3   OH212605   2.519   3.260   5.259 -0.2234 -0.0557  0.1068
 4214TIP3    H112606   2.550   3.259   5.349  0.8090 -1.3703 -0.2234
 4214TIP3    H212607   2.534   3.170   5.228 -1.4671  0.1158 -1.0670
 4215TIP3   OH212608   6.470   2.938   2.500 -0.0150  0.0092 -0.8722
 4215TIP3    H112609   6.514   2.991   2.435 -0.4617 -0.4218 -1.5360
 4215TIP3    H212610   6.413   2.880   2.450 -0.7452  0.0164 -0.0746
 4216TIP3   OH212611   6.021   4.682   0.025 -0.1271  0.1878 -0.5381
 4216TIP3    H112612   6.090   4.745   0.045  0.6458 -1.0408  0.8450
 4216TIP3    H212613   6.034   4.661  -0.068  0.8804  0.5375 -0.4886
 4217TIP3   OH212614   3.412   1.835   2.603 -0.3436 -0.1793 -0.3973
 4217TIP3    H112615   3.460   1.805   2.526 -0.0371  1.4773 -0.8893
 4217TIP3    H212616   3.385   1.754   2.647  1.3885 -1.1675 -1.0277
 4218TIP3   OH212617   5.740   2.472   5.533  0.1819 -0.1731 -0.3766
 4218TIP3    H112618   5.721   2.385   5.500 -0.3235 -0.5411  0.8390
 4218TIP3    H212619   5.662   2.524   5.511  0.4529 -0.0315 -1.0350
 4219TIP3   OH212620   1.485   0.390   3.673  0.6437 -0.2978 -0.2286
 4219TIP3    H112621   1.554   0.337   3.713  0.3145  0.1526  0.9902
 4219TIP3    H212622   1.514   0.481   3.685  0.2913 -0.1413 -0.5406
 4220TIP3   OH212623   5.520   6.181   2.407  0.2724 -0.3567 -0.0915
 4220TIP3    H112624   5.518   6.242   2.481 -0.3160 -0.4491 -0.0249
 4220TIP3    H212625   5.552   6.233   2.334 -2.6504  0.8152 -0.7003
 4221TIP3   OH212626   3.425   6.359   3.926  0.6151 -0.0421 -0.2399
 4221TIP3    H112627   3.376   6.441   3.930  1.1249  0.2473  0.1662
 4221TIP3    H212628   3.503   6.380   3.874 -0.3086 -0.8338 -2.0119
 4222TIP3   OH212629   1.178   3.054   1.072 -0.4158  0.3988 -0.4883
 4222TIP3    H112630   1.122   3.102   1.011 -1.1229  1.0506  0.6475
 4222TIP3    H212631   1.117   3.002   1.124  0.0652  0.7541  0.4558
 4223TIP3   OH212632   3.046   1.926   1.682  0.3247 -0.2103 -0.4500
 4223TIP3    H112633   2.976   1.975   1.639  0.0916  0.8675  1.0917
 4223TIP3    H212634   3.058   1.970   1.766 -0.4093 -3.2632  1.3768
 4224TIP3   OH212635   3.490   3.825   3.055  0.5270  0.3562  0.3808
 4224TIP3    H112636   3.558   3.845   2.991  0.9134 -0.3232  0.5693
 4224TIP3    H212637   3.490   3.729   3.061 -0.7703  0.3147  0.0294
 4225TIP3   OH212638   3.384   5.299   4.926 -0.0357  0.1721  0.5821
 4225TIP3    H112639   3.301   5.341   4.950 -0.3858 -0.8562  1.2553
 4225TIP3    H212640   3.449   5.338   4.985 -0.5462 -0.9422  1.9383
 4226TIP3   OH212641   1.372   0.992   2.285  0.0563  0.6865  0.5303
 4226TIP3    H112642   1.384   1.004   2.190 -1.9527 -0.4409  0.0798
 4226TIP3    H212643   1.451   0.946   2.313  1.0428  1.7139 -0.4191
 4227TIP3   OH212644   3.256   4.866   5.840 -0.1388 -0.0360 -0.6775
 4227TIP3    H112645   3.255   4.951   5.796  2.8104 -0.2893 -1.4717
 4227TIP3    H212646   3.245   4.888   5.933  1.0208  1.3300 -0.8089
 4228TIP3   OH212647   2.044   4.944   2.709 -0.2111 -0.0186  0.3076
 4228TIP3    H112648   1.997   5.006   2.653 -0.5075 -0.0130  0.5632
 4228TIP3    H212649   2.113   4.909   2.653  0.5234  1.2026  0.4229
 4229TIP3   OH212650   3.865   1.634   5.609 -0.3163 -0.0038  0.6909
 4229TIP3    H112651   3.797   1.602   5.550  0.4486 -0.3276 -0.0551
 4229TIP3    H212652   3.830   1.715   5.646 -0.2014  1.1251 -1.4806
 4230TIP3   OH212653   5.960   2.949   3.774 -0.0553  0.0588 -0.3776
 4230TIP3    H112654   6.031   2.933   3.712  0.1268 -1.9353  0.2448
 4230TIP3    H212655   5.926   3.035   3.751  2.0672  0.7573 -1.1713
 4231TIP3   OH212656   5.564   1.896   2.578  0.0387  0.4866 -0.0199
 4231TIP3    H112657   5.486   1.942   2.608  1.2194  1.5219  1.6249
 4231TIP3    H212658   5.613   1.961   2.528  1.2628  0.8191  1.5236
 4232TIP3   OH212659   0.527   1.826   5.551 -0.6623  0.5192 -0.4576
 4232TIP3    H112660   0.475   1.894   5.510 -0.8265 -0.2429 -1.5387
 4232TIP3    H212661   0.482   1.744   5.530  0.4274 -0.0675 -0.5847
 4233TIP3   OH212662   1.601   1.982   1.927  0.5425  0.1876 -0.0964
 4233TIP3    H112663   1.539   2.052   1.949  0.1071 -0.6621  1.5254
 4233TIP3    H212664   1.633   1.951   2.012  0.3301 -1.9471 -0.7489
 4234TIP3   OH212665   4.791   3.174   3.727 -0.3728 -0.7538 -0.1767
 4234TIP3    H112666   4.831   3.087   3.731 -0.2404 -0.7282 -0.7388
 4234TIP3    H212667   4.779   3.200   3.818  0.2676 -1.0512 -0.0059
 4235TIP3   OH212668   6.923   3.524   2.487  0.4838  0.1036  0.5829
 4235TIP3    H112669   6.995   3.513   2.549 -1.1031  0.8050  2.6559
 4235TIP3    H212670   6.922   3.443   2.436  2.2499 -0.2152  1.0041
 4236TIP3   OH212671   0.261   6.679   3.051  0.1509  0.0967 -0.1932
 4236TIP3    H112672   0.226   6.703   2.966 -2.2856 -0.6970  0.5017
 4236TIP3    H212673   0.277   6.585   3.045 -1.9537 -0.3835  0.7590
 4237TIP3   OH212674   6.897   6.393   4.757  0.6152 -0.0516  0.3819
 4237TIP3    H112675   6.843   6.424   4.685  1.2208  1.1126  0.4080
 4237TIP3    H212676   6.835   6.375   4.828  0.1515  0.0632  0.0110
 4238TIP3   OH212677   0.442   0.405   3.544  0.1199  0.2198 -0.0947
 4238TIP3    H112678   0.365   0.349   3.541  0.6244 -0.4881 -0.1614
 4238TIP3    H212679   0.485   0.391   3.460  0.9540 -0.3185  0.4109
 4239TIP3   OH212680   3.864   2.882   1.135  0.0325 -0.0399 -0.1651
 4239TIP3    H112681   3.863   2.973   1.164  0.8571  0.1617 -0.7428
 4239TIP3    H212682   3.772   2.859   1.125 -0.2490  0.2013  1.5776
 4240TIP3   OH212683   4.142   4.105   0.949 -0.0693  0.1309  0.0429
 4240TIP3    H112684   4.051   4.097   0.921 -0.4618  0.9639  1.0259
 4240TIP3    H212685   4.188   4.037   0.899 -1.3864 -0.9811  0.2668
 4241TIP3   OH212686   2.550   1.856   1.726  0.0582  0.0789 -0.0502
 4241TIP3    H112687   2.571   1.869   1.818 -0.3187 -0.4944  0.1206
 4241TIP3    H212688   2.497   1.932   1.702  0.3495  0.3410  0.1485
 4242TIP3   OH212689   0.959   0.453   1.153 -0.1608  0.3852 -0.3943
 4242TIP3    H112690   0.949   0.407   1.070  0.7814 -0.0819 -0.2625
 4242TIP3    H212691   0.959   0.546   1.129  0.0749  0.2562 -0.9096
 4243TIP3   OH212692   2.525   3.062   3.582  0.0598 -0.2355  0.3063
 4243TIP3    H112693   2.555   3.005   3.653  2.5037 -0.7903 -1.0389
 4243TIP3    H212694   2.532   3.151   3.617 -1.5291 -0.6204  1.6608
 4244TIP3   OH212695   5.823   3.255   2.504  0.2232  0.6154 -0.3396
 4244TIP3    H112696   5.775   3.333   2.531  0.5589  0.4846  0.7036
 4244TIP3    H212697   5.800   3.242   2.412 -2.1618  0.2716  0.2309
 4245TIP3   OH212698   0.625   2.073   1.269 -0.4347 -0.7179 -0.0899
 4245TIP3    H112699   0.553   2.129   1.242 -1.0567 -2.2533 -1.8169
 4245TIP3    H212700   0.611   2.059   1.363 -2.2765 -0.8197 -0.3427
 4246TIP3   OH212701   2.391   0.875   1.524 -0.1410 -0.1435 -0.4972
 4246TIP3    H112702   2.427   0.927   1.595  3.3437  0.5314 -2.5113
 4246TIP3    H212703   2.329   0.815   1.566 -0.8476  2.4832  2.5130
 4247TIP3   OH212704   5.279   5.083   4.542 -0.2344  0.4037 -0.1213
 4247TIP3    H112705   5.368   5.076   4.506 -0.3014  3.2092 -1.0809
 4247TIP3    H212706   5.281   5.027   4.621  2.2805  0.1670 -0.2590
 4248TIP3   OH212707   7.085   1.290   1.697 -0.4701 -0.5623  0.1275
 4248TIP3    H112708   7.157   1.352   1.685 -0.4254 -0.6916 -0.2832
 4248TIP3    H212709   7.088   1.234   1.620 -1.9991  0.4380 -0.7187
 4249TIP3   OH212710   3.752   6.259   2.144 -0.0785  0.6704  0.4810
 4249TIP3    H112711   3.736   6.164   2.139  2.9047  0.1234 -0.6073
 4249TIP3    H212712   3.684   6.297   2.089 -0.8256 -0.9154  0.2494
 4250TIP3   OH212713   5.101   6.256   3.321 -0.2314 -0.4906 -0.0572
 4250TIP3    H112714   5.137   6.190   3.380 -0.4718  0.2259  0.9162
 4250TIP3    H212715   5.164   6.328   3.325 -0.5996 -0.1627 -0.1290
 4251TIP3   OH212716   4.155   3.590   0.065 -0.2750  0.3331  0.3809
 4251TIP3    H112717   4.128   3.500   0.044  0.7565  0.2469 -0.6556
 4251TIP3    H212718   4.244   3.581   0.098  1.0017  1.2012 -2.5291
 4252TIP3   OH212719   5.509   4.867   5.598 -0.0513 -1.2383  0.4076
 4252TIP3    H112720   5.457   4.857   5.518 -1.5987 -1.1092  1.3796
 4252TIP3    H212721   5.595   4.895   5.566 -1.5087  1.9886 -1.0803
 4253TIP3   OH212722   2.811   6.087   2.084  0.1127  0.1164 -0.4813
 4253TIP3    H112723   2.857   6.171   2.089  1.4437 -0.5935 -0.2424
 4253TIP3    H212724   2.837   6.050   2.000  0.6748 -0.6623  0.0108
 4254TIP3   OH212725   1.596   2.968   0.751 -0.2192 -0.6249  0.7415
 4254TIP3    H112726   1.671   3.013   0.713 -0.2959 -1.8693 -0.9753
 4254TIP3    H212727   1.558   3.033   0.811  0.3831  1.1430 -0.6909
 4255TIP3   OH212728   0.657   2.307   0.839  0.0938  0.1958 -0.4137
 4255TIP3    H112729   0.641   2.368   0.911  0.4128 -1.3950  1.0606
 4255TIP3    H212730   0.745   2.329   0.808  0.0618  0.7032 -0.1611
 4256TIP3   OH212731   6.290   4.119   0.086  0.4425  0.0805 -0.2818
 4256TIP3    H112732   6.196   4.103   0.073  0.8083 -1.1845 -1.6027
 4256TIP3    H212733   6.318   4.164   0.006  1.2801 -1.0927 -0.6792
 4257TIP3   OH212734   6.860   5.170   2.397  0.2495 -0.5156 -0.0554
 4257TIP3    H112735   6.859   5.163   2.492  1.9738 -1.0900 -0.0525
 4257TIP3    H212736   6.925   5.238   2.379 -2.5464  2.2395 -0.7710
 4258TIP3   OH212737   1.873   5.616   4.876  0.0634 -0.0823  0.2035
 4258TIP3    H112738   1.857   5.523   4.891  0.6462 -0.2271 -0.0681
 4258TIP3    H212739   1.954   5.619   4.825 -0.5025  0.5340 -0.6741
 4259TIP3   OH212740   7.020   3.132   1.711  0.3705  0.2942 -0.1051
 4259TIP3    H112741   7.040   3.224   1.695  2.6601 -0.1313 -0.1299
 4259TIP3    H212742   7.011   3.094   1.623 -1.4524  0.6247 -0.0883
 4260TIP3   OH212743   1.159   5.352   2.949 -0.1362  0.6020 -0.1532
 4260TIP3    H112744   1.078   5.372   2.903 -0.6409  0.0742  0.4887
 4260TIP3    H212745   1.228   5.393   2.896 -0.8486  1.3505 -0.5163
 4261TIP3   OH212746   5.744   6.589   2.261 -0.1692  0.5934 -0.7969
 4261TIP3    H112747   5.677   6.562   2.324  0.3324  1.7137  0.2581
 4261TIP3    H212748   5.774   6.507   2.222 -1.5626  0.0025 -0.6933
 4262TIP3   OH212749   3.175   6.631   4.529 -0.2481  0.0469 -0.2081
 4262TIP3    H112750   3.189   6.637   4.434  0.9390 -0.9278 -0.1213
 4262TIP3    H212751   3.240   6.567   4.558  0.1179  1.0997  1.4119
 4263TIP3   OH212752   2.962   2.263   3.080  0.1229 -0.1846 -0.4394
 4263TIP3    H112753   2.990   2.323   3.012 -0.3532  1.1926  0.5454
 4263TIP3    H212754   2.904   2.315   3.136  1.5088 -0.8791  1.7672
 4264TIP3   OH212755   1.688   4.866   3.317 -0.4290 -0.6460 -0.5285
 4264TIP3    H112756   1.609   4.819   3.344  0.6066 -2.9227 -1.1508
 4264TIP3    H212757   1.662   4.913   3.237 -2.1409  1.9877  1.4321
 4265TIP3   OH212758   2.719   5.560   4.463  0.2875  0.3666  0.0048
 4265TIP3    H112759   2.666   5.542   4.540  0.8329  1.7373  0.7327
 4265TIP3    H212760   2.756   5.475   4.439 -0.6053 -0.2325  0.7076
 4266TIP3   OH212761   4.527   1.134   1.680 -0.3962  0.5322 -0.0339
 4266TIP3    H112762   4.605   1.189   1.680 -1.4414  2.0889  1.0078
 4266TIP3    H212763   4.511   1.115   1.773 -1.9227  1.2556 -0.1172
 4267TIP3   OH212764   4.010   4.008   4.723 -0.8153 -0.3668  0.1413
 4267TIP3    H112765   4.054   4.056   4.793 -1.8182  0.4821  0.2238
 4267TIP3    H212766   4.004   4.071   4.651 -3.4950  0.2386  0.7637
 4268TIP3   OH212767   4.440   5.006   4.078  0.1535 -0.6573 -0.6432
 4268TIP3    H112768   4.449   5.019   4.172 -1.0905 -1.4845 -0.3881
 4268TIP3    H212769   4.390   4.925   4.069  1.8832 -1.6464 -2.0629
 4269TIP3   OH212770   2.519   2.405   3.680  1.0309 -0.4529 -0.2419
 4269TIP3    H112771   2.592   2.344   3.667  0.9301 -0.5542 -0.3380
 4269TIP3    H212772   2.443   2.349   3.696  1.1326 -0.3326  0.7217
 4270TIP3   OH212773   7.150   2.428   1.084 -0.7260 -0.5014  0.4518
 4270TIP3    H112774   7.244   2.432   1.068 -0.4021 -0.8143  2.1035
 4270TIP3    H212775   7.134   2.498   1.147 -1.3034 -1.4499  1.3969
 4271TIP3   OH212776   6.777   0.258   3.742 -0.0779  0.8219 -0.4027
 4271TIP3    H112777   6.777   0.351   3.766  0.4471  1.0723 -1.3119
 4271TIP3    H212778   6.738   0.256   3.654  0.6873  0.2919 -0.7431
 4272TIP3   OH212779   2.536   6.592   2.368  0.8498 -0.1166 -0.5608
 4272TIP3    H112780   2.619   6.548   2.349  1.1730 -1.5078  3.2926
 4272TIP3    H212781   2.476   6.521   2.390 -0.0554  1.0941  1.0369
 4273TIP3   OH212782   5.363   4.651   5.723  0.1706 -0.1203 -0.8501
 4273TIP3    H112783   5.276   4.682   5.749  0.6899  1.4334 -0.8947
 4273TIP3    H212784   5.411   4.730   5.700  1.3691 -1.0251 -1.5685
 4274TIP3   OH212785   2.014   5.380   3.415  0.3389  0.1545 -0.2339
 4274TIP3    H112786   2.054   5.359   3.500 -0.6678  0.4249  0.3201
 4274TIP3    H212787   2.055   5.463   3.389 -1.2771  1.4929  1.2989
 4275TIP3   OH212788   4.336   5.330   4.490  0.8195 -0.5824 -0.5367
 4275TIP3    H112789   4.319   5.261   4.554 -0.4355 -0.6198 -0.8827
 4275TIP3    H212790   4.423   5.364   4.513  0.5744 -0.8848  0.9030
 4276TIP3   OH212791   1.864   4.224   3.964 -0.1825 -0.3096  0.5372
 4276TIP3    H112792   1.951   4.254   3.938 -0.3214 -0.2473  0.1496
 4276TIP3    H212793   1.807   4.247   3.891 -1.0578  2.2424  1.8848
 4277TIP3   OH212794   0.363   5.662   4.414  0.4588 -0.1364 -1.0582
 4277TIP3    H112795   0.403   5.613   4.485 -0.7763  2.0912  1.3712
 4277TIP3    H212796   0.274   5.626   4.407  0.2538  0.3066 -0.7658
 4278TIP3   OH212797   4.778   4.303   2.985 -0.2597 -0.4549 -0.0413
 4278TIP3    H112798   4.866   4.332   3.007 -0.1796 -0.1973 -0.6916
 4278TIP3    H212799   4.738   4.378   2.941 -2.2178  1.0275  3.6983
 4279TIP3   OH212800   6.478   0.545   2.576 -0.0122 -0.0373  0.5150
 4279TIP3    H112801   6.506   0.630   2.610 -0.0576  0.4758 -0.6505
 4279TIP3    H212802   6.539   0.482   2.614  0.2851  0.5766  1.0696
 4280TIP3   OH212803   0.297   1.420   0.519 -0.7170  0.8114 -0.3367
 4280TIP3    H112804   0.360   1.350   0.502  1.5432  2.4656  0.6133
 4280TIP3    H212805   0.269   1.448   0.432  0.8871  0.8461 -0.8917
 4281TIP3   OH212806   1.507   1.190   1.757  0.2110 -0.4971  0.1894
 4281TIP3    H112807   1.458   1.264   1.793 -0.8555 -0.4001 -1.3683
 4281TIP3    H212808   1.482   1.187   1.665 -1.2164 -3.8732  0.5203
 4282TIP3   OH212809   5.947   6.221   3.477 -0.4529 -0.6748  0.2142
 4282TIP3    H112810   5.990   6.298   3.441 -0.9801  0.0946  1.1637
 4282TIP3    H212811   5.998   6.200   3.556 -0.0374 -1.5875 -0.2828
 4283TIP3   OH212812   4.105   1.815   5.144 -0.2515 -0.1784 -0.2148
 4283TIP3    H112813   4.163   1.880   5.104  0.4692 -1.1352 -0.7602
 4283TIP3    H212814   4.035   1.867   5.183  0.4573  0.9454 -0.3829
 4284TIP3   OH212815   6.108   1.528   5.238  0.3368 -0.1962  0.0908
 4284TIP3    H112816   6.187   1.499   5.192  1.2347 -0.3461  1.6423
 4284TIP3    H212817   6.038   1.472   5.204  1.0692 -0.6766 -0.6621
 4285TIP3   OH212818   5.363   5.975   2.500  0.4877 -0.2847  1.0548
 4285TIP3    H112819   5.281   6.020   2.518  0.5515  0.1515  0.2963
 4285TIP3    H212820   5.420   6.042   2.463 -0.4534 -1.5318 -3.2790
 4286TIP3   OH212821   6.013   3.891   0.159 -0.1960  0.1379  0.6832
 4286TIP3    H112822   5.987   3.942   0.236 -1.1193  0.7575 -0.0106
 4286TIP3    H212823   5.967   3.807   0.169 -1.3151  0.6670  0.2248
 4287TIP3   OH212824   0.945   6.568   1.417  0.3148 -0.5604 -0.3313
 4287TIP3    H112825   1.014   6.613   1.467 -0.7843  1.7875 -0.8108
 4287TIP3    H212826   0.954   6.602   1.328 -0.9531 -0.8574 -0.5916
 4288TIP3   OH212827   3.075   0.282   2.119 -0.2292  1.0430 -0.5431
 4288TIP3    H112828   2.989   0.263   2.083  0.2917  1.1861 -1.9154
 4288TIP3    H212829   3.094   0.208   2.176 -2.8357  2.7359  2.9073
 4289TIP3   OH212830   2.130   0.456   2.779  0.6129 -0.0868 -0.2148
 4289TIP3    H112831   2.064   0.460   2.710  0.5298 -1.3397 -0.2221
 4289TIP3    H212832   2.102   0.386   2.836  1.3804  0.0706  0.3763
 4290TIP3   OH212833   2.585   6.663   4.024 -0.3892 -0.3298  0.0414
 4290TIP3    H112834   2.677   6.681   4.043 -0.2201 -0.4822 -0.6013
 4290TIP3    H212835   2.579   6.668   3.928 -0.8753 -1.1227  0.0237
 4291TIP3   OH212836   5.706   3.707   3.161  0.1076 -0.0713  0.5386
 4291TIP3    H112837   5.796   3.711   3.194 -0.0490 -1.1321  1.1441
 4291TIP3    H212838   5.685   3.614   3.158 -0.3696  0.0647 -1.3214
 4292TIP3   OH212839   2.271   3.750   5.513 -0.1169 -0.0693 -0.0498
 4292TIP3    H112840   2.260   3.782   5.603 -1.5771 -2.2255  0.6265
 4292TIP3    H212841   2.352   3.698   5.517  1.3045  1.9946 -0.7158
 4293TIP3   OH212842   1.941   1.255   0.662  0.1297 -0.2616  0.1725
 4293TIP3    H112843   1.942   1.189   0.592 -0.2145  0.8164 -0.8948
 4293TIP3    H212844   1.968   1.336   0.618  0.4569  0.3288  1.4302
 4294TIP3   OH212845   3.282   1.918   1.909  0.0862 -0.3139  0.1198
 4294TIP3    H112846   3.375   1.911   1.930 -0.1282  0.2478  1.3401
 4294TIP3    H212847   3.256   1.829   1.886  0.5272 -0.8536  1.5835
 4295TIP3   OH212848   2.203   2.281   2.527 -0.6346  0.1443 -0.7910
 4295TIP3    H112849   2.150   2.319   2.596 -0.5497  0.1356 -0.7212
 4295TIP3    H212850   2.292   2.283   2.561 -0.1990  2.4231 -1.8673
 4296TIP3   OH212851   2.000   3.794   1.586 -0.0876 -0.4557 -0.2976
 4296TIP3    H112852   2.005   3.854   1.511 -4.1814  0.8892  0.2665
 4296TIP3    H212853   1.967   3.712   1.549 -2.7738  0.4179 -0.0168
 4297TIP3   OH212854   4.743   3.925   0.461  0.2018  0.9644  0.1408
 4297TIP3    H112855   4.696   3.876   0.528 -1.0778  2.8270  0.6843
 4297TIP3    H212856   4.803   3.981   0.510  0.7042  0.8972 -0.3890
 4298TIP3   OH212857   6.680   5.604   5.844  0.1370  0.0360 -0.3918
 4298TIP3    H112858   6.699   5.583   5.752  1.0475  0.5215 -0.3340
 4298TIP3    H212859   6.617   5.675   5.840  0.7966  0.6178 -0.6694
 4299TIP3   OH212860   3.061   0.933   5.492  0.1042  0.0227 -0.3581
 4299TIP3    H112861   2.976   0.959   5.526  0.4349  0.6816 -0.0181
 4299TIP3    H212862   3.049   0.928   5.397 -0.1737  0.6357 -0.3546
 4300TIP3   OH212863   0.682   2.659   2.347  0.0597 -0.1726 -0.0269
 4300TIP3    H112864   0.726   2.684   2.266 -1.2153  1.9602 -0.1087
 4300TIP3    H212865   0.743   2.685   2.416  1.4772 -2.6425 -0.1953
 4301TIP3   OH212866   5.261   0.607   3.025 -0.4153  0.3653 -0.2035
 4301TIP3    H112867   5.170   0.584   3.041  0.0943 -2.8426 -1.2035
 4301TIP3    H212868   5.310   0.529   3.050  2.0172  1.7690 -0.3173
 4302TIP3   OH212869   3.646   0.906   0.271 -0.1001 -0.0720 -0.4366
 4302TIP3    H112870   3.705   0.877   0.340  0.7846 -0.0716 -1.1714
 4302TIP3    H212871   3.677   0.994   0.248 -0.1525 -0.2118 -1.0744
 4303TIP3   OH212872   0.917   5.980   4.647 -0.6621 -0.0515  0.5290
 4303TIP3    H112873   1.006   5.959   4.675 -0.8465 -0.8313  0.5416
 4303TIP3    H212874   0.927   6.014   4.558 -0.2240  1.0971  1.0001
 4304TIP3   OH212875   5.690   2.845   2.326 -0.0258 -0.0613  0.2119
 4304TIP3    H112876   5.658   2.757   2.304 -1.0295  0.6727 -1.4692
 4304TIP3    H212877   5.664   2.858   2.417 -0.8364 -1.0896  0.1489
 4305TIP3   OH212878   4.218   3.885   0.552  0.2784 -0.0750  0.1929
 4305TIP3    H112879   4.254   3.966   0.588 -1.1492 -0.7480  3.4034
 4305TIP3    H212880   4.264   3.875   0.468  0.6891  3.8687 -0.2692
 4306TIP3   OH212881   6.038   1.916   0.902  0.5198 -0.3561  0.2664
 4306TIP3    H112882   6.102   1.902   0.972  2.2904  0.2600 -1.1555
 4306TIP3    H212883   5.999   2.001   0.923  1.1151 -0.1259  0.4846
 4307TIP3   OH212884   0.353   0.865   1.058 -0.2932  0.0750  0.3525
 4307TIP3    H112885   0.335   0.887   0.967  1.4506  0.5402  0.0879
 4307TIP3    H212886   0.321   0.776   1.068  1.7840 -0.9700 -1.4746
 4308TIP3   OH212887   2.347   2.355   0.966  0.5923 -0.4505  0.3392
 4308TIP3    H112888   2.372   2.285   1.025  1.3488 -2.5020 -2.2257
 4308TIP3    H212889   2.253   2.342   0.951  0.7858 -1.1410 -0.3439
 4309TIP3   OH212890   1.975   5.554   0.889  0.1390  0.5504 -0.3159
 4309TIP3    H112891   2.024   5.524   0.812  3.5343 -0.7687  2.1114
 4309TIP3    H212892   1.973   5.649   0.880 -0.3561  0.4002 -2.4100
 4310TIP3   OH212893   0.955   5.734   2.531  0.4745  0.2160 -0.4974
 4310TIP3    H112894   0.946   5.801   2.463  0.0839 -0.4994 -1.1685
 4310TIP3    H212895   0.962   5.783   2.612 -1.3862  1.0692 -0.7917
 4311TIP3   OH212896   1.011   6.091   4.403  0.1171 -0.2004  0.4069
 4311TIP3    H112897   1.010   6.016   4.345  0.7474 -0.4802  0.7418
 4311TIP3    H212898   1.084   6.145   4.371  0.5091 -0.3891  0.9660
 4312TIP3   OH212899   5.607   0.528   3.451  0.4503 -0.0630 -0.4136
 4312TIP3    H112900   5.571   0.514   3.364 -1.3990 -0.9955  0.4634
 4312TIP3    H212901   5.574   0.613   3.478 -1.1075 -0.8798  0.3555
 4313TIP3   OH212902   5.505   6.575   2.395 -0.0075 -0.1309 -0.6453
 4313TIP3    H112903   5.416   6.601   2.418 -0.0223  0.1861 -1.0585
 4313TIP3    H212904   5.532   6.517   2.467 -0.2221  0.4723 -0.0641
 4314TIP3   OH212905   4.360   0.290   0.022 -0.0028 -0.6868 -0.1167
 4314TIP3    H112906   4.282   0.267   0.073  1.0559 -0.4212  1.7361
 4314TIP3    H212907   4.399   0.205  -0.001  0.9479 -0.8962  1.9608
 4315TIP3   OH212908   3.755   6.566   1.854  0.2508 -0.5245  0.1966
 4315TIP3    H112909   3.759   6.600   1.944  1.1169 -0.0073 -0.0180
 4315TIP3    H212910   3.742   6.644   1.800 -1.3727 -0.9510 -0.0667
 4316TIP3   OH212911   6.887   4.063   0.746 -0.3047 -0.3523  0.4787
 4316TIP3    H112912   6.977   4.029   0.749 -0.3586 -0.7664 -1.3625
 4316TIP3    H212913   6.890   4.131   0.678 -1.2488  0.0991  0.8695
 4317TIP3   OH212914   5.183   3.523   1.895 -0.0625 -0.3681 -0.3842
 4317TIP3    H112915   5.258   3.491   1.844 -0.9131 -2.6442 -0.3625
 4317TIP3    H212916   5.109   3.470   1.863 -1.8868  2.3251 -0.9825
 4318TIP3   OH212917   2.263   3.256   0.640 -0.6875  0.2298  0.0035
 4318TIP3    H112918   2.183   3.292   0.678 -1.2732 -1.2873  0.2919
 4318TIP3    H212919   2.286   3.184   0.698 -0.5375 -0.9442 -1.4533
 4319TIP3   OH212920   6.151   1.550   4.349  0.4873 -0.2955 -0.4172
 4319TIP3    H112921   6.170   1.623   4.408  0.0421  0.2645 -0.9537
 4319TIP3    H212922   6.119   1.481   4.406 -0.0119  0.2672 -0.0037
 4320TIP3   OH212923   1.892   0.824   3.281  0.0634  0.6483  0.1982
 4320TIP3    H112924   1.797   0.812   3.269  0.2733  0.2663 -1.2549
 4320TIP3    H212925   1.899   0.899   3.341 -1.1546  0.5438  0.5034
 4321TIP3   OH212926   3.031   4.979   3.391  0.3454 -0.2909 -0.0249
 4321TIP3    H112927   3.033   4.900   3.338  2.1887  0.1637 -0.7204
 4321TIP3    H212928   2.948   5.021   3.367 -0.2512 -1.5634 -0.2845
 4322TIP3   OH212929   5.135   2.347   0.138  0.2330 -0.3472 -0.6275
 4322TIP3    H112930   5.171   2.433   0.156  0.6711 -0.8328  0.9887
 4322TIP3    H212931   5.073   2.331   0.209  1.9704 -2.3494  0.5510
 4323TIP3   OH212932   4.009   0.589   1.401 -0.2907  0.4319 -0.2952
 4323TIP3    H112933   3.945   0.660   1.404 -1.7254 -0.8320  2.1494
 4323TIP3    H212934   3.957   0.512   1.377  0.3772 -0.5308  1.2412
 4324TIP3   OH212935   1.695   4.990   0.439  0.0024  0.0266  0.4756
 4324TIP3    H112936   1.781   5.017   0.409  0.0345 -0.6595 -0.0771
 4324TIP3    H212937   1.683   5.036   0.522  0.7276  0.4380  0.3599
 4325TIP3   OH212938   3.759   4.748   0.893  0.1085 -0.0318  0.0344
 4325TIP3    H112939   3.850   4.763   0.922 -0.0232 -0.9737  0.9955
 4325TIP3    H212940   3.761   4.763   0.799  1.2722 -0.0481  0.0432
 4326TIP3   OH212941   2.121   1.817   5.414  0.5688 -0.0676  0.3392
 4326TIP3    H112942   2.045   1.875   5.403 -2.3662 -3.4260  0.9277
 4326TIP3    H212943   2.196   1.876   5.420 -1.7520  3.4707 -1.7649
 4327TIP3   OH212944   5.145   1.138   2.838 -0.1163  0.3461 -0.2955
 4327TIP3    H112945   5.141   1.148   2.933 -0.2910 -1.6568 -0.0456
 4327TIP3    H212946   5.054   1.147   2.809 -0.0031  1.4247 -0.3487
 4328TIP3   OH212947   1.063   3.867   3.036 -0.0047  0.5765  0.6008
 4328TIP3    H112948   1.135   3.842   2.979 -1.1907  0.4063 -0.8724
 4328TIP3    H212949   1.017   3.936   2.989 -1.3806  0.0031  1.0528
 4329TIP3   OH212950   6.934   0.219   2.839 -0.8079  0.2105  0.2504
 4329TIP3    H112951   6.895   0.291   2.888  1.9229  0.5486  2.0908
 4329TIP3    H212952   6.985   0.262   2.770 -0.5805 -0.0419  0.2599
 4330TIP3   OH212953   3.563   2.222   4.664  0.1104 -0.9466 -0.1855
 4330TIP3    H112954   3.598   2.239   4.576 -0.0028 -0.0916 -0.0777
 4330TIP3    H212955   3.498   2.153   4.651  0.0272 -0.7604 -0.7912
 4331TIP3   OH212956   1.432   4.442   0.234 -0.2065 -0.0774  0.1146
 4331TIP3    H112957   1.445   4.352   0.264 -0.9672 -0.1963  0.0957
 4331TIP3    H212958   1.431   4.493   0.315 -2.3507 -0.4098  0.3478
 4332TIP3   OH212959   6.234   5.041   2.411 -0.2658  0.0423 -0.0178
 4332TIP3    H112960   6.293   4.967   2.402  0.4111  0.2724  1.9232
 4332TIP3    H212961   6.150   5.002   2.437 -0.0899 -0.0955  0.3515
 4333TIP3   OH212962   3.611   4.780   3.893  0.0871  0.1198  0.6181
 4333TIP3    H112963   3.646   4.862   3.928  1.0516  0.9179 -1.9756
 4333TIP3    H212964   3.686   4.738   3.850 -0.6272 -1.6434  1.0022
 4334TIP3   OH212965   6.770   5.470   4.564  0.1392  0.8983  0.0901
 4334TIP3    H112966   6.755   5.392   4.510 -0.5647 -0.0970  1.6492
 4334TIP3    H212967   6.698   5.529   4.540 -0.0278  0.5750 -0.2208
 4335TIP3   OH212968   3.837   3.457   1.969  0.4579  0.5204 -0.1521
 4335TIP3    H112969   3.918   3.408   1.952  0.8611  1.0228  0.2649
 4335TIP3    H212970   3.868   3.544   1.995 -0.2374  1.0143 -0.9267
 4336TIP3   OH212971   5.218   0.482   5.190 -0.4390 -0.1340 -0.0066
 4336TIP3    H112972   5.168   0.420   5.137 -3.5388  1.5581  0.6918
 4336TIP3    H212973   5.289   0.429   5.227 -1.6903 -2.7572 -1.0541
 4337TIP3   OH212974   4.324   6.387   4.720 -0.3655  0.3526  0.4463
 4337TIP3    H112975   4.405   6.359   4.762 -0.6709 -0.5070  0.4766
 4337TIP3    H212976   4.352   6.443   4.648  0.2673 -0.1264  0.3184
 4338TIP3   OH212977   3.522   1.842   4.985 -0.1003 -0.2949 -0.9920
 4338TIP3    H112978   3.544   1.750   4.999 -1.1657 -0.2816  1.1630
 4338TIP3    H212979   3.596   1.890   5.023  0.4146 -0.2501 -2.0372
 4339TIP3   OH212980   1.228   4.707   5.261 -0.2183  1.2749  0.1206
 4339TIP3    H112981   1.164   4.642   5.290 -2.2449  1.5321 -3.2357
 4339TIP3    H212982   1.291   4.658   5.209  0.3326  1.5430  0.5181
 4340TIP3   OH212983   0.338   3.669   1.495  0.4978  0.2104 -0.1121
 4340TIP3    H112984   0.350   3.764   1.500  1.6913  0.0546  0.5808
 4340TIP3    H212985   0.301   3.645   1.580 -3.0296  0.3900 -1.4232
 4341TIP3   OH212986   1.700   1.665   3.471 -0.6346  0.0986 -0.0400
 4341TIP3    H112987   1.627   1.726   3.464  0.6844  1.9014  1.1323
 4341TIP3    H212988   1.690   1.626   3.558  0.0701  0.7602  0.3488
 4342TIP3   OH212989   5.377   1.521   0.761 -0.3469 -0.3634  0.0837
 4342TIP3    H112990   5.453   1.488   0.809  0.1455  0.8264  0.1485
 4342TIP3    H212991   5.391   1.493   0.671  0.6371  0.6250 -0.0810
 4343TIP3   OH212992   3.226   6.190   5.688  0.6780  0.1534  0.4447
 4343TIP3    H112993   3.305   6.242   5.676 -0.8171  2.7735  1.1730
 4343TIP3    H212994   3.195   6.214   5.776 -1.5300  0.1561 -0.2733
 4344TIP3   OH212995   6.036   3.015   3.471 -0.2963 -0.1704 -0.4278
 4344TIP3    H112996   5.962   3.071   3.492 -0.4652 -0.8392  0.8982
 4344TIP3    H212997   6.008   2.965   3.394 -1.3207 -0.5824  0.1949
 4345TIP3   OH212998   2.793   2.322   1.684 -0.1641 -0.2890 -0.4525
 4345TIP3    H112999   2.717   2.327   1.741  0.5522  0.5142  0.4648
 4345TIP3    H213000   2.859   2.275   1.736  0.2097 -0.3506 -0.9688
 4346TIP3   OH213001   3.373   1.645   5.525  0.5023  0.3421  0.1542
 4346TIP3    H113002   3.384   1.567   5.578 -1.7898 -0.1942 -0.0855
 4346TIP3    H213003   3.379   1.718   5.587  2.6432  0.0583  0.3725
 4347TIP3   OH213004   0.617   1.635   2.493 -0.1699 -0.8125  0.3943
 4347TIP3    H113005   0.667   1.601   2.419  0.9729 -0.8181  1.1354
 4347TIP3    H213006   0.571   1.559   2.527  1.8657 -1.5699  1.6470
 4348TIP3   OH213007   5.739   1.155   1.215 -0.4343 -0.2120 -0.3357
 4348TIP3    H113008   5.654   1.192   1.241 -0.2830 -0.7459  1.0094
 4348TIP3    H213009   5.785   1.144   1.298  0.2761 -1.5857 -0.8998
 4349TIP3   OH213010   4.990   4.033   1.869  0.2284  0.1259  0.4127
 4349TIP3    H113011   4.982   4.126   1.849  1.2616  0.2259  0.3995
 4349TIP3    H213012   5.068   4.005   1.822  0.0921 -0.6821  0.6494
 4350TIP3   OH213013   3.799   1.945   1.092  0.0403 -0.5051 -0.3823
 4350TIP3    H113014   3.815   1.881   1.023  4.2153  0.6590 -0.7487
 4350TIP3    H213015   3.840   1.906   1.170 -0.6762  0.1391  0.3312
 4351TIP3   OH213016   0.044   0.982   1.356  0.6177  0.0802 -0.5715
 4351TIP3    H113017   0.122   0.932   1.377  0.7545  0.1218 -0.9756
 4351TIP3    H213018  -0.005   0.926   1.297  0.5401  0.2256 -0.6462
 4352TIP3   OH213019   1.512   2.611   1.872  0.1945  0.8866  0.1226
 4352TIP3    H113020   1.528   2.682   1.934 -0.2689  0.7090  0.4577
 4352TIP3    H213021   1.538   2.646   1.787  0.8326  1.1377  0.4163
 4353TIP3   OH213022   4.904   6.253   5.742  0.0464 -0.0340  0.0944
 4353TIP3    H113023   4.879   6.344   5.727 -2.6411 -0.9781 -2.1403
 4353TIP3    H213024   4.881   6.236   5.834 -0.6653  1.1987  0.1576
 4354TIP3   OH213025   0.431   2.024   5.141  0.2381 -0.0073 -0.6235
 4354TIP3    H113026   0.410   1.945   5.091 -0.5857  0.4691 -1.0535
 4354TIP3    H213027   0.433   2.094   5.076  1.9971  0.1777 -0.4030
 4355TIP3   OH213028   7.041   2.914   3.414  0.2982  0.0723 -0.0790
 4355TIP3    H113029   7.021   2.920   3.508  0.0125 -0.8083 -0.0800
 4355TIP3    H213030   6.956   2.896   3.373  0.2642  1.3261 -0.6139
 4356TIP3   OH213031   0.617   5.357   1.071 -0.1396  0.3101  0.5203
 4356TIP3    H113032   0.535   5.347   1.119 -1.0474 -2.1346 -1.3311
 4356TIP3    H213033   0.611   5.443   1.029 -1.7830  0.1320  0.3638
 4357TIP3   OH213034   6.572   5.592   1.673 -0.2609  0.7743  0.0950
 4357TIP3    H113035   6.628   5.669   1.660  2.4704 -0.8256  1.4904
 4357TIP3    H213036   6.527   5.581   1.590  3.3644  0.8120 -2.0903
 4358TIP3   OH213037   4.592   2.942   2.423  0.0071 -0.5761  0.2851
 4358TIP3    H113038   4.516   2.951   2.366 -0.2599  1.1048  0.8252
 4358TIP3    H213039   4.568   2.991   2.502  1.1870 -1.0323  0.9479
 4359TIP3   OH213040   3.955   2.678   5.680 -0.1541 -0.1599 -0.0299
 4359TIP3    H113041   3.941   2.716   5.593  0.0339  1.3391  0.5662
 4359TIP3    H213042   4.049   2.660   5.684 -0.1793 -0.3254 -0.1654
 4360TIP3   OH213043   4.037   6.812   5.671  0.3383 -0.1472 -0.2879
 4360TIP3    H113044   4.019   6.718   5.662 -1.4716  0.2987 -1.9918
 4360TIP3    H213045   4.129   6.820   5.647  0.5957 -1.5181  0.1177
 4361TIP3   OH213046   0.922   0.036   2.122 -0.7610 -0.0640  0.3958
 4361TIP3    H113047   0.941  -0.050   2.159 -0.3142 -1.7550 -3.3240
 4361TIP3    H213048   0.998   0.089   2.143  0.0965 -1.3459  0.6231
 4362TIP3   OH213049   2.449   1.037   3.288  0.3485  0.0805 -0.3145
 4362TIP3    H113050   2.357   1.014   3.289  0.3694 -0.0500  1.4387
 4362TIP3    H213051   2.461   1.093   3.364  1.2633  2.0855 -1.8471
 4363TIP3   OH213052   1.345   0.312   2.192 -0.0877 -0.5121  0.1053
 4363TIP3    H113053   1.327   0.229   2.147 -1.4119 -0.6409  0.8426
 4363TIP3    H213054   1.418   0.350   2.143  0.1462 -1.8284 -0.6082
 4364TIP3   OH213055   5.011   3.626   0.987 -0.5140  0.3530  0.4216
 4364TIP3    H113056   5.076   3.609   0.919 -2.1295 -2.4766 -0.6103
 4364TIP3    H213057   5.051   3.592   1.067 -0.6830 -1.5460 -0.2336
 4365TIP3   OH213058   4.067   5.435   0.125  0.2636  0.4753  0.1783
 4365TIP3    H113059   4.063   5.340   0.132  0.7189  0.5233  1.1456
 4365TIP3    H213060   3.978   5.460   0.100 -0.1256 -0.1228  0.9348
 4366TIP3   OH213061   5.831   3.506   1.042  0.8474 -0.0984 -0.2940
 4366TIP3    H113062   5.846   3.573   0.975 -0.1278 -0.1372 -0.5777
 4366TIP3    H213063   5.746   3.468   1.018  1.0379 -0.9220  0.2960
 4367TIP3   OH213064   0.047   1.201   5.711 -0.0487 -0.0520 -0.4009
 4367TIP3    H113065  -0.026   1.227   5.656  0.3229  2.2922  0.1262
 4367TIP3    H213066   0.016   1.123   5.757 -0.6587 -1.6505 -3.2235
 4368TIP3   OH213067   4.214   4.896   4.390 -0.0779 -0.7591  0.1233
 4368TIP3    H113068   4.182   4.825   4.334 -1.9068  0.0973  0.0032
 4368TIP3    H213069   4.217   4.858   4.478 -0.0283 -1.2787 -0.1009
 4369TIP3   OH213070   5.801   2.758   5.621  0.1460 -0.3011  0.1555
 4369TIP3    H113071   5.806   2.758   5.525  0.0044 -0.5141  0.1467
 4369TIP3    H213072   5.816   2.666   5.645  0.8222 -0.1357  0.3722
 4370TIP3   OH213073   2.555   0.745   1.943  0.5745  0.2854  0.2160
 4370TIP3    H113074   2.567   0.834   1.977  0.1071  0.4895 -0.1434
 4370TIP3    H213075   2.486   0.708   1.998 -0.0924  0.5718 -0.4097
 4371TIP3   OH213076   2.180   5.028   0.613 -0.5424 -0.5012  0.4568
 4371TIP3    H113077   2.160   5.060   0.701  0.6275 -2.4009  1.4772
 4371TIP3    H213078   2.103   4.977   0.587 -1.0355  0.3574  0.2124
 4372TIP3   OH213079   0.052   5.279   0.385 -0.5251  0.1744 -0.2015
 4372TIP3    H113080   0.125   5.313   0.435 -0.9720  0.0825  0.5305
 4372TIP3    H213081   0.008   5.218   0.444 -1.7841  0.9861 -0.2491
 4373TIP3   OH213082   7.119   3.103   2.511 -0.0114 -0.5333  0.4238
 4373TIP3    H113083   7.136   3.016   2.475 -0.3011 -0.7439  0.7983
 4373TIP3    H213084   7.024   3.108   2.521 -0.0850  0.1669 -0.4449
 4374TIP3   OH213085   3.307   2.190   1.857 -0.1074  0.5158 -0.1669
 4374TIP3    H113086   3.401   2.202   1.869 -0.3744  0.9670  1.8720
 4374TIP3    H213087   3.294   2.095   1.862  0.5825  0.0349 -4.1521
 4375TIP3   OH213088   5.475   3.061   3.195  0.1805  0.2220  0.1219
 4375TIP3    H113089   5.511   3.006   3.265  0.9202  0.2340 -0.2332
 4375TIP3    H213090   5.384   3.074   3.219 -0.3697 -2.1817 -0.3962
 4376TIP3   OH213091   0.120   0.618   2.783  0.1997  0.3481 -0.2907
 4376TIP3    H113092   0.108   0.710   2.804  1.8190 -0.0165  2.8342
 4376TIP3    H213093   0.204   0.613   2.739 -0.1616  0.4009 -0.9997
 4377TIP3   OH213094   3.179   4.522   3.710 -0.5398  0.3903 -0.4093
 4377TIP3    H113095   3.199   4.563   3.794  1.4458 -0.0962 -0.6011
 4377TIP3    H213096   3.218   4.434   3.716  0.0617  0.5208 -1.9976
 4378TIP3   OH213097   1.095   0.912   5.342  0.3091 -0.1050 -0.2342
 4378TIP3    H113098   1.039   0.983   5.312  0.1790 -0.6352 -1.2911
 4378TIP3    H213099   1.176   0.922   5.291  1.4395  0.9719  1.6393
 4379TIP3   OH213100   6.142   0.048   2.624 -0.4770 -0.2083 -0.1772
 4379TIP3    H113101   6.171   0.043   2.533  0.4375 -1.0584  0.1409
 4379TIP3    H213102   6.219   0.079   2.672 -0.1510 -2.1310  0.6330
 4380TIP3   OH213103   1.482   1.423   5.179 -0.4425  0.5014 -0.1753
 4380TIP3    H113104   1.394   1.384   5.179  0.1941 -1.0448  1.1503
 4380TIP3    H213105   1.512   1.416   5.269  1.5727 -0.3046 -0.8407
 4381TIP3   OH213106   4.161   1.655   5.683  0.0468 -0.3271 -0.9711
 4381TIP3    H113107   4.115   1.642   5.600 -0.3237  0.2922 -0.8709
 4381TIP3    H213108   4.092   1.652   5.750  0.0795  0.9748 -0.8512
 4382TIP3   OH213109   5.883   2.869   4.344 -0.5320  0.5972 -0.3208
 4382TIP3    H113110   5.876   2.774   4.345  3.1336  0.1626  0.2486
 4382TIP3    H213111   5.888   2.892   4.251  0.6104 -0.0859 -0.4555
 4383TIP3   OH213112   2.129   4.478   5.466 -0.7455 -0.0811  0.0432
 4383TIP3    H113113   2.078   4.530   5.528 -1.6890 -1.3548  0.3764
 4383TIP3    H213114   2.064   4.431   5.414  0.0269 -2.1884  0.8523
 4384TIP3   OH213115   1.859   3.943   5.019  0.1920 -0.1760  0.2173
 4384TIP3    H113116   1.938   3.969   4.971 -0.7840 -0.7425 -1.8410
 4384TIP3    H213117   1.882   3.861   5.061  0.3166 -1.1666 -1.6525
 4385TIP3   OH213118   6.862   0.879   4.149  0.2333  0.2451  0.8745
 4385TIP3    H113119   6.952   0.876   4.116  0.1858 -0.9413  0.8265
 4385TIP3    H213120   6.869   0.855   4.241 -0.1341 -0.7991  0.6391
 4386TIP3   OH213121   6.329   3.369   5.351 -0.0729 -0.2871  0.2644
 4386TIP3    H113122   6.252   3.388   5.405  0.9908 -0.5485  1.9314
 4386TIP3    H213123   6.328   3.436   5.283  0.1928  1.9791  2.3637
 4387TIP3   OH213124   2.886   4.773   1.327  0.2469  0.6397 -0.7330
 4387TIP3    H113125   2.837   4.716   1.268 -0.4039  0.9232 -0.4765
 4387TIP3    H213126   2.967   4.726   1.344 -0.0582  0.0287 -0.9407
 4388TIP3   OH213127   1.778   3.142   5.707  0.1544 -0.5100 -0.9654
 4388TIP3    H113128   1.781   3.235   5.684 -1.6419 -0.1706 -0.0444
 4388TIP3    H213129   1.804   3.096   5.628 -0.0962  0.7518 -1.8065
 4389TIP3   OH213130   5.838   6.786   1.537  0.3385  0.2186 -0.1784
 4389TIP3    H113131   5.819   6.693   1.521 -0.9421  0.5218 -0.5018
 4389TIP3    H213132   5.803   6.831   1.460  0.5548  1.0188  0.1863
 4390TIP3   OH213133   3.850   6.417   1.068 -0.0355 -0.2136 -0.2268
 4390TIP3    H113134   3.819   6.459   0.987 -1.1395 -1.8509 -0.7167
 4390TIP3    H213135   3.856   6.324   1.046 -0.4215 -0.7146  1.5997
 4391TIP3   OH213136   6.132   3.863   1.842 -0.5642  0.4096  0.0034
 4391TIP3    H113137   6.052   3.902   1.878 -0.8411  0.8375 -1.0422
 4391TIP3    H213138   6.201   3.891   1.902 -1.1299  0.4310  0.6566
 4392TIP3   OH213139   5.783   1.988   4.749  0.7479 -0.1300  0.2284
 4392TIP3    H113140   5.755   2.064   4.699 -0.4227 -0.6213  0.0905
 4392TIP3    H213141   5.784   2.017   4.840 -1.5595 -0.4051  0.4045
 4393TIP3   OH213142   7.080   5.872   5.134  0.2960  0.2788 -0.6373
 4393TIP3    H113143   7.017   5.870   5.206  2.9261 -3.6303  1.9672
 4393TIP3    H213144   7.159   5.910   5.172  1.1804 -0.0333 -2.0765
 4394TIP3   OH213145   2.417   1.819   0.102 -0.3401 -0.9324 -0.7958
 4394TIP3    H113146   2.467   1.770   0.167  0.1328 -0.8309 -1.0817
 4394TIP3    H213147   2.378   1.892   0.150  1.5769  0.2668 -0.9848
 4395TIP3   OH213148   0.187   3.292   2.992  0.4344  0.4008 -0.1217
 4395TIP3    H113149   0.197   3.346   3.071 -0.6485  0.2866  0.1172
 4395TIP3    H213150   0.274   3.287   2.955  0.7060  1.6210  0.3126
 4396TIP3   OH213151   4.475   0.543   1.870 -0.1313 -0.6614  0.2096
 4396TIP3    H113152   4.397   0.588   1.903 -1.3465 -0.8499 -2.1350
 4396TIP3    H213153   4.465   0.453   1.899  0.7592 -0.1096  2.3771
 4397TIP3   OH213154   6.375   1.908   1.952  0.1054 -0.0350  0.2612
 4397TIP3    H113155   6.281   1.891   1.953 -0.0752  0.3472 -2.4193
 4397TIP3    H213156   6.385   1.989   1.902  1.9506 -1.4510 -1.8917
 4398TIP3   OH213157   1.792   6.454   1.436 -0.2996  0.0482 -0.4618
 4398TIP3    H113158   1.785   6.549   1.449  0.1954  0.6023 -3.3797
 4398TIP3    H213159   1.702   6.424   1.429 -0.4560  0.3402  0.2312
 4399TIP3   OH213160   2.919   6.350   2.017 -0.1055  0.0648 -0.2913
 4399TIP3    H113161   2.932   6.361   1.923  0.1039 -1.8195 -0.5316
 4399TIP3    H213162   3.007   6.333   2.051 -0.0447  1.6476  0.4195
 4400TIP3   OH213163   2.578   2.139   3.263  0.2230 -0.2256 -0.1588
 4400TIP3    H113164   2.642   2.099   3.204  3.0644  2.4980  0.7653
 4400TIP3    H213165   2.525   2.195   3.206  0.4379 -0.4834 -0.6198
 4401TIP3   OH213166   4.893   3.045   4.770  0.5245 -0.2758 -0.3746
 4401TIP3    H113167   4.952   3.042   4.846 -1.2632 -0.5582  1.0596
 4401TIP3    H213168   4.809   3.014   4.803 -1.1023  2.3117 -1.7417
 4402TIP3   OH213169   4.450   2.499   4.509 -0.5058 -0.0747 -0.3019
 4402TIP3    H113170   4.430   2.514   4.416  1.3529  0.1908 -0.6977
 4402TIP3    H213171   4.532   2.547   4.524 -0.1235 -1.1149  1.1644
 4403TIP3   OH213172   0.464   5.108   4.963 -0.2606 -0.5484 -0.3197
 4403TIP3    H113173   0.418   5.024   4.962  1.1292 -1.4115  1.7116
 4403TIP3    H213174   0.522   5.105   4.887 -0.9028 -0.9815 -0.8048
 4404TIP3   OH213175   6.646   3.633   1.086  0.1705  0.2063  0.0615
 4404TIP3    H113176   6.568   3.586   1.117  0.8025 -0.2784  0.9541
 4404TIP3    H213177   6.627   3.653   0.994 -0.6266 -0.7133  0.0104
 4405TIP3   OH213178   4.070   0.478   5.621  0.0635  0.0274  0.3664
 4405TIP3    H113179   3.977   0.465   5.604 -0.5247  1.3975  2.0979
 4405TIP3    H213180   4.102   0.525   5.544 -0.9032  0.3513  0.1413
 4406TIP3   OH213181   3.976   1.489   3.183  0.1241 -0.2588 -0.2955
 4406TIP3    H113182   3.959   1.429   3.254 -4.7327  0.3996 -0.5701
 4406TIP3    H213183   3.990   1.433   3.106  1.8360 -0.9325  0.4640
 4407TIP3   OH213184   1.411   0.481   0.609 -0.1792  0.1344 -0.1290
 4407TIP3    H113185   1.434   0.468   0.701 -1.2169  0.0385  0.1358
 4407TIP3    H213186   1.479   0.436   0.560 -0.6547 -1.4971  0.6400
 4408TIP3   OH213187   1.478   4.134   2.727 -0.4054  0.5080  0.0307
 4408TIP3    H113188   1.516   4.221   2.725 -1.2580  0.9880  2.0786
 4408TIP3    H213189   1.437   4.127   2.814 -0.8850 -1.6994 -0.3004
 4409TIP3   OH213190   5.854   3.340   2.160  0.2800  0.2620 -0.4840
 4409TIP3    H113191   5.782   3.277   2.149  0.0787 -0.0891  2.1333
 4409TIP3    H213192   5.810   3.423   2.179  0.5716  0.4504 -0.6312
 4410TIP3   OH213193   5.936   1.759   0.720 -0.0121  0.0158 -0.4392
 4410TIP3    H113194   5.980   1.815   0.784  0.0753  0.4413 -0.8638
 4410TIP3    H213195   5.999   1.689   0.704 -0.2067 -0.3252  0.2490
 4411TIP3   OH213196   1.532   4.385   2.783 -0.3499  0.3632  0.1801
 4411TIP3    H113197   1.599   4.375   2.850 -0.0695  0.2440 -0.1168
 4411TIP3    H213198   1.499   4.474   2.795  0.6282  0.8179 -0.3670
 4412TIP3   OH213199   0.291   1.424   4.693  0.5546 -0.4373 -0.4615
 4412TIP3    H113200   0.247   1.404   4.776  1.2058  0.7905  0.2093
 4412TIP3    H213201   0.227   1.475   4.644  0.6471  0.0308 -0.1149
 4413TIP3   OH213202   0.140   0.979   2.341 -0.3194  0.2811  0.2355
 4413TIP3    H113203   0.102   0.904   2.385 -1.5065  0.6946 -0.0557
 4413TIP3    H213204   0.118   0.967   2.248  1.2366 -0.0383 -0.1282
 4414TIP3   OH213205   2.837   2.913   5.371  0.3159 -0.0859 -0.1565
 4414TIP3    H113206   2.803   2.827   5.394 -0.0998 -0.4145 -1.8433
 4414TIP3    H213207   2.929   2.897   5.350  0.8758  0.3301  1.7957
 4415TIP3   OH213208   5.069   6.439   2.798 -0.3676  0.1705  0.3071
 4415TIP3    H113209   5.055   6.413   2.889 -0.6176 -0.5692  0.0648
 4415TIP3    H213210   5.080   6.534   2.802  0.2840  0.0673  1.1817
 4416TIP3   OH213211   1.295   6.279   3.569  0.2414 -0.2020  0.2842
 4416TIP3    H113212   1.286   6.271   3.474 -0.1622  0.0120  0.3035
 4416TIP3    H213213   1.205   6.287   3.601  0.3508 -0.6711  0.7207
 4417TIP3   OH213214   3.752   6.593   0.433  0.2785  0.0833 -0.2159
 4417TIP3    H113215   3.779   6.501   0.441 -0.0844  0.0929  1.6096
 4417TIP3    H213216   3.657   6.591   0.436  0.2797  0.5648  0.9845
 4418TIP3   OH213217   1.437   2.613   3.599  0.0829  0.3869  0.2347
 4418TIP3    H113218   1.476   2.698   3.621  2.0095 -0.3503 -0.0774
 4418TIP3    H213219   1.436   2.565   3.682  0.1640  0.2912  0.1812
 4419TIP3   OH213220   5.704   2.390   0.177 -0.0619 -0.2925  0.1439
 4419TIP3    H113221   5.706   2.486   0.172  2.0270 -0.2818  0.3895
 4419TIP3    H213222   5.784   2.362   0.132 -0.6819 -1.9430  0.0114
 4420TIP3   OH213223   0.334   1.655   0.042  0.4977  0.2233 -0.0613
 4420TIP3    H113224   0.413   1.663   0.095  0.5745 -2.9642  0.5291
 4420TIP3    H213225   0.262   1.659   0.106  0.3475  0.5771 -0.2548
 4421TIP3   OH213226   1.674   1.538   4.847  0.4751 -0.0155  0.1259
 4421TIP3    H113227   1.700   1.573   4.762  1.9387 -3.9822 -1.2850
 4421TIP3    H213228   1.603   1.476   4.827  0.6119 -0.7830  1.8194
 4422TIP3   OH213229   1.332   2.785   2.883  0.3156  0.3607 -0.7157
 4422TIP3    H113230   1.344   2.726   2.808  1.2786  1.5578 -1.5475
 4422TIP3    H213231   1.244   2.820   2.872  0.8594  1.4019 -1.9709
 4423TIP3   OH213232   4.097   3.320   1.254  0.7839 -0.4149 -0.0227
 4423TIP3    H113233   4.017   3.293   1.300  0.2618 -0.2413 -0.7996
 4423TIP3    H213234   4.070   3.397   1.203  1.4268 -0.4150 -0.3713
 4424TIP3   OH213235   4.510   1.419   2.118 -0.2282 -0.1663  0.3449
 4424TIP3    H113236   4.427   1.372   2.116 -0.2717 -0.1619  1.3080
 4424TIP3    H213237   4.510   1.464   2.202  1.3241 -1.2735  0.9971
 4425TIP3   OH213238   6.113   4.946   4.259  0.5889  0.0463 -0.3995
 4425TIP3    H113239   6.100   4.903   4.174  0.4245  0.6969 -0.7126
 4425TIP3    H213240   6.165   4.884   4.309 -1.4266 -1.4692 -0.0515
 4426TIP3   OH213241   4.610   4.508   0.184 -0.3211  0.2470 -0.4561
 4426TIP3    H113242   4.519   4.517   0.156 -0.0847  0.9445 -1.0384
 4426TIP3    H213243   4.661   4.539   0.109  0.4499 -1.5075 -0.6924
 4427TIP3   OH213244   0.266   6.782   4.109 -0.0470  0.0388 -0.7454
 4427TIP3    H113245   0.228   6.732   4.037  0.5704 -0.7839 -0.5185
 4427TIP3    H213246   0.206   6.856   4.122 -0.5720 -0.2278 -1.5832
 4428TIP3   OH213247   0.687   4.182   3.782 -0.2809  0.0620  0.2658
 4428TIP3    H113248   0.668   4.095   3.816 -0.1276 -0.1681 -0.2331
 4428TIP3    H213249   0.643   4.241   3.843 -2.1484 -0.4310 -0.5108
 4429TIP3   OH213250   5.319   5.125   2.534 -0.5296 -0.4800 -0.1865
 4429TIP3    H113251   5.399   5.075   2.554 -1.5062 -2.1391 -0.2572
 4429TIP3    H213252   5.350   5.214   2.517  1.2058 -0.8687  0.7044
 4430TIP3   OH213253   3.858   4.243   1.146  0.1818 -0.3451  0.7766
 4430TIP3    H113254   3.904   4.321   1.113  0.8580 -1.6718 -1.6416
 4430TIP3    H213255   3.766   4.268   1.147  0.3688  0.4313 -0.1085
 4431TIP3   OH213256   1.401   0.557   3.061  0.2189  0.5036 -0.3014
 4431TIP3    H113257   1.412   0.615   2.986  0.0006  0.9455  0.0024
 4431TIP3    H213258   1.456   0.482   3.042 -0.9509 -0.0744 -1.5895
 4432TIP3   OH213259   2.979   0.093   3.838  0.0299 -0.5126 -0.4223
 4432TIP3    H113260   2.899   0.145   3.844 -0.0617 -0.6831 -0.1193
 4432TIP3    H213261   2.948   0.004   3.825  0.2023 -0.3873 -1.8567
 4433TIP3   OH213262   1.002   6.356   0.688 -0.4318 -1.1435 -0.0764
 4433TIP3    H113263   1.060   6.325   0.758 -1.4448  0.8333  1.7596
 4433TIP3    H213264   0.945   6.420   0.731 -0.3676  1.0414 -2.9756
 4434TIP3   OH213265   4.761   6.576   3.485 -0.4802 -0.0580  0.6788
 4434TIP3    H113266   4.798   6.488   3.484 -1.3935 -0.5096  2.4199
 4434TIP3    H213267   4.815   6.624   3.548 -0.3310  0.4726  0.1541
 4435TIP3   OH213268   4.629   6.773   2.471 -0.0664  0.3104 -0.4211
 4435TIP3    H113269   4.558   6.710   2.463 -0.1622  0.3808 -0.1221
 4435TIP3    H213270   4.696   6.728   2.523 -0.7565  0.9818  1.1202
 4436TIP3   OH213271   0.428   4.511   1.727 -0.5004  0.5840 -0.1657
 4436TIP3    H113272   0.376   4.506   1.647 -0.2937 -1.1194 -0.2350
 4436TIP3    H213273   0.366   4.536   1.795 -0.5826  2.5701 -0.9095
 4437TIP3   OH213274   4.608   5.397   1.601  0.4085 -0.3643  0.3566
 4437TIP3    H113275   4.632   5.408   1.509  3.0263  0.8979  1.0793
 4437TIP3    H213276   4.536   5.335   1.600  0.5860 -0.6568 -2.5173
 4438TIP3   OH213277   0.736   5.659   5.255  0.0633  0.0074  0.4453
 4438TIP3    H113278   0.751   5.658   5.350 -1.2493  0.3521  0.6740
 4438TIP3    H213279   0.717   5.567   5.234  0.6024 -0.1133  0.4626
 4439TIP3   OH213280   4.354   5.961   2.647  0.4752  0.1036  0.5150
 4439TIP3    H113281   4.278   5.973   2.704  0.1622  1.6668 -0.1820
 4439TIP3    H213282   4.378   6.050   2.620  1.2336 -0.5195 -0.9689
 4440TIP3   OH213283   1.819   2.492   3.058  0.5090 -0.2881 -0.6507
 4440TIP3    H113284   1.794   2.402   3.037  0.4708 -0.5080  0.2704
 4440TIP3    H213285   1.911   2.487   3.083  0.6145 -0.0022 -0.9694
 4441TIP3   OH213286   1.400   2.674   5.419  0.3093 -0.6611  0.6416
 4441TIP3    H113287   1.364   2.613   5.355  1.8443 -0.4671 -0.4549
 4441TIP3    H213288   1.456   2.620   5.475  1.8830 -0.2823 -0.4951
 4442TIP3   OH213289   2.158   6.153   1.443  0.0008 -0.5060 -0.1201
 4442TIP3    H113290   2.084   6.182   1.389 -0.2344 -1.5559 -0.3772
 4442TIP3    H213291   2.169   6.223   1.507 -2.3009 -1.0453  0.9938
 4443TIP3   OH213292   5.943   2.547   5.055 -0.4324 -0.0299 -0.4047
 4443TIP3    H113293   6.016   2.607   5.041 -0.4057 -0.0803 -0.4815
 4443TIP3    H213294   5.933   2.543   5.151 -0.5221  0.2014 -0.4030
 4444TIP3   OH213295   5.100   5.754   0.257  0.3536 -0.3275  0.7121
 4444TIP3    H113296   5.159   5.679   0.268 -0.6719 -1.0461  1.5376
 4444TIP3    H213297   5.112   5.806   0.336 -1.1560 -1.2656  1.6191
 4445TIP3   OH213298   0.395   0.958   2.658  0.5531  0.4154  0.3231
 4445TIP3    H113299   0.481   0.968   2.698  0.2784 -1.3754  1.4369
 4445TIP3    H213300   0.413   0.960   2.564  1.6425  1.2765  0.5221
 4446TIP3   OH213301   4.554   2.762   0.112 -0.0779  0.1967  0.1617
 4446TIP3    H113302   4.561   2.776   0.207  1.1968 -2.0195  0.4616
 4446TIP3    H213303   4.643   2.770   0.080  0.0036 -2.0488 -0.3258
 4447TIP3   OH213304   0.742   6.033   5.636 -0.1879 -0.4526  0.7150
 4447TIP3    H113305   0.823   5.986   5.618 -0.6565 -1.6779  1.6560
 4447TIP3    H213306   0.754   6.119   5.596  1.6352 -0.5560  0.9839
 4448TIP3   OH213307   3.437   5.346   0.906 -0.5026  0.6089  0.1921
 4448TIP3    H113308   3.517   5.298   0.887 -0.0827  0.8864  1.2421
 4448TIP3    H213309   3.422   5.334   0.999 -1.6276  0.6556  0.0351
 4449TIP3   OH213310   4.944   5.731   1.837 -0.2384  0.1793 -0.5172
 4449TIP3    H113311   4.851   5.730   1.818 -0.2483 -1.1797 -0.4609
 4449TIP3    H213312   4.971   5.821   1.820 -1.5718  0.6075 -0.4393
 4450TIP3   OH213313   5.283   2.549   3.447  0.3576  0.0193  0.4545
 4450TIP3    H113314   5.317   2.479   3.503  0.3134 -0.2614  0.1307
 4450TIP3    H213315   5.219   2.595   3.502  0.8510  0.2094  0.8843
 4451TIP3   OH213316   0.496   6.455   0.507 -0.6313  0.1373 -0.2637
 4451TIP3    H113317   0.572   6.487   0.555 -0.4977  0.3935 -0.6450
 4451TIP3    H213318   0.451   6.398   0.569  1.1630 -1.9635 -0.7573
 4452TIP3   OH213319   4.615   1.099   4.107 -0.3666 -0.0152 -0.1688
 4452TIP3    H113320   4.616   1.062   4.018 -0.9310 -0.2249 -0.0907
 4452TIP3    H213321   4.523   1.111   4.127 -0.4619 -2.5083  1.4146
 4453TIP3   OH213322   3.786   0.120   4.953 -0.1658  0.0042 -0.5516
 4453TIP3    H113323   3.839   0.177   4.896 -0.0626  0.0338 -0.4282
 4453TIP3    H213324   3.791   0.162   5.039  0.4688 -0.5472 -0.3051
 4454TIP3   OH213325   4.913   1.183   2.734 -0.5470  0.1577 -0.1881
 4454TIP3    H113326   4.844   1.248   2.719 -0.7997 -0.4106 -1.6178
 4454TIP3    H213327   4.868   1.099   2.732 -0.2798 -0.0989  2.0256
 4455TIP3   OH213328   4.788   0.893   4.174 -0.4679  0.1364 -0.2145
 4455TIP3    H113329   4.773   0.874   4.267  0.3527 -0.9494 -0.2783
 4455TIP3    H213330   4.713   0.946   4.148 -2.0994 -1.7143  0.4398
 4456TIP3   OH213331   3.899   5.744   5.780 -0.5329  0.2457  0.1847
 4456TIP3    H113332   3.968   5.682   5.807 -1.0398 -0.4555 -0.0968
 4456TIP3    H213333   3.945   5.809   5.726  0.6090  1.9329  2.9638
 4457TIP3   OH213334   7.144   2.238   4.969 -0.1138  0.7148  0.1679
 4457TIP3    H113335   7.146   2.238   4.874 -1.0072 -0.3077  0.1365
 4457TIP3    H213336   7.215   2.180   4.996  1.1207  2.1557  0.1956
 4458TIP3   OH213337   3.258   1.206   5.781 -0.8216 -0.3195  0.4136
 4458TIP3    H113338   3.315   1.282   5.795 -0.3004 -0.7701  0.7704
 4458TIP3    H213339   3.241   1.206   5.687  1.1835 -1.1507 -0.0054
 4459TIP3   OH213340   2.389   3.292   4.718 -0.1286  0.4244  0.4752
 4459TIP3    H113341   2.320   3.339   4.671  0.0544  1.1728  0.9355
 4459TIP3    H213342   2.428   3.358   4.776  0.6593 -0.1047  0.5676
 4460TIP3   OH213343   2.139   2.005   4.603 -0.0568  0.1828  0.1367
 4460TIP3    H113344   2.220   1.979   4.646  1.0260  2.5739 -0.2893
 4460TIP3    H213345   2.072   2.001   4.671  1.1952  1.8063  1.5504
 4461TIP3   OH213346   1.255   2.162   0.710 -1.0451  0.3171  0.2360
 4461TIP3    H113347   1.249   2.095   0.642  2.0723 -0.1026  0.2451
 4461TIP3    H213348   1.277   2.243   0.663  1.1993  0.0088  0.6355
 4462TIP3   OH213349   5.464   1.433   5.462 -0.2617 -0.4591 -0.1965
 4462TIP3    H113350   5.378   1.399   5.440 -0.6278 -1.9135  2.8960
 4462TIP3    H213351   5.458   1.454   5.555  2.3177  0.8280 -0.2236
 4463TIP3   OH213352   0.213   2.242   5.421 -0.3211 -0.1787 -0.2406
 4463TIP3    H113353   0.234   2.289   5.340  0.1876  0.2181  0.1120
 4463TIP3    H213354   0.239   2.302   5.491  0.0857 -0.8712  0.2168
 4464TIP3   OH213355   6.403   2.591   3.886  0.0060  0.4356 -0.0421
 4464TIP3    H113356   6.317   2.601   3.928  0.4909  1.6526  0.7299
 4464TIP3    H213357   6.452   2.532   3.944  0.9861  2.8174  1.7383
 4465TIP3   OH213358   2.705   1.896   4.258 -0.3817  0.2598  0.2635
 4465TIP3    H113359   2.675   1.865   4.343 -2.3846 -2.1438 -1.1573
 4465TIP3    H213360   2.641   1.963   4.233  0.3236  1.1108  0.7152
 4466TIP3   OH213361   5.690   3.305   5.385 -0.3687 -0.2225 -0.2644
 4466TIP3    H113362   5.647   3.351   5.457 -0.3000 -1.8675  0.8959
 4466TIP3    H213363   5.635   3.227   5.371  0.1696 -0.4235 -1.3327
 4467TIP3   OH213364   5.928   5.783   0.763  0.6600 -0.0291  0.3599
 4467TIP3    H113365   5.934   5.851   0.830  1.7513 -0.1535  0.4117
 4467TIP3    H213366   6.019   5.757   0.748  0.3010 -1.0567 -0.0879
 4468TIP3   OH213367   2.351   1.316   4.696 -0.0845  0.2223  0.2230
 4468TIP3    H113368   2.293   1.358   4.759  0.6283  1.3625  0.1478
 4468TIP3    H213369   2.340   1.222   4.712  0.1540  0.4796  2.0919
 4469TIP3   OH213370   4.463   2.232   2.147 -0.1041  0.2204 -0.2539
 4469TIP3    H113371   4.400   2.159   2.152 -0.2219  0.3083 -0.4673
 4469TIP3    H213372   4.522   2.208   2.076  1.3181 -0.8180  1.1921
 4470TIP3   OH213373   3.937   3.821   5.700 -0.2280  0.6745  0.0663
 4470TIP3    H113374   3.924   3.849   5.609 -0.7322  2.2177  0.5798
 4470TIP3    H213375   3.851   3.790   5.728  0.3598 -1.6495 -0.5417
 4471TIP3   OH213376   3.684   1.219   5.108  0.2257 -0.1093 -0.3042
 4471TIP3    H113377   3.673   1.229   5.014 -1.9796 -1.3056 -0.2342
 4471TIP3    H213378   3.770   1.177   5.118 -0.2632 -1.6198 -1.9358
 4472TIP3   OH213379   4.655   1.598   0.936  0.3062 -0.0358 -0.3770
 4472TIP3    H113380   4.699   1.569   0.857 -0.7250  0.3523 -1.1099
 4472TIP3    H213381   4.720   1.586   1.005  1.2984 -0.1539 -1.3072
 4473TIP3   OH213382   3.133   4.256   5.595 -0.1460 -0.2797 -0.3270
 4473TIP3    H113383   3.140   4.350   5.612  0.2277 -0.3121 -0.3018
 4473TIP3    H213384   3.218   4.232   5.558  0.0876 -0.7851  0.5241
 4474TIP3   OH213385   1.370   5.171   4.163 -0.3612 -0.5521  0.7158
 4474TIP3    H113386   1.444   5.226   4.134  0.1489 -1.1453  0.8787
 4474TIP3    H213387   1.330   5.222   4.234 -0.6001  0.1363  0.1076
 4475TIP3   OH213388   0.603   5.307   1.984 -0.0230 -0.1375  0.2064
 4475TIP3    H113389   0.551   5.372   2.032  0.3095  0.7496 -0.6074
 4475TIP3    H213390   0.638   5.249   2.053  0.1386  0.8827  1.0052
 4476TIP3   OH213391   2.240   6.532   5.736 -0.2029  0.3758 -0.5986
 4476TIP3    H113392   2.276   6.616   5.765 -0.3630  0.4477 -0.6055
 4476TIP3    H213393   2.270   6.524   5.645  1.4054 -0.4709 -0.0297
 4477TIP3   OH213394   6.627   2.622   0.577 -0.5451  0.1674  0.6886
 4477TIP3    H113395   6.536   2.595   0.569 -0.2038 -0.9242  0.2996
 4477TIP3    H213396   6.637   2.647   0.669 -1.0311 -0.5076  0.9265
 4478TIP3   OH213397   3.617   5.115   3.581 -0.4398 -0.3006 -0.0524
 4478TIP3    H113398   3.655   5.198   3.553 -0.3557  0.6671  2.6953
 4478TIP3    H213399   3.532   5.138   3.618 -0.3761 -1.3992  0.8337
 4479TIP3   OH213400   0.755   4.030   4.181 -0.1376  0.3189  0.5642
 4479TIP3    H113401   0.813   3.962   4.148 -0.3473 -0.6256  2.0211
 4479TIP3    H213402   0.682   4.032   4.120 -0.0718 -0.6929  0.4415
 4480TIP3   OH213403   1.187   2.481   0.211 -0.8610 -0.8277 -0.2076
 4480TIP3    H113404   1.190   2.425   0.134 -0.6626  0.2089 -0.9793
 4480TIP3    H213405   1.139   2.559   0.183  0.7454  0.3557  0.1540
 4481TIP3   OH213406   5.014   0.515   3.468  0.2701 -1.2559 -0.6448
 4481TIP3    H113407   5.104   0.534   3.440  0.2012 -0.3962 -0.3066
 4481TIP3    H213408   4.964   0.593   3.445 -0.5595 -2.0211 -1.5173
 4482TIP3   OH213409   3.546   2.748   5.815 -0.2088 -0.0239 -0.0785
 4482TIP3    H113410   3.563   2.827   5.868 -1.0285  0.3756 -0.3807
 4482TIP3    H213411   3.468   2.771   5.764 -0.3650 -0.9865 -0.2807
 4483TIP3   OH213412   0.741   6.334   3.483 -0.0922 -0.1542 -0.3960
 4483TIP3    H113413   0.791   6.361   3.406 -0.9950  2.9880 -0.0154
 4483TIP3    H213414   0.758   6.240   3.491  1.7278 -0.1676 -3.1405
 4484TIP3   OH213415   4.177   4.442   2.716 -0.1879  0.4841  0.0061
 4484TIP3    H113416   4.223   4.400   2.643 -1.9808 -0.3014 -0.7279
 4484TIP3    H213417   4.091   4.464   2.680 -1.7749 -1.4896  2.3035
 4485TIP3   OH213418   2.721   4.002   5.544 -0.3141 -0.2863  0.3904
 4485TIP3    H113419   2.802   4.036   5.505  0.0598 -0.7089  0.7920
 4485TIP3    H213420   2.720   4.037   5.632 -0.2790 -0.7416  0.5753
 4486TIP3   OH213421   6.805   5.372   1.617  0.2955  0.3730  0.6738
 4486TIP3    H113422   6.890   5.416   1.606  0.4625 -0.3585 -1.3538
 4486TIP3    H213423   6.751   5.437   1.663  1.3451  1.6549  0.1807
 4487TIP3   OH213424   2.377   5.201   5.231 -0.6531  0.3543  0.0434
 4487TIP3    H113425   2.369   5.110   5.259  0.0828  0.1497 -0.3692
 4487TIP3    H213426   2.390   5.250   5.312 -1.7729  0.1972  0.3379
 4488TIP3   OH213427   3.491   2.356   0.197  0.2280  0.0603 -0.3835
 4488TIP3    H113428   3.414   2.408   0.176  0.4343  1.0713  1.2446
 4488TIP3    H213429   3.562   2.397   0.148  0.2367  0.8470  0.2679
 4489TIP3   OH213430   7.088   4.751   3.271 -0.1987 -0.1660 -0.0772
 4489TIP3    H113431   7.130   4.729   3.354 -0.2111  0.9821  0.2507
 4489TIP3    H213432   7.000   4.715   3.278 -0.2958  0.1752  0.5348
 4490TIP3   OH213433   0.609   4.472   2.410  0.2142  0.6441  0.1102
 4490TIP3    H113434   0.527   4.424   2.420 -0.9264  2.1937 -1.1356
 4490TIP3    H213435   0.624   4.473   2.316  1.2211  1.0912  0.2689
 4491TIP3   OH213436   3.872   5.411   0.719 -0.4122  0.2268 -0.0139
 4491TIP3    H113437   3.786   5.388   0.754  0.1475 -2.9620 -0.4149
 4491TIP3    H213438   3.914   5.461   0.788 -1.9059  0.2057  0.9564
 4492TIP3   OH213439   0.698   6.746   5.491  0.0667  0.3977  0.1855
 4492TIP3    H113440   0.640   6.781   5.560  1.0273 -0.2108  1.3405
 4492TIP3    H213441   0.746   6.822   5.459 -0.7420  0.7679 -0.1822
 4493TIP3   OH213442   3.665   3.054   4.098 -0.1751  0.3421  0.4808
 4493TIP3    H113443   3.625   2.989   4.155 -1.6014  1.0162  0.3079
 4493TIP3    H213444   3.723   3.104   4.155  0.1944 -0.4586  0.8149
 4494TIP3   OH213445   1.038   3.211   4.277  0.1209 -0.1961 -0.0543
 4494TIP3    H113446   0.951   3.171   4.284 -0.5238  1.1306 -0.0499
 4494TIP3    H213447   1.080   3.166   4.204  0.1168 -2.0451  1.0231
 4495TIP3   OH213448   6.808   5.849   0.716  0.5004 -0.0436  0.0032
 4495TIP3    H113449   6.801   5.935   0.675 -0.5024 -0.1274 -0.0353
 4495TIP3    H213450   6.814   5.788   0.643 -1.9415 -0.2484 -0.1022
 4496TIP3   OH213451   4.541   2.122   5.407  0.1825 -0.1803  0.0870
 4496TIP3    H113452   4.522   2.209   5.441  1.1084 -0.6476  1.9697
 4496TIP3    H213453   4.627   2.101   5.443 -0.1252 -1.9518 -0.1189
 4497TIP3   OH213454   3.718   1.542   4.403  0.5001 -0.5209  0.0021
 4497TIP3    H113455   3.772   1.539   4.324  1.4781 -0.0522  0.6299
 4497TIP3    H213456   3.665   1.621   4.394 -0.3956 -1.1912 -0.8021
 4498TIP3   OH213457   6.475   0.610   4.869 -0.0760  0.0673 -0.3387
 4498TIP3    H113458   6.380   0.613   4.880 -0.4952  1.6343 -3.1852
 4498TIP3    H213459   6.496   0.693   4.826  2.7345  0.0999  0.8882
 4499TIP3   OH213460   7.158   3.597   0.078 -0.1301 -0.3975 -0.1781
 4499TIP3    H113461   7.175   3.682   0.038 -2.2021 -0.3535 -1.1022
 4499TIP3    H213462   7.175   3.534   0.008 -0.4725 -0.5861 -0.0935
 4500TIP3   OH213463   5.104   6.062   1.120 -0.6002 -0.0131  0.1414
 4500TIP3    H113464   5.116   5.982   1.069  0.5860  0.1377  0.1395
 4500TIP3    H213465   5.190   6.078   1.160 -1.3886  0.0849  1.8762
 4501TIP3   OH213466   1.217   2.862   1.425  0.7735  0.3521  0.6162
 4501TIP3    H113467   1.253   2.842   1.512 -0.8975 -1.1651  1.0115
 4501TIP3    H213468   1.270   2.810   1.365  1.1589  0.4698  0.8469
 4502TIP3   OH213469   0.930   6.318   5.007  0.2208 -0.0897  0.4154
 4502TIP3    H113470   0.939   6.294   4.915 -2.4536  0.4385 -0.0747
 4502TIP3    H213471   0.978   6.400   5.015  4.2737 -2.2477  0.6712
 4503TIP3   OH213472   3.992   5.937   5.608  0.1413  0.0776 -0.3273
 4503TIP3    H113473   3.974   5.880   5.533 -1.2201 -1.1776  0.8809
 4503TIP3    H213474   3.959   6.023   5.582  1.0258  0.0250 -1.6887
 4504TIP3   OH213475   1.579   3.016   3.185  0.4640 -0.0258 -0.0876
 4504TIP3    H113476   1.593   2.997   3.092 -1.6392  0.3731 -0.5410
 4504TIP3    H213477   1.573   3.111   3.189  0.8284 -0.0248  0.5214
 4505TIP3   OH213478   5.855   3.007   0.127  0.2537  0.2978  0.4576
 4505TIP3    H113479   5.849   2.975   0.217  1.3445 -0.8663  0.1519
 4505TIP3    H213480   5.949   3.021   0.113  0.1986 -0.4855 -0.8032
 4506TIP3   OH213481   1.275   4.377   2.511 -0.6335 -0.1941  0.7052
 4506TIP3    H113482   1.192   4.331   2.494 -0.5396  0.0169 -0.4619
 4506TIP3    H213483   1.289   4.430   2.432  0.0611  0.6208  1.3588
 4507TIP3   OH213484   5.131   2.082   4.059 -0.1699  0.0622  0.0570
 4507TIP3    H113485   5.156   2.067   4.150  1.5415 -1.2777 -0.5906
 4507TIP3    H213486   5.186   2.154   4.030 -0.9859  0.7450  0.1640
 4508TIP3   OH213487   3.318   0.614   3.549 -0.2687  0.2734 -0.6181
 4508TIP3    H113488   3.298   0.707   3.557  0.3494  0.3718 -0.1250
 4508TIP3    H213489   3.348   0.588   3.636 -1.7206 -0.7132 -0.3851
 4509TIP3   OH213490   3.644   1.392   1.464 -0.0733 -0.0664  0.4264
 4509TIP3    H113491   3.549   1.379   1.464 -0.1786  0.6512  0.6497
 4509TIP3    H213492   3.659   1.460   1.531  0.3225  1.6674 -1.3205
 4510TIP3   OH213493   3.254   2.102   3.679 -0.4131  0.1971  0.8426
 4510TIP3    H113494   3.173   2.152   3.677 -0.8317 -0.4814  0.4468
 4510TIP3    H213495   3.273   2.082   3.587  0.6763  1.0808  0.8511
 4511TIP3   OH213496   2.454   3.456   0.665 -0.1190 -0.3100  0.8178
 4511TIP3    H113497   2.545   3.425   0.662  0.2097  0.6330 -2.0470
 4511TIP3    H213498   2.402   3.381   0.638  0.2190  0.1063 -1.1718
 4512TIP3   OH213499   5.905   2.299   0.445 -0.4493  0.6734  0.4705
 4512TIP3    H113500   5.931   2.373   0.391  1.5496  0.2653  0.7816
 4512TIP3    H213501   5.883   2.230   0.383  0.3642  0.6819  0.1614
 4513TIP3   OH213502   4.490   5.783   5.293 -0.4135 -0.3501 -0.2749
 4513TIP3    H113503   4.541   5.705   5.271  0.5369  0.7412 -2.2678
 4513TIP3    H213504   4.408   5.749   5.328  1.7024 -2.2006  3.5157
 4514TIP3   OH213505   0.606   4.448   1.128  0.5023 -0.5312 -0.1210
 4514TIP3    H113506   0.655   4.528   1.111 -0.7054  0.1244 -0.6746
 4514TIP3    H213507   0.617   4.432   1.222  1.6633 -0.3503 -0.2117
 4515TIP3   OH213508   3.707   4.923   1.090  0.8750 -0.3367 -0.2349
 4515TIP3    H113509   3.702   4.865   1.014  1.5157  1.1447 -1.4566
 4515TIP3    H213510   3.787   4.973   1.077  0.7106  0.3355  1.1485
 4516TIP3   OH213511   2.743   6.793   0.620  0.6851 -0.6260  0.5042
 4516TIP3    H113512   2.831   6.827   0.634  0.9384 -1.6183  1.5014
 4516TIP3    H213513   2.754   6.697   0.620 -0.1630 -0.7646 -1.0264
 4517TIP3   OH213514   4.943   3.403   4.951 -0.4117  0.0823 -0.4578
 4517TIP3    H113515   4.945   3.498   4.953  0.5015  0.0765 -0.9542
 4517TIP3    H213516   4.902   3.378   5.034  0.8469  0.8563  0.4177
 4518TIP3   OH213517   0.290   6.440   2.878  0.3424  0.1996  0.1505
 4518TIP3    H113518   0.242   6.369   2.922  0.7193  0.2893  0.7155
 4518TIP3    H213519   0.333   6.396   2.805 -1.0362  0.2167 -0.7159
 4519TIP3   OH213520   0.189   5.043   4.262 -0.2103 -0.8551  0.2072
 4519TIP3    H113521   0.105   5.079   4.232  1.1637  3.8225  1.1512
 4519TIP3    H213522   0.166   4.983   4.333 -2.7990 -0.1599  0.0409
 4520TIP3   OH213523   5.809   0.648   2.398 -0.3703  0.2297  0.0142
 4520TIP3    H113524   5.771   0.689   2.320  1.1952  0.3651 -0.7088
 4520TIP3    H213525   5.901   0.633   2.376  0.0769  0.1073  1.7701
 4521TIP3   OH213526   3.911   3.315   3.139 -0.3846 -0.4621 -0.1711
 4521TIP3    H113527   3.966   3.278   3.070 -0.0611 -0.4418  0.0711
 4521TIP3    H213528   3.942   3.272   3.219  0.7849  1.1471  0.2943
 4522TIP3   OH213529   5.705   6.409   0.090  0.2655  0.8513 -0.0529
 4522TIP3    H113530   5.726   6.447   0.175  0.4342  1.2189 -0.2576
 4522TIP3    H213531   5.769   6.338   0.079  0.5991  1.1600 -0.1181
 4523TIP3   OH213532   0.742   3.646   2.404  0.0306  0.0825 -0.3200
 4523TIP3    H113533   0.809   3.621   2.341 -1.4493 -1.9501 -1.1823
 4523TIP3    H213534   0.664   3.665   2.351 -0.0458  2.8145  0.6157
 4524TIP3   OH213535   6.475   5.777   5.805  0.1451 -0.4184 -0.2530
 4524TIP3    H113536   6.444   5.810   5.721 -0.6414 -2.8253 -0.9967
 4524TIP3    H213537   6.455   5.846   5.868 -0.6666  0.7880 -1.7905
 4525TIP3   OH213538   6.350   0.936   4.577  0.0108 -0.0890  0.0000
 4525TIP3    H113539   6.341   0.891   4.493  1.4782 -1.0437  0.3008
 4525TIP3    H213540   6.355   1.029   4.555 -0.4225 -0.2713 -0.8953
 4526TIP3   OH213541   4.714   6.052   5.018 -0.0906  0.4063  0.0819
 4526TIP3    H113542   4.782   6.120   5.022  1.0857 -0.7605  1.2343
 4526TIP3    H213543   4.741   5.988   5.084 -0.9942 -1.3304 -1.1566
 4527TIP3   OH213544   3.380   5.620   3.997  0.4401 -0.6576  0.1250
 4527TIP3    H113545   3.408   5.534   3.967 -2.2995 -1.2766 -0.9692
 4527TIP3    H213546   3.415   5.681   3.932 -1.4373 -1.4973 -1.7782
 4528TIP3   OH213547   0.040   1.002   5.182 -0.6367 -0.5663  0.8311
 4528TIP3    H113548   0.005   0.939   5.119  1.3456  0.0773 -1.0437
 4528TIP3    H213549   0.105   0.953   5.232 -1.2129 -0.7202  1.4477
 4529TIP3   OH213550   5.727   4.414   4.367 -0.2976 -0.3851 -0.8362
 4529TIP3    H113551   5.642   4.399   4.410 -0.7213  2.8891 -0.2389
 4529TIP3    H213552   5.707   4.478   4.298  1.6329  0.2488 -0.8516
 4530TIP3   OH213553   1.307   4.867   3.637 -0.1552  0.2837 -0.2700
 4530TIP3    H113554   1.224   4.915   3.631 -0.5894 -0.5871 -1.6464
 4530TIP3    H213555   1.373   4.930   3.610 -0.1663  1.3446  1.9242
 4531TIP3   OH213556   6.069   3.790   4.952  0.0035 -0.5812  0.3847
 4531TIP3    H113557   5.996   3.841   4.917  0.1992 -0.4069  0.2283
 4531TIP3    H213558   6.122   3.853   4.999  1.1075 -0.3061 -1.1525
 4532TIP3   OH213559   0.416   3.269   0.119  0.2355 -0.5634 -0.3108
 4532TIP3    H113560   0.323   3.280   0.141  0.6836  1.2741  0.8362
 4532TIP3    H213561   0.429   3.174   0.118 -1.1332 -0.8420  1.8334
 4533TIP3   OH213562   1.968   0.943   1.629 -0.0188 -0.2383  0.3273
 4533TIP3    H113563   2.055   0.939   1.669  0.1253 -0.0280  0.0371
 4533TIP3    H213564   1.930   1.024   1.665  0.0253 -0.1664  0.2121
 4534TIP3   OH213565   0.506   1.900   4.123  0.4396  0.5515  0.1018
 4534TIP3    H113566   0.478   1.948   4.202  1.7142 -1.5921  1.9832
 4534TIP3    H213567   0.442   1.829   4.115 -0.9245  1.9121 -2.1451
 4535TIP3   OH213568   6.875   5.954   3.709  0.0865  0.1789 -0.1719
 4535TIP3    H113569   6.887   5.994   3.794  1.9391  1.2741 -0.8988
 4535TIP3    H213570   6.825   5.874   3.727 -0.9899  1.2097  1.6995
 4536TIP3   OH213571   1.275   6.700   2.444 -0.3266  0.3966  0.0555
 4536TIP3    H113572   1.293   6.704   2.538  1.6982 -0.8831 -0.2308
 4536TIP3    H213573   1.208   6.632   2.436  0.3820 -0.3713  0.4804
 4537TIP3   OH213574   0.660   3.148   2.057  0.2653 -0.2522  0.0723
 4537TIP3    H113575   0.665   3.115   2.147  1.3981  1.2920  0.6203
 4537TIP3    H213576   0.749   3.140   2.024 -0.0499 -0.3702 -0.7657
 4538TIP3   OH213577   1.344   0.427   0.226 -0.2819  0.0382  0.1522
 4538TIP3    H113578   1.424   0.387   0.261  0.0376  0.5777  0.0507
 4538TIP3    H213579   1.280   0.417   0.296 -0.2103 -0.6591  0.1252
 4539TIP3   OH213580   3.124   4.501   4.159  0.0007  0.1770  0.1510
 4539TIP3    H113581   3.053   4.490   4.223  0.7045  0.1810  0.9522
 4539TIP3    H213582   3.096   4.450   4.083 -0.2735 -0.8987  0.9435
 4540TIP3   OH213583   5.815   3.659   5.491  0.4114 -0.1735 -0.4768
 4540TIP3    H113584   5.895   3.615   5.519 -0.3007 -0.8927  0.4827
 4540TIP3    H213585   5.744   3.605   5.526 -0.5222 -0.1936 -2.2579
 4541TIP3   OH213586   0.593   4.366   0.344 -0.2142  0.3126  0.6612
 4541TIP3    H113587   0.551   4.315   0.413 -0.4573 -0.5277 -0.0872
 4541TIP3    H213588   0.528   4.432   0.320 -1.1679 -0.9724 -0.4867
 4542TIP3   OH213589   7.143   6.701   2.512 -0.9416  0.5966 -0.0577
 4542TIP3    H113590   7.137   6.624   2.456 -0.9800 -0.0969  0.8842
 4542TIP3    H213591   7.183   6.669   2.593  2.2722  2.1995 -0.8178
 4543TIP3   OH213592   0.208   5.478   4.749 -0.1858  0.0375 -0.2481
 4543TIP3    H113593   0.291   5.442   4.781 -0.1190 -1.2858 -1.7840
 4543TIP3    H213594   0.230   5.565   4.718  0.4106  0.0888  0.3035
 4544TIP3   OH213595   4.375   4.721   3.130  0.3205 -0.4027 -0.2055
 4544TIP3    H113596   4.360   4.633   3.096 -0.3214 -0.3716 -0.0103
 4544TIP3    H213597   4.290   4.750   3.162  0.8950 -0.4299  1.4404
 4545TIP3   OH213598   3.215   5.909   3.850  0.1541  0.2909 -0.0410
 4545TIP3    H113599   3.248   5.977   3.908  0.2697  1.3543 -1.3020
 4545TIP3    H213600   3.277   5.837   3.859  0.0210  0.3239  1.3289
 4546TIP3   OH213601   3.854   0.024   1.554  0.1034  0.2188  0.1265
 4546TIP3    H113602   3.913   0.006   1.627 -0.3330  2.6890  1.1989
 4546TIP3    H213603   3.904   0.003   1.476  1.6882  0.3953  1.0649
 4547TIP3   OH213604   3.445   3.837   4.772 -0.8637 -0.2985  0.0177
 4547TIP3    H113605   3.540   3.839   4.787 -0.6221  0.0072 -1.4223
 4547TIP3    H213606   3.417   3.753   4.808 -0.2815  0.1735  1.6566
 4548TIP3   OH213607   1.242   4.122   1.590 -0.1279 -0.0881  0.4039
 4548TIP3    H113608   1.152   4.134   1.558 -0.2916  1.0127  1.2228
 4548TIP3    H213609   1.288   4.200   1.561 -0.0884  0.5771  2.1317
 4549TIP3   OH213610   0.537   2.278   3.542 -0.3296  0.0408  0.1783
 4549TIP3    H113611   0.524   2.305   3.632  1.6775 -1.4140  0.9764
 4549TIP3    H213612   0.591   2.199   3.548 -0.5589 -0.3862 -2.2799
 4550TIP3   OH213613   5.610   5.384   4.349 -0.4462  0.3902 -0.6842
 4550TIP3    H113614   5.556   5.318   4.307 -0.1976 -0.1581 -0.1547
 4550TIP3    H213615   5.699   5.366   4.317  0.0336 -1.0831  1.2869
 4551TIP3   OH213616   1.720   1.108   2.886  0.5153 -0.5282  0.2181
 4551TIP3    H113617   1.797   1.162   2.867  1.0140 -1.3137 -0.0407
 4551TIP3    H213618   1.678   1.095   2.801 -0.8085  1.1766  0.5396
 4552TIP3   OH213619   3.727   2.236   1.523  0.3204  0.4991 -0.9484
 4552TIP3    H113620   3.791   2.278   1.580 -0.2561  0.2472 -0.1017
 4552TIP3    H213621   3.645   2.239   1.572  0.3455 -2.0209 -0.6210
 4553TIP3   OH213622   1.024   1.400   5.525 -0.2513  0.4255  0.0335
 4553TIP3    H113623   0.946   1.426   5.574  1.1622  1.1060  2.0666
 4553TIP3    H213624   1.063   1.330   5.578  0.3664 -0.1457 -1.1317
 4554TIP3   OH213625   1.181   1.908   1.592  0.4653  0.4304  0.3898
 4554TIP3    H113626   1.243   1.941   1.527  0.9410  0.5093  0.8707
 4554TIP3    H213627   1.165   1.818   1.566 -2.9506  1.6706 -2.5345
 4555TIP3   OH213628   1.421  -0.008   1.401  0.5676 -0.0667 -0.5644
 4555TIP3    H113629   1.507   0.031   1.382  1.1627 -1.3496 -0.6267
 4555TIP3    H213630   1.388   0.042   1.475  2.2790 -0.7996  0.7740
 4556TIP3   OH213631   5.873   4.347   2.666  0.0199 -0.5551 -0.2272
 4556TIP3    H113632   5.941   4.407   2.636  0.9063 -1.8243 -0.8754
 4556TIP3    H213633   5.798   4.403   2.687  1.4273  0.9545  1.0575
 4557TIP3   OH213634   4.241   4.760   5.201 -0.1319  0.0339  0.7279
 4557TIP3    H113635   4.154   4.721   5.195 -0.5217  0.4470  2.9960
 4557TIP3    H213636   4.254   4.803   5.116 -1.8557 -0.5788  0.1209
 4558TIP3   OH213637   3.481   6.129   0.436  0.7569 -0.6414 -0.0902
 4558TIP3    H113638   3.506   6.095   0.351  0.7410 -1.2402  0.1426
 4558TIP3    H213639   3.473   6.052   0.492 -0.8550 -0.4148  0.0364
 4559TIP3   OH213640   4.164   0.501   5.335 -0.3824 -0.3597 -1.1812
 4559TIP3    H113641   4.184   0.464   5.249  2.4961  0.6961 -1.0560
 4559TIP3    H213642   4.083   0.551   5.320 -2.4236 -3.5990 -2.1475
 4560TIP3   OH213643   0.458   1.600   2.042  0.2166  0.3091  0.7123
 4560TIP3    H113644   0.534   1.550   2.011  0.1712  0.9216 -0.4236
 4560TIP3    H213645   0.494   1.686   2.065 -0.2716  0.9630 -0.8404
 4561TIP3   OH213646   2.665   4.898   3.885 -0.4064 -0.2200 -0.1503
 4561TIP3    H113647   2.662   4.809   3.920 -1.5674 -0.4084 -0.6688
 4561TIP3    H213648   2.594   4.944   3.930  1.9169  1.3203  2.2433
 4562TIP3   OH213649   5.042   6.712   4.845 -0.1415  0.4360 -0.3122
 4562TIP3    H113650   5.122   6.755   4.874 -0.6704 -0.7430  3.3832
 4562TIP3    H213651   5.067   6.668   4.764  2.5996  1.1514  0.0472
 4563TIP3   OH213652   2.030   3.167   5.552  0.2998 -0.3651  0.1473
 4563TIP3    H113653   2.085   3.094   5.579  0.5315 -0.8938 -1.6404
 4563TIP3    H213654   2.019   3.220   5.632 -0.2960 -2.5686  1.6105
 4564TIP3   OH213655   6.661   2.951   0.760 -0.1818  0.4260 -0.5684
 4564TIP3    H113656   6.676   2.859   0.782 -2.2378 -0.6948 -3.1572
 4564TIP3    H213657   6.584   2.976   0.811  0.5830  0.8517  0.3958
 4565TIP3   OH213658   3.313   0.457   2.252  0.1207 -0.6052  0.0268
 4565TIP3    H113659   3.225   0.435   2.281 -0.2000  0.4597 -0.1064
 4565TIP3    H213660   3.329   0.545   2.287  2.0171 -1.6319  2.0335
 4566TIP3   OH213661   3.112   3.683   0.092  0.3279  0.0088 -0.1631
 4566TIP3    H113662   3.094   3.749   0.024  1.7098  0.7848  0.1720
 4566TIP3    H213663   3.208   3.682   0.099  0.2341 -0.2827  1.5468
 4567TIP3   OH213664   2.833   3.473   2.747 -0.3430  0.2863  0.0398
 4567TIP3    H113665   2.757   3.428   2.784 -0.4562 -0.2050 -0.7702
 4567TIP3    H213666   2.908   3.437   2.795 -0.6677  1.3824  1.4323
 4568TIP3   OH213667   1.643   2.777   0.082  0.0358  0.6141 -0.1842
 4568TIP3    H113668   1.708   2.734   0.138 -0.5003 -0.6634 -0.5008
 4568TIP3    H213669   1.667   2.869   0.085  1.1430  0.3335  0.6562
 4569TIP3   OH213670   4.607   1.596   5.711  0.1831  0.2477  0.9454
 4569TIP3    H113671   4.520   1.561   5.729  0.2984 -0.4632  0.1601
 4569TIP3    H213672   4.664   1.519   5.712  1.2935  0.9310  4.0464
 4570TIP3   OH213673   0.038   1.160   2.541  0.6580  0.0107  0.5570
 4570TIP3    H113674  -0.014   1.115   2.608  0.9081  0.6761  1.2134
 4570TIP3    H213675   0.067   1.091   2.482 -1.6466 -0.2920 -0.3079
 4571TIP3   OH213676   0.116   3.454   2.759  0.6184 -0.4906 -0.1070
 4571TIP3    H113677   0.178   3.404   2.706 -0.0083 -0.8259 -0.5460
 4571TIP3    H213678   0.113   3.409   2.843 -0.8107 -1.9271 -0.8790
 4572TIP3   OH213679   3.139   4.196   4.580 -0.3181 -0.3416 -0.9793
 4572TIP3    H113680   3.224   4.216   4.542  1.3540 -2.2741  1.4601
 4572TIP3    H213681   3.129   4.101   4.568 -1.5609 -0.3463 -0.1512
 4573TIP3   OH213682   0.228   4.225   1.761 -0.6025  0.5835  0.5254
 4573TIP3    H113683   0.220   4.262   1.673  0.4013 -1.9307 -0.7257
 4573TIP3    H213684   0.285   4.149   1.750 -0.9887 -0.2084  3.2512
 4574TIP3   OH213685   3.241   0.267   5.738  0.2964  0.0956  0.0436
 4574TIP3    H113686   3.323   0.218   5.748 -0.9009 -1.8022  1.2488
 4574TIP3    H213687   3.254   0.346   5.791  0.6458 -1.1845  1.9610
 4575TIP3   OH213688   4.553   2.142   5.081  0.2885  0.0503 -0.3682
 4575TIP3    H113689   4.592   2.212   5.133  1.3099  0.0858 -1.1594
 4575TIP3    H213690   4.614   2.128   5.009 -0.9580 -0.1730 -1.4286
 4576TIP3   OH213691   2.693   2.801   0.430 -0.2160  0.2301 -0.6566
 4576TIP3    H113692   2.701   2.781   0.337 -0.9645 -0.2995 -0.6123
 4576TIP3    H213693   2.743   2.732   0.474  2.8331  2.2048 -0.7546
 4577TIP3   OH213694   4.438   5.814   1.271  0.3895  0.0774  0.1633
 4577TIP3    H113695   4.383   5.748   1.313 -0.3498  0.2352 -0.5309
 4577TIP3    H213696   4.426   5.893   1.325 -0.3303  0.1993 -0.1555
 4578TIP3   OH213697   1.852   3.959   5.751 -0.5112 -0.0400 -0.4365
 4578TIP3    H113698   1.875   3.940   5.661  1.2537  2.1128 -0.5244
 4578TIP3    H213699   1.870   4.052   5.761  0.0763 -0.3648  2.3424
 4579TIP3   OH213700   1.556   2.313   5.636 -0.0749 -0.3427  0.2146
 4579TIP3    H113701   1.559   2.380   5.704  1.2529 -1.8014  1.6581
 4579TIP3    H213702   1.465   2.283   5.636  0.2082 -1.3496  2.4379
 4580TIP3   OH213703   0.162   2.568   3.666 -0.2386 -0.3162 -0.0942
 4580TIP3    H113704   0.236   2.567   3.604  0.0224 -0.5365  0.2169
 4580TIP3    H213705   0.086   2.546   3.613 -0.0280 -0.4253 -0.3535
 4581TIP3   OH213706   5.220   5.614   0.649 -0.3040 -0.1874  0.0953
 4581TIP3    H113707   5.149   5.549   0.649 -0.6043  0.0899  1.6947
 4581TIP3    H213708   5.175   5.698   0.638 -0.2736  0.0083  1.3245
 4582TIP3   OH213709   3.212   1.333   0.751  0.4913  0.8818  0.2947
 4582TIP3    H113710   3.178   1.255   0.708  1.3327  0.5631  0.1988
 4582TIP3    H213711   3.150   1.402   0.727 -0.4063  0.2064  0.5929
 4583TIP3   OH213712   5.058   3.746   1.657  0.2331  0.3872  0.1415
 4583TIP3    H113713   5.101   3.684   1.598 -0.4727 -1.9363  1.9394
 4583TIP3    H213714   5.130   3.788   1.705  0.6749  0.2203 -0.3646
 4584TIP3   OH213715   1.125   2.120   3.967  0.0006 -0.4125 -0.6301
 4584TIP3    H113716   1.201   2.145   3.914  0.5252 -1.8229 -0.5934
 4584TIP3    H213717   1.154   2.130   4.057  0.3269 -1.3813 -0.6111
 4585TIP3   OH213718   0.888   1.866   3.701 -0.2830 -0.4178 -0.0628
 4585TIP3    H113719   0.880   1.930   3.771  0.6314  0.2611 -0.5596
 4585TIP3    H213720   0.970   1.888   3.657 -0.4861 -1.2665 -0.9081
 4586TIP3   OH213721   6.404   1.976   0.162  0.6584 -0.6099  0.3679
 4586TIP3    H113722   6.440   2.065   0.168  0.3960 -0.1925 -2.5690
 4586TIP3    H213723   6.372   1.970   0.072  0.2759 -3.5611  0.6190
 4587TIP3   OH213724   3.026   3.320   5.346 -0.3581  0.1627 -0.1418
 4587TIP3    H113725   3.036   3.276   5.261  0.4673  0.4715 -0.2054
 4587TIP3    H213726   2.966   3.263   5.395 -1.4088  0.3451 -1.1800
 4588TIP3   OH213727   4.773   0.434   2.390 -0.0235  0.0303  0.1544
 4588TIP3    H113728   4.695   0.413   2.338 -0.7909  0.5716  1.0474
 4588TIP3    H213729   4.791   0.353   2.439  0.4465 -0.3417 -0.6096
 4589TIP3   OH213730   0.295   3.161   4.832  0.4162 -0.0447 -0.1021
 4589TIP3    H113731   0.389   3.175   4.843  1.0820 -0.4688 -3.8778
 4589TIP3    H213732   0.288   3.092   4.766 -2.5989 -0.4258  0.4452
 4590TIP3   OH213733   5.792   1.806   3.249 -0.1661 -0.3904  0.2705
 4590TIP3    H113734   5.882   1.815   3.217 -0.0345  0.6131  0.8829
 4590TIP3    H213735   5.749   1.749   3.185  0.9320 -0.9770  0.0338
 4591TIP3   OH213736   3.175   5.437   0.812  0.1264  0.5841  0.7102
 4591TIP3    H113737   3.269   5.424   0.797  0.1442 -0.3408  1.4849
 4591TIP3    H213738   3.145   5.353   0.848 -1.2044  0.5124 -0.4468
 4592TIP3   OH213739   5.316   4.676   3.460 -0.0346 -0.0942 -0.6363
 4592TIP3    H113740   5.389   4.703   3.516  0.3317 -0.1556 -1.0802
 4592TIP3    H213741   5.348   4.688   3.371  0.9575 -3.9155 -0.9607
 4593TIP3   OH213742   0.016   1.159   4.774  0.5574 -0.7781  0.2813
 4593TIP3    H113743  -0.076   1.167   4.748  0.1740  0.3898  1.8723
 4593TIP3    H213744   0.063   1.147   4.691 -1.0139 -1.4765 -0.5552
 4594TIP3   OH213745   0.270   6.298   1.298 -0.4526  0.2346 -0.4216
 4594TIP3    H113746   0.280   6.206   1.322  0.3290  0.2754 -0.5466
 4594TIP3    H213747   0.176   6.312   1.293 -0.5962 -1.1776 -2.7665
 4595TIP3   OH213748   1.171   1.800   5.386  0.4097 -0.2149  0.4494
 4595TIP3    H113749   1.227   1.867   5.349 -0.2646  0.1299  0.0403
 4595TIP3    H213750   1.091   1.846   5.411  0.3997 -0.6487  1.2734
 4596TIP3   OH213751   5.831   0.776   1.159  0.5890 -0.3182 -0.2725
 4596TIP3    H113752   5.831   0.767   1.255  0.1502 -0.4146 -0.2790
 4596TIP3    H213753   5.779   0.855   1.142  2.5672  1.0421 -0.3289
 4597TIP3   OH213754   3.169   2.636   3.501 -0.0317 -0.5087  0.0555
 4597TIP3    H113755   3.157   2.723   3.462  0.9758 -0.1611  0.5057
 4597TIP3    H213756   3.254   2.607   3.470 -0.4374 -1.4259 -0.2355
 4598TIP3   OH213757   2.084   0.655   4.588  0.0964 -0.1965  0.3854
 4598TIP3    H113758   2.128   0.642   4.504  0.0031 -0.3848  0.3637
 4598TIP3    H213759   2.109   0.743   4.616 -0.4456  0.1432 -0.1829
 4599TIP3   OH213760   3.308   3.234   0.751 -0.2577 -0.0156  0.5298
 4599TIP3    H113761   3.254   3.291   0.805  0.3373  0.5471  0.5517
 4599TIP3    H213762   3.383   3.211   0.807  0.9620  1.5155 -0.3885
 4600TIP3   OH213763   5.870   1.186   1.845  0.3642  0.3939 -0.4160
 4600TIP3    H113764   5.883   1.102   1.802 -1.3165 -0.0445 -0.1700
 4600TIP3    H213765   5.822   1.164   1.925 -0.0009  1.5696 -0.2999
 4601TIP3   OH213766   0.082   3.130   5.527 -0.4286 -0.3840 -0.4285
 4601TIP3    H113767   0.164   3.082   5.530 -0.5684 -0.7397 -1.9329
 4601TIP3    H213768   0.015   3.063   5.516 -1.0591 -0.1872  1.7027
 4602TIP3   OH213769   4.912   6.201   4.773  0.4528 -0.1363 -0.0690
 4602TIP3    H113770   4.911   6.222   4.866 -0.3694 -0.3300 -0.0285
 4602TIP3    H213771   4.845   6.258   4.735  1.1392  0.3206 -0.6356
 4603TIP3   OH213772   4.164   2.048   0.156 -0.1976 -0.4630 -0.2090
 4603TIP3    H113773   4.210   2.086   0.081 -0.5952  0.5175  0.0310
 4603TIP3    H213774   4.203   1.961   0.166  1.6059  0.3037 -0.0423
 4604TIP3   OH213775   3.854   4.721   3.764 -0.0635  0.0674  0.2917
 4604TIP3    H113776   3.851   4.627   3.749  3.1959  0.0880 -1.2248
 4604TIP3    H213777   3.879   4.759   3.680 -2.6352  2.5469  0.4674
 4605TIP3   OH213778   3.200   4.925   2.543  0.5213 -0.0931 -0.0447
 4605TIP3    H113779   3.116   4.971   2.537  0.4965 -0.2902 -1.5898
 4605TIP3    H213780   3.214   4.913   2.637 -0.7860  0.6526  0.2716
 4606TIP3   OH213781   4.411   4.659   5.415  0.1813 -0.1948  0.0756
 4606TIP3    H113782   4.493   4.630   5.377  0.1136 -0.9086  0.4676
 4606TIP3    H213783   4.365   4.703   5.343 -0.6564 -2.9091 -1.1877
 4607TIP3   OH213784   3.227   5.238   2.325  0.0840 -0.7723  0.3475
 4607TIP3    H113785   3.134   5.253   2.310 -0.2121 -0.6231  2.0300
 4607TIP3    H213786   3.238   5.144   2.316 -0.7727 -1.1363  2.4631
 4608TIP3   OH213787   0.908   2.040   0.037 -0.4356 -0.0551  0.2862
 4608TIP3    H113788   0.841   2.077   0.095 -0.3800  0.1522  0.2207
 4608TIP3    H213789   0.938   2.115  -0.015 -0.0658 -0.1207  0.4008
 4609TIP3   OH213790   0.158   4.644   0.873 -0.5871 -0.3668  0.4132
 4609TIP3    H113791   0.115   4.561   0.857  0.7230 -0.8476 -0.7725
 4609TIP3    H213792   0.247   4.621   0.900 -0.7053  0.6254  1.7901
 4610TIP3   OH213793   1.451   0.300   2.863 -0.0400  0.6104  0.2947
 4610TIP3    H113794   1.376   0.293   2.803  1.4816  0.0005 -1.6210
 4610TIP3    H213795   1.497   0.379   2.834 -0.1797  1.2909  1.8117
 4611TIP3   OH213796   4.688   4.075   4.957 -0.0355 -0.3313 -0.3516
 4611TIP3    H113797   4.632   3.997   4.957 -3.0973  1.6913 -0.5743
 4611TIP3    H213798   4.703   4.094   5.049 -0.0600 -0.6750 -0.2765
 4612TIP3   OH213799   0.073   1.478   5.854  0.4856  0.3556 -0.3064
 4612TIP3    H113800   0.100   1.389   5.874 -1.2846 -0.5527 -1.6770
 4612TIP3    H213801   0.119   1.533   5.918  1.4932 -1.5344  0.6510
 4613TIP3   OH213802   0.600   4.428   0.743  0.5772  0.6942 -0.5889
 4613TIP3    H113803   0.684   4.472   0.748  0.1420  1.4497  0.8758
 4613TIP3    H213804   0.544   4.477   0.803 -0.8503  0.0856 -1.3732
 4614TIP3   OH213805   3.513   2.927   5.282  0.1504 -0.3439  0.1544
 4614TIP3    H113806   3.466   2.859   5.329 -0.9891 -1.3994 -2.3649
 4614TIP3    H213807   3.603   2.895   5.276 -0.2323 -1.3406 -0.4300
 4615TIP3   OH213808   2.126   3.413   2.138 -0.2496  0.2576  0.1533
 4615TIP3    H113809   2.130   3.492   2.084  0.0807 -0.5865 -1.1096
 4615TIP3    H213810   2.125   3.445   2.228  0.1978  1.6887 -0.3232
 4616TIP3   OH213811   6.144   2.324   0.635 -0.5977  0.2012 -0.1132
 4616TIP3    H113812   6.081   2.387   0.671 -0.8316 -0.1873  0.1701
 4616TIP3    H213813   6.102   2.291   0.555 -0.7427 -0.0309  0.0563
 4617TIP3   OH213814   0.215   1.656   3.790 -0.0456 -0.0211 -0.2106
 4617TIP3    H113815   0.185   1.733   3.839 -2.2813 -1.4238  0.7692
 4617TIP3    H213816   0.142   1.634   3.732 -0.4204 -2.6588  1.1167
 4618TIP3   OH213817   1.113   4.075   1.846 -0.1540  0.2738  0.0215
 4618TIP3    H113818   1.087   3.988   1.815 -0.3608  0.2687  0.2105
 4618TIP3    H213819   1.182   4.102   1.785  0.0216 -0.0890  0.0557
 4619TIP3   OH213820   0.280   4.250   0.032  0.2586  0.1315  0.3396
 4619TIP3    H113821   0.255   4.191   0.102  1.3850 -1.5728 -0.6458
 4619TIP3    H213822   0.361   4.291   0.062  1.2865 -1.3453 -0.3459
 4620TIP3   OH213823   6.202   2.909   3.982 -0.3993  0.6744 -0.3508
 4620TIP3    H113824   6.272   2.889   4.045  1.6765  0.5171 -2.5618
 4620TIP3    H213825   6.203   3.005   3.976 -0.0464  0.6518 -0.7026
 4621TIP3   OH213826   0.646   4.996   1.196 -0.1391  0.2627 -0.1482
 4621TIP3    H113827   0.667   5.046   1.117 -1.8550  1.1660 -0.0963
 4621TIP3    H213828   0.565   5.036   1.228 -0.2506 -1.0152  1.2724
 4622TIP3   OH213829   6.914   1.525   5.189 -0.0267 -0.4138 -0.1021
 4622TIP3    H113830   6.884   1.452   5.135 -0.1873  1.0783 -2.1799
 4622TIP3    H213831   7.008   1.531   5.170 -0.0211 -0.0717  0.0284
 4623TIP3   OH213832   0.789   4.632   1.312  0.0190 -0.0305  0.4126
 4623TIP3    H113833   0.757   4.721   1.331 -1.2954 -0.5754  0.8522
 4623TIP3    H213834   0.854   4.645   1.242 -0.8872  1.1729 -0.2510
 4624TIP3   OH213835   1.143   6.366   0.047  0.4541  0.2155 -0.7782
 4624TIP3    H113836   1.163   6.274   0.029  0.6700 -0.1239  0.9829
 4624TIP3    H213837   1.182   6.414  -0.026  1.4964 -0.9927 -1.0531
 4625TIP3   OH213838   4.867   5.953   0.624  0.4690  0.5409  0.0382
 4625TIP3    H113839   4.871   5.868   0.667  1.0152 -0.0102 -1.0602
 4625TIP3    H213840   4.819   6.009   0.685  1.6785 -0.0526  1.6066
 4626TIP3   OH213841   6.587   3.167   4.621 -0.1230  0.1157  0.4697
 4626TIP3    H113842   6.602   3.245   4.569  0.6072 -0.8650 -0.8500
 4626TIP3    H213843   6.499   3.138   4.596  0.2503 -0.3872 -0.2788
 4627TIP3   OH213844   1.896   3.349   1.768  0.5221 -0.0000 -0.1043
 4627TIP3    H113845   1.828   3.308   1.715  0.0943  1.0816 -0.4176
 4627TIP3    H213846   1.855   3.426   1.805  1.5906  0.7130 -0.3501
 4628TIP3   OH213847   5.239   0.159   3.263 -0.3160  0.1120  0.5437
 4628TIP3    H113848   5.282   0.212   3.330 -2.5873  0.0764  2.1362
 4628TIP3    H213849   5.295   0.081   3.254  0.9503  0.9344  1.0890
 4629TIP3   OH213850   3.757   1.276   3.873  0.3647  0.2172  0.3479
 4629TIP3    H113851   3.713   1.259   3.957 -1.3938  1.6993 -0.2125
 4629TIP3    H213852   3.842   1.312   3.898  0.6147 -1.0706  1.4764
 4630TIP3   OH213853   0.903   6.160   1.770 -0.9049 -0.3997 -0.4906
 4630TIP3    H113854   0.948   6.242   1.790 -2.2952  0.3836 -0.5074
 4630TIP3    H213855   0.817   6.186   1.737 -1.8373 -1.8778  0.6268
 4631TIP3   OH213856   2.912   0.042   5.886 -0.0083  0.0494  0.0660
 4631TIP3    H113857   2.881  -0.026   5.826 -2.3337  1.0823 -0.0253
 4631TIP3    H213858   2.986   0.002   5.932 -0.9185 -2.3278 -0.4060
 4632TIP3   OH213859   5.978   3.331   3.987 -0.1287  0.4768 -0.3447
 4632TIP3    H113860   5.921   3.306   3.914 -3.6930 -1.0381  2.6118
 4632TIP3    H213861   5.962   3.424   3.999 -1.2365  0.2890 -0.2244
 4633TIP3   OH213862   0.644   4.607   5.007 -0.1984 -0.7149 -0.0146
 4633TIP3    H113863   0.696   4.567   5.077  0.4664 -0.5827 -0.4257
 4633TIP3    H213864   0.709   4.646   4.948 -0.7638 -0.5591 -0.5435
 4634TIP3   OH213865   2.500   0.157   3.129  0.4719  0.2829  0.1397
 4634TIP3    H113866   2.552   0.097   3.075 -0.6703 -0.8776  0.2827
 4634TIP3    H213867   2.409   0.136   3.106  0.0023  0.5812  1.6662
 4635TIP3   OH213868   6.598   1.875   4.874  0.4768  0.4800  0.0386
 4635TIP3    H113869   6.650   1.955   4.883  1.0980  0.0252  0.5720
 4635TIP3    H213870   6.625   1.820   4.948 -0.0700 -0.1544 -0.2217
 4636TIP3   OH213871   2.999   1.904   3.504 -0.0522  0.0243 -0.1650
 4636TIP3    H113872   3.058   1.979   3.510  0.6214 -0.6058  1.5613
 4636TIP3    H213873   3.041   1.846   3.441  0.8114 -0.0913  0.5027
 4637TIP3   OH213874   3.488   4.516   2.478 -0.3419  0.1149 -0.0217
 4637TIP3    H113875   3.560   4.559   2.431  0.5632 -1.2016  0.1098
 4637TIP3    H213876   3.414   4.520   2.417 -0.8142  3.2719  0.6025
 4638TIP3   OH213877   6.854   1.605   3.046  0.4048 -0.3226 -0.3545
 4638TIP3    H113878   6.891   1.518   3.060  0.3737 -0.4107 -0.8316
 4638TIP3    H213879   6.815   1.601   2.959  0.7278  0.2808 -0.5326
 4639TIP3   OH213880   6.886   5.080   3.114  0.0799  0.7957  0.2901
 4639TIP3    H113881   6.976   5.098   3.139  0.4701 -0.9424  0.2380
 4639TIP3    H213882   6.890   4.996   3.069 -1.4791  0.9999 -0.2880
 4640TIP3   OH213883   1.842   5.204   5.185 -0.2831 -0.5841 -0.5551
 4640TIP3    H113884   1.781   5.134   5.207 -0.2114 -0.4263  0.1722
 4640TIP3    H213885   1.915   5.193   5.245 -0.2379  0.0705 -0.4769
 4641TIP3   OH213886   2.789   5.182   1.529 -0.1445  0.3038  0.2766
 4641TIP3    H113887   2.756   5.198   1.441  0.4379 -0.9624 -0.1998
 4641TIP3    H213888   2.845   5.105   1.520 -1.7470 -1.2077  2.1044
 4642TIP3   OH213889   3.535   1.131   3.845 -0.2303 -0.1401 -0.0219
 4642TIP3    H113890   3.577   1.212   3.816 -1.5135 -0.0183 -1.6444
 4642TIP3    H213891   3.600   1.063   3.829  0.1525  0.3214 -0.4543
 4643TIP3   OH213892   4.672   2.911   1.139 -0.3459 -0.3012 -0.4687
 4643TIP3    H113893   4.613   2.845   1.100 -1.3135 -0.9425  1.9169
 4643TIP3    H213894   4.692   2.877   1.226 -0.9111  2.5455  0.8967
 4644TIP3   OH213895   3.399   6.761   0.058 -0.2617  0.1408  0.2086
 4644TIP3    H113896   3.309   6.792   0.066  0.2189  1.8848 -0.8113
 4644TIP3    H213897   3.418   6.722   0.144 -1.3752  1.4529  1.0994
 4645TIP3   OH213898   0.165   5.453   0.091 -0.0932 -0.0534  0.0954
 4645TIP3    H113899   0.134   5.454   0.001  0.1339  1.8227  0.0073
 4645TIP3    H213900   0.222   5.376   0.096 -0.6253 -0.5573 -1.1648
 4646TIP3   OH213901   1.560   0.621   4.091 -0.5201  0.1963  0.2061
 4646TIP3    H113902   1.493   0.674   4.048 -1.5646 -1.9446 -0.9856
 4646TIP3    H213903   1.642   0.667   4.074 -1.2691  1.0038 -1.4727
 4647TIP3   OH213904   0.450   0.292   4.798 -0.1013 -0.0777 -0.3237
 4647TIP3    H113905   0.513   0.222   4.782  0.6054  0.0429  1.6723
 4647TIP3    H213906   0.481   0.365   4.744 -0.2330 -0.9386 -1.5972
 4648TIP3   OH213907   6.851   6.625   4.373  0.3604 -0.2891 -0.6090
 4648TIP3    H113908   6.863   6.701   4.315  1.7734  0.9585  1.2032
 4648TIP3    H213909   6.884   6.654   4.458  0.2422 -2.7205  0.3494
 4649TIP3   OH213910   0.790   3.552   3.275 -0.1557  0.2964  0.2962
 4649TIP3    H113911   0.830   3.480   3.323 -0.3655 -0.0284 -0.0037
 4649TIP3    H213912   0.748   3.509   3.200  1.5433  0.9513 -1.0947
 4650TIP3   OH213913   5.999   1.812   5.376 -0.1414  0.6032  0.0271
 4650TIP3    H113914   5.937   1.743   5.398  0.8779  0.0166  1.1863
 4650TIP3    H213915   6.075   1.766   5.341  0.1564  1.2117 -0.1382
 4651TIP3   OH213916   6.778   6.710   0.250 -0.4365 -0.3179 -0.1099
 4651TIP3    H113917   6.774   6.619   0.277 -1.8310  0.2378  1.7428
 4651TIP3    H213918   6.871   6.726   0.231 -0.0293 -1.8468  0.4753
 4652TIP3   OH213919   2.408   1.391   1.248  0.4491  0.2544  0.2684
 4652TIP3    H113920   2.363   1.372   1.330 -2.0740 -0.4201 -1.1643
 4652TIP3    H213921   2.414   1.486   1.245  2.2710  0.2507  2.0204
 4653TIP3   OH213922   5.873   1.386   5.148 -0.1762  0.4039  0.3761
 4653TIP3    H113923   5.821   1.364   5.070  0.2318  0.7943 -0.0172
 4653TIP3    H213924   5.864   1.310   5.205  1.1519 -0.7973 -0.9218
 4654TIP3   OH213925   7.057   5.487   0.400  0.2441  0.5775 -0.4129
 4654TIP3    H113926   7.144   5.448   0.409  0.5884  1.1317 -1.2330
 4654TIP3    H213927   7.051   5.513   0.308 -1.4690 -1.0120 -0.8129
 4655TIP3   OH213928   7.082   4.718   1.968 -0.1879 -0.4114  0.3026
 4655TIP3    H113929   7.108   4.642   2.020  1.8630  0.1308  0.1825
 4655TIP3    H213930   7.046   4.779   2.032 -1.3925 -1.2651  0.4674
 4656TIP3   OH213931   2.902   1.272   2.828  0.1714  0.4973  0.0012
 4656TIP3    H113932   2.809   1.251   2.835 -0.2178  0.8839 -2.8260
 4656TIP3    H213933   2.918   1.331   2.902 -2.1360  1.3271 -0.0567
 4657TIP3   OH213934   5.754   1.829   2.772  0.2966  0.0498 -0.2865
 4657TIP3    H113935   5.760   1.915   2.812 -0.8137  0.2003 -0.4151
 4657TIP3    H213936   5.687   1.838   2.705  0.1892 -0.9088 -0.3225
 4658TIP3   OH213937   4.474   2.070   0.905  0.1005 -0.0586  0.5334
 4658TIP3    H113938   4.501   1.991   0.858  2.4900  1.4130 -0.7822
 4658TIP3    H213939   4.458   2.041   0.995  1.0756 -2.0038  0.1216
 4659TIP3   OH213940   6.126   4.822   3.188  0.3966 -0.2172  0.3926
 4659TIP3    H113941   6.199   4.812   3.249 -0.4045  0.0506  1.4124
 4659TIP3    H213942   6.067   4.749   3.207  0.5451 -0.6426 -0.6745
 4660TIP3   OH213943   6.816   0.373   0.437  0.1893 -0.1337  0.3227
 4660TIP3    H113944   6.761   0.320   0.380  1.5163 -0.6962 -0.5011
 4660TIP3    H213945   6.875   0.309   0.479 -0.4681  0.3205  2.0089
 4661TIP3   OH213946   1.712   2.989   2.507  0.2446  0.3919 -0.1030
 4661TIP3    H113947   1.785   2.999   2.568 -1.2008 -0.2302  1.8170
 4661TIP3    H213948   1.753   2.978   2.422  2.4750 -1.5305  1.1102
 4662TIP3   OH213949   0.738   1.245   4.592  0.0109 -0.3308  0.5344
 4662TIP3    H113950   0.807   1.278   4.534 -1.3427 -0.7167 -1.3875
 4662TIP3    H213951   0.678   1.318   4.603 -0.8850 -0.8911 -0.4163
 4663TIP3   OH213952   1.885   5.450   1.787 -0.5538 -0.1692 -0.4964
 4663TIP3    H113953   1.888   5.355   1.781 -1.1347 -0.1954 -0.4483
 4663TIP3    H213954   1.879   5.480   1.697 -1.7594 -0.2437 -0.4542
 4664TIP3   OH213955   5.630   0.037   5.181  0.1799  0.1071 -0.6799
 4664TIP3    H113956   5.570  -0.035   5.164  0.6687 -0.4339 -0.2021
 4664TIP3    H213957   5.690   0.037   5.106  1.0225 -0.8920 -0.0383
 4665TIP3   OH213958   1.878   2.928   3.030 -0.2956  0.3874 -0.2785
 4665TIP3    H113959   1.857   2.971   3.113 -0.5175  0.6881 -0.4888
 4665TIP3    H213960   1.817   2.854   3.026  0.0933  0.0361  0.0877
 4666TIP3   OH213961   5.797   1.599   0.882 -0.9398 -0.2836 -0.0277
 4666TIP3    H113962   5.849   1.644   0.816 -0.7672 -0.8450 -0.2866
 4666TIP3    H213963   5.801   1.655   0.959 -1.1925  0.4111 -0.5065
 4667TIP3   OH213964   0.199   0.368   2.522  0.5322 -0.4472  0.7983
 4667TIP3    H113965   0.181   0.438   2.584  0.3489  1.5356 -1.3296
 4667TIP3    H213966   0.292   0.375   2.503  0.3986 -0.3509  0.1319
 4668TIP3   OH213967   6.272   1.540   2.455 -0.3765  0.2166  0.4045
 4668TIP3    H113968   6.330   1.465   2.445 -0.2031  0.3981  0.0346
 4668TIP3    H213969   6.331   1.615   2.465 -0.5272  0.5498 -1.0262
 4669TIP3   OH213970   1.236   2.437   4.320  0.0573  0.1604 -0.7155
 4669TIP3    H113971   1.180   2.367   4.354  0.2197 -0.6139 -1.9609
 4669TIP3    H213972   1.189   2.470   4.243  0.8781  0.0967 -1.2630
 4670TIP3   OH213973   0.163   4.324   0.842  0.1063  0.4759 -0.4443
 4670TIP3    H113974   0.100   4.278   0.897  2.8017  0.8365  3.3088
 4670TIP3    H213975   0.221   4.256   0.809  1.0675  0.6179  0.8807
 4671TIP3   OH213976   1.045   1.701   1.498  0.2747 -0.2811 -0.4370
 4671TIP3    H113977   0.994   1.630   1.537 -0.9017  0.6245 -0.2962
 4671TIP3    H213978   1.021   1.699   1.405 -1.0402  0.9627 -0.1493
 4672TIP3   OH213979   4.752   3.227   1.581  0.1347 -0.5508 -0.0027
 4672TIP3    H113980   4.690   3.239   1.510  0.9444 -2.8150 -1.2022
 4672TIP3    H213981   4.831   3.273   1.552  0.4761 -1.5036 -0.6066
 4673TIP3   OH213982   3.579   3.659   5.136  0.2464 -0.4902 -0.6034
 4673TIP3    H113983   3.669   3.673   5.167 -0.2712 -0.9784  1.2023
 4673TIP3    H213984   3.554   3.744   5.099  1.3405 -0.2744 -0.9085
 4674TIP3   OH213985   2.970   5.499  -0.002  0.0073  0.2081  0.3988
 4674TIP3    H113986   2.904   5.559   0.033  0.7662  0.0770  2.0980
 4674TIP3    H213987   2.921   5.418  -0.019 -0.9974  1.1949 -1.8050
 4675TIP3   OH213988   4.781   5.457   3.858 -0.4595  0.0103 -0.0667
 4675TIP3    H113989   4.776   5.446   3.953 -0.6393  1.4469  0.1106
 4675TIP3    H213990   4.785   5.368   3.824  2.8864 -0.5806  1.4339
 4676TIP3   OH213991   6.823   1.072   5.655 -0.3839  0.1226 -0.0306
 4676TIP3    H113992   6.890   1.125   5.611  1.3631 -0.1176  2.1500
 4676TIP3    H213993   6.777   1.134   5.711 -1.0988  0.0240 -0.4944
 4677TIP3   OH213994   2.697   2.914   3.132 -0.6189  0.4493  0.3806
 4677TIP3    H113995   2.676   2.867   3.051 -0.1052  0.5338  0.1928
 4677TIP3    H213996   2.751   2.853   3.182  0.5791  1.0609 -0.1410
 4678TIP3   OH213997   4.444   0.537   5.411  0.0777  0.3556 -0.3604
 4678TIP3    H113998   4.427   0.612   5.467 -0.8292  1.2784 -1.8116
 4678TIP3    H213999   4.357   0.513   5.377  0.3686 -1.2747 -0.0308
 4679TIP3   OH214000   0.675   5.913   4.310 -0.2851 -0.2750  0.2297
 4679TIP3    H114001   0.760   5.874   4.329 -0.8920 -1.7340  0.0879
 4679TIP3    H214002   0.632   5.851   4.251 -0.2102  1.9668 -2.4029
 4680TIP3   OH214003   4.000   6.434   1.828  0.1311  0.0358 -0.1429
 4680TIP3    H114004   3.930   6.498   1.837 -0.8099 -0.7615 -1.5111
 4680TIP3    H214005   3.958   6.349   1.844  1.5689 -0.2822  2.8117
 4681TIP3   OH214006   5.329   2.134   0.503 -0.0424 -0.4148 -0.2813
 4681TIP3    H114007   5.388   2.192   0.456  2.9372 -3.5559 -0.8188
 4681TIP3    H214008   5.323   2.056   0.448 -2.3955 -1.4138  1.2096
 4682TIP3   OH214009   2.611   1.988   1.062 -0.4934 -0.4110  0.3304
 4682TIP3    H114010   2.641   1.904   1.096 -1.1424 -0.0708  1.8444
 4682TIP3    H214011   2.688   2.045   1.070 -0.2403 -0.6884 -0.0921
 4683TIP3   OH214012   7.179   6.623   1.115 -0.2488  0.1234  0.2517
 4683TIP3    H114013   7.257   6.606   1.167  0.0893  2.1982  0.4789
 4683TIP3    H214014   7.108   6.582   1.165  0.6407 -1.7964  0.0309
 4684TIP3   OH214015   1.462   6.388   1.035  0.0731 -0.8425  0.0497
 4684TIP3    H114016   1.422   6.371   1.120 -0.8854 -0.5481 -0.3263
 4684TIP3    H214017   1.535   6.447   1.054 -0.6525 -0.0957  0.5738
 4685TIP3   OH214018   2.088   0.076   4.248 -0.6278 -0.4152  0.4187
 4685TIP3    H114019   2.047   0.156   4.281  0.6641  1.0073 -1.1951
 4685TIP3    H214020   2.070   0.078   4.154  2.7052  0.1398 -0.3519
 4686TIP3   OH214021   5.998   0.172   0.256 -0.5648  0.0369 -0.0783
 4686TIP3    H114022   5.924   0.118   0.227 -3.4924  2.7018  1.8163
 4686TIP3    H214023   5.985   0.257   0.213  1.2117  0.7365  0.6491
 4687TIP3   OH214024   5.303   2.689   4.796 -0.1529  0.2461  0.0517
 4687TIP3    H114025   5.373   2.628   4.818 -0.5821 -0.6774 -1.0088
 4687TIP3    H214026   5.274   2.661   4.709  0.1889  2.5089 -0.8476
 4688TIP3   OH214027   2.955   6.025   1.501 -0.5322 -0.4787  0.2020
 4688TIP3    H114028   2.948   6.119   1.485 -0.8290 -0.0898  2.3668
 4688TIP3    H214029   2.886   5.987   1.446 -0.2468  0.5148 -0.8929
 4689TIP3   OH214030   4.147   3.201   5.381 -0.3347  0.1755  0.4615
 4689TIP3    H114031   4.223   3.200   5.439 -0.4426  1.8222  0.6873
 4689TIP3    H214032   4.153   3.284   5.334 -0.6578 -0.7884 -1.3770
 4690TIP3   OH214033   6.976   6.328   4.371  0.4274  0.0511 -0.0703
 4690TIP3    H114034   6.985   6.390   4.298 -0.7170 -0.6225 -0.8363
 4690TIP3    H214035   6.957   6.245   4.328 -1.5664 -0.1115  1.0176
 4691TIP3   OH214036   0.337   4.982   1.120 -0.0755  0.1454 -0.3977
 4691TIP3    H114037   0.336   4.958   1.027  0.8775 -2.5480  0.1969
 4691TIP3    H214038   0.285   4.914   1.163 -0.1933  1.1443  1.1295
 4692TIP3   OH214039   0.066   6.729   3.625  0.5138 -0.1929  0.3719
 4692TIP3    H114040   0.112   6.756   3.546  0.4242 -0.8765  0.0846
 4692TIP3    H214041   0.056   6.810   3.676 -1.0599  0.6094 -1.1232
 4693TIP3   OH214042   6.588   5.820   4.264 -0.1736  0.1300 -0.4759
 4693TIP3    H114043   6.640   5.855   4.336 -1.2250 -0.4474  0.5954
 4693TIP3    H214044   6.532   5.894   4.237 -0.5490  0.0339  0.0351
 4694TIP3   OH214045   4.032   6.549   4.463  0.2205  0.0945 -0.4353
 4694TIP3    H114046   4.044   6.502   4.380  0.8860  0.4263 -0.5330
 4694TIP3    H214047   4.074   6.634   4.449 -0.1181  0.3520  0.0692
 4695TIP3   OH214048   5.344   1.105   0.006 -0.2699 -0.5278  1.1102
 4695TIP3    H114049   5.332   1.124   0.099  0.5647  0.6593  0.9964
 4695TIP3    H214050   5.257   1.080  -0.025 -0.6050 -0.7133  2.1486
 4696TIP3   OH214051   4.262   1.289   5.714 -0.2650  0.0766 -0.7589
 4696TIP3    H114052   4.214   1.339   5.648 -2.5641 -1.4799 -0.4066
 4696TIP3    H214053   4.304   1.355   5.768 -1.1165  1.5166 -1.7811
 4697TIP3   OH214054   1.186   3.232   3.185  0.0449 -0.6307  0.4655
 4697TIP3    H114055   1.130   3.205   3.112 -0.9752 -0.5903  1.2123
 4697TIP3    H214056   1.189   3.327   3.180 -0.7849 -0.5708  1.0146
 4698TIP3   OH214057   5.440   4.737   0.021  0.2358  0.4238  0.4012
 4698TIP3    H114058   5.510   4.703  -0.035  0.0946  1.0811 -0.1755
 4698TIP3    H214059   5.469   4.715   0.110  1.4571  1.1906  0.2190
 4699TIP3   OH214060   0.849   5.280   3.999  0.8829 -0.6864 -0.0725
 4699TIP3    H114061   0.890   5.365   4.016 -0.7116 -0.2419  2.0755
 4699TIP3    H214062   0.884   5.223   4.068  0.7712 -1.3400 -0.5499
 4700TIP3   OH214063   5.207   2.875   4.372 -0.0414  0.1080  0.0144
 4700TIP3    H114064   5.160   2.793   4.390 -3.9844  1.7499 -1.7994
 4700TIP3    H214065   5.224   2.912   4.458  0.9471 -2.0488  0.8312
 4701TIP3   OH214066   2.120   3.233   1.920 -0.1593 -0.4866  0.3006
 4701TIP3    H114067   2.046   3.260   1.867  0.1687  0.4703  0.3058
 4701TIP3    H214068   2.113   3.285   2.000  2.8323  3.0297 -1.3899
 4702TIP3   OH214069   0.359   3.399   5.290  0.7666 -0.0508 -0.0433
 4702TIP3    H114070   0.405   3.346   5.354  0.2181  0.4312  0.7810
 4702TIP3    H214071   0.312   3.336   5.234 -1.4257 -0.4598  2.0869
 4703TIP3   OH214072   0.625   0.882   1.073  0.3686 -0.2184  0.3439
 4703TIP3    H114073   0.533   0.864   1.053  0.7805 -0.2343 -1.8659
 4703TIP3    H214074   0.656   0.802   1.116 -0.5530 -0.3358  0.8282
 4704TIP3   OH214075   4.264   0.758   3.146 -0.2322  0.0898  0.1615
 4704TIP3    H114076   4.250   0.764   3.240  1.3215 -1.3957  0.5353
 4704TIP3    H214077   4.279   0.849   3.119  0.4841  0.4337  1.5788
 4705TIP3   OH214078   4.658   6.029   2.023  0.3248 -0.1369 -0.1179
 4705TIP3    H114079   4.696   6.115   2.042  0.0908 -0.4231  1.8480
 4705TIP3    H214080   4.637   6.032   1.930  0.5336  1.8535 -0.1446
 4706TIP3   OH214081   2.377   6.224   0.172 -0.2199 -0.2090  0.4753
 4706TIP3    H114082   2.340   6.271   0.098  1.3034  1.7433  0.8609
 4706TIP3    H214083   2.451   6.176   0.136 -0.9719 -1.2735  0.3193
 4707TIP3   OH214084   0.919   4.618   3.511 -0.8606  0.5052  0.0373
 4707TIP3    H114085   0.879   4.581   3.591  1.8203 -2.7447  0.1116
 4707TIP3    H214086   0.894   4.557   3.442 -1.2892  2.0459 -1.2239
 4708TIP3   OH214087   3.750   0.496   3.284 -0.7408  0.5613  0.3634
 4708TIP3    H114088   3.676   0.438   3.303  0.2307 -0.3950  1.3132
 4708TIP3    H214089   3.791   0.511   3.369  0.4752  0.6339 -0.2175
 4709TIP3   OH214090   1.431   5.646   5.739 -0.3524  0.2488  0.2109
 4709TIP3    H114091   1.472   5.649   5.653 -0.7961  0.2484 -0.0038
 4709TIP3    H214092   1.485   5.703   5.794 -0.0660  0.2441 -0.0646
 4710TIP3   OH214093   2.252   4.539   0.219 -0.2850 -0.2688 -0.3116
 4710TIP3    H114094   2.167   4.567   0.252  0.0921  0.6490 -0.0885
 4710TIP3    H214095   2.235   4.508   0.130 -0.8394 -0.0601 -0.2787
 4711TIP3   OH214096   5.543   5.430   3.356 -0.7024 -0.2278 -0.3072
 4711TIP3    H114097   5.622   5.402   3.310  0.2785  2.3543 -0.3495
 4711TIP3    H214098   5.495   5.482   3.292 -1.0830  0.4508  0.4983
 4712TIP3   OH214099   2.490   1.930   2.409 -0.0307  0.7204 -0.7240
 4712TIP3    H114100   2.553   1.883   2.354 -1.1562 -0.6179 -0.9262
 4712TIP3    H214101   2.411   1.933   2.356 -0.3000  1.9152 -0.2673
 4713TIP3   OH214102   2.863   3.560   3.327  0.1800 -0.3149  0.0808
 4713TIP3    H114103   2.800   3.625   3.358 -0.8056 -2.0744  1.9958
 4713TIP3    H214104   2.935   3.565   3.391  0.0390 -1.1642  0.3124
 4714TIP3   OH214105   4.541   0.388   2.780  0.4622 -0.0016 -0.8106
 4714TIP3    H114106   4.580   0.315   2.829  1.3796 -2.0888 -4.2289
 4714TIP3    H214107   4.617   0.437   2.748 -0.0941  1.1797 -0.3521
 4715TIP3   OH214108   0.093   2.136   3.021 -0.2977 -0.4476  0.3315
 4715TIP3    H114109   0.177   2.165   2.986 -0.1864 -2.6018 -1.4121
 4715TIP3    H214110   0.109   2.046   3.049 -2.4421 -1.6622 -1.9707
 4716TIP3   OH214111   4.320   1.673   4.899 -0.0143  0.0135  0.4392
 4716TIP3    H114112   4.237   1.626   4.889  1.1985 -1.9720 -1.2472
 4716TIP3    H214113   4.383   1.606   4.926  1.7638  0.6231 -1.8580
 4717TIP3   OH214114   2.403   1.305   2.529 -0.1399 -0.2944 -0.2580
 4717TIP3    H114115   2.385   1.223   2.575  0.2192  0.0620  0.5358
 4717TIP3    H214116   2.499   1.311   2.528 -0.1584  1.0530  1.4373
 4718TIP3   OH214117   3.307   2.257   1.185  0.0140 -0.2849 -0.3939
 4718TIP3    H114118   3.322   2.263   1.279 -1.4899 -0.7798 -0.0816
 4718TIP3    H214119   3.249   2.330   1.165 -1.7450 -1.6068 -0.4098
 4719TIP3   OH214120   0.972   2.706   2.557 -0.2025 -0.1571  0.4966
 4719TIP3    H114121   0.942   2.683   2.469 -0.2341  1.1223  0.1593
 4719TIP3    H214122   1.012   2.626   2.590  0.9838 -0.2959 -1.1762
 4720TIP3   OH214123   5.129   2.419   2.391 -0.2124  0.1398  0.0489
 4720TIP3    H114124   5.104   2.512   2.394  0.2740  0.2990 -0.6305
 4720TIP3    H214125   5.096   2.389   2.306  0.1269 -0.1625  0.0239
 4721TIP3   OH214126   4.006   4.429   1.343  0.4425  0.4816  0.0262
 4721TIP3    H114127   4.060   4.471   1.276 -0.9500  0.3891 -1.2273
 4721TIP3    H214128   4.024   4.335   1.332  1.8245  0.5724  1.2711
 4722TIP3   OH214129   2.711   3.049   0.192  0.4649 -0.3458 -0.1421
 4722TIP3    H114130   2.719   3.065   0.098  1.8716 -1.1215 -0.1716
 4722TIP3    H214131   2.800   3.033   0.222  0.0216 -0.2206  1.3133
 4723TIP3   OH214132   3.242   2.647   0.668 -0.0439 -0.5326 -0.2518
 4723TIP3    H114133   3.182   2.593   0.719  0.1424  0.7369  1.3831
 4723TIP3    H214134   3.196   2.731   0.657  1.1076  0.2048  0.3807
 4724TIP3   OH214135   3.156   6.396   5.540  0.6510 -0.6080 -0.1691
 4724TIP3    H114136   3.152   6.313   5.587  1.3879 -0.9810 -0.7419
 4724TIP3    H214137   3.239   6.435   5.566  0.2670  0.0135  0.1746
 4725TIP3   OH214138   3.931   1.688   2.247 -0.0667 -0.0206 -0.1429
 4725TIP3    H114139   3.999   1.755   2.242 -0.9836  1.0018  0.5797
 4725TIP3    H214140   3.862   1.721   2.189  0.1792 -1.2346 -1.1677
 4726TIP3   OH214141   0.378   0.491   4.051  0.1941 -0.2136  0.4285
 4726TIP3    H114142   0.406   0.575   4.087  0.2111  1.3239 -2.8237
 4726TIP3    H214143   0.424   0.484   3.968  0.4849 -3.6924  0.7196
 4727TIP3   OH214144   3.236   4.078   3.396 -0.7751 -0.0180  0.0526
 4727TIP3    H114145   3.246   3.983   3.404 -2.0534 -0.2459 -0.7360
 4727TIP3    H214146   3.190   4.104   3.475 -1.4711 -0.2436 -0.2718
 4728TIP3   OH214147   5.059   6.636   5.228 -0.0458  0.2139 -0.1284
 4728TIP3    H114148   5.145   6.607   5.256 -0.1159  0.6869  0.6010
 4728TIP3    H214149   5.070   6.729   5.206 -0.5999  0.5897  1.0816
 4729TIP3   OH214150   1.034   6.537   2.402 -0.1252  0.3136 -0.6102
 4729TIP3    H114151   0.996   6.522   2.315  2.0538 -2.6750 -1.1903
 4729TIP3    H214152   1.055   6.450   2.435  1.4711  1.4994  1.8308
 4730TIP3   OH214153   4.444   4.542   1.780  0.3123 -0.4062  0.8304
 4730TIP3    H114154   4.502   4.468   1.762 -0.5496 -0.6937 -1.0091
 4730TIP3    H214155   4.361   4.502   1.807 -0.1315 -0.1468 -0.0879
 4731TIP3   OH214156   6.299   5.965   0.191 -0.1281  0.2758  0.3500
 4731TIP3    H114157   6.324   6.051   0.226  0.1702  0.9087 -1.2808
 4731TIP3    H214158   6.320   5.971   0.097 -0.8294 -1.3135  0.0557
 4732TIP3   OH214159   4.152   6.703   5.362  0.3055 -0.2061 -0.2816
 4732TIP3    H114160   4.141   6.625   5.417  0.7702 -0.8708 -1.0994
 4732TIP3    H214161   4.183   6.771   5.423  0.3702 -0.7930  0.3580
 4733TIP3   OH214162   4.558   5.544   3.335 -0.3105 -0.4962 -0.2322
 4733TIP3    H114163   4.579   5.602   3.262  0.3636  1.1263  1.1877
 4733TIP3    H214164   4.642   5.530   3.379 -0.6023 -1.9365 -0.0662
 4734TIP3   OH214165   4.851   4.501   2.805  0.3790  0.4882 -0.4980
 4734TIP3    H114166   4.857   4.559   2.729  1.0547  1.1990  0.0871
 4734TIP3    H214167   4.913   4.537   2.868 -2.4388  1.9138  1.7267
 4735TIP3   OH214168   2.865   0.286   5.218  0.3367  0.1257  0.1439
 4735TIP3    H114169   2.866   0.196   5.249 -1.0285 -0.1729 -0.6124
 4735TIP3    H214170   2.954   0.301   5.185  0.7798 -0.6994  0.9211
 4736TIP3   OH214171   0.850   0.507   2.586 -0.0857  0.1646 -0.8842
 4736TIP3    H114172   0.929   0.546   2.549  1.1322 -0.2787  1.0937
 4736TIP3    H214173   0.882   0.449   2.655 -2.1417 -0.1412 -0.1112
 4737TIP3   OH214174   7.067   3.859   0.445  0.1793  0.4787 -0.4500
 4737TIP3    H114175   7.127   3.790   0.419  0.1297  0.0978  0.4284
 4737TIP3    H214176   7.102   3.938   0.403  1.2954  0.2699  0.0546
 4738TIP3   OH214177   5.166   6.702   1.081 -0.5310 -0.3351 -0.0507
 4738TIP3    H114178   5.189   6.612   1.060  2.4125  0.3702 -0.1993
 4738TIP3    H214179   5.122   6.735   1.002 -0.0111 -1.1033 -0.6670
 4739TIP3   OH214180   0.600   2.875   4.973  0.2516  0.1604 -0.2444
 4739TIP3    H114181   0.531   2.808   4.974 -0.2049  0.5056 -2.4929
 4739TIP3    H214182   0.561   2.951   5.017 -0.9932  0.4566 -1.7676
 4740TIP3   OH214183   6.371   1.048   2.570  0.4450 -0.5454  0.7665
 4740TIP3    H114184   6.352   1.018   2.659  0.2249 -2.8604 -0.0112
 4740TIP3    H214185   6.457   1.011   2.550  0.8268  0.5736  0.2466
 4741TIP3   OH214186   1.216   5.719   2.070  0.3542 -0.0176 -0.3789
 4741TIP3    H114187   1.129   5.744   2.041  0.3296  2.2900  1.3912
 4741TIP3    H214188   1.275   5.753   2.003  0.0109  0.5192 -0.4148
 4742TIP3   OH214189   5.653   2.263   4.280 -0.0934 -0.2094 -0.2424
 4742TIP3    H114190   5.607   2.202   4.223  0.8372 -2.1572  1.0002
 4742TIP3    H214191   5.591   2.335   4.293 -1.8519 -1.6086 -0.5018
 4743TIP3   OH214192   2.594   2.573   4.419  0.0572  0.5134  0.0241
 4743TIP3    H114193   2.602   2.522   4.500  0.5521 -2.0581 -1.5345
 4743TIP3    H214194   2.658   2.643   4.428  0.2521  0.1567  1.7579
 4744TIP3   OH214195   1.908   0.893   3.651 -0.0742 -0.2914 -0.3601
 4744TIP3    H114196   1.952   0.818   3.610 -1.3177 -0.9118 -0.6247
 4744TIP3    H214197   1.969   0.923   3.718  2.0054  0.6723 -2.4916
 4745TIP3   OH214198   6.852   0.903   4.821 -0.2538  0.5223  0.0614
 4745TIP3    H114199   6.874   0.992   4.794 -2.5671  1.0779 -0.1936
 4745TIP3    H214200   6.851   0.906   4.917 -1.1087  0.9905  0.0414
 4746TIP3   OH214201   5.290   2.067   2.604  0.4058 -0.3596  0.2189
 4746TIP3    H114202   5.211   2.022   2.634  1.0247 -0.6619  1.4550
 4746TIP3    H214203   5.259   2.151   2.572 -0.5491 -0.9354 -0.4026
 4747TIP3   OH214204   4.712   5.170   3.001  0.0237 -0.5799  0.6815
 4747TIP3    H114205   4.617   5.176   3.002 -0.0398 -1.4524  0.2240
 4747TIP3    H214206   4.739   5.234   2.934 -0.2364 -0.3148  0.8283
 4748TIP3   OH214207   0.258   1.606   3.215  0.1924 -0.4373 -0.1683
 4748TIP3    H114208   0.281   1.626   3.124 -0.8361 -0.6887 -0.5021
 4748TIP3    H214209   0.318   1.659   3.267 -0.3511  1.0596 -1.0059
 4749TIP3   OH214210   5.396   0.348   4.089 -0.5206  0.1262  0.5522
 4749TIP3    H114211   5.313   0.336   4.044 -0.9472 -0.1445  1.3944
 4749TIP3    H214212   5.375   0.403   4.164  0.2919  1.0958  0.1026
 4750TIP3   OH214213   1.488   4.473   4.524 -0.1296  0.3038 -0.0012
 4750TIP3    H114214   1.414   4.430   4.481  0.0859  0.4560 -0.5200
 4750TIP3    H214215   1.563   4.419   4.503 -0.5735 -2.1908  3.7325
 4751TIP3   OH214216   1.106   4.482   4.886  0.7958  0.3604  0.1592
 4751TIP3    H114217   1.079   4.479   4.794 -0.8411 -1.2334  0.6181
 4751TIP3    H214218   1.049   4.418   4.929  1.4505  1.1428  2.3091
 4752TIP3   OH214219   4.325   2.770   0.829  0.0923  0.2666  0.0727
 4752TIP3    H114220   4.266   2.834   0.788 -0.9242 -1.8951 -2.1265
 4752TIP3    H214221   4.368   2.727   0.755 -0.5356 -2.6970  1.2814
 4753TIP3   OH214222   6.997   2.192   2.713 -0.3436  0.1019 -0.2750
 4753TIP3    H114223   7.089   2.172   2.697 -0.2859  1.1376 -1.4309
 4753TIP3    H214224   6.950   2.137   2.650 -0.5133 -0.2903  0.1886
 4754TIP3   OH214225   3.028   2.388   0.183 -0.4868  0.1488  0.1032
 4754TIP3    H114226   2.957   2.444   0.153 -0.2146 -0.4944 -1.9150
 4754TIP3    H214227   2.998   2.299   0.165 -1.6687 -0.6618  4.8428
 4755TIP3   OH214228   1.357   2.424   3.783 -0.0003  0.6928  0.1913
 4755TIP3    H114229   1.265   2.397   3.778  0.5846 -1.4569 -0.0124
 4755TIP3    H214230   1.406   2.342   3.789  1.8581  1.8018  1.4615
 4756TIP3   OH214231   3.673   0.537   1.377  0.2597  0.5244 -0.0351
 4756TIP3    H114232   3.592   0.491   1.356  0.9476 -1.1489  0.7481
 4756TIP3    H214233   3.734   0.509   1.308  0.8036 -0.0879  0.6851
 4757TIP3   OH214234   3.935   1.786   2.773  0.2300  0.1277 -0.2793
 4757TIP3    H114235   3.845   1.763   2.753 -0.2498  0.8135  0.9912
 4757TIP3    H214236   3.951   1.867   2.725 -0.6774  1.3737  1.4402
 4758TIP3   OH214237   2.057   6.355   4.908 -0.1538  0.0581 -0.4140
 4758TIP3    H114238   2.101   6.342   4.824  0.3629 -2.3639  0.1502
 4758TIP3    H214239   2.118   6.407   4.959 -1.1043  2.8853 -1.9369
 4759TIP3   OH214240   1.268   4.721   4.860  0.1942 -0.2140  0.2464
 4759TIP3    H114241   1.218   4.641   4.878  1.2334 -0.8564  0.3683
 4759TIP3    H214242   1.357   4.690   4.843  0.6106  0.9204  0.2865
 4760TIP3   OH214243   1.142   3.149   0.602  0.7650 -0.2240  0.6805
 4760TIP3    H114244   1.121   3.222   0.544  2.3617  0.9568  1.5129
 4760TIP3    H214245   1.100   3.172   0.685  0.2078 -0.8987  0.5945
 4761TIP3   OH214246   3.886   1.696   4.903 -0.0631  0.2750  0.0070
 4761TIP3    H114247   3.869   1.775   4.955  2.1670 -0.6258  2.2921
 4761TIP3    H214248   3.828   1.630   4.940 -1.1451  0.4837 -1.2026
 4762TIP3   OH214249   2.016   1.065   1.315  0.0151 -0.2665  0.3962
 4762TIP3    H114250   1.934   1.088   1.358 -0.4512 -2.6753  0.9469
 4762TIP3    H214251   2.083   1.083   1.381 -0.1099  1.1333  0.1609
 4763TIP3   OH214252   1.104   1.887   2.322  0.4828  0.2336 -0.4353
 4763TIP3    H114253   1.086   1.963   2.377 -1.3026 -0.0114 -0.6390
 4763TIP3    H214254   1.149   1.826   2.380 -2.3124 -0.4664  1.1546
 4764TIP3   OH214255   3.572   3.948   3.301 -0.2595 -0.7043  0.8580
 4764TIP3    H114256   3.549   3.929   3.210 -1.8152 -0.9428  1.2692
 4764TIP3    H214257   3.499   3.913   3.352 -0.3994  1.1872  2.0663
 4765TIP3   OH214258   5.816   4.426   1.095 -0.0323  0.3850  0.1851
 4765TIP3    H114259   5.868   4.496   1.134  2.4806 -1.2705  0.0387
 4765TIP3    H214260   5.785   4.374   1.169  1.7690 -0.7321  0.2345
 4766TIP3   OH214261   6.243   2.504   2.743  0.1562 -0.8146  0.1655
 4766TIP3    H114262   6.270   2.533   2.656  0.5705 -0.2639  0.4688
 4766TIP3    H214263   6.154   2.538   2.753  0.8330  0.9251  0.7409
 4767TIP3   OH214264   7.176   2.137   2.274  0.3458  0.2314  0.3477
 4767TIP3    H114265   7.143   2.047   2.266  2.8202 -0.6532 -1.0758
 4767TIP3    H214266   7.232   2.135   2.351 -0.6087  0.9413  1.0801
 4768TIP3   OH214267   0.177   0.939   4.856  0.1124  0.0042 -0.8063
 4768TIP3    H114268   0.247   0.945   4.922 -1.0261 -0.9164  0.5439
 4768TIP3    H214269   0.143   1.028   4.850 -0.6697 -0.1345  0.9137
 4769TIP3   OH214270   6.744   4.594   5.453  0.4584 -0.6401  0.0584
 4769TIP3    H114271   6.718   4.532   5.521  0.7382 -0.8214  0.0017
 4769TIP3    H214272   6.840   4.592   5.455  0.5283  1.2167  1.3797
 4770TIP3   OH214273   4.882   2.363   3.167  0.3389 -0.2227  0.0365
 4770TIP3    H114274   4.963   2.352   3.216  1.0180 -2.3462 -1.4176
 4770TIP3    H214275   4.860   2.275   3.138 -0.3954  0.8043 -2.8364
 4771TIP3   OH214276   1.851   5.041   0.059 -0.0676  0.5021  0.4192
 4771TIP3    H114277   1.931   5.053   0.008  0.5288 -2.4269  0.4931
 4771TIP3    H214278   1.795   4.985   0.005 -1.0225  0.4501  1.4089
 4772TIP3   OH214279   3.531   6.711   5.164 -0.4006  0.8949  0.1572
 4772TIP3    H114280   3.616   6.755   5.162 -0.0774  0.3038  0.3660
 4772TIP3    H214281   3.480   6.761   5.228  0.1973  0.5660  0.9141
 4773TIP3   OH214282   6.707   1.587   2.033 -0.1734  0.3566  0.2638
 4773TIP3    H114283   6.624   1.608   2.075  0.7354  0.9883  1.8149
 4773TIP3    H214284   6.712   1.647   1.959 -2.3878 -1.6325 -1.6625
 4774TIP3   OH214285   2.512   0.540   5.219 -0.3825 -0.3188  0.0106
 4774TIP3    H114286   2.420   0.568   5.224 -0.2485  0.1939 -0.4397
 4774TIP3    H214287   2.554   0.602   5.160 -0.0940 -1.4828 -1.0634
 4775TIP3   OH214288   0.419   2.613   5.630 -0.0231  0.1673  0.8704
 4775TIP3    H114289   0.348   2.676   5.618 -2.0174 -1.8471  1.4768
 4775TIP3    H214290   0.481   2.635   5.560 -1.5526  1.5630 -0.1427
 4776TIP3   OH214291   2.519   2.583   4.858  0.0352 -0.3240 -0.3178
 4776TIP3    H114292   2.558   2.604   4.943  3.3017  0.6810 -1.8917
 4776TIP3    H214293   2.471   2.501   4.874 -0.2708  0.3147  2.6509
 4777TIP3   OH214294   4.453   6.538   2.812 -0.0931 -0.3935 -0.2598
 4777TIP3    H114295   4.488   6.455   2.845 -1.6777  0.0059  2.7011
 4777TIP3    H214296   4.399   6.512   2.737  1.0422 -1.7456 -0.6719
 4778TIP3   OH214297   2.217   2.604   0.044 -0.1831 -0.1894  0.0783
 4778TIP3    H114298   2.219   2.530   0.105 -0.7188 -1.0558 -0.9013
 4778TIP3    H214299   2.277   2.579  -0.026 -0.0991  0.4742 -0.0946
 4779TIP3   OH214300   4.248   2.693   5.812  0.2988 -0.0042 -0.0250
 4779TIP3    H114301   4.333   2.666   5.845  1.8187 -0.4572 -3.7557
 4779TIP3    H214302   4.261   2.702   5.718 -3.7700  0.0314 -0.7737
 4780TIP3   OH214303   4.345   5.323   5.250  0.3411  0.2430  0.0857
 4780TIP3    H114304   4.324   5.283   5.165 -0.3653 -1.4420  1.0014
 4780TIP3    H214305   4.430   5.364   5.236  1.3949 -2.0463 -0.8537
 4781TIP3   OH214306   5.276   1.200   2.572 -0.1804  0.4805  0.1186
 4781TIP3    H114307   5.267   1.139   2.645  1.0476 -1.0621 -0.9469
 4781TIP3    H214308   5.210   1.171   2.508 -0.4259  1.0486  0.1129
 4782TIP3   OH214309   4.896   4.963   3.893 -0.3450 -0.3252 -0.3301
 4782TIP3    H114310   4.935   5.043   3.927  0.1873 -1.3222  1.5079
 4782TIP3    H214311   4.805   4.986   3.875 -0.2979  0.5857  0.5468
 4783TIP3   OH214312   2.954   2.055   0.129  0.0069  0.1183 -0.2172
 4783TIP3    H114313   2.940   2.002   0.051 -0.1674 -0.2346  0.0500
 4783TIP3    H214314   3.049   2.054   0.142  0.1172  0.8455 -0.8783
 4784TIP3   OH214315   4.023   2.370   4.433 -0.4916  0.1742 -0.7159
 4784TIP3    H114316   4.032   2.309   4.360  0.6016  2.2359 -2.4394
 4784TIP3    H214317   3.955   2.431   4.405  0.8931  1.8113 -0.6987
 4785TIP3   OH214318   0.895   0.753   0.301  0.2968  0.3438  0.5772
 4785TIP3    H114319   0.905   0.730   0.208  0.0096 -2.7230  1.1880
 4785TIP3    H214320   0.985   0.760   0.333  0.4019  1.8552  0.0131
 4786TIP3   OH214321   2.624   0.671   1.550 -0.1438 -0.1138  0.1736
 4786TIP3    H114322   2.614   0.732   1.477 -0.9131  1.7289  1.7145
 4786TIP3    H214323   2.711   0.689   1.585  0.2930 -1.1131 -0.3682
 4787TIP3   OH214324   4.044   2.577   0.111 -0.2370 -0.2723  0.2286
 4787TIP3    H114325   3.999   2.661   0.119  1.1081  0.6464 -1.2771
 4787TIP3    H214326   4.135   2.600   0.096 -0.0520 -1.9493 -1.5806
 4788TIP3   OH214327   5.959   5.700   5.067 -0.0061 -0.2249 -0.3730
 4788TIP3    H114328   5.918   5.744   4.993 -2.5250 -0.1358  0.9274
 4788TIP3    H214329   6.045   5.674   5.036 -0.9258 -0.1428 -3.2951
 4789TIP3   OH214330   4.508   3.290   4.245  0.1293 -0.2372  0.1917
 4789TIP3    H114331   4.441   3.355   4.267 -0.1880 -0.5935  0.2837
 4789TIP3    H214332   4.571   3.338   4.192  0.2926  0.3402  0.8873
 4790TIP3   OH214333   4.792   0.020   3.826  0.4269  0.1733 -0.1783
 4790TIP3    H114334   4.842   0.100   3.835 -2.1594  1.9507 -0.5404
 4790TIP3    H214335   4.722   0.027   3.891 -1.9388  0.0055 -2.5044
 4791TIP3   OH214336   6.572   6.745   0.811  0.8300  0.5465  0.0343
 4791TIP3    H114337   6.632   6.736   0.736  0.5879  0.8983 -0.2034
 4791TIP3    H214338   6.560   6.839   0.821  0.4437  0.4824  0.1841
 4792TIP3   OH214339   4.792   2.614   4.092 -0.0115 -0.1826  0.8495
 4792TIP3    H114340   4.858   2.617   4.161 -0.6063  2.1210  1.4043
 4792TIP3    H214341   4.732   2.545   4.119  1.3878 -1.3677  1.0493
 4793TIP3   OH214342   0.609   3.568   5.267  0.0513  0.3769 -0.1271
 4793TIP3    H114343   0.551   3.497   5.295  0.6798  0.2102  0.7830
 4793TIP3    H214344   0.565   3.605   5.190 -0.1937 -1.1087 -0.7465
 4794TIP3   OH214345   4.645   1.000   0.900  0.1397  0.1693 -0.4334
 4794TIP3    H114346   4.659   0.907   0.914  0.5449  0.2794 -0.0807
 4794TIP3    H214347   4.695   1.020   0.820  1.3431  0.3867  0.3483
 4795TIP3   OH214348   5.033   1.534   5.176  0.0101 -0.1795  0.1077
 4795TIP3    H114349   4.980   1.458   5.202 -0.1102  0.1253  0.7723
 4795TIP3    H214350   4.971   1.591   5.131 -0.3450  0.3659  1.2472
 4796TIP3   OH214351   1.515   6.282   0.354  0.0055 -0.2184 -0.4160
 4796TIP3    H114352   1.439   6.323   0.313 -0.6523 -0.8476  0.1292
 4796TIP3    H214353   1.485   6.193   0.374  0.2296  0.1018  1.5636
 4797TIP3   OH214354   5.702   3.950   1.117 -0.2262  0.1110 -0.1670
 4797TIP3    H114355   5.778   3.948   1.060 -0.6497  0.3888 -0.7460
 4797TIP3    H214356   5.731   3.904   1.197  0.2702 -0.5522 -0.7114
 4798TIP3   OH214357   4.816   3.522   1.262 -0.4632 -0.0638 -0.1825
 4798TIP3    H114358   4.832   3.617   1.261 -1.3690  0.0906 -0.7751
 4798TIP3    H214359   4.786   3.505   1.351  1.7208 -0.1762  0.6089
 4799TIP3   OH214360   5.407   4.544   1.916 -0.1289 -0.1423  0.3734
 4799TIP3    H114361   5.348   4.595   1.971 -1.0022 -0.7517  0.0408
 4799TIP3    H214362   5.351   4.514   1.844  0.8679  0.2174 -0.5649
 4800TIP3   OH214363   4.603   2.961   5.181  0.4763  0.3209  0.1902
 4800TIP3    H114364   4.510   2.971   5.161  0.4251 -1.3008 -0.4961
 4800TIP3    H214365   4.609   2.976   5.276 -0.9906 -2.4084  0.8097
 4801TIP3   OH214366   3.813   1.400   0.491 -0.2137  0.0959  0.6468
 4801TIP3    H114367   3.808   1.382   0.397  0.8469  0.7447  0.4556
 4801TIP3    H214368   3.784   1.491   0.499 -0.6554 -0.0710  1.0053
 4802TIP3   OH214369   2.641   1.589   5.145 -0.2462 -0.0279  0.1438
 4802TIP3    H114370   2.687   1.671   5.129 -1.3424  0.6684  0.4200
 4802TIP3    H214371   2.658   1.569   5.237 -0.9519  0.5398  0.4066
 4803TIP3   OH214372   2.677   6.530   0.374  0.3020  0.0896  0.2321
 4803TIP3    H114373   2.687   6.549   0.467 -2.1310 -0.1735  0.5898
 4803TIP3    H214374   2.720   6.445   0.363 -0.1244 -0.2757  1.2811
 4804TIP3   OH214375   6.511   4.070   4.776  0.3061 -0.4862 -0.0387
 4804TIP3    H114376   6.570   3.994   4.780  0.0790 -0.6165  2.3089
 4804TIP3    H214377   6.428   4.034   4.745  1.0108 -0.5549 -2.0098
 4805TIP3   OH214378   1.672   6.451   2.249 -0.6105  0.5122 -0.0773
 4805TIP3    H114379   1.669   6.444   2.153  1.6687 -1.1783 -0.1230
 4805TIP3    H214380   1.724   6.530   2.265 -1.3747  1.0527 -0.1936
 4806TIP3   OH214381   6.833   0.453   2.586  0.0605  0.3511  0.5512
 4806TIP3    H114382   6.796   0.540   2.602 -0.1757  0.5711 -1.0364
 4806TIP3    H214383   6.927   0.466   2.586  0.1923  0.0251  3.2910
 4807TIP3   OH214384   0.074   5.183   2.709  0.1031  0.4024  0.3691
 4807TIP3    H114385   0.045   5.113   2.650  0.6752  0.1044  0.4310
 4807TIP3    H214386   0.130   5.238   2.654 -0.7242  1.0861  0.1951
 4808TIP3   OH214387   6.453   2.166   2.122  0.8153 -0.3591 -0.1710
 4808TIP3    H114388   6.451   2.124   2.037  1.3614  1.4516 -1.1297
 4808TIP3    H214389   6.464   2.259   2.103  0.7105  0.1283  1.8686
 4809TIP3   OH214390   3.428   4.616   3.537  0.4385  0.1395 -0.9347
 4809TIP3    H114391   3.355   4.633   3.596 -0.2603 -0.2759 -1.6681
 4809TIP3    H214392   3.389   4.613   3.450  0.8963 -2.5127 -1.1445
 4810TIP3   OH214393   6.660   4.630   3.639  0.1824 -1.0012 -0.6565
 4810TIP3    H114394   6.597   4.622   3.568 -0.4411 -2.3939  0.0150
 4810TIP3    H214395   6.702   4.544   3.644  2.0214 -0.1678 -0.9547
 4811TIP3   OH214396   2.539   3.346   1.081  0.4065 -0.3343 -0.2996
 4811TIP3    H114397   2.485   3.270   1.059  0.7309 -0.8321  0.5360
 4811TIP3    H214398   2.479   3.407   1.123 -0.1548  0.5034 -2.2168
 4812TIP3   OH214399   2.625   2.308   1.095 -0.1278  0.0814 -0.4632
 4812TIP3    H114400   2.700   2.249   1.096  0.8120  1.2353  0.2949
 4812TIP3    H214401   2.625   2.347   1.008  2.4543  2.7796  0.5401
 4813TIP3   OH214402   1.842   5.544   2.042  0.0476 -0.0139 -0.1794
 4813TIP3    H114403   1.922   5.507   2.079 -0.1282  0.1472  0.3721
 4813TIP3    H214404   1.855   5.539   1.948 -0.2521 -2.1290 -0.1612
 4814TIP3   OH214405   6.759   1.982   3.348 -0.0564 -0.1600  0.4222
 4814TIP3    H114406   6.743   2.072   3.321 -3.0032 -0.5230  0.6285
 4814TIP3    H214407   6.800   1.941   3.271 -1.1159  0.7384 -0.6656
 4815TIP3   OH214408   0.524   4.389   3.902 -0.1830 -0.4822 -0.6372
 4815TIP3    H114409   0.566   4.452   3.960 -0.8355  1.2158 -1.9184
 4815TIP3    H214410   0.433   4.387   3.931 -0.9914  1.8420 -2.6396
 4816TIP3   OH214411   1.317   5.686   4.501 -0.2619  0.2784  0.7125
 4816TIP3    H114412   1.375   5.677   4.425 -0.1980  1.9654  0.5161
 4816TIP3    H214413   1.281   5.599   4.514 -0.2784 -0.0593 -1.2663
 4817TIP3   OH214414   4.446   1.468   5.038  0.1243  0.3098  0.4461
 4817TIP3    H114415   4.506   1.493   5.109  0.7243  0.3877 -0.0793
 4817TIP3    H214416   4.369   1.434   5.083  0.8281 -0.4179  1.1247
 4818TIP3   OH214417   0.945   0.478   1.755  0.1836  0.3254 -0.7057
 4818TIP3    H114418   1.003   0.522   1.692 -1.2774  1.4102 -1.3537
 4818TIP3    H214419   0.918   0.398   1.710 -1.1767  1.2919 -1.6821
 4819TIP3   OH214420   1.486   4.616   4.241 -0.1443  0.4348 -0.3885
 4819TIP3    H114421   1.482   4.570   4.157 -2.1827 -0.9586  0.3768
 4819TIP3    H214422   1.579   4.618   4.264  0.2173 -1.4212 -1.5144
 4820TIP3   OH214423   3.712   6.439   2.631 -0.2625  0.4561 -0.1436
 4820TIP3    H114424   3.675   6.461   2.716  0.2107 -0.0867  0.2118
 4820TIP3    H214425   3.646   6.385   2.589  0.4459 -1.2401  0.8370
 4821TIP3   OH214426   2.444   2.949   1.946  0.1113 -0.4693  0.3674
 4821TIP3    H114427   2.431   3.023   2.005 -0.3761 -0.8142  0.7071
 4821TIP3    H214428   2.459   2.988   1.860 -0.2682  0.0189  0.5188
 4822TIP3   OH214429   2.239   0.476   0.314  0.1146 -0.2968 -0.3250
 4822TIP3    H114430   2.247   0.571   0.327  0.2260 -0.1045 -1.5953
 4822TIP3    H214431   2.152   0.454   0.347 -0.6015  0.5689 -1.5198
 4823TIP3   OH214432   0.914   0.275   1.969  0.1122 -0.5021  0.0896
 4823TIP3    H114433   0.879   0.295   1.882  0.7925  0.7677  0.0894
 4823TIP3    H214434   0.883   0.186   1.987 -1.2830 -0.2376 -0.8194
 4824TIP3   OH214435   1.400   4.823   1.331  0.2306  0.0406 -0.3748
 4824TIP3    H114436   1.343   4.750   1.356  0.9773  0.1361  1.8482
 4824TIP3    H214437   1.365   4.854   1.248 -1.1343 -1.7636 -0.5326
 4825TIP3   OH214438   6.021   5.548   0.391 -0.7409  0.5010  0.4269
 4825TIP3    H114439   5.989   5.619   0.448 -0.7597  2.6317 -2.0577
 4825TIP3    H214440   6.093   5.587   0.343  1.6049 -2.3187  1.3724
 4826TIP3   OH214441   5.434   2.221   2.175 -0.1375 -0.2844  0.3919
 4826TIP3    H114442   5.426   2.251   2.265 -0.2189 -0.2889  0.3868
 4826TIP3    H214443   5.501   2.153   2.178  0.8027  0.6203  0.2197
 4827TIP3   OH214444   1.349   6.068   0.310 -0.2666  0.1783 -0.0348
 4827TIP3    H114445   1.409   6.054   0.236 -0.2823 -1.0616  0.1673
 4827TIP3    H214446   1.346   5.983   0.355 -3.0670 -0.1884 -0.7098
 4828TIP3   OH214447   2.983   4.809   2.252 -0.3050 -0.3548  0.3280
 4828TIP3    H114448   2.954   4.725   2.289  0.4449 -0.8980 -0.2875
 4828TIP3    H214449   3.076   4.796   2.234 -0.1841  0.6168  0.2117
 4829TIP3   OH214450   4.406   1.398   5.383 -0.2224 -0.6289 -0.2946
 4829TIP3    H114451   4.374   1.475   5.430 -1.7502 -1.2302 -0.2825
 4829TIP3    H214452   4.500   1.399   5.396 -0.4403  0.0687  1.4758
 4830TIP3   OH214453   0.247   1.943   0.641 -0.0752  0.6072  0.4077
 4830TIP3    H114454   0.225   1.951   0.733  0.8177  0.7449  0.6166
 4830TIP3    H214455   0.238   1.849   0.622 -0.0816  0.5530  0.6837
 4831TIP3   OH214456   4.563   2.828   4.281  0.2090 -0.5242  1.0024
 4831TIP3    H114457   4.529   2.739   4.279 -2.3933  0.3968 -0.4583
 4831TIP3    H214458   4.491   2.882   4.249  2.6607  1.7943 -1.0791
 4832TIP3   OH214459   1.823   1.403   2.777  0.2981 -0.3656  0.3579
 4832TIP3    H114460   1.895   1.388   2.716 -0.0111  0.1564 -0.1437
 4832TIP3    H214461   1.854   1.366   2.860  0.3155 -2.0064 -0.3586
 4833TIP3   OH214462   6.362   0.436   0.123 -0.0517  0.1375  0.4830
 4833TIP3    H114463   6.298   0.507   0.114 -1.5195 -1.1227  0.5241
 4833TIP3    H214464   6.400   0.448   0.210 -0.6090  0.6218  0.6661
 4834TIP3   OH214465   2.365   6.327   1.055 -0.2814  0.0443 -0.3532
 4834TIP3    H114466   2.454   6.313   1.022 -0.3967  0.7752 -0.9841
 4834TIP3    H214467   2.311   6.333   0.977 -0.6218  1.4080 -0.0392
 4835TIP3   OH214468   3.059   3.968   2.242 -0.0050 -0.1565  0.2415
 4835TIP3    H114469   3.002   4.027   2.291 -0.1070 -1.7590  2.1732
 4835TIP3    H214470   2.998   3.909   2.197  0.1092 -0.5614  0.6175
 4836TIP3   OH214471   5.829   4.100   3.257 -0.4347  0.3129 -0.1646
 4836TIP3    H114472   5.780   4.053   3.325 -0.4964 -1.7056 -1.5122
 4836TIP3    H214473   5.800   4.060   3.175  1.7671  0.6356 -1.1621
 4837TIP3   OH214474   2.447   3.309   3.337  0.5014  0.3829  0.2275
 4837TIP3    H114475   2.489   3.229   3.306  1.5395  0.7265  0.7167
 4837TIP3    H214476   2.353   3.292   3.329  0.7292 -0.5350 -0.5335
 4838TIP3   OH214477   3.169   3.794   4.965  0.1662 -0.1284 -0.1128
 4838TIP3    H114478   3.125   3.879   4.972 -0.3231 -0.1869 -2.0160
 4838TIP3    H214479   3.165   3.772   4.872 -0.9657 -2.9154  0.4888
 4839TIP3   OH214480   1.545   5.759   3.220 -0.3873 -0.1653  0.3311
 4839TIP3    H114481   1.484   5.803   3.160 -0.8597 -2.0178 -0.6169
 4839TIP3    H214482   1.583   5.830   3.272 -0.5663  1.4294 -1.6133
 4840TIP3   OH214483   2.538   0.665   2.917  0.1021  0.3746  0.6614
 4840TIP3    H114484   2.552   0.596   2.982  0.2270  0.9876  1.3063
 4840TIP3    H214485   2.480   0.626   2.852 -3.6943  1.0506  3.3455
 4841TIP3   OH214486   5.855   4.793   4.573 -0.1127 -0.0542 -0.3341
 4841TIP3    H114487   5.869   4.855   4.501 -0.9354 -0.5107 -0.9189
 4841TIP3    H214488   5.781   4.739   4.543  2.0003 -2.8541 -0.9117
 4842TIP3   OH214489   1.774   3.626   5.008 -0.1526  0.4262 -0.2635
 4842TIP3    H114490   1.679   3.619   5.015 -0.2269  0.8118 -0.8464
 4842TIP3    H214491   1.790   3.649   4.917  0.4600  1.0183 -0.0175
 4843TIP3   OH214492   0.826   2.249   1.139  0.3026 -0.1164  0.0719
 4843TIP3    H114493   0.818   2.162   1.177  0.4938 -0.0712  0.2161
 4843TIP3    H214494   0.917   2.254   1.110  0.1550 -0.1625 -0.4177
 4844TIP3   OH214495   5.809   5.712   0.248  0.0091  0.2750 -0.5412
 4844TIP3    H114496   5.822   5.803   0.219 -0.3564  0.0883 -1.3063
 4844TIP3    H214497   5.849   5.709   0.335 -1.0494  1.4901  0.0130
 4845TIP3   OH214498   6.922   1.503   0.489 -0.1476  0.0765 -0.1146
 4845TIP3    H114499   6.974   1.581   0.469  1.0138 -0.8889 -1.0377
 4845TIP3    H214500   6.842   1.514   0.437 -0.7563  1.4136  1.0535
 4846TIP3   OH214501   3.102   6.636   5.689 -0.1744  0.1164 -0.2084
 4846TIP3    H114502   3.081   6.565   5.629 -0.9372  0.0119  0.1655
 4846TIP3    H214503   3.197   6.636   5.696 -0.1566 -0.6533 -0.4658
 4847TIP3   OH214504   6.295   0.972   2.276 -0.1400 -0.0585  0.6457
 4847TIP3    H114505   6.374   0.971   2.223 -1.0643  3.1074 -1.0591
 4847TIP3    H214506   6.234   0.915   2.229  0.2165 -0.2023  0.3495
 4848TIP3   OH214507   4.294   2.798   2.484 -0.0755 -0.1016  0.1476
 4848TIP3    H114508   4.287   2.805   2.579 -1.5742 -2.1468  0.2502
 4848TIP3    H214509   4.365   2.736   2.469 -0.4240 -0.4611 -0.0336
 4849TIP3   OH214510   7.021   0.112   2.225  0.1049  0.2706 -0.5271
 4849TIP3    H114511   7.034   0.054   2.300  0.3184  1.3078  0.2446
 4849TIP3    H214512   7.104   0.158   2.216  0.4953 -0.6503 -2.1278
 4850TIP3   OH214513   6.542   3.256   3.128 -0.1032  0.0436  0.8691
 4850TIP3    H114514   6.619   3.198   3.135  1.1306  1.2150 -1.6490
 4850TIP3    H214515   6.485   3.212   3.065  0.7223  1.3408 -0.8604
 4851TIP3   OH214516   0.111   2.825   2.793  0.3008  0.3706  0.0650
 4851TIP3    H114517   0.038   2.872   2.832 -0.8502 -0.4547 -1.0145
 4851TIP3    H214518   0.154   2.782   2.867  0.7417  2.1961  0.9313
 4852TIP3   OH214519   0.832   4.597   0.769  0.1356 -0.4557  0.2835
 4852TIP3    H114520   0.916   4.595   0.723  0.5135 -0.7254  0.9691
 4852TIP3    H214521   0.854   4.623   0.858 -0.3923 -1.3993  0.7095
 4853TIP3   OH214522   3.757   4.377   1.448 -0.1327  0.0286  0.3621
 4853TIP3    H114523   3.818   4.393   1.376  1.6168  0.3306  1.8602
 4853TIP3    H214524   3.769   4.284   1.470 -1.7231 -0.4525 -0.6304
 4854TIP3   OH214525   3.971   1.338   3.414 -0.1028 -0.0085 -0.3392
 4854TIP3    H114526   3.998   1.410   3.471 -0.0894 -0.3078  0.0348
 4854TIP3    H214527   3.912   1.285   3.467  1.2443 -1.2514 -0.0029
 4855TIP3   OH214528   6.720   4.393   0.262  0.5750  0.4473  0.3447
 4855TIP3    H114529   6.802   4.349   0.238  0.1511 -0.3653  0.3591
 4855TIP3    H214530   6.700   4.360   0.349  0.0946  0.4418  0.2333
 4856TIP3   OH214531   4.055   3.568   3.023  0.0166  0.1306  0.9219
 4856TIP3    H114532   4.022   3.656   3.037 -0.0569 -0.0649  2.0938
 4856TIP3    H214533   3.979   3.517   2.996  0.2948  0.6702 -0.9953
 4857TIP3   OH214534   4.666   4.990   2.459  0.3228 -0.1509 -0.2393
 4857TIP3    H114535   4.619   4.984   2.543  0.5484 -2.0334 -0.2175
 4857TIP3    H214536   4.702   4.903   2.445  1.4287  0.4991 -1.6640
 4858TIP3   OH214537   4.065   5.277   4.763  0.4426 -0.1247  0.0573
 4858TIP3    H114538   4.112   5.198   4.736  0.3975 -0.0487 -0.2393
 4858TIP3    H214539   4.011   5.300   4.687 -0.0750 -0.2147  0.3911
 4859TIP3   OH214540   5.895   1.602   2.337 -0.5474  0.6111  0.0596
 4859TIP3    H114541   5.803   1.615   2.362 -0.4122  1.0429  0.3515
 4859TIP3    H214542   5.934   1.558   2.413 -1.1133 -2.0848 -1.1096
 4860TIP3   OH214543   6.619   6.137   1.969 -0.9209 -0.4236 -0.0213
 4860TIP3    H114544   6.575   6.220   1.953 -1.8814 -1.2327 -2.0336
 4860TIP3    H214545   6.550   6.079   2.001 -0.4037 -0.6402  0.7299
 4861TIP3   OH214546   1.172   6.428   3.001  0.1908 -0.1596  0.2340
 4861TIP3    H114547   1.165   6.374   3.079  1.5184 -0.0044  0.4819
 4861TIP3    H214548   1.253   6.479   3.013 -0.3349  0.9213 -0.5808
 4862TIP3   OH214549   3.429   6.457   2.914  0.5768 -0.1642  0.1324
 4862TIP3    H114550   3.517   6.426   2.892  0.2220 -0.3838 -1.0374
 4862TIP3    H214551   3.421   6.540   2.866  0.3158  0.0983  0.6224
 4863TIP3   OH214552   2.826   5.312   0.759  0.3541  0.0664 -0.2656
 4863TIP3    H114553   2.895   5.257   0.724  0.7941 -0.1742  0.9077
 4863TIP3    H214554   2.745   5.277   0.723  0.5989 -1.5657  0.6855
 4864TIP3   OH214555   6.516   4.588   2.787  0.0194 -0.9009  0.1517
 4864TIP3    H114556   6.528   4.598   2.693 -0.6860 -0.7695  0.0705
 4864TIP3    H214557   6.422   4.597   2.801  0.2536  0.6314  1.0526
 4865TIP3   OH214558   3.420   1.283   2.189 -0.4569 -0.9267 -0.0622
 4865TIP3    H114559   3.477   1.294   2.113  0.2115 -1.0274  0.4081
 4865TIP3    H214560   3.361   1.212   2.165  1.3582 -2.7043  0.4013
 4866TIP3   OH214561   2.048   2.480   0.730  0.3984 -0.1350  0.2091
 4866TIP3    H114562   2.023   2.440   0.813  1.3804 -1.5809 -0.1508
 4866TIP3    H214563   2.006   2.424   0.664  0.9687  0.0097 -0.2868
 4867TIP3   OH214564   0.455   6.044   5.628 -0.3056  0.6738  0.1255
 4867TIP3    H114565   0.546   6.019   5.646  0.3739  2.6672 -0.3412
 4867TIP3    H214566   0.434   5.997   5.547  0.1838 -0.0469  0.3982
 4868TIP3   OH214567   1.199   5.836   3.279  0.2441  0.0591 -0.3039
 4868TIP3    H114568   1.255   5.857   3.205  0.3527 -1.9971 -0.8633
 4868TIP3    H214569   1.110   5.850   3.246  0.3234  0.1114 -0.4988
 4869TIP3   OH214570   2.693   2.769   2.210  0.0390  0.1298  0.2465
 4869TIP3    H114571   2.785   2.790   2.227 -0.4137  2.5187  0.0479
 4869TIP3    H214572   2.646   2.807   2.284 -0.9398  0.4281 -0.5156
 4870TIP3   OH214573   2.789   5.760   3.746  0.5177 -0.3636  0.2353
 4870TIP3    H114574   2.775   5.830   3.810 -0.1192  0.1973 -0.4964
 4870TIP3    H214575   2.750   5.682   3.786 -0.3179  0.0885  0.3307
 4871TIP3   OH214576   7.087   5.067   4.192  0.3758 -0.1736  0.3219
 4871TIP3    H114577   7.045   5.106   4.115 -1.5890  1.1567  1.9685
 4871TIP3    H214578   7.044   4.982   4.202 -0.9524  0.5503  1.1209
 4872TIP3   OH214579   7.164   3.764   5.415  0.2332  0.2725 -0.0171
 4872TIP3    H114580   7.224   3.805   5.353  1.7382 -0.4632  0.9146
 4872TIP3    H214581   7.206   3.774   5.500 -1.1181  0.0076  0.7127
 4873TIP3   OH214582   4.098   1.053   3.991  0.4495  0.1496  0.2931
 4873TIP3    H114583   4.123   1.021   3.904 -2.8544 -2.1278 -0.0116
 4873TIP3    H214584   4.098   1.148   3.982  1.5558  0.0322 -1.7240
 4874TIP3   OH214585   4.441   0.212   5.385 -0.5404 -0.0782  0.5975
 4874TIP3    H114586   4.409   0.207   5.295  0.9099  0.4968  0.0249
 4874TIP3    H214587   4.460   0.121   5.408 -1.0503 -0.2440  0.3827
 4875TIP3   OH214588   3.950   2.676   2.749  0.0695 -0.0164  0.0644
 4875TIP3    H114589   4.044   2.689   2.737  0.2024  0.6227  1.4942
 4875TIP3    H214590   3.942   2.643   2.839 -1.0312 -0.7324 -0.2799
 4876TIP3   OH214591   6.706   4.663   0.177  0.5607 -0.2131 -0.6297
 4876TIP3    H114592   6.712   4.584   0.231  0.0238 -0.9008 -1.5600
 4876TIP3    H214593   6.623   4.655   0.130  0.1802  1.2216 -0.2640
 4877TIP3   OH214594   0.102   5.119   0.865 -0.2496  0.4294 -0.2587
 4877TIP3    H114595   0.142   5.084   0.786  0.2443  0.6689 -0.1164
 4877TIP3    H214596   0.099   5.045   0.925  3.0037  1.0967  0.9258
 4878TIP3   OH214597   1.747   1.269   3.751  0.2190 -0.4575  0.2569
 4878TIP3    H114598   1.763   1.219   3.672  1.4861 -0.1818  0.3159
 4878TIP3    H214599   1.652   1.272   3.759  0.0768 -3.2909  0.5540
 4879TIP3   OH214600   2.654   0.831   3.437 -0.5619 -0.6477 -0.6294
 4879TIP3    H114601   2.724   0.801   3.379  0.1552  2.3261 -1.4417
 4879TIP3    H214602   2.581   0.849   3.379 -0.0255  1.8180 -0.6258
 4880TIP3   OH214603   3.349   0.476   0.116 -0.0771 -0.2062 -0.1845
 4880TIP3    H114604   3.370   0.401   0.173  1.6027  1.5685  1.6659
 4880TIP3    H214605   3.406   0.465   0.040  0.2974 -0.7114  0.1571
 4881TIP3   OH214606   2.902   5.595   1.909  0.8921  0.3134  0.3893
 4881TIP3    H114607   2.871   5.627   1.993  0.7195 -0.0527  0.4671
 4881TIP3    H214608   2.972   5.534   1.932  1.1890  0.5954  0.2449
 4882TIP3   OH214609   1.077   6.451   4.565  0.2213 -0.6173  0.0774
 4882TIP3    H114610   1.167   6.420   4.570 -0.0343 -1.3553  0.2167
 4882TIP3    H214611   1.043   6.445   4.654  0.2286  0.2837  0.1529
 4883TIP3   OH214612   4.878   4.116   0.583  0.5818  0.4071 -0.3419
 4883TIP3    H114613   4.918   4.198   0.553  0.7622 -0.1261 -1.6388
 4883TIP3    H214614   4.952   4.061   0.609  0.4041  1.0539  1.7164
 4884TIP3   OH214615   4.062   0.630   3.321 -0.2420  0.2006 -0.1373
 4884TIP3    H114616   4.039   0.537   3.317 -1.5929  0.4922  0.4058
 4884TIP3    H214617   4.056   0.659   3.230 -0.3941 -0.1198 -0.2340
 4885TIP3   OH214618   4.761   2.115   4.225  0.1507 -0.4059  0.2043
 4885TIP3    H114619   4.713   2.182   4.177  2.2780 -0.8849 -2.9051
 4885TIP3    H214620   4.814   2.163   4.289 -2.4691  0.2756  2.0379
 4886TIP3   OH214621   3.326   4.332   2.789  0.2802 -0.4580 -0.1213
 4886TIP3    H114622   3.406   4.385   2.791  0.0667 -0.1618  1.5850
 4886TIP3    H214623   3.335   4.273   2.864 -0.4998 -1.3508 -0.7104
 4887TIP3   OH214624   5.580   1.397   4.303  0.2563  0.4286  0.3977
 4887TIP3    H114625   5.574   1.484   4.263 -2.4828  0.6117  1.0290
 4887TIP3    H214626   5.511   1.347   4.261  0.8624 -1.0162  1.0803
 4888TIP3   OH214627   6.581   5.902   2.831  0.4135  0.5429  0.5718
 4888TIP3    H114628   6.589   5.820   2.879 -1.2236  0.6512  1.1019
 4888TIP3    H214629   6.650   5.898   2.764  1.5028 -0.4545  1.7062
 4889TIP3   OH214630   5.030   4.933   0.788  0.7299  0.0216 -0.2881
 4889TIP3    H114631   4.959   4.923   0.724  0.0701  1.6221  0.1388
 4889TIP3    H214632   4.993   4.899   0.869  0.8070 -0.0779 -0.2956
 4890TIP3   OH214633   2.539   1.525   2.877  0.5058 -0.1242 -0.2424
 4890TIP3    H114634   2.458   1.573   2.892  0.8880  0.6915 -0.7165
 4890TIP3    H214635   2.608   1.579   2.915  0.8011 -1.0096  0.5351
 4891TIP3   OH214636   6.444   2.587   1.859  0.2559  0.0353 -0.3879
 4891TIP3    H114637   6.435   2.529   1.935 -1.4938  2.3909  1.3427
 4891TIP3    H214638   6.486   2.532   1.792  0.3893 -2.6306  1.7056
 4892TIP3   OH214639   3.889   1.417   5.853 -0.3785  0.6316  0.1801
 4892TIP3    H114640   3.892   1.428   5.758  1.3514  0.7308  0.2206
 4892TIP3    H214641   3.875   1.505   5.887  0.6898  0.8684  0.0516
 4893TIP3   OH214642   0.597   6.370   2.899  0.0521  0.0452 -0.5513
 4893TIP3    H114643   0.608   6.307   2.828 -0.4676 -0.1203 -0.4869
 4893TIP3    H214644   0.581   6.317   2.977  0.6575  0.2250 -0.3020
 4894TIP3   OH214645   0.854   0.470   3.935  0.1905  0.4436  0.3670
 4894TIP3    H114646   0.946   0.456   3.961  0.2062 -1.1871 -0.4419
 4894TIP3    H214647   0.858   0.539   3.869  0.8953  0.1028  0.0409
 4895TIP3   OH214648   6.272   2.507   4.888  0.5632  0.0514  0.3442
 4895TIP3    H114649   6.243   2.595   4.863  1.0646 -0.0080 -0.4981
 4895TIP3    H214650   6.367   2.516   4.896  0.9740 -1.0045 -2.4154
 4896TIP3   OH214651   7.028   0.727   3.459 -0.8521  0.5493 -0.0035
 4896TIP3    H114652   7.062   0.704   3.373 -0.3700  0.4057  0.2241
 4896TIP3    H214653   7.032   0.823   3.461  1.5059  0.4951  0.7868
 4897TIP3   OH214654   1.356   2.623   2.674  0.5760 -0.2737  0.4705
 4897TIP3    H114655   1.306   2.548   2.644  0.5551 -0.4838  1.0060
 4897TIP3    H214656   1.445   2.607   2.642  1.0802 -1.6207  2.3229
 4898TIP3   OH214657   6.130   0.239   3.451  0.6302 -0.0174 -0.0641
 4898TIP3    H114658   6.093   0.156   3.482  1.4150 -0.5142 -0.4002
 4898TIP3    H214659   6.163   0.282   3.530  0.7900 -0.3312  0.0436
 4899TIP3   OH214660   1.534   5.764   2.842  0.4610  0.4829 -0.3944
 4899TIP3    H114661   1.563   5.717   2.764 -0.0463 -0.9644  0.2384
 4899TIP3    H214662   1.438   5.757   2.839  0.4573 -0.2580  0.7151
 4900TIP3   OH214663   3.244   3.944   3.104 -0.1253 -0.1133  0.0359
 4900TIP3    H114664   3.179   3.899   3.158 -0.0332 -0.4773 -0.1530
 4900TIP3    H214665   3.314   3.880   3.094 -0.2012 -0.0949 -0.6207
 4901TIP3   OH214666   4.643   5.077   3.904 -0.1922 -0.5299 -0.6138
 4901TIP3    H114667   4.595   5.039   3.830 -1.6452  1.1746 -0.6250
 4901TIP3    H214668   4.589   5.058   3.980 -0.8047  1.1277 -0.5798
 4902TIP3   OH214669   0.364   6.091   2.450  0.3067 -0.2181  0.3955
 4902TIP3    H114670   0.329   6.021   2.394  0.0933  0.1180  0.0994
 4902TIP3    H214671   0.458   6.091   2.433  0.1296  0.5652 -0.7881
 4903TIP3   OH214672   3.722   4.563   3.155 -0.1174  0.0132 -0.4818
 4903TIP3    H114673   3.784   4.633   3.134 -1.5028  1.5993  0.3803
 4903TIP3    H214674   3.672   4.598   3.230 -1.2382 -1.6776 -0.3960
 4904TIP3   OH214675   2.994   0.732   0.942 -0.3769  0.0824 -0.5970
 4904TIP3    H114676   2.937   0.672   0.893 -0.6369  0.9724 -1.4215
 4904TIP3    H214677   3.069   0.746   0.885 -0.2818  0.4668 -0.3843
 4905TIP3   OH214678   3.522   3.858   3.563  0.4917 -0.3942 -0.3419
 4905TIP3    H114679   3.591   3.924   3.572 -0.1106  0.4776 -1.8050
 4905TIP3    H214680   3.471   3.867   3.644  1.2432 -0.0612  0.1116
 4906TIP3   OH214681   1.115   3.150   4.533  0.3403 -0.1987  0.0339
 4906TIP3    H114682   1.075   3.202   4.463  2.9940  2.1281  0.0742
 4906TIP3    H214683   1.149   3.072   4.489 -1.4649 -0.7175 -0.5050
 4907TIP3   OH214684   1.725   5.989   2.946 -0.1921  0.1967  0.4356
 4907TIP3    H114685   1.788   5.919   2.931  0.6613  0.9252  0.5047
 4907TIP3    H214686   1.661   5.952   3.006 -0.1756 -0.7549 -0.1119
 4908TIP3   OH214687   0.928   3.514   2.935  0.2827  0.0663  0.2163
 4908TIP3    H114688   0.874   3.537   2.860  0.1699  0.9810  0.5619
 4908TIP3    H214689   0.866   3.478   2.999  0.4115 -0.9243 -0.2006
 4909TIP3   OH214690   0.878   0.952   4.480 -0.0727 -0.5910 -0.0168
 4909TIP3    H114691   0.925   1.034   4.466  0.5796 -0.3828  2.8443
 4909TIP3    H214692   0.918   0.890   4.419  1.4160  0.5078 -0.2034
 4910TIP3   OH214693   4.196   0.893   2.921  0.2897  0.0388 -0.1629
 4910TIP3    H114694   4.175   0.959   2.855  2.0611 -0.1524 -1.0003
 4910TIP3    H214695   4.277   0.852   2.888  0.4104 -1.0697  1.4089
 4911TIP3   OH214696   1.347   0.887   5.222  0.1966  0.1391  0.2150
 4911TIP3    H114697   1.397   0.831   5.162  2.1468  0.9180  1.0170
 4911TIP3    H214698   1.402   0.964   5.234 -1.4848  1.3094  0.7576
 4912TIP3   OH214699   3.622   5.112   4.487 -0.0341 -0.5729  0.0422
 4912TIP3    H114700   3.550   5.164   4.451  0.1802  0.2637  0.7868
 4912TIP3    H214701   3.650   5.056   4.414  0.6146  1.3201 -1.2434
 4913TIP3   OH214702   0.325   6.292   5.737  0.3774  0.5817 -0.0837
 4913TIP3    H114703   0.230   6.285   5.723  0.6488  1.2605 -2.8311
 4913TIP3    H214704   0.361   6.215   5.694  1.1132  0.1066  1.3094
 4914TIP3   OH214705   6.792   0.453   5.422 -0.3036  0.3926 -0.6748
 4914TIP3    H114706   6.757   0.414   5.503 -0.7508 -0.1595 -1.1280
 4914TIP3    H214707   6.730   0.523   5.401 -0.5459  0.1127 -0.8932
 4915TIP3   OH214708   6.183   3.635   1.171  0.3813  0.2003 -0.2331
 4915TIP3    H114709   6.268   3.595   1.154  0.7492  0.0809  1.6324
 4915TIP3    H214710   6.120   3.564   1.156  0.6474  0.1512 -1.1398
 4916TIP3   OH214711   3.840   2.853   1.592  0.0092  0.3233  0.3191
 4916TIP3    H114712   3.905   2.805   1.643 -0.8439 -2.6143 -1.1479
 4916TIP3    H214713   3.888   2.881   1.514  0.0424  0.1035  0.2603
 4917TIP3   OH214714   6.564   4.880   1.777 -0.1738 -0.1880 -0.6152
 4917TIP3    H114715   6.546   4.924   1.695  0.1252  0.4837 -0.3249
 4917TIP3    H214716   6.556   4.787   1.756 -1.1899 -0.0020 -1.1380
 4918TIP3   OH214717   5.683   2.889   0.770  0.0719  0.0052  0.0922
 4918TIP3    H114718   5.699   2.979   0.800 -2.4958 -0.3395  3.0486
 4918TIP3    H214719   5.632   2.900   0.690 -2.1046  1.3813  1.5340
 4919TIP3   OH214720   0.818   5.429   1.309  0.2305 -0.0237 -0.1629
 4919TIP3    H114721   0.903   5.411   1.350 -0.1349  0.6999  0.9774
 4919TIP3    H214722   0.840   5.462   1.222  1.0957 -0.4409 -0.1143
 4920TIP3   OH214723   6.564   0.850   5.646 -0.4911 -0.1272  1.1032
 4920TIP3    H114724   6.609   0.831   5.564 -0.2531 -2.0825  1.6253
 4920TIP3    H214725   6.547   0.944   5.644 -0.7050 -0.1654 -1.2726
 4921TIP3   OH214726   6.424   3.456   4.208  0.3744  0.0438  0.2918
 4921TIP3    H114727   6.356   3.517   4.181 -0.3389 -0.9966 -0.3534
 4921TIP3    H214728   6.407   3.377   4.157  2.2252 -0.1679 -0.0554
 4922TIP3   OH214729   1.918   2.991   1.771 -0.8147  0.0019  0.1077
 4922TIP3    H114730   1.887   3.054   1.706 -1.5774 -0.6591 -0.1880
 4922TIP3    H214731   1.970   2.929   1.720 -2.0775 -0.9790 -0.0468
 4923TIP3   OH214732   0.280   1.436   3.536 -0.6384  0.1646  0.9125
 4923TIP3    H114733   0.239   1.350   3.549 -0.2931 -0.3794 -1.1869
 4923TIP3    H214734   0.209   1.498   3.550 -2.1296 -0.7209 -1.8148
 4924TIP3   OH214735   6.812   3.234   4.017  0.0650 -0.2496  0.1144
 4924TIP3    H114736   6.837   3.283   3.939  0.4452 -0.6010  0.0091
 4924TIP3    H214737   6.863   3.273   4.088  0.1503 -0.2992  0.0815
 4925TIP3   OH214738   2.692   1.125   2.250  0.4863 -0.2170  0.3071
 4925TIP3    H114739   2.695   1.174   2.332  0.6210  0.0383  0.1511
 4925TIP3    H214740   2.713   1.035   2.275 -0.9005 -0.4306  0.7658
 4926TIP3   OH214741   4.011   3.009   3.076 -0.4352 -0.4328 -0.5025
 4926TIP3    H114742   4.033   3.088   3.026 -0.6281 -0.2438 -0.2932
 4926TIP3    H214743   4.049   2.937   3.026 -0.2336 -0.2030 -0.6809
 4927TIP3   OH214744   3.535   0.482   5.355 -0.2223  0.3870 -0.3254
 4927TIP3    H114745   3.596   0.410   5.344  1.1499  1.5053 -0.3146
 4927TIP3    H214746   3.522   0.516   5.266 -0.2793  0.5781 -0.2445
 4928TIP3   OH214747   2.893   3.701   4.608 -0.1777 -0.2729 -0.2667
 4928TIP3    H114748   2.982   3.682   4.639 -0.7911 -1.1309  1.0696
 4928TIP3    H214749   2.850   3.616   4.606 -0.9596  0.1254 -0.9945
 4929TIP3   OH214750   1.674   5.929   4.685  0.0564  0.1521  0.7478
 4929TIP3    H114751   1.585   5.895   4.680 -0.0674  0.4096  1.1249
 4929TIP3    H214752   1.662   6.024   4.688  0.3012  0.1571  1.6940
 4930TIP3   OH214753   3.123   0.282   3.242  0.1450  0.0344  0.5460
 4930TIP3    H114754   3.119   0.376   3.223  1.8619 -0.1633 -1.0960
 4930TIP3    H214755   3.193   0.249   3.186 -0.8445 -2.3674  0.5752
 4931TIP3   OH214756   4.382   6.190   5.831 -0.6215 -0.4185  0.3154
 4931TIP3    H114757   4.462   6.145   5.858 -0.5592 -0.3526  0.2384
 4931TIP3    H214758   4.325   6.121   5.799 -1.2835 -0.7014  2.0273
 4932TIP3   OH214759   6.066   6.315   4.735  0.0744 -0.7525 -0.1293
 4932TIP3    H114760   5.997   6.292   4.673 -0.0660  0.3522 -0.4123
 4932TIP3    H214761   6.064   6.246   4.801 -0.4322 -1.4218 -0.8325
 4933TIP3   OH214762   3.099   6.726   1.014 -0.4796  0.2720 -0.1732
 4933TIP3    H114763   3.124   6.635   1.003 -1.8657 -0.2281  0.5814
 4933TIP3    H214764   3.005   6.728   0.994 -0.5942  1.4211  0.3599
 4934TIP3   OH214765   0.950   2.288   0.816  0.2060 -0.3387 -0.2358
 4934TIP3    H114766   1.013   2.288   0.888 -0.4606 -0.4867  0.3470
 4934TIP3    H214767   0.947   2.197   0.786  0.5190 -0.2683 -0.4947
 4935TIP3   OH214768   1.072   6.187   1.205 -0.2661  0.2759 -0.2900
 4935TIP3    H114769   1.064   6.121   1.274 -0.6224 -0.9744 -1.5090
 4935TIP3    H214770   1.000   6.248   1.222 -0.5478 -0.1934  0.2417
 4936TIP3   OH214771   0.616   0.730   4.825 -0.5506 -0.4552  0.3401
 4936TIP3    H114772   0.640   0.718   4.733 -1.5594 -2.0526  0.2534
 4936TIP3    H214773   0.520   0.732   4.825 -0.5536 -0.1790  1.3302
 4937TIP3   OH214774   2.044   6.385   5.854  0.0707 -0.1024  0.4301
 4937TIP3    H114775   2.100   6.457   5.824 -0.2271  1.1911  2.7627
 4937TIP3    H214776   2.103   6.327   5.901 -0.1851  0.2686  1.2328
 4938TIP3   OH214777   1.819   0.610   4.593 -0.2143  0.7004  0.0072
 4938TIP3    H114778   1.808   0.555   4.516 -0.0593  0.8023 -0.0899
 4938TIP3    H214779   1.914   0.617   4.603 -0.1908  2.5457 -1.1352
 4939TIP3   OH214780   3.322   4.610   1.984 -0.3802 -0.2645 -0.0038
 4939TIP3    H114781   3.412   4.581   1.967 -0.0906  0.6498 -0.0740
 4939TIP3    H214782   3.272   4.529   1.992  0.4778 -0.7881  0.1866
 4940TIP3   OH214783   6.750   3.452   5.295 -0.1941  0.2243 -0.5191
 4940TIP3    H114784   6.701   3.533   5.300  2.9096  2.2424  0.4728
 4940TIP3    H214785   6.837   3.478   5.265  2.7330 -1.5875  4.8919
 4941TIP3   OH214786   4.986   3.969   1.501 -0.2286  0.6061  0.3142
 4941TIP3    H114787   4.902   3.928   1.481 -0.4055 -0.3860  2.7666
 4941TIP3    H214788   5.038   3.900   1.543 -0.0835  2.4569  3.4656
 4942TIP3   OH214789   2.348   2.330   2.298  0.2018 -1.0537 -0.0706
 4942TIP3    H114790   2.302   2.317   2.381  0.6573 -1.5315  0.1112
 4942TIP3    H214791   2.348   2.425   2.285  0.7179 -0.9275  0.8186
 4943TIP3   OH214792   6.449   3.816   0.679  0.1325  0.0309 -0.6967
 4943TIP3    H114793   6.507   3.884   0.644  1.4062  0.3546  1.7605
 4943TIP3    H214794   6.381   3.864   0.726 -0.0119 -0.3802 -0.4772
 4944TIP3   OH214795   1.454   1.195   3.842  0.7209 -0.2522 -0.2545
 4944TIP3    H114796   1.379   1.139   3.865  1.3193 -0.8403  0.3067
 4944TIP3    H214797   1.414   1.275   3.808 -0.1640 -0.5906 -0.0463
 4945TIP3   OH214798   4.112   3.060   0.543  0.0562  0.1350  0.2450
 4945TIP3    H114799   4.172   3.117   0.591  0.1250 -1.3260  1.9978
 4945TIP3    H214800   4.161   2.978   0.530 -0.7882 -0.3127 -0.2486
 4946TIP3   OH214801   6.396   3.939   1.068 -0.1708  0.8100  0.2432
 4946TIP3    H114802   6.403   4.031   1.095  0.5590  0.9503 -0.3921
 4946TIP3    H214803   6.478   3.899   1.096 -0.0702  0.5883 -0.3496
 4947TIP3   OH214804   1.734   1.116   1.339  0.2749 -0.0124 -0.1073
 4947TIP3    H114805   1.732   1.034   1.290 -0.6847  0.1442 -0.3536
 4947TIP3    H214806   1.759   1.183   1.275  0.4041 -0.0135 -0.0586
 4948TIP3   OH214807   0.994   4.839   0.309  0.1722  0.2976  0.0690
 4948TIP3    H114808   1.031   4.753   0.329 -0.2219 -0.3753 -1.8220
 4948TIP3    H214809   1.024   4.857   0.220  3.7598  4.0791  1.7205
 4949TIP3   OH214810   5.527   6.270   4.578  0.0249 -0.5236 -0.1999
 4949TIP3    H114811   5.490   6.221   4.504 -1.3624 -2.2582  1.5442
 4949TIP3    H214812   5.554   6.203   4.640  2.1302  0.8723  0.4866
 4950TIP3   OH214813   5.948   0.798   3.422  0.0212 -0.3410  0.0618
 4950TIP3    H114814   5.920   0.707   3.410 -1.3281 -0.2181  1.8492
 4950TIP3    H214815   5.867   0.848   3.426  0.6930  0.7561  0.4850
 4951TIP3   OH214816   0.425   6.625   5.727 -0.0725  0.1916  0.1129
 4951TIP3    H114817   0.352   6.611   5.668  0.2394  0.9195 -0.4533
 4951TIP3    H214818   0.475   6.543   5.723 -0.7564 -0.2479  0.3806
 4952TIP3   OH214819   4.326   4.468   4.101 -0.0662  0.2818 -0.3774
 4952TIP3    H114820   4.294   4.476   4.011  1.8062 -1.4169 -1.2614
 4952TIP3    H214821   4.289   4.385   4.132 -1.3363  1.2157  0.7714
 4953TIP3   OH214822   2.689   2.213   3.498 -0.3107 -0.2385  0.1117
 4953TIP3    H114823   2.744   2.145   3.537  2.0811  1.0219 -0.8214
 4953TIP3    H214824   2.655   2.173   3.418  0.7134 -0.5070 -0.2057
 4954TIP3   OH214825   1.547   6.620   0.141  0.3000 -0.1037  0.0284
 4954TIP3    H114826   1.523   6.535   0.178  0.5724  0.3001  1.1656
 4954TIP3    H214827   1.494   6.684   0.189  0.7850  0.4455 -0.1462
 4955TIP3   OH214828   1.905   1.202   3.956 -0.2122 -0.1740  0.0433
 4955TIP3    H114829   1.862   1.223   3.873 -1.2362  0.8990  0.8206
 4955TIP3    H214830   1.843   1.230   4.023  0.9893 -0.1867  1.1867
 4956TIP3   OH214831   5.894   6.778   3.207  0.2462  0.1250 -0.2645
 4956TIP3    H114832   5.810   6.823   3.194 -1.1056 -1.9094  0.9745
 4956TIP3    H214833   5.880   6.691   3.171  1.8403 -0.2639  0.0003
 4957TIP3   OH214834   4.130   0.584   5.879 -0.2945  0.5027  0.4339
 4957TIP3    H114835   4.203   0.644   5.897 -0.6170  0.8035  0.7656
 4957TIP3    H214836   4.145   0.553   5.790  0.5392  0.1412  0.6954
 4958TIP3   OH214837   1.799   1.722   4.992 -0.3085 -0.1158 -0.5307
 4958TIP3    H114838   1.729   1.735   5.056 -0.6537 -0.6822 -0.7854
 4958TIP3    H214839   1.762   1.660   4.929  0.4869 -0.5665 -0.5657
 4959TIP3   OH214840   0.074   2.362   3.232  0.3713  0.3357 -0.3424
 4959TIP3    H114841   0.095   2.362   3.139  0.3278 -0.3962 -0.3534
 4959TIP3    H214842   0.151   2.326   3.275 -0.5487 -1.7280 -0.3267
 4960TIP3   OH214843   5.384   5.738   4.593  0.2745 -0.4011  0.4562
 4960TIP3    H114844   5.378   5.721   4.687 -2.3655 -2.0554  0.0884
 4960TIP3    H214845   5.383   5.651   4.553  1.1753  0.2861 -1.1290
 4961TIP3   OH214846   0.899   3.380   4.675  0.1594  0.5227 -0.1663
 4961TIP3    H114847   0.912   3.349   4.765 -1.5535  2.0508  0.6672
 4961TIP3    H214848   0.881   3.300   4.625  2.5561 -0.5295  0.4916
 4962TIP3   OH214849   0.569   0.764   0.088 -0.0135 -0.2684 -0.5575
 4962TIP3    H114850   0.579   0.854   0.058 -0.6477  0.0558  0.1704
 4962TIP3    H214851   0.617   0.712   0.024  1.8626  0.7269 -0.0313
 4963TIP3   OH214852   6.016   1.391   2.069 -0.4916  0.1312  0.2990
 4963TIP3    H114853   6.065   1.446   2.131  0.0724 -0.0425  0.0136
 4963TIP3    H214854   6.078   1.373   1.999  0.5015 -3.6467  1.9210
 4964TIP3   OH214855   4.771   0.957   3.551  0.0790 -0.0737  0.2869
 4964TIP3    H114856   4.820   0.875   3.559  0.6125  0.2176  0.0608
 4964TIP3    H214857   4.838   1.025   3.549 -0.3427  0.3449  0.0976
 4965TIP3   OH214858   6.976   2.485   2.051 -0.0794  0.3762  0.4528
 4965TIP3    H114859   7.019   2.562   2.014 -0.4637 -0.3506 -1.6998
 4965TIP3    H214860   6.882   2.503   2.044 -0.1783 -0.3432 -0.3016
 4966TIP3   OH214861   6.417   0.970   2.831 -0.1237 -0.0372 -0.2492
 4966TIP3    H114862   6.449   0.890   2.873  1.0635 -0.4801 -1.8894
 4966TIP3    H214863   6.475   1.039   2.863 -0.5645  0.0250  0.4452
 4967TIP3   OH214864   6.759   5.267   3.294  0.0449  0.1556  0.0224
 4967TIP3    H114865   6.760   5.177   3.264 -1.1275  0.0263  0.3418
 4967TIP3    H214866   6.851   5.294   3.293  0.5653 -1.4561  1.1511
 4968TIP3   OH214867   4.709   6.080   4.227  0.1907  0.2233 -0.2893
 4968TIP3    H114868   4.669   6.007   4.179  0.4573 -0.3758  0.3802
 4968TIP3    H214869   4.800   6.079   4.200  0.0278  0.8100 -0.8754
 4969TIP3   OH214870   4.464   4.711   4.528  0.0413 -0.6732 -0.1954
 4969TIP3    H114871   4.471   4.701   4.433 -2.4975  0.5570 -0.5950
 4969TIP3    H214872   4.387   4.659   4.552  1.0457 -1.5346  1.3390
 4970TIP3   OH214873   5.425   4.826   2.674  0.2430  0.2235  0.0681
 4970TIP3    H114874   5.345   4.776   2.691  0.9876 -0.7980  0.6751
 4970TIP3    H214875   5.456   4.852   2.761  1.1944 -0.3881 -0.0834
 4971TIP3   OH214876   1.904   0.816   0.486  0.1023  0.4977  0.2967
 4971TIP3    H114877   1.865   0.741   0.443  1.4747  0.2149 -0.5101
 4971TIP3    H214878   1.905   0.793   0.579 -1.0628  0.2695  0.2571
 4972TIP3   OH214879   1.863   4.682   5.643 -0.2769 -0.0144  0.2542
 4972TIP3    H114880   1.845   4.620   5.714 -0.8104  0.6238  0.6805
 4972TIP3    H214881   1.803   4.755   5.658 -1.4612 -0.5021 -1.6616
 4973TIP3   OH214882   4.892   4.356   5.257 -0.4475 -0.5529 -0.5818
 4973TIP3    H114883   4.863   4.447   5.245 -2.0118 -0.8675  0.5677
 4973TIP3    H214884   4.978   4.353   5.214  0.8882  2.1462  1.6055
 4974TIP3   OH214885   3.117   5.403   4.962 -0.5781  0.4342  0.1646
 4974TIP3    H114886   3.040   5.398   5.019  0.6092  0.7604  1.8756
 4974TIP3    H214887   3.104   5.481   4.909 -0.1046  2.2119  2.5369
 4975TIP3   OH214888   2.582   5.703   4.714  0.1347  0.0187 -0.1618
 4975TIP3    H114889   2.642   5.778   4.716 -0.0966  0.2268  1.7612
 4975TIP3    H214890   2.591   5.665   4.802  0.2423 -2.2230 -1.0918
 4976TIP3   OH214891   6.365   1.811   2.467  0.0036  0.2610 -0.1165
 4976TIP3    H114892   6.357   1.861   2.548 -0.0186 -1.3602  0.9318
 4976TIP3    H214893   6.321   1.864   2.401 -0.6199  1.2842  1.0870
 4977TIP3   OH214894   0.654   6.322   4.930 -0.3226 -0.1594  1.1936
 4977TIP3    H114895   0.748   6.316   4.947 -0.4427 -2.2508  1.4482
 4977TIP3    H214896   0.648   6.365   4.845  0.8734 -0.1138  1.1071
 4978TIP3   OH214897   5.187   2.117   1.544 -0.4474 -0.1692  0.3110
 4978TIP3    H114898   5.198   2.047   1.480 -0.8001  0.4268 -0.4277
 4978TIP3    H214899   5.253   2.100   1.611  0.5545 -0.3120 -0.6825
 4979TIP3   OH214900   6.303   3.908   4.803  0.6866 -0.0243  0.1283
 4979TIP3    H114901   6.258   3.921   4.886  0.6268 -0.0952  0.1076
 4979TIP3    H214902   6.344   3.822   4.812 -1.7876 -1.4359 -1.0095
 4980TIP3   OH214903   6.196   5.261   5.847  0.6084  0.5422  0.0835
 4980TIP3    H114904   6.258   5.196   5.815  0.1422 -1.5281  2.9486
 4980TIP3    H214905   6.232   5.288   5.931 -1.3112  0.8292  0.8536
 4981TIP3   OH214906   0.974   0.464   5.306 -0.3086 -0.1178  0.0273
 4981TIP3    H114907   0.997   0.413   5.383 -0.7639  2.3014  1.8647
 4981TIP3    H214908   1.055   0.508   5.280 -0.1560 -0.9152 -0.9423
 4982TIP3   OH214909   1.501   0.590   0.062  0.6845  0.5133 -0.2273
 4982TIP3    H114910   1.453   0.540   0.129  1.3094  0.2418  0.0288
 4982TIP3    H214911   1.553   0.524   0.016 -0.5658  0.5366 -1.7262
 4983TIP3   OH214912   5.598   2.174   2.526  0.1217 -0.6120  0.6750
 4983TIP3    H114913   5.526   2.234   2.507 -0.1491 -0.8037  1.0750
 4983TIP3    H214914   5.677   2.224   2.504 -0.1623 -0.8188 -0.9042
 4984TIP3   OH214915   2.834   1.196   0.761 -0.2954 -0.0618  0.2415
 4984TIP3    H114916   2.926   1.195   0.735 -0.9879 -0.5787 -2.5022
 4984TIP3    H214917   2.827   1.130   0.829  1.3929  0.1867  0.7010
 4985TIP3   OH214918   5.520   5.053   3.215 -0.0897 -0.3125 -0.1432
 4985TIP3    H114919   5.590   5.003   3.172 -1.2501 -1.2087 -1.0754
 4985TIP3    H214920   5.510   5.010   3.300  2.0673  1.3283  1.0338
 4986TIP3   OH214921   5.159   2.612   0.861  0.0020  0.0386  0.3540
 4986TIP3    H114922   5.133   2.540   0.918  1.5925 -1.0652 -0.2719
 4986TIP3    H214923   5.247   2.589   0.831 -0.2247  1.2970 -1.4109
 4987TIP3   OH214924   6.265   1.778   5.170  0.2744  0.5445  0.3751
 4987TIP3    H114925   6.329   1.848   5.183 -1.1408  2.0319 -0.3070
 4987TIP3    H214926   6.286   1.712   5.236  1.6382  1.6250  1.0430
 4988TIP3   OH214927   5.855   0.671   4.864  0.4702 -0.4745  0.3758
 4988TIP3    H114928   5.848   0.721   4.783 -0.0768  1.2416  1.4492
 4988TIP3    H214929   5.777   0.614   4.864  1.7382 -2.3431 -1.4475
 4989TIP3   OH214930   4.816   0.626   3.293 -0.3116  0.3225  0.4868
 4989TIP3    H114931   4.803   0.531   3.286  1.6398  0.1106 -1.2535
 4989TIP3    H214932   4.747   0.663   3.238 -0.4513 -0.1666  0.3247
 4990TIP3   OH214933   0.823   4.650   1.580 -0.2569  0.1677 -0.2453
 4990TIP3    H114934   0.740   4.672   1.622 -0.0342  2.4707 -0.8503
 4990TIP3    H214935   0.805   4.657   1.486 -0.2871 -3.1080 -0.5796
 4991TIP3   OH214936   0.397   6.643   1.818 -0.6722  0.2221 -0.0147
 4991TIP3    H114937   0.464   6.596   1.868  0.2721 -0.1372 -1.5701
 4991TIP3    H214938   0.392   6.728   1.862 -0.5171 -0.3757  1.2268
 4992TIP3   OH214939   2.725   5.004   5.122 -0.9075 -0.1524 -0.0907
 4992TIP3    H114940   2.750   5.000   5.214 -0.7450 -1.8825 -0.1717
 4992TIP3    H214941   2.758   4.923   5.084  0.6351  1.3266 -2.1264
 4993TIP3   OH214942   2.174   1.404   2.739 -0.6652  0.4713 -0.3291
 4993TIP3    H114943   2.248   1.431   2.794 -0.3336  0.2824 -0.6757
 4993TIP3    H214944   2.178   1.309   2.739 -1.4940  0.4266  0.4283
 4994TIP3   OH214945   1.198   1.050   4.949  0.3677 -0.1535  0.3091
 4994TIP3    H114946   1.258   0.975   4.953  1.6896  0.6006 -2.5802
 4994TIP3    H214947   1.118   1.015   4.911  0.4374 -0.3912  0.3807
 4995TIP3   OH214948   6.820   1.647   3.916  0.0388  0.0282  0.1216
 4995TIP3    H114949   6.805   1.740   3.902  0.2987 -0.1474 -1.4255
 4995TIP3    H214950   6.853   1.642   4.006 -0.7930  1.3199  0.5293
 4996TIP3   OH214951   0.138   1.863   5.725 -0.1258 -0.3636  0.8432
 4996TIP3    H114952   0.108   1.947   5.758 -0.0065 -0.4887  1.2752
 4996TIP3    H214953   0.082   1.845   5.649  0.3658  0.4735  0.2685
 4997TIP3   OH214954   2.703   4.963   0.736  1.2531 -0.0140  0.7221
 4997TIP3    H114955   2.615   4.931   0.756  1.9030 -2.2842  0.2324
 4997TIP3    H214956   2.743   4.978   0.822  1.1218 -1.1686  0.9980
 4998TIP3   OH214957   5.023   3.604   2.834  0.3576 -0.1044 -0.6250
 4998TIP3    H114958   5.114   3.584   2.815  0.5174 -0.9862  0.9641
 4998TIP3    H214959   5.019   3.614   2.929 -1.4342 -1.4175 -0.5057
 4999TIP3   OH214960   6.761   6.717   1.401 -0.5227  0.2381  0.4211
 4999TIP3    H114961   6.748   6.762   1.317 -0.1229 -2.0535 -0.9667
 4999TIP3    H214962   6.678   6.674   1.418 -0.5457  0.5558  1.1186
 5000TIP3   OH214963   1.708   5.000   4.008 -0.2746  0.3572  0.6664
 5000TIP3    H114964   1.779   4.969   3.951 -1.1965  2.1272 -1.6429
 5000TIP3    H214965   1.750   5.064   4.065  0.2109  0.5742  0.0795
 5001TIP3   OH214966   5.584   2.893   0.495  0.2054 -0.5834  0.1208
 5001TIP3    H114967   5.512   2.832   0.511  0.5034 -0.9246  0.1663
 5001TIP3    H214968   5.548   2.957   0.433 -0.6960  0.2591  1.4538
 5002TIP3   OH214969   2.611   1.391   3.428 -0.1320 -0.5353 -0.7798
 5002TIP3    H114970   2.590   1.459   3.492  0.2292 -0.0853 -1.1282
 5002TIP3    H214971   2.590   1.430   3.343  2.1820  0.0107 -1.1729
 5003TIP3   OH214972   4.760   0.781   1.337 -1.1729  0.0949  0.1550
 5003TIP3    H114973   4.848   0.817   1.346 -1.0791 -0.3108  0.9825
 5003TIP3    H214974   4.703   0.847   1.377 -1.1014 -0.2045  0.7742
 5004TIP3   OH214975   5.709   2.894   2.620  0.2053 -0.2201  0.9092
 5004TIP3    H114976   5.643   2.964   2.617 -0.5302 -0.8787  1.2736
 5004TIP3    H214977   5.787   2.936   2.656  0.7475  1.1505 -1.6583
 5005TIP3   OH214978   4.319   3.051   5.101 -0.3447  0.3910 -0.0776
 5005TIP3    H114979   4.302   2.990   5.174 -0.1903 -0.2171 -0.5422
 5005TIP3    H214980   4.289   3.136   5.134 -0.8712  0.0084  0.4610
 5006TIP3   OH214981   1.364   1.432   3.002  0.0148  0.0305  0.3780
 5006TIP3    H114982   1.399   1.396   3.084  0.1076  0.4443  0.5206
 5006TIP3    H214983   1.439   1.473   2.960  0.2303 -1.1861 -0.4764
 5007TIP3   OH214984   0.477   5.534   4.636  0.9750 -0.0924  0.7226
 5007TIP3    H114985   0.522   5.449   4.643  0.8471 -0.0974  1.5829
 5007TIP3    H214986   0.521   5.589   4.701 -1.1114 -0.4876  2.5776
 5008TIP3   OH214987   4.313   2.257   0.791 -0.0031  0.1209 -0.6638
 5008TIP3    H114988   4.376   2.228   0.857 -0.5158  1.3135  0.3845
 5008TIP3    H214989   4.251   2.185   0.783  1.5507 -1.1612 -1.8540
 5009TIP3   OH214990   1.409   5.945   4.580  0.2592 -0.1395 -0.6034
 5009TIP3    H114991   1.407   5.851   4.561  0.6482  0.0221 -1.4591
 5009TIP3    H214992   1.343   5.957   4.648 -0.4636 -0.8831 -1.1665
 5010TIP3   OH214993   1.246   1.552   5.458 -0.3735  0.1091 -0.4740
 5010TIP3    H114994   1.185   1.505   5.515 -0.0277  1.4639  1.0466
 5010TIP3    H214995   1.203   1.635   5.440  1.8278  2.0520  2.4198
 5011TIP3   OH214996   5.369   2.286   4.628  0.0143 -0.2427 -0.2440
 5011TIP3    H114997   5.409   2.211   4.673 -1.0656 -0.6499  0.0735
 5011TIP3    H214998   5.275   2.272   4.637 -0.2495  1.7625  0.8595
 5012TIP3   OH214999   2.579   2.391   0.061 -0.4085  0.3993  0.0039
 5012TIP3    H115000   2.490   2.374   0.091 -0.4357  0.9745  0.2538
 5012TIP3    H215001   2.624   2.306   0.070 -0.8531  0.1740  0.1261
 5013TIP3   OH215002   7.149   5.946   2.087 -0.2724 -0.7268 -0.0076
 5013TIP3    H115003   7.197   5.870   2.053 -0.1408 -0.4178 -0.5303
 5013TIP3    H215004   7.065   5.910   2.116 -0.5310 -0.9515 -0.9924
 5014TIP3   OH215005   5.699   5.684   2.832 -0.4307  0.6869 -0.5248
 5014TIP3    H115006   5.787   5.714   2.850 -0.7542  1.7035 -0.5786
 5014TIP3    H215007   5.642   5.756   2.858 -1.3152 -0.2781  0.3189
 5015TIP3   OH215008   0.443   5.672   1.483  0.4040 -0.1807  0.0257
 5015TIP3    H115009   0.416   5.735   1.550  0.7814 -1.5755  1.5828
 5015TIP3    H215010   0.498   5.722   1.423 -1.9579  1.7015 -0.7267
 5016TIP3   OH215011   4.143   4.410   0.295  0.5918  0.0690 -0.0289
 5016TIP3    H115012   4.131   4.367   0.211  1.3285 -0.0720 -0.0698
 5016TIP3    H215013   4.095   4.356   0.357  1.1924 -0.6181 -0.1400
 5017TIP3   OH215014   1.912   3.420   4.439 -0.2610  0.2219 -0.2129
 5017TIP3    H115015   1.871   3.349   4.390 -0.2042  0.4212 -0.5493
 5017TIP3    H215016   1.932   3.381   4.525 -0.8959  0.0450 -0.1439
 5018TIP3   OH215017   5.817   3.534   5.744  0.1754  0.5961  0.4768
 5018TIP3    H115018   5.805   3.621   5.782 -1.3076  1.0776 -0.9689
 5018TIP3    H215019   5.904   3.538   5.702  0.7339  0.8715  1.6216
 5019TIP3   OH215020   6.321   5.189   0.632  0.3612 -0.0195 -0.0705
 5019TIP3    H115021   6.281   5.266   0.592  1.1729  0.2967 -0.2882
 5019TIP3    H215022   6.275   5.180   0.716 -0.3432  0.1723 -0.4211
 5020TIP3   OH215023   2.067   2.896   0.941 -0.4350 -0.2501 -0.3852
 5020TIP3    H115024   2.076   2.983   0.979 -0.2931 -0.7795  0.8520
 5020TIP3    H215025   2.155   2.860   0.942 -0.8262 -1.2401  1.2429
 5021TIP3   OH215026   1.701   1.531   3.192  0.4738 -0.4300 -0.0442
 5021TIP3    H115027   1.697   1.577   3.276  0.2799  0.2858 -0.4350
 5021TIP3    H215028   1.750   1.590   3.134  2.4727 -1.8312  0.1196
 5022TIP3   OH215029   7.101   4.656   1.182  0.3924 -0.2999 -0.3027
 5022TIP3    H115030   7.028   4.641   1.123  1.1724 -0.1074 -1.3407
 5022TIP3    H215031   7.079   4.605   1.260 -0.7563 -0.3794 -0.6615
 5023TIP3   OH215032   3.988   6.201   1.138 -0.3712  0.0917  0.3774
 5023TIP3    H115033   4.047   6.145   1.188 -0.8966  0.6199  1.6244
 5023TIP3    H215034   4.029   6.207   1.052  0.1933 -1.3996  0.5099
 5024TIP3   OH215035   3.108   5.552   3.533 -0.1670 -0.4296 -0.2820
 5024TIP3    H115036   3.182   5.532   3.475 -0.3898 -0.4098 -0.5765
 5024TIP3    H215037   3.124   5.500   3.612  1.0864  0.9205  0.3851
 5025TIP3   OH215038   5.746   2.663   0.235 -0.2446 -0.0784  0.3122
 5025TIP3    H115039   5.748   2.756   0.256  0.1399 -0.0122 -0.0087
 5025TIP3    H215040   5.830   2.629   0.266 -0.5713 -0.4100  0.8421
 5026TIP3   OH215041   7.077   2.944   5.820  0.1783  0.7344 -0.2022
 5026TIP3    H115042   6.982   2.948   5.823  0.2342  1.5665  1.8140
 5026TIP3    H215043   7.101   2.995   5.743 -0.9434  2.4374  0.5306
 5027TIP3   OH215044   1.289   2.274   0.067 -0.5703 -0.3532  0.0397
 5027TIP3    H115045   1.315   2.187   0.037 -0.5478 -0.1926 -0.4149
 5027TIP3    H215046   1.341   2.334   0.013  0.0838 -0.0658  0.9622
 5028TIP3   OH215047   2.126   6.272   0.840  0.1519 -0.1874  0.3540
 5028TIP3    H115048   2.128   6.365   0.863  1.0256  0.1937 -1.0981
 5028TIP3    H215049   2.075   6.269   0.759 -2.0719 -1.3463  1.7360
 5029TIP3   OH215050   5.701   0.613   1.688  0.7190  0.1127  0.2685
 5029TIP3    H115051   5.757   0.648   1.757 -0.4260  1.0579  0.7453
 5029TIP3    H215052   5.612   0.622   1.722  0.1586  0.2243 -1.1744
 5030TIP3   OH215053   1.543   1.824  -0.003  0.1054  0.1205 -0.0945
 5030TIP3    H115054   1.604   1.772   0.049 -0.3536  0.2391  0.5846
 5030TIP3    H215055   1.478   1.761  -0.034 -0.3675  0.2428  0.6052
 5031TIP3   OH215056   5.906   4.641   2.047 -0.0410 -0.0469  0.0844
 5031TIP3    H115057   5.932   4.730   2.074  0.6998 -0.2394  0.0123
 5031TIP3    H215058   5.826   4.654   1.997 -0.0181  0.5700  0.1992
 5032TIP3   OH215059   2.346   1.299   0.600 -0.0884 -0.0442 -0.1156
 5032TIP3    H115060   2.265   1.352   0.602 -1.3064 -1.8376  0.2142
 5032TIP3    H215061   2.405   1.344   0.660 -0.8198  1.3339 -0.3779
 5033TIP3   OH215062   0.950   4.226   0.121 -0.2986  0.4337  0.4475
 5033TIP3    H115063   0.989   4.233   0.034  0.4187  0.0101  0.7303
 5033TIP3    H215064   1.012   4.268   0.180 -1.6950  2.5147  0.5319
 5034TIP3   OH215065   4.997   3.309   4.294  0.2517  0.0177 -0.1174
 5034TIP3    H115066   4.917   3.274   4.333  0.3867 -0.1289  0.0330
 5034TIP3    H215067   5.002   3.268   4.208 -0.6743  1.2505 -0.7931
 5035TIP3   OH215068   5.521   1.692   3.140  0.1187 -0.2047 -0.1252
 5035TIP3    H115069   5.485   1.630   3.203 -1.5003 -0.4744 -1.2569
 5035TIP3    H215070   5.460   1.766   3.142  0.8019  0.3781 -0.3958
 5036TIP3   OH215071   1.469   0.568   0.878 -0.0993 -0.0438 -0.0981
 5036TIP3    H115072   1.423   0.595   0.957  1.2145  1.0404  0.3301
 5036TIP3    H215073   1.530   0.640   0.859  0.1056 -0.5959 -1.6942
 5037TIP3   OH215074   5.309   6.609   5.587 -0.7661 -0.3451  0.1527
 5037TIP3    H115075   5.402   6.628   5.579 -0.1461 -3.0031  0.1677
 5037TIP3    H215076   5.269   6.693   5.609  1.6621  0.7633  0.6295
 5038TIP3   OH215077   0.407   2.687   4.934  0.0806 -0.1227  0.2588
 5038TIP3    H115078   0.421   2.607   4.883 -0.5941  0.3882 -0.7640
 5038TIP3    H215079   0.321   2.718   4.906  0.7529  1.4891 -0.0950
 5039TIP3   OH215080   4.969   0.852   2.595 -0.4346  0.1354  0.2662
 5039TIP3    H115081   5.020   0.776   2.569  1.0551  0.7671  1.1875
 5039TIP3    H215082   4.971   0.852   2.690 -1.4743  0.6505  0.3109
 5040TIP3   OH215083   4.140   5.569   0.734 -0.1874  0.4933  0.3309
 5040TIP3    H115084   4.165   5.529   0.650 -0.1690 -0.7203  0.8867
 5040TIP3    H215085   4.183   5.654   0.734 -0.0191  0.4227 -0.8055
 5041TIP3   OH215086   5.128   6.560   5.814 -0.1390 -0.2901  0.0999
 5041TIP3    H115087   5.182   6.515   5.748  1.1476 -1.3130  1.7517
 5041TIP3    H215088   5.163   6.649   5.816 -0.0598 -0.3025 -0.4597
 5042TIP3   OH215089   7.018   1.750   3.585 -0.2495 -0.3841  0.2676
 5042TIP3    H115090   6.928   1.735   3.557 -0.3650  0.6219  0.0415
 5042TIP3    H215091   7.011   1.823   3.647  0.5102  0.4814 -0.6140
 5043TIP3   OH215092   2.237   0.194   0.466  0.1918  0.1034  0.0322
 5043TIP3    H115093   2.274   0.281   0.446  0.8162 -0.2701 -0.4667
 5043TIP3    H215094   2.287   0.165   0.543  1.3693 -0.6467 -0.9854
 5044TIP3   OH215095   6.186   3.369   2.587 -0.6089 -0.0526 -0.0832
 5044TIP3    H115096   6.229   3.289   2.619 -1.6894 -0.7747 -0.3804
 5044TIP3    H215097   6.253   3.412   2.534  0.2423 -0.3618  0.7056
 5045TIP3   OH215098   3.241   5.980   1.806  0.6172 -0.2126 -0.0890
 5045TIP3    H115099   3.200   6.038   1.742 -0.0120 -1.1954 -0.5954
 5045TIP3    H215100   3.168   5.930   1.843  1.0398 -0.0453  1.0087
 5046TIP3   OH215101   2.729   0.468   3.550 -0.2338  0.0241  0.1502
 5046TIP3    H115102   2.789   0.540   3.572  0.6085  0.0561 -1.9532
 5046TIP3    H215103   2.742   0.403   3.619  2.3337  0.0062 -0.2516
 5047TIP3   OH215104   5.462   5.709   0.732 -0.2238 -0.2885  0.0913
 5047TIP3    H115105   5.443   5.781   0.672 -1.3412 -2.0233 -1.7726
 5047TIP3    H215106   5.401   5.640   0.706  0.7075 -1.8699  1.8917
 5048TIP3   OH215107   5.275   3.938   1.751 -0.3487 -0.8424  0.0273
 5048TIP3    H115108   5.331   4.010   1.782 -1.9273  0.7836 -0.7021
 5048TIP3    H215109   5.301   3.924   1.660 -1.3884  0.2623 -0.4718
 5049TIP3   OH215110   4.088   5.524   2.939 -0.2268 -0.0601  0.5059
 5049TIP3    H115111   4.128   5.538   3.024  0.2620  0.2676  0.2257
 5049TIP3    H215112   4.140   5.576   2.878 -0.2210 -0.7308 -0.0839
 5050TIP3   OH215113   1.808   3.889   0.165 -0.1733  0.2904  0.1232
 5050TIP3    H115114   1.891   3.927   0.138 -1.0481  1.1829 -1.4950
 5050TIP3    H215115   1.742   3.951   0.134 -1.5674 -1.5700 -0.8809
 5051TIP3   OH215116   5.703   0.186   5.840 -0.8787  0.1788 -0.1390
 5051TIP3    H115117   5.698   0.092   5.828 -1.3839  0.0001  1.3375
 5051TIP3    H215118   5.671   0.222   5.757 -0.2734 -0.9293 -0.8676
 5052TIP3   OH215119   6.997   3.396   4.300 -0.1309 -0.4027 -0.1804
 5052TIP3    H115120   7.055   3.320   4.294 -1.2254 -1.2152 -1.2217
 5052TIP3    H215121   6.996   3.432   4.211  0.6772  1.1002  0.3909
 5053TIP3   OH215122   6.877   4.966   1.114  0.7080  0.0895 -0.3186
 5053TIP3    H115123   6.946   5.013   1.162 -0.1966  0.8880  0.2690
 5053TIP3    H215124   6.916   4.944   1.030  1.8037  0.1582  0.1536
 5054TIP3   OH215125   5.355   5.483   1.101  0.0721  0.0315 -1.1240
 5054TIP3    H115126   5.376   5.479   1.194  1.7695  0.3640 -1.4714
 5054TIP3    H215127   5.286   5.418   1.090  0.0942 -0.2801  0.2869
 5055TIP3   OH215128   6.873   5.032   4.714 -0.0727  0.5834  0.4380
 5055TIP3    H115129   6.916   4.948   4.699 -0.2682  0.7270 -1.1066
 5055TIP3    H215130   6.821   5.018   4.793  2.5557  0.3426  2.2216
 5056TIP3   OH215131   2.234   0.563   2.467  0.4619  0.1647 -0.5086
 5056TIP3    H115132   2.271   0.486   2.425 -1.0535 -1.0902  0.3127
 5056TIP3    H215133   2.144   0.537   2.488 -0.5237  2.6239 -1.3671
 5057TIP3   OH215134   6.475   1.714   1.731  0.3879 -0.0604 -0.4504
 5057TIP3    H115135   6.393   1.719   1.683 -0.1396 -1.7815  0.1860
 5057TIP3    H215136   6.465   1.777   1.803  0.3098  0.9195 -1.2982
 5058TIP3   OH215137   2.251   4.084   0.278 -0.8056  0.0336 -0.2804
 5058TIP3    H115138   2.190   4.090   0.205 -0.0000 -0.5054 -1.0095
 5058TIP3    H215139   2.211   4.022   0.338 -1.8068  0.9997  0.0911
 5059TIP3   OH215140   1.472   5.087   4.719  0.2600  0.1337 -0.0017
 5059TIP3    H115141   1.520   5.148   4.775 -1.1059 -0.4242  1.8794
 5059TIP3    H215142   1.508   5.001   4.741  0.4384  0.0049 -0.7753
 5060TIP3   OH215143   5.303   1.181   3.837 -1.0524  0.4111 -0.1633
 5060TIP3    H115144   5.222   1.233   3.845 -1.5539 -0.1158 -1.5281
 5060TIP3    H215145   5.309   1.133   3.919 -1.1271  1.8406  0.7159
 5061TIP3   OH215146   4.220   1.621   5.371 -0.2105 -0.9896 -0.2971
 5061TIP3    H115147   4.159   1.655   5.306 -0.2858 -0.5148  0.0192
 5061TIP3    H215148   4.244   1.534   5.338 -1.5423 -1.4473 -0.1117
 5062TIP3   OH215149   0.457   1.698   0.460 -0.1121 -0.3583  0.1049
 5062TIP3    H115150   0.524   1.686   0.526 -0.2198  1.5467  0.6086
 5062TIP3    H215151   0.489   1.649   0.384  0.9685 -0.9200  0.8974
 5063TIP3   OH215152   5.176   1.729   2.642  0.3319  0.0203  0.0806
 5063TIP3    H115153   5.232   1.741   2.719 -0.7482  0.0709  0.8740
 5063TIP3    H215154   5.177   1.634   2.627  1.0302  0.0723 -0.2187
 5064TIP3   OH215155   5.627   1.207   3.444 -0.2027 -0.3048  0.2410
 5064TIP3    H115156   5.678   1.138   3.487 -0.3270  0.3329  1.4520
 5064TIP3    H215157   5.661   1.289   3.481 -0.2673  0.2749 -0.9495
 5065TIP3   OH215158   1.707   2.877   3.909  0.4936  0.0943 -0.5890
 5065TIP3    H115159   1.748   2.885   3.995  0.1845 -0.0894 -0.4224
 5065TIP3    H215160   1.737   2.953   3.860  0.6160  0.2336 -0.2948
 5066TIP3   OH215161   1.861   1.486   0.463  0.1414  0.1719  0.0472
 5066TIP3    H115162   1.767   1.491   0.481  0.2996 -0.7339  1.2580
 5066TIP3    H215163   1.866   1.463   0.371 -0.8396 -0.1125  0.0471
 5067TIP3   OH215164   3.648   0.974   5.514 -0.6512 -0.0032  0.0812
 5067TIP3    H115165   3.644   0.917   5.591  1.5311 -0.1942  0.1048
 5067TIP3    H215166   3.620   0.917   5.441 -0.7377 -0.4316  0.4436
 5068TIP3   OH215167   5.833   2.633   4.441  0.3293  0.6757 -0.1753
 5068TIP3    H115168   5.909   2.584   4.474 -0.0142 -1.0551 -1.7937
 5068TIP3    H215169   5.783   2.656   4.519 -0.3117 -2.9958  0.6451
 5069TIP3   OH215170   1.421   3.411   3.082 -0.0343 -0.0870  0.4311
 5069TIP3    H115171   1.406   3.349   3.010  0.2568 -0.0633  0.3493
 5069TIP3    H215172   1.354   3.479   3.070  1.9854  1.6806 -1.7575
 5070TIP3   OH215173   3.581   5.574   2.337 -0.1980  0.0423 -0.0470
 5070TIP3    H115174   3.527   5.652   2.346  0.4032  0.2330  3.6786
 5070TIP3    H215175   3.522   5.501   2.357 -0.2602 -0.2783 -1.3454
 5071TIP3   OH215176   2.699   0.369   1.784  0.4233  0.2149  0.4458
 5071TIP3    H115177   2.621   0.366   1.728  0.4379  0.1364  0.4299
 5071TIP3    H215178   2.714   0.278   1.809 -0.4244  0.3940  1.7460
 5072TIP3   OH215179   0.420   5.152   1.508  0.5894 -0.1054  0.1877
 5072TIP3    H115180   0.470   5.178   1.585  2.9076 -0.8178 -0.9767
 5072TIP3    H215181   0.453   5.207   1.437  0.0964 -0.9429 -0.7307
 5073TIP3   OH215182   4.983   4.284   0.237 -0.1839  0.6554 -0.0977
 5073TIP3    H115183   5.030   4.366   0.230  4.1645 -1.5025  0.5902
 5073TIP3    H215184   4.952   4.282   0.328 -0.5590  1.5795 -0.1953
 5074TIP3   OH215185   2.399   0.349   2.336 -0.4626  0.5212 -0.5694
 5074TIP3    H115186   2.440   0.332   2.251  0.3506  0.2991 -0.1396
 5074TIP3    H215187   2.456   0.306   2.399 -0.7360  1.1989  0.1474
 5075TIP3   OH215188   3.782   1.646   3.460 -0.5963  0.3732 -0.0673
 5075TIP3    H115189   3.722   1.573   3.449 -1.5061  0.9633  0.7699
 5075TIP3    H215190   3.854   1.611   3.513 -1.9464  0.5192  1.9643
 5076TIP3   OH215191   6.534   4.116   5.651 -0.0484 -0.2111  0.3319
 5076TIP3    H115192   6.570   4.052   5.712 -1.3206 -0.9685  0.3179
 5076TIP3    H215193   6.527   4.070   5.568 -0.3615  0.1383  0.1590
 5077TIP3   OH215194   2.011   3.671   1.172  0.2285  0.4500 -0.2060
 5077TIP3    H115195   2.072   3.597   1.174  0.0945  0.3066 -1.1815
 5077TIP3    H215196   2.058   3.740   1.124 -0.0135  0.6718 -0.1258
 5078TIP3   OH215197   5.759   3.906   5.567 -0.5627  0.6279  0.6879
 5078TIP3    H115198   5.784   3.823   5.525  0.4592  0.6799  1.1695
 5078TIP3    H215199   5.811   3.972   5.523 -3.4252  1.5226 -1.7298
 5079TIP3   OH215200   0.677   4.916   2.608 -0.8856  0.1854  0.0942
 5079TIP3    H115201   0.699   4.828   2.578  0.6976  0.5090  0.2383
 5079TIP3    H215202   0.582   4.915   2.617 -0.9246 -1.3951 -0.2439
 5080TIP3   OH215203   0.832   6.599   4.789  0.0913 -0.6264 -0.2956
 5080TIP3    H115204   0.761   6.552   4.745 -1.2638  2.2709 -1.4538
 5080TIP3    H215205   0.805   6.691   4.788  2.6199  0.2685  1.7281
 5081TIP3   OH215206   3.960   4.195   4.525  0.2665 -0.0615 -0.5429
 5081TIP3    H115207   3.885   4.255   4.524  1.7004  1.8664 -2.0719
 5081TIP3    H215208   3.953   4.147   4.443 -0.1034 -1.0092  0.0288
 5082TIP3   OH215209   2.208   3.147   5.335  0.0471 -0.0400  0.3597
 5082TIP3    H115210   2.144   3.142   5.406  0.7393 -0.9385  0.9477
 5082TIP3    H215211   2.257   3.227   5.352  0.9360 -0.8036  1.5674
 5083TIP3   OH215212   2.658   6.550   4.999 -0.1278  0.0826  0.4547
 5083TIP3    H115213   2.653   6.563   4.904  1.6846  1.7241  0.5351
 5083TIP3    H215214   2.690   6.461   5.010 -3.5066 -1.3912 -0.3369
 5084TIP3   OH215215   5.837   0.501   1.461  1.0211  0.0627  0.6090
 5084TIP3    H115216   5.865   0.409   1.463 -1.0689 -0.7327 -2.0678
 5084TIP3    H215217   5.782   0.510   1.539 -0.7535 -1.7186 -0.3635
 5085TIP3   OH215218   4.155   0.987   1.018  0.2353 -0.1518  0.0760
 5085TIP3    H115219   4.085   0.975   0.954  0.6143 -0.6768 -0.2492
 5085TIP3    H215220   4.124   1.058   1.075 -0.7949 -0.7494  0.2712
 5086TIP3   OH215221   6.838   0.458   5.032  0.3076  0.1874 -0.3810
 5086TIP3    H115222   6.844   0.461   4.937  0.5866  0.4651 -0.3556
 5086TIP3    H215223   6.774   0.526   5.054 -0.0487 -0.1436 -0.3966
 5087TIP3   OH215224   4.274   0.189   4.236 -0.0550  0.1568 -1.3947
 5087TIP3    H115225   4.274   0.272   4.188 -0.3758  0.1285 -1.4490
 5087TIP3    H215226   4.199   0.141   4.200 -0.8842  0.5116 -0.2344
 5088TIP3   OH215227   6.795   5.318   0.157  0.2029  0.6294  0.1127
 5088TIP3    H115228   6.785   5.229   0.123 -0.0714  0.1328  1.4221
 5088TIP3    H215229   6.889   5.331   0.166  0.2312  0.3586  0.1958
 5089TIP3   OH215230   5.567   5.617   5.153  0.1994 -0.3035 -0.5204
 5089TIP3    H115231   5.600   5.707   5.148 -0.9488  0.1189 -0.7782
 5089TIP3    H215232   5.564   5.587   5.062  0.2703 -0.4973 -0.4605
 5090TIP3   OH215233   1.846   4.873   5.861  0.7752  0.1737  0.1258
 5090TIP3    H115234   1.780   4.936   5.890  0.3200  0.0675 -0.6527
 5090TIP3    H215235   1.929   4.910   5.891  0.3064 -0.1651  1.9610
 5091TIP3   OH215236   0.815   5.069   4.928  0.5334 -0.5058  0.5591
 5091TIP3    H115237   0.809   4.986   4.976  0.7678 -0.6437  0.3555
 5091TIP3    H215238   0.899   5.106   4.956  1.1587 -1.0673 -0.4859
 5092TIP3   OH215239   6.192   6.340   2.446 -0.8993  0.2924  0.0079
 5092TIP3    H115240   6.225   6.312   2.361  0.3101 -1.9957  1.1526
 5092TIP3    H215241   6.271   6.360   2.497 -1.5077 -0.0899  1.1368
 5093TIP3   OH215242   6.803   6.450   2.516 -0.0496 -0.4784 -0.6344
 5093TIP3    H115243   6.799   6.475   2.423  0.4963 -0.2300 -0.5969
 5093TIP3    H215244   6.743   6.511   2.560  0.1668 -0.1812 -0.7439
 5094TIP3   OH215245   2.785   5.806   5.782  0.4160 -0.4023 -0.1330
 5094TIP3    H115246   2.799   5.893   5.821 -1.3285  0.0606 -0.4339
 5094TIP3    H215247   2.739   5.824   5.700 -0.9947 -1.6401  0.3399
 5095TIP3   OH215248   3.481   3.729   1.374 -0.5174  0.0203 -0.1927
 5095TIP3    H115249   3.419   3.733   1.447 -0.2960 -0.4416  0.0298
 5095TIP3    H215250   3.513   3.639   1.376  1.5428  0.7115  0.8680
 5096TIP3   OH215251   6.657   0.728   2.665 -0.6657 -0.0597 -0.6508
 5096TIP3    H115252   6.629   0.738   2.757 -0.8666  0.6135 -0.7805
 5096TIP3    H215253   6.684   0.816   2.639 -0.2970 -0.3197 -1.1409
 5097TIP3   OH215254   2.661   4.412   4.048 -0.3338 -0.0898 -0.0252
 5097TIP3    H115255   2.605   4.414   4.126  0.0602  1.9843  0.2628
 5097TIP3    H215256   2.715   4.491   4.056 -0.8692  0.6503 -2.8196
 5098TIP3   OH215257   6.402   0.155   0.051  0.3720 -0.4218 -0.3016
 5098TIP3    H115258   6.352   0.149  -0.030  1.5395  0.6704 -1.1408
 5098TIP3    H215259   6.405   0.249   0.071  1.5830 -0.5073  0.0188
 5099TIP3   OH215260   3.066   6.673   0.259  0.1732  0.7256 -0.2663
 5099TIP3    H115261   3.062   6.580   0.234 -1.9379  0.8359 -0.5257
 5099TIP3    H215262   3.097   6.717   0.179  2.3133  0.1969  0.1936
 5100TIP3   OH215263   1.347   4.053   1.128 -0.4804  0.0249 -0.0556
 5100TIP3    H115264   1.286   4.078   1.197  0.4674 -0.4240  0.9812
 5100TIP3    H215265   1.376   4.136   1.091 -1.3092  0.2551 -0.2094
 5101TIP3   OH215266   0.788   3.596   2.671 -0.2601 -0.4776  0.0316
 5101TIP3    H115267   0.758   3.629   2.586  1.5585 -0.5996 -0.7062
 5101TIP3    H215268   0.868   3.548   2.651  0.8428  0.4509  1.9353
 5102TIP3   OH215269   5.015   4.460   4.967  0.5220  0.2301 -0.3769
 5102TIP3    H115270   5.000   4.553   4.951  1.3519  0.5218  0.4740
 5102TIP3    H215271   5.045   4.426   4.883 -0.1858  0.6275 -0.8063
 5103TIP3   OH215272   2.485   1.597   5.741  0.9528 -0.5313  0.1198
 5103TIP3    H115273   2.398   1.573   5.709  0.0709 -0.0516  2.0422
 5103TIP3    H215274   2.478   1.689   5.765  2.2739 -0.2340 -0.5305
 5104TIP3   OH215275   4.634   0.080   2.575 -1.0362 -0.6409  0.0972
 5104TIP3    H115276   4.701   0.147   2.583 -2.3780  0.6574  1.0238
 5104TIP3    H215277   4.647   0.042   2.488  0.3406  0.1538 -0.0678
 5105TIP3   OH215278   2.461   3.565   3.275  0.1860 -0.1092  0.3412
 5105TIP3    H115279   2.466   3.492   3.337 -0.1271 -0.0981  0.3803
 5105TIP3    H215280   2.403   3.532   3.205  1.9587 -0.8155 -0.8704
 5106TIP3   OH215281   4.202   5.174   2.625 -0.7854  0.2372  0.3956
 5106TIP3    H115282   4.291   5.196   2.597 -0.7537 -0.6296 -0.2192
 5106TIP3    H215283   4.195   5.209   2.714  0.3839 -0.2310  0.6858
 5107TIP3   OH215284   1.385   3.483   1.702  0.0069 -0.6609  0.1657
 5107TIP3    H115285   1.424   3.548   1.643  2.4390 -0.5331  1.7638
 5107TIP3    H215286   1.452   3.414   1.708 -0.8733 -1.4387  1.5077
 5108TIP3   OH215287   0.496   5.508   0.520 -0.3010 -0.8745 -0.2236
 5108TIP3    H115288   0.561   5.449   0.483 -0.4238 -0.4433 -1.1625
 5108TIP3    H215289   0.509   5.591   0.473 -0.8346 -0.4758  0.3113
 5109TIP3   OH215290   0.127   1.896   2.757 -0.2697 -0.6504  0.3309
 5109TIP3    H115291   0.181   1.819   2.739  2.9612  1.4468  0.2558
 5109TIP3    H215292   0.131   1.907   2.852 -0.8136 -0.5826  0.3514
 5110TIP3   OH215293   5.885   0.077   0.566 -0.0689 -0.2470 -0.4242
 5110TIP3    H115294   5.808   0.088   0.511  0.2244  1.1738 -0.5778
 5110TIP3    H215295   5.891   0.158   0.616 -1.0541 -1.9377  2.7184
 5111TIP3   OH215296   0.956   3.757   1.090  0.4823 -0.1683 -0.0697
 5111TIP3    H115297   0.944   3.735   0.998 -3.2200 -0.7082  0.3963
 5111TIP3    H215298   0.962   3.853   1.092 -1.0532 -0.0421 -0.7790
 5112TIP3   OH215299   0.654   3.795   2.832  0.4202 -0.5528  0.0779
 5112TIP3    H115300   0.685   3.791   2.923  0.8759 -0.2304 -0.0641
 5112TIP3    H215301   0.727   3.763   2.780 -0.0797 -1.3855 -0.1300
 5113TIP3   OH215302   2.574   1.528   4.341 -0.3757 -0.6998 -0.5553
 5113TIP3    H115303   2.663   1.514   4.373  0.0710 -1.5129 -2.0266
 5113TIP3    H215304   2.565   1.623   4.334 -0.3180 -0.5251  1.4030
 5114TIP3   OH215305   0.843   1.348   0.533  0.5135  0.0881  0.2092
 5114TIP3    H115306   0.780   1.403   0.580  0.0274  0.7149 -1.1233
 5114TIP3    H215307   0.818   1.258   0.556 -1.3726  0.2864 -0.8269
 5115TIP3   OH215308   5.529   2.134   4.822 -0.1165 -0.8293  0.0009
 5115TIP3    H115309   5.607   2.175   4.860 -0.5346  0.4528 -0.4551
 5115TIP3    H215310   5.544   2.040   4.831  0.8052 -0.5850  1.2609
 5116TIP3   OH215311   4.081   6.320   4.254 -0.4292  0.3582  0.2701
 5116TIP3    H115312   4.110   6.323   4.163  1.3510 -2.0998  0.6296
 5116TIP3    H215313   4.162   6.317   4.305 -1.2521 -2.1624  1.6453
 5117TIP3   OH215314   3.778   3.437   0.573  0.2008  0.0469  0.4581
 5117TIP3    H115315   3.683   3.428   0.579  0.2922 -2.3560 -0.6585
 5117TIP3    H215316   3.798   3.429   0.480  1.6024 -1.0779  0.8158
 5118TIP3   OH215317   7.029   2.588   4.508 -0.3902  0.0361 -0.3715
 5118TIP3    H115318   7.036   2.569   4.602  1.2432  1.0917 -0.2248
 5118TIP3    H215319   6.989   2.509   4.471 -1.2316 -0.3390  1.2158
 5119TIP3   OH215320   3.966   4.596   4.495  0.4217 -0.1540  0.0156
 5119TIP3    H115321   4.056   4.572   4.474  0.1017 -1.2185 -0.1840
 5119TIP3    H215322   3.955   4.570   4.587 -0.2802 -1.9130 -0.5325
 5120TIP3   OH215323   5.263   1.578   4.477  0.1526  0.0266  0.7357
 5120TIP3    H115324   5.352   1.572   4.511  0.1223  0.6670  0.9521
 5120TIP3    H215325   5.209   1.540   4.546  0.2334 -0.1096  0.7248
 5121TIP3   OH215326   1.944   3.495   0.927  0.1026  0.1226  0.1825
 5121TIP3    H115327   1.872   3.518   0.985 -1.1790  0.4868 -1.4810
 5121TIP3    H215328   1.986   3.579   0.907 -0.7225  0.2885 -0.9718
 5122TIP3   OH215329   6.380   6.392   1.219 -0.1229 -0.1586 -0.0368
 5122TIP3    H115330   6.433   6.312   1.225 -1.1571 -0.9398 -0.8652
 5122TIP3    H215331   6.317   6.373   1.150 -2.2682  0.2439  1.6943
 5123TIP3   OH215332   3.373   6.597   1.415  0.2314  0.9152  0.0033
 5123TIP3    H115333   3.387   6.599   1.321  0.4361  0.2569  0.0132
 5123TIP3    H215334   3.284   6.563   1.426  1.2184 -1.8754  0.0868
 5124TIP3   OH215335   6.666   0.975   1.669 -0.8330  0.0615 -0.2845
 5124TIP3    H115336   6.714   1.028   1.606  0.9441  0.1645  1.0925
 5124TIP3    H215337   6.704   0.997   1.753 -2.1771 -1.1339  0.6824
 5125TIP3   OH215338   3.038   2.880   5.631  0.0125 -0.4577  0.2875
 5125TIP3    H115339   3.031   2.828   5.551 -0.3504  1.0127 -0.6924
 5125TIP3    H215340   2.978   2.840   5.693 -0.9018 -0.6897 -0.7349
 5126TIP3   OH215341   3.372   0.552   0.778 -0.3882 -0.0650 -1.0325
 5126TIP3    H115342   3.320   0.500   0.717 -0.7332  1.2018 -1.8538
 5126TIP3    H215343   3.455   0.565   0.732  0.6538 -1.9259  0.1962
 5127TIP3   OH215344   6.808   2.447   1.504  0.2779 -0.0216  0.1225
 5127TIP3    H115345   6.768   2.360   1.496 -1.0709  0.3892  1.7600
 5127TIP3    H215346   6.880   2.434   1.566  0.0933  0.0202  0.3467
 5128TIP3   OH215347   6.821   2.697   3.565 -0.4170 -0.3746  0.0103
 5128TIP3    H115348   6.842   2.785   3.535 -0.1806 -0.4511 -0.0561
 5128TIP3    H215349   6.749   2.708   3.626  0.1734 -0.0436  0.6631
 5129TIP3   OH215350   2.374   3.030   4.885  0.1737  0.0861 -0.3081
 5129TIP3    H115351   2.372   3.125   4.872  2.3356  0.3022  0.5227
 5129TIP3    H215352   2.333   3.017   4.970  0.8923  0.4280  0.1041
 5130TIP3   OH215353   5.352   0.612   1.410 -0.2094  0.2040 -0.3721
 5130TIP3    H115354   5.393   0.692   1.444  0.3197 -0.3062  0.1989
 5130TIP3    H215355   5.282   0.593   1.472  1.1326 -1.0595  0.8182
 5131TIP3   OH215356   4.606   4.026   2.514  0.0207 -0.1653 -0.3309
 5131TIP3    H115357   4.604   3.980   2.598 -0.9949 -1.7485 -1.1822
 5131TIP3    H215358   4.515   4.048   2.496  0.1237 -0.5233 -1.3669
 5132TIP3   OH215359   6.946   5.238   0.483 -0.3458 -0.1781  0.0341
 5132TIP3    H115360   6.975   5.328   0.471  0.7014 -0.5108 -0.0414
 5132TIP3    H215361   6.931   5.230   0.577  1.8124 -0.5368  0.4095
 5133TIP3   OH215362   3.373   1.344   1.267 -0.1523 -0.1641 -0.0588
 5133TIP3    H115363   3.343   1.261   1.230  1.6373 -1.1219  0.5501
 5133TIP3    H215364   3.358   1.408   1.197 -2.6324 -0.7017 -0.1345
 5134TIP3   OH215365   1.777   1.915   1.191 -0.1511  0.0925 -0.0642
 5134TIP3    H115366   1.706   1.932   1.253 -0.5642 -3.1036  0.4700
 5134TIP3    H215367   1.735   1.919   1.105 -1.0526 -1.7361  0.2425
 5135TIP3   OH215368   5.377   6.732   3.019 -0.1922  0.6216 -0.6238
 5135TIP3    H115369   5.444   6.756   2.956  0.9177  0.3737  0.4169
 5135TIP3    H215370   5.295   6.733   2.969  0.5133  1.3850 -1.8126
 5136TIP3   OH215371   3.669   3.951   5.009  0.4299  0.2696  0.6214
 5136TIP3    H115372   3.582   3.951   5.049 -0.0228  3.2251 -0.1658
 5136TIP3    H215373   3.724   4.000   5.071  1.2008 -0.2758  0.3914
 5137TIP3   OH215374   5.635   1.523   0.121  0.4438 -0.2288  0.1230
 5137TIP3    H115375   5.567   1.556   0.180  0.6192 -0.9166  0.7234
 5137TIP3    H215376   5.716   1.534   0.170  0.6904 -0.0412 -0.3238
 5138TIP3   OH215377   1.621   1.202   5.393  0.2276 -0.3007 -0.1948
 5138TIP3    H115378   1.677   1.279   5.383  1.2592 -1.1427 -1.2092
 5138TIP3    H215379   1.538   1.237   5.426  0.9674  1.1185  0.2610
 5139TIP3   OH215380   0.519   5.124   4.258  0.0399 -0.0447 -0.3205
 5139TIP3    H115381   0.458   5.118   4.331 -0.6961  1.0645 -0.8225
 5139TIP3    H215382   0.471   5.090   4.183  0.1957  0.4190 -0.6326
 5140TIP3   OH215383   4.975   1.449   2.737  0.8678 -0.0638  0.7043
 5140TIP3    H115384   4.990   1.364   2.779  0.6030 -1.3298 -1.6158
 5140TIP3    H215385   5.020   1.442   2.653 -0.3129  1.5927 -0.1172
 5141TIP3   OH215386   6.693   2.676   1.401  0.1112  0.2465 -0.5217
 5141TIP3    H115387   6.598   2.680   1.417  0.1798  1.5661 -0.3712
 5141TIP3    H215388   6.720   2.594   1.443 -0.9532 -0.1389 -0.5371
 5142TIP3   OH215389   3.602   1.846   0.665  0.3108 -0.6088 -0.0238
 5142TIP3    H115390   3.605   1.928   0.615 -1.3756 -0.1768  0.4926
 5142TIP3    H215391   3.584   1.873   0.755  1.2450 -1.4866  0.4411
 5143TIP3   OH215392   3.973   3.838   3.071 -0.2849  0.6078  0.0931
 5143TIP3    H115393   4.060   3.829   3.111 -1.0298 -1.6271  1.3876
 5143TIP3    H215394   3.915   3.860   3.144 -1.1167  0.1327 -0.4090
 5144TIP3   OH215395   3.845   0.823   1.191 -0.0488  0.0466 -0.3112
 5144TIP3    H115396   3.872   0.794   1.104  1.3018 -1.2108  0.4712
 5144TIP3    H215397   3.824   0.916   1.180  0.5941  0.0383 -1.8762
 5145TIP3   OH215398   6.957   4.242   5.708 -0.0884 -0.0073  0.3148
 5145TIP3    H115399   7.033   4.187   5.687 -1.1818 -1.3850 -0.1108
 5145TIP3    H215400   6.959   4.249   5.804  0.0688 -0.7543  0.3674
 5146TIP3   OH215401   6.788   4.086   0.108  0.7889 -0.2099  0.2786
 5146TIP3    H115402   6.858   4.149   0.126  0.4561 -0.4505  2.6620
 5146TIP3    H215403   6.800   4.017   0.173 -0.5742 -1.1834 -0.4532
 5147TIP3   OH215404   3.950   0.213   3.621  0.2102  0.3568 -0.6225
 5147TIP3    H115405   3.868   0.209   3.572  0.8626  1.4266 -1.8625
 5147TIP3    H215406   4.010   0.155   3.573 -0.0757 -1.2588  0.8736
 5148TIP3   OH215407   5.301   5.320   4.299  0.1355  0.0957 -0.1137
 5148TIP3    H115408   5.281   5.392   4.239 -0.1576 -0.1233 -0.2780
 5148TIP3    H215409   5.216   5.284   4.323  0.3224 -0.9324 -0.9314
 5149TIP3   OH215410   7.148   1.868   5.092  0.2426 -0.4762  0.4902
 5149TIP3    H115411   7.145   1.774   5.075 -0.4380 -0.3829  0.0509
 5149TIP3    H215412   7.109   1.878   5.179  0.4248 -0.6092  0.5883
 5150TIP3   OH215413   3.842   3.847   5.399  0.0463  0.0038  0.0953
 5150TIP3    H115414   3.850   3.867   5.305 -0.7487  0.3696  0.0933
 5150TIP3    H215415   3.878   3.924   5.442  0.2348 -0.0812  0.0899
 5151TIP3   OH215416   1.365   3.414   4.939 -0.2643 -0.6359 -0.3049
 5151TIP3    H115417   1.378   3.340   4.880 -0.8505  0.2884 -1.6456
 5151TIP3    H215418   1.437   3.408   5.002  0.7866 -1.2756 -1.5167
 5152TIP3   OH215419   5.579   4.544   5.088 -0.1278 -0.1539  0.4659
 5152TIP3    H115420   5.525   4.621   5.069  0.0578 -0.5387 -2.0615
 5152TIP3    H215421   5.648   4.575   5.146 -0.5132  1.3905  0.1282
 5153TIP3   OH215422   0.731   3.760   3.110  0.1466  0.2083 -0.0655
 5153TIP3    H115423   0.724   3.825   3.180 -2.8194 -0.2754  0.1970
 5153TIP3    H215424   0.786   3.691   3.147 -0.2333  0.6035  1.3008
 5154TIP3   OH215425   2.179   3.118   1.114 -0.3622  0.3140  0.1617
 5154TIP3    H115426   2.274   3.109   1.103 -0.5316 -1.3490 -0.1504
 5154TIP3    H215427   2.150   3.168   1.038  0.2296  0.6400  0.1470
 5155TIP3   OH215428   1.297   6.344   1.272  0.1052 -0.3160  0.7574
 5155TIP3    H115429   1.236   6.416   1.285  0.3629 -0.3891  2.5990
 5155TIP3    H215430   1.242   6.269   1.251 -0.3408 -0.1178  1.2146
 5156TIP3   OH215431   0.920   5.719   4.796  0.2440  0.3839  0.7450
 5156TIP3    H115432   0.912   5.811   4.771  0.3480  0.1004 -0.3717
 5156TIP3    H215433   0.868   5.711   4.876 -1.6594  0.9366 -0.3807
 5157TIP3   OH215434   6.213   0.217   4.543  0.4737 -0.0645  0.8319
 5157TIP3    H115435   6.299   0.242   4.509  0.8777 -1.4859  0.7509
 5157TIP3    H215436   6.171   0.300   4.564  1.3114  0.7288 -0.4553
 5158TIP3   OH215437   5.172   1.990   2.320 -0.1962 -0.3319  0.2441
 5158TIP3    H115438   5.199   2.061   2.378  1.0019 -1.8138  1.6206
 5158TIP3    H215439   5.144   1.920   2.380 -0.6245 -1.2876 -1.0289
 5159TIP3   OH215440   1.232   3.371   3.875  0.2364  0.0534 -0.3244
 5159TIP3    H115441   1.257   3.371   3.783  1.3796 -0.0867 -0.0217
 5159TIP3    H215442   1.267   3.454   3.909 -0.5967  0.3295 -0.1180
 5160TIP3   OH215443   6.868   2.172   5.396 -0.1361 -0.4998 -0.3592
 5160TIP3    H115444   6.890   2.233   5.326 -1.9026  1.0615  0.3541
 5160TIP3    H215445   6.815   2.105   5.353 -0.0643 -0.3041 -0.7596
 5161TIP3   OH215446   6.193   1.993   4.620  0.0089  0.0808 -0.0880
 5161TIP3    H115447   6.190   2.033   4.533 -0.7117 -0.3002 -0.2430
 5161TIP3    H215448   6.281   2.012   4.652 -0.1676  1.3734 -0.3507
 5162TIP3   OH215449   4.039   3.070   2.115  0.0020 -0.1021 -0.2031
 5162TIP3    H115450   4.101   3.000   2.133  2.5007  1.7674 -0.8823
 5162TIP3    H215451   4.029   3.070   2.020  2.0442  1.9106 -0.5073
 5163TIP3   OH215452   4.503   0.710   0.453  0.1787  0.4113 -0.3061
 5163TIP3    H115453   4.470   0.676   0.536 -0.8616 -2.0508 -1.6288
 5163TIP3    H215454   4.597   0.720   0.467  0.0319  0.0059  1.1520
 5164TIP3   OH215455   4.723   0.019   1.160 -0.3088  0.2116 -0.2816
 5164TIP3    H115456   4.747  -0.047   1.095  1.2450  0.6201 -0.1724
 5164TIP3    H215457   4.800   0.076   1.165 -1.3880  1.6843  0.0501
 5165TIP3   OH215458   4.582   2.282   3.640 -0.4839 -0.0932  0.4444
 5165TIP3    H115459   4.515   2.342   3.607 -0.5384 -0.2586  0.2504
 5165TIP3    H215460   4.536   2.199   3.653 -0.4611 -0.0259  0.9452
 5166TIP3   OH215461   6.100   2.377   0.958  0.5207  0.5011  0.2672
 5166TIP3    H115462   6.148   2.460   0.966  1.1081  0.1912 -0.0087
 5166TIP3    H215463   6.166   2.309   0.968  0.2360  0.0648 -0.7132
 5167TIP3   OH215464   0.104   3.937   3.688  0.5842 -0.3050  0.1227
 5167TIP3    H115465   0.083   3.854   3.731 -0.8019 -0.1659 -0.2382
 5167TIP3    H215466   0.032   3.995   3.712  2.5652  1.5269  2.1549
 5168TIP3   OH215467   2.811   0.502   0.925 -0.6545  0.4713 -0.2097
 5168TIP3    H115468   2.740   0.438   0.917 -0.2065 -0.1535  0.6077
 5168TIP3    H215469   2.888   0.450   0.951 -0.1097  1.2484 -0.2140
 5169TIP3   OH215470   1.149   5.436   3.705 -0.3620 -0.1575 -0.0611
 5169TIP3    H115471   1.217   5.373   3.727 -1.8669 -3.0393 -2.7922
 5169TIP3    H215472   1.197   5.513   3.674  1.6035 -1.0811  0.5416
 5170TIP3   OH215473   4.665   1.448   5.332 -0.4621 -0.1573  0.0709
 5170TIP3    H115474   4.729   1.484   5.393 -1.2861 -0.7904  1.3616
 5170TIP3    H215475   4.657   1.514   5.263 -1.0133  1.5699  1.7084
 5171TIP3   OH215476   0.408   2.076   2.277  0.0468 -0.4918  0.5034
 5171TIP3    H115477   0.496   2.065   2.312  0.0018 -1.9871  0.1996
 5171TIP3    H215478   0.371   1.988   2.276 -1.3120  0.0523  0.2406
 5172TIP3   OH215479   3.504   1.801   1.982  0.0692  0.9866  0.2616
 5172TIP3    H115480   3.498   1.834   2.072  0.6291  0.1394  0.6220
 5172TIP3    H215481   3.594   1.771   1.973 -0.5850 -1.1095  0.2034
 5173TIP3   OH215482   5.597   4.155   4.931 -0.4041  0.2804 -0.6583
 5173TIP3    H115483   5.627   4.167   5.021 -0.4067 -2.8184 -0.1106
 5173TIP3    H215484   5.669   4.110   4.887 -0.8088  0.8155 -1.9390
 5174TIP3   OH215485   0.394   5.725   1.839  0.1564  0.3573 -0.3453
 5174TIP3    H115486   0.423   5.636   1.820  0.3314  0.4040 -0.2970
 5174TIP3    H215487   0.422   5.741   1.929  0.4494  0.5908 -0.4736
 5175TIP3   OH215488   0.658   4.067   0.674 -0.5099 -0.3863  0.0345
 5175TIP3    H115489   0.728   4.062   0.609 -1.9420 -1.9668 -1.4936
 5175TIP3    H215490   0.592   4.124   0.634 -0.5370  0.2793  1.0093
 5176TIP3   OH215491   7.137   0.875   1.055 -1.2113  0.0705 -0.7848
 5176TIP3    H115492   7.168   0.965   1.058 -0.0743 -0.2904 -1.1525
 5176TIP3    H215493   7.191   0.833   0.988 -1.4296 -1.0004 -0.3118
 5177TIP3   OH215494   0.515   0.366   2.880 -0.3522 -0.1096 -1.0048
 5177TIP3    H115495   0.555   0.321   2.955 -1.7074  0.8026  0.3476
 5177TIP3    H215496   0.462   0.435   2.920 -1.6337  0.0045 -2.7942
 5178TIP3   OH215497   0.824   0.905   5.637  0.0131  0.0557 -0.3837
 5178TIP3    H115498   0.801   0.995   5.614  1.1005  0.4876  0.1707
 5178TIP3    H215499   0.795   0.895   5.727 -1.1066 -0.5317 -0.7774
 5179TIP3   OH215500   2.126   1.981   5.031 -0.1969  0.1649  0.3956
 5179TIP3    H115501   2.060   1.918   5.059  0.1422  0.1801  1.2452
 5179TIP3    H215502   2.116   2.054   5.092  2.6139 -1.0744  2.5364
 5180TIP3   OH215503   2.251   5.291   2.653 -0.5451  0.7945 -0.2002
 5180TIP3    H115504   2.227   5.276   2.744 -1.3278 -0.7538 -0.6248
 5180TIP3    H215505   2.227   5.382   2.636 -0.2334  1.1596  1.1601
 5181TIP3   OH215506   5.854   6.342   4.519 -0.2375 -0.1259 -0.1322
 5181TIP3    H115507   5.762   6.317   4.528 -0.9196  1.8215 -1.1322
 5181TIP3    H215508   5.855   6.407   4.448  1.9053 -0.0621 -0.1210
 5182TIP3   OH215509   3.542   4.450   3.857  0.2223  0.0224 -0.0447
 5182TIP3    H115510   3.528   4.538   3.891  1.8897  0.5624 -0.6328
 5182TIP3    H215511   3.568   4.463   3.766 -1.5637 -1.2334 -0.7861
 5183TIP3   OH215512   1.751   0.820   1.765  0.5039  0.9379 -0.0136
 5183TIP3    H115513   1.836   0.851   1.736  1.4419 -0.9310  0.5499
 5183TIP3    H215514   1.730   0.873   1.842  1.2746  1.2341 -0.0052
 5184TIP3   OH215515   6.110   5.635   5.334  0.9877 -0.4877  0.2295
 5184TIP3    H115516   6.150   5.652   5.419 -1.1178  3.9584  0.6243
 5184TIP3    H215517   6.017   5.626   5.353  0.8109 -3.3303 -1.3638
 5185TIP3   OH215518   3.455   3.433   3.597 -0.2402  0.9681  0.0604
 5185TIP3    H115519   3.545   3.467   3.598 -0.8401  2.7030 -0.8475
 5185TIP3    H215520   3.448   3.381   3.678  1.5705  0.7470  0.1262
 5186TIP3   OH215521   5.142   1.462   2.512  0.3401 -0.0474  0.1176
 5186TIP3    H115522   5.067   1.441   2.456 -0.2275  0.4968  0.6567
 5186TIP3    H215523   5.217   1.423   2.467 -0.1756 -0.0751 -0.7504
 5187TIP3   OH215524   3.948   4.537   2.555 -0.3604  0.1120  0.0249
 5187TIP3    H115525   3.951   4.604   2.624  0.0102 -1.3675  1.5178
 5187TIP3    H215526   3.935   4.587   2.474  0.1176  1.9982  1.0349
 5188TIP3   OH215527   6.492   4.874   3.633  0.0230 -0.0861 -0.1206
 5188TIP3    H115528   6.506   4.911   3.720  0.9143  1.1104 -0.7355
 5188TIP3    H215529   6.508   4.780   3.643  2.9247  0.3940  0.4514
 5189TIP3   OH215530   2.785   3.187   0.967 -0.3804  0.4130 -0.1938
 5189TIP3    H115531   2.750   3.170   1.054 -0.0810 -1.9098 -0.4391
 5189TIP3    H215532   2.736   3.128   0.910 -0.6008  1.9229 -1.6201
 5190TIP3   OH215533   1.800   6.348   4.970  0.0078  0.7559  0.0009
 5190TIP3    H115534   1.794   6.407   5.045  2.5194  0.0058  0.8697
 5190TIP3    H215535   1.865   6.389   4.912 -1.2986  0.9093 -1.4410
 5191TIP3   OH215536   0.554   0.469   4.633 -0.1047 -0.6719  0.0878
 5191TIP3    H115537   0.535   0.559   4.606  1.5505 -0.2795  0.1315
 5191TIP3    H215538   0.574   0.423   4.551 -1.5126 -1.1799 -0.0009
 5192TIP3   OH215539   6.487   0.643   5.835 -0.0772 -0.0033  0.6683
 5192TIP3    H115540   6.531   0.707   5.891  1.9336 -0.3491 -0.4088
 5192TIP3    H215541   6.514   0.667   5.746 -0.7424 -1.2835  0.0935
 5193TIP3   OH215542   3.212   0.705   5.026 -0.5739 -0.2614  0.0209
 5193TIP3    H115543   3.196   0.693   4.932  0.1348 -0.3672 -0.0924
 5193TIP3    H215544   3.283   0.768   5.030 -0.7431 -0.1032  0.4968
 5194TIP3   OH215545   6.638   5.025   0.758 -0.7603 -0.0922  0.2610
 5194TIP3    H115546   6.624   5.066   0.844  1.3774  0.5565  0.3623
 5194TIP3    H215547   6.633   5.098   0.696  0.4476 -0.0621  0.1651
 5195TIP3   OH215548   4.603   0.391   0.994 -0.6042  0.9093  0.4391
 5195TIP3    H115549   4.667   0.335   0.950 -1.4847 -0.0210  0.2932
 5195TIP3    H215550   4.656   0.451   1.047  0.3722 -0.3516  0.9470
 5196TIP3   OH215551   3.328   5.608   3.373 -0.5016  0.1904  0.0314
 5196TIP3    H115552   3.403   5.570   3.419 -1.3929 -1.8380 -0.0945
 5196TIP3    H215553   3.335   5.702   3.391  0.2900 -0.2778  2.6946
 5197TIP3   OH215554   1.622   0.786   0.800  0.0077  0.4744 -0.3529
 5197TIP3    H115555   1.612   0.809   0.708 -1.2776  1.8859  0.0873
 5197TIP3    H215556   1.710   0.814   0.822  0.2985  0.1963 -1.1223
 5198TIP3   OH215557   5.453   6.176   4.932  0.2319  0.1867 -0.0169
 5198TIP3    H115558   5.377   6.202   4.984  0.0165 -0.5329  0.0409
 5198TIP3    H215559   5.448   6.081   4.927 -0.8258  0.2890 -2.9583
 5199TIP3   OH215560   2.721   3.689   2.628 -0.1658  0.4307 -0.0192
 5199TIP3    H115561   2.648   3.712   2.685 -0.1057 -1.2005  0.7888
 5199TIP3    H215562   2.760   3.611   2.669  1.3150  0.5807 -1.0493
 5200TIP3   OH215563   2.655   0.688   0.767 -0.5368 -0.4016  0.0803
 5200TIP3    H115564   2.622   0.721   0.851  0.0258 -0.1443  0.2070
 5200TIP3    H215565   2.707   0.611   0.791 -1.1226 -0.8654 -0.1263
 5201TIP3   OH215566   5.948   6.615   0.208  0.2173 -0.6861 -0.0860
 5201TIP3    H115567   5.989   6.657   0.284 -2.1767  0.9577  0.4124
 5201TIP3    H215568   5.867   6.577   0.242 -0.6176 -0.4361 -1.6838
 5202TIP3   OH215569   4.583   1.698   1.949 -0.0090 -0.3529 -0.6996
 5202TIP3    H115570   4.528   1.747   2.010 -0.6028 -0.7041 -0.9339
 5202TIP3    H215571   4.587   1.753   1.871 -0.0098 -0.3142 -0.6722
 5203TIP3   OH215572   5.659   2.631   1.370  0.1961 -0.2589 -0.4540
 5203TIP3    H115573   5.694   2.656   1.455  0.1059 -0.5236 -0.3388
 5203TIP3    H215574   5.584   2.689   1.357  0.1678 -0.2656 -0.3223
 5204TIP3   OH215575   6.110   0.031   1.769  0.2347  0.2121 -0.0827
 5204TIP3    H115576   6.026  -0.014   1.766  0.7702 -0.7976 -0.2907
 5204TIP3    H215577   6.122   0.066   1.680  0.0590  0.3256 -0.0624
 5205TIP3   OH215578   1.123   0.596   1.577  0.1591 -0.0003  0.1974
 5205TIP3    H115579   1.078   0.666   1.531  0.7381 -0.5430 -1.2528
 5205TIP3    H215580   1.167   0.546   1.508 -0.1957 -1.7619  1.1828
 5206TIP3   OH215581   7.045   2.570   0.549  0.4679 -0.0438  0.0405
 5206TIP3    H115582   7.084   2.619   0.477 -0.3061 -0.9249 -1.0003
 5206TIP3    H215583   7.119   2.523   0.589  0.9235  0.5833 -0.0487
 5207TIP3   OH215584   4.475   4.966   2.985  0.1825 -0.3912  0.1544
 5207TIP3    H115585   4.440   4.883   3.018  0.7902 -0.4049  0.8128
 5207TIP3    H215586   4.562   4.943   2.951  0.0483 -0.1544 -0.3578
 5208TIP3   OH215587   3.783   6.645   4.162  0.3337  0.0109  0.5216
 5208TIP3    H115588   3.774   6.578   4.229  0.5103 -0.7824 -0.2232
 5208TIP3    H215589   3.873   6.634   4.130 -0.3388 -0.9779 -1.2047
 5209TIP3   OH215590   3.389   1.775   3.566 -0.1958  0.2148  0.4046
 5209TIP3    H115591   3.336   1.716   3.513 -0.5120  1.8126 -1.1507
 5209TIP3    H215592   3.473   1.780   3.520 -0.4168  1.4829  0.0902
 5210TIP3   OH215593   6.134   0.740   4.643 -0.2700  0.1060 -0.4743
 5210TIP3    H115594   6.222   0.777   4.635  0.4565 -1.0305  1.4924
 5210TIP3    H215595   6.075   0.813   4.626  1.0293  0.8661 -1.9217
 5211TIP3   OH215596   2.742   6.293   5.082 -0.1685  0.4434 -0.2021
 5211TIP3    H115597   2.700   6.237   5.017 -0.6543  1.0448 -0.4202
 5211TIP3    H215598   2.833   6.300   5.052  0.3818 -1.6398  0.7929
 5212TIP3   OH215599   4.880   5.233   2.226  0.8221  0.2028  0.0209
 5212TIP3    H115600   4.883   5.190   2.141  0.4122 -0.7394  0.4715
 5212TIP3    H215601   4.786   5.244   2.244  0.9184  1.3522 -0.1170
 5213TIP3   OH215602   1.789   2.101   2.211 -0.1798  0.1418 -0.3098
 5213TIP3    H115603   1.815   2.009   2.202  1.6367  0.5083  0.8065
 5213TIP3    H215604   1.865   2.151   2.182  0.1100  1.2654  2.1462
 5214TIP3   OH215605   0.004   1.604   3.283  0.0262  0.5291 -0.2074
 5214TIP3    H115606   0.097   1.604   3.260  0.8006  0.4178  2.5615
 5214TIP3    H215607  -0.011   1.690   3.324 -0.6041 -0.1292  0.9965
 5215TIP3   OH215608   0.714   1.849   2.160  0.1486 -0.1498  0.7733
 5215TIP3    H115609   0.744   1.884   2.076  1.6360 -0.6382  1.0660
 5215TIP3    H215610   0.723   1.754   2.150 -1.9785 -0.3876  0.6633
 5216TIP3   OH215611   5.725   6.278   4.846  0.1234  0.2613 -0.2805
 5216TIP3    H115612   5.697   6.263   4.756 -2.3743  1.3968  0.1996
 5216TIP3    H215613   5.644   6.275   4.897  1.4477 -0.2663  1.9399
 5217TIP3   OH215614   5.452   3.815   3.285 -0.0736  0.3777 -0.2428
 5217TIP3    H115615   5.469   3.870   3.361  0.6657  1.5969 -1.2400
 5217TIP3    H215616   5.538   3.788   3.255 -0.3956 -0.7202 -0.2259
 5218TIP3   OH215617   3.508   6.441   0.080  0.1058 -0.1449  0.0945
 5218TIP3    H115618   3.456   6.413   0.155 -1.4703  0.5870 -0.6621
 5218TIP3    H215619   3.449   6.428   0.005  0.7865  1.3502 -0.7263
 5219TIP3   OH215620   5.553   6.544   1.244  0.1845  0.5148 -0.0850
 5219TIP3    H115621   5.517   6.490   1.174 -0.0005 -1.0853  1.1896
 5219TIP3    H215622   5.574   6.627   1.202  0.8043 -0.6475 -2.2182
 5220TIP3   OH215623   3.703   6.182   3.731 -0.1799  0.5644 -0.1716
 5220TIP3    H115624   3.697   6.277   3.735 -0.6083  0.5328 -0.0569
 5220TIP3    H215625   3.700   6.154   3.822  2.0413  0.5570 -0.0480
 5221TIP3   OH215626   5.669   6.058   4.656  0.4224  0.1083  0.1885
 5221TIP3    H115627   5.741   6.035   4.598 -0.2883 -0.7201 -0.3907
 5221TIP3    H215628   5.650   5.977   4.704  0.2618  0.4786  0.7629
 5222TIP3   OH215629   6.646   0.230   1.285  0.1147  0.3892 -0.1859
 5222TIP3    H115630   6.566   0.229   1.233  0.3980  1.5257 -0.6719
 5222TIP3    H215631   6.615   0.237   1.376 -0.4851 -4.1022  0.1871
 5223TIP3   OH215632   5.611   4.766   0.781  0.1228  0.0377  0.3911
 5223TIP3    H115633   5.627   4.675   0.758 -0.0221  0.1021  0.0265
 5223TIP3    H215634   5.517   4.771   0.798  0.0741  0.1847  0.0924
 5224TIP3   OH215635   6.684   5.902   2.275  0.1408  0.1904  1.2340
 5224TIP3    H115636   6.675   5.808   2.260 -3.6844  0.6277 -0.5972
 5224TIP3    H215637   6.728   5.935   2.196 -1.5600  0.1980  0.2259
 5225TIP3   OH215638   6.198   0.391   2.936 -0.6535  0.2138 -0.4235
 5225TIP3    H115639   6.194   0.448   2.859 -2.2775 -0.4077 -0.8580
 5225TIP3    H215640   6.140   0.432   3.000 -2.2631 -1.1328 -0.9335
 5226TIP3   OH215641   0.699   1.634   0.606 -0.4400  0.3671  0.1786
 5226TIP3    H115642   0.688   1.591   0.691  0.4674 -1.4596 -0.5815
 5226TIP3    H215643   0.791   1.621   0.584 -0.2133  2.4102 -0.2867
 5227TIP3   OH215644   1.883   3.112   1.522 -0.3031  0.7469 -0.0914
 5227TIP3    H115645   1.965   3.149   1.489  0.3086 -1.1893 -0.9334
 5227TIP3    H215646   1.864   3.039   1.462 -3.3275  1.8511 -0.6781
 5228TIP3   OH215647   4.787   4.220   2.440  0.3953 -0.4575  0.2073
 5228TIP3    H115648   4.712   4.162   2.455  0.1881 -0.4537 -0.7647
 5228TIP3    H215649   4.857   4.161   2.410  0.5114 -0.3427  0.2506
 5229TIP3   OH215650   3.007   1.130   4.780  0.1437  0.4159 -0.1034
 5229TIP3    H115651   2.912   1.116   4.775  0.3317 -0.9474 -0.1908
 5229TIP3    H215652   3.044   1.043   4.769  1.3575  0.6822  1.5528
 5230TIP3   OH215653   7.094   2.588   2.946  0.0826 -0.7846  1.0408
 5230TIP3    H115654   7.069   2.626   2.862  1.3082 -2.0133  0.0824
 5230TIP3    H215655   7.042   2.637   3.011  0.8302  1.8098 -0.1891
 5231TIP3   OH215656   4.269   5.946   5.717 -0.1585  0.1876  0.1289
 5231TIP3    H115657   4.183   5.963   5.679  1.2549 -0.4027 -3.8215
 5231TIP3    H215658   4.320   5.909   5.645  2.3674 -3.1353  3.2149
 5232TIP3   OH215659   2.246   6.549   4.315 -0.3818  0.7337  0.4408
 5232TIP3    H115660   2.275   6.631   4.276  1.8277  0.3423  1.1252
 5232TIP3    H215661   2.241   6.488   4.242  1.2074  0.6697  0.3543
 5233TIP3   OH215662   2.437   3.084   1.131  0.5045  0.4511 -0.1879
 5233TIP3    H115663   2.522   3.040   1.137 -0.0976 -0.5891  1.6759
 5233TIP3    H215664   2.399   3.075   1.219 -1.6463  0.6458 -1.0286
 5234TIP3   OH215665   4.126   1.862   4.069  0.2822  0.1107 -0.3112
 5234TIP3    H115666   4.176   1.818   4.000 -0.7812 -0.7674 -0.5469
 5234TIP3    H215667   4.119   1.953   4.040 -0.7978 -0.4106 -1.7521
 5235TIP3   OH215668   1.769   4.228   5.818 -0.1850  0.6895  0.2374
 5235TIP3    H115669   1.829   4.227   5.743  0.1328  3.1270  0.3845
 5235TIP3    H215670   1.682   4.226   5.779 -0.0574 -0.7082 -0.0513
 5236TIP3   OH215671   2.499   6.305   0.698  0.3801  0.2898 -0.1920
 5236TIP3    H115672   2.513   6.289   0.605  1.5284 -0.3697  0.0776
 5236TIP3    H215673   2.411   6.342   0.703  1.1023  2.3865 -1.7499
 5237TIP3   OH215674   1.621   0.886   3.481 -0.0406  0.5955  0.3594
 5237TIP3    H115675   1.589   0.815   3.425 -1.9885  1.5660  0.1482
 5237TIP3    H215676   1.576   0.964   3.449 -1.2632  1.2005  3.2006
 5238TIP3   OH215677   1.653   3.351   5.047  0.1148 -0.0520 -0.9351
 5238TIP3    H115678   1.648   3.426   5.105  2.2154 -0.4825 -0.1101
 5238TIP3    H215679   1.647   3.275   5.105  0.8757 -0.4877 -1.4063
 5239TIP3   OH215680   6.053   3.659   2.291 -0.1538 -0.3075  0.0423
 5239TIP3    H115681   6.026   3.744   2.325 -1.0532  1.1331 -3.7037
 5239TIP3    H215682   5.975   3.626   2.246  0.3706 -2.8949  0.8498
 5240TIP3   OH215683   0.807   2.196   2.909  0.6430 -0.3604 -0.3465
 5240TIP3    H115684   0.825   2.241   2.827 -1.0133  1.8616  0.4144
 5240TIP3    H215685   0.892   2.193   2.953  1.5260 -1.4480 -2.0054
 5241TIP3   OH215686   0.366   4.813   0.029  0.1503 -0.2835  0.1627
 5241TIP3    H115687   0.325   4.885   0.076  0.4750  0.2561 -0.3739
 5241TIP3    H215688   0.437   4.784   0.087  0.1834 -0.0025  0.2625
 5242TIP3   OH215689   4.895   5.746   3.528 -0.0490  0.2283 -0.2461
 5242TIP3    H115690   4.845   5.826   3.515  1.0632  0.7065 -1.8324
 5242TIP3    H215691   4.981   5.764   3.490  0.8517 -1.1000  1.0053
 5243TIP3   OH215692   6.125   6.379   1.850 -0.2294 -0.0819  0.6826
 5243TIP3    H115693   6.163   6.448   1.904 -0.5484 -0.2913  1.1851
 5243TIP3    H215694   6.076   6.425   1.783  2.5332  0.2646 -1.2605
 5244TIP3   OH215695   2.838   3.774   0.934  0.0984  0.0104  0.9213
 5244TIP3    H115696   2.791   3.747   1.013 -2.5081 -0.8443 -0.7675
 5244TIP3    H215697   2.828   3.869   0.931 -0.8440 -0.0756  1.0208
 5245TIP3   OH215698   4.809   0.188   2.068 -0.0071 -0.3191 -0.0384
 5245TIP3    H115699   4.833   0.096   2.075  0.5979 -0.3750 -2.0648
 5245TIP3    H215700   4.885   0.230   2.028 -0.3771  1.0148  0.5916
 5246TIP3   OH215701   5.960   2.886   2.840 -0.0923  0.0187 -0.0524
 5246TIP3    H115702   5.869   2.893   2.869 -0.1116  0.6477 -0.2595
 5246TIP3    H215703   5.985   2.975   2.816  0.8525  0.0125  0.8180
 5247TIP3   OH215704   6.270   4.298   3.183  0.1849 -0.5326  0.6337
 5247TIP3    H115705   6.222   4.216   3.193  0.1852 -0.7286 -0.8111
 5247TIP3    H215706   6.219   4.348   3.119  2.3839 -1.1854 -1.7818
 5248TIP3   OH215707   6.055   6.344   1.567  0.0209  0.2696  0.2056
 5248TIP3    H115708   6.135   6.389   1.540  0.6715 -0.4800  0.8372
 5248TIP3    H215709   6.085   6.277   1.629 -0.7331 -1.9018 -1.6090
 5249TIP3   OH215710   0.272   1.757   4.999 -0.1904 -0.6169 -0.1668
 5249TIP3    H115711   0.334   1.771   4.927 -1.2825  1.2946 -0.7906
 5249TIP3    H215712   0.214   1.688   4.967 -1.0268  0.6186 -1.4249
 5250TIP3   OH215713   1.155   1.856   3.818 -0.3444  0.2698 -0.0039
 5250TIP3    H115714   1.142   1.776   3.869  0.6047  0.2683  0.2457
 5250TIP3    H215715   1.134   1.927   3.879  1.2334  0.2860  0.5638
 5251TIP3   OH215716   4.079   6.576   3.771  0.1112  0.6838 -0.1071
 5251TIP3    H115717   4.022   6.558   3.697  1.3081  0.0199 -0.9160
 5251TIP3    H215718   4.167   6.553   3.740  0.4901 -1.1175  1.9940
 5252TIP3   OH215719   5.841   1.778   0.421  0.1391  0.2202 -0.5119
 5252TIP3    H115720   5.804   1.745   0.339  1.4877 -0.4857 -0.8787
 5252TIP3    H215721   5.934   1.752   0.417 -0.2131 -1.9399  2.2644
 5253TIP3   OH215722   6.389   4.852   1.396 -0.3842  0.1066  0.3406
 5253TIP3    H115723   6.478   4.857   1.362 -0.6410 -0.5416 -0.4742
 5253TIP3    H215724   6.390   4.776   1.455 -0.6980 -0.7206 -0.6838
 5254TIP3   OH215725   2.052   0.896   2.948 -0.5361  0.1603 -0.2510
 5254TIP3    H115726   2.010   0.944   3.020  0.7522  1.5457 -0.3816
 5254TIP3    H215727   1.997   0.819   2.936 -2.4940  1.4237  0.1956
 5255TIP3   OH215728   6.524   0.174   1.526 -0.3911  0.3343 -0.1927
 5255TIP3    H115729   6.443   0.225   1.535 -0.1089  0.7903 -0.2134
 5255TIP3    H215730   6.496   0.083   1.536 -0.7722  0.5352  0.7360
 5256TIP3   OH215731   2.082   1.391   3.823  0.1578 -0.2364 -0.2691
 5256TIP3    H115732   2.042   1.310   3.856 -1.9892  0.9161  0.0974
 5256TIP3    H215733   2.123   1.430   3.900  0.8093 -0.7244 -0.3555
 5257TIP3   OH215734   4.348   0.020   2.524  0.1569 -0.3446  0.5322
 5257TIP3    H115735   4.437  -0.010   2.541 -0.5392 -2.5050  0.7550
 5257TIP3    H215736   4.315   0.047   2.610  0.5855  0.5073  0.4412
 5258TIP3   OH215737   3.881   1.003   5.289  0.1175  0.2444 -0.3791
 5258TIP3    H115738   3.924   1.036   5.210 -1.7131 -0.1779 -1.6266
 5258TIP3    H215739   3.873   1.079   5.346  0.0907  0.9170 -1.2579
 5259TIP3   OH215740   5.178   1.078   5.521  0.1630  0.2607 -0.3374
 5259TIP3    H115741   5.121   1.155   5.515  0.8661  0.7780 -0.4589
 5259TIP3    H215742   5.117   1.005   5.533 -0.5366  0.7893 -0.5594
 5260TIP3   OH215743   6.667   5.784   3.776  0.3858  0.1154 -0.3819
 5260TIP3    H115744   6.627   5.857   3.823  0.2174 -1.6868  2.5162
 5260TIP3    H215745   6.594   5.739   3.736  0.3342  0.7249 -0.9899
 5261TIP3   OH215746   3.140   2.578   2.215  0.0134  0.7957 -0.1165
 5261TIP3    H115747   3.169   2.607   2.129  0.6553 -1.2013 -0.6175
 5261TIP3    H215748   3.057   2.534   2.198 -0.7038  1.8284  0.5603
 5262TIP3   OH215749   3.079   6.795   4.722  0.2209 -0.1292  0.8316
 5262TIP3    H115750   3.017   6.829   4.657  0.6441  0.8940  0.9518
 5262TIP3    H215751   3.140   6.742   4.671  1.2858  1.6575  0.1634
 5263TIP3   OH215752   1.776   0.803   4.056  0.2412 -0.0505 -0.3033
 5263TIP3    H115753   1.806   0.810   3.966  0.6214  2.0697 -0.0639
 5263TIP3    H215754   1.855   0.811   4.109  0.2761 -3.1056  0.2586
 5264TIP3   OH215755   2.876   5.321   4.353  0.0777  0.1208 -0.3133
 5264TIP3    H115756   2.807   5.299   4.291  0.7201 -0.4071 -0.8472
 5264TIP3    H215757   2.885   5.243   4.408  0.7558 -0.0897 -0.7204
 5265TIP3   OH215758   4.152   3.275   1.577 -0.0228  0.3345  0.1779
 5265TIP3    H115759   4.181   3.365   1.590  1.2049 -0.1390  0.8805
 5265TIP3    H215760   4.099   3.278   1.497  2.7367  1.1554 -1.7870
 5266TIP3   OH215761   3.603   2.825   1.132 -0.7077  0.1668  0.0512
 5266TIP3    H115762   3.548   2.797   1.206 -1.3902 -0.1909 -0.5795
 5266TIP3    H215763   3.576   2.915   1.115 -3.0262 -0.8122 -1.9284
 5267TIP3   OH215764   0.797   0.325   0.964 -0.2954 -0.0940 -0.2627
 5267TIP3    H115765   0.731   0.317   1.033  0.4094  0.3241  0.4721
 5267TIP3    H215766   0.762   0.392   0.905  0.1243  1.2155  0.9153
 5268TIP3   OH215767   6.782   0.174   4.316 -0.0149  0.0593 -0.5984
 5268TIP3    H115768   6.869   0.205   4.342 -0.6015  2.2780 -1.1070
 5268TIP3    H215769   6.790   0.078   4.316  1.5326  0.0757  2.3319
 5269TIP3   OH215770   2.666   0.999   3.665  0.6996 -0.4777  0.1370
 5269TIP3    H115771   2.620   1.083   3.658  1.0090 -0.2363  0.8975
 5269TIP3    H215772   2.636   0.949   3.589 -0.9933 -0.4230  0.7298
 5270TIP3   OH215773   4.843   0.246   2.584  0.1009 -0.1864 -0.2072
 5270TIP3    H115774   4.887   0.175   2.538  1.7720 -1.4573  3.0181
 5270TIP3    H215775   4.911   0.283   2.641 -1.3959  2.3009  0.1008
 5271TIP3   OH215776   5.252   5.026   3.498 -0.1277 -1.0811 -0.0257
 5271TIP3    H115777   5.266   5.118   3.477  1.2927 -1.0726  0.8267
 5271TIP3    H215778   5.209   5.027   3.583  2.1139 -1.1753  1.1884
 5272TIP3   OH215779   3.282   6.201   3.732  0.3546 -0.3464 -0.3114
 5272TIP3    H115780   3.206   6.255   3.710  0.2419  0.6138  2.1225
 5272TIP3    H215781   3.342   6.261   3.776  2.0534 -1.3441 -1.1669
 5273TIP3   OH215782   6.865   5.113   3.779  0.0520  0.2952  0.1552
 5273TIP3    H115783   6.787   5.059   3.792  1.0148 -1.0136  0.8000
 5273TIP3    H215784   6.837   5.182   3.719 -1.8680  0.4691  1.1483
 5274TIP3   OH215785   5.406   4.988   5.893 -0.2972 -0.0192 -0.2569
 5274TIP3    H115786   5.405   4.998   5.798  0.4236 -0.8532 -0.3618
 5274TIP3    H215787   5.353   5.061   5.925 -1.3995 -0.3106 -1.3389
 5275TIP3   OH215788   2.805   5.485   0.999  0.5484 -0.5146 -0.0833
 5275TIP3    H115789   2.751   5.563   0.986 -0.1317 -0.2305  3.5294
 5275TIP3    H215790   2.805   5.442   0.913 -2.9870  0.9754 -1.0118
 5276TIP3   OH215791   5.624   2.785   5.222 -0.3024 -0.7388 -1.0091
 5276TIP3    H115792   5.544   2.811   5.267  0.7636  1.6633 -0.3282
 5276TIP3    H215793   5.694   2.799   5.286  0.8275 -1.2284 -2.0851
 5277TIP3   OH215794   3.966   0.791   2.079 -0.0313 -0.2574 -0.3124
 5277TIP3    H115795   3.968   0.845   2.000 -0.7999 -2.7205 -2.1437
 5277TIP3    H215796   4.057   0.763   2.091  0.1712  0.5082 -0.0080
 5278TIP3   OH215797   6.650   0.885   0.460 -0.2964  0.1862 -0.2079
 5278TIP3    H115798   6.603   0.864   0.379 -1.2906  0.1446  0.3707
 5278TIP3    H215799   6.645   0.804   0.512 -0.2563  0.4346  0.1820
 5279TIP3   OH215800   5.288   2.992   4.629  0.2391 -0.3360  0.4071
 5279TIP3    H115801   5.368   3.043   4.645  1.8459 -2.4803 -0.3195
 5279TIP3    H215802   5.294   2.919   4.690 -0.5974 -1.1456 -0.4617
 5280TIP3   OH215803   0.060   2.168   0.130 -0.2380 -0.1674  0.1125
 5280TIP3    H115804   0.147   2.128   0.123  0.3914  1.2193 -0.2015
 5280TIP3    H215805   0.008   2.123   0.064  0.3407 -0.7508  0.0410
 5281TIP3   OH215806   1.005   5.959   0.610  0.1268  0.2039  0.3562
 5281TIP3    H115807   0.931   6.014   0.586  0.9058  1.7430  1.3468
 5281TIP3    H215808   1.075   5.985   0.550  1.3942  2.4766  2.6485
 5282TIP3   OH215809   4.690   5.452   2.017  0.4950  0.0608 -0.6319
 5282TIP3    H115810   4.681   5.367   1.973  1.5021  0.2027 -1.1466
 5282TIP3    H215811   4.665   5.516   1.951 -0.6324  0.1694 -0.1259
 5283TIP3   OH215812   1.066   6.787   0.089  0.3843  0.0227 -0.0374
 5283TIP3    H115813   1.028   6.810   0.004  1.0942 -1.2153 -0.7240
 5283TIP3    H215814   1.151   6.748   0.067  1.4865  1.4734  1.3585
 5284TIP3   OH215815   4.924   4.872   5.334  0.2345 -0.0897  0.7325
 5284TIP3    H115816   5.001   4.929   5.334 -0.8279  1.4060 -0.3124
 5284TIP3    H215817   4.864   4.912   5.396 -0.8587  0.4373 -0.6247
 5285TIP3   OH215818   1.940   3.228   0.187  0.5618 -0.2256  0.7185
 5285TIP3    H115819   2.032   3.248   0.171  1.8265 -3.2065  3.1868
 5285TIP3    H215820   1.897   3.313   0.187  3.1611  1.2289 -1.1410
 5286TIP3   OH215821   5.792   6.338   5.732 -0.0130  0.0935 -0.1889
 5286TIP3    H115822   5.779   6.433   5.739 -0.4084  0.0482 -0.2618
 5286TIP3    H215823   5.711   6.306   5.692  0.0780 -0.2867 -0.0733
 5287TIP3   OH215824   2.673   0.687   3.178  0.0508  0.1351  0.8660
 5287TIP3    H115825   2.669   0.758   3.113  0.2889  0.3425  1.0787
 5287TIP3    H215826   2.766   0.666   3.186 -0.0035 -0.0834  0.9354
 5288TIP3   OH215827   5.051   1.272   1.471  0.1215  0.0161 -0.5482
 5288TIP3    H115828   5.022   1.360   1.493  1.0792  0.0554  0.6943
 5288TIP3    H215829   4.970   1.220   1.470 -0.4847  0.9445 -1.5912
 5289TIP3   OH215830   3.478   6.402   2.147 -0.8781 -0.1537 -0.0392
 5289TIP3    H115831   3.490   6.489   2.185  1.5025  0.5041 -2.0321
 5289TIP3    H215832   3.457   6.346   2.221 -1.6485  1.9365  1.4245
 5290TIP3   OH215833   6.530   4.990   4.457  0.4526 -0.0757  0.0981
 5290TIP3    H115834   6.595   5.041   4.506  0.7389  1.7750 -2.0049
 5290TIP3    H215835   6.582   4.934   4.399  0.1858  0.3937 -0.6104
 5291TIP3   OH215836   1.679   3.279   1.295 -0.3803 -0.2082 -0.2096
 5291TIP3    H115837   1.647   3.283   1.385 -0.8985 -0.9742 -0.3556
 5291TIP3    H215838   1.615   3.226   1.248  0.1404 -0.2240 -0.9266
 5292TIP3   OH215839   5.614   6.023   3.739 -0.3305  0.2689 -0.1015
 5292TIP3    H115840   5.642   6.078   3.812  1.0788  1.4265 -1.4417
 5292TIP3    H215841   5.632   6.076   3.661 -1.7741 -0.9219 -1.3085
 5293TIP3   OH215842   2.795   5.176   5.695  0.4761  0.4080 -0.4584
 5293TIP3    H115843   2.763   5.125   5.770  0.4982  0.4794 -0.4010
 5293TIP3    H215844   2.718   5.222   5.662  0.4337  0.2561 -0.5760
 5294TIP3   OH215845   0.914   1.304   0.266  0.6106  0.6596  0.3896
 5294TIP3    H115846   0.983   1.368   0.255  1.4196 -0.0888  0.9657
 5294TIP3    H215847   0.882   1.318   0.355  1.4627 -0.3604  0.8737
 5295TIP3   OH215848   2.845   6.443   3.819  0.4739 -0.1695  0.5084
 5295TIP3    H115849   2.793   6.503   3.766 -0.7583 -0.4149  1.3814
 5295TIP3    H215850   2.787   6.369   3.834  0.2799  0.4190  3.1976
 5296TIP3   OH215851   3.059   3.748   0.450  0.0112  0.5778 -0.1783
 5296TIP3    H115852   2.995   3.688   0.410 -0.5970  0.9172  0.2654
 5296TIP3    H215853   3.016   3.834   0.447  0.8906  1.0063 -0.8401
 5297TIP3   OH215854   7.088   2.291   5.564 -0.1001 -0.7547 -0.1386
 5297TIP3    H115855   7.056   2.220   5.508 -1.0286 -0.2780 -0.2389
 5297TIP3    H215856   7.020   2.299   5.631  0.2945 -0.3532  0.2093
 5298TIP3   OH215857   4.709   1.474   3.810  0.0687 -0.3235 -0.0411
 5298TIP3    H115858   4.645   1.424   3.760 -0.1502 -0.1824  0.0966
 5298TIP3    H215859   4.732   1.547   3.753  0.4511 -0.6251 -0.2762
 5299TIP3   OH215860   4.513   0.344   0.619 -0.0714 -0.1576 -0.5805
 5299TIP3    H115861   4.430   0.304   0.592 -0.6410  0.7976 -0.2945
 5299TIP3    H215862   4.570   0.336   0.543 -1.1975  1.2784 -1.6144
 5300TIP3   OH215863   6.679   4.372   4.011  0.0293  0.3251  0.1426
 5300TIP3    H115864   6.755   4.369   3.953 -0.8167 -0.1872 -0.9964
 5300TIP3    H215865   6.669   4.464   4.033  0.7071  0.4574 -0.0721
 5301TIP3   OH215866   3.751   3.499   2.934 -0.2225 -0.9147 -0.1934
 5301TIP3    H115867   3.789   3.439   2.869 -0.1130 -0.0267 -0.9754
 5301TIP3    H215868   3.745   3.583   2.888  0.5111 -0.0818  1.1777
 5302TIP3   OH215869   5.608   2.004   2.151  0.3435 -0.4170  0.5139
 5302TIP3    H115870   5.590   1.910   2.158  0.4277 -0.4710  0.0874
 5302TIP3    H215871   5.689   2.008   2.100  0.6813 -0.1291  1.0686
 5303TIP3   OH215872   6.945   0.944   2.407  0.1649 -0.1136  0.0701
 5303TIP3    H115873   7.018   0.998   2.377  0.2747  0.0676  0.6460
 5303TIP3    H215874   6.888   0.935   2.330  1.0207 -0.6500 -0.5203
 5304TIP3   OH215875   6.766   5.271   3.593  0.2872 -0.0926  0.0797
 5304TIP3    H115876   6.721   5.205   3.540 -2.3595  1.8418 -0.2702
 5304TIP3    H215877   6.782   5.344   3.533 -0.9083  1.3321  1.4015
 5305TIP3   OH215878   2.945   6.301   4.910  0.0518 -0.8093  0.5528
 5305TIP3    H115879   2.982   6.213   4.912 -0.0876 -0.8652  1.6666
 5305TIP3    H215880   2.916   6.314   4.820  2.2888 -0.9569 -0.2486
 5306TIP3   OH215881   4.977   2.718   2.927  0.5792  0.3357 -0.1116
 5306TIP3    H115882   5.065   2.738   2.957  0.7016 -0.6171  0.2209
 5306TIP3    H215883   4.975   2.622   2.921 -0.3319  0.3607 -0.4227
 5307TIP3   OH215884   3.367   0.209   1.430 -0.3852  0.2417 -0.1026
 5307TIP3    H115885   3.430   0.136   1.430 -1.5659 -0.8867 -2.3025
 5307TIP3    H215886   3.308   0.190   1.503 -0.3498 -0.7267 -0.3101
 5308TIP3   OH215887   0.966   0.891   3.441 -0.2897 -0.3324 -0.1627
 5308TIP3    H115888   0.893   0.925   3.492 -0.2745 -0.3154 -0.1525
 5308TIP3    H215889   0.967   0.945   3.362  0.5104  0.5134  0.4046
 5309TIP3   OH215890   0.437   6.510   1.290 -0.0178  0.6778 -0.4145
 5309TIP3    H115891   0.373   6.445   1.320  0.6761  0.2913  0.2467
 5309TIP3    H215892   0.467   6.553   1.370 -1.0578  2.4164 -0.8947
 5310TIP3   OH215893   4.627   0.466   4.349 -0.0533  0.7550  0.1154
 5310TIP3    H115894   4.662   0.539   4.296  0.0846  1.2045  0.8146
 5310TIP3    H215895   4.574   0.508   4.416  0.2388  0.2310  0.6906
 5311TIP3   OH215896   0.465   2.674   0.050 -0.5032  0.0944  0.1714
 5311TIP3    H115897   0.393   2.735   0.070 -0.0162  0.5236  0.6781
 5311TIP3    H215898   0.529   2.691   0.120  0.0046 -0.4099 -0.1720
 5312TIP3   OH215899   2.868   2.793   4.699 -0.1155  0.9547  0.2852
 5312TIP3    H115900   2.834   2.796   4.609 -1.3595  0.0496  0.6954
 5312TIP3    H215901   2.924   2.869   4.706 -2.0588  2.5452 -0.4773
 5313TIP3   OH215902   0.179   2.739   5.506  0.1468 -0.1070  0.0899
 5313TIP3    H115903   0.123   2.666   5.480 -0.9729  1.2818 -1.7134
 5313TIP3    H215904   0.162   2.751   5.599 -1.0326 -0.9969  0.0147
 5314TIP3   OH215905   2.155   0.332   1.395  0.1968 -0.1857  0.0579
 5314TIP3    H115906   2.117   0.331   1.483  0.3091  0.9590  0.1393
 5314TIP3    H215907   2.083   0.360   1.339  0.7533  1.4841  0.1408
 5315TIP3   OH215908   4.626   0.985   1.466  0.4117 -0.5983 -0.4042
 5315TIP3    H115909   4.615   1.026   1.552  0.6181  0.3339 -0.8066
 5315TIP3    H215910   4.623   1.058   1.404 -2.0016 -1.4260 -1.4170
 5316TIP3   OH215911   6.542   1.956   4.415  0.0144 -0.0466  0.3013
 5316TIP3    H115912   6.486   1.922   4.345 -2.9162 -0.0459  2.4750
 5316TIP3    H215913   6.577   1.877   4.457 -0.8620 -0.1843  0.8010
 5317TIP3   OH215914   0.149   4.731   1.142  0.7985  0.0540  0.1759
 5317TIP3    H115915   0.059   4.711   1.166  0.7424 -0.4604 -0.4308
 5317TIP3    H215916   0.154   4.712   1.048  0.4356  3.9153 -0.7887
 5318TIP3   OH215917   1.725   2.904   5.417  0.3038  0.3009 -0.5075
 5318TIP3    H115918   1.726   2.824   5.364  1.2439  0.1513 -0.2884
 5318TIP3    H215919   1.775   2.881   5.495 -2.1269  0.1296  1.0954
 5319TIP3   OH215920   2.168   6.453   3.880 -0.1134 -0.2358  0.0761
 5319TIP3    H115921   2.225   6.413   3.815  0.5803  1.4785 -0.4166
 5319TIP3    H215922   2.114   6.515   3.831 -1.0908 -0.4515  0.8294
 5320TIP3   OH215923   1.267   4.586   3.399 -0.0968 -0.1349  0.0159
 5320TIP3    H115924   1.361   4.585   3.414 -0.0657 -0.2838 -0.1840
 5320TIP3    H215925   1.229   4.591   3.487  0.1082  1.4934  0.0306
 5321TIP3   OH215926   6.030   5.984   3.691 -0.2749 -0.0230  0.6118
 5321TIP3    H115927   5.949   5.953   3.649  0.6522 -1.2052 -0.3870
 5321TIP3    H215928   6.007   5.992   3.784 -1.5187 -0.3859  0.3620
 5322TIP3   OH215929   5.631   4.026   5.192 -0.1321  0.3422 -0.2435
 5322TIP3    H115930   5.559   3.989   5.244 -0.5048  1.0803 -0.2326
 5322TIP3    H215931   5.694   3.954   5.186 -1.2893 -0.6364 -1.0790
 5323TIP3   OH215932   6.171   4.256   5.648 -0.6926 -0.6826 -0.6182
 5323TIP3    H115933   6.230   4.305   5.590  0.7639 -1.5335  0.0729
 5323TIP3    H215934   6.205   4.274   5.736 -0.3395 -2.5664 -0.3184
 5324TIP3   OH215935   4.352   2.068   2.349  0.0965  0.2956 -0.9625
 5324TIP3    H115936   4.394   2.102   2.428  1.0714 -0.1498 -1.2728
 5324TIP3    H215937   4.409   1.995   2.322 -0.0989  0.5952 -2.1994
 5325TIP3   OH215938   5.781   0.803   3.186  0.2125  0.2014 -0.2363
 5325TIP3    H115939   5.710   0.807   3.250  1.2796  1.9423  0.9541
 5325TIP3    H215940   5.789   0.710   3.164 -3.5165  0.0811 -1.7851
 5326TIP3   OH215941   7.188   5.032   3.688 -0.0721  0.4524  0.0832
 5326TIP3    H115942   7.257   5.032   3.755  0.5604 -0.5088 -0.5527
 5326TIP3    H215943   7.107   5.020   3.738  0.4359 -0.7759  0.6481
 5327TIP3   OH215944   5.706   5.993   0.495  0.4265  0.3140  0.2800
 5327TIP3    H115945   5.667   6.077   0.471  1.4681  0.5983 -0.4943
 5327TIP3    H215946   5.798   6.013   0.511  0.2469 -0.3041  2.2593
 5328TIP3   OH215947   4.784   2.639   0.867  0.1298 -0.6340  0.4530
 5328TIP3    H115948   4.860   2.697   0.862  0.1660 -0.7373 -0.1893
 5328TIP3    H215949   4.820   2.556   0.899  0.3234 -0.7393 -0.0296
 5329TIP3   OH215950   0.295   1.225   1.718 -0.4106 -0.1445 -0.1804
 5329TIP3    H115951   0.277   1.308   1.761  1.4563  0.5882 -0.7308
 5329TIP3    H215952   0.273   1.240   1.626  0.8658  0.0801 -0.4634
 5330TIP3   OH215953   5.259   1.719   4.776 -0.3947 -0.4426  0.3408
 5330TIP3    H115954   5.211   1.640   4.800 -1.6374 -0.1545 -1.0417
 5330TIP3    H215955   5.327   1.688   4.715 -1.5232 -0.3568 -1.0022
 5331TIP3   OH215956   4.735   5.155   0.239  0.1901  0.0019 -0.0753
 5331TIP3    H115957   4.705   5.086   0.180  0.0177 -1.0488  1.1808
 5331TIP3    H215958   4.703   5.129   0.325 -0.1449  1.8364  0.4027
 5332TIP3   OH215959   3.802   3.296   5.751 -0.1439  0.1358  0.1431
 5332TIP3    H115960   3.737   3.355   5.789  1.1915  0.4400  2.1135
 5332TIP3    H215961   3.750   3.225   5.713 -1.6565  0.8862  0.7067
 5333TIP3   OH215962   0.685   6.434   3.764 -0.8593  0.1148  0.0939
 5333TIP3    H115963   0.652   6.348   3.789  0.5474 -0.5837 -0.3302
 5333TIP3    H215964   0.710   6.425   3.672 -1.5121  1.2484 -0.2182
 5334TIP3   OH215965   6.424   5.450   4.499  0.0112 -0.1442  0.2437
 5334TIP3    H115966   6.351   5.462   4.437  1.0662 -0.8463 -1.1966
 5334TIP3    H215967   6.470   5.533   4.499 -0.6339  0.2251  0.9780
 5335TIP3   OH215968   6.526   2.207   3.301 -0.6090  0.4917 -0.6204
 5335TIP3    H115969   6.463   2.181   3.369  1.2734 -2.9251  0.0939
 5335TIP3    H215970   6.487   2.177   3.219 -0.8408  0.2347 -0.4180
 5336TIP3   OH215971   0.585   6.042   5.881 -0.6024 -0.3557  0.3435
 5336TIP3    H115972   0.656   6.056   5.818 -0.5465  1.9968  0.8393
 5336TIP3    H215973   0.505   6.053   5.829 -0.5707  2.7333  0.7603
 5337TIP3   OH215974   4.259   0.202   1.090  0.8052  0.1269 -0.2547
 5337TIP3    H115975   4.261   0.273   1.026  1.1286  0.1874 -0.1794
 5337TIP3    H215976   4.199   0.233   1.159 -0.1027 -0.2319 -0.8585
 5338TIP3   OH215977   2.333   1.519   3.988  0.1605 -0.2147 -0.5023
 5338TIP3    H115978   2.307   1.611   3.989  1.5505  0.2153 -1.3210
 5338TIP3    H215979   2.313   1.488   4.076 -2.5468  0.1911 -0.8935
 5339TIP3   OH215980   0.643   1.430   1.879  0.1536  0.2805 -0.1373
 5339TIP3    H115981   0.602   1.345   1.895 -0.0315  0.1388 -1.2354
 5339TIP3    H215982   0.732   1.421   1.911  0.0261 -0.2067  0.0832
 5340TIP3   OH215983   4.067   5.658   3.420 -0.2400  0.0877 -0.2080
 5340TIP3    H115984   4.128   5.594   3.456  1.1952  0.6747 -1.4568
 5340TIP3    H215985   4.011   5.683   3.493  1.0201 -0.4863  0.9865
 5341TIP3   OH215986   5.212   5.455   3.934 -0.4417  0.1041 -0.6693
 5341TIP3    H115987   5.175   5.388   3.877 -0.8313 -0.1922 -0.0776
 5341TIP3    H215988   5.303   5.429   3.947  0.2901  1.3230 -2.8607
 5342TIP3   OH215989   4.389   1.256   3.685  0.0765  0.2779 -0.0932
 5342TIP3    H115990   4.470   1.210   3.661 -0.6938 -0.2385 -1.8029
 5342TIP3    H215991   4.402   1.345   3.655  0.9288  0.8573  1.8038
 5343TIP3   OH215992   2.230   0.170   1.952 -0.4101  0.2879  0.3249
 5343TIP3    H115993   2.289   0.228   1.903  1.2306 -1.9234 -0.4815
 5343TIP3    H215994   2.288   0.118   2.008 -1.4727 -2.2610 -0.7816
 5344TIP3   OH215995   2.203   6.317   2.880  0.5077  0.2457  0.3851
 5344TIP3    H115996   2.295   6.343   2.886  0.6709  0.9664 -2.9148
 5344TIP3    H215997   2.203   6.239   2.824 -0.8569 -0.0396  0.7332
 5345TIP3   OH215998   1.654   3.934   3.112 -0.0049  0.0167 -0.2757
 5345TIP3    H115999   1.737   3.920   3.068  1.2454 -1.8769  2.4289
 5345TIP3    H216000   1.589   3.891   3.056  1.5097 -2.4188 -0.2606
 5346TIP3   OH216001   1.278   0.156   1.592 -0.1177 -0.7003  0.3527
 5346TIP3    H116002   1.199   0.106   1.572  0.0942 -0.5772 -0.8283
 5346TIP3    H216003   1.328   0.099   1.651  0.1968 -1.9789 -1.0860
 5347TIP3   OH216004   4.321   2.584   4.744 -0.1414 -0.1240 -0.1968
 5347TIP3    H116005   4.261   2.520   4.780  1.3359 -0.7449  1.3095
 5347TIP3    H216006   4.356   2.543   4.665  0.4606 -1.0374  0.5176
 5348TIP3   OH216007   4.172   5.948   0.728  0.6057 -1.0422 -0.1935
 5348TIP3    H116008   4.150   5.949   0.635  1.3952  0.4018 -0.4056
 5348TIP3    H216009   4.267   5.937   0.730  0.5542 -1.4036  0.4523
 5349TIP3   OH216010   5.801   6.160   1.610 -0.5111 -0.3468  0.0105
 5349TIP3    H116011   5.872   6.223   1.620  3.2327 -3.8138 -1.5101
 5349TIP3    H216012   5.807   6.105   1.688 -1.1152 -1.0606 -0.4325
 5350TIP3   OH216013   6.110   3.834   3.974  0.3399  0.6575  0.0925
 5350TIP3    H116014   6.150   3.881   3.900 -1.3485  0.9621 -0.6676
 5350TIP3    H216015   6.056   3.900   4.017 -1.0498 -0.2552 -0.2097
 5351TIP3   OH216016   2.661   6.038   0.086 -0.4457  0.1498 -0.0197
 5351TIP3    H116017   2.710   5.957   0.068 -1.1547 -0.3512  0.2951
 5351TIP3    H216018   2.616   6.057   0.004 -0.7514 -0.0990  0.0924
 5352TIP3   OH216019   4.926   0.590   4.145  0.0768 -0.8796 -0.1284
 5352TIP3    H116020   4.917   0.539   4.064 -0.6076 -0.0610 -0.5778
 5352TIP3    H216021   4.973   0.531   4.205  1.0245 -1.3383 -1.2660
 5353TIP3   OH216022   2.209   6.343   3.461  0.5120  0.1544 -0.0395
 5353TIP3    H116023   2.179   6.431   3.441  1.1694  0.8530  1.8319
 5353TIP3    H216024   2.256   6.315   3.382  0.0743  1.3503 -0.7508
 5354TIP3   OH216025   1.683   5.570   3.395  0.3499 -0.1381  0.2894
 5354TIP3    H116026   1.726   5.508   3.336  2.4965  0.5257  1.0496
 5354TIP3    H216027   1.635   5.630   3.337 -0.9542 -1.8672 -0.4927
 5355TIP3   OH216028   6.909   4.431   3.852  0.6150  0.4348 -0.4027
 5355TIP3    H116029   6.907   4.408   3.759  1.0093  0.6404 -0.4657
 5355TIP3    H216030   6.994   4.398   3.882  0.0206 -0.6539  0.1584
 5356TIP3   OH216031   2.997   5.197   5.187  0.3915 -0.0645 -0.3844
 5356TIP3    H116032   3.088   5.203   5.215  0.1753  0.3038  0.2623
 5356TIP3    H216033   2.976   5.284   5.152  0.4191 -0.2848 -0.9653
 5357TIP3   OH216034   1.136   2.510   5.551  0.0500  0.7901 -0.3328
 5357TIP3    H116035   1.041   2.521   5.547  0.0287  0.5193 -0.6107
 5357TIP3    H216036   1.170   2.597   5.531 -0.1272  0.5309 -1.9017
 5358TIP3   OH216037   7.068   4.920   5.054 -0.6827 -0.6577  0.5195
 5358TIP3    H116038   6.989   4.919   5.001  0.7690 -2.7663 -1.8202
 5358TIP3    H216039   7.053   4.852   5.120  0.4202 -3.7761 -2.1915
 5359TIP3   OH216040   0.847   4.401   4.512 -0.0219 -0.5998 -0.1483
 5359TIP3    H116041   0.771   4.343   4.506 -0.0278 -0.5366 -0.8016
 5359TIP3    H216042   0.809   4.489   4.514  0.0395 -0.5555 -0.7787
 5360TIP3   OH216043   5.283   3.394   5.666  0.2615 -0.3907 -0.4864
 5360TIP3    H116044   5.329   3.477   5.683  0.7199 -0.8667  0.7544
 5360TIP3    H216045   5.299   3.376   5.574  2.0918 -0.2259 -0.2438
 5361TIP3   OH216046   5.615   4.456   3.119  0.3666 -0.0889 -0.2731
 5361TIP3    H116047   5.584   4.400   3.190 -2.6751 -0.6343 -1.8595
 5361TIP3    H216048   5.653   4.395   3.056  0.6130  0.1011 -0.3120
 5362TIP3   OH216049   5.814   1.913   5.181  0.1094  0.2590  0.1930
 5362TIP3    H116050   5.818   1.822   5.149  0.1688 -0.1402  1.2941
 5362TIP3    H216051   5.861   1.911   5.264 -1.3714  0.9323  1.0810
 5363TIP3   OH216052   4.926   1.259   0.370 -1.0261 -0.0815  0.0900
 5363TIP3    H116053   4.957   1.228   0.285 -0.3357 -0.7702  0.5842
 5363TIP3    H216054   4.849   1.206   0.389 -0.5697 -0.6631  0.3616
 5364TIP3   OH216055   1.647   0.116   0.332  0.3839  0.0069 -0.0447
 5364TIP3    H116056   1.606   0.031   0.351  0.7757 -0.1037  0.3207
 5364TIP3    H216057   1.725   0.094   0.281  0.7906  0.1034  0.5290
 5365TIP3   OH216058   4.036   0.804   4.933 -0.9267  0.2906 -0.2575
 5365TIP3    H116059   4.128   0.785   4.950 -0.9107  0.1740 -0.4683
 5365TIP3    H216060   4.023   0.892   4.967 -0.8683  0.1117  0.2413
 5366TIP3   OH216061   3.699   3.429   2.227  0.0499 -0.1345 -0.3380
 5366TIP3    H116062   3.619   3.377   2.238 -0.4132  0.3719 -1.2518
 5366TIP3    H216063   3.706   3.443   2.133  0.3397  1.1863 -0.1293
 5367TIP3   OH216064   0.998   3.458   4.034 -0.4902 -0.2436 -0.1624
 5367TIP3    H116065   1.047   3.514   3.974 -1.0645  0.0571 -0.3573
 5367TIP3    H216066   1.043   3.374   4.031  0.3088  0.1672  0.0382
 5368TIP3   OH216067   3.490   0.152   5.783  0.0705 -0.8358 -0.7814
 5368TIP3    H116068   3.513   0.077   5.839 -1.3459 -0.7236  0.0016
 5368TIP3    H216069   3.553   0.220   5.807 -0.3628 -0.8663  0.5762
 5369TIP3   OH216070   4.764   4.113   5.216  0.3299 -0.0635 -0.3051
 5369TIP3    H116071   4.794   4.060   5.291  0.2051 -1.5472 -1.2562
 5369TIP3    H216072   4.835   4.176   5.203  0.8739 -0.5037  0.3842
 5370TIP3   OH216073   3.771   0.623   2.595 -0.1232  0.2516  0.1007
 5370TIP3    H116074   3.833   0.696   2.591 -1.0164  0.9613 -1.8278
 5370TIP3    H216075   3.776   0.582   2.508  0.1244 -1.8238  1.0340
 5371TIP3   OH216076   7.031   1.983   4.865 -0.1417  0.2313 -0.0017
 5371TIP3    H116077   7.096   2.037   4.820 -0.1847 -0.0998 -0.4615
 5371TIP3    H216078   7.080   1.944   4.938  0.5272 -1.0436 -1.0969
 5372TIP3   OH216079   1.199   4.075   3.936 -0.3537 -0.8573  0.1600
 5372TIP3    H116080   1.112   4.114   3.940 -0.8773 -1.9739  0.0839
 5372TIP3    H216081   1.185   3.989   3.895  1.2798  0.3447 -3.3336
 5373TIP3   OH216082   0.726   5.511   1.597  0.2567  0.0586 -0.4212
 5373TIP3    H116083   0.768   5.594   1.620  0.8281  0.0319 -1.3119
 5373TIP3    H216084   0.780   5.475   1.527 -0.4073 -0.7157 -0.5582
 5374TIP3   OH216085   3.967   5.940   4.081  0.5698  0.4343 -0.2055
 5374TIP3    H116086   3.996   5.957   4.171  1.5972 -0.2651 -0.3838
 5374TIP3    H216087   4.033   5.985   4.027  0.9751 -0.6258 -0.6164
 5375TIP3   OH216088   6.560   6.180   3.288 -0.5931 -0.2578 -0.3174
 5375TIP3    H116089   6.500   6.198   3.360 -1.0410  0.3655 -0.8368
 5375TIP3    H216090   6.511   6.202   3.209  0.8401  1.8878 -0.7032
 5376TIP3   OH216091   5.833   5.115   3.905  0.4414  0.2985 -0.1495
 5376TIP3    H116092   5.912   5.064   3.887 -0.0476 -0.4773 -0.1387
 5376TIP3    H216093   5.794   5.130   3.818 -1.0225 -1.9931  0.0381
 5377TIP3   OH216094   6.328   5.044   1.824  0.3334  0.2169  0.2013
 5377TIP3    H116095   6.316   5.105   1.897 -0.9060 -0.1525  0.3366
 5377TIP3    H216096   6.320   4.957   1.863  0.7167 -0.0057 -0.2069
 5378TIP3   OH216097   5.804   3.735   2.000 -0.0954 -0.1181 -0.5084
 5378TIP3    H116098   5.775   3.825   2.014  0.6728 -0.0077  0.5792
 5378TIP3    H216099   5.887   3.743   1.953 -0.1456 -0.2584 -0.6197
 5379TIP3   OH216100   4.839   5.425   0.279  1.1667 -0.1371 -0.1709
 5379TIP3    H116101   4.776   5.359   0.250  1.6857 -0.5209 -0.4473
 5379TIP3    H216102   4.916   5.409   0.225  1.5202  0.2914  0.2047
 5380TIP3   OH216103   1.417   6.232   5.070 -0.5269  0.5452  0.0729
 5380TIP3    H116104   1.417   6.325   5.047  0.6737  0.8230  1.0813
 5380TIP3    H216105   1.476   6.226   5.145  0.0206 -1.1584 -0.4503
 5381TIP3   OH216106   0.620   1.494   3.221 -0.2756  0.5559  0.1773
 5381TIP3    H116107   0.689   1.531   3.276  0.4431  0.6322 -0.7496
 5381TIP3    H216108   0.650   1.508   3.131 -0.7441 -0.8360 -0.2296
 5382TIP3   OH216109   2.711   5.278   3.971 -0.1602  0.5029  0.2676
 5382TIP3    H116110   2.806   5.267   3.968 -0.1305  0.7817  0.1897
 5382TIP3    H216111   2.691   5.279   4.065  0.0288  1.3935  0.3071
 5383TIP3   OH216112   3.813   3.877   2.239 -0.4040  0.1292  0.4086
 5383TIP3    H116113   3.774   3.862   2.326 -0.3184  0.2860  0.4750
 5383TIP3    H216114   3.738   3.884   2.180 -0.4393 -1.2259  0.2600
 5384TIP3   OH216115   6.859   2.241   3.880  0.1815  0.1816  0.2881
 5384TIP3    H116116   6.945   2.279   3.860 -0.2107  1.4631  0.9364
 5384TIP3    H216117   6.826   2.211   3.795  0.7422  0.8048 -0.1611
 5385TIP3   OH216118   6.546   6.153   1.227  0.3942  0.4507 -0.2107
 5385TIP3    H116119   6.517   6.099   1.300 -0.1218  0.2340 -0.5700
 5385TIP3    H216120   6.635   6.178   1.250 -0.0434  1.0854  0.8891
 5386TIP3   OH216121   4.764   4.807   1.708 -0.5435 -0.4684 -0.8068
 5386TIP3    H116122   4.675   4.839   1.697 -0.4234  0.3080  0.3489
 5386TIP3    H216123   4.764   4.764   1.793 -0.1347 -1.6552 -1.3796
 5387TIP3   OH216124   6.884   0.426   3.396 -0.0902 -0.0227  0.2001
 5387TIP3    H116125   6.930   0.347   3.423 -0.2564 -1.1466 -2.4415
 5387TIP3    H216126   6.937   0.460   3.323 -2.0556  0.0352 -1.2889
 5388TIP3   OH216127   2.424   0.445   4.254 -0.1568  0.0770  0.1957
 5388TIP3    H116128   2.376   0.471   4.333  0.4767 -1.0523  0.9958
 5388TIP3    H216129   2.452   0.527   4.215 -1.2510  0.6915  0.6548
 5389TIP3   OH216130   6.599   4.009   2.547 -0.4150 -0.8162  0.5679
 5389TIP3    H116131   6.517   4.003   2.497  0.0057 -0.5443 -0.1636
 5389TIP3    H216132   6.606   3.924   2.591 -0.0680 -1.6185 -0.9812
 5390TIP3   OH216133   1.590   3.615   3.092  0.1018 -0.1795 -0.0749
 5390TIP3    H116134   1.526   3.673   3.052  0.2175 -0.0821 -0.1201
 5390TIP3    H216135   1.554   3.527   3.081  0.0737 -0.1415 -0.2804
 5391TIP3   OH216136   0.416   2.019   5.411  0.5099 -0.2137  0.0054
 5391TIP3    H116137   0.342   2.079   5.423  0.1598 -0.6950  0.3281
 5391TIP3    H216138   0.411   1.993   5.319 -1.7187 -2.7280  0.6928
 5392TIP3   OH216139   1.609   6.168   4.071 -0.7135 -0.0273 -0.1507
 5392TIP3    H116140   1.520   6.149   4.101 -0.1858 -1.4034  0.6796
 5392TIP3    H216141   1.653   6.083   4.075  0.6100  0.6150 -0.6276
 5393TIP3   OH216142   3.594   1.269   2.416 -0.5378  0.1577 -0.4003
 5393TIP3    H116143   3.532   1.266   2.343  0.2609 -1.9906 -1.0575
 5393TIP3    H216144   3.678   1.245   2.377 -0.2223 -1.7482  1.3120
 5394TIP3   OH216145   2.004   1.925   2.607 -0.1388  0.2311  0.1572
 5394TIP3    H116146   1.986   1.847   2.554  0.2395  0.4202 -0.2553
 5394TIP3    H216147   2.055   1.982   2.550 -0.8786  1.0268  0.2602
 5395TIP3   OH216148   5.658   0.368   4.262 -0.4976  0.9083  0.2380
 5395TIP3    H116149   5.631   0.434   4.198 -0.3296 -0.7984 -1.6821
 5395TIP3    H216150   5.744   0.399   4.293 -0.1210  1.3059 -1.1128
 5396TIP3   OH216151   2.246   6.492   0.474 -0.0292  0.4261 -0.2067
 5396TIP3    H116152   2.152   6.482   0.486 -0.2951  1.9804 -0.7017
 5396TIP3    H216153   2.266   6.579   0.509  1.0311  0.5522 -1.0429
 5397TIP3   OH216154   6.388   0.299   1.874 -0.3717 -0.1526  0.2135
 5397TIP3    H116155   6.468   0.247   1.882 -0.0365  0.1951 -0.8461
 5397TIP3    H216156   6.409   0.382   1.917 -0.8150 -0.7367  1.6510
 5398TIP3   OH216157   0.976   5.472   5.795  0.0629  0.3357 -0.0435
 5398TIP3    H116158   1.000   5.458   5.703  0.9849  1.5496 -0.0008
 5398TIP3    H216159   0.971   5.384   5.831 -0.2790 -0.1665 -1.2422
 5399TIP3   OH216160   7.083   2.750   1.886  0.2497  0.5236 -0.0866
 5399TIP3    H116161   7.090   2.740   1.791 -0.7097 -0.2187 -0.0918
 5399TIP3    H216162   7.174   2.748   1.917  0.5669  0.7639 -0.9857
 5400TIP3   OH216163   7.012   5.722   5.586  0.0983  0.2884  0.1370
 5400TIP3    H116164   7.010   5.784   5.659 -0.4548  1.0254 -0.4916
 5400TIP3    H216165   7.102   5.689   5.586  0.8927  2.2799 -0.4732
 5401TIP3   OH216166   3.180   2.222   4.027  0.2157  1.0075 -0.5811
 5401TIP3    H116167   3.100   2.197   3.980 -0.5229 -0.3836  1.3262
 5401TIP3    H216168   3.171   2.316   4.041  0.1437  1.3499 -2.5387
 5402TIP3   OH216169   5.192   4.168   1.323 -0.0831 -0.1949 -0.0246
 5402TIP3    H116170   5.284   4.191   1.337  0.6678 -3.0071  0.3063
 5402TIP3    H216171   5.194   4.075   1.301 -2.9488 -0.5994  1.0486
 5403TIP3   OH216172   1.585   2.724   0.414 -0.6048  0.1327  0.0513
 5403TIP3    H116173   1.523   2.673   0.362  0.3602 -3.2406  1.8796
 5403TIP3    H216174   1.671   2.697   0.382 -0.0326  0.8492  0.9274
 5404TIP3   OH216175   5.710   1.514   0.458  0.5052 -0.6769 -0.0078
 5404TIP3    H116176   5.741   1.603   0.474 -1.1272 -0.4067  2.1361
 5404TIP3    H216177   5.784   1.459   0.486  0.8367 -0.0075  0.4988
 5405TIP3   OH216178   0.915   3.822   4.057 -0.5996  0.5400  0.6999
 5405TIP3    H116179   0.978   3.821   4.129 -1.6710  1.7274  1.7080
 5405TIP3    H216180   0.867   3.739   4.067  1.8105 -1.2267 -1.1191
 5406TIP3   OH216181   2.330   1.649   0.992  0.1790 -0.1904 -0.0429
 5406TIP3    H116182   2.346   1.695   1.075  2.9873 -0.6007 -0.2305
 5406TIP3    H216183   2.314   1.720   0.929 -0.4562  0.2190  0.5690
 5407TIP3   OH216184   5.136   3.524   0.196 -0.2640  0.6780  0.2413
 5407TIP3    H116185   5.216   3.500   0.148  0.4651  2.3187  0.5820
 5407TIP3    H216186   5.087   3.580   0.136 -0.6223  0.6008  0.4561
 5408TIP3   OH216187   7.125   5.153   2.087 -0.4809 -0.3201 -0.1947
 5408TIP3    H116188   7.113   5.191   2.000 -2.0601 -2.5739 -1.0501
 5408TIP3    H216189   7.172   5.220   2.136 -0.4133  1.4207 -2.4767
 5409TIP3   OH216190   2.417   3.532   1.302  0.1527  0.3905  0.4841
 5409TIP3    H116191   2.410   3.468   1.372  1.0034 -0.3550 -0.0830
 5409TIP3    H216192   2.468   3.603   1.339  1.0852 -0.2515  0.4671
 5410TIP3   OH216193   3.468   4.843   4.616  0.1509 -0.1055  0.2358
 5410TIP3    H116194   3.471   4.938   4.608  0.5992 -0.2461 -1.6031
 5410TIP3    H216195   3.555   4.818   4.647  0.7966 -0.0644 -1.4660
 5411TIP3   OH216196   5.629   0.963   1.017 -0.1963 -0.5233  0.1137
 5411TIP3    H116197   5.707   0.969   0.962  1.0658 -2.5035  1.5462
 5411TIP3    H216198   5.643   1.027   1.087  0.0326 -0.7441  0.2664
 5412TIP3   OH216199   6.792   3.806   3.036 -0.2894 -0.1616  0.0903
 5412TIP3    H116200   6.884   3.782   3.025 -0.3077 -0.0970 -0.2158
 5412TIP3    H216201   6.758   3.743   3.100 -0.4432 -1.2369 -1.0125
 5413TIP3   OH216202   3.568   4.213   4.001 -0.2193 -0.4469 -0.0391
 5413TIP3    H116203   3.576   4.294   3.950 -1.2210 -0.7384 -0.6824
 5413TIP3    H216204   3.522   4.240   4.081 -2.1594 -0.6579 -1.0273
 5414TIP3   OH216205   0.471   2.387   3.788  0.7654  0.4056  0.4141
 5414TIP3    H116206   0.398   2.395   3.726  0.1168 -0.5696  1.0270
 5414TIP3    H216207   0.483   2.476   3.821  1.3096  0.9991 -1.2942
 5415TIP3   OH216208   2.933   0.198   0.335  0.6452  0.2928  0.4843
 5415TIP3    H116209   2.870   0.263   0.306 -0.7762 -1.3106 -0.2178
 5415TIP3    H216210   2.961   0.227   0.421 -1.0622  1.0699  0.8082
 5416TIP3   OH216211   2.199   1.340   2.262  0.3193 -0.0421 -0.2694
 5416TIP3    H116212   2.203   1.430   2.228 -0.2210  0.3526  0.6446
 5416TIP3    H216213   2.277   1.332   2.317  1.0879 -0.6096 -1.4266
 5417TIP3   OH216214   0.973   0.894   4.920 -0.2456 -0.1700  0.1846
 5417TIP3    H116215   0.949   0.922   5.008 -1.3241 -2.1031  0.5509
 5417TIP3    H216216   0.918   0.947   4.862 -0.1034  0.5465  0.6850
 5418TIP3   OH216217   0.297   5.081   0.538 -0.3122 -0.3115 -0.2654
 5418TIP3    H116218   0.269   5.170   0.560 -1.0896 -0.4005 -0.8622
 5418TIP3    H216219   0.216   5.030   0.541  0.2198 -1.1397  0.7085
 5419TIP3   OH216220   5.564   1.722   4.922  0.3964 -0.4790  0.5276
 5419TIP3    H116221   5.638   1.680   4.879  2.4096  2.6336  0.6064
 5419TIP3    H216222   5.569   1.693   5.013  0.4925 -1.5751  0.1757
 5420TIP3   OH216223   4.444   3.654   0.455  0.0330  0.6632 -0.4466
 5420TIP3    H116224   4.467   3.729   0.401  1.2228 -1.0904 -2.5449
 5420TIP3    H216225   4.363   3.620   0.417 -1.2759  1.5917  1.3466
 5421TIP3   OH216226   2.078   5.643   3.085  0.0425  0.0827  0.2032
 5421TIP3    H116227   2.015   5.662   3.154  0.3941  0.7716  0.3458
 5421TIP3    H216228   2.143   5.586   3.127 -0.3721 -0.4670  0.1085
 5422TIP3   OH216229   5.647   1.213   3.785 -0.0323 -0.3224  0.1012
 5422TIP3    H116230   5.615   1.255   3.864 -0.4233 -0.6528  0.1212
 5422TIP3    H216231   5.661   1.285   3.723 -2.9962 -0.3278 -0.7007
 5423TIP3   OH216232   0.697   1.672   4.688  0.4665 -0.5545  0.5257
 5423TIP3    H116233   0.625   1.610   4.675 -0.2118  0.4930 -0.8259
 5423TIP3    H216234   0.656   1.749   4.727  1.0010 -0.2716  0.5382
 5424TIP3   OH216235   1.448   1.735   3.168 -0.5758 -0.2113 -0.1729
 5424TIP3    H116236   1.526   1.692   3.133 -0.0912  0.2531  0.3368
 5424TIP3    H216237   1.437   1.814   3.115 -2.2916 -1.6055 -2.0781
 5425TIP3   OH216238   5.710   1.448   1.299 -0.5155 -0.2390  0.0739
 5425TIP3    H116239   5.700   1.520   1.361 -2.0564 -1.0728  0.8466
 5425TIP3    H216240   5.677   1.371   1.345  1.6173 -1.6038 -0.5196
 5426TIP3   OH216241   3.422   6.150   1.959 -0.5841 -0.0632  0.2948
 5426TIP3    H116242   3.369   6.120   1.885  2.1967  0.3676 -2.0766
 5426TIP3    H216243   3.457   6.235   1.930  0.5143  0.1897  2.1871
 5427TIP3   OH216244   2.364   2.703   4.266 -0.1630 -0.0945  0.6659
 5427TIP3    H116245   2.447   2.663   4.238 -0.6012 -1.9587  1.8469
 5427TIP3    H216246   2.360   2.687   4.360 -0.8875  1.9105  1.0233
 5428TIP3   OH216247   5.372   5.653   4.128  0.0766 -0.6688 -0.3272
 5428TIP3    H116248   5.414   5.702   4.198 -0.3412 -0.2387 -0.3776
 5428TIP3    H216249   5.445   5.618   4.076  0.3829  0.5568 -0.7533
 5429TIP3   OH216250   5.814   6.013   3.089  0.0375  0.1466  0.5662
 5429TIP3    H116251   5.727   5.977   3.073  0.6887 -2.1519  1.7417
 5429TIP3    H216252   5.865   5.989   3.011 -0.8585  3.6212 -1.2816
 5430TIP3   OH216253   2.412   5.796   1.333 -0.5256  0.3806  0.0584
 5430TIP3    H116254   2.360   5.737   1.387 -1.0797  1.0017  0.2047
 5430TIP3    H216255   2.472   5.737   1.286 -1.0183 -0.2914  0.2493
 5431TIP3   OH216256   5.283   0.854   2.168 -0.6602 -0.0789  0.4562
 5431TIP3    H116257   5.261   0.846   2.075  1.0920 -0.6015  0.0475
 5431TIP3    H216258   5.271   0.947   2.188  0.0286  0.2536 -0.6022
 5432TIP3   OH216259   6.418   2.706   1.479 -0.0409  0.1326  0.5854
 5432TIP3    H116260   6.456   2.789   1.451  3.0667 -1.9135 -2.0113
 5432TIP3    H216261   6.335   2.701   1.431  0.9212  0.7078 -1.2424
 5433TIP3   OH216262   5.069   2.458   2.879 -0.0026 -0.2296 -0.1857
 5433TIP3    H116263   4.999   2.412   2.832  0.8054 -0.5913 -1.0532
 5433TIP3    H216264   5.104   2.393   2.940  0.7546 -0.6117 -1.0075
 5434TIP3   OH216265   4.054   2.582   2.441  1.3892  0.0228 -0.2158
 5434TIP3    H116266   3.986   2.643   2.413  1.2965  0.4965  0.9733
 5434TIP3    H216267   4.104   2.630   2.506  0.8478 -1.4039  1.3319
 5435TIP3   OH216268   3.675   2.103   0.589 -0.3487 -0.2133 -0.4376
 5435TIP3    H116269   3.735   2.156   0.538  0.4507  0.0633  0.7520
 5435TIP3    H216270   3.709   2.107   0.678 -2.6584  0.7136  0.4648
 5436TIP3   OH216271   3.744   1.341   3.056  0.2917  0.4527 -0.4412
 5436TIP3    H116272   3.705   1.415   3.103 -1.8587 -0.9406  0.1486
 5436TIP3    H216273   3.713   1.350   2.966  0.5580  0.6063 -0.5184
 5437TIP3   OH216274   5.293   4.605   4.887 -0.1637 -0.0876 -0.3690
 5437TIP3    H116275   5.372   4.658   4.896  0.6849 -1.5263  1.4843
 5437TIP3    H216276   5.249   4.613   4.972 -2.2628  0.9755 -1.4718
 5438TIP3   OH216277   3.403   2.040   4.314  0.1478  0.0998  0.9856
 5438TIP3    H116278   3.319   2.085   4.322 -0.1354 -0.0795 -0.7203
 5438TIP3    H216279   3.439   2.070   4.231  1.3903 -0.4870  1.2884
 5439TIP3   OH216280   4.343   0.176   5.136 -0.0544 -0.0166 -0.1938
 5439TIP3    H116281   4.285   0.244   5.104  0.3219  0.1557 -0.5078
 5439TIP3    H216282   4.330   0.103   5.076  1.2925  0.6054 -1.2879
 5440TIP3   OH216283   4.860   1.558   2.958  0.4559 -0.0734 -0.3863
 5440TIP3    H116284   4.946   1.575   2.998  0.4344 -1.9584  0.5916
 5440TIP3    H216285   4.880   1.532   2.868  0.8534  0.1506 -0.3649
 5441TIP3   OH216286   4.509   0.077   0.928  0.1475 -0.1523  0.2128
 5441TIP3    H116287   4.470   0.127   1.000 -0.8456 -1.2677  0.4781
 5441TIP3    H216288   4.440   0.072   0.862 -0.1042 -1.9414  0.5770
 5442TIP3   OH216289   2.641   1.309   4.647  0.8914  0.4265 -0.2997
 5442TIP3    H116290   2.660   1.387   4.595  0.1353  0.3429 -0.7256
 5442TIP3    H216291   2.546   1.297   4.637  0.8233  0.1001  0.6778
 5443TIP3   OH216292   5.933   6.517   3.068  0.3017 -0.1602  0.2661
 5443TIP3    H116293   6.024   6.547   3.061  0.2994  0.2147  1.7234
 5443TIP3    H216294   5.940   6.427   3.099  0.1674  0.2329  1.4876
 5444TIP3   OH216295   4.699   0.560   0.258 -0.2412  0.0861  0.2391
 5444TIP3    H116296   4.695   0.488   0.321 -2.8186  0.2242  0.3303
 5444TIP3    H216297   4.652   0.527   0.181  1.7616  0.3880 -1.1944
 5445TIP3   OH216298   4.035   1.500   3.877 -0.1525 -0.1708  0.2320
 5445TIP3    H116299   4.068   1.414   3.900  0.8250 -0.9141 -3.3986
 5445TIP3    H216300   4.112   1.557   3.880 -0.1529 -0.1312 -0.4293
 5446TIP3   OH216301   4.949   3.820   0.317 -0.0145 -0.4456  0.6691
 5446TIP3    H116302   4.929   3.807   0.224  2.1290  1.8038 -0.1965
 5446TIP3    H216303   4.875   3.871   0.350 -1.7062 -2.7886  0.7586
 5447TIP3   OH216304   2.689   3.971   2.970 -0.3078 -0.6047  0.1813
 5447TIP3    H116305   2.768   3.955   3.021  1.3892  1.6123 -1.5417
 5447TIP3    H216306   2.646   4.044   3.014  0.3495  0.3019 -0.6386
 5448TIP3   OH216307   2.231   1.085   0.203  0.1395  0.2797  0.3031
 5448TIP3    H116308   2.248   1.178   0.189 -0.1476  0.4251  0.8521
 5448TIP3    H216309   2.281   1.064   0.282  1.0184 -0.2895 -0.3858
 5449TIP3   OH216310   3.768   2.746   1.918  0.0857  0.0537  0.2944
 5449TIP3    H116311   3.848   2.749   1.971 -0.6776  0.6676  1.4695
 5449TIP3    H216312   3.711   2.812   1.958 -1.4223 -1.1226  0.1867
 5450TIP3   OH216313   5.597   0.923   3.800 -0.4416  0.3473  0.5520
 5450TIP3    H116314   5.566   1.011   3.775 -0.8206 -0.5859 -2.7894
 5450TIP3    H216315   5.690   0.936   3.819 -0.7433  1.6493  1.2833
 5451TIP3   OH216316   7.179   0.838   4.268  0.2798 -0.2460 -0.3622
 5451TIP3    H116317   7.121   0.896   4.317 -0.7471 -1.9192  0.4716
 5451TIP3    H216318   7.223   0.896   4.206 -0.4151  1.4790  0.6793
 5452TIP3   OH216319   1.602   1.679   5.175 -0.3361  0.3107  0.0486
 5452TIP3    H116320   1.648   1.691   5.259 -1.1826 -0.1693  0.5999
 5452TIP3    H216321   1.574   1.587   5.177  1.3967 -0.3233 -1.6752
 5453TIP3   OH216322   4.445   2.370   5.482  0.4261 -0.2171 -0.3529
 5453TIP3    H116323   4.498   2.424   5.540  0.9403 -1.2854  0.2042
 5453TIP3    H216324   4.363   2.356   5.529  0.8354 -1.0664  0.1397
 5454TIP3   OH216325   0.886   2.047   3.894  0.0347 -0.4555 -0.2494
 5454TIP3    H116326   0.825   2.121   3.901 -0.1140 -0.6744  0.8346
 5454TIP3    H216327   0.972   2.084   3.914  0.1271 -0.3624 -0.7832
 5455TIP3   OH216328   1.411   3.496   0.103 -0.1985  0.0151  0.0420
 5455TIP3    H116329   1.315   3.499   0.110 -0.3299 -0.6762 -1.2506
 5455TIP3    H216330   1.431   3.545   0.023  0.4639 -0.4773 -0.1043
 5456TIP3   OH216331   3.559   1.770   4.337  0.3273  0.4866  0.4667
 5456TIP3    H116332   3.614   1.846   4.354 -1.6414  1.5995  2.3704
 5456TIP3    H216333   3.497   1.800   4.270  0.3359  0.1296  0.2943
 5457TIP3   OH216334   6.683   3.757   1.986  0.1935  0.6226  0.2036
 5457TIP3    H116335   6.599   3.788   2.019 -0.0127 -0.1576  0.4340
 5457TIP3    H216336   6.682   3.780   1.893 -0.2456  0.6885  0.2235
 5458TIP3   OH216337   3.830   2.508   4.763 -0.5859 -0.3610 -0.3386
 5458TIP3    H116338   3.848   2.562   4.840 -1.3294 -1.8554  0.9478
 5458TIP3    H216339   3.815   2.571   4.693  0.4183  1.0485  0.6432
 5459TIP3   OH216340   6.500   4.104   5.086  0.2879  0.2243 -0.2069
 5459TIP3    H116341   6.481   4.186   5.132 -0.2267  1.0228 -1.7620
 5459TIP3    H216342   6.553   4.130   5.010  3.0108 -1.3144  1.0190
 5460TIP3   OH216343   5.337   0.348   3.029  0.3144 -0.3623  0.0135
 5460TIP3    H116344   5.321   0.263   2.988  2.8446 -0.1232 -1.6544
 5460TIP3    H216345   5.393   0.328   3.104 -0.6420 -0.3078  0.7724
 5461TIP3   OH216346   7.199   5.741   3.426  0.5100 -0.2130  0.3267
 5461TIP3    H116347   7.103   5.745   3.421  0.4696  0.3467  1.3885
 5461TIP3    H216348   7.221   5.661   3.378 -0.4648 -0.2178 -0.1594
 5462TIP3   OH216349   4.526   6.250   2.316  0.0792 -0.1608  0.1672
 5462TIP3    H116350   4.559   6.211   2.397 -0.1759  1.0108  0.8680
 5462TIP3    H216351   4.551   6.343   2.322  1.1971 -0.2815 -1.7075
 5463TIP3   OH216352   1.926   6.595   3.166 -0.3605  0.5906  0.0285
 5463TIP3    H116353   1.968   6.556   3.242 -1.6417  1.7396  1.4118
 5463TIP3    H216354   1.981   6.572   3.092  2.1940  1.3161  1.6002
 5464TIP3   OH216355   1.105   5.160   5.034 -0.1247  0.0780  0.4366
 5464TIP3    H116356   1.083   5.203   5.117  0.9745 -0.9076  1.2788
 5464TIP3    H216357   1.144   5.076   5.060 -0.2277 -0.4814 -1.0994
 5465TIP3   OH216358   2.317   3.030   0.768  0.5101 -0.1477  0.4256
 5465TIP3    H116359   2.332   2.980   0.688 -2.3002 -0.7416  0.2035
 5465TIP3    H216360   2.370   2.986   0.835  0.9129 -1.1594 -0.5442
 5466TIP3   OH216361   5.704   1.678   3.773  0.4987 -0.4464 -0.1677
 5466TIP3    H116362   5.622   1.706   3.732 -0.2295 -2.7726 -0.4442
 5466TIP3    H216363   5.723   1.747   3.837 -1.9219 -0.0387  0.2323
 5467TIP3   OH216364   6.772   6.312   0.165  0.2054 -0.4085 -0.1917
 5467TIP3    H116365   6.685   6.346   0.145  0.1857 -0.3636 -0.0309
 5467TIP3    H216366   6.818   6.386   0.205  0.4357 -0.3247 -0.6057
 5468TIP3   OH216367   5.265   3.325   0.598  0.7868 -0.1255  0.4095
 5468TIP3    H116368   5.357   3.327   0.570 -0.2281  1.4382 -3.3910
 5468TIP3    H216369   5.238   3.417   0.598 -0.8959 -0.5877  1.0539
 5469TIP3   OH216370   2.010   0.274   1.638  0.1970  0.3803  0.0340
 5469TIP3    H116371   2.004   0.303   1.729  0.0914  1.7661 -0.3945
 5469TIP3    H216372   2.031   0.180   1.644  4.7439  1.2352  1.5604
 5470TIP3   OH216373   2.752   2.251   3.848  0.0967 -0.4933 -0.3436
 5470TIP3    H116374   2.755   2.158   3.825 -0.2663 -0.3670 -0.9461
 5470TIP3    H216375   2.690   2.256   3.920  0.8033 -0.8286  0.2976
 5471TIP3   OH216376   1.909   3.214   3.706 -0.1049 -0.5928  0.4081
 5471TIP3    H116377   1.826   3.192   3.748 -0.6413  0.7007  0.0686
 5471TIP3    H216378   1.938   3.133   3.665 -1.2278 -1.0394  0.4820
 5472TIP3   OH216379   0.509   4.037   4.332 -0.1945 -0.0348 -0.2177
 5472TIP3    H116380   0.571   4.078   4.271  0.6921 -1.7666 -0.5348
 5472TIP3    H216381   0.437   4.007   4.277  0.1115 -0.6652 -0.2848
 5473TIP3   OH216382   3.839   5.043   0.292  0.8867 -0.0964  0.9425
 5473TIP3    H116383   3.841   5.016   0.384  0.9113  3.4206  2.1413
 5473TIP3    H216384   3.748   5.069   0.276  1.0110 -0.1069  0.1645
 5474TIP3   OH216385   0.547   5.803   1.062 -0.1350 -0.4367  0.2384
 5474TIP3    H116386   0.605   5.848   1.001 -0.7497  1.7265  1.1544
 5474TIP3    H216387   0.487   5.754   1.007  0.2362  0.2970 -0.8480
 5475TIP3   OH216388   2.778   4.494   4.602 -0.7630 -0.0259  0.7388
 5475TIP3    H116389   2.739   4.415   4.564 -1.1108  0.2984  0.4070
 5475TIP3    H216390   2.867   4.469   4.623 -0.7886 -0.4324  0.3861
 5476TIP3   OH216391   1.917   5.394   1.267 -0.0228 -0.0413  0.0464
 5476TIP3    H116392   1.828   5.402   1.233  0.0180  0.7737  0.0915
 5476TIP3    H216393   1.918   5.313   1.317 -0.8530  0.1414  0.3636
 5477TIP3   OH216394   2.521   2.065   4.153 -0.4619  0.3301 -0.7591
 5477TIP3    H116395   2.441   2.115   4.171  0.8231  2.4098 -0.5321
 5477TIP3    H216396   2.547   2.094   4.065 -0.3496 -0.9059 -1.1474
 5478TIP3   OH216397   3.903   2.308   5.838  0.4907 -0.2534 -0.5687
 5478TIP3    H116398   3.830   2.366   5.816  0.8579 -0.7056 -3.3485
 5478TIP3    H216399   3.975   2.368   5.861 -0.5034  0.2020  1.5524
 5479TIP3   OH216400   3.175   0.237   3.723  0.4194 -0.1921  0.0675
 5479TIP3    H116401   3.099   0.182   3.739 -0.6788  1.9928  3.2962
 5479TIP3    H216402   3.250   0.181   3.743 -0.4064 -1.6761 -0.8297
 5480TIP3   OH216403   6.808   1.590   4.592 -0.4458  0.0345  0.4771
 5480TIP3    H116404   6.848   1.522   4.539 -1.2193  0.5942 -0.8905
 5480TIP3    H216405   6.866   1.600   4.667  0.9235 -0.4993 -0.4752
 5481TIP3   OH216406   4.847   5.937   3.011  0.3781 -0.6133 -0.4364
 5481TIP3    H116407   4.799   5.912   3.089 -0.8444 -0.6230 -1.1601
 5481TIP3    H216408   4.937   5.909   3.027 -0.1808 -2.0736  0.3000
 5482TIP3   OH216409   3.974   4.030   0.469 -0.0546  0.9145 -0.2447
 5482TIP3    H116410   4.047   3.997   0.521 -0.1105  1.5750  0.2611
 5482TIP3    H216411   3.977   4.125   0.480 -1.5226  0.9097  0.5317
 5483TIP3   OH216412   7.024   0.058   0.986  0.0222  0.9615 -0.1662
 5483TIP3    H116413   6.991   0.137   1.029  0.7374  1.5144 -0.5983
 5483TIP3    H216414   7.114   0.050   1.015  0.2723  0.8954 -0.9267
 5484TIP3   OH216415   0.941   5.059   2.823  0.1183 -0.3701 -0.1884
 5484TIP3    H116416   0.868   5.048   2.884  0.4732  0.8848  0.5152
 5484TIP3    H216417   0.942   4.979   2.771 -0.7028 -1.1274  0.9178
 5485TIP3   OH216418   1.731   4.404   4.784  0.1088 -0.1339  0.2114
 5485TIP3    H116419   1.737   4.312   4.757  2.5704  0.1933 -0.6078
 5485TIP3    H216420   1.795   4.411   4.856  0.0206  0.9621  0.1890
 5486TIP3   OH216421   1.955   2.433   5.678  0.0460  0.0511  0.0706
 5486TIP3    H116422   1.902   2.362   5.715  0.8459  0.1145  1.4192
 5486TIP3    H216423   1.895   2.482   5.623 -1.4171  0.3233  1.8178
 5487TIP3   OH216424   6.242   2.647   5.882 -0.1614 -0.1333  0.0558
 5487TIP3    H116425   6.290   2.579   5.834  2.2391 -0.4125  2.6143
 5487TIP3    H216426   6.294   2.726   5.869  0.2013 -0.0845  1.5927
 5488TIP3   OH216427   1.950   4.936   1.884  0.0732  0.4161 -0.0991
 5488TIP3    H116428   1.864   4.929   1.926 -0.4861  0.2027 -1.2386
 5488TIP3    H216429   1.944   5.014   1.830  0.8778  0.8366  0.3953
 5489TIP3   OH216430   1.548   6.012   0.510  0.0131  0.5640 -0.4132
 5489TIP3    H116431   1.597   5.955   0.568  0.3686 -0.7653 -1.9378
 5489TIP3    H216432   1.480   6.050   0.565  0.7446 -0.1145  0.9961
 5490TIP3   OH216433   4.830   2.817   3.296 -0.6962  0.4267  0.0350
 5490TIP3    H116434   4.753   2.866   3.324  0.1133  0.7983  1.7694
 5490TIP3    H216435   4.813   2.727   3.325 -0.6693  0.4113  0.0033
 5491TIP3   OH216436   6.177   0.635   5.653 -0.3933  0.4031  0.1598
 5491TIP3    H116437   6.262   0.616   5.614 -0.6795  1.7706 -1.2341
 5491TIP3    H216438   6.196   0.695   5.725 -0.1017 -0.0275  0.4443
 5492TIP3   OH216439   6.071   4.409   0.983  0.8088 -0.0382  1.2945
 5492TIP3    H116440   5.985   4.403   1.025 -0.0605 -2.0005 -0.5474
 5492TIP3    H216441   6.130   4.365   1.044  0.7983  2.3026  3.0975
 5493TIP3   OH216442   3.111   5.481   4.335 -0.5029 -0.5904 -0.1983
 5493TIP3    H116443   3.110   5.469   4.430 -0.5550 -1.4567 -0.2995
 5493TIP3    H216444   3.034   5.435   4.304 -0.8467  0.2432 -0.6144
 5494TIP3   OH216445   2.355   0.030   2.791  0.6775 -0.4186 -0.6820
 5494TIP3    H116446   2.383  -0.058   2.768 -0.0315 -0.6092 -0.8459
 5494TIP3    H216447   2.281   0.048   2.733  0.6638  0.1884 -0.4867
 5495TIP3   OH216448   0.070   1.481   3.989 -0.0400  0.0462  0.1150
 5495TIP3    H116449   0.136   1.511   3.927 -0.8083  1.1943 -0.1754
 5495TIP3    H216450   0.078   1.540   4.064  0.4787 -0.9545  0.8743
 5496TIP3   OH216451   0.752   0.525   1.451  0.6278  0.2024 -0.2894
 5496TIP3    H116452   0.682   0.469   1.486 -0.5847  0.2257 -2.4950
 5496TIP3    H216453   0.829   0.469   1.450 -0.2935 -1.1020 -1.3878
 5497TIP3   OH216454   5.417   5.929   5.106 -0.2905  0.0043 -0.7332
 5497TIP3    H116455   5.501   5.914   5.149 -0.1598  0.9261 -0.6451
 5497TIP3    H216456   5.356   5.872   5.152 -0.1774  1.0687  0.7786
 5498TIP3   OH216457   5.411   4.453   2.722  0.8298  0.0957 -0.2486
 5498TIP3    H116458   5.496   4.477   2.684  1.5866 -0.7962  0.8156
 5498TIP3    H216459   5.400   4.361   2.699  0.6853 -0.0950  0.5687
 5499TIP3   OH216460   7.186   1.811   5.522 -0.0369  0.1610  0.4408
 5499TIP3    H116461   7.114   1.805   5.459  0.0036  0.2506  0.3857
 5499TIP3    H216462   7.210   1.721   5.540 -0.6107  0.1104  0.9699
 5500TIP3   OH216463   4.239   4.835   2.518  0.1035 -0.7954 -0.0479
 5500TIP3    H116464   4.179   4.900   2.555 -0.4133 -1.1188 -0.3052
 5500TIP3    H216465   4.325   4.862   2.549 -0.1237 -0.0731 -0.0272
 5501TIP3   OH216466   2.232   1.647   3.602 -0.0378 -0.0726 -0.2137
 5501TIP3    H116467   2.196   1.727   3.640  2.2098  0.3327  1.3055
 5501TIP3    H216468   2.183   1.635   3.520 -1.7386  1.7672  0.4387
 5502TIP3   OH216469   1.199   1.421   0.019  0.1338  0.1021  0.1428
 5502TIP3    H116470   1.158   1.497   0.060  0.6123  0.8091 -0.6580
 5502TIP3    H216471   1.135   1.391  -0.046  0.8200  1.1880 -1.0868
 5503TIP3   OH216472   4.928   6.633   3.701 -0.1116  0.2916  0.4895
 5503TIP3    H116473   4.884   6.658   3.783 -1.4690 -0.5686  0.0600
 5503TIP3    H216474   4.962   6.545   3.718  0.0957  0.3342  0.2986
 5504TIP3   OH216475   0.511   2.686   0.491 -0.1287  0.4782  0.2938
 5504TIP3    H116476   0.600   2.656   0.512  0.3533  1.2461 -0.5408
 5504TIP3    H216477   0.454   2.617   0.524  0.8577 -0.7453 -0.4629
 5505TIP3   OH216478   2.112   5.240   0.146  0.3935 -0.0265  0.1123
 5505TIP3    H116479   2.163   5.213   0.222 -0.3953 -0.9987  0.3160
 5505TIP3    H216480   2.112   5.335   0.150 -1.5653 -0.0500  2.6798
 5506TIP3   OH216481   6.200   5.016   1.236  0.4932 -0.4463 -0.0916
 5506TIP3    H116482   6.199   5.098   1.285  1.6817 -0.6758  0.3669
 5506TIP3    H216483   6.258   4.958   1.286 -0.5913 -1.6952 -0.2216
 5507TIP3   OH216484   6.452   1.206   1.808  0.0386 -0.6269  0.2254
 5507TIP3    H116485   6.508   1.137   1.843  0.0426 -0.7338  0.0150
 5507TIP3    H216486   6.509   1.283   1.802  0.4405 -0.9815 -0.8830
 5508TIP3   OH216487   6.921   2.834   2.281  0.5482 -0.0980 -0.2858
 5508TIP3    H116488   6.922   2.839   2.185  1.0228  1.5946 -0.2221
 5508TIP3    H216489   7.008   2.861   2.308 -0.2802  1.8453  0.6664
 5509TIP3   OH216490   6.553   6.017   1.472  0.0401 -0.2099 -0.5026
 5509TIP3    H116491   6.514   5.948   1.526 -0.7956  1.3390  0.9772
 5509TIP3    H216492   6.585   6.081   1.536  0.3984  0.9830 -1.8410
 5510TIP3   OH216493   3.311   2.639   4.952  0.0227 -0.0021 -0.0954
 5510TIP3    H116494   3.386   2.600   4.907  0.0061 -1.3334  0.9840
 5510TIP3    H216495   3.344   2.721   4.989  0.6824 -0.1190 -0.4232
 5511TIP3   OH216496   7.112   0.675   0.054 -0.5046  0.0667 -0.2476
 5511TIP3    H116497   7.184   0.696   0.113 -1.1995 -1.9614  1.4468
 5511TIP3    H216498   7.077   0.760   0.028  0.3380  1.0481  1.6280
 5512TIP3   OH216499   3.243   6.004   2.449  0.4159 -0.4412  0.0351
 5512TIP3    H116500   3.197   6.035   2.528 -0.5691 -0.8854 -0.3481
 5512TIP3    H216501   3.178   5.951   2.403  0.9393 -0.0785 -1.1521
 5513TIP3   OH216502   1.362   2.628   4.005  0.9233  0.0130  0.7705
 5513TIP3    H116503   1.369   2.533   3.999 -2.3820 -0.2535 -0.8316
 5513TIP3    H216504   1.430   2.662   3.947  0.8662 -1.4447 -0.1813
 5514TIP3   OH216505   4.124   0.515   4.799  0.1905  0.1248  0.0334
 5514TIP3    H116506   4.056   0.578   4.822  0.3298  0.8708 -1.4675
 5514TIP3    H216507   4.121   0.511   4.703  1.3613 -0.8335  0.0203
 5515TIP3   OH216508   0.807   2.113   1.516 -0.1883  0.1306  0.3615
 5515TIP3    H116509   0.724   2.161   1.510 -0.4210 -0.3950 -0.8937
 5515TIP3    H216510   0.782   2.027   1.550 -0.3362 -0.3906 -1.0000
 5516TIP3   OH216511   2.184   2.910   4.164 -0.4687 -0.2103  0.1448
 5516TIP3    H116512   2.091   2.927   4.181 -0.1342  1.6096  0.3781
 5516TIP3    H216513   2.223   2.904   4.251 -0.5208 -2.2276  0.0779
 5517TIP3   OH216514   1.142   4.855   0.071 -0.3586 -0.0637 -0.0942
 5517TIP3    H116515   1.125   4.855  -0.023  2.0460 -0.4426 -0.5892
 5517TIP3    H216516   1.206   4.786   0.084 -0.3648  0.2286  1.7940
 5518TIP3   OH216517   6.107   0.309   1.986  0.1917 -0.1620  0.0934
 5518TIP3    H116518   6.195   0.297   1.950 -0.2752 -0.6129 -0.9201
 5518TIP3    H216519   6.055   0.342   1.913 -1.1000 -2.3802 -0.0706
 5519TIP3   OH216520   0.046   3.940   4.635 -0.3988  0.3019  0.3358
 5519TIP3    H116521  -0.041   3.951   4.674 -0.3871  1.0427  0.1666
 5519TIP3    H216522   0.031   3.942   4.541 -0.1372  0.9985  0.3042
 5520TIP3   OH216523   3.971   6.539   1.281 -0.1773 -0.8674  0.6343
 5520TIP3    H116524   4.064   6.539   1.261 -0.3799  0.5268 -0.4700
 5520TIP3    H216525   3.930   6.497   1.206 -0.5547 -0.0172  0.3507
 5521TIP3   OH216526   3.700   6.341   0.526 -0.1865 -0.0465  0.0921
 5521TIP3    H116527   3.640   6.349   0.600  0.6129  1.3870  0.6275
 5521TIP3    H216528   3.668   6.266   0.477  0.7637 -2.7440  3.2874
 5522TIP3   OH216529   6.719   0.959   3.588 -0.5115 -0.3433 -0.7441
 5522TIP3    H116530   6.784   1.029   3.575 -0.3202 -0.4842 -0.5513
 5522TIP3    H216531   6.710   0.953   3.683 -1.6495  0.4500 -0.7726
 5523TIP3   OH216532   6.645   1.690   4.212 -0.6521  0.5261  0.3045
 5523TIP3    H116533   6.609   1.669   4.298 -0.8664  0.4833  0.2040
 5523TIP3    H216534   6.579   1.746   4.172 -0.3400  0.9430  0.3532
 5524TIP3   OH216535   5.817   4.529   2.322 -0.1669  0.3565  0.1412
 5524TIP3    H116536   5.749   4.587   2.289 -0.4626 -0.1598 -0.1585
 5524TIP3    H216537   5.885   4.531   2.255 -1.5721 -2.1833 -1.5350
 5525TIP3   OH216538   5.009   5.994   5.097 -0.4871 -0.0445  0.2545
 5525TIP3    H116539   5.017   6.013   5.191  0.9908  0.9340 -0.0278
 5525TIP3    H216540   5.044   5.906   5.087  2.7617  1.0863  0.2391
 5526TIP3   OH216541   4.532   4.003   5.379 -0.4647  0.1168  0.6238
 5526TIP3    H116542   4.591   4.043   5.315  0.4460 -2.2543 -0.1358
 5526TIP3    H216543   4.574   4.018   5.463  0.3509 -0.0689  0.2619
 5527TIP3   OH216544   2.156   4.567   4.682 -0.3157 -0.4691 -0.2426
 5527TIP3    H116545   2.105   4.625   4.740  0.8494  0.4369 -0.0724
 5527TIP3    H216546   2.218   4.524   4.741  0.0964 -0.4358 -0.6522
 5528TIP3   OH216547   3.228   3.316   4.819  0.1601 -0.2485  0.4929
 5528TIP3    H116548   3.180   3.329   4.737  0.3543  0.5288  0.4946
 5528TIP3    H216549   3.199   3.230   4.850  1.0366 -1.1318 -1.0162
 5529TIP3   OH216550   4.874   4.484   2.471 -0.5170 -0.1201 -0.7923
 5529TIP3    H116551   4.831   4.545   2.410 -1.9935  0.0935  0.4036
 5529TIP3    H216552   4.846   4.397   2.442 -0.2455 -0.0958 -1.1316
 5530TIP3   OH216553   5.064   5.674   1.076  0.1406 -0.0893 -0.6390
 5530TIP3    H116554   5.075   5.755   1.025  0.1214 -0.0677 -0.6082
 5530TIP3    H216555   5.132   5.679   1.144 -0.1267  0.0914 -0.3864
 5531TIP3   OH216556   1.792   3.876   3.940 -0.0138  0.0323 -0.0418
 5531TIP3    H116557   1.769   3.953   3.889 -1.2859  0.1466  0.6526
 5531TIP3    H216558   1.721   3.868   4.004 -0.1298 -1.9314 -0.3457
 5532TIP3   OH216559   1.821   4.280   0.404 -0.1680 -0.3072 -0.0207
 5532TIP3    H116560   1.757   4.223   0.448  0.8526  0.1212  2.1550
 5532TIP3    H216561   1.789   4.368   0.420  1.5373 -0.0062  2.2524
 5533TIP3   OH216562   5.302   4.040   2.378  0.3796 -0.3324  0.1661
 5533TIP3    H116563   5.394   4.053   2.356  0.3024 -1.9966 -1.4365
 5533TIP3    H216564   5.263   4.005   2.297 -0.9608 -2.5344  1.6445
 5534TIP3   OH216565   2.082   3.420   1.579  0.2461 -0.0220  0.1843
 5534TIP3    H116566   2.016   3.391   1.643  0.1333 -1.3131 -0.4748
 5534TIP3    H216567   2.038   3.411   1.494  1.2730 -0.9692 -0.2718
 5535TIP3   OH216568   3.052   4.564   4.602  0.1055  0.3462  0.3911
 5535TIP3    H116569   3.107   4.632   4.641 -0.4893  0.9649  0.1775
 5535TIP3    H216570   3.109   4.488   4.594  0.5075  0.5086  1.5558
 5536TIP3   OH216571   6.475   6.369   1.675  0.1819  0.6885 -0.2070
 5536TIP3    H116572   6.439   6.363   1.763  1.7854 -0.7641  0.4259
 5536TIP3    H216573   6.436   6.295   1.628 -0.9060  1.6396 -0.8351
 5537TIP3   OH216574   3.343   1.033   0.211 -0.2400  0.0819 -0.5420
 5537TIP3    H116575   3.257   1.067   0.186 -0.9653 -0.9385  0.4700
 5537TIP3    H216576   3.326   0.946   0.246  1.0576  0.3059  0.7798
 5538TIP3   OH216577   0.184   0.691   0.233  0.3955 -0.0275  0.5862
 5538TIP3    H116578   0.184   0.600   0.262  3.2761 -0.1482  0.4655
 5538TIP3    H216579   0.240   0.691   0.155  0.1929  1.7866  0.3985
 5539TIP3   OH216580   3.388   3.741   2.553 -0.0507 -0.0836 -0.6365
 5539TIP3    H116581   3.333   3.667   2.580  1.7338 -1.8833 -1.6983
 5539TIP3    H216582   3.331   3.817   2.562 -1.3536 -1.2764  2.4462
 5540TIP3   OH216583   3.665   6.096   1.409  0.1181  0.3115  0.2407
 5540TIP3    H116584   3.639   6.085   1.500  0.2182 -3.0605 -0.0096
 5540TIP3    H216585   3.751   6.137   1.413 -0.4981  1.5586  1.5489
 5541TIP3   OH216586   3.911   4.499   4.747  0.2457  0.3713  0.4474
 5541TIP3    H116587   3.966   4.469   4.820 -0.3317 -1.2270  0.2718
 5541TIP3    H216588   3.827   4.454   4.761  0.4122 -0.7349 -1.6823
 5542TIP3   OH216589   4.953   5.363   2.480  0.0598  0.0557  0.3937
 5542TIP3    H116590   4.920   5.323   2.399 -1.7380 -2.6642  2.3268
 5542TIP3    H216591   5.005   5.295   2.522 -1.6473  0.1996  2.9828
 5543TIP3   OH216592   5.470   5.119   0.666 -0.1122  0.0227 -0.0223
 5543TIP3    H116593   5.534   5.103   0.735  0.2806 -1.4303 -0.6899
 5543TIP3    H216594   5.407   5.180   0.705  0.2224 -0.5790  1.5273
 5544TIP3   OH216595   4.641   0.572   5.797  0.0444  0.2313  0.3166
 5544TIP3    H116596   4.631   0.643   5.733  0.9942 -1.1290 -1.4324
 5544TIP3    H216597   4.558   0.525   5.794  0.0964  0.1546  0.0479
 5545TIP3   OH216598   3.978   2.143   0.665  0.0894 -0.3490  0.6035
 5545TIP3    H116599   3.937   2.124   0.581 -2.3297 -1.0178  1.8552
 5545TIP3    H216600   4.053   2.084   0.669 -0.6732 -1.4345 -0.4322
 5546TIP3   OH216601   5.286   6.068   1.358  0.6503  0.1182  0.0877
 5546TIP3    H116602   5.326   6.012   1.292 -0.5923 -0.9801  0.2276
 5546TIP3    H216603   5.260   6.007   1.428  0.1165  0.9973  0.6680
 5547TIP3   OH216604   4.058   5.776   5.366 -0.0017  0.3808 -0.3166
 5547TIP3    H116605   4.098   5.853   5.325 -0.0398  0.3940 -0.3292
 5547TIP3    H216606   3.992   5.747   5.302 -0.0499  0.3919 -0.2720
 5548TIP3   OH216607   0.162   2.715   1.895 -0.2291 -0.0181  0.1983
 5548TIP3    H116608   0.195   2.750   1.978 -2.0705 -2.7620  2.2612
 5548TIP3    H216609   0.199   2.627   1.890 -1.5289 -0.5298 -1.0618
 5549TIP3   OH216610   5.663   2.242   1.035  0.4653  0.7948  0.2212
 5549TIP3    H116611   5.637   2.285   1.116  0.3276 -0.2688  0.7503
 5549TIP3    H216612   5.600   2.171   1.023  0.5404  0.8784 -0.7736
 5550TIP3   OH216613   4.829   2.262   3.507  0.1129 -0.3788  0.4548
 5550TIP3    H116614   4.866   2.345   3.536  0.1082 -0.6975  1.4166
 5550TIP3    H216615   4.753   2.249   3.564 -0.4936 -0.5447 -0.3816
 5551TIP3   OH216616   3.084   3.592   5.359 -0.0145 -0.2555 -0.0839
 5551TIP3    H116617   3.154   3.586   5.295 -0.8053 -2.0042 -0.8395
 5551TIP3    H216618   3.061   3.501   5.379 -1.4340  0.2708  0.8418
 5552TIP3   OH216619   4.331   5.952   2.137  0.1284  0.2242 -0.2582
 5552TIP3    H116620   4.318   5.858   2.124  0.6659  0.1787 -0.4994
 5552TIP3    H216621   4.246   5.984   2.166  0.0107 -0.3801  0.0737
 5553TIP3   OH216622   3.189   2.893   4.093  0.4567  0.1837 -0.0627
 5553TIP3    H116623   3.197   2.802   4.122  0.7704 -0.9001 -3.2540
 5553TIP3    H216624   3.105   2.922   4.130  0.0914 -1.5582  0.5919
 5554TIP3   OH216625   2.812   0.718   2.881  0.0703 -0.0307 -0.3943
 5554TIP3    H116626   2.846   0.630   2.864 -0.6154 -0.3070 -0.3659
 5554TIP3    H216627   2.717   0.706   2.889 -0.0931  0.8034 -0.9838
 5555TIP3   OH216628   2.319   0.096   1.623 -0.3056 -0.0077 -0.0889
 5555TIP3    H116629   2.231   0.081   1.656  0.0739 -0.3978  0.7560
 5555TIP3    H216630   2.372   0.027   1.661  0.6663  1.0823  0.6112
 5556TIP3   OH216631   0.493   0.637   0.810  0.0363 -0.2289 -0.2859
 5556TIP3    H116632   0.472   0.617   0.901  0.0521  0.4350 -0.1260
 5556TIP3    H216633   0.581   0.601   0.797 -1.1936 -3.2717 -1.0468
 5557TIP3   OH216634   2.334   4.533   2.067  0.1053 -0.6518  0.1813
 5557TIP3    H116635   2.328   4.622   2.031 -0.6245  0.0578  1.9410
 5557TIP3    H216636   2.427   4.523   2.088 -0.1438  0.6776  2.1883
 5558TIP3   OH216637   0.897   6.137   2.115 -0.0773 -0.0283 -0.0354
 5558TIP3    H116638   0.987   6.107   2.108  0.6356  1.8476  0.5381
 5558TIP3    H216639   0.883   6.191   2.036  0.6308  2.7975  1.6289
 5559TIP3   OH216640   6.146   5.057   3.791  0.1331  0.2144  0.1165
 5559TIP3    H116641   6.163   5.148   3.765  0.0150  0.4668  0.8692
 5559TIP3    H216642   6.140   5.009   3.709  1.8107  0.5817 -0.2518
 5560TIP3   OH216643   5.513   5.486   3.928  0.0784  0.9997 -0.2278
 5560TIP3    H116644   5.480   5.479   3.839 -1.9147 -0.3192  0.5336
 5560TIP3    H216645   5.603   5.453   3.923  0.2373  1.6065 -1.8418
 5561TIP3   OH216646   1.543   4.960   4.248 -0.3737  0.0387 -0.5094
 5561TIP3    H116647   1.595   4.956   4.168 -0.2845  1.2643 -0.5337
 5561TIP3    H216648   1.523   5.053   4.258  0.5478  0.0587  1.4866
 5562TIP3   OH216649   3.195   1.151   3.029  0.4760 -0.1381  0.5350
 5562TIP3    H116650   3.189   1.237   3.070  0.7987 -0.1826  0.6757
 5562TIP3    H216651   3.288   1.140   3.009  0.9018 -1.5563  2.8848
 5563TIP3   OH216652   3.952   3.041   0.197  0.8062  0.0133 -0.0109
 5563TIP3    H116653   3.967   2.964   0.142  0.0850 -0.2367  0.1203
 5563TIP3    H216654   3.928   3.004   0.282 -0.8474  0.3483 -0.2926
 5564TIP3   OH216655   6.014   0.668   5.268  0.2507 -0.5387  0.2039
 5564TIP3    H116656   5.940   0.609   5.256  1.8309 -2.4070 -0.9977
 5564TIP3    H216657   5.995   0.742   5.211 -0.8482 -0.8279  0.1766
 5565TIP3   OH216658   7.091   2.831   3.759 -0.3120  0.6065 -0.4738
 5565TIP3    H116659   7.030   2.883   3.707 -0.5238 -1.2008 -2.1626
 5565TIP3    H216660   7.054   2.743   3.759  0.3487  0.2695  1.7604
 5566TIP3   OH216661   2.446   2.250   2.044  0.2862  0.5487 -0.3354
 5566TIP3    H116662   2.410   2.276   2.129 -3.2287  0.5936 -1.6847
 5566TIP3    H216663   2.379   2.195   2.005  2.4875 -0.8196 -2.4914
 5567TIP3   OH216664   2.915   2.492   2.485 -0.4947  0.1502  0.2944
 5567TIP3    H116665   2.914   2.421   2.421 -0.8982 -0.5515  1.0581
 5567TIP3    H216666   2.841   2.473   2.543 -1.0547  1.5974  0.0952
 5568TIP3   OH216667   6.319   5.103   4.806 -0.2964 -0.2631  0.6827
 5568TIP3    H116668   6.249   5.163   4.780  0.1103 -0.4039 -0.8700
 5568TIP3    H216669   6.304   5.024   4.753  0.1985 -0.8500  1.4013
 5569TIP3   OH216670   6.480   0.220   3.722 -0.1372  0.5991 -0.0794
 5569TIP3    H116671   6.543   0.282   3.686  0.0902 -0.3118 -1.2815
 5569TIP3    H216672   6.457   0.257   3.808  0.4639  2.0023 -0.4990
 5570TIP3   OH216673   0.205   0.795   3.077 -0.3514  0.2399  0.1961
 5570TIP3    H116674   0.282   0.818   3.026 -0.0495  0.6996  0.8418
 5570TIP3    H216675   0.171   0.879   3.108 -1.1984  0.0541 -0.2033
 5571TIP3   OH216676   1.499   1.213   1.451  0.3269 -0.2043  0.2337
 5571TIP3    H116677   1.562   1.158   1.403  1.0183  1.4808 -0.8750
 5571TIP3    H216678   1.530   1.302   1.437 -1.5666  0.5792  0.8040
 5572TIP3   OH216679   0.468   4.206   3.586 -0.2838 -0.1767 -0.4709
 5572TIP3    H116680   0.438   4.119   3.561 -0.5655  0.2340 -1.6453
 5572TIP3    H216681   0.548   4.191   3.635 -0.3757 -1.1049 -0.5866
 5573TIP3   OH216682   0.071   5.672   5.845 -0.6968 -0.5177  0.1390
 5573TIP3    H116683   0.042   5.652   5.756 -1.5184  1.4048 -0.0716
 5573TIP3    H216684   0.166   5.686   5.837 -0.4011 -2.3582 -0.0138
 5574TIP3   OH216685   5.096   0.682   5.348  0.0962  0.1599  0.1937
 5574TIP3    H116686   5.072   0.649   5.435  0.9467  0.3976  0.5326
 5574TIP3    H216687   5.121   0.603   5.299  1.6579  0.2027  0.8500
 5575TIP3   OH216688   6.506   0.828   0.195 -0.2360 -0.2182 -0.0956
 5575TIP3    H116689   6.544   0.836   0.108 -1.3755  1.8056 -0.4549
 5575TIP3    H216690   6.426   0.777   0.182  0.7358 -1.9301  0.2040
 5576TIP3   OH216691   5.633   2.335   3.540  0.8198 -0.4840  0.2240
 5576TIP3    H116692   5.549   2.317   3.581  0.3052 -1.5696 -1.2228
 5576TIP3    H216693   5.690   2.263   3.569  1.2289  0.1360  1.0331
 5577TIP3   OH216694   6.522   6.023   4.872 -0.1900 -0.6953  0.0055
 5577TIP3    H116695   6.455   6.025   4.804 -0.3153 -1.6894  0.0859
 5577TIP3    H216696   6.528   5.931   4.897  0.2063 -0.4116  0.9944
 5578TIP3   OH216697   3.656   4.829   2.724  0.3823 -0.0032 -0.1418
 5578TIP3    H116698   3.668   4.735   2.731  1.6808  0.2310  1.1059
 5578TIP3    H216699   3.632   4.857   2.813  0.2775  0.8783 -0.4374
 5579TIP3   OH216700   3.525   6.157   5.157  0.0775 -0.4241 -0.0640
 5579TIP3    H116701   3.524   6.211   5.236  0.3693 -1.7214  0.8671
 5579TIP3    H216702   3.578   6.081   5.181 -3.1189 -2.8683 -0.0837
 5580TIP3   OH216703   2.313   5.796   3.280 -0.2926 -0.3573  0.2239
 5580TIP3    H116704   2.370   5.736   3.328 -0.3334 -2.7127 -2.4467
 5580TIP3    H216705   2.350   5.799   3.192 -3.0223 -0.2159 -0.9969
 5581TIP3   OH216706   0.589   3.378   4.056 -0.3303 -0.6873  0.8860
 5581TIP3    H116707   0.636   3.394   3.974 -0.9628 -2.3214  0.1593
 5581TIP3    H216708   0.657   3.349   4.117  0.2800  1.2982  1.2468
 5582TIP3   OH216709   4.593   0.757   5.606  0.2775  0.2179  0.0944
 5582TIP3    H116710   4.497   0.761   5.603  0.2841 -0.1950 -1.3285
 5582TIP3    H216711   4.617   0.814   5.679 -1.0501  0.2881  0.5054
 5583TIP3   OH216712   5.488   0.405   1.782 -0.3390 -0.2373  0.4829
 5583TIP3    H116713   5.446   0.319   1.782 -0.7028 -0.0657  0.2035
 5583TIP3    H216714   5.486   0.432   1.690 -0.1150  0.0142  0.5508
 5584TIP3   OH216715   6.453   5.968   0.528 -0.5175 -0.5058 -0.4948
 5584TIP3    H116716   6.503   6.009   0.458 -1.3366 -0.5844 -1.1305
 5584TIP3    H216717   6.476   5.875   0.524  1.6140 -0.1240  1.1707
 5585TIP3   OH216718   4.996   3.352   1.583  0.7806 -0.1545 -0.1111
 5585TIP3    H116719   5.044   3.430   1.553 -1.3758  1.0661 -0.5580
 5585TIP3    H216720   4.961   3.377   1.668  0.6790 -0.9153  0.0755
 5586TIP3   OH216721   6.648   1.751   2.555  0.2185  0.4888 -0.3983
 5586TIP3    H116722   6.580   1.721   2.495  0.0279  1.3435 -0.6272
 5586TIP3    H216723   6.684   1.830   2.513  2.5390 -0.8580 -1.1378
 5587TIP3   OH216724   5.084   4.366   2.299 -0.0734  0.1101  0.1743
 5587TIP3    H116725   5.125   4.397   2.219  1.7021 -0.1764  0.9116
 5587TIP3    H216726   5.088   4.441   2.359 -0.0634 -0.1023  0.4437
 5588TIP3   OH216727   1.487   6.249   2.401  0.1219  0.2184  0.2510
 5588TIP3    H116728   1.450   6.282   2.483 -3.6677  0.5504 -1.4009
 5588TIP3    H216729   1.561   6.307   2.384 -1.0362  2.3300  1.7925
 5589TIP3   OH216730   5.887   5.382   0.792 -0.1983 -0.0123  0.1013
 5589TIP3    H116731   5.833   5.458   0.816 -1.6877 -0.9661 -0.0783
 5589TIP3    H216732   5.976   5.407   0.816 -0.8075  1.3652  1.0607
 5590TIP3   OH216733   1.296   4.901   1.064  0.0736 -0.1472 -0.0598
 5590TIP3    H116734   1.329   4.924   0.978  0.2479  0.7930  0.2491
 5590TIP3    H216735   1.223   4.841   1.047 -0.0008  0.1652 -0.8623
 5591TIP3   OH216736   4.410   4.880   1.003  0.1232  0.0311 -0.4456
 5591TIP3    H116737   4.375   4.809   0.949  0.8628 -1.4147  0.9135
 5591TIP3    H216738   4.339   4.903   1.063  0.7471 -1.4952  0.9439
 5592TIP3   OH216739   5.224   0.389   5.533 -0.0523 -0.3703  0.4563
 5592TIP3    H116740   5.294   0.324   5.528 -0.0465 -0.2851 -0.6659
 5592TIP3    H216741   5.153   0.352   5.481 -0.8372 -0.4180  1.5119
 5593TIP3   OH216742   1.685   5.148   2.100  0.0660 -0.0830  0.1020
 5593TIP3    H116743   1.696   5.054   2.113 -1.4364 -0.4520 -1.0545
 5593TIP3    H216744   1.757   5.187   2.150  1.1201 -1.8571  0.0682
 5594TIP3   OH216745   1.397   3.092   0.927 -0.4599 -0.2797  0.3842
 5594TIP3    H116746   1.383   3.186   0.942 -0.8959 -0.0932 -1.0877
 5594TIP3    H216747   1.325   3.049   0.973  0.1679  0.0259  1.7253
 5595TIP3   OH216748   0.495   5.488   3.348  0.1540 -0.6893 -0.0435
 5595TIP3    H116749   0.471   5.548   3.277  1.0833  1.1236  1.0947
 5595TIP3    H216750   0.414   5.472   3.394  0.1904  1.4829  0.8979
 5596TIP3   OH216751   4.483   3.462   3.836  0.0580  0.0183  0.2690
 5596TIP3    H116752   4.398   3.454   3.879 -0.4113  1.5254 -0.3194
 5596TIP3    H216753   4.472   3.415   3.753 -0.2741  0.3732  0.1081
 5597TIP3   OH216754   5.169   3.996   0.976  0.7295 -0.2793 -0.2373
 5597TIP3    H116755   5.236   4.064   0.972  1.2520 -0.5581  1.9295
 5597TIP3    H216756   5.094   4.032   0.930  2.4211 -0.0871 -3.0951
 5598TIP3   OH216757   6.687   6.327   4.167  0.2107  0.2037 -0.0870
 5598TIP3    H116758   6.745   6.370   4.105 -0.0205  1.4010  0.4975
 5598TIP3    H216759   6.745   6.275   4.222  0.5476  0.1091 -0.5292
 5599TIP3   OH216760   6.219   4.576   5.306  0.0161 -0.2300  1.0190
 5599TIP3    H116761   6.183   4.593   5.219 -0.4843 -0.3022  1.2101
 5599TIP3    H216762   6.302   4.623   5.307 -0.0552 -0.0907  0.5606
 5600TIP3   OH216763   5.463   1.635   2.753 -0.0575 -0.8424  0.4802
 5600TIP3    H116764   5.446   1.556   2.702  1.8922 -1.8586  1.2773
 5600TIP3    H216765   5.543   1.615   2.802 -1.0713  0.5655  2.9032
 5601TIP3   OH216766   2.213   5.703   2.323 -0.3689  0.0660 -0.0076
 5601TIP3    H116767   2.248   5.770   2.264  0.1134 -0.9623 -0.9165
 5601TIP3    H216768   2.277   5.632   2.319 -1.8674 -1.3183 -0.6746
 5602TIP3   OH216769   1.694   0.391   3.300 -0.2610 -0.0459  0.0903
 5602TIP3    H116770   1.700   0.366   3.208  1.4131 -2.2057  0.6951
 5602TIP3    H216771   1.785   0.411   3.325 -0.4532 -0.9185  1.6015
 5603TIP3   OH216772   5.111   6.690   2.905 -0.4543  0.5062 -0.0054
 5603TIP3    H116773   5.074   6.760   2.850 -3.3901 -0.9436 -0.0506
 5603TIP3    H216774   5.048   6.679   2.975  2.2622  0.9666  2.7174
 5604TIP3   OH216775   0.074   2.527   1.651 -0.3662 -0.2460 -0.0973
 5604TIP3    H116776   0.106   2.564   1.733 -1.2352 -1.8532  1.0141
 5604TIP3    H216777   0.037   2.602   1.604  4.2420  1.6409 -1.2497
 5605TIP3   OH216778   4.821   4.814   0.179  0.2399 -0.1461 -0.1838
 5605TIP3    H116779   4.845   4.753   0.110 -1.4366 -0.6044 -0.3866
 5605TIP3    H216780   4.736   4.849   0.154 -0.9079 -1.0789  2.0896
 5606TIP3   OH216781   2.210   6.555   5.009  0.4340 -0.0270 -0.7304
 5606TIP3    H116782   2.202   6.576   5.102 -0.6639 -0.4470 -0.7116
 5606TIP3    H216783   2.270   6.621   4.974  0.1462  0.6896  0.0929
 5607TIP3   OH216784   2.550   3.101   1.700 -0.2001 -0.3613 -0.5660
 5607TIP3    H116785   2.476   3.153   1.731 -0.6081 -1.3346  0.1236
 5607TIP3    H216786   2.627   3.147   1.732 -0.5197  0.3593 -0.8155
 5608TIP3   OH216787   4.081   0.607   1.120 -0.2330 -0.1290 -0.8799
 5608TIP3    H116788   3.998   0.559   1.116 -1.4266  1.5238  1.4732
 5608TIP3    H216789   4.101   0.613   1.213  3.4119 -1.7305 -1.3828
 5609TIP3   OH216790   2.977   5.119   0.691  0.2421 -0.1291  0.0768
 5609TIP3    H116791   2.918   5.043   0.686 -0.6246  0.5983 -1.5495
 5609TIP3    H216792   3.061   5.083   0.718 -1.0359 -1.1294  3.1622
 5610TIP3   OH216793   4.933   3.163   2.587  0.4361  0.5149  0.4766
 5610TIP3    H116794   4.927   3.145   2.680 -1.6917  0.0829  0.3202
 5610TIP3    H216795   4.857   3.219   2.569 -1.5589 -2.5167 -1.5820
 5611TIP3   OH216796   4.509   4.110   3.409 -0.1168 -0.2604  0.4190
 5611TIP3    H116797   4.459   4.043   3.362  0.7710 -0.5675 -0.1139
 5611TIP3    H216798   4.564   4.151   3.341 -0.8841  1.2464  0.6685
 5612TIP3   OH216799   4.051   2.863   5.896  0.1478 -0.3312  0.5912
 5612TIP3    H116800   4.131   2.811   5.883  0.4662  0.5965 -1.8656
 5612TIP3    H216801   3.984   2.817   5.845  0.1186  0.8973 -0.5424
 5613TIP3   OH216802   1.549   5.202   1.086 -0.0312  0.2397  0.0642
 5613TIP3    H116803   1.607   5.142   1.038 -2.3203 -3.3932  1.4210
 5613TIP3    H216804   1.475   5.215   1.027  0.2861  1.5875 -0.0758
 5614TIP3   OH216805   6.280   1.577   0.469 -0.2515 -0.1923  0.5427
 5614TIP3    H116806   6.211   1.561   0.404 -0.2934 -0.3993  0.6371
 5614TIP3    H216807   6.301   1.670   0.458  0.2031 -0.3750 -0.2129
 5615TIP3   OH216808   5.636   4.382   0.074  0.3147 -0.3746  0.1143
 5615TIP3    H116809   5.643   4.466   0.030 -0.2041 -1.1838 -1.5945
 5615TIP3    H216810   5.719   4.338   0.057 -0.3754 -1.2185 -1.2714
 5616TIP3   OH216811   4.001   1.014   3.262 -0.2283  0.3824 -0.6416
 5616TIP3    H116812   3.970   1.098   3.296  0.1265 -0.3241  1.6204
 5616TIP3    H216813   4.093   1.011   3.288 -0.1336 -0.5257 -1.0575
 5617TIP3   OH216814   3.530   5.317   4.336  0.4858 -0.3957 -0.2232
 5617TIP3    H116815   3.606   5.362   4.374  0.3952  0.5692 -1.1403
 5617TIP3    H216816   3.466   5.387   4.323 -0.0101 -0.9582 -0.8207
 5618TIP3   OH216817   5.629   5.464   1.372  0.4986 -0.7869 -0.2737
 5618TIP3    H116818   5.640   5.494   1.282 -0.4798  0.1947 -0.0903
 5618TIP3    H216819   5.534   5.463   1.386  0.5740 -2.3429  0.2918
 5619TIP3   OH216820   6.960   1.250   1.068 -0.2674 -0.3037 -0.0989
 5619TIP3    H116821   6.908   1.323   1.103 -0.6628 -0.0730 -1.1184
 5619TIP3    H216822   6.895   1.192   1.027  0.0605 -1.1500  0.5402
 5620TIP3   OH216823   0.874   3.827   5.790  0.1872  0.7450 -0.3643
 5620TIP3    H116824   0.898   3.917   5.766 -1.2879  1.3916  0.4438
 5620TIP3    H216825   0.784   3.834   5.822 -0.2135 -1.1544 -0.9748
 5621TIP3   OH216826   3.093   5.246   3.466 -0.9524 -0.0870 -0.1197
 5621TIP3    H116827   3.074   5.152   3.462  0.3480 -0.4006  0.5065
 5621TIP3    H216828   3.013   5.288   3.433 -1.7815 -1.3843  0.1483
 5622TIP3   OH216829   3.979   4.081   4.278 -0.2786  0.0581  0.1325
 5622TIP3    H116830   4.059   4.090   4.226 -0.8748 -0.5783 -0.9313
 5622TIP3    H216831   3.908   4.089   4.215 -1.0870  1.1347  1.1443
 5623TIP3   OH216832   3.528   3.065   0.355  0.3833 -0.2750  0.3415
 5623TIP3    H116833   3.497   3.034   0.441 -0.4786  0.2950  0.2472
 5623TIP3    H216834   3.620   3.086   0.369  0.6658 -1.6654  0.7286
 5624TIP3   OH216835   4.730   2.552   1.967  0.0202  0.0875 -0.1365
 5624TIP3    H116836   4.714   2.645   1.951  1.2869  0.7461  2.0741
 5624TIP3    H216837   4.825   2.544   1.977 -0.0532 -1.4642 -0.3624
 5625TIP3   OH216838   1.242   0.982   2.690  0.0600  0.4533 -0.0921
 5625TIP3    H116839   1.291   1.021   2.617  0.0063  1.0458  0.1814
 5625TIP3    H216840   1.298   0.996   2.766 -0.4129  0.8896  0.1762
 5626TIP3   OH216841   1.999   4.242   4.668 -0.2427 -0.4702  0.2658
 5626TIP3    H116842   1.992   4.273   4.578 -0.1412 -3.4906 -0.9219
 5626TIP3    H216843   2.088   4.264   4.695  0.4292 -1.2641 -1.1655
 5627TIP3   OH216844   4.377   0.958   0.080  0.1948 -0.0720 -0.1171
 5627TIP3    H116845   4.303   0.966   0.020 -2.1365 -1.7805  2.2701
 5627TIP3    H216846   4.384   1.043   0.122 -1.5070 -0.3210  0.7267
 5628TIP3   OH216847   0.729   4.910   0.368 -0.8413  0.1286 -0.0913
 5628TIP3    H116848   0.691   4.852   0.434 -0.5387 -1.1534 -1.0095
 5628TIP3    H216849   0.813   4.871   0.346 -0.4882  1.0919 -0.5229
 5629TIP3   OH216850   2.787   4.777   4.955 -0.1469 -0.0733  0.0377
 5629TIP3    H116851   2.814   4.807   4.869 -1.0663 -1.1239 -0.6413
 5629TIP3    H216852   2.869   4.753   4.998  0.6479  3.2008  0.6194
 5630TIP3   OH216853   3.734   0.931   2.201  0.0743 -0.3698 -0.1357
 5630TIP3    H116854   3.774   1.014   2.175  2.3425 -1.4166 -0.2323
 5630TIP3    H216855   3.792   0.864   2.164 -1.8214 -2.0275 -0.2638
 5631TIP3   OH216856   3.527   1.189   5.651 -0.4006  0.1087 -0.5334
 5631TIP3    H116857   3.433   1.167   5.650 -0.1883 -0.8585 -0.5210
 5631TIP3    H216858   3.569   1.115   5.607  0.4511  0.0405  0.3513
 5632TIP3   OH216859   0.695   4.365   4.773  0.0522 -0.2280  0.1317
 5632TIP3    H116860   0.618   4.417   4.752  0.5017  0.5755  0.4301
 5632TIP3    H216861   0.709   4.311   4.695 -0.0319  0.5902 -0.4715
 5633TIP3   OH216862   2.668   4.738   0.936 -0.5214  0.2246  0.4510
 5633TIP3    H116863   2.637   4.828   0.925 -0.7872  0.2315  1.1896
 5633TIP3    H216864   2.597   4.684   0.902 -1.3876  0.2404  2.1338
 5634TIP3   OH216865   6.490   2.237   0.149  0.1910  0.5643  0.3037
 5634TIP3    H116866   6.498   2.300   0.078  0.6631  1.9488  1.5128
 5634TIP3    H216867   6.546   2.273   0.218 -1.8853  0.4352  2.1649
 5635TIP3   OH216868   0.556   6.725   0.245  0.4239  0.0674  0.0904
 5635TIP3    H116869   0.548   6.811   0.285  0.2550 -0.3800  1.0451
 5635TIP3    H216870   0.641   6.692   0.274  0.2886 -0.2768  0.1013
 5636TIP3   OH216871   3.315   1.454   3.722  0.0460 -0.0124 -0.3416
 5636TIP3    H116872   3.393   1.473   3.774  0.8756 -1.7042 -0.8902
 5636TIP3    H216873   3.332   1.493   3.636 -0.5194  1.1691  0.0617
 5637TIP3   OH216874   4.381   2.540   5.243  0.1521 -0.0307 -0.0346
 5637TIP3    H116875   4.354   2.483   5.171 -0.4952 -1.6497  1.4253
 5637TIP3    H216876   4.404   2.481   5.313 -1.2332  1.4901  1.8160
 5638TIP3   OH216877   3.314   6.116   2.194  0.1421  0.0041 -0.0026
 5638TIP3    H116878   3.360   6.127   2.111 -0.7621  1.2177 -0.3795
 5638TIP3    H216879   3.248   6.050   2.176  0.2631 -0.0887 -0.1080
 5639TIP3   OH216880   4.437   1.751   3.146  0.4654  0.0647 -0.2216
 5639TIP3    H116881   4.354   1.746   3.100  0.5997 -2.2581 -0.2870
 5639TIP3    H216882   4.503   1.757   3.076  0.5069 -0.8929 -0.2759
 5640TIP3   OH216883   2.220   5.997   2.467 -0.6268  0.0392 -0.0977
 5640TIP3    H116884   2.156   6.051   2.420  0.4667  0.0504 -1.6695
 5640TIP3    H216885   2.300   6.005   2.415  0.0616 -1.6616  0.6356
 5641TIP3   OH216886   0.689   0.415   4.133  0.0623  0.3180  0.7317
 5641TIP3    H116887   0.660   0.504   4.152 -0.6691  0.1924  0.2417
 5641TIP3    H216888   0.759   0.426   4.068  0.4550  0.5708  1.1934
 5642TIP3   OH216889   2.853   1.442   5.687  0.5047 -0.2055  0.2252
 5642TIP3    H116890   2.900   1.468   5.608  0.3980  0.0770  0.2542
 5642TIP3    H216891   2.916   1.455   5.758  0.1811  0.7949  0.3440
 5643TIP3   OH216892   3.348   4.040   4.095 -0.0491 -0.0155  0.7633
 5643TIP3    H116893   3.380   4.087   4.018  0.3888  0.7647  1.4110
 5643TIP3    H216894   3.416   4.053   4.161 -0.7833 -0.0057  1.5314
 5644TIP3   OH216895   7.034   5.281   5.539 -0.8256  0.1544 -0.6085
 5644TIP3    H116896   6.992   5.317   5.462 -0.3477 -0.7689 -1.3264
 5644TIP3    H216897   7.009   5.340   5.610 -2.5100  0.1716 -1.1757
 5645TIP3   OH216898   1.554   4.611   5.738 -0.8962 -0.1959  0.0967
 5645TIP3    H116899   1.549   4.515   5.738  3.3741 -0.6122 -0.3017
 5645TIP3    H216900   1.537   4.635   5.647 -2.9004 -0.3972  0.3709
 5646TIP3   OH216901   1.730   4.369   0.824 -0.0490  0.2559  0.5471
 5646TIP3    H116902   1.658   4.307   0.834 -1.2053  1.7396  1.8234
 5646TIP3    H216903   1.763   4.382   0.912 -0.2059  1.8722  0.3866
 5647TIP3   OH216904   2.649   3.067   4.906 -0.2970  0.1363 -0.4058
 5647TIP3    H116905   2.705   2.991   4.890 -1.2734 -1.3546  2.4853
 5647TIP3    H216906   2.567   3.047   4.862 -0.4239 -0.3222  0.0365
 5648TIP3   OH216907   0.830   5.771   1.186 -0.1786  0.3103 -0.5518
 5648TIP3    H116908   0.742   5.736   1.181  0.0745 -0.7050  1.0451
 5648TIP3    H216909   0.887   5.695   1.171  0.3788  0.1735  1.8448
 5649TIP3   OH216910   4.636   4.959   0.051  0.1572 -0.1431  0.5363
 5649TIP3    H116911   4.561   4.900   0.062  0.9992 -1.7664 -1.7494
 5649TIP3    H216912   4.640   4.977  -0.043  1.2996  1.7814  0.8921
 5650TIP3   OH216913   5.781   2.117   4.992 -0.1809  0.3519 -0.3878
 5650TIP3    H116914   5.821   2.185   5.047 -2.1847  2.0507 -0.9143
 5650TIP3    H216915   5.789   2.037   5.043  1.0896  1.2079  0.8375
 5651TIP3   OH216916   1.352   0.553   1.767  0.1000  0.3512  0.0653
 5651TIP3    H116917   1.337   0.462   1.793 -0.9810  1.1038  2.3195
 5651TIP3    H216918   1.273   0.577   1.719 -0.5473  0.6596  1.2386
 5652TIP3   OH216919   3.759   4.301   4.317  0.3665  0.2284  0.0767
 5652TIP3    H116920   3.822   4.371   4.304  0.6224 -0.0086  0.0336
 5652TIP3    H216921   3.709   4.328   4.394 -0.9391  1.4756 -1.1500
 5653TIP3   OH216922   4.975   4.674   0.450  0.2806 -0.1426  0.0904
 5653TIP3    H116923   4.880   4.676   0.438  0.1481 -1.6743  0.7393
 5653TIP3    H216924   5.010   4.668   0.361 -0.1692  1.0912 -0.2031
 5654TIP3   OH216925   4.861   3.057   1.953  0.1453 -0.9115 -0.0586
 5654TIP3    H116926   4.812   3.004   1.889  2.2018 -6.2202  2.1240
 5654TIP3    H216927   4.813   3.047   2.035  1.9286 -1.6877  0.9589
 5655TIP3   OH216928   1.817   3.679   3.760 -0.6337  0.1745  0.4305
 5655TIP3    H116929   1.777   3.720   3.684 -1.2148 -0.6167  0.3020
 5655TIP3    H216930   1.799   3.739   3.832 -0.8370  0.5016  0.1097
 5656TIP3   OH216931   2.313   5.628   1.993  0.4448  0.3876  0.0718
 5656TIP3    H116932   2.323   5.722   1.980  0.0698  0.2961 -1.0005
 5656TIP3    H216933   2.397   5.600   2.029  0.8145  1.0291 -0.2613
 5657TIP3   OH216934   6.191   3.403   0.800 -0.3167 -0.3638  0.3835
 5657TIP3    H116935   6.107   3.435   0.767  0.3447 -0.0339 -1.0495
 5657TIP3    H216936   6.232   3.362   0.724  1.0416 -0.0635  0.9422
 5658TIP3   OH216937   3.965   2.925   2.496 -0.0273  0.1565  0.1952
 5658TIP3    H116938   4.014   2.939   2.415 -1.1912 -1.0972 -0.7777
 5658TIP3    H216939   3.881   2.889   2.468 -0.7191  0.2874  1.9331
 5659TIP3   OH216940   0.087   2.395   3.946 -0.9873 -0.2093  0.6197
 5659TIP3    H116941   0.158   2.335   3.966  0.2984  0.5012 -1.5193
 5659TIP3    H216942   0.128   2.482   3.945 -1.7115  0.1687 -1.1268
 5660TIP3   OH216943   3.599   0.717   0.628  0.4113 -0.0692  0.5397
 5660TIP3    H116944   3.543   0.695   0.553 -0.6149  0.4800  1.1265
 5660TIP3    H216945   3.636   0.803   0.606  0.3254 -0.0334  0.5333
 5661TIP3   OH216946   2.813   2.757   4.426 -0.1243 -0.1368 -0.1313
 5661TIP3    H116947   2.769   2.800   4.352 -0.7817 -1.1050 -0.3173
 5661TIP3    H216948   2.906   2.774   4.411 -0.1651 -1.1515 -1.7338
 5662TIP3   OH216949   3.510   0.900   2.666 -0.1164 -0.1948 -0.3564
 5662TIP3    H116950   3.426   0.921   2.625 -0.2496  0.0472  0.0385
 5662TIP3    H216951   3.488   0.839   2.736  0.0722 -0.3336 -0.4166
 5663TIP3   OH216952   5.490   5.059   4.309 -0.2260  0.5414 -0.0038
 5663TIP3    H116953   5.417   5.097   4.261  0.7245  0.3114 -1.7100
 5663TIP3    H216954   5.547   5.022   4.242  0.8027 -0.4779  1.3582
 5664TIP3   OH216955   1.852   0.033   3.024 -0.0574  0.0121  0.2060
 5664TIP3    H116956   1.770   0.070   2.991  0.0414 -0.8915 -1.0876
 5664TIP3    H216957   1.872  -0.039   2.966  0.9319 -0.6917  1.3633
 5665TIP3   OH216958   6.920   1.986   2.568 -0.3526  0.4033 -0.0827
 5665TIP3    H116959   6.975   1.930   2.513 -1.4076  0.3140 -1.1132
 5665TIP3    H216960   6.855   2.021   2.507 -1.4587  0.4545  1.0890
 5666TIP3   OH216961   2.829   3.607   3.005 -0.0626 -0.4171 -0.3437
 5666TIP3    H116962   2.802   3.581   2.917  1.2144  1.3810 -1.3361
 5666TIP3    H216963   2.846   3.525   3.050 -0.2419 -1.3697 -1.9358
 5667TIP3   OH216964   5.841   6.066   5.026  0.8456  0.3398  0.0660
 5667TIP3    H116965   5.830   6.126   4.952  0.1971 -1.1091 -1.0749
 5667TIP3    H216966   5.935   6.050   5.029  0.9938  1.2052  0.2162
 5668TIP3   OH216967   0.077   3.573   4.137 -0.0212  0.1314 -0.6226
 5668TIP3    H116968   0.103   3.543   4.225  0.7654  1.7001 -0.2811
 5668TIP3    H216969   0.153   3.553   4.082 -0.3246 -0.4149 -0.8397
 5669TIP3   OH216970   6.314   6.177   1.577 -0.1706  0.1384 -0.0025
 5669TIP3    H116971   6.256   6.173   1.501 -0.3994 -0.2018  0.1873
 5669TIP3    H216972   6.320   6.086   1.608  2.0814 -0.2041 -1.2144
 5670TIP3   OH216973   0.445   0.058   4.963  0.0563  0.0076  0.3868
 5670TIP3    H116974   0.428   0.080   5.055 -0.4992 -0.2256  0.3432
 5670TIP3    H216975   0.516  -0.006   4.967 -0.5468 -0.6515  0.7128
 5671TIP3   OH216976   3.697   0.288   3.925 -0.1484 -0.0674 -0.3804
 5671TIP3    H116977   3.695   0.352   3.996 -2.2482 -1.8289  1.3090
 5671TIP3    H216978   3.752   0.216   3.959  0.2788 -0.1850 -1.2878
 5672TIP3   OH216979   0.134   4.978   1.928  0.1645  0.1867 -0.0480
 5672TIP3    H116980   0.111   4.943   1.841  0.5946  2.0044 -0.9333
 5672TIP3    H216981   0.051   5.010   1.963  0.4342  2.1474 -1.0894
 5673TIP3   OH216982   3.442   4.105   4.738 -0.2648  0.5156  0.0955
 5673TIP3    H116983   3.391   4.110   4.657 -0.0430 -0.6283 -0.1290
 5673TIP3    H216984   3.452   4.011   4.754  1.4738  0.7195  0.3200
 5674TIP3   OH216985   5.502   0.617   2.836 -0.0198 -0.2917 -0.0605
 5674TIP3    H116986   5.427   0.592   2.891 -0.2761  1.2444  0.3410
 5674TIP3    H216987   5.501   0.712   2.838  2.4482 -0.2325  0.6097
 5675TIP3   OH216988   4.262   6.608   4.131 -0.4987  0.2532  0.8143
 5675TIP3    H116989   4.322   6.652   4.070 -0.8427  0.9088  0.9405
 5675TIP3    H216990   4.176   6.645   4.110 -0.8438 -0.5783  0.7294
 5676TIP3   OH216991   4.256   0.307   5.708 -0.2003  0.3375  0.0578
 5676TIP3    H116992   4.183   0.361   5.678 -0.0519 -0.3561 -1.6221
 5676TIP3    H216993   4.330   0.333   5.653  0.1526 -0.8066 -0.0237
 5677TIP3   OH216994   1.142   1.119   4.149 -0.4318 -0.4954 -0.1010
 5677TIP3    H116995   1.053   1.085   4.153  0.2917 -2.4324  1.4969
 5677TIP3    H216996   1.132   1.214   4.151 -2.4234 -0.6837  0.9795
 5678TIP3   OH216997   4.360   3.394   3.595 -0.3531  0.1977  0.5905
 5678TIP3    H116998   4.453   3.379   3.576  0.3443  1.8207  2.3369
 5678TIP3    H216999   4.325   3.431   3.514  0.2214 -1.4865 -0.4605
 5679TIP3   OH217000   2.825   3.133   3.868 -0.3875  0.3723 -0.5303
 5679TIP3    H117001   2.879   3.105   3.943 -0.7231 -1.4866 -0.9262
 5679TIP3    H217002   2.888   3.147   3.797 -0.3442 -1.3446 -0.8643
 5680TIP3   OH217003   3.708   3.902   2.926 -0.9323 -0.2802  0.0169
 5680TIP3    H117004   3.705   3.996   2.911  1.8012 -0.3281 -1.5257
 5680TIP3    H217005   3.798   3.885   2.955 -1.0981 -2.5231 -0.5887
 5681TIP3   OH217006   6.554   5.717   5.185 -0.3486  0.1176 -0.2982
 5681TIP3    H117007   6.623   5.783   5.185  0.0495 -0.2566  1.5163
 5681TIP3    H217008   6.533   5.704   5.092  0.7572  1.5268 -0.7721
 5682TIP3   OH217009   3.426   0.373   2.836 -0.4998 -0.0893 -0.8680
 5682TIP3    H117010   3.518   0.385   2.862 -1.0394  0.5087  0.9416
 5682TIP3    H217011   3.426   0.389   2.742  1.0660  1.1456 -0.7242
 5683TIP3   OH217012   5.832   5.696   4.272 -0.0178  0.1463 -0.5941
 5683TIP3    H117013   5.904   5.730   4.325 -0.8856 -0.5855  1.1317
 5683TIP3    H217014   5.868   5.617   4.231  1.0265  1.3563 -2.0903
 5684TIP3   OH217015   5.839   2.696   2.053 -0.0039 -0.2671 -0.2672
 5684TIP3    H117016   5.767   2.759   2.056 -0.5033 -0.8268 -0.3073
 5684TIP3    H217017   5.918   2.750   2.049 -0.4103  0.3573 -0.0403
 5685TIP3   OH217018   2.029   5.873   5.091 -0.1626 -0.6591 -0.0594
 5685TIP3    H117019   1.946   5.881   5.042 -0.9574 -0.8443  1.2085
 5685TIP3    H217020   2.069   5.959   5.084  0.1219 -0.8785 -1.6439
 5686TIP3   OH217021   5.744   5.100   5.909  0.2960  0.4567 -0.7034
 5686TIP3    H117022   5.662   5.133   5.870  0.6040 -2.0000 -3.9055
 5686TIP3    H217023   5.812   5.128   5.848  1.5538  0.4822  0.6675
 5687TIP3   OH217024   7.153   4.494   2.792  0.3124 -0.4086  0.1787
 5687TIP3    H117025   7.147   4.431   2.720 -1.9370 -0.2552  0.1677
 5687TIP3    H217026   7.241   4.532   2.783  0.6078 -1.4012 -1.6050
 5688TIP3   OH217027   3.804   0.804   4.755  0.6630  0.0716 -0.3081
 5688TIP3    H117028   3.757   0.720   4.762 -1.8939  1.4274  0.0339
 5688TIP3    H217029   3.859   0.807   4.833  0.9174 -1.3330 -0.4001
 5689TIP3   OH217030   2.408   1.571   2.085 -0.9843 -0.5229 -0.2739
 5689TIP3    H117031   2.331   1.625   2.068 -1.1836 -0.7190  0.0127
 5689TIP3    H217032   2.396   1.494   2.029 -1.9795 -1.4960  1.2320
 5690TIP3   OH217033   2.366   4.670   2.688  0.1966  0.1948  0.1974
 5690TIP3    H117034   2.330   4.618   2.617 -2.4078  1.0021  0.8247
 5690TIP3    H217035   2.334   4.759   2.673  0.2217  0.5453  1.9240
 5691TIP3   OH217036   6.180   0.472   4.313  0.4055  0.8790  0.7575
 5691TIP3    H117037   6.225   0.466   4.228  0.1230  1.0044  0.5991
 5691TIP3    H217038   6.250   0.460   4.377  0.5849  0.5503  0.5057
 5692TIP3   OH217039   5.138   3.930   2.187  0.4172  0.1171  0.5353
 5692TIP3    H117040   5.068   3.879   2.227  0.5084  0.3366  0.9764
 5692TIP3    H217041   5.093   3.997   2.137  0.2559 -1.1027 -1.0520
 5693TIP3   OH217042   2.743   1.073   4.755 -0.5282 -0.1361 -0.2506
 5693TIP3    H117043   2.705   1.112   4.676 -0.3331 -0.7986 -0.6909
 5693TIP3    H217044   2.703   1.120   4.828 -2.0439 -0.6825 -0.6981
 5694TIP3   OH217045   4.326   0.920   1.690  0.1340 -0.3503  0.0888
 5694TIP3    H117046   4.294   0.939   1.779  0.9379 -0.8473  0.4948
 5694TIP3    H217047   4.382   0.994   1.669 -0.9589  0.3406 -0.4788
 5695TIP3   OH217048   7.003   2.533   1.292  0.0705  0.2801 -0.3101
 5695TIP3    H117049   6.971   2.501   1.376 -0.1625 -0.8454 -0.8131
 5695TIP3    H217050   6.941   2.499   1.227  0.6132  0.5786 -1.0051
 5696TIP3   OH217051   1.319   3.405   3.624  0.1853 -0.0522 -0.2973
 5696TIP3    H117052   1.316   3.497   3.600 -2.0796  0.6056  2.0780
 5696TIP3    H217053   1.268   3.361   3.556  1.3682  0.3678 -1.5061
 5697TIP3   OH217054   4.125   0.582   2.678 -0.3934  0.7465 -0.2574
 5697TIP3    H117055   4.078   0.649   2.728  0.5614  0.7183  0.7236
 5697TIP3    H217056   4.057   0.538   2.627 -1.7522 -0.4525  2.3853
 5698TIP3   OH217057   5.790   4.374   5.042 -0.3275 -0.4791 -0.3428
 5698TIP3    H117058   5.702   4.406   5.062 -1.0214 -1.7157 -1.3594
 5698TIP3    H217059   5.798   4.384   4.947  0.7953 -0.0105 -0.2118
 5699TIP3   OH217060   4.453   3.094   2.609  0.1820 -0.2808 -0.3427
 5699TIP3    H117061   4.438   3.176   2.656 -1.5641 -0.6312 -0.2212
 5699TIP3    H217062   4.399   3.101   2.531  2.5634  0.0358 -2.0897
 5700TIP3   OH217063   4.697   1.834   4.848 -0.6747  0.2123 -0.3647
 5700TIP3    H117064   4.603   1.853   4.844 -1.2538 -2.1935  0.1615
 5700TIP3    H217065   4.718   1.798   4.762 -1.0186 -2.1563  0.4650
 5701TIP3   OH217066   5.955   2.495   0.742  0.2338 -0.0844 -0.0292
 5701TIP3    H117067   5.940   2.461   0.830 -0.4349  0.3511  0.0317
 5701TIP3    H217068   5.949   2.590   0.752 -2.1545 -0.0632 -0.9156
 5702TIP3   OH217069   2.734   0.372   3.806 -0.2156  0.3079  0.2618
 5702TIP3    H117070   2.741   0.377   3.902 -1.2605  2.6646  0.2815
 5702TIP3    H217071   2.653   0.322   3.791 -0.0915 -0.0031  0.6009
 5703TIP3   OH217072   1.909   0.212   0.293  0.1935 -0.1609  0.0644
 5703TIP3    H117073   1.971   0.277   0.325 -0.1655 -0.3767  1.2668
 5703TIP3    H217074   1.942   0.128   0.327 -0.5056 -0.3267  0.3619
 5704TIP3   OH217075   2.679   2.323   5.420  0.2812 -0.4381  0.0670
 5704TIP3    H117076   2.628   2.295   5.496  0.8673  1.9038  1.4236
 5704TIP3    H217077   2.770   2.308   5.445  0.4471 -0.3917 -0.4881
 5705TIP3   OH217078   7.016   4.318   5.029 -0.1322 -0.1344  0.5923
 5705TIP3    H117079   7.013   4.228   5.060  2.8728 -0.8194 -0.8303
 5705TIP3    H217080   7.008   4.311   4.934  2.2134  0.8497  0.2724
 5706TIP3   OH217081   5.432   5.891   4.281 -0.3055  0.8685  0.3464
 5706TIP3    H117082   5.359   5.911   4.340  0.1772  1.6333  0.6946
 5706TIP3    H217083   5.475   5.815   4.320 -1.7552 -0.5311 -0.6310
 5707TIP3   OH217084   5.345   4.665   1.040 -0.0366 -0.1575 -0.1240
 5707TIP3    H117085   5.298   4.715   1.106  3.5369 -0.5488  3.0110
 5707TIP3    H217086   5.410   4.726   1.005 -0.2204 -0.6949 -1.4760
 5708TIP3   OH217087   3.641   5.213   1.998 -0.1234 -0.2829 -0.2711
 5708TIP3    H117088   3.618   5.144   1.936 -0.6734 -0.2624 -0.0919
 5708TIP3    H217089   3.677   5.283   1.944 -1.8538  0.2919 -0.7325
 5709TIP3   OH217090   5.724   2.427   0.609 -0.6081  0.0216  0.1794
 5709TIP3    H117091   5.770   2.373   0.545  0.2314 -1.1643  1.7179
 5709TIP3    H217092   5.794   2.466   0.662 -1.3108 -0.3672  1.4296
 5710TIP3   OH217093   3.945   5.949   2.413 -0.4969  0.0273 -0.2699
 5710TIP3    H117094   3.851   5.930   2.416 -0.6636  0.7522 -0.5713
 5710TIP3    H217095   3.982   5.881   2.358 -0.4965 -1.5449  1.5899
 5711TIP3   OH217096   2.258   4.120   0.805  0.3020  0.0823 -0.1175
 5711TIP3    H117097   2.223   4.205   0.832 -0.0547 -0.0054 -0.2863
 5711TIP3    H217098   2.213   4.057   0.861 -0.0766 -0.0598 -0.5698
 5712TIP3   OH217099   4.015   6.762   0.646  0.0085  0.1688 -0.3813
 5712TIP3    H117100   3.929   6.804   0.641 -0.2489 -0.1726  0.7948
 5712TIP3    H217101   4.047   6.761   0.556 -0.8603  1.0427 -0.7117
 5713TIP3   OH217102   5.662   5.676   2.312 -0.4045  0.0099  0.4415
 5713TIP3    H117103   5.624   5.748   2.262 -0.2072 -0.3682 -0.2753
 5713TIP3    H217104   5.593   5.611   2.317 -1.3516  1.0904  2.9929
 5714TIP3   OH217105   4.714   4.365   4.446 -0.2052 -0.7235  0.0036
 5714TIP3    H117106   4.678   4.357   4.357 -2.5930  2.6592  0.4293
 5714TIP3    H217107   4.647   4.326   4.502 -0.0159 -0.4285  0.4376
 5715TIP3   OH217108   5.296   5.695   3.004  0.7505  0.2217  0.5642
 5715TIP3    H117109   5.242   5.694   2.925 -1.7714 -1.9170  2.1705
 5715TIP3    H217110   5.367   5.634   2.985  0.0187 -0.4849  0.0543
 5716TIP3   OH217111   5.065   6.643   1.784 -0.1277  0.1251 -0.3371
 5716TIP3    H117112   5.027   6.567   1.740  1.1215 -0.3197 -0.6899
 5716TIP3    H217113   5.006   6.660   1.857  0.2293 -2.0214  0.5454
 5717TIP3   OH217114   2.151   5.527   0.620 -0.0532 -0.1339 -1.0622
 5717TIP3    H117115   2.221   5.463   0.606 -0.7947 -1.1297 -0.3105
 5717TIP3    H217116   2.194   5.612   0.610  1.4013 -0.7090 -0.0105
 5718TIP3   OH217117   0.499   5.440   4.018 -0.0343  0.7884 -0.0923
 5718TIP3    H117118   0.589   5.444   3.988  1.1658 -4.0777  1.9275
 5718TIP3    H217119   0.450   5.408   3.942  0.7571 -0.4133 -0.1164
 5719TIP3   OH217120   5.671   1.087   5.093 -0.2538 -0.1349 -0.4396
 5719TIP3    H117121   5.664   0.992   5.100  1.2764 -0.1539  2.4037
 5719TIP3    H217122   5.740   1.101   5.029 -1.2747 -0.8743 -1.7376
 5720TIP3   OH217123   3.002   5.747   3.338  0.2121  0.1859 -0.0598
 5720TIP3    H117124   3.043   5.686   3.399  0.7943  0.8885  0.2741
 5720TIP3    H217125   3.016   5.833   3.378  0.2091  0.6138 -0.9654
 5721TIP3   OH217126   3.500   2.713   3.687 -0.2069 -0.2312 -0.2237
 5721TIP3    H117127   3.427   2.766   3.719 -2.0072 -1.7949 -1.4419
 5721TIP3    H217128   3.476   2.693   3.596  1.8485 -0.6793 -0.7176
 5722TIP3   OH217129   6.235   6.700   2.637 -0.1996  0.4600 -0.4118
 5722TIP3    H117130   6.321   6.716   2.675  0.4393 -1.7177 -0.8540
 5722TIP3    H217131   6.174   6.717   2.709  0.6283  1.1981  0.1427
 5723TIP3   OH217132   2.293   2.250   4.102 -0.3327  0.4826 -0.3421
 5723TIP3    H117133   2.314   2.300   4.181 -0.0137  0.4051 -0.3743
 5723TIP3    H217134   2.200   2.229   4.111  0.3435 -2.3255  1.6333
 5724TIP3   OH217135   0.140   6.633   0.665  0.0191  0.2961 -0.3315
 5724TIP3    H117136   0.227   6.673   0.666  0.5657 -0.7535 -1.9006
 5724TIP3    H217137   0.151   6.549   0.708 -0.0298 -0.1553 -1.1799
 5725TIP3   OH217138   3.616   1.554   4.969 -0.0525 -0.5883 -0.0313
 5725TIP3    H117139   3.644   1.463   4.956  0.4867 -0.0989 -3.1598
 5725TIP3    H217140   3.548   1.567   4.903  0.9173  1.6660 -0.6646
 5726TIP3   OH217141   5.284   5.796   2.310  0.3385  0.7003 -0.4948
 5726TIP3    H117142   5.304   5.848   2.387  0.6209  0.4751 -0.4147
 5726TIP3    H217143   5.195   5.823   2.285 -0.4486 -0.4611  0.9234
 5727TIP3   OH217144   5.413   0.490   2.576 -0.2666 -0.1901 -0.3748
 5727TIP3    H117145   5.479   0.444   2.524  1.6172  1.2550  0.5650
 5727TIP3    H217146   5.449   0.490   2.665 -1.1195  1.3697  0.0071
 5728TIP3   OH217147   0.653   2.633   3.545  0.2559  0.2476 -0.3920
 5728TIP3    H117148   0.708   2.642   3.623 -0.5134 -0.1704  0.2214
 5728TIP3    H217149   0.683   2.552   3.503 -0.9977 -0.9561  0.9004
 5729TIP3   OH217150   2.095   3.244   2.992  0.2313  0.0315  0.2733
 5729TIP3    H117151   2.167   3.182   3.004 -1.0790 -1.9468 -1.4092
 5729TIP3    H217152   2.039   3.230   3.069  0.4492 -0.1835  0.3940
 5730TIP3   OH217153   0.569   0.174   0.063 -0.5621  0.3546 -0.1711
 5730TIP3    H117154   0.649   0.226   0.073 -0.5062  0.2029  0.1685
 5730TIP3    H217155   0.538   0.196  -0.025 -1.0577  1.6795  0.3151
 5731TIP3   OH217156   6.428   5.413   0.255 -0.1413  0.0131 -0.0099
 5731TIP3    H117157   6.440   5.346   0.188  1.2368  0.0474  0.1729
 5731TIP3    H217158   6.516   5.430   0.288 -0.6756  0.7240  1.1109
 5732TIP3   OH217159   4.244   1.099   4.854 -0.3503  0.3452 -0.2122
 5732TIP3    H117160   4.183   1.096   4.928  0.0467 -1.1803  0.0950
 5732TIP3    H217161   4.275   1.190   4.851 -0.7014  0.5278  1.2207
 5733TIP3   OH217162   0.603   3.219   2.463  0.3262  0.3177  0.0582
 5733TIP3    H117163   0.568   3.133   2.489  2.3419 -0.8917 -0.9332
 5733TIP3    H217164   0.657   3.246   2.537  1.9705 -0.6958 -0.7012
 5734TIP3   OH217165   0.962   5.590   4.544 -0.4117  0.1865  0.7768
 5734TIP3    H117166   0.927   5.622   4.627 -0.5138 -1.6561  1.4913
 5734TIP3    H217167   0.884   5.563   4.495 -0.2992  0.5698  0.3835
 5735TIP3   OH217168   5.834   4.206   2.046  0.5680  0.3111 -0.2212
 5735TIP3    H117169   5.853   4.201   2.140  0.9617 -0.4111 -0.3294
 5735TIP3    H217170   5.753   4.257   2.041  1.2722  1.5392  0.4064
 5736TIP3   OH217171   5.950   2.662   3.776 -0.3144 -0.3390  0.6680
 5736TIP3    H117172   5.971   2.753   3.754  0.7299 -0.3773  1.4437
 5736TIP3    H217173   5.933   2.620   3.691  0.8592  0.1770  0.1612
 5737TIP3   OH217174   0.490   0.196   4.075  0.7381  0.4828  0.4388
 5737TIP3    H117175   0.429   0.200   4.001  0.8573 -0.8957  0.2393
 5737TIP3    H217176   0.515   0.287   4.090  1.8313  0.7095 -2.1804
 5738TIP3   OH217177   0.881   6.119   2.521  0.1906  0.0331 -0.0202
 5738TIP3    H117178   0.869   6.045   2.462  0.1813  0.4522 -0.5529
 5738TIP3    H217179   0.850   6.087   2.606 -0.7609 -0.2627 -0.4552
 5739TIP3   OH217180   5.789   3.828   0.669  0.2408  0.5768 -0.6872
 5739TIP3    H117181   5.863   3.870   0.713  1.3959 -1.1395 -0.9064
 5739TIP3    H217182   5.721   3.824   0.736  1.6968 -1.2978  0.8048
 5740TIP3   OH217183   6.623   1.223   4.967 -0.3793 -0.2671  0.0378
 5740TIP3    H117184   6.655   1.261   4.885  0.4666 -0.9702  0.0349
 5740TIP3    H217185   6.700   1.184   5.008 -0.4846  1.3825  1.9225
 5741TIP3   OH217186   3.893   0.068   1.242 -0.2448 -0.2369 -0.2439
 5741TIP3    H117187   3.800   0.044   1.244 -0.3621  0.2264 -0.1776
 5741TIP3    H217188   3.916   0.066   1.149 -0.6261  0.8005 -0.3722
 5742TIP3   OH217189   0.938   0.291   3.709 -0.3478  0.3598 -0.1705
 5742TIP3    H117190   0.877   0.298   3.782  2.0100  0.0055  1.9383
 5742TIP3    H217191   1.019   0.257   3.747  1.0993  0.4445 -2.8926
 5743TIP3   OH217192   4.674   5.300   3.491 -0.1351  0.4610 -0.5221
 5743TIP3    H117193   4.730   5.365   3.448  0.7765 -1.0399 -1.6939
 5743TIP3    H217194   4.661   5.232   3.424  0.0020 -1.1957  1.0709
 5744TIP3   OH217195   4.484   4.092   4.253 -0.2462  0.5622 -0.5411
 5744TIP3    H117196   4.537   4.169   4.271 -0.7933  0.9348 -0.4955
 5744TIP3    H217197   4.512   4.028   4.319  0.0267  0.8096 -0.4142
 5745TIP3   OH217198   2.488   3.004   3.307  1.0518 -0.3532 -0.4633
 5745TIP3    H117199   2.504   3.010   3.401  0.1860  1.3763 -0.4025
 5745TIP3    H217200   2.574   2.985   3.270  1.2485 -2.0428  0.7221
 5746TIP3   OH217201   4.183   3.312   5.834 -0.2359 -0.0135  0.0057
 5746TIP3    H117202   4.205   3.397   5.873 -1.9234  1.3234 -1.7741
 5746TIP3    H217203   4.264   3.284   5.791  0.6180  0.1831  1.4230
 5747TIP3   OH217204   3.327   3.992   0.384 -0.5741 -0.4392 -0.0492
 5747TIP3    H117205   3.416   3.968   0.357 -0.5297 -0.7785  0.3887
 5747TIP3    H217206   3.272   3.922   0.351 -0.4292 -1.2348  1.3277
 5748TIP3   OH217207   4.204   1.777   2.805  0.3503  0.3866 -0.3941
 5748TIP3    H117208   4.115   1.810   2.818  0.0569 -1.4611  4.0647
 5748TIP3    H217209   4.258   1.855   2.797 -1.2922  1.6962  0.6361
 5749TIP3   OH217210   5.752   1.877   1.217  0.0435  0.3070 -0.0225
 5749TIP3    H117211   5.810   1.953   1.225  0.4308 -0.1488  2.3724
 5749TIP3    H217212   5.809   1.808   1.183 -0.0308  0.7539 -1.1087
 5750TIP3   OH217213   3.198   2.745   0.116 -1.1057  0.3125 -0.2966
 5750TIP3    H117214   3.200   2.779   0.205 -2.3376 -1.2626  0.3861
 5750TIP3    H217215   3.159   2.816   0.064 -0.0966  1.3595  0.3136
 5751TIP3   OH217216   3.180   6.176   1.618 -0.2005  0.1624  0.6009
 5751TIP3    H117217   3.227   6.256   1.642 -0.5642  0.4685  0.3283
 5751TIP3    H217218   3.088   6.197   1.635 -0.1885 -0.6612  1.7804
 5752TIP3   OH217219   4.871   6.291   0.376  0.3934  0.7098  0.1336
 5752TIP3    H117220   4.816   6.292   0.455 -0.3861 -0.1786 -0.3829
 5752TIP3    H217221   4.867   6.201   0.345  1.4973  0.8286 -0.3794
 5753TIP3   OH217222   1.912   0.051   5.153 -0.3795  1.1073 -0.7193
 5753TIP3    H117223   1.839   0.109   5.133 -2.1224 -0.5773  0.3868
 5753TIP3    H217224   1.883   0.001   5.230  2.3793  1.1145  0.4657
 5754TIP3   OH217225   4.354   1.530   0.614  0.4004  0.0716  0.1827
 5754TIP3    H117226   4.290   1.488   0.555 -0.7578 -0.7075  1.9059
 5754TIP3    H217227   4.439   1.504   0.579 -0.2671 -1.4217 -0.4302
 5755TIP3   OH217228   7.179   6.412   1.509 -0.7315 -0.2079  0.2228
 5755TIP3    H117229   7.180   6.355   1.431 -0.1563  0.3254 -0.1623
 5755TIP3    H217230   7.128   6.488   1.482 -2.0922 -0.8135  0.9545
 5756TIP3   OH217231   0.734   6.070   3.685 -0.2780 -0.4328 -0.0705
 5756TIP3    H117232   0.786   6.093   3.761 -0.3247  0.8074 -0.3947
 5756TIP3    H217233   0.665   6.013   3.719 -0.4218  0.2727  0.8460
 5757TIP3   OH217234   5.590   4.170   2.688  0.9433  0.0065 -0.0515
 5757TIP3    H117235   5.630   4.174   2.601  0.3629 -0.4644 -0.3481
 5757TIP3    H217236   5.497   4.182   2.672  0.8459  0.0441  0.5230
 5758TIP3   OH217237   1.635   3.107   4.628  0.0851  0.3035  0.0759
 5758TIP3    H117238   1.585   3.046   4.574 -1.3703  1.8702 -0.4209
 5758TIP3    H217239   1.706   3.137   4.572  0.5588 -0.5698  0.1850
 5759TIP3   OH217240   4.061   2.081   5.805 -0.4733  0.5725  0.2579
 5759TIP3    H117241   4.029   2.007   5.856 -1.4093  0.0163 -1.0817
 5759TIP3    H217242   4.034   2.158   5.854 -1.0352  0.0548  0.7745
 5760TIP3   OH217243   6.736   6.449   3.641  0.5421  0.2547  0.0763
 5760TIP3    H117244   6.816   6.483   3.679  0.7197 -0.3058  0.2029
 5760TIP3    H217245   6.692   6.402   3.712  0.5690 -0.2538 -0.2347
 5761TIP3   OH217246   3.263   4.607   0.319 -0.0979 -0.2118  0.2415
 5761TIP3    H117247   3.265   4.654   0.402 -0.6803  0.1757  0.0449
 5761TIP3    H217248   3.311   4.664   0.258 -1.3275  0.4504 -0.1451
 5762TIP3   OH217249   1.761   0.586   1.355  0.0574 -0.0319 -0.4065
 5762TIP3    H117250   1.777   0.535   1.434  2.2805  0.2997 -0.5769
 5762TIP3    H217251   1.739   0.674   1.387  0.6822  0.0326 -0.1385
 5763TIP3   OH217252   3.915   0.156   2.496 -0.4483  0.0191  1.0703
 5763TIP3    H117253   3.868   0.078   2.467 -2.2475  1.7342 -0.9376
 5763TIP3    H217254   3.916   0.214   2.420  1.1246  1.8394  2.3756
 5764TIP3   OH217255   0.238   3.486   3.192 -0.5090 -0.2837  0.0628
 5764TIP3    H117256   0.184   3.558   3.160  1.8303  1.2624 -0.6604
 5764TIP3    H217257   0.274   3.518   3.275  0.6173 -0.5860 -0.3055
 5765TIP3   OH217258   3.132   4.557   5.672  0.2473 -0.4524  0.1941
 5765TIP3    H117259   3.208   4.609   5.694  1.1993 -1.0135 -1.5613
 5765TIP3    H217260   3.077   4.615   5.619  0.2427 -0.5477  0.0937
 5766TIP3   OH217261   1.793   2.509   3.864 -0.4163 -0.2066 -0.2707
 5766TIP3    H117262   1.752   2.512   3.951 -0.0199  1.3678 -0.1160
 5766TIP3    H217263   1.723   2.532   3.803 -0.8109 -1.7485 -0.4517
 5767TIP3   OH217264   6.355   0.333   2.302  0.2115  0.2035 -0.1361
 5767TIP3    H117265   6.326   0.255   2.255  0.8444  0.0802 -0.3337
 5767TIP3    H217266   6.322   0.406   2.250  1.1963  0.0675 -0.9675
 5768TIP3   OH217267   1.267   4.884   1.774  0.7048 -0.8621 -0.2329
 5768TIP3    H117268   1.193   4.843   1.729 -0.3062  0.9821 -0.3503
 5768TIP3    H217269   1.310   4.936   1.707  2.0881 -1.8242 -0.1362
 5769TIP3   OH217270   7.131   4.566   0.461  0.3449  0.8138 -0.6072
 5769TIP3    H117271   7.120   4.653   0.500  0.4355  0.5404  0.0288
 5769TIP3    H217272   7.042   4.539   0.439  0.2655  0.8378 -0.3134
 5770TIP3   OH217273   0.581   1.243   3.062  0.2631  0.0846  0.0321
 5770TIP3    H117274   0.647   1.233   3.130 -0.9601  3.3387  1.9529
 5770TIP3    H217275   0.621   1.302   2.998 -0.2667  1.0441  0.5571
 5771TIP3   OH217276   2.512   0.679   4.164 -0.5408  0.2333  0.3350
 5771TIP3    H117277   2.589   0.732   4.143  0.7844 -1.7203  0.0768
 5771TIP3    H217278   2.448   0.702   4.097  0.1353  1.1987 -0.0009
 5772TIP3   OH217279   0.282   5.394   0.843  0.4650 -0.1290 -0.3884
 5772TIP3    H117280   0.330   5.395   0.926 -0.2656  0.0427  0.0460
 5772TIP3    H217281   0.194   5.364   0.867  0.6514 -1.5090 -1.3443
 5773TIP3   OH217282   3.075   5.889   5.894 -0.1109  0.3059  0.7540
 5773TIP3    H117283   2.990   5.932   5.896 -0.4328 -0.2481 -0.4582
 5773TIP3    H217284   3.080   5.848   5.808  1.5933  0.7295  0.6162
 5774TIP3   OH217285   0.860   4.547   2.789 -0.2806 -0.4077  0.1052
 5774TIP3    H117286   0.811   4.483   2.736  0.0615  0.3040 -1.1148
 5774TIP3    H217287   0.943   4.504   2.807  0.1848 -0.1265 -1.2136
 5775TIP3   OH217288   2.922   5.485   0.567  0.0163 -0.7508 -0.1124
 5775TIP3    H117289   2.907   5.425   0.640 -1.4258 -2.1653 -1.4869
 5775TIP3    H217290   2.836   5.526   0.552  0.5494  0.3273 -0.3708
 5776TIP3   OH217291   0.482   0.627   2.015  0.1590 -0.0494  0.5770
 5776TIP3    H117292   0.576   0.608   2.023 -0.4539 -3.0020  2.4180
 5776TIP3    H217293   0.451   0.564   1.949 -0.8552 -0.8217  1.7376
 5777TIP3   OH217294   3.367   1.050   1.829  0.3298  0.0890 -0.3983
 5777TIP3    H117295   3.274   1.065   1.846  0.2711 -1.2315  0.5981
 5777TIP3    H217296   3.411   1.074   1.910  0.8279  0.3693 -0.7442
 5778TIP3   OH217297   4.947   5.971   4.156  0.0057 -0.5868 -0.0994
 5778TIP3    H117298   4.995   5.944   4.235  0.6308  1.4811  0.2750
 5778TIP3    H217299   4.927   5.888   4.112  1.5288 -1.6795  1.1167
 5779TIP3   OH217300   2.360   3.457   5.127  0.6870  0.4511  0.1235
 5779TIP3    H117301   2.443   3.412   5.137  0.8525  0.6504 -0.3420
 5779TIP3    H217302   2.311   3.404   5.064 -0.1437 -0.5048  1.5031
 5780TIP3   OH217303   4.746   4.110   0.839  0.2438  0.2000 -0.2660
 5780TIP3    H117304   4.825   4.131   0.890  0.4538 -0.4860 -0.3041
 5780TIP3    H217305   4.780   4.083   0.754 -0.0366 -0.0447 -0.3005
 5781TIP3   OH217306   3.203   0.259   1.810 -0.1339  0.0113 -0.0552
 5781TIP3    H117307   3.128   0.315   1.830 -0.9917 -1.5210  1.1989
 5781TIP3    H217308   3.278   0.319   1.808 -1.0349  1.2303  1.1597
 5782TIP3   OH217309   4.006   6.040   4.774  0.0452 -0.1920 -0.2693
 5782TIP3    H117310   4.098   6.054   4.798  0.1174  1.6644 -1.4152
 5782TIP3    H217311   3.999   5.946   4.758  2.1568 -0.1848 -1.6237
 5783TIP3   OH217312   3.877   6.560   5.752 -0.2412 -0.6654  0.0940
 5783TIP3    H117313   3.902   6.590   5.839  1.2632  0.0566 -0.5551
 5783TIP3    H217314   3.782   6.550   5.756 -0.2894  0.2072  1.5473
 5784TIP3   OH217315   7.138   5.934   1.724  0.0603 -0.1790  0.2881
 5784TIP3    H117316   7.126   6.023   1.691 -0.6603  0.0214  1.0717
 5784TIP3    H217317   7.061   5.917   1.778  0.5996 -0.9641  0.8420
 5785TIP3   OH217318   1.478   4.541   4.841 -1.1786  0.3738 -0.2267
 5785TIP3    H117319   1.421   4.466   4.822 -1.9005  0.4966  1.3469
 5785TIP3    H217320   1.562   4.517   4.802 -1.6185 -0.8903 -0.4508
 5786TIP3   OH217321   0.080   1.854   3.343 -0.2459  0.2512 -0.2272
 5786TIP3    H117322   0.035   1.936   3.363  0.2361  0.1855  1.2753
 5786TIP3    H217323   0.170   1.869   3.372  0.5601  0.1225 -2.4870
 5787TIP3   OH217324   1.229   3.715   0.299  0.1308  0.2739  0.1333
 5787TIP3    H117325   1.323   3.712   0.279 -0.0558 -0.2594 -0.7580
 5787TIP3    H217326   1.187   3.713   0.213 -0.6871  1.7372  0.4730
 5788TIP3   OH217327   6.147   2.652   3.999 -0.2002  0.1011  0.5006
 5788TIP3    H117328   6.075   2.632   3.939 -0.4120  1.6292  0.2234
 5788TIP3    H217329   6.154   2.747   3.999  2.0242  0.0072  0.2844
 5789TIP3   OH217330   4.657   4.955   0.465 -0.2437 -0.3703 -0.5826
 5789TIP3    H117331   4.656   4.913   0.551  0.1192  0.5136 -0.1320
 5789TIP3    H217332   4.579   4.921   0.421 -1.6436  0.7490  0.8906
 5790TIP3   OH217333   1.470   1.372   3.260  0.4117 -0.2778  0.0924
 5790TIP3    H117334   1.477   1.311   3.333  3.3927  0.7387  0.7920
 5790TIP3    H217335   1.557   1.411   3.253 -1.0646  3.2573 -0.8331
 5791TIP3   OH217336   4.365   5.234   0.252  0.2082  0.0542  0.2855
 5791TIP3    H117337   4.440   5.262   0.199  0.6527  1.7489  1.7067
 5791TIP3    H217338   4.310   5.313   0.259 -0.7492 -0.6366  0.8304
 5792TIP3   OH217339   2.027   1.601   2.605 -0.3607  0.0736 -0.2050
 5792TIP3    H117340   2.061   1.526   2.653 -2.7301 -0.6560  0.4777
 5792TIP3    H217341   1.977   1.563   2.532 -1.0538  0.9904 -0.2352
 5793TIP3   OH217342   0.769   6.418   2.108  0.2117  0.5059 -0.5906
 5793TIP3    H117343   0.819   6.497   2.126  0.5003  0.2187 -0.0962
 5793TIP3    H217344   0.785   6.362   2.185 -0.8543  0.4100 -0.4267
 5794TIP3   OH217345   2.331   6.043   1.262  0.1979  0.4548 -0.3649
 5794TIP3    H117346   2.351   5.958   1.302 -1.1135  0.4971  0.4557
 5794TIP3    H217347   2.281   6.089   1.329 -1.8411  0.6547 -1.9444
 5795TIP3   OH217348   6.845   5.575   3.889  0.2647 -0.2737  0.1644
 5795TIP3    H117349   6.900   5.561   3.812  0.8887  2.0070  0.1386
 5795TIP3    H217350   6.779   5.637   3.860 -1.5432 -1.8984  0.5994
 5796TIP3   OH217351   6.286   2.799   1.782  0.0499 -0.0323  0.1249
 5796TIP3    H117352   6.325   2.716   1.809 -1.9831 -0.8324  0.8664
 5796TIP3    H217353   6.295   2.800   1.687  0.5874 -0.8346  0.1562
 5797TIP3   OH217354   6.832   4.436   1.113 -0.2500 -0.3981  0.0230
 5797TIP3    H117355   6.777   4.372   1.068 -0.5398  0.3261 -0.6661
 5797TIP3    H217356   6.848   4.505   1.048  1.2265 -0.4434  0.3005
 5798TIP3   OH217357   2.100   6.359   2.057  0.6145 -0.3366  0.0778
 5798TIP3    H117358   2.049   6.390   2.132  0.8420 -1.3617  0.6808
 5798TIP3    H217359   2.052   6.282   2.026  0.0901  0.5292 -1.3410
 5799TIP3   OH217360   1.709   2.515   1.420  0.2635 -0.2399  0.3320
 5799TIP3    H117361   1.673   2.566   1.492  0.4128 -0.9333  0.9111
 5799TIP3    H217362   1.755   2.579   1.365  0.1523  0.2942  0.8558
 5800TIP3   OH217363   3.592   2.007   2.762 -1.0048  0.1823  0.1818
 5800TIP3    H117364   3.538   1.950   2.707 -3.1751  0.9269  1.4498
 5800TIP3    H217365   3.663   2.035   2.704 -2.0618 -0.6767 -1.6233
 5801TIP3   OH217366   5.673   5.528   2.615  0.1769  0.2472  0.4072
 5801TIP3    H117367   5.726   5.453   2.642  0.8533  0.7510  0.4974
 5801TIP3    H217368   5.669   5.584   2.693  2.9069  2.1619 -0.6612
 5802TIP3   OH217369   4.251   0.207   0.532  0.8331  0.3670  0.2461
 5802TIP3    H117370   4.306   0.186   0.456 -0.2298 -0.7610 -0.2558
 5802TIP3    H217371   4.187   0.270   0.499 -0.3745 -0.9992 -0.1866
 5803TIP3   OH217372   2.639   6.023   0.486 -0.1049 -0.0735  0.4830
 5803TIP3    H117373   2.605   6.075   0.413 -1.4935 -1.2653  0.2439
 5803TIP3    H217374   2.639   5.933   0.453 -1.9800 -0.8260  2.3333
 5804TIP3   OH217375   6.273   5.864   3.167 -0.1914  0.2386 -0.0158
 5804TIP3    H117376   6.210   5.803   3.127 -0.2559 -1.0888  1.9942
 5804TIP3    H217377   6.222   5.914   3.230  0.6285 -0.5311  1.3057
 5805TIP3   OH217378   6.889   1.206   5.152  0.9617 -1.0444 -0.2093
 5805TIP3    H117379   6.940   1.236   5.227  0.9294 -0.6922 -0.3236
 5805TIP3    H217380   6.896   1.111   5.153 -1.8890 -1.3665  2.2605
 5806TIP3   OH217381   4.813   6.009   2.287 -0.5469 -0.0468 -0.5869
 5806TIP3    H117382   4.823   6.063   2.366 -1.6102  0.3287 -0.7009
 5806TIP3    H217383   4.719   6.006   2.272 -0.2944  1.1186 -2.6918
 5807TIP3   OH217384   5.964   3.517   5.033  0.1665  0.4710  0.1990
 5807TIP3    H117385   5.975   3.612   5.033 -1.5812  0.7226 -1.1304
 5807TIP3    H217386   5.890   3.502   5.092 -1.2380  0.2377 -1.5353
 5808TIP3   OH217387   4.342   2.004   2.786  0.2583 -0.6715  0.0146
 5808TIP3    H117388   4.437   2.005   2.793  0.5684 -0.6002 -2.8715
 5808TIP3    H217389   4.318   2.093   2.761 -0.5552 -0.7764  0.3745
 5809TIP3   OH217390   4.847   2.845   2.700  0.5419  0.4830  0.1759
 5809TIP3    H117391   4.841   2.777   2.767 -3.1344  0.3754 -0.0902
 5809TIP3    H217392   4.774   2.904   2.719  0.4161  1.4035 -2.7195
 5810TIP3   OH217393   1.486   0.147   5.599  0.1524 -0.3608 -0.1686
 5810TIP3    H117394   1.480   0.211   5.529 -2.1869 -0.5151 -0.2064
 5810TIP3    H217395   1.482   0.199   5.680  0.8857 -0.3099 -0.1599
 5811TIP3   OH217396   6.734   1.333   5.411  0.7167 -0.1044 -0.0502
 5811TIP3    H117397   6.810   1.299   5.458 -1.2806 -2.2708  1.8359
 5811TIP3    H217398   6.669   1.349   5.479 -1.2987 -0.4613 -1.8035
 5812TIP3   OH217399   0.449   3.775   3.237 -0.2510 -0.1039  0.2597
 5812TIP3    H117400   0.534   3.732   3.244 -0.4727 -0.4266  1.1523
 5812TIP3    H217401   0.464   3.848   3.177  0.5116 -0.4918 -0.0447
 5813TIP3   OH217402   5.532   3.180   1.525 -0.6739  0.3683  0.1277
 5813TIP3    H117403   5.535   3.086   1.542 -3.3158 -0.3534 -2.3764
 5813TIP3    H217404   5.474   3.215   1.592 -1.6363 -0.3012 -0.3186
 5814TIP3   OH217405   6.876   2.356   0.711  0.1120  0.2547  0.9311
 5814TIP3    H117406   6.797   2.356   0.765  0.0882 -0.1143  0.9024
 5814TIP3    H217407   6.918   2.440   0.728 -1.4181  1.4196 -0.7043
 5815TIP3   OH217408   2.153   5.141   0.861 -0.2475  0.1258  0.1360
 5815TIP3    H117409   2.218   5.082   0.899  1.4488  2.1526  0.5499
 5815TIP3    H217410   2.113   5.185   0.936 -0.8110  0.2230 -0.2137
 5816TIP3   OH217411   2.155   1.484   0.633 -0.1525 -0.3708  0.8380
 5816TIP3    H117412   2.211   1.561   0.636  1.4114 -1.2033 -2.3385
 5816TIP3    H217413   2.073   1.516   0.595  0.3582 -0.1573 -0.1180
 5817TIP3   OH217414   4.467   4.703   4.219  0.3328  0.0243 -0.5085
 5817TIP3    H117415   4.511   4.619   4.211  0.5188  0.1517 -0.8279
 5817TIP3    H217416   4.391   4.696   4.161 -1.2544 -0.9443  1.5427
 5818TIP3   OH217417   3.897   1.916   5.315  0.2542 -0.0155  0.4706
 5818TIP3    H117418   3.809   1.950   5.330  0.4596  0.6984  0.0875
 5818TIP3    H217419   3.952   1.963   5.378  0.4933  0.1613  0.1339
 5819TIP3   OH217420   1.703   5.568   2.350 -0.4531  0.4236  0.4093
 5819TIP3    H117421   1.785   5.600   2.310 -0.6014  1.1928  0.6943
 5819TIP3    H217422   1.656   5.527   2.278 -0.0280  0.4041  0.1373
 5820TIP3   OH217423  -0.019   0.938   0.278  0.7920 -0.2035 -0.2993
 5820TIP3    H117424   0.069   0.910   0.302  0.6614 -0.9843 -0.6931
 5820TIP3    H217425  -0.012   0.967   0.187  0.7927  0.4596 -0.0936
 5821TIP3   OH217426   0.109   5.580   4.381 -0.7250 -0.2800 -0.2564
 5821TIP3    H117427   0.024   5.567   4.423 -0.5284  0.3273  0.3344
 5821TIP3    H217428   0.134   5.492   4.351 -0.4582 -0.8862  1.6548
 5822TIP3   OH217429   3.703   1.060   3.115  0.1036 -0.2241  0.1821
 5822TIP3    H117430   3.765   1.013   3.059  1.3590 -0.3756  1.6227
 5822TIP3    H217431   3.730   1.152   3.109 -1.9759  0.3265 -2.1635
 5823TIP3   OH217432   7.094   2.786   0.080 -0.0492 -0.1865  0.1939
 5823TIP3    H117433   7.158   2.855   0.098  1.1212 -0.8328 -1.2852
 5823TIP3    H217434   7.118   2.753  -0.006 -0.5226 -2.5098  0.8799
 5824TIP3   OH217435   6.244   4.650   2.655 -0.1808  1.0030  0.0741
 5824TIP3    H117436   6.181   4.672   2.586 -0.6776  1.6300  0.7031
 5824TIP3    H217437   6.243   4.727   2.713 -0.8908 -0.0867  1.5686
 5825TIP3   OH217438   0.385   3.362   1.172 -0.2640 -0.4255 -0.6195
 5825TIP3    H117439   0.475   3.358   1.204 -0.6182 -0.4691  0.3855
 5825TIP3    H217440   0.332   3.328   1.244 -0.9584 -1.9090 -1.7673
 5826TIP3   OH217441   1.679   1.448   1.451 -0.1556  0.0904 -0.2159
 5826TIP3    H117442   1.721   1.508   1.389  2.0943  0.3989  1.4608
 5826TIP3    H217443   1.597   1.492   1.475 -0.4550  0.5554 -1.9668
 5827TIP3   OH217444   2.397   5.378   1.754  0.5416  0.0919 -0.1121
 5827TIP3    H117445   2.385   5.322   1.831  0.9282 -0.4611 -0.4503
 5827TIP3    H217446   2.393   5.467   1.788  2.4123 -0.1413  0.8157
 5828TIP3   OH217447   5.248   4.342   0.405  0.2125  0.2570 -0.4430
 5828TIP3    H117448   5.292   4.354   0.321  0.4595 -2.0945 -0.7083
 5828TIP3    H217449   5.316   4.356   0.470  0.4466  0.3859 -0.7118
 5829TIP3   OH217450   6.416   1.374   2.067  0.2476  0.4478  0.6756
 5829TIP3    H117451   6.443   1.465   2.058  0.3969  0.3093 -0.4113
 5829TIP3    H217452   6.352   1.361   1.998  0.8170 -0.4810  0.2995
 5830TIP3   OH217453   2.008   4.533   3.931  0.5123 -0.4509 -0.4523
 5830TIP3    H117454   2.045   4.452   3.898 -0.1345 -0.1910 -1.9210
 5830TIP3    H217455   1.914   4.527   3.912  0.1884 -0.0337  0.8834
 5831TIP3   OH217456   1.154   4.282   2.021 -0.0788  0.3555  0.1335
 5831TIP3    H117457   1.155   4.208   1.960 -0.6733 -0.2214  0.8033
 5831TIP3    H217458   1.170   4.243   2.107  1.6711  1.2686  0.2668
 5832TIP3   OH217459   3.137   5.695   0.932 -0.2011  0.1966  0.5379
 5832TIP3    H117460   3.157   5.670   1.023  2.2602  0.6854  0.2073
 5832TIP3    H217461   3.121   5.613   0.887  0.3983 -0.2211  1.0601
 5833TIP3   OH217462   5.265   3.017   1.409 -0.3118  0.0319  0.2496
 5833TIP3    H117463   5.276   3.047   1.499  0.4574  1.9673 -0.4446
 5833TIP3    H217464   5.351   2.985   1.383 -1.1458 -3.1918  1.0264
 5834TIP3   OH217465   6.025   6.706   2.811 -0.1048 -0.1082 -0.7105
 5834TIP3    H117466   5.930   6.716   2.819 -0.1118  1.9155 -2.4425
 5834TIP3    H217467   6.052   6.664   2.893 -2.2237  1.2356  0.7841
 5835TIP3   OH217468   4.559   6.462   5.561 -0.3225  0.0820 -0.7160
 5835TIP3    H117469   4.579   6.394   5.497  1.1703 -2.2211  1.9829
 5835TIP3    H217470   4.641   6.474   5.609 -1.9480 -0.0590  2.2878
 5836TIP3   OH217471   5.529   4.295   3.988  0.8032  0.0205  0.0558
 5836TIP3    H117472   5.598   4.293   3.922  2.4424 -0.4395  1.6933
 5836TIP3    H217473   5.494   4.206   3.988  1.5016 -0.2665  0.4753
 5837TIP3   OH217474   4.393   5.927   2.983 -0.1698 -0.3657 -0.0120
 5837TIP3    H117475   4.474   5.951   2.939 -1.5239  0.6442 -2.1313
 5837TIP3    H217476   4.418   5.858   3.044  2.2786  0.0304 -0.4658
 5838TIP3   OH217477   6.490   5.303   1.378 -0.1324 -0.0695 -0.1463
 5838TIP3    H117478   6.416   5.243   1.389 -0.7953  0.6578 -0.5593
 5838TIP3    H217479   6.565   5.253   1.409 -1.0640 -0.1178  2.3187
 5839TIP3   OH217480   6.403   2.538   2.505  0.5386  0.1734 -0.8150
 5839TIP3    H117481   6.485   2.495   2.530 -0.6137 -2.1849 -0.7719
 5839TIP3    H217482   6.427   2.594   2.431  2.8522  2.6329  1.5911
 5840TIP3   OH217483   5.441   3.606   5.722 -0.7622  0.1865  0.0207
 5840TIP3    H117484   5.463   3.695   5.697 -0.7150 -0.4021 -2.2206
 5840TIP3    H217485   5.480   3.595   5.809  0.3397  1.9183 -0.2068
 5841TIP3   OH217486   2.466   0.530   0.618  0.1993 -0.4574 -0.4659
 5841TIP3    H117487   2.513   0.576   0.687 -1.9918 -0.5749  1.2062
 5841TIP3    H217488   2.484   0.437   0.634  3.2736 -0.4476 -2.8501
 5842TIP3   OH217489   2.879   5.639   4.770 -0.1440  0.2772 -0.2641
 5842TIP3    H117490   2.876   5.548   4.741  1.9109  0.2720 -0.6183
 5842TIP3    H217491   2.909   5.634   4.861  1.1398  0.6195 -0.6472
 5843TIP3   OH217492   3.301   1.329   1.797 -0.5562  0.2101 -0.2476
 5843TIP3    H117493   3.248   1.337   1.718 -0.0509  1.4492 -0.4733
 5843TIP3    H217494   3.253   1.266   1.851 -0.8337 -0.7686 -1.5768
 5844TIP3   OH217495   0.046   3.656   0.369  0.1465  0.6777  0.6602
 5844TIP3    H117496   0.057   3.624   0.280  0.7614  1.3137  0.4985
 5844TIP3    H217497   0.135   3.666   0.402 -0.0425  1.6692  0.8994
 5845TIP3   OH217498   2.706   5.177   3.723  0.1111  0.1222  0.2816
 5845TIP3    H117499   2.691   5.212   3.811 -0.3985 -2.3441  1.2441
 5845TIP3    H217500   2.801   5.180   3.712  0.1369  0.9764  0.6666
 5846TIP3   OH217501   2.461   3.882   1.169  0.2271 -0.0556 -0.4280
 5846TIP3    H117502   2.501   3.816   1.113  0.0551 -0.5279 -0.0020
 5846TIP3    H217503   2.367   3.876   1.148  0.0401 -0.8950  0.5788
 5847TIP3   OH217504   3.453   2.051   5.209 -0.0279  0.2195 -0.1654
 5847TIP3    H117505   3.524   2.011   5.260  0.1388  0.2574 -0.3637
 5847TIP3    H217506   3.496   2.079   5.128 -0.0201  1.2547  0.1745
 5848TIP3   OH217507   4.631   5.984   2.841 -0.2393  0.2270  0.2226
 5848TIP3    H117508   4.714   5.982   2.888 -0.4323  0.2565  0.5662
 5848TIP3    H217509   4.654   5.964   2.750  0.0074 -0.8606  0.5154
 5849TIP3   OH217510   2.037   2.298   3.064  0.2049  0.0472 -0.2091
 5849TIP3    H117511   2.081   2.306   3.149 -0.6956 -0.4456  0.3107
 5849TIP3    H217512   2.086   2.358   3.007  2.6606 -1.7449 -0.1309
 5850TIP3   OH217513   1.127   3.681   1.482 -0.6435  0.7029  0.4248
 5850TIP3    H117514   1.122   3.603   1.538  1.5712  0.5031  0.4379
 5850TIP3    H217515   1.047   3.678   1.429 -0.8293 -1.3371  0.7426
 5851TIP3   OH217516   2.970   5.279   2.211 -0.1509 -0.4724 -0.1419
 5851TIP3    H117517   2.958   5.206   2.271  0.9428 -1.3285 -0.9294
 5851TIP3    H217518   2.884   5.321   2.207 -0.0828  0.1323  2.6237
 5852TIP3   OH217519   3.400   2.175   0.615  0.1858  0.3847 -0.2523
 5852TIP3    H117520   3.473   2.136   0.567 -1.1802 -0.2503 -1.9420
 5852TIP3    H217521   3.387   2.260   0.574 -2.4734 -1.0772 -2.8398
 5853TIP3   OH217522   1.086   5.036   3.658 -0.1166 -0.0641 -0.5581
 5853TIP3    H117523   1.031   5.106   3.624 -1.2849 -0.7871 -0.2106
 5853TIP3    H217524   1.110   5.065   3.746 -0.2916  0.0681 -0.5536
 5854TIP3   OH217525   5.510   5.417   0.746 -0.0373 -0.4030 -0.1682
 5854TIP3    H117526   5.554   5.339   0.712  1.4998  0.1477  0.4554
 5854TIP3    H217527   5.442   5.383   0.803 -1.0201 -1.2967 -1.8056
 5855TIP3   OH217528   0.895   2.809   4.602  0.1910 -0.0258 -0.3924
 5855TIP3    H117529   0.849   2.832   4.521 -0.3757  0.7535  0.1280
 5855TIP3    H217530   0.909   2.715   4.596 -1.9374 -0.3968 -0.3791
 5856TIP3   OH217531   3.919   3.554   4.807  0.0056  0.6264  0.4444
 5856TIP3    H117532   3.908   3.583   4.716  0.7194  0.2551  0.2298
 5856TIP3    H217533   3.833   3.520   4.832 -0.4533  1.5900  0.2284
 5857TIP3   OH217534   3.360   3.234   5.644  0.5768  0.0187 -0.5692
 5857TIP3    H117535   3.300   3.214   5.716  2.9746 -0.1837  1.4811
 5857TIP3    H217536   3.318   3.307   5.599 -0.3104  1.2532  2.0229
 5858TIP3   OH217537   3.032   2.455   3.328  0.3802  0.2616  0.1792
 5858TIP3    H117538   3.036   2.502   3.412  1.2366  0.1628  0.1999
 5858TIP3    H217539   2.988   2.372   3.349  0.9429  0.0676  0.6178
 5859TIP3   OH217540   5.698   1.013   2.431  0.0739 -0.1056 -0.5936
 5859TIP3    H117541   5.673   0.947   2.495  1.4215 -1.7777 -1.7042
 5859TIP3    H217542   5.631   1.006   2.362 -0.8359  1.0362  0.1283
 5860TIP3   OH217543   6.759   0.660   3.522 -0.0962 -0.1636  0.0044
 5860TIP3    H117544   6.807   0.592   3.474 -0.1284 -0.6564  0.6619
 5860TIP3    H217545   6.820   0.734   3.526 -0.1075 -0.0962 -0.8278
 5861TIP3   OH217546   4.500   0.470   3.443 -0.3735 -0.2135  0.5103
 5861TIP3    H117547   4.532   0.504   3.526  0.2228  0.8931 -0.1581
 5861TIP3    H217548   4.430   0.530   3.417 -1.1749 -1.0605  0.6232
 5862TIP3   OH217549   5.126   5.342   2.207 -0.2103 -0.3287 -0.0013
 5862TIP3    H117550   5.197   5.279   2.222 -0.0460  0.0126  0.7288
 5862TIP3    H217551   5.046   5.290   2.214 -0.0422 -0.7216 -0.8546
 5863TIP3   OH217552   3.151   5.200   1.004  0.3487 -0.2121 -0.0454
 5863TIP3    H117553   3.072   5.196   1.059 -0.6194  1.3454 -1.2340
 5863TIP3    H217554   3.192   5.283   1.026  0.8131 -0.3043 -0.5481
 5864TIP3   OH217555   6.082   6.206   4.498 -0.0707  0.0887  0.5080
 5864TIP3    H117556   6.105   6.205   4.591 -2.1278  0.1293  1.0598
 5864TIP3    H217557   6.014   6.272   4.491 -0.4520 -0.4272 -0.9069
 5865TIP3   OH217558   5.753   4.728   0.480 -0.4979 -0.4496 -0.3904
 5865TIP3    H117559   5.685   4.795   0.477 -0.2042  0.0264  1.5955
 5865TIP3    H217560   5.807   4.753   0.556 -0.2318 -2.7723  0.2642
 5866TIP3   OH217561   0.957   4.881   4.468 -0.2035  0.1874  0.0254
 5866TIP3    H117562   0.867   4.912   4.459 -0.3212 -0.1053  0.2089
 5866TIP3    H217563   1.002   4.917   4.391 -1.0811 -1.8454 -1.5435
 5867TIP3   OH217564   3.986   4.772   2.678  0.1269  0.3444 -0.2998
 5867TIP3    H117565   3.953   4.849   2.633  0.1900  0.5599  0.0193
 5867TIP3    H217566   4.005   4.802   2.767 -1.3582 -0.4085  0.3048
 5868TIP3   OH217567   2.768   6.294   4.220  0.7106 -0.0029 -0.2162
 5868TIP3    H117568   2.819   6.213   4.227 -0.3162 -0.6835 -0.3607
 5868TIP3    H217569   2.721   6.286   4.137  1.1558  1.0812 -0.5838
 5869TIP3   OH217570   1.688   3.813   1.230  0.1918  0.5893  0.0352
 5869TIP3    H117571   1.706   3.853   1.144 -0.0070  2.7468  0.9450
 5869TIP3    H217572   1.645   3.730   1.209 -0.4962  1.3889 -1.9624
 5870TIP3   OH217573   6.649   5.038   2.018 -0.1882 -0.2708 -0.1469
 5870TIP3    H117574   6.626   4.982   1.943  0.2865 -0.5362 -0.0979
 5870TIP3    H217575   6.705   5.105   1.980  1.4240 -1.3580  0.2448
 5871TIP3   OH217576   3.092   0.403   2.660  0.0951  0.3223 -1.0053
 5871TIP3    H117577   3.072   0.443   2.575 -1.4235  0.9773 -0.3764
 5871TIP3    H217578   3.115   0.312   2.638 -1.4424  0.1439 -2.0505
 5872TIP3   OH217579   4.422   0.309   1.637 -0.3331  0.2550 -0.1224
 5872TIP3    H117580   4.401   0.223   1.674  2.3803 -0.7708 -0.7548
 5872TIP3    H217581   4.397   0.371   1.706 -0.6756 -1.1620  1.0828
 5873TIP3   OH217582   4.823   3.042   0.224  0.9584  0.7089  0.4749
 5873TIP3    H117583   4.876   3.085   0.157 -1.0060  3.2348  0.3844
 5873TIP3    H217584   4.824   3.103   0.298 -0.3972  0.0165  1.0999
 5874TIP3   OH217585   2.034   1.866   2.859 -0.3004 -0.3940 -0.3862
 5874TIP3    H117586   1.990   1.782   2.871 -5.0690  1.8025 -0.5750
 5874TIP3    H217587   2.011   1.892   2.770  1.1456  1.1602 -0.3483
 5875TIP3   OH217588   6.797   5.872   3.078 -0.2222  0.1153 -0.1710
 5875TIP3    H117589   6.831   5.961   3.090  0.6495 -0.1481 -0.5710
 5875TIP3    H217590   6.709   5.875   3.114 -0.6220  1.4404 -1.1861
 5876TIP3   OH217591   1.041   0.274   3.994  0.5074 -0.3764  0.2983
 5876TIP3    H117592   1.090   0.229   4.062  0.9328  1.4896  1.2924
 5876TIP3    H217593   1.105   0.329   3.949 -0.3802  1.1549  0.8029
 5877TIP3   OH217594   4.488   6.320   2.034  0.5180 -0.1670 -0.2807
 5877TIP3    H117595   4.508   6.300   2.125  2.8401 -0.2495 -0.7295
 5877TIP3    H217596   4.420   6.257   2.010 -0.6361  0.3106  1.5384
 5878TIP3   OH217597   2.323   4.792   1.354  0.4930 -0.1154 -0.0307
 5878TIP3    H117598   2.330   4.886   1.339 -0.0618  0.0898  0.9246
 5878TIP3    H217599   2.383   4.753   1.290  0.8382  0.8846 -0.3372
 5879TIP3   OH217600   2.433   5.979   4.785 -0.4359  0.1810  0.5157
 5879TIP3    H117601   2.355   5.968   4.730  0.1719 -1.7362 -0.0185
 5879TIP3    H217602   2.457   5.890   4.811  1.6150  0.7253  0.6212
 5880TIP3   OH217603   4.155   2.196   4.791  0.1361 -0.3514 -0.1037
 5880TIP3    H117604   4.125   2.274   4.744 -0.1433 -0.0288  0.5994
 5880TIP3    H217605   4.233   2.168   4.742  1.0486  1.1594  0.3911
 5881TIP3   OH217606   0.787   6.716   3.254  0.1429  0.1096 -0.3023
 5881TIP3    H117607   0.754   6.723   3.165  2.2136 -1.4237 -1.2633
 5881TIP3    H217608   0.764   6.800   3.295 -1.1562  0.7016 -2.1217
 5882TIP3   OH217609   4.777   1.750   1.484  0.2210  0.2420 -0.4382
 5882TIP3    H117610   4.728   1.668   1.478  0.3803  0.1413 -0.3724
 5882TIP3    H217611   4.855   1.736   1.430  2.1864 -1.0497  2.4731
 5883TIP3   OH217612   0.667   5.393   5.144  0.9161  0.0237  0.3879
 5883TIP3    H117613   0.730   5.337   5.190  1.5007  0.0582 -0.3469
 5883TIP3    H217614   0.582   5.354   5.164  1.3294 -1.2854 -0.3068
 5884TIP3   OH217615   1.459  -0.012   4.437  0.1110  0.2986  0.1156
 5884TIP3    H117616   1.504  -0.027   4.520 -0.2105  2.0162  0.6473
 5884TIP3    H217617   1.498   0.068   4.403  1.3394 -1.1821 -2.2113
 5885TIP3   OH217618   3.601   4.017   0.974  0.2572  0.2706  0.3255
 5885TIP3    H117619   3.522   3.969   1.000 -0.2691  0.3337 -1.0828
 5885TIP3    H217620   3.672   3.977   1.024 -0.3665 -1.1262  0.1147
 5886TIP3   OH217621   4.317   1.602   1.480 -0.4879 -0.0260 -0.5233
 5886TIP3    H117622   4.412   1.595   1.480 -0.5283 -0.7358 -1.2071
 5886TIP3    H217623   4.286   1.514   1.502 -0.9859  0.2757  0.0077
 5887TIP3   OH217624   2.643   0.995   1.992  0.7592  0.2820 -0.1985
 5887TIP3    H117625   2.644   1.051   2.069 -0.1595  0.6475 -0.4359
 5887TIP3    H217626   2.730   0.956   1.989  0.9870  0.7026  0.6969
 5888TIP3   OH217627   3.111   3.631   2.377 -0.4113  0.0333  0.3287
 5888TIP3    H117628   3.055   3.652   2.452 -0.1707 -0.5440  0.6790
 5888TIP3    H217629   3.058   3.653   2.300 -0.8048  0.2657  0.6659
 5889TIP3   OH217630   6.890   5.045   5.581 -0.1289  0.6166 -0.2861
 5889TIP3    H117631   6.925   5.123   5.537 -2.3485  1.4845 -0.6585
 5889TIP3    H217632   6.798   5.043   5.555 -0.3047 -1.7422  0.3288
 5890TIP3   OH217633   4.053   3.153   1.839  0.3302 -0.0712  0.7147
 5890TIP3    H117634   4.090   3.171   1.753  0.5284 -0.1654  0.7811
 5890TIP3    H217635   4.048   3.239   1.882 -1.1899  0.2098  0.0477
 5891TIP3   OH217636   1.186   4.114   2.250  0.1044 -1.4159 -0.4916
 5891TIP3    H117637   1.271   4.092   2.211  0.3371 -2.0265  0.3384
 5891TIP3    H217638   1.203   4.119   2.344 -0.5960 -0.6363 -0.3991
 5892TIP3   OH217639   3.040   3.590   1.515  0.1366 -0.3006 -0.4948
 5892TIP3    H117640   3.062   3.646   1.589  1.3760 -1.5985  0.1710
 5892TIP3    H217641   3.060   3.643   1.438  2.3039 -0.1231  0.1108
 5893TIP3   OH217642   5.121   5.639   1.561  1.0854 -0.0158 -0.1510
 5893TIP3    H117643   5.098   5.546   1.554 -0.4791  0.3607 -0.3247
 5893TIP3    H217644   5.061   5.674   1.627  3.2885  0.4030  1.7810
 5894TIP3   OH217645   1.667   6.179   4.795  0.1044 -0.4930 -0.1054
 5894TIP3    H117646   1.630   6.259   4.833  0.1518 -1.8751  3.2059
 5894TIP3    H217647   1.757   6.176   4.829 -0.2569 -2.4561  0.8283
 5895TIP3   OH217648   6.196   3.547   1.723  0.0477  0.5342 -0.4179
 5895TIP3    H117649   6.136   3.500   1.666 -0.8379  1.3545 -0.1849
 5895TIP3    H217650   6.276   3.559   1.671  0.0993 -0.7458 -0.6550
 5896TIP3   OH217651   1.470   6.222   3.782  0.0089  0.2897  0.4326
 5896TIP3    H117652   1.487   6.305   3.826 -0.5094  0.1262  0.9568
 5896TIP3    H217653   1.416   6.244   3.707 -0.3507  0.3917  0.7235
 5897TIP3   OH217654   4.848   5.715   5.513 -1.0834  0.0173  0.6864
 5897TIP3    H117655   4.822   5.710   5.421 -1.4553 -0.2107  0.7973
 5897TIP3    H217656   4.929   5.663   5.518 -1.5153 -0.6818  0.6389
 5898TIP3   OH217657   3.774   4.343   0.298 -0.0654  0.0430  0.2635
 5898TIP3    H117658   3.719   4.269   0.324 -1.3955  1.1100  0.5857
 5898TIP3    H217659   3.750   4.359   0.207 -0.2839  0.4992  0.3997
 5899TIP3   OH217660   6.382   5.128   5.386  0.0825 -0.0824 -0.6044
 5899TIP3    H117661   6.346   5.210   5.422  0.0870 -0.4011  0.1415
 5899TIP3    H217662   6.475   5.147   5.373  0.2241 -0.1740  0.2077
 5900TIP3   OH217663   5.118   4.729   4.275  0.3825  0.3759 -0.1269
 5900TIP3    H117664   5.114   4.777   4.357 -1.8199 -0.3238  0.2423
 5900TIP3    H217665   5.027   4.705   4.256  0.8849  0.0297 -2.4849
 5901TIP3   OH217666   1.931   1.251   2.177 -0.1812  0.1246 -0.2256
 5901TIP3    H117667   2.021   1.270   2.205 -0.2966 -2.1182  2.0075
 5901TIP3    H217668   1.902   1.331   2.134  2.3119  1.5193  0.4771
 5902TIP3   OH217669   5.835   3.697   2.529 -0.6495  0.2183 -0.4899
 5902TIP3    H117670   5.855   3.616   2.481 -1.8561 -1.6196  1.8963
 5902TIP3    H217671   5.918   3.746   2.528 -0.4004 -0.1024 -3.5762
 5903TIP3   OH217672   1.053   2.176   5.475  0.3214  0.1160  0.2381
 5903TIP3    H117673   0.995   2.102   5.461  2.1299 -1.0366 -1.6394
 5903TIP3    H217674   0.996   2.244   5.511 -1.9804 -1.2530 -0.5870
 5904TIP3   OH217675   0.024   4.399   4.547  0.0306  0.1879  0.2146
 5904TIP3    H117676   0.077   4.319   4.549 -1.1191 -0.5917  1.1326
 5904TIP3    H217677   0.067   4.455   4.484  0.1878 -1.6337 -1.3785
 5905TIP3   OH217678   6.073   6.165   5.131 -0.1890  0.0731  0.0592
 5905TIP3    H117679   6.054   6.200   5.218  0.1858  0.0423  0.1555
 5905TIP3    H217680   6.096   6.073   5.147  2.3897  0.6679  0.2503
 5906TIP3   OH217681   1.032   3.144   5.467  0.0633  0.0007 -0.0156
 5906TIP3    H117682   0.992   3.124   5.552  1.5259  0.4491  0.8157
 5906TIP3    H217683   1.007   3.071   5.410 -1.2589 -0.1139  0.6843
 5907TIP3   OH217684   6.780   5.335   4.065  0.1889 -0.5936  0.3145
 5907TIP3    H117685   6.863   5.359   4.106 -0.7082  1.5498  1.0294
 5907TIP3    H217686   6.741   5.419   4.041 -1.6498 -1.5694 -0.2641
 5908TIP3   OH217687   1.653   5.584   3.953 -0.3680  0.1805 -0.6449
 5908TIP3    H117688   1.682   5.500   3.918  0.3965 -1.8395  4.0920
 5908TIP3    H217689   1.563   5.569   3.982 -0.5184  1.2742 -0.4758
 5909TIP3   OH217690   6.499   6.715   5.008 -0.1562 -0.2705 -0.3859
 5909TIP3    H117691   6.593   6.716   5.026 -0.4380 -0.9529  1.3423
 5909TIP3    H217692   6.482   6.627   4.974 -0.3560 -0.6695  0.6804
 5910TIP3   OH217693   2.816   6.176   0.621 -0.0423  0.0070  0.5872
 5910TIP3    H117694   2.855   6.106   0.674 -1.4718 -1.4843 -0.2371
 5910TIP3    H217695   2.740   6.135   0.579  1.3997  0.8587 -3.2490
 5911TIP3   OH217696   1.393   5.109   5.903 -0.0396 -0.4791  0.7904
 5911TIP3    H117697   1.391   5.014   5.894 -0.3296 -0.3058 -1.7870
 5911TIP3    H217698   1.424   5.140   5.818  1.6055  1.6937  2.0873
 5912TIP3   OH217699   4.332   0.046   1.705  0.4900  0.4202  0.0628
 5912TIP3    H117700   4.398   0.002   1.652 -0.0238  0.3568 -0.5448
 5912TIP3    H217701   4.311  -0.016   1.774  0.9118  0.3574  0.1363
 5913TIP3   OH217702   5.841   3.004   1.432 -0.1610 -0.0671 -0.2240
 5913TIP3    H117703   5.933   3.013   1.408 -0.0804  0.6841  0.3313
 5913TIP3    H217704   5.843   2.974   1.523 -0.4640 -0.0802 -0.2202
 5914TIP3   OH217705   4.030   0.141   5.242  0.4808 -0.1745 -0.2197
 5914TIP3    H117706   4.015   0.232   5.215 -0.4373 -0.4023 -0.5068
 5914TIP3    H217707   4.070   0.100   5.166  1.1138  0.0404 -0.0090
 5915TIP3   OH217708   0.931   4.449   3.261 -0.2356  0.1949  0.0914
 5915TIP3    H117709   0.865   4.438   3.193 -0.1475 -0.6452  0.1291
 5915TIP3    H217710   0.990   4.516   3.227 -0.4095  0.0575 -0.4856
 5916TIP3   OH217711   4.363   3.114   1.573 -0.1360  0.0902 -0.3349
 5916TIP3    H117712   4.284   3.161   1.600 -0.1332  0.3160 -0.7173
 5916TIP3    H217713   4.412   3.177   1.520  1.5431  0.8250  1.9183
 5917TIP3   OH217714   6.474   6.384   1.955 -0.0098  0.1960 -0.0796
 5917TIP3    H117715   6.530   6.380   2.032 -1.5285 -0.4045  1.0545
 5917TIP3    H217716   6.411   6.454   1.976 -1.7779 -1.3877  0.2517
 5918TIP3   OH217717   3.531   2.095   5.673 -0.4153 -0.1190  0.2001
 5918TIP3    H117718   3.614   2.139   5.655 -0.1480 -0.2066  1.1663
 5918TIP3    H217719   3.530   2.082   5.768 -1.6510  0.1090  0.2394
 5919TIP3   OH217720   5.280   3.595   3.275 -0.3067 -0.2134 -0.0230
 5919TIP3    H117721   5.302   3.563   3.363  1.6373 -0.5500 -0.5718
 5919TIP3    H217722   5.347   3.661   3.256 -0.4936 -0.3863 -1.3681
 5920TIP3   OH217723   1.029   2.617   4.394  0.6850  0.1904 -0.5229
 5920TIP3    H117724   1.028   2.713   4.393 -0.2331  0.1933 -0.2392
 5920TIP3    H217725   1.122   2.594   4.396  0.9288  1.0610 -1.2037
 5921TIP3   OH217726   6.329   6.047   4.692 -0.3068  0.5852 -0.8395
 5921TIP3    H117727   6.307   6.031   4.600 -3.0616  0.5518 -0.2599
 5921TIP3    H217728   6.331   6.142   4.700  0.0607  0.5886 -0.9472
 5922TIP3   OH217729   5.372   4.468   1.614 -0.2488  0.6835 -0.4635
 5922TIP3    H117730   5.407   4.550   1.580 -1.8434  1.1171 -1.1819
 5922TIP3    H217731   5.403   4.401   1.553  0.0738  0.9222 -0.5615
 5923TIP3   OH217732   0.896   2.211   0.467  0.1193  0.4744  0.2024
 5923TIP3    H117733   0.810   2.181   0.435  0.5051  0.1900 -0.5865
 5923TIP3    H217734   0.900   2.178   0.557 -0.1719 -0.4043 -0.0926
 5924TIP3   OH217735   0.934   3.097   3.508  0.2770 -0.1328 -0.7717
 5924TIP3    H117736   0.937   3.027   3.573 -1.9465  1.3340  1.0537
 5924TIP3    H217737   0.876   3.064   3.439  1.4441 -1.1016 -1.3325
 5925TIP3   OH217738   5.423   6.353   3.916  0.0518 -0.1756 -0.2018
 5925TIP3    H117739   5.415   6.385   3.826  0.7902 -0.9470 -0.5671
 5925TIP3    H217740   5.501   6.297   3.914 -0.4876 -0.9879  0.6902
 5926TIP3   OH217741   6.636   4.943   2.582 -0.4909 -0.1646  0.3028
 5926TIP3    H117742   6.709   4.881   2.578  0.6045  0.9585  1.7145
 5926TIP3    H217743   6.620   4.967   2.491  2.1350  0.8749  0.0118
 5927TIP3   OH217744   6.552   3.561   0.112 -0.0670  0.0986 -0.1636
 5927TIP3    H117745   6.636   3.556   0.067 -0.1939  0.1160 -0.4045
 5927TIP3    H217746   6.487   3.542   0.044 -0.2678  0.2598 -0.0190
 5928TIP3   OH217747   3.180   4.938   3.624  0.0053  0.3238 -0.4520
 5928TIP3    H117748   3.123   4.965   3.552  0.3754  1.8973 -0.1884
 5928TIP3    H217749   3.265   4.924   3.583 -0.2070 -0.5629 -0.6029
 5929TIP3   OH217750   5.053   5.436   0.067  0.5151 -0.2948  0.5394
 5929TIP3    H117751   5.147   5.427   0.082  0.8067  0.4411 -0.7286
 5929TIP3    H217752   5.046   5.480  -0.018 -1.0007 -2.5876 -0.6277
 5930TIP3   OH217753   1.262   1.299   5.110 -0.1470 -0.3054 -0.7027
 5930TIP3    H117754   1.187   1.328   5.162 -0.4888 -1.4808 -0.5120
 5930TIP3    H217755   1.240   1.210   5.083  1.8348 -1.2991  0.6725
 5931TIP3   OH217756   6.268   6.490   4.677 -0.2793 -0.1557  0.7168
 5931TIP3    H117757   6.194   6.436   4.704 -0.8467  0.8174  1.1442
 5931TIP3    H217758   6.302   6.447   4.599  0.0222 -1.8053  1.6918
 5932TIP3   OH217759   1.874   2.806   1.956  0.1165  0.9417 -0.0914
 5932TIP3    H117760   1.787   2.826   1.992 -0.8029  0.3808 -1.8444
 5932TIP3    H217761   1.904   2.888   1.918  0.8001  1.3697  1.3053
 5933TIP3   OH217762   1.596   2.741   2.599  0.2433 -0.2628  0.1630
 5933TIP3    H117763   1.590   2.687   2.521 -1.4517 -0.2037  0.2294
 5933TIP3    H217764   1.616   2.829   2.566  1.4761 -0.6019 -0.0442
 5934TIP3   OH217765   1.828   2.480   1.888  0.1326  0.2459 -0.0972
 5934TIP3    H117766   1.811   2.550   1.824 -2.6414 -0.6338 -0.4707
 5934TIP3    H217767   1.752   2.422   1.880  1.0891 -1.4230  2.0359
 5935TIP3   OH217768   3.911   6.286   4.704  0.1391 -0.1204 -0.1494
 5935TIP3    H117769   3.927   6.200   4.743 -2.7234 -1.5436 -1.7303
 5935TIP3    H217770   3.968   6.289   4.627  1.8548  0.3953  1.1061
 5936TIP3   OH217771   0.979   4.027   0.974 -0.1825  0.1576 -0.6203
 5936TIP3    H117772   0.996   4.114   1.011 -0.3919  0.2066 -0.6411
 5936TIP3    H217773   1.005   4.034   0.882 -0.9894  0.4381 -0.8311
 5937TIP3   OH217774   2.972   5.620   0.295 -0.1361 -0.5106  0.6391
 5937TIP3    H117775   2.890   5.625   0.245 -0.4746 -1.0779  1.1187
 5937TIP3    H217776   2.965   5.690   0.359  0.4563  0.4482 -0.3182
 5938TIP3   OH217777   3.679   2.541   1.183  0.2873  0.2950  0.2230
 5938TIP3    H117778   3.657   2.629   1.152  0.5449  0.9297  1.7135
 5938TIP3    H217779   3.720   2.498   1.108 -0.0351  1.3642 -0.5953
 5939TIP3   OH217780   1.156   2.274   0.387 -0.0886  0.4702  0.7810
 5939TIP3    H117781   1.164   2.321   0.304  0.2488  0.5240  0.8412
 5939TIP3    H217782   1.062   2.262   0.399 -0.1045 -0.4465 -0.1197
 5940TIP3   OH217783   3.204   6.451   3.063 -0.0267 -0.0192  0.3566
 5940TIP3    H117784   3.183   6.358   3.075  0.9394  0.0528  3.0809
 5940TIP3    H217785   3.278   6.451   3.002 -0.0207 -1.0275  0.3523
 5941TIP3   OH217786   0.397   5.906   3.072  0.6369  0.4284  0.2445
 5941TIP3    H117787   0.353   5.991   3.082 -0.3446 -0.0691  0.2234
 5941TIP3    H217788   0.481   5.928   3.032  1.1979  1.5956  1.9437
 5942TIP3   OH217789   0.615   2.379   2.788  0.0869 -0.6866  0.1809
 5942TIP3    H117790   0.652   2.293   2.808 -0.2571 -0.5520  1.4461
 5942TIP3    H217791   0.688   2.440   2.801  0.7801 -0.8909 -2.2314
 5943TIP3   OH217792   3.279   0.512   5.853 -0.2223 -0.3148 -0.1783
 5943TIP3    H117793   3.364   0.546   5.880  0.2103 -2.5395  1.5835
 5943TIP3    H217794   3.222   0.589   5.852  1.1474  0.7969  1.4611
 5944TIP3   OH217795   5.076   1.884   2.947 -1.0801  0.2633  0.0389
 5944TIP3    H117796   5.059   1.957   2.888  0.7551  0.8331  0.1583
 5944TIP3    H217797   5.169   1.863   2.933 -1.2272 -1.1516  1.0023
 5945TIP3   OH217798   6.398   3.116   5.227 -0.4052 -0.0739  0.6351
 5945TIP3    H117799   6.361   3.191   5.274 -1.3035 -0.3974  0.4574
 5945TIP3    H217800   6.377   3.133   5.135  0.4708  0.0570  0.4510
 5946TIP3   OH217801   4.169   1.066   4.576 -0.4685  0.1027  0.0198
 5946TIP3    H117802   4.245   1.053   4.520 -0.3865  1.1771 -0.1458
 5946TIP3    H217803   4.203   1.053   4.665  0.9012  4.1159  0.2956
 5947TIP3   OH217804   4.802   5.120   4.224 -0.2570  0.1056  0.1550
 5947TIP3    H117805   4.792   5.116   4.319 -1.1571  1.7375  0.1707
 5947TIP3    H217806   4.762   5.040   4.192  2.6894 -1.9850  1.2496
 5948TIP3   OH217807   0.406   1.048   4.667  0.0562  0.1550  0.1627
 5948TIP3    H117808   0.325   0.998   4.682 -0.2466  0.7301  0.4709
 5948TIP3    H217809   0.386   1.136   4.700  0.6963  0.3902 -0.0730
 5949TIP3   OH217810   2.156   2.773   1.239  0.1286 -0.2619  0.1013
 5949TIP3    H117811   2.239   2.740   1.272 -0.8640 -2.1649  0.8222
 5949TIP3    H217812   2.171   2.788   1.146  1.3518 -0.2884  0.2862
 5950TIP3   OH217813   3.563   2.315   4.263 -0.4165 -0.2177  0.0956
 5950TIP3    H117814   3.634   2.268   4.307  0.9970 -0.8160 -2.6038
 5950TIP3    H217815   3.521   2.248   4.209 -1.0820  0.7729 -0.6276
 5951TIP3   OH217816   5.555   2.752   0.949  0.1227 -0.2235 -0.6046
 5951TIP3    H117817   5.588   2.798   1.026  0.2621 -0.4910 -0.5020
 5951TIP3    H217818   5.592   2.800   0.875  0.8764 -0.6078 -0.4892
 5952TIP3   OH217819   2.767   0.362   3.231  0.0470  0.0695 -1.1402
 5952TIP3    H117820   2.794   0.415   3.306 -2.1325 -1.3679  0.8021
 5952TIP3    H217821   2.693   0.410   3.193 -1.3550 -1.0117  0.0839
 5953TIP3   OH217822   2.910   2.637   4.099  0.3748 -0.1164  0.0578
 5953TIP3    H117823   2.922   2.589   4.017 -2.6155 -1.2217  0.1373
 5953TIP3    H217824   2.948   2.579   4.166 -0.3640 -0.9330 -0.2034
 5954TIP3   OH217825   3.217   1.506   0.355  0.5291  0.5172 -0.3495
 5954TIP3    H117826   3.213   1.424   0.306  0.6775 -1.1390  2.2161
 5954TIP3    H217827   3.300   1.503   0.401  0.5404  2.1435 -0.1789
 5955TIP3   OH217828   4.410   3.343   0.067 -0.8214  0.6754  0.7874
 5955TIP3    H117829   4.436   3.263   0.113  0.3076  0.6980  0.2259
 5955TIP3    H217830   4.324   3.323   0.031 -1.4430  0.4321  2.3296
 5956TIP3   OH217831   5.517   2.026   2.967  0.1312  0.1829  0.1956
 5956TIP3    H117832   5.597   2.046   2.919 -0.5087  2.3941 -0.0596
 5956TIP3    H217833   5.526   2.071   3.051  0.4750 -2.2043  1.5202
 5957TIP3   OH217834   3.139   0.842   1.490  0.1593  0.2449  0.1506
 5957TIP3    H117835   3.172   0.765   1.537 -1.6115 -1.6642 -1.5044
 5957TIP3    H217836   3.180   0.836   1.404  1.1772  2.1097  0.4405
 5958TIP3   OH217837   7.076   1.294   3.958 -0.6758 -0.2921  0.1913
 5958TIP3    H117838   7.044   1.338   3.879  1.3780  0.5818 -0.2024
 5958TIP3    H217839   7.152   1.345   3.985 -1.7162 -0.1037  3.2049
 5959TIP3   OH217840   6.774   5.242   4.875  0.0726 -0.3724  0.3067
 5959TIP3    H117841   6.819   5.227   4.791  1.7005 -0.6315  1.1746
 5959TIP3    H217842   6.786   5.160   4.923 -0.6929 -0.1659  0.8622
 5960TIP3   OH217843   3.276   1.121   3.677 -0.0648  0.4684  0.3324
 5960TIP3    H117844   3.326   1.065   3.618 -1.1663  0.4572 -0.6157
 5960TIP3    H217845   3.340   1.147   3.744  0.3649 -2.4464  1.2208
 5961TIP3   OH217846   6.703   0.638   2.193  0.3014 -0.5582 -0.0490
 5961TIP3    H117847   6.650   0.579   2.248  1.0007  0.8630  2.2744
 5961TIP3    H217848   6.792   0.606   2.203  0.3923 -0.5296 -0.7323
 5962TIP3   OH217849   0.054   4.335   1.264  0.9390  0.0936 -0.0997
 5962TIP3    H117850  -0.006   4.356   1.193  1.4331  0.5002 -0.4009
 5962TIP3    H217851  -0.002   4.329   1.342  0.4330 -0.0943 -0.4710
 5963TIP3   OH217852   4.041   1.939   3.719 -0.1820 -0.5286 -0.0121
 5963TIP3    H117853   4.104   2.003   3.753 -0.0185 -1.6367  1.8747
 5963TIP3    H217854   3.981   1.991   3.666  1.0530  0.8813 -0.1011
 5964TIP3   OH217855   6.444   6.560   2.339  0.1774 -0.9694 -0.1151
 5964TIP3    H117856   6.460   6.612   2.260  1.7528  0.3993  1.0278
 5964TIP3    H217857   6.367   6.601   2.379  0.1057 -0.8847 -0.3389
 5965TIP3   OH217858   2.079   0.238   3.828 -0.2980  0.4441  0.2153
 5965TIP3    H117859   2.167   0.256   3.859 -1.1499  2.3833  1.6915
 5965TIP3    H217860   2.087   0.156   3.779  2.4245  0.9333 -0.2997
 5966TIP3   OH217861   3.141   4.931   5.090  0.7217  0.2237  0.8924
 5966TIP3    H117862   3.186   4.964   5.012 -0.5270 -1.6066 -0.7287
 5966TIP3    H217863   3.072   4.995   5.107 -1.4827 -1.1688 -2.0064
 5967TIP3   OH217864   3.758   4.988   3.993  0.0715 -0.2817 -0.1288
 5967TIP3    H117865   3.824   4.992   3.924 -1.3426  0.6936 -1.4972
 5967TIP3    H217866   3.750   5.078   4.024  0.0435 -0.5579  0.6967
 5968TIP3   OH217867   3.814   0.570   5.015  0.0009  0.1533 -0.4805
 5968TIP3    H117868   3.858   0.537   5.093 -0.4389 -2.1774 -1.1358
 5968TIP3    H217869   3.784   0.658   5.039  1.8294  0.3856  1.1688
 5969TIP3   OH217870   1.170   1.361   2.787 -0.0894 -0.3213 -0.6442
 5969TIP3    H117871   1.235   1.400   2.845  0.4797 -1.6647 -0.3362
 5969TIP3    H217872   1.128   1.293   2.841 -1.2703  0.0565 -1.0519
 5970TIP3   OH217873   2.302   2.323   4.829 -0.4673 -0.7258  0.1872
 5970TIP3    H117874   2.354   2.316   4.749 -0.0869  1.2185  0.2169
 5970TIP3    H217875   2.212   2.337   4.798  0.0208  2.7440 -0.0677
 5971TIP3   OH217876   4.113   3.825   1.148 -0.2253 -0.6056 -0.1261
 5971TIP3    H117877   4.150   3.785   1.069  1.2927  0.8102 -0.1836
 5971TIP3    H217878   4.072   3.906   1.116 -1.1260 -0.8694  0.3236
 5972TIP3   OH217879   3.921   3.958   0.856  0.2055  0.1670  0.1568
 5972TIP3    H117880   3.925   3.977   0.763 -0.6355 -0.3802 -0.0024
 5972TIP3    H217881   3.907   3.864   0.861  3.6795 -0.4592  0.9121
 5973TIP3   OH217882   5.094   1.096   4.800 -0.4157  0.1089 -0.2414
 5973TIP3    H117883   5.081   1.028   4.866  1.2914  0.4869  0.5196
 5973TIP3    H217884   5.098   1.177   4.850 -1.9798  0.7733 -1.1004
 5974TIP3   OH217885   0.710   3.639   1.666  0.3354  0.2354 -0.1196
 5974TIP3    H117886   0.727   3.714   1.609  0.9327  0.0896 -0.1374
 5974TIP3    H217887   0.780   3.641   1.731  1.7935 -1.6415 -1.4861
 5975TIP3   OH217888   2.808   2.133   4.916 -0.4166  0.9805 -0.2134
 5975TIP3    H117889   2.839   2.085   4.992 -3.1224  0.7431  0.8485
 5975TIP3    H217890   2.846   2.088   4.841  1.3338  0.4780  0.9294
 5976TIP3   OH217891   4.825   0.670   2.826  0.4708  0.0362  0.8832
 5976TIP3    H117892   4.788   0.628   2.748  1.6779  0.0474  0.2731
 5976TIP3    H217893   4.773   0.636   2.899 -0.3632 -0.3553  0.1234
 5977TIP3   OH217894   5.606   1.349   2.255 -0.1769 -0.0122  0.1338
 5977TIP3    H117895   5.578   1.261   2.229 -0.0695  0.2054 -0.7462
 5977TIP3    H217896   5.641   1.338   2.343 -0.0214 -0.8792 -0.0316
 5978TIP3   OH217897   6.354   2.353   1.204  0.2622  0.1268  0.6566
 5978TIP3    H117898   6.275   2.303   1.225  0.4679  0.2528  1.7812
 5978TIP3    H217899   6.325   2.417   1.139  0.0251 -1.5042 -0.9225
 5979TIP3   OH217900   6.237   0.370   3.672  0.0675 -0.1699 -0.1702
 5979TIP3    H117901   6.277   0.446   3.713  0.2001 -0.9315  1.1702
 5979TIP3    H217902   6.276   0.295   3.718 -1.1046 -0.9968 -0.4886
 5980TIP3   OH217903   0.757   2.379   4.606  0.5927  0.5241  0.2342
 5980TIP3    H117904   0.726   2.441   4.673 -0.8997 -1.5488  1.5833
 5980TIP3    H217905   0.823   2.327   4.651  1.4302  0.7273 -0.7249
 5981TIP3   OH217906   0.273   4.447   4.821  0.2264  0.1685 -0.3580
 5981TIP3    H117907   0.311   4.521   4.868  1.8551 -0.3687 -0.7573
 5981TIP3    H217908   0.274   4.474   4.729  2.0677 -0.7980 -0.6692
 5982TIP3   OH217909   5.265   5.075   4.087 -0.6101  0.0405  0.1784
 5982TIP3    H117910   5.304   5.162   4.085 -0.9839  0.2321  0.9717
 5982TIP3    H217911   5.304   5.029   4.013  0.0121  0.6988  0.0963
 5983TIP3   OH217912   5.310   2.608   5.273  0.5412 -0.4116  0.3792
 5983TIP3    H117913   5.357   2.632   5.194  2.9823 -1.2944  1.4401
 5983TIP3    H217914   5.288   2.691   5.314  0.7712  0.0440 -0.4009
 5984TIP3   OH217915   1.930   5.793   2.934  0.0981 -0.4117  0.8950
 5984TIP3    H117916   1.932   5.765   2.843  2.7662  1.6913  0.1564
 5984TIP3    H217917   1.979   5.725   2.981  2.0315  0.3235  0.0379
 5985TIP3   OH217918   4.765   4.511   2.219 -0.2131  1.0567 -0.2811
 5985TIP3    H117919   4.834   4.577   2.219  1.8631 -0.9553  1.5238
 5985TIP3    H217920   4.743   4.499   2.127  2.3533  1.3220 -1.0055
 5986TIP3   OH217921   2.774   1.697   0.590  0.1410 -0.3546  0.4685
 5986TIP3    H117922   2.736   1.612   0.613  0.4162 -0.5057  0.3733
 5986TIP3    H217923   2.847   1.675   0.532 -1.1041  0.0628 -1.3288
 5987TIP3   OH217924   7.212   0.916   1.700 -0.4837  0.2604 -0.2432
 5987TIP3    H117925   7.186   0.826   1.720 -1.4360  0.5695 -0.0201
 5987TIP3    H217926   7.143   0.948   1.642  0.5081  0.4572 -1.3595
 5988TIP3   OH217927   6.930   5.860   1.884  0.2324 -0.1940  0.0339
 5988TIP3    H117928   6.897   5.773   1.905 -1.3095  0.4578  0.4779
 5988TIP3    H217929   6.913   5.912   1.962  1.3429  0.4766 -0.1398
 5989TIP3   OH217930   0.605   1.787   4.985  0.4929  0.1835 -0.4512
 5989TIP3    H117931   0.536   1.817   4.926  0.5366  2.1485  0.4123
 5989TIP3    H217932   0.687   1.806   4.939  0.4961 -0.1645 -0.5907
 5990TIP3   OH217933   4.651   1.226   3.624 -0.5939  0.9881 -0.5671
 5990TIP3    H117934   4.688   1.151   3.671 -1.0055  0.3830 -1.1758
 5990TIP3    H217935   4.675   1.211   3.533 -2.8630  0.1842 -1.1133
 5991TIP3   OH217936   0.276   0.898   5.314 -0.2059  0.3151  0.2615
 5991TIP3    H117937   0.217   0.851   5.373 -0.6712  0.6550  0.0763
 5991TIP3    H217938   0.355   0.845   5.311 -0.8546 -0.6399 -0.2397
 5992TIP3   OH217939   4.072   3.572   5.752 -0.2990  0.5267  1.1129
 5992TIP3    H117940   4.145   3.597   5.809 -0.3537  1.0347  0.9637
 5992TIP3    H217941   4.027   3.655   5.732  0.0345  0.4407 -0.1017
 5993TIP3   OH217942   5.587   3.382   4.201 -0.3640 -0.0564 -0.0767
 5993TIP3    H117943   5.594   3.381   4.297 -1.0516 -2.2887  0.0059
 5993TIP3    H217944   5.677   3.385   4.170 -0.0946 -0.2359  0.6627
 5994TIP3   OH217945   6.857   1.867   3.100  0.2014  1.1082  0.3862
 5994TIP3    H117946   6.890   1.932   3.038  0.7338  0.6985  0.2347
 5994TIP3    H217947   6.854   1.785   3.051 -1.7029  1.2490  0.1963
 5995TIP3   OH217948   3.801   5.594   1.616  0.1130 -0.5081 -0.2875
 5995TIP3    H117949   3.727   5.614   1.558  0.1590 -0.4749 -0.3351
 5995TIP3    H217950   3.802   5.498   1.621 -1.4581 -0.4849  1.6959
 5996TIP3   OH217951   7.079   4.611   4.966  0.1744 -0.2421 -0.3503
 5996TIP3    H117952   7.039   4.529   4.936  1.4741 -1.0433  0.0739
 5996TIP3    H217953   7.039   4.627   5.051  2.0940 -2.1060  1.0150
 5997TIP3   OH217954   1.174   1.623   3.977 -0.0445  0.4999 -0.0716
 5997TIP3    H117955   1.228   1.565   3.923  0.8568 -0.5286  1.8430
 5997TIP3    H217956   1.103   1.567   4.008  0.6000  0.4868  1.4523
 5998TIP3   OH217957   0.428   2.255   0.620 -0.3422 -0.4023 -0.3387
 5998TIP3    H117958   0.369   2.218   0.685  0.6967 -0.9011  0.3409
 5998TIP3    H217959   0.497   2.296   0.670  0.1983 -0.3284 -1.1225
 5999TIP3   OH217960   6.751   4.375   4.802 -0.2442  0.2613 -0.4753
 5999TIP3    H117961   6.760   4.285   4.835  3.2700  1.2338  1.8084
 5999TIP3    H217962   6.804   4.377   4.722  1.5870  0.6702  0.6660
 6000TIP3   OH217963   2.122   3.717   0.832 -0.2350 -0.3161 -0.7070
 6000TIP3    H117964   2.141   3.779   0.903  2.7298  1.1422 -2.6096
 6000TIP3    H217965   2.045   3.754   0.788  0.4868  1.1374 -0.7934
 6001TIP3   OH217966  -0.017   4.077   3.410 -0.2639 -0.4036 -0.1932
 6001TIP3    H117967   0.066   4.032   3.393  0.2614  1.0070 -1.6269
 6001TIP3    H217968  -0.014   4.154   3.353 -1.8343  0.5721  0.9702
 6002TIP3   OH217969   4.979   0.521   4.673  0.2681  0.1190 -0.0209
 6002TIP3    H117970   5.029   0.594   4.637  0.5515  0.5190  1.1393
 6002TIP3    H217971   5.003   0.519   4.766 -1.9698  0.4287  0.6142
 6003TIP3   OH217972   4.266   4.974   0.208 -0.0762  0.0181 -0.0747
 6003TIP3    H117973   4.296   5.051   0.257  1.2333 -1.8713  2.2699
 6003TIP3    H217974   4.332   4.961   0.141 -0.7358  1.3706 -1.0257
 6004TIP3   OH217975   2.730   6.220   3.522 -0.6146  0.6723 -0.4994
 6004TIP3    H117976   2.713   6.201   3.430 -0.7385 -0.7814 -0.2120
 6004TIP3    H217977   2.790   6.150   3.550  0.8955  2.1362  0.0764
 6005TIP3   OH217978   6.211   1.318   1.857  0.1995  0.6728  0.2721
 6005TIP3    H117979   6.294   1.298   1.815 -0.6686 -0.8469 -0.8399
 6005TIP3    H217980   6.172   1.232   1.875 -1.2351  1.3475  0.5493
 6006TIP3   OH217981   0.947   4.866   0.692  0.2427 -0.3548  0.2687
 6006TIP3    H117982   0.979   4.956   0.696 -1.2378  0.2215 -0.1109
 6006TIP3    H217983   1.011   4.815   0.742  0.3767  1.1363  1.6824
 6007TIP3   OH217984   2.129   2.740   5.205  0.4482  0.1550 -0.2674
 6007TIP3    H117985   2.153   2.824   5.166 -1.6469  0.5520 -0.8323
 6007TIP3    H217986   2.068   2.701   5.142  0.9308 -1.5419  0.2641
 6008TIP3   OH217987   0.391   0.758   4.652  0.5927 -0.7466 -0.1831
 6008TIP3    H117988   0.437   0.794   4.576 -0.8819  3.3312  0.5949
 6008TIP3    H217989   0.302   0.744   4.621  0.7458 -2.2604  0.0044
 6009TIP3   OH217990   2.027   3.388   0.581  0.3404 -0.0666 -0.6179
 6009TIP3    H117991   1.986   3.303   0.599  1.1289 -0.7459 -1.9166
 6009TIP3    H217992   2.069   3.377   0.496 -1.0474  2.1736 -1.6963
 6010TIP3   OH217993   3.288   3.583   5.156 -0.0892 -0.4491  0.9205
 6010TIP3    H117994   3.264   3.656   5.099  0.0600 -0.9661  0.1771
 6010TIP3    H217995   3.364   3.615   5.205 -0.6785  0.2686  1.3995
 6011TIP3   OH217996   4.503   4.982   2.007  0.5978  0.1007  0.1514
 6011TIP3    H117997   4.491   5.012   2.097  1.0076  1.9046 -0.3584
 6011TIP3    H217998   4.425   4.930   1.988  0.0765  0.4512  1.2569
 6012TIP3   OH217999   5.765   5.306   2.803 -0.1107 -0.4816 -0.4137
 6012TIP3    H118000   5.757   5.332   2.894  0.1364  2.2647 -1.0878
 6012TIP3    H218001   5.857   5.320   2.782 -0.4507  0.3939 -1.4336
 6013TIP3   OH218002   1.797   6.666   0.427  0.4615  0.2078 -0.2909
 6013TIP3    H118003   1.725   6.604   0.433  0.3545  0.2148 -1.2990
 6013TIP3    H218004   1.874   6.615   0.451  0.0588  0.3726  1.4428
 6014TIP3   OH218005   3.625   3.829   2.071  0.0290  0.4830 -0.1377
 6014TIP3    H118006   3.647   3.860   1.983  0.2576 -0.7033 -0.5189
 6014TIP3    H218007   3.578   3.747   2.055  0.5657 -0.0257  0.8687
 6015TIP3   OH218008   3.451   4.076   2.246 -0.2938 -0.0074  0.6944
 6015TIP3    H118009   3.487   4.115   2.325 -0.8732  0.2195  0.8451
 6015TIP3    H218010   3.485   3.986   2.246  2.1422  0.8323 -0.3469
 6016TIP3   OH218011   5.800   6.141   1.206 -0.6079 -0.5796 -0.0450
 6016TIP3    H118012   5.776   6.148   1.298  2.5390 -1.7858  1.0167
 6016TIP3    H218013   5.873   6.202   1.195  0.0879 -1.5821 -1.3077
 6017TIP3   OH218014   0.250   1.771   5.259  0.3602  0.4084  0.1758
 6017TIP3    H118015   0.195   1.848   5.277 -0.8240 -0.5523  0.7731
 6017TIP3    H218016   0.243   1.759   5.164  0.5320  1.0091  0.0798
 6018TIP3   OH218017   3.124   1.097   2.768 -0.1194 -0.2290  0.0633
 6018TIP3    H118018   3.065   1.173   2.770 -1.4522 -1.2331  0.7577
 6018TIP3    H218019   3.164   1.096   2.855  1.0584  0.5047 -0.4361
 6019TIP3   OH218020   2.653   4.266   4.493 -0.1971  0.0012 -0.4712
 6019TIP3    H118021   2.572   4.245   4.538  0.9525  0.7348  2.1490
 6019TIP3    H218022   2.711   4.192   4.511 -0.3555 -0.8031 -2.8083
 6020TIP3   OH218023   4.520   2.509   0.757 -0.0178  0.4647  0.6825
 6020TIP3    H118024   4.482   2.427   0.724  0.1756  0.5547  0.2193
 6020TIP3    H218025   4.581   2.536   0.688  1.0677  0.1966  1.5349
 6021TIP3   OH218026   3.976   4.948   5.239  0.5636 -0.0071 -0.2299
 6021TIP3    H118027   3.947   4.905   5.159  2.5321 -0.3238 -0.8389
 6021TIP3    H218028   4.021   4.879   5.288  0.1430  0.3956  0.7397
 6022TIP3   OH218029   3.200   5.496   2.891 -0.1106  0.3533  0.2869
 6022TIP3    H118030   3.284   5.527   2.925 -0.4327  1.4745  0.1005
 6022TIP3    H218031   3.219   5.466   2.802  0.5506 -1.7031  1.0594
 6023TIP3   OH218032   4.001   6.353   0.596 -0.8902 -0.0381  0.2597
 6023TIP3    H118033   3.968   6.299   0.668 -1.0780 -0.2913 -0.0118
 6023TIP3    H218034   3.936   6.341   0.526  0.2164 -1.2546 -0.6124
 6024TIP3   OH218035   3.600   5.222   5.912  0.3600  0.3068 -0.4131
 6024TIP3    H118036   3.637   5.163   5.846 -1.2775  0.5270 -1.5974
 6024TIP3    H218037   3.559   5.292   5.861 -1.2730  0.2934  0.8105
 6025TIP3   OH218038   2.195   3.684   0.383 -0.2436 -0.3898 -0.5008
 6025TIP3    H118039   2.160   3.752   0.441 -0.2574 -1.2859  0.5772
 6025TIP3    H218040   2.152   3.700   0.299 -1.2670  0.1129  0.0994
 6026TIP3   OH218041   1.130   1.943   2.870  0.3506  0.6951 -0.1046
 6026TIP3    H118042   1.192   1.993   2.817  1.3277 -0.1638  0.1999
 6026TIP3    H218043   1.156   1.852   2.858 -0.9511  0.2951 -0.0769
 6027TIP3   OH218044   4.757   2.666   2.409  0.2270 -0.6665  0.0986
 6027TIP3    H118045   4.664   2.645   2.421  0.1429  0.5705  2.0714
 6027TIP3    H218046   4.764   2.758   2.435  1.9794 -0.6673 -0.2544
 6028TIP3   OH218047   3.547   5.335   5.170 -0.3985  0.6688 -0.0957
 6028TIP3    H118048   3.625   5.280   5.180 -0.9909  0.0404  1.3755
 6028TIP3    H218049   3.579   5.425   5.174  0.3906  0.4393 -0.8837
 6029TIP3   OH218050   6.896   4.869   2.514 -0.0333  0.2197 -0.4138
 6029TIP3    H118051   6.983   4.829   2.514 -0.7349 -1.4069 -0.1184
 6029TIP3    H218052   6.907   4.953   2.558  1.3514 -0.0418 -0.2381
 6030TIP3   OH218053   5.796   0.921   2.093 -0.3943  0.4679 -0.5121
 6030TIP3    H118054   5.745   0.875   2.159 -0.7159  0.8486 -0.4897
 6030TIP3    H218055   5.799   1.012   2.124 -2.2164  1.1036 -1.9811
 6031TIP3   OH218056   3.901   4.605   1.576  0.1108 -0.2014  0.2931
 6031TIP3    H118057   3.825   4.548   1.562 -0.2876  0.3415  0.2001
 6031TIP3    H218058   3.976   4.547   1.564 -0.2491 -0.4152 -1.2552
 6032TIP3   OH218059   3.584   0.263   3.249  0.0634  0.5909  0.3643
 6032TIP3    H118060   3.530   0.193   3.212 -0.8183  2.2127 -1.6077
 6032TIP3    H218061   3.522   0.324   3.287  0.6507  1.3316  0.1602
 6033TIP3   OH218062   5.927   2.271   0.093  0.3106  0.2359 -0.0910
 6033TIP3    H118063   5.865   2.220   0.040  0.3099  2.3929 -2.3736
 6033TIP3    H218064   5.989   2.206   0.126  0.7244 -1.2966 -3.4016
 6034TIP3   OH218065   4.086   2.294   5.360  0.2458 -0.3161  0.0726
 6034TIP3    H118066   4.120   2.246   5.284 -0.3257 -1.5924  0.5899
 6034TIP3    H218067   4.129   2.253   5.435 -0.3568 -0.1084  0.5391
 6035TIP3   OH218068   4.829   2.064   2.514 -0.4087  0.2662  0.2184
 6035TIP3    H118069   4.818   2.003   2.441  1.6335  0.9165 -0.7233
 6035TIP3    H218070   4.762   2.039   2.577 -3.5617  0.8863 -2.6167
 6036TIP3   OH218071   1.863   2.684   0.993 -0.0880 -0.5281  0.1793
 6036TIP3    H118072   1.922   2.758   1.007 -0.9841  0.1727  0.3379
 6036TIP3    H218073   1.836   2.692   0.901 -1.6806  0.4776  0.7142
 6037TIP3   OH218074   7.087   4.847   5.584  0.0822 -0.1293  0.3533
 6037TIP3    H118075   7.017   4.911   5.569  0.2052  0.2764  1.4016
 6037TIP3    H218076   7.060   4.771   5.534 -0.7563  0.2756  0.1602
 6038TIP3   OH218077   2.036   1.454   1.289  0.6467  0.3476  0.2988
 6038TIP3    H118078   2.123   1.418   1.306  0.5742  0.3540  0.6910
 6038TIP3    H218079   2.049   1.549   1.290  0.6663  0.3457  0.1950
 6039TIP3   OH218080   0.867   3.091   3.943 -0.0295 -0.5116  0.3876
 6039TIP3    H118081   0.938   3.125   3.998  0.6510 -0.8786 -0.2382
 6039TIP3    H218082   0.866   3.151   3.868 -2.4353  1.3506  1.7808
 6040TIP3   OH218083   1.651   6.255   5.242  0.0967  0.1016  0.5302
 6040TIP3    H118084   1.708   6.325   5.211  0.2090 -0.4177 -0.4703
 6040TIP3    H218085   1.691   6.174   5.209 -1.0476 -0.2901  0.0643
 6041TIP3   OH218086   4.646   1.486   4.684  0.3508 -0.9344  0.1568
 6041TIP3    H118087   4.704   1.469   4.610  1.1821  2.0873 -0.0077
 6041TIP3    H218088   4.703   1.479   4.761  0.2616 -0.7346  0.2404
 6042TIP3   OH218089   2.962   1.018   5.804  0.6633  0.2651  0.6844
 6042TIP3    H118090   2.993   1.071   5.877 -0.3569  0.9222  0.6663
 6042TIP3    H218091   2.919   1.081   5.746 -0.6138 -0.5826  0.6817
 6043TIP3   OH218092   6.095   6.525   3.550 -0.1427 -0.7245  0.1403
 6043TIP3    H118093   6.058   6.590   3.610 -3.3951 -1.0483 -1.3172
 6043TIP3    H218094   6.117   6.575   3.472  0.1013 -0.9520  0.0628
 6044TIP3   OH218095   1.093   0.911   0.067 -0.3603  0.0094  0.2851
 6044TIP3    H118096   1.078   0.899  -0.027 -0.0304 -1.2230  0.3759
 6044TIP3    H218097   1.024   0.971   0.094  0.8263  2.1397 -1.1484
 6045TIP3   OH218098   3.377   4.676   5.702  0.4403 -0.4364  0.0269
 6045TIP3    H118099   3.346   4.746   5.760 -2.6431  0.1966 -2.1209
 6045TIP3    H218100   3.417   4.721   5.628  0.7146 -1.0685 -0.2205
 6046TIP3   OH218101   2.449   4.057   5.579  0.1456 -0.1093  0.0655
 6046TIP3    H118102   2.540   4.066   5.552  0.0456  0.6936 -0.0412
 6046TIP3    H218103   2.437   3.963   5.596  0.4681 -0.5325 -1.8002
 6047TIP3   OH218104   6.127   2.865   2.566 -0.0853  0.7977  0.0411
 6047TIP3    H118105   6.065   2.933   2.592 -2.9561 -1.3749 -0.6643
 6047TIP3    H218106   6.163   2.833   2.649 -1.1044  1.0537  0.6035
 6048TIP3   OH218107   5.287   0.815   5.211 -0.1196 -0.1164 -0.3449
 6048TIP3    H118108   5.226   0.762   5.263 -0.0452  0.0086 -0.1271
 6048TIP3    H218109   5.301   0.893   5.264 -0.0556  0.0214 -0.5639
 6049TIP3   OH218110   6.006   1.678   1.749  0.1559  0.0642 -0.6880
 6049TIP3    H118111   6.078   1.696   1.689  1.6418 -0.2152  0.9611
 6049TIP3    H218112   5.980   1.588   1.727 -0.1137  0.3612 -1.6692
 6050TIP3   OH218113   6.330   4.550   2.998  0.3940 -0.1312 -0.4181
 6050TIP3    H118114   6.234   4.548   3.002  0.4274 -0.4503  1.8267
 6050TIP3    H218115   6.354   4.473   2.948 -0.5100 -1.6676  1.4012
 6051TIP3   OH218116   4.588   2.994   4.614 -0.1091 -0.1367 -0.3637
 6051TIP3    H118117   4.509   2.996   4.560 -0.3641  2.7305 -0.0359
 6051TIP3    H218118   4.557   3.015   4.702  0.7214 -1.6648  0.3415
 6052TIP3   OH218119   5.208   0.143   2.725  0.1792 -0.0700 -0.4534
 6052TIP3    H118120   5.212   0.191   2.642  1.8682  0.4412 -0.1231
 6052TIP3    H218121   5.294   0.157   2.764 -1.2044  1.3425  2.3307
 6053TIP3   OH218122   5.223   3.107   3.325 -0.4772  0.0314  0.3114
 6053TIP3    H118123   5.148   3.137   3.273 -1.1057 -1.2818  0.4205
 6053TIP3    H218124   5.199   3.018   3.352  1.2975 -0.5715  0.0143
 6054TIP3   OH218125   1.707   4.147   1.586 -0.0085  0.3371  0.3411
 6054TIP3    H118126   1.660   4.077   1.541 -0.0760 -0.6253  1.8161
 6054TIP3    H218127   1.762   4.187   1.519  0.7086 -1.7284 -0.3863
 6055TIP3   OH218128   1.743   0.200   2.065 -0.3720  0.2533 -0.5818
 6055TIP3    H118129   1.794   0.255   2.005 -1.0408  0.7460 -0.7191
 6055TIP3    H218130   1.668   0.256   2.090 -0.6617 -0.3289 -0.1251
 6056TIP3   OH218131   6.513   0.762   3.637 -0.7996 -0.5133 -0.2541
 6056TIP3    H118132   6.602   0.796   3.622 -0.1053 -1.9597  0.4186
 6056TIP3    H218133   6.467   0.835   3.680  0.3788 -0.0947  0.3533
 6057TIP3   OH218134   6.353   1.144   1.276 -0.0434 -0.2490  0.0517
 6057TIP3    H118135   6.277   1.183   1.319  0.4906 -1.1768  1.9504
 6057TIP3    H218136   6.341   1.050   1.288  0.9137 -0.4535 -0.5139
 6058TIP3   OH218137   6.389   6.224   0.343  0.2329  0.0363  0.6081
 6058TIP3    H118138   6.333   6.231   0.421 -1.9606 -0.0651 -0.8639
 6058TIP3    H218139   6.348   6.282   0.279  0.3300 -1.9220 -1.3568
 6059TIP3   OH218140   3.080   3.765   3.994 -0.0183 -0.3449  0.4995
 6059TIP3    H118141   3.100   3.752   3.901 -2.5162 -0.6825 -0.0634
 6059TIP3    H218142   3.060   3.678   4.027 -0.7802 -0.0251  0.9134
 6060TIP3   OH218143   4.995   5.936   3.294 -0.3857  0.9039 -0.0957
 6060TIP3    H118144   5.060   5.918   3.226 -0.2726 -2.1788  0.6907
 6060TIP3    H218145   5.043   5.981   3.363  0.3754  0.6957 -0.4819
 6061TIP3   OH218146   4.781   1.346   2.083  0.2609 -0.2760 -0.0557
 6061TIP3    H118147   4.690   1.375   2.074  0.5872  0.5827 -0.6989
 6061TIP3    H218148   4.774   1.254   2.106 -0.7573 -0.4781 -1.0697
 6062TIP3   OH218149   5.988   1.799   4.378 -0.5679 -0.1690 -0.0785
 6062TIP3    H118150   6.061   1.815   4.438  0.3767  0.1785 -1.2827
 6062TIP3    H218151   6.019   1.831   4.293 -1.1297 -2.3753 -1.1887
 6063TIP3   OH218152   2.587   4.424   0.664 -0.4747 -0.2929 -0.2941
 6063TIP3    H118153   2.582   4.506   0.615 -1.6633  0.6133  1.2680
 6063TIP3    H218154   2.677   4.395   0.652  0.2282  1.6985 -0.1837
 6064TIP3   OH218155   5.825   1.204   2.145  0.1564 -0.0400 -0.2376
 6064TIP3    H118156   5.896   1.254   2.105 -0.2586 -0.5625 -1.7264
 6064TIP3    H218157   5.751   1.265   2.146 -0.3721 -0.5828 -2.1273
 6065TIP3   OH218158   3.665   6.302   5.374 -0.1867  0.3333 -0.1132
 6065TIP3    H118159   3.708   6.387   5.369 -0.8659  0.6715 -0.3659
 6065TIP3    H218160   3.734   6.241   5.399 -0.2219  1.3950  2.9919
 6066TIP3   OH218161   6.090   3.853   2.537  0.1576  0.0875 -0.3787
 6066TIP3    H118162   6.107   3.947   2.529 -1.0381  0.3779  0.1822
 6066TIP3    H218163   6.171   3.817   2.572  0.2097  1.1209  0.6390
 6067TIP3   OH218164   1.791   1.976   3.753 -0.0191  0.0301  0.4084
 6067TIP3    H118165   1.766   1.996   3.843 -0.3134 -0.5868  0.4617
 6067TIP3    H218166   1.805   1.882   3.751 -1.2999 -0.1723 -0.5008
 6068TIP3   OH218167   1.697   2.470   0.719  0.7227 -0.0947 -0.3510
 6068TIP3    H118168   1.603   2.460   0.731  0.7927 -0.0178  0.3061
 6068TIP3    H218169   1.712   2.564   0.713  1.0283  0.0683  2.1051
 6069TIP3   OH218170   2.969   3.377   3.137 -0.3156  0.2571 -0.0629
 6069TIP3    H118171   2.944   3.434   3.209 -0.6131 -0.7657  0.6667
 6069TIP3    H218172   3.038   3.321   3.174  1.0443  1.1188 -1.1988
 6070TIP3   OH218173   4.075   5.455   1.435 -0.4037  0.1514 -0.4788
 6070TIP3    H118174   4.017   5.506   1.378 -1.0692 -1.4040 -1.2554
 6070TIP3    H218175   4.031   5.371   1.445 -0.8346  0.6246  3.1788
 6071TIP3   OH218176   2.212   0.080   1.005  0.1493 -0.1853  0.4861
 6071TIP3    H118177   2.253  -0.007   0.999 -0.0860 -0.2160 -0.7781
 6071TIP3    H218178   2.276   0.132   1.053  1.4416 -0.3973 -0.9165
 6072TIP3   OH218179   2.959   6.658   3.583  0.2599 -0.0819 -0.2375
 6072TIP3    H118180   2.975   6.580   3.530 -2.9222 -1.5102  0.6637
 6072TIP3    H218181   2.874   6.690   3.554 -0.9468 -0.0722  2.8770
 6073TIP3   OH218182   5.999   0.966   4.567 -0.0436  0.1098 -0.1905
 6073TIP3    H118183   5.998   1.028   4.494  1.0258  0.5845  0.1762
 6073TIP3    H218184   6.014   1.020   4.645  2.1074 -0.6662  0.0139
 6074TIP3   OH218185   0.199   0.193   4.917  0.0621  0.4503  0.0181
 6074TIP3    H118186   0.174   0.101   4.917  0.2776  0.3901 -0.0943
 6074TIP3    H218187   0.293   0.192   4.901  0.1335  0.6727  0.4145
 6075TIP3   OH218188   3.458   0.993   4.713 -0.4318 -0.6823 -0.3618
 6075TIP3    H118189   3.449   1.078   4.669  0.9134 -1.4966 -2.3776
 6075TIP3    H218190   3.513   0.941   4.654 -0.2201 -2.5772  1.3798
 6076TIP3   OH218191   6.664   4.246   1.737  0.2220  0.1635  0.1804
 6076TIP3    H118192   6.699   4.170   1.783  0.6116 -0.2592 -0.7959
 6076TIP3    H218193   6.576   4.257   1.775 -0.1650 -1.2745 -0.2266
 6077TIP3   OH218194   0.551   3.617   0.419 -0.2957 -0.2367 -0.4141
 6077TIP3    H118195   0.508   3.562   0.354  1.5878  0.4142 -2.2962
 6077TIP3    H218196   0.644   3.614   0.396  0.3205  0.7696  1.7010
 6078TIP3   OH218197   0.530   0.108   4.437 -0.3182 -0.0613  0.5562
 6078TIP3    H118198   0.436   0.116   4.421 -0.3656 -0.5231  0.5813
 6078TIP3    H218199   0.563   0.059   4.362 -0.2755 -0.8089  1.0469
 6079TIP3   OH218200   2.939   4.007   3.159 -0.0757  0.2812 -0.2030
 6079TIP3    H118201   3.013   4.065   3.175 -0.8802  0.8819  1.5550
 6079TIP3    H218202   2.961   3.926   3.206  0.1961 -0.1576 -1.0690
 6080TIP3   OH218203   2.671   5.960   3.952  0.4062 -0.0941 -0.1477
 6080TIP3    H118204   2.646   6.022   4.020  1.0016 -0.9397  0.8782
 6080TIP3    H218205   2.761   5.983   3.931 -0.0865  0.7885 -1.3833
 6081TIP3   OH218206   2.557   1.993   1.999 -0.3558 -0.2318  0.5064
 6081TIP3    H118207   2.599   1.968   2.081  0.1861 -1.2614 -0.0613
 6081TIP3    H218208   2.581   2.085   1.987  0.6926 -0.4466  0.8359
 6082TIP3   OH218209   6.574   2.931   0.019  0.0163  0.3093 -0.3723
 6082TIP3    H118210   6.668   2.943   0.010  0.3019 -0.4914  1.0971
 6082TIP3    H218211   6.552   2.976   0.101 -0.4195 -1.5660  0.5824
 6083TIP3   OH218212   6.487   6.565   5.374 -0.1004 -0.1427 -0.1074
 6083TIP3    H118213   6.400   6.580   5.336 -0.8495 -1.1170  1.1518
 6083TIP3    H218214   6.471   6.508   5.449  1.7873 -1.5240 -0.6795
 6084TIP3   OH218215   4.694   3.053   2.767  0.3379  0.0993  0.1841
 6084TIP3    H118216   4.694   3.145   2.744 -0.0939  0.2361  0.7224
 6084TIP3    H218217   4.666   3.050   2.858 -0.9536 -0.6618 -0.2096
 6085TIP3   OH218218   2.715   1.663   1.292  0.0551 -0.1865 -0.5946
 6085TIP3    H118219   2.717   1.752   1.326 -0.4642  0.0965 -1.2611
 6085TIP3    H218220   2.801   1.627   1.312  0.2536  0.4514 -0.2754
 6086TIP3   OH218221   6.254   2.429   3.270 -0.5046  0.1768 -0.4495
 6086TIP3    H118222   6.167   2.467   3.277  0.5151  2.6422 -0.2558
 6086TIP3    H218223   6.251   2.352   3.327 -2.7587 -0.2838 -1.0953
 6087TIP3   OH218224   4.603   4.148   5.686  0.4085  0.3173 -0.2523
 6087TIP3    H118225   4.578   4.150   5.779 -0.6535 -0.7053 -0.4889
 6087TIP3    H218226   4.583   4.236   5.654  0.2111  0.4973  0.3474
 6088TIP3   OH218227   4.098   3.771   1.808  0.4498  0.1191  0.2096
 6088TIP3    H118228   4.133   3.860   1.818 -2.4234  1.3704  0.2037
 6088TIP3    H218229   4.044   3.758   1.886  0.5669 -1.5284  0.0511
 6089TIP3   OH218230   2.829   0.088   3.591 -0.2113 -0.0322  0.4000
 6089TIP3    H118231   2.901   0.028   3.575  0.1858  0.1739  1.3622
 6089TIP3    H218232   2.793   0.061   3.675 -0.8051  0.3138  0.2662
 6090TIP3   OH218233   3.910   2.390   0.730  0.4352  0.3247 -0.5350
 6090TIP3    H118234   3.936   2.301   0.705 -0.0534  0.0416 -0.0445
 6090TIP3    H218235   3.978   2.418   0.790  0.4129  0.1573 -0.4307
 6091TIP3   OH218236   0.118   2.726   1.384 -0.2191 -0.1033 -0.0101
 6091TIP3    H118237   0.192   2.784   1.365  1.2683 -1.3273  1.6359
 6091TIP3    H218238   0.149   2.639   1.361 -1.7999 -0.4732 -0.8718
 6092TIP3   OH218239   6.696   1.959   2.386 -0.6157 -0.2673 -0.2091
 6092TIP3    H118240   6.623   2.012   2.354 -0.6377 -0.1322  0.0613
 6092TIP3    H218241   6.744   1.933   2.307 -1.5477 -1.2425 -0.4669
 6093TIP3   OH218242   5.246   2.793   5.049 -0.1511  0.6255 -0.6641
 6093TIP3    H118243   5.176   2.730   5.067 -0.1825  1.1516  1.4241
 6093TIP3    H218244   5.268   2.780   4.957 -0.4490 -2.1175 -0.4253
 6094TIP3   OH218245   6.601   2.249   3.933 -0.5475 -0.0456  0.0515
 6094TIP3    H118246   6.691   2.269   3.907 -0.8741  0.4941 -0.6933
 6094TIP3    H218247   6.605   2.161   3.970  0.4956  0.4309  1.1281
 6095TIP3   OH218248   4.727   5.086   3.293 -0.4786  0.2827  0.1180
 6095TIP3    H118249   4.697   5.125   3.211 -1.6460 -0.7007  0.0462
 6095TIP3    H218250   4.675   5.006   3.302 -0.3460  0.3495  1.8029
 6096TIP3   OH218251   0.977   5.558   1.118  0.1528 -0.3373 -0.0214
 6096TIP3    H118252   1.072   5.548   1.109 -0.0962 -1.8667 -1.5754
 6096TIP3    H218253   0.940   5.492   1.059 -1.8935  0.0490  0.7268
 6097TIP3   OH218254   0.116   5.742   2.027  0.2793 -0.5159  0.0768
 6097TIP3    H118255   0.129   5.695   1.945  0.3838  0.3068 -0.3960
 6097TIP3    H218256   0.198   5.789   2.042 -0.3440  0.7599 -0.3139
 6098TIP3   OH218257   1.004   3.488   0.865 -0.3762 -0.2109  0.0705
 6098TIP3    H118258   0.948   3.557   0.830 -1.0774 -0.4539  0.6877
 6098TIP3    H218259   1.080   3.534   0.900 -0.4900  0.1813 -0.1935
 6099TIP3   OH218260   5.111   2.151   5.376  0.2647  0.2066 -0.8069
 6099TIP3    H118261   5.096   2.244   5.359 -0.6392 -0.0011 -1.1690
 6099TIP3    H218262   5.129   2.146   5.470  1.5883  0.8936 -0.9985
 6100TIP3   OH218263   5.117   6.591   4.604  0.6611  0.3093  0.1710
 6100TIP3    H118264   5.149   6.544   4.527  3.2280  0.8561  0.8069
 6100TIP3    H218265   5.117   6.683   4.577 -1.0756  0.2769 -0.0038
 6101TIP3   OH218266   1.054   2.779   5.806 -0.1407  0.5405 -0.3566
 6101TIP3    H118267   1.148   2.796   5.810  0.0332 -0.5433  2.2023
 6101TIP3    H218268   1.042   2.698   5.856 -2.4983  0.8590 -0.2856
 6102TIP3   OH218269   4.466   2.964   1.811 -0.5282  0.4985  0.4497
 6102TIP3    H118270   4.512   3.022   1.872 -0.9153  2.9673 -1.4485
 6102TIP3    H218271   4.435   3.022   1.741 -0.4657 -2.1166 -1.9110
 6103TIP3   OH218272   6.625   2.918   2.269 -0.3818 -0.0173  0.1563
 6103TIP3    H118273   6.613   2.939   2.176  0.2644 -1.3649 -0.2573
 6103TIP3    H218274   6.715   2.943   2.287  0.1654 -1.6313 -0.1539
 6104TIP3   OH218275   4.950   3.701   4.984  0.2616  0.5202  0.0208
 6104TIP3    H118276   5.043   3.686   4.969  0.2133  0.2083  0.0350
 6104TIP3    H218277   4.943   3.725   5.076  0.2163 -0.4045  0.2684
 6105TIP3   OH218278   0.580   5.113   5.724 -0.5154 -0.0734  0.5164
 6105TIP3    H118279   0.504   5.084   5.674  0.2093 -1.9718  0.4485
 6105TIP3    H218280   0.634   5.035   5.734  0.5139  0.7989  2.2282
 6106TIP3   OH218281   4.411   2.599   1.610  0.0949 -0.4490 -0.5902
 6106TIP3    H118282   4.490   2.599   1.664 -1.6812 -1.0237  2.2404
 6106TIP3    H218283   4.399   2.691   1.585  1.6401 -0.3627 -1.1436
 6107TIP3   OH218284   1.501   1.705   4.572  0.2179 -0.7231 -0.3868
 6107TIP3    H118285   1.504   1.624   4.522  0.6577  0.7257 -2.8578
 6107TIP3    H218286   1.409   1.731   4.570  0.0677 -1.1398  0.4511
 6108TIP3   OH218287   1.846   1.639   4.230 -0.2331  0.6214 -0.3110
 6108TIP3    H118288   1.769   1.630   4.286 -1.4520 -0.3062 -2.0663
 6108TIP3    H218289   1.920   1.624   4.289 -1.4795 -1.1395  0.9025
 6109TIP3   OH218290   0.052   6.219   3.742 -0.3428  0.0769 -0.5224
 6109TIP3    H118291   0.122   6.159   3.716 -1.3764 -1.2328 -0.3980
 6109TIP3    H218292   0.080   6.304   3.709  0.6354 -0.6735 -1.7274
 6110TIP3   OH218293   6.739   3.405   2.827  0.1286 -0.7784  0.3392
 6110TIP3    H118294   6.777   3.407   2.915  0.9785 -1.2341 -0.0034
 6110TIP3    H218295   6.753   3.493   2.793  0.7942 -0.9036  0.2649
 6111TIP3   OH218296   4.782   3.217   0.460  0.4652 -0.4508  0.5058
 6111TIP3    H118297   4.720   3.279   0.421  2.2862  0.7381 -0.6034
 6111TIP3    H218298   4.784   3.241   0.553 -1.0699 -0.8460  0.6780
 6112TIP3   OH218299   1.390   2.600   1.447  0.5962 -0.3537  0.4004
 6112TIP3    H118300   1.433   2.649   1.517  0.4141 -0.1569  0.3758
 6112TIP3    H218301   1.316   2.557   1.490 -0.9699  1.6735 -0.0883
 6113TIP3   OH218302   4.015   1.151   5.676 -0.1473  0.1981 -0.4634
 6113TIP3    H118303   4.078   1.090   5.638  0.8244  0.5441  0.5373
 6113TIP3    H218304   4.069   1.224   5.708 -1.0467  0.4824  0.4593
 6114TIP3   OH218305   1.057   0.960   0.437 -1.1552 -0.5656  0.1520
 6114TIP3    H118306   1.004   1.024   0.485 -1.0140  1.5596 -2.3221
 6114TIP3    H218307   1.016   0.955   0.351  1.8398  0.1739 -1.4387
 6115TIP3   OH218308   3.725   2.496   1.806  0.0281  0.3817 -0.6970
 6115TIP3    H118309   3.706   2.583   1.841  0.9550  0.2994  0.0360
 6115TIP3    H218310   3.810   2.472   1.843  0.6408 -0.0940 -2.3134
 6116TIP3   OH218311   6.666   2.066   0.367 -0.0287  0.0572 -0.2325
 6116TIP3    H118312   6.623   2.141   0.407  1.1736  1.1341 -0.9001
 6116TIP3    H218313   6.686   2.007   0.440 -1.5369  0.0720  0.2204
 6117TIP3   OH218314   5.538   3.138   1.934  0.2998 -0.3621 -0.0208
 6117TIP3    H118315   5.576   3.052   1.919 -0.6559 -0.8003 -0.0039
 6117TIP3    H218316   5.595   3.198   1.887  0.3007 -1.1354 -1.0432
 6118TIP3   OH218317   2.283   5.522   4.257 -0.5713  0.0885 -0.8208
 6118TIP3    H118318   2.216   5.541   4.191  0.6495  2.3976 -1.5349
 6118TIP3    H218319   2.340   5.600   4.256  2.8278 -2.1882 -1.0960
 6119TIP3   OH218320   3.412   4.051   1.751  0.1423 -0.4015 -0.5280
 6119TIP3    H118321   3.460   4.120   1.706 -0.7427  0.1302 -0.6673
 6119TIP3    H218322   3.408   4.080   1.842 -1.1551  0.2780 -0.7781
 6120TIP3   OH218323   6.511   2.913   1.082  0.1135 -0.4144  0.7041
 6120TIP3    H118324   6.570   2.988   1.080  0.3232 -0.4991  2.1954
 6120TIP3    H218325   6.561   2.844   1.126 -0.4041 -1.1327  0.1922
 6121TIP3   OH218326   0.755   6.331   2.374  0.0241  0.2721 -0.3149
 6121TIP3    H118327   0.778   6.250   2.419 -0.3705 -1.2169 -2.6326
 6121TIP3    H218328   0.666   6.316   2.341 -1.3093  2.8576  1.7364
 6122TIP3   OH218329   0.123   4.711   4.982  0.3962 -0.0149 -0.5684
 6122TIP3    H118330   0.153   4.636   5.034 -0.9288 -0.3170 -0.1879
 6122TIP3    H218331   0.030   4.694   4.967 -0.3212  2.2185  0.7468
 6123TIP3   OH218332   2.869   6.569   1.237 -0.2306  0.0002 -0.0440
 6123TIP3    H118333   2.836   6.619   1.162 -0.3980  1.3960  0.9280
 6123TIP3    H218334   2.844   6.621   1.313  2.2369 -0.0590  0.8677
 6124TIP3   OH218335   4.807   6.340   3.728  0.4366 -0.4722 -0.0886
 6124TIP3    H118336   4.838   6.321   3.816 -0.3013 -0.2437  0.2276
 6124TIP3    H218337   4.756   6.263   3.703 -1.4413  0.4644  0.6757
 6125TIP3   OH218338   6.426   2.756   5.135  0.0122  0.6932 -0.1302
 6125TIP3    H118339   6.363   2.773   5.065 -0.5267  0.7028  0.3504
 6125TIP3    H218340   6.509   2.793   5.102 -0.0782  0.1409 -1.0174
 6126TIP3   OH218341   2.429   4.304   5.684 -0.1199  0.1359 -0.5125
 6126TIP3    H118342   2.358   4.298   5.748  0.8543  0.3226  0.6326
 6126TIP3    H218343   2.445   4.214   5.658  0.5315 -0.1429  0.7523
 6127TIP3   OH218344   2.128   4.044   3.810 -0.1640  0.2067 -0.4641
 6127TIP3    H118345   2.119   3.961   3.858 -0.1566  0.7201  0.4418
 6127TIP3    H218346   2.088   4.026   3.725 -0.5885 -0.5890 -0.1157
 6128TIP3   OH218347   2.143   5.300   4.848  0.1580  0.1638 -0.6725
 6128TIP3    H118348   2.234   5.288   4.824 -0.2561 -1.1389 -1.7277
 6128TIP3    H218349   2.135   5.393   4.868  1.9949  0.0492  0.7790
 6129TIP3   OH218350   6.419   0.556   4.146  0.3983 -0.4762  0.5183
 6129TIP3    H118351   6.456   0.497   4.212  1.3605 -1.1421 -0.5817
 6129TIP3    H218352   6.496   0.600   4.109 -0.0234 -0.9199 -0.9088
 6130TIP3   OH218353   2.553   3.743   4.428 -0.5042 -0.1899 -0.3117
 6130TIP3    H118354   2.518   3.758   4.516 -3.9872 -1.8081 -1.2319
 6130TIP3    H218355   2.585   3.829   4.400 -0.4760  0.6413  2.0073
 6131TIP3   OH218356   4.450   1.861   4.736  0.1320 -0.2938  0.1633
 6131TIP3    H118357   4.410   1.808   4.804 -0.7341  1.0276  0.7172
 6131TIP3    H218358   4.377   1.910   4.697  0.8563  0.3106 -0.4808
 6132TIP3   OH218359   2.019  -0.024   2.065 -0.6178 -0.0484  0.3188
 6132TIP3    H118360   1.977   0.051   2.024 -2.4331 -0.8941  0.5429
 6132TIP3    H218361   2.110   0.003   2.077 -1.0451  1.8038 -0.3221
 6133TIP3   OH218362   2.300   6.413   2.264  0.3330  0.6315 -0.6781
 6133TIP3    H118363   2.325   6.407   2.171 -0.4412 -1.2029 -0.7985
 6133TIP3    H218364   2.210   6.444   2.262  0.5260  1.2119 -0.4995
 6134TIP3   OH218365   6.916   6.325   3.426 -0.5099  0.2075 -0.4645
 6134TIP3    H118366   6.849   6.359   3.486 -2.3396 -0.7851 -1.8123
 6134TIP3    H218367   6.970   6.268   3.481 -1.2825  0.3823  0.5144
 6135TIP3   OH218368   3.975   5.298   1.881 -0.1881  0.0615  0.0090
 6135TIP3    H118369   3.974   5.204   1.864  1.0620  0.2594 -1.3741
 6135TIP3    H218370   4.024   5.307   1.962  0.6319 -0.4369 -0.4132
 6136TIP3   OH218371   3.380   1.343   4.185 -0.1432 -0.3349 -0.2032
 6136TIP3    H118372   3.394   1.430   4.149 -1.8192  1.0158  2.0867
 6136TIP3    H218373   3.298   1.351   4.234  1.0540 -2.3924  2.3683
 6137TIP3   OH218374   0.916   1.922   5.436 -0.2058 -0.3956 -0.3111
 6137TIP3    H118375   0.857   1.962   5.500  1.3319  0.6694  0.5065
 6137TIP3    H218376   0.858   1.890   5.367 -1.6890  1.1365  0.1569
 6138TIP3   OH218377   1.912   2.658   1.268  0.1267  0.1835  0.3802
 6138TIP3    H118378   2.002   2.692   1.269 -0.1226  0.8576  0.3991
 6138TIP3    H218379   1.896   2.635   1.177 -0.2081  1.5294  0.0727
 6139TIP3   OH218380   2.947   2.975   0.291  0.2990 -0.4792  0.2598
 6139TIP3    H118381   2.955   2.881   0.304  0.3344 -0.5894 -0.5233
 6139TIP3    H218382   3.006   3.013   0.356  0.5081 -1.0027  0.3851
 6140TIP3   OH218383   1.706   5.339   3.860 -0.5431 -0.9405 -0.6156
 6140TIP3    H118384   1.709   5.244   3.850 -1.3239 -0.8713 -1.7464
 6140TIP3    H218385   1.718   5.373   3.771  0.1942  0.0348 -0.1602
 6141TIP3   OH218386   5.938   3.809   3.299 -0.6335  0.1332  0.8221
 6141TIP3    H118387   6.024   3.770   3.284 -0.5481  0.8638 -0.8212
 6141TIP3    H218388   5.953   3.903   3.295 -1.3514  0.2876  1.5540
 6142TIP3   OH218389   1.716   5.919   4.113 -0.5824 -0.6105 -0.2234
 6142TIP3    H118390   1.754   5.961   4.190 -1.7556 -0.2705  0.1875
 6142TIP3    H218391   1.710   5.826   4.137 -0.1599 -0.6502 -0.2491
 6143TIP3   OH218392   1.531   1.693   1.304 -0.1590  0.5417 -0.2617
 6143TIP3    H118393   1.479   1.759   1.257 -0.4814  1.7856  1.6765
 6143TIP3    H218394   1.618   1.698   1.265 -0.4127  1.5332 -0.7322
 6144TIP3   OH218395   4.104   3.517   3.312 -0.7971 -0.0192  0.4773
 6144TIP3    H118396   4.095   3.425   3.337 -0.8776  0.2348  1.4063
 6144TIP3    H218397   4.026   3.535   3.260 -0.5452 -0.5997 -0.1207
 6145TIP3   OH218398   1.120   4.346   1.480  0.3460  0.3882 -0.5964
 6145TIP3    H118399   1.068   4.426   1.482  1.4862  1.1575  1.8138
 6145TIP3    H218400   1.194   4.367   1.423  0.4803  0.9420 -0.2219
 6146TIP3   OH218401   6.062   6.269   5.739  0.0969 -0.4205 -0.8062
 6146TIP3    H118402   6.042   6.176   5.731 -0.8769 -0.3017 -0.0237
 6146TIP3    H218403   5.978   6.313   5.730 -0.0314  0.1466  1.9933
 6147TIP3   OH218404   0.194   0.445   0.849 -0.0694 -0.1515  0.0267
 6147TIP3    H118405   0.215   0.429   0.941 -0.3475  1.4446  0.3943
 6147TIP3    H218406   0.279   0.446   0.805  0.1555  0.1556  0.4567
 6148TIP3   OH218407   6.593   3.545   2.466  0.0654 -0.2871 -0.4545
 6148TIP3    H118408   6.675   3.509   2.432 -1.1219 -1.8025 -1.8784
 6148TIP3    H218409   6.570   3.615   2.405  0.0262 -0.2130 -0.3553
 6149TIP3   OH218410   6.558   2.361   1.724  0.5324 -0.3670 -1.0938
 6149TIP3    H118411   6.537   2.391   1.636  0.4166  0.4755 -0.7870
 6149TIP3    H218412   6.611   2.282   1.711  0.3466 -0.3618 -1.9084
 6150TIP3   OH218413   2.923   0.624   3.234  0.5008  0.1179 -0.2648
 6150TIP3    H118414   2.961   0.598   3.318  0.9566 -2.3882 -1.1453
 6150TIP3    H218415   2.997   0.660   3.185  0.7928 -0.6469 -0.4072
 6151TIP3   OH218416   7.083   5.250   0.148 -0.7829  0.8614 -0.1461
 6151TIP3    H118417   7.137   5.205   0.083 -1.0585 -0.1230  0.2849
 6151TIP3    H218418   7.145   5.276   0.216 -0.8483 -0.4599  0.4523
 6152TIP3   OH218419   1.533   0.733   0.499 -0.2567 -0.1472  0.3281
 6152TIP3    H118420   1.519   0.790   0.423 -1.3599 -3.0643 -1.8505
 6152TIP3    H218421   1.446   0.702   0.523  0.2653 -0.7330  1.5589
 6153TIP3   OH218422   2.907   1.099   3.641 -0.1129  0.0711  0.1158
 6153TIP3    H118423   2.825   1.050   3.636  0.5150 -1.0209  0.1774
 6153TIP3    H218424   2.970   1.044   3.594  0.4670  1.1458 -0.3983
 6154TIP3   OH218425   3.366   5.187   3.534  0.3811 -0.3766 -0.4744
 6154TIP3    H118426   3.283   5.231   3.516  0.4357 -0.2283 -0.3696
 6154TIP3    H218427   3.362   5.106   3.483 -0.0824 -0.6630  0.0102
 6155TIP3   OH218428   2.310   2.554   0.765  0.0539 -0.0482  0.3048
 6155TIP3    H118429   2.222   2.537   0.731  0.0165  0.3168  0.2194
 6155TIP3    H218430   2.330   2.477   0.819 -0.3646 -0.0738  0.4257
 6156TIP3   OH218431   6.093   1.183   0.890  0.2390  0.1082 -0.1251
 6156TIP3    H118432   6.014   1.232   0.912  0.7936  1.3201 -0.7731
 6156TIP3    H218433   6.110   1.204   0.798  1.1741 -0.3354 -0.0714
 6157TIP3   OH218434   0.884   1.813   5.866  0.2969 -0.3311  0.0538
 6157TIP3    H118435   0.860   1.882   5.803 -0.4635 -0.7043 -0.0819
 6157TIP3    H218436   0.815   1.747   5.856 -0.7238  0.2863  2.3645
 6158TIP3   OH218437   3.663   4.109   0.391 -0.2462  0.3245  0.2007
 6158TIP3    H118438   3.724   4.105   0.464 -0.1991  0.1334  0.1528
 6158TIP3    H218439   3.639   4.017   0.375 -1.8474  0.5025  1.3132
 6159TIP3   OH218440   2.808   1.491   3.154 -0.2428 -0.5083 -0.0094
 6159TIP3    H118441   2.766   1.417   3.197  0.7478  0.0937  2.1092
 6159TIP3    H218442   2.744   1.562   3.159 -0.6151 -0.7862 -0.6999
 6160TIP3   OH218443   0.543   0.911   2.409 -0.3458 -0.4162 -0.2171
 6160TIP3    H118444   0.608   0.849   2.442  0.6563 -0.1276 -1.5778
 6160TIP3    H218445   0.477   0.858   2.366 -1.7898 -0.8241  2.2750
 6161TIP3   OH218446   4.297   0.082   3.397  0.2629 -0.1824  0.2216
 6161TIP3    H118447   4.278   0.081   3.490  0.8882 -1.7350  0.3540
 6161TIP3    H218448   4.226   0.030   3.357 -0.9540  1.8405 -0.4059
 6162TIP3   OH218449   6.993   2.065   2.956  0.3411  0.0384 -0.7663
 6162TIP3    H118450   7.084   2.082   2.983  0.3164 -0.8128 -0.0869
 6162TIP3    H218451   6.989   2.095   2.865  1.5179 -0.6137 -1.0547
 6163TIP3   OH218452   5.801   0.423   5.436 -0.6240 -0.0094  0.0261
 6163TIP3    H118453   5.894   0.403   5.434 -0.7681 -1.0666  1.9210
 6163TIP3    H218454   5.782   0.457   5.348  1.5158  0.2054 -0.3988
 6164TIP3   OH218455   1.531   3.797   2.125 -0.4362 -0.1614 -0.2019
 6164TIP3    H118456   1.485   3.802   2.209  1.4723 -0.7558  0.9435
 6164TIP3    H218457   1.613   3.843   2.140 -0.1343 -0.1282 -1.8135
 6165TIP3   OH218458   6.313   5.415   2.050  0.6152 -0.2520  0.0272
 6165TIP3    H118459   6.333   5.326   2.079  0.5340 -0.3082 -0.0880
 6165TIP3    H218460   6.239   5.442   2.104  0.1541 -0.5343 -0.4526
 6166TIP3   OH218461   3.910   0.809   3.493 -0.6387 -0.4200  0.3766
 6166TIP3    H118462   3.910   0.866   3.416 -0.6769  0.5382  1.0677
 6166TIP3    H218463   3.939   0.724   3.460  1.5018  0.5160 -0.3292
 6167TIP3   OH218464   6.358   0.269   5.213 -0.8972 -0.3312  0.0974
 6167TIP3    H118465   6.446   0.283   5.179 -0.2958 -2.0128  0.8588
 6167TIP3    H218466   6.317   0.356   5.210  0.5928  0.3798 -0.7553
 6168TIP3   OH218467   5.488   5.141   2.075  0.2788 -0.2259  0.2079
 6168TIP3    H118468   5.399   5.150   2.108  0.0789 -1.0975 -0.0816
 6168TIP3    H218469   5.497   5.211   2.010 -0.1446 -0.0447  0.3425
 6169TIP3   OH218470   0.488   6.324   2.339 -0.8525  0.1210  0.0960
 6169TIP3    H118471   0.431   6.249   2.356 -0.6741  0.1557  0.9202
 6169TIP3    H218472   0.443   6.375   2.272 -0.8597 -0.8457 -0.6409
 6170TIP3   OH218473   2.883   4.147   1.361  0.5547  0.2745 -0.2949
 6170TIP3    H118474   2.788   4.137   1.358  0.1323  2.5323  2.1901
 6170TIP3    H218475   2.901   4.231   1.320  1.1595  1.0744  1.5168
 6171TIP3   OH218476   0.210   5.972   5.001  0.2622 -0.1503  0.2813
 6171TIP3    H118477   0.178   6.032   5.069 -0.3819 -3.5688  3.3217
 6171TIP3    H218478   0.141   5.907   4.993  2.1014 -2.1008 -0.6475
 6172TIP3   OH218479   5.735   6.209   3.313 -0.0597 -0.2926 -0.2680
 6172TIP3    H118480   5.805   6.214   3.378 -0.3568 -0.0268  0.0387
 6172TIP3    H218481   5.774   6.163   3.239  1.5696  2.7793 -1.5468
 6173TIP3   OH218482   4.718   0.018   4.938  0.6264  0.3771  0.1398
 6173TIP3    H118483   4.755   0.041   4.853  2.3254 -0.7650  0.5171
 6173TIP3    H218484   4.739   0.092   4.995  0.7539  0.5160 -0.0879
 6174TIP3   OH218485   1.107   0.342   2.354  0.4311  0.1038  0.1571
 6174TIP3    H118486   1.032   0.384   2.313 -0.0759  0.6738  1.6042
 6174TIP3    H218487   1.178   0.351   2.291 -0.5031  0.2697 -0.8940
 6175TIP3   OH218488   5.720   6.711   1.016 -0.3216 -0.2855  0.1228
 6175TIP3    H118489   5.641   6.717   0.963  0.3005 -0.5045 -0.8464
 6175TIP3    H218490   5.789   6.752   0.963  0.5242 -1.3795  0.3195
 6176TIP3   OH218491   3.292   5.886   3.146  0.4422 -0.6383 -0.1296
 6176TIP3    H118492   3.356   5.870   3.077 -0.2704 -0.7341 -0.7795
 6176TIP3    H218493   3.215   5.835   3.120  0.3767 -1.1799  1.0561
 6177TIP3   OH218494   5.038   4.695   3.510 -0.3810 -0.1510  0.2752
 6177TIP3    H118495   5.117   4.720   3.462  0.1157  1.1650  1.6916
 6177TIP3    H218496   5.069   4.631   3.574 -0.5448 -0.0123  0.4945
 6178TIP3   OH218497   3.270   0.406   0.431 -0.0547 -0.0245 -0.2248
 6178TIP3    H118498   3.303   0.321   0.401 -0.1680  0.0512 -0.5791
 6178TIP3    H218499   3.192   0.421   0.377 -0.9501 -0.4254  0.9348
 6179TIP3   OH218500   1.981   2.083   1.514 -0.0297 -0.9274 -0.5485
 6179TIP3    H118501   1.952   2.165   1.475 -0.1362 -1.0440 -0.7161
 6179TIP3    H218502   2.058   2.106   1.566  0.9324 -0.9870 -1.9083
 6180TIP3   OH218503   6.828   6.808   1.642 -0.0230  0.3951 -0.1861
 6180TIP3    H118504   6.817   6.786   1.550  0.9164  0.3447 -0.3006
 6180TIP3    H218505   6.797   6.730   1.689 -1.1534  0.6929 -0.4282
 6181TIP3   OH218506   3.203   5.384   3.727 -0.1916 -0.4084 -1.0212
 6181TIP3    H118507   3.295   5.382   3.752 -0.3375 -0.7021 -0.5075
 6181TIP3    H218508   3.176   5.292   3.724 -0.6477 -0.3003 -0.4896
 6182TIP3   OH218509   1.516   5.379   5.790 -0.0614 -0.0047 -0.2677
 6182TIP3    H118510   1.471   5.454   5.751  1.3737  1.4685  0.7940
 6182TIP3    H218511   1.564   5.339   5.717  0.7437  1.3180 -0.4957
 6183TIP3   OH218512   3.135   2.478   0.856 -0.0857 -0.2503 -0.0843
 6183TIP3    H118513   3.222   2.487   0.895  0.0693 -0.9256 -0.2518
 6183TIP3    H218514   3.076   2.522   0.917  0.4940  1.1316 -0.4938
 6184TIP3   OH218515   3.786   6.161   0.748 -0.2519 -0.4743  0.7068
 6184TIP3    H118516   3.736   6.095   0.797 -0.7070 -0.2464  0.5571
 6184TIP3    H218517   3.807   6.118   0.666 -1.5062 -0.0773  0.1463
 6185TIP3   OH218518   3.651   5.212   0.864  0.3342  0.4720 -0.1478
 6185TIP3    H118519   3.631   5.145   0.798  0.3667 -2.3200  2.4692
 6185TIP3    H218520   3.716   5.171   0.921 -1.4736  1.7358  3.0403
 6186TIP3   OH218521   4.572   3.084   5.424 -0.0999  0.0686  0.2690
 6186TIP3    H118522   4.627   3.161   5.440 -0.5269  0.2124  1.1435
 6186TIP3    H218523   4.493   3.100   5.476 -1.1284  0.0220 -1.2304
 6187TIP3   OH218524   6.160   2.691   1.419  0.4697  0.1768  0.1070
 6187TIP3    H118525   6.108   2.626   1.465 -1.3076  1.2701 -0.2572
 6187TIP3    H218526   6.096   2.746   1.374  1.9916  1.0635 -1.0920
 6188TIP3   OH218527   4.745   6.333   1.934  0.2065 -0.1583 -0.6629
 6188TIP3    H118528   4.654   6.338   1.963  0.7808 -1.7190  1.6394
 6188TIP3    H218529   4.744   6.267   1.865 -0.0635 -2.3098  1.2766
 6189TIP3   OH218530   6.330   0.436   5.916 -0.0828 -0.0219  0.5792
 6189TIP3    H118531   6.359   0.517   5.874  0.7313 -0.9294 -0.6638
 6189TIP3    H218532   6.354   0.367   5.855 -0.0980 -1.2858  1.9417
 6190TIP3   OH218533   0.895   0.045   4.224 -0.5514 -0.2788  0.4802
 6190TIP3    H118534   0.890   0.136   4.253 -0.7714  0.2899 -1.1955
 6190TIP3    H218535   0.897  -0.007   4.304 -0.2516  1.2125  1.4689
 6191TIP3   OH218536   5.817   0.966   0.297 -0.5517  0.2811 -0.0340
 6191TIP3    H118537   5.810   0.871   0.295  0.9103  0.1070  1.5498
 6191TIP3    H218538   5.774   0.992   0.378  1.5022  0.6613  1.0115
 6192TIP3   OH218539   4.164   2.344   2.895 -0.5114  0.1641  0.1798
 6192TIP3    H118540   4.188   2.348   2.802 -0.8224 -0.9959  0.0258
 6192TIP3    H218541   4.247   2.325   2.940 -0.1761  1.7425  0.2646
 6193TIP3   OH218542   5.364   5.256   3.771  0.7097 -0.7865 -0.0618
 6193TIP3    H118543   5.275   5.249   3.735  0.4142  0.1075  0.4670
 6193TIP3    H218544   5.368   5.189   3.839  0.1092 -0.2319  0.5413
 6194TIP3   OH218545   4.108   6.043   2.779  0.4017  0.0393  0.2338
 6194TIP3    H118546   4.058   5.963   2.792 -0.0585  0.5166  1.5479
 6194TIP3    H218547   4.052   6.098   2.724  0.2547 -0.1391  0.2065
 6195TIP3   OH218548   4.595   1.483   0.452  0.3806 -0.6881  0.0768
 6195TIP3    H118549   4.606   1.502   0.359 -0.8964 -2.0205 -0.3964
 6195TIP3    H218550   4.652   1.545   0.496  0.3542  0.5671 -1.5486
 6196TIP3   OH218551   4.618   1.585   0.196 -0.3091 -0.4217 -0.1529
 6196TIP3    H118552   4.648   1.676   0.203 -0.0657 -0.4907 -0.3067
 6196TIP3    H218553   4.591   1.575   0.105 -1.6556 -0.0970  0.1985
 6197TIP3   OH218554   1.910   6.246   1.812  0.1873 -0.1647  0.3738
 6197TIP3    H118555   1.838   6.273   1.869  0.9815  0.0799  1.3087
 6197TIP3    H218556   1.952   6.174   1.860 -1.0131 -2.1552 -1.3877
 6198TIP3   OH218557   7.135   6.576   5.451 -0.1977  0.4215  0.7325
 6198TIP3    H118558   7.047   6.595   5.482 -0.9461 -0.6570 -0.6171
 6198TIP3    H218559   7.177   6.528   5.523 -1.5226 -1.1145  0.5233
 6199TIP3   OH218560   4.673   1.003   4.502 -0.4815  0.0237  0.2796
 6199TIP3    H118561   4.652   1.081   4.554  0.1411 -0.4064  1.2050
 6199TIP3    H218562   4.637   0.930   4.554  0.8975 -0.4885  0.5516
 6200TIP3   OH218563   6.114   4.255   1.989 -0.2410 -0.3525  0.0859
 6200TIP3    H118564   6.074   4.336   1.957 -0.0694 -0.0025  0.7402
 6200TIP3    H218565   6.041   4.207   2.030 -0.2774 -0.3747 -0.0058
 6201TIP3   OH218566   1.494   3.371   4.660  0.0991 -0.1631 -0.1416
 6201TIP3    H118567   1.403   3.375   4.632 -0.3901  0.4770  1.4428
 6201TIP3    H218568   1.518   3.279   4.651  0.2833  0.0861 -3.4036
 6202TIP3   OH218569   2.611   4.142   4.008  0.0982  0.3065  0.1477
 6202TIP3    H118570   2.694   4.110   4.042  0.0628  0.5096  0.4229
 6202TIP3    H218571   2.620   4.237   4.005 -0.7377  0.4802  1.8372
 6203TIP3   OH218572   3.129   6.802   3.370  0.1665 -0.0850 -0.6492
 6203TIP3    H118573   3.193   6.834   3.433 -0.1038 -1.5237  0.4156
 6203TIP3    H218574   3.119   6.709   3.391 -2.3896  0.1134 -0.6545
 6204TIP3   OH218575   5.732   4.201   2.463 -0.8271  0.2257  0.6945
 6204TIP3    H118576   5.766   4.251   2.537 -0.4930  0.9909  0.0355
 6204TIP3    H218577   5.793   4.218   2.391  0.2073 -2.3939  0.8494
 6205TIP3   OH218578   4.505   3.639   1.384 -0.3665  0.1205  0.3533
 6205TIP3    H118579   4.466   3.556   1.410  1.0811 -1.5900 -2.4366
 6205TIP3    H218580   4.599   3.621   1.379  0.2454  2.5087  1.4783
 6206TIP3   OH218581   0.130   4.640   0.279 -0.0716  0.7627 -0.1147
 6206TIP3    H118582   0.206   4.683   0.318  0.6156 -0.0457 -0.5451
 6206TIP3    H218583   0.078   4.611   0.354  1.2063 -0.7222  0.2355
 6207TIP3   OH218584   0.714   6.634   1.617  0.4722 -0.2610 -0.3165
 6207TIP3    H118585   0.747   6.584   1.543  2.0762  1.1868 -0.6431
 6207TIP3    H218586   0.754   6.594   1.694 -0.4936 -1.2034 -0.2754
 6208TIP3   OH218587   0.552   2.286   1.496 -0.0978  0.0186 -0.0680
 6208TIP3    H118588   0.506   2.287   1.412  0.2017  0.2511 -0.2300
 6208TIP3    H218589   0.488   2.250   1.558 -1.3294  2.3802  0.1520
 6209TIP3   OH218590   6.130   1.989   0.506 -0.4079 -0.1732  0.5349
 6209TIP3    H118591   6.038   1.984   0.530 -0.9021  1.8542 -0.6895
 6209TIP3    H218592   6.137   2.070   0.455  2.6076  1.4496  3.1397
 6210TIP3   OH218593   6.598   2.281   1.109 -0.4340  0.3087 -0.2596
 6210TIP3    H118594   6.518   2.316   1.149 -0.1810 -0.0284  0.5753
 6210TIP3    H218595   6.593   2.186   1.123  0.4871  0.3560  0.5571
 6211TIP3   OH218596   1.593   5.819   2.231  0.0399  0.5792 -0.3044
 6211TIP3    H118597   1.538   5.863   2.297  1.0662  0.8153  0.4279
 6211TIP3    H218598   1.571   5.727   2.240  0.4467  0.5590  0.6708
 6212TIP3   OH218599   3.258   6.693   0.748 -0.5302 -0.4417  0.5658
 6212TIP3    H118600   3.328   6.656   0.802  1.9741  1.2369 -1.3041
 6212TIP3    H218601   3.260   6.787   0.767 -0.9765 -0.1081 -0.9026
 6213TIP3   OH218602   2.513   6.799   5.170 -0.1727  0.0048  0.4421
 6213TIP3    H118603   2.551   6.778   5.085  1.3328  0.4323  0.9875
 6213TIP3    H218604   2.560   6.744   5.232  0.2528  1.2487  1.2594
 6214TIP3   OH218605   3.435   1.619   1.327  0.0621 -0.3321  0.4500
 6214TIP3    H118606   3.407   1.636   1.237 -2.0214  1.5437  1.3613
 6214TIP3    H218607   3.404   1.531   1.345 -0.3982 -0.3455 -0.3483
 6215TIP3   OH218608   2.190   0.022   2.305 -0.6047  0.2170 -0.4146
 6215TIP3    H118609   2.248  -0.003   2.377 -0.3742  2.3141  0.1898
 6215TIP3    H218610   2.102   0.017   2.342 -0.4440  2.1105  0.3703
 6216TIP3   OH218611   3.612   6.295   4.609  0.4160 -0.0557  0.6690
 6216TIP3    H118612   3.666   6.231   4.562 -1.2067 -0.5531 -0.6022
 6216TIP3    H218613   3.565   6.244   4.674 -1.7576 -0.4841 -1.0963
 6217TIP3   OH218614   0.370   6.054   1.351  0.0685  0.0642 -0.0032
 6217TIP3    H118615   0.349   5.979   1.407  1.3539 -0.2629  0.0659
 6217TIP3    H218616   0.454   6.032   1.312  0.5514  1.5597  0.1466
 6218TIP3   OH218617   3.711   1.666   0.473 -0.3258 -0.2186 -0.0444
 6218TIP3    H118618   3.647   1.702   0.411 -0.0582 -0.3917 -0.4250
 6218TIP3    H218619   3.690   1.708   0.556 -0.5919  0.1322 -0.2868
 6219TIP3   OH218620   2.579   1.753   0.332  0.7997 -0.5643  0.1722
 6219TIP3    H118621   2.517   1.791   0.395  0.6392 -0.3698 -0.0996
 6219TIP3    H218622   2.583   1.660   0.354  0.0526 -0.6648 -0.1057
 6220TIP3   OH218623   6.558   4.488   3.210  0.1747 -0.1798 -0.3813
 6220TIP3    H118624   6.618   4.507   3.138 -0.3998  0.1283 -0.7867
 6220TIP3    H218625   6.476   4.461   3.167  0.5408 -2.3028  0.1658
 6221TIP3   OH218626   0.873   3.345   1.275 -0.1837  0.4523 -0.0006
 6221TIP3    H118627   0.805   3.296   1.229  0.9701 -2.5427  1.2659
 6221TIP3    H218628   0.896   3.290   1.350  2.7897  1.9215  0.2899
 6222TIP3   OH218629   5.325   4.181   2.604 -0.3057 -0.1160 -0.6083
 6222TIP3    H118630   5.233   4.207   2.612  0.0053  0.8236  0.1717
 6222TIP3    H218631   5.328   4.124   2.527 -1.6942 -0.8901 -0.1240
 6223TIP3   OH218632   6.698   2.082   0.698 -0.2131 -0.5250 -0.2539
 6223TIP3    H118633   6.616   2.110   0.656  1.2953  0.1091 -3.0094
 6223TIP3    H218634   6.742   2.164   0.719 -0.0263 -0.8652  0.6824
 6224TIP3   OH218635   2.747   6.576   4.705 -0.0723 -0.5638 -0.5412
 6224TIP3    H118636   2.754   6.485   4.676 -0.8122 -1.4014  1.7168
 6224TIP3    H218637   2.824   6.619   4.668  1.2692 -2.5397 -0.1787
 6225TIP3   OH218638   4.322   3.300   4.744  0.7753  0.5183  0.0943
 6225TIP3    H118639   4.393   3.325   4.686  1.8182  1.2362  1.6243
 6225TIP3    H218640   4.267   3.379   4.749  1.5521  1.0131  1.2829
 6226TIP3   OH218641   2.055   4.719   4.910  0.2645  0.1671  0.1520
 6226TIP3    H118642   2.118   4.775   4.865  0.8918 -0.2290  0.5101
 6226TIP3    H218643   2.054   4.752   5.000  0.8483 -0.5516  0.4361
 6227TIP3   OH218644   7.016   2.066   1.510 -0.7350  0.0405  0.1125
 6227TIP3    H118645   7.034   1.994   1.570  0.7362  0.2420 -0.0387
 6227TIP3    H218646   7.099   2.079   1.463 -1.0937  1.5612 -0.1488
 6228TIP3   OH218647   1.560   5.014   0.184  0.0652  0.2731  0.7657
 6228TIP3    H118648   1.552   4.953   0.110 -1.5144  2.3794 -0.9649
 6228TIP3    H218649   1.649   5.047   0.178  0.1374 -0.0098  0.1350
 6229TIP3   OH218650   2.888   3.718   4.965  0.4310 -0.7791  0.4676
 6229TIP3    H118651   2.851   3.802   4.992 -1.2290 -0.5011 -2.3223
 6229TIP3    H218652   2.983   3.730   4.975  0.1402  0.8156  1.7051
 6230TIP3   OH218653   3.343   2.449   0.517 -0.5130 -0.3937  0.6215
 6230TIP3    H118654   3.300   2.525   0.556  0.0600 -0.8263  2.1372
 6230TIP3    H218655   3.272   2.404   0.471 -0.7574  1.3281 -0.8136
 6231TIP3   OH218656   2.633   2.583   5.653 -0.3604  0.0948 -0.1242
 6231TIP3    H118657   2.553   2.575   5.601 -1.2759  2.3240  0.7681
 6231TIP3    H218658   2.626   2.515   5.720  0.1497 -1.8691 -1.9757
 6232TIP3   OH218659   2.572   1.037   5.711  0.1702  0.2327  0.3621
 6232TIP3    H118660   2.660   1.000   5.710  0.0036 -0.1863  0.8393
 6232TIP3    H218661   2.570   1.098   5.637  0.8569  0.2395  0.3508
 6233TIP3   OH218662   2.118   6.689   3.733 -0.1629  0.0332 -0.0735
 6233TIP3    H118663   2.123   6.719   3.824 -1.0013  1.5389 -0.4873
 6233TIP3    H218664   2.203   6.714   3.696  0.4202 -1.1330  0.4259
 6234TIP3   OH218665   4.537   1.058   2.484 -0.7119 -0.1936 -0.2355
 6234TIP3    H118666   4.608   0.995   2.470 -1.7238 -1.2224 -0.9324
 6234TIP3    H218667   4.581   1.141   2.502  0.6712 -0.6901 -1.1827
 6235TIP3   OH218668   7.182   1.126   0.993 -0.2063 -0.0178  0.7152
 6235TIP3    H118669   7.104   1.168   1.029 -1.0388 -0.6086 -0.3411
 6235TIP3    H218670   7.163   1.115   0.900  0.4967 -1.5476  0.7133
 6236TIP3   OH218671   3.220   0.290   1.213  0.6552 -0.2030 -0.2847
 6236TIP3    H118672   3.282   0.285   1.140  0.0175 -0.4731 -0.8211
 6236TIP3    H218673   3.267   0.252   1.287  0.6976 -1.6024 -0.9985
 6237TIP3   OH218674   4.614   4.495   3.234  0.3984 -0.0298 -0.0628
 6237TIP3    H118675   4.660   4.450   3.304  1.5048  0.5570 -0.3987
 6237TIP3    H218676   4.651   4.583   3.233 -1.9816  1.0672  0.8353
 6238TIP3   OH218677   2.917   4.880   4.342  0.2782  0.0832 -0.1694
 6238TIP3    H118678   2.883   4.908   4.257  0.2509 -1.1435 -0.5939
 6238TIP3    H218679   2.996   4.830   4.320 -0.0218 -0.6999  0.4664
 6239TIP3   OH218680   4.267   0.125   4.782  0.6558  0.1611  0.3012
 6239TIP3    H118681   4.303   0.171   4.706 -0.6728 -1.2161 -1.2609
 6239TIP3    H218682   4.339   0.071   4.815  0.8337 -0.4759 -1.0600
 6240TIP3   OH218683   5.698   6.567   4.679 -0.3179  0.0862 -0.0565
 6240TIP3    H118684   5.784   6.603   4.700 -0.0199  1.0276 -2.5217
 6240TIP3    H218685   5.679   6.507   4.751  1.9959  0.4995  1.0054
 6241TIP3   OH218686   1.766   4.324   3.711  0.3975 -0.5922  0.2204
 6241TIP3    H118687   1.733   4.275   3.635  0.7307 -1.2836  0.5118
 6241TIP3    H218688   1.742   4.415   3.693  1.4658 -0.5524 -1.2877
 6242TIP3   OH218689   4.834   2.287   4.465 -0.0130 -0.2870  0.6724
 6242TIP3    H118690   4.741   2.262   4.466  0.3352 -1.6457  0.0610
 6242TIP3    H218691   4.867   2.258   4.550  0.0946 -0.8124  0.4579
 6243TIP3   OH218692   4.832   0.730   4.936 -0.0643 -0.2237 -0.0390
 6243TIP3    H118693   4.845   0.774   4.851  0.6233 -1.7943 -0.7900
 6243TIP3    H218694   4.862   0.794   5.001 -1.4043  1.3525 -0.8855
 6244TIP3   OH218695   3.126   0.436   5.112  1.2790  0.1150 -0.7969
 6244TIP3    H118696   3.166   0.514   5.152  0.2884  0.4235 -0.3721
 6244TIP3    H218697   3.079   0.470   5.036  0.5390 -0.0080 -0.4003
 6245TIP3   OH218698   4.882   3.324   5.208  0.2681 -0.7890 -0.2049
 6245TIP3    H118699   4.858   3.410   5.244 -0.1248 -0.9850  0.0022
 6245TIP3    H218700   4.874   3.264   5.282  0.0142 -1.0969 -0.4817
 6246TIP3   OH218701   0.379   3.926   5.287 -0.0687  0.0232  0.0678
 6246TIP3    H118702   0.296   3.880   5.274  0.2876 -0.9553  1.0322
 6246TIP3    H218703   0.354   4.012   5.321 -0.6935 -0.1586  0.0742
 6247TIP3   OH218704   5.723   5.788   3.798 -0.2469  0.3087 -0.2483
 6247TIP3    H118705   5.656   5.855   3.808 -1.3023 -1.0440  3.0907
 6247TIP3    H218706   5.682   5.719   3.746 -0.5078  0.5950 -0.4210
 6248TIP3   OH218707   5.837   4.439   0.521  0.1814 -0.3038  0.3367
 6248TIP3    H118708   5.902   4.464   0.586 -0.1498 -0.1191  0.6005
 6248TIP3    H218709   5.820   4.520   0.472  1.2444 -0.6838 -0.7225
 6249TIP3   OH218710   6.114   4.560   3.663  0.0018  0.3407 -0.5654
 6249TIP3    H118711   6.110   4.506   3.583 -1.7517 -0.9086  0.3160
 6249TIP3    H218712   6.187   4.522   3.713  0.3213  0.3478 -1.0141
 6250TIP3   OH218713   0.352   5.265   3.855  0.3099 -0.5558  0.1381
 6250TIP3    H118714   0.340   5.281   3.761 -0.8714  2.1349  0.6584
 6250TIP3    H218715   0.280   5.207   3.879 -0.8546  0.7224 -0.1902
 6251TIP3   OH218716   2.853   5.077   4.527  0.0121  0.5733 -0.0248
 6251TIP3    H118717   2.850   5.006   4.464 -0.1406  0.7278 -0.1896
 6251TIP3    H218718   2.796   5.048   4.599  0.9879 -0.0631  0.5247
 6252TIP3   OH218719   1.778   1.097   2.359 -0.4184 -0.4278  0.3198
 6252TIP3    H118720   1.841   1.028   2.340  0.4249  0.5403 -0.5188
 6252TIP3    H218721   1.814   1.175   2.317 -1.2153  0.5966  1.4567
 6253TIP3   OH218722   0.133   6.626   2.716 -0.4609  0.4534 -0.1111
 6253TIP3    H118723   0.164   6.565   2.783 -1.7272  1.0562  1.0659
 6253TIP3    H218724   0.188   6.608   2.640  4.0137  2.6256  2.2443
 6254TIP3   OH218725   6.933   1.416   0.137  0.7028 -0.3319 -0.0225
 6254TIP3    H118726   6.858   1.467   0.168  0.9336  0.4735 -0.7600
 6254TIP3    H218727   6.922   1.330   0.178 -1.4625 -0.7281 -1.2825
 6255TIP3   OH218728   0.329   1.290   1.420 -0.0083 -0.1808  0.5152
 6255TIP3    H118729   0.354   1.208   1.376 -0.2563  0.5030 -0.9475
 6255TIP3    H218730   0.402   1.349   1.403 -0.6877  0.4951 -0.1094
 6256TIP3   OH218731   5.206   6.212   4.019 -0.2972  0.0216  0.2191
 6256TIP3    H118732   5.284   6.258   3.988 -0.9334  1.2867  0.4758
 6256TIP3    H218733   5.239   6.147   4.081  0.5335  0.6589  0.4469
 6257TIP3   OH218734   3.489   4.668   0.097  0.0321  0.4651  0.4181
 6257TIP3    H118735   3.577   4.689   0.067 -0.1386  1.3080  0.4622
 6257TIP3    H218736   3.478   4.575   0.080  1.3409  0.0946  1.4413
 6258TIP3   OH218737   0.940   4.210   5.165  0.3228 -0.2401  0.3330
 6258TIP3    H118738   0.925   4.217   5.071 -0.0368  0.4252  0.4284
 6258TIP3    H218739   1.021   4.161   5.173 -0.4409 -1.6686 -0.2762
 6259TIP3   OH218740   2.475   1.483   3.662 -0.2781 -0.0806 -0.3664
 6259TIP3    H118741   2.408   1.549   3.647 -1.1712 -1.4030 -2.5777
 6259TIP3    H218742   2.543   1.529   3.711 -2.4972  1.4569  1.5143
 6260TIP3   OH218743   2.155   4.614   5.764  0.0204  0.1318  0.4793
 6260TIP3    H118744   2.066   4.647   5.760  0.0437  0.1581  0.1519
 6260TIP3    H218745   2.176   4.612   5.858 -0.8594 -1.3008  0.6753
 6261TIP3   OH218746   4.634   0.378   3.690 -0.6087 -0.0398 -0.0563
 6261TIP3    H118747   4.553   0.363   3.738  0.0762  0.6914  1.3820
 6261TIP3    H218748   4.644   0.473   3.688 -0.9416 -0.0033 -2.2533
 6262TIP3   OH218749   4.328   2.371   3.136  1.1606  0.0951 -0.8349
 6262TIP3    H118750   4.331   2.276   3.133  0.3681  0.0140  0.2073
 6262TIP3    H218751   4.389   2.400   3.069  1.6910 -1.1462 -0.9012
 6263TIP3   OH218752   5.592   6.781   5.561 -0.5223 -0.1582  0.1712
 6263TIP3    H118753   5.561   6.809   5.647 -0.8260  1.4387 -0.4213
 6263TIP3    H218754   5.687   6.776   5.569 -0.6717 -2.2538  1.1981
 6264TIP3   OH218755   2.493   1.910   1.421 -0.1474  0.5231 -0.1507
 6264TIP3    H118756   2.519   2.000   1.402 -0.0137  0.5889  0.3365
 6264TIP3    H218757   2.515   1.897   1.513  0.5411 -0.2533 -0.4056
 6265TIP3   OH218758   0.979   4.845   4.737 -0.5239  0.4064  0.3127
 6265TIP3    H118759   1.030   4.925   4.752  1.5579 -0.8070 -0.0193
 6265TIP3    H218760   0.989   4.827   4.643  1.3053 -1.6643  0.8329
 6266TIP3   OH218761   6.623   2.460   2.658 -0.2109  0.5999  0.5121
 6266TIP3    H118762   6.701   2.429   2.703 -0.4123 -0.4239  0.1829
 6266TIP3    H218763   6.637   2.554   2.648  1.7981  0.1917 -1.1142
 6267TIP3   OH218764   6.374   5.771   2.292 -0.6970 -0.1997 -0.6704
 6267TIP3    H118765   6.468   5.767   2.304 -0.5136 -0.4104 -2.0466
 6267TIP3    H218766   6.338   5.719   2.365  0.3258 -1.4215 -1.0064
 6268TIP3   OH218767   2.770   3.258   3.449 -0.1934 -0.5338  0.6555
 6268TIP3    H118768   2.762   3.353   3.460  0.3344 -0.3579 -0.2748
 6268TIP3    H218769   2.689   3.232   3.405 -0.8654 -0.7176  1.9727
 6269TIP3   OH218770   4.494   1.049   1.941  0.0512  0.3911 -0.1959
 6269TIP3    H118771   4.559   0.980   1.950 -0.0400  0.3160 -0.1050
 6269TIP3    H218772   4.473   1.074   2.031 -0.8207 -0.3150 -0.1984
 6270TIP3   OH218773   4.760   3.305   3.152 -0.0744 -0.6193 -0.9745
 6270TIP3    H118774   4.721   3.389   3.178  0.7991  0.1827 -2.1541
 6270TIP3    H218775   4.691   3.261   3.103 -0.5123 -0.5673 -0.4183
 6271TIP3   OH218776   3.099   3.431   4.593 -0.5421  0.1389 -0.2994
 6271TIP3    H118777   3.007   3.409   4.581 -0.2345 -1.8967  0.6518
 6271TIP3    H218778   3.139   3.417   4.506 -0.8888 -0.3840 -0.3812
 6272TIP3   OH218779   4.827   6.291   3.428 -0.1894 -0.2241  0.8748
 6272TIP3    H118780   4.776   6.270   3.350  0.7937 -0.0371  0.1637
 6272TIP3    H218781   4.918   6.284   3.399  0.1786  1.1158  1.6666
 6273TIP3   OH218782   0.449   6.828   2.687 -0.2180 -0.2834 -0.1354
 6273TIP3    H118783   0.526   6.777   2.712  0.0070 -0.1010 -0.4563
 6273TIP3    H218784   0.378   6.764   2.684 -0.2046 -0.3466  0.7549
 6274TIP3   OH218785   2.550   4.133   2.247 -0.3784 -0.2854  0.3104
 6274TIP3    H118786   2.530   4.120   2.340 -0.6174 -0.5648  0.2233
 6274TIP3    H218787   2.472   4.174   2.211 -0.7607 -1.2503 -0.0019
 6275TIP3   OH218788   5.079   3.798   3.453 -0.3784  0.3478 -0.5242
 6275TIP3    H118789   5.129   3.719   3.473 -0.6535 -0.5080 -2.8401
 6275TIP3    H218790   4.990   3.777   3.481 -0.0237  0.7561  0.9659
 6276TIP3   OH218791   0.675   5.351   3.820 -0.1302 -0.2760 -0.4752
 6276TIP3    H118792   0.737   5.308   3.879 -1.4353 -1.1861  0.2650
 6276TIP3    H218793   0.699   5.319   3.733  0.3274 -0.7556 -0.1775
 6277TIP3   OH218794   6.892   1.817   0.373 -0.3553 -0.4336 -0.0868
 6277TIP3    H118795   6.922   1.886   0.433 -2.1903  0.6645 -0.3419
 6277TIP3    H218796   6.936   1.836   0.290  1.2182 -1.2111  0.5311
 6278TIP3   OH218797   0.599   5.543   0.857 -0.2944 -0.4640 -0.6179
 6278TIP3    H118798   0.532   5.593   0.810 -1.5528 -1.0263  0.4995
 6278TIP3    H218799   0.679   5.594   0.847 -1.1715  0.9104 -0.9195
 6279TIP3   OH218800   6.969   3.585   5.214  0.1438  0.3089  0.1561
 6279TIP3    H118801   6.953   3.634   5.133  3.1847  0.0918 -0.6929
 6279TIP3    H218802   7.004   3.651   5.275  0.2790 -0.0134  0.4274
 6280TIP3   OH218803   5.446   6.356   5.863  0.0441 -0.2466  0.1105
 6280TIP3    H118804   5.354   6.366   5.887 -0.5400  0.3711 -2.0728
 6280TIP3    H218805   5.480   6.445   5.862  0.0188 -0.2310 -1.2362
 6281TIP3   OH218806   6.828   3.812   0.620  0.2819  0.2231 -0.5108
 6281TIP3    H118807   6.908   3.816   0.567 -0.7813  1.5717 -2.1234
 6281TIP3    H218808   6.785   3.731   0.592 -0.9320  1.5705 -2.8608
 6282TIP3   OH218809   2.933   5.948   1.847 -0.2110  0.3801  0.0587
 6282TIP3    H118810   2.909   5.869   1.799 -0.9626 -0.1865  1.3133
 6282TIP3    H218811   2.900   6.019   1.793 -1.8776 -0.2709  0.1761
 6283TIP3   OH218812   4.775   0.573   5.407 -0.7981 -0.0802  0.6265
 6283TIP3    H118813   4.750   0.603   5.319  1.0977 -1.2784 -0.3746
 6283TIP3    H218814   4.728   0.633   5.466 -0.5505  2.0614 -1.1921
 6284TIP3   OH218815   0.745   1.992   5.660  0.0601 -0.1089  0.1489
 6284TIP3    H118816   0.674   1.960   5.604  1.0090 -0.3378 -0.9614
 6284TIP3    H218817   0.701   2.044   5.728 -1.2121 -0.8073 -0.1157
 6285TIP3   OH218818   7.048   0.151   4.483 -0.2733  0.2020 -0.6352
 6285TIP3    H118819   7.047   0.062   4.446 -0.4104 -0.0033 -0.1425
 6285TIP3    H218820   7.012   0.141   4.571 -0.2278  0.7386 -0.5528
 6286TIP3   OH218821   1.853   2.731   0.273  0.1719  0.1429 -0.1178
 6286TIP3    H118822   1.901   2.713   0.354 -1.8311  0.7806  1.2709
 6286TIP3    H218823   1.912   2.787   0.223  0.8907  0.9390  1.5449
 6287TIP3   OH218824   5.021   5.866   5.686  0.1205 -0.3827 -0.1362
 6287TIP3    H118825   4.965   5.921   5.631  0.7911  0.8571  0.3894
 6287TIP3    H218826   4.983   5.873   5.774  0.2593 -0.6999 -0.0510
 6288TIP3   OH218827   3.467   3.384   2.679  0.1555 -0.1546 -0.4087
 6288TIP3    H118828   3.504   3.379   2.590  1.3737  0.9463  0.0121
 6288TIP3    H218829   3.392   3.443   2.670  0.3103  0.0014 -0.6981
 6289TIP3   OH218830   2.112   3.990   5.202  0.5686 -0.4961  0.1122
 6289TIP3    H118831   2.050   4.056   5.234 -0.3944 -1.5012  0.3839
 6289TIP3    H218832   2.198   4.024   5.227  0.1210  0.8217 -0.0717
 6290TIP3   OH218833   3.113   0.439   3.947 -0.0526  0.6426  0.2570
 6290TIP3    H118834   3.128   0.383   3.871 -3.2560  1.0265 -0.7931
 6290TIP3    H218835   3.101   0.527   3.910  0.0533  1.1469  1.3916
 6291TIP3   OH218836   6.329   4.552   0.681  0.4430  0.4473  0.3855
 6291TIP3    H118837   6.235   4.568   0.669  0.0526 -0.8918  1.3719
 6291TIP3    H218838   6.371   4.633   0.653 -1.1427  1.8536  1.8376
 6292TIP3   OH218839   4.749   2.925   5.729  0.5944  0.5408 -0.0056
 6292TIP3    H118840   4.738   3.001   5.785 -0.5264  0.0827  0.4200
 6292TIP3    H218841   4.839   2.897   5.745  0.3684  0.5477  1.4327
 6293TIP3   OH218842   1.466   0.257   0.794 -0.2686  0.0399  0.1127
 6293TIP3    H118843   1.433   0.285   0.879 -1.1194 -0.2066 -0.1241
 6293TIP3    H218844   1.556   0.229   0.811 -0.4017  0.0746  0.9119
 6294TIP3   OH218845   5.651   5.017   4.529 -0.1897 -0.5984 -0.9952
 6294TIP3    H118846   5.599   5.029   4.450 -0.9396  0.1804 -0.4007
 6294TIP3    H218847   5.740   5.002   4.497 -0.8450 -2.5213 -2.0405
 6295TIP3   OH218848   4.101   6.659   1.511 -0.1134  0.2248 -0.2796
 6295TIP3    H118849   4.125   6.586   1.454 -1.7436 -0.8964  0.3827
 6295TIP3    H218850   4.129   6.631   1.598  1.0364  1.2829 -0.2853
 6296TIP3   OH218851   5.380   3.427   1.734 -0.5606 -0.3193 -0.2884
 6296TIP3    H118852   5.453   3.460   1.785 -0.8930 -0.2734  0.1658
 6296TIP3    H218853   5.365   3.493   1.666 -0.0085 -0.4626 -0.5542
 6297TIP3   OH218854   6.771   3.035   4.254  0.5493 -0.5608 -0.0534
 6297TIP3    H118855   6.779   3.066   4.344 -0.6987  1.8719 -0.7039
 6297TIP3    H218856   6.861   3.027   4.223  0.9690  0.4851  0.8372
 6298TIP3   OH218857   7.102   1.859   0.814 -0.5199 -0.4238 -0.1486
 6298TIP3    H118858   7.009   1.872   0.795 -1.2625 -0.7573  2.8122
 6298TIP3    H218859   7.144   1.941   0.788 -1.9132  0.3388 -0.0667
 6299TIP3   OH218860   6.959   4.434   5.286 -0.3021 -0.2071 -0.0655
 6299TIP3    H118861   6.983   4.346   5.315 -0.2751  0.1320  0.9902
 6299TIP3    H218862   6.935   4.424   5.194  1.0091 -1.0832 -0.3396
 6300TIP3   OH218863   2.019   2.484   4.060 -0.2235  0.4450 -0.2169
 6300TIP3    H118864   2.101   2.533   4.054 -1.5815  2.7478 -1.3567
 6300TIP3    H218865   2.017   2.433   3.979 -0.5582  1.5217 -0.9078
 6301TIP3   OH218866   0.666   5.336   2.493 -0.0261  0.6951 -0.3098
 6301TIP3    H118867   0.719   5.256   2.492  0.2285  0.8337 -2.0172
 6301TIP3    H218868   0.589   5.314   2.545 -0.3680 -0.9717 -1.4401
 6302TIP3   OH218869   5.933   5.384   1.117  0.4336 -0.0780 -0.0081
 6302TIP3    H118870   5.846   5.398   1.080  0.6672 -1.1246 -1.0012
 6302TIP3    H218871   5.991   5.438   1.064  0.6740 -1.0627 -0.7830
 6303TIP3   OH218872   4.771   0.145   0.881  0.8297  0.2893 -0.1898
 6303TIP3    H118873   4.680   0.122   0.899  1.0116  0.7243  1.4139
 6303TIP3    H218874   4.803   0.181   0.964  3.2335 -2.2684  0.1251
 6304TIP3   OH218875   0.384   5.125   5.441  0.5627 -0.1362  0.6412
 6304TIP3    H118876   0.383   5.040   5.396 -0.4621  0.1398  0.1087
 6304TIP3    H218877   0.292   5.149   5.448  0.8706  1.4719 -0.2729
 6305TIP3   OH218878   6.784   0.881   0.085  0.8309  0.1625  0.9308
 6305TIP3    H118879   6.709   0.854   0.032  2.4883 -0.6691 -1.1541
 6305TIP3    H218880   6.781   0.824   0.162  0.1558 -0.9086  0.1385
 6306TIP3   OH218881   3.902   3.855   1.572 -0.2272 -0.4988  0.2056
 6306TIP3    H118882   3.990   3.871   1.538 -0.1443 -2.3415 -0.5630
 6306TIP3    H218883   3.857   3.808   1.502 -1.5374 -0.3916  0.9348
 6307TIP3   OH218884   2.600   5.253   0.597 -0.0103  0.8869  0.2179
 6307TIP3    H118885   2.593   5.167   0.556  1.1740  1.9511 -2.4327
 6307TIP3    H218886   2.535   5.251   0.667  0.1915 -2.2392  0.4529
 6308TIP3   OH218887   4.720   2.889   4.013 -0.3986 -0.1379 -0.2235
 6308TIP3    H118888   4.757   2.803   4.033 -2.2321 -1.3224 -1.4932
 6308TIP3    H218889   4.658   2.905   4.084  0.2199  0.3055  0.2115
 6309TIP3   OH218890   0.764   0.631   3.362  0.2627  0.2404  0.5579
 6309TIP3    H118891   0.799   0.547   3.389 -2.3602 -1.8291 -1.8590
 6309TIP3    H218892   0.803   0.647   3.276  1.5620  2.1030  1.4437
 6310TIP3   OH218893   5.351   5.423   1.382  0.3080 -0.0125  0.3004
 6310TIP3    H118894   5.280   5.383   1.334  0.8030  0.1265 -0.5655
 6310TIP3    H218895   5.339   5.393   1.472 -1.1926  0.5069  0.3016
 6311TIP3   OH218896   6.974   2.564   3.761 -0.2607 -0.1768  0.4381
 6311TIP3    H118897   6.998   2.474   3.738 -0.2219  0.3864 -1.8763
 6311TIP3    H218898   6.920   2.594   3.688  1.4514  2.3921  0.1282
 6312TIP3   OH218899   2.380   2.572   5.509 -0.4181  0.5461  0.0100
 6312TIP3    H118900   2.416   2.531   5.430  2.3679  0.3311  1.2521
 6312TIP3    H218901   2.321   2.506   5.545  1.8097 -1.3360  0.4695
 6313TIP3   OH218902   0.343   6.396   2.136  0.1831 -0.4529 -0.2710
 6313TIP3    H118903   0.262   6.440   2.111  0.6760  1.4549  1.2028
 6313TIP3    H218904   0.399   6.401   2.059 -0.0733  0.8960 -0.3981
 6314TIP3   OH218905   4.611   0.982   2.832 -0.2835 -0.0329  0.0251
 6314TIP3    H118906   4.617   1.069   2.872  1.7536 -0.4086  0.7042
 6314TIP3    H218907   4.703   0.958   2.816 -0.8386 -1.8246 -0.6424
 6315TIP3   OH218908   2.315   6.389   1.561 -0.1149 -0.2850  0.1925
 6315TIP3    H118909   2.235   6.417   1.606 -1.3023 -1.7530 -0.9180
 6315TIP3    H218910   2.342   6.310   1.608 -0.4650 -0.9246 -0.6689
 6316TIP3   OH218911   0.987   4.199   4.181 -0.4480 -0.5336 -0.1998
 6316TIP3    H118912   0.946   4.277   4.145 -1.1843 -0.1647  1.3558
 6316TIP3    H218913   0.916   4.136   4.191 -0.2127 -0.7272  0.3157
 6317TIP3   OH218914   1.136   0.455   0.686 -0.5269  0.1302  0.0375
 6317TIP3    H118915   1.113   0.429   0.597 -0.1596 -2.7480  0.6729
 6317TIP3    H218916   1.228   0.482   0.681 -0.3048 -0.6814 -0.3597
 6318TIP3   OH218917   4.903   5.319   3.172 -0.5408 -0.5940  0.1906
 6318TIP3    H118918   4.968   5.284   3.110 -0.4430  0.7694 -0.4995
 6318TIP3    H218919   4.819   5.309   3.127 -0.4186  0.8473 -0.3996
 6319TIP3   OH218920   0.682   4.979   0.748  0.0391  0.2991 -0.3837
 6319TIP3    H118921   0.686   5.048   0.681  0.2285  0.3770 -0.2958
 6319TIP3    H218922   0.760   4.926   0.731 -0.4238 -0.2509 -0.8283
 6320TIP3   OH218923   1.244   1.661   2.522  0.2244 -0.5302 -0.7349
 6320TIP3    H118924   1.158   1.673   2.564  0.4299  0.3114 -0.5392
 6320TIP3    H218925   1.240   1.573   2.485 -1.0479 -0.2000 -1.4608
 6321TIP3   OH218926   2.298   6.373   4.113 -0.0735  0.5695 -0.1156
 6321TIP3    H118927   2.241   6.401   4.041  0.4098  1.2944 -0.2304
 6321TIP3    H218928   2.387   6.385   4.079  0.2309  2.8627  1.2433
 6322TIP3   OH218929   2.094   2.537   2.185 -0.3380 -0.2466 -0.0369
 6322TIP3    H118930   2.096   2.585   2.103  1.3824 -2.6781 -1.5602
 6322TIP3    H218931   2.174   2.565   2.231 -0.0937 -0.5444 -0.2712
 6323TIP3   OH218932   0.715   1.546   2.225 -0.7056 -0.1258 -0.2508
 6323TIP3    H118933   0.803   1.539   2.263 -0.1568  2.3176 -0.8730
 6323TIP3    H218934   0.691   1.456   2.203  1.3129 -0.9501  0.6496
 6324TIP3   OH218935   2.026   1.324   4.653  0.3530  0.2540 -0.0554
 6324TIP3    H118936   2.101   1.341   4.596  1.9735  0.4114  1.9983
 6324TIP3    H218937   2.017   1.404   4.705 -0.9700  0.0518  0.0801
 6325TIP3   OH218938   5.807   3.581   2.789 -0.1103  0.3940  0.3870
 6325TIP3    H118939   5.791   3.583   2.694  0.3693  0.3741  0.3046
 6325TIP3    H218940   5.743   3.642   2.825 -0.0802  0.6490  0.0164
 6326TIP3   OH218941   4.553   6.308   0.314  0.1954  0.1036  0.0681
 6326TIP3    H118942   4.574   6.282   0.404 -1.7350  0.0763  0.5621
 6326TIP3    H218943   4.605   6.249   0.260 -1.3178 -2.4836  1.1836
 6327TIP3   OH218944   7.164   0.820   2.514 -0.5070 -0.4713 -0.5728
 6327TIP3    H118945   7.069   0.832   2.504 -0.3185  1.2099 -0.5490
 6327TIP3    H218946   7.181   0.837   2.606 -0.4867 -3.3965  0.0759
 6328TIP3   OH218947   2.134   4.309   5.119  0.7090 -0.4605 -0.0176
 6328TIP3    H118948   2.178   4.380   5.165 -0.5662 -0.5194  1.3508
 6328TIP3    H218949   2.168   4.229   5.159  0.5946 -0.5588 -0.1152
 6329TIP3   OH218950   3.433   5.824   5.749  0.1519  0.4627 -0.9649
 6329TIP3    H118951   3.396   5.831   5.837 -0.8031  1.6219 -1.4458
 6329TIP3    H218952   3.430   5.730   5.730 -0.4617  0.2942 -0.1190
 6330TIP3   OH218953   1.696   5.418   5.303 -1.0634 -0.4419 -0.2665
 6330TIP3    H118954   1.642   5.476   5.250 -1.3290 -1.1801 -0.8238
 6330TIP3    H218955   1.759   5.381   5.240 -1.0587 -0.9433  0.0306
 6331TIP3   OH218956   6.974   6.134   2.666 -0.4096 -0.1825 -0.3458
 6331TIP3    H118957   7.058   6.180   2.662 -1.0266  1.0186  0.0646
 6331TIP3    H218958   6.970   6.086   2.583 -0.0392  1.0745 -1.1237
 6332TIP3   OH218959   2.393   4.268   0.526  0.3237 -0.0897  0.3650
 6332TIP3    H118960   2.307   4.285   0.566  0.3787  3.0296 -0.5934
 6332TIP3    H218961   2.456   4.308   0.586  0.8069  0.4081 -0.4517
 6333TIP3   OH218962   5.594   3.191   5.836  0.2311 -0.1577 -0.0477
 6333TIP3    H118963   5.614   3.118   5.896  1.4706 -0.0807 -0.3348
 6333TIP3    H218964   5.613   3.269   5.887 -2.3216  0.0713  0.7010
 6334TIP3   OH218965   4.410   2.608   3.939  0.3929 -0.2667 -0.0755
 6334TIP3    H118966   4.415   2.688   3.887  0.3959 -0.0319  0.2861
 6334TIP3    H218967   4.483   2.554   3.908  0.6352  0.0380 -0.0306
 6335TIP3   OH218968   2.052   4.715   1.783 -0.2914 -0.2445 -0.3557
 6335TIP3    H118969   2.128   4.756   1.742  0.7378  0.8684  2.3992
 6335TIP3    H218970   1.998   4.789   1.812 -2.2583 -1.0181 -1.8758
 6336TIP3   OH218971   3.991   4.368   2.092 -0.2576  0.2270 -0.2803
 6336TIP3    H118972   4.059   4.329   2.148 -0.9964  1.2216  1.4005
 6336TIP3    H218973   3.916   4.310   2.105 -0.9622  1.4113  1.2010
 6337TIP3   OH218974   2.503   6.448   2.804 -0.0779  0.1974  0.0210
 6337TIP3    H118975   2.485   6.440   2.710 -0.8136  0.1712  0.1599
 6337TIP3    H218976   2.529   6.540   2.815 -1.4933  0.6260  0.0185
 6338TIP3   OH218977   5.409   4.377   4.455 -0.0829  0.5907 -0.2950
 6338TIP3    H118978   5.372   4.425   4.529  0.2393 -1.6263  1.4435
 6338TIP3    H218979   5.337   4.371   4.392 -0.9925  0.9582  0.6727
 6339TIP3   OH218980   0.783   5.204   3.169 -0.7286  0.0753 -0.0902
 6339TIP3    H118981   0.781   5.135   3.104  1.2935 -0.9996  0.8977
 6339TIP3    H218982   0.694   5.206   3.206 -0.4347 -3.2762  1.1017
 6340TIP3   OH218983   2.930   1.660   3.652 -1.3459  0.1266  0.1060
 6340TIP3    H118984   2.944   1.655   3.747 -0.6954  1.4228  0.1041
 6340TIP3    H218985   2.965   1.746   3.627 -3.6035  0.8276 -0.9545
 6341TIP3   OH218986   3.388   0.247   5.131  0.5598 -0.3602 -0.0846
 6341TIP3    H118987   3.320   0.258   5.065  0.0453  0.5971  0.5776
 6341TIP3    H218988   3.423   0.335   5.144  0.1906 -0.4054  1.3913
 6342TIP3   OH218989   3.445   2.942   3.165  0.4711  0.1917  0.4041
 6342TIP3    H118990   3.516   2.912   3.108 -0.9436 -0.9563 -0.8193
 6342TIP3    H218991   3.374   2.965   3.105 -0.7599 -0.2034  1.6654
 6343TIP3   OH218992   0.921   5.929   2.744 -0.7713 -0.3426 -0.8631
 6343TIP3    H118993   0.946   5.869   2.814 -2.1779 -0.2390 -0.2427
 6343TIP3    H218994   0.960   6.013   2.769 -0.1054 -0.6221 -0.9357
 6344TIP3   OH218995   5.508   4.950   3.478 -0.2943 -0.5124  0.8024
 6344TIP3    H118996   5.512   4.885   3.549 -0.1534 -1.5281 -0.1134
 6344TIP3    H218997   5.423   4.993   3.491  0.7369  1.0871  3.0481
 6345TIP3   OH218998   6.572   6.198   5.455 -0.0249  0.4680 -0.4593
 6345TIP3    H118999   6.581   6.165   5.365 -0.9729  0.8459 -0.7139
 6345TIP3    H219000   6.477   6.206   5.467  0.0228 -0.7009  0.9900
 6346TIP3   OH219001   4.900   1.511   5.482 -0.9276  0.2259  0.6535
 6346TIP3    H119002   4.984   1.553   5.500  0.2991 -2.1362  0.9451
 6346TIP3    H219003   4.867   1.485   5.568 -0.1965 -1.8546  0.3825
 6347TIP3   OH219004   2.016   5.728   5.821  0.3343 -0.1532  0.0373
 6347TIP3    H119005   2.061   5.724   5.736  0.5759 -0.5053  0.1779
 6347TIP3    H219006   2.055   5.804   5.865  0.0494  0.1626 -0.2540
 6348TIP3   OH219007   6.076   5.269   0.273  0.0764  0.1137  0.0658
 6348TIP3    H119008   6.054   5.355   0.310  0.6699 -0.0160  0.7274
 6348TIP3    H219009   6.029   5.267   0.190 -0.0076  1.0514  0.0763
 6349TIP3   OH219010   3.630   6.685   4.830  0.7640 -0.2734  0.4504
 6349TIP3    H119011   3.603   6.776   4.817 -0.6326 -0.7513 -0.2943
 6349TIP3    H219012   3.549   6.639   4.852  1.0334 -1.6813 -1.2032
 6350TIP3   OH219013   2.092   5.408   2.893 -0.1157  0.6190  0.1273
 6350TIP3    H119014   2.095   5.339   2.959  0.3168  0.4440 -0.0666
 6350TIP3    H219015   2.009   5.452   2.907 -0.8806 -0.5935 -0.4010
 6351TIP3   OH219016   2.595   0.738   1.118  0.6764 -0.4257  0.4471
 6351TIP3    H119017   2.682   0.749   1.157  1.0881  0.8598 -0.7245
 6351TIP3    H219018   2.586   0.643   1.106  1.7175 -0.6150  1.0181
 6352TIP3   OH219019   4.140   5.752   2.244  0.5631  0.5738 -0.4039
 6352TIP3    H119020   4.205   5.739   2.313 -0.3902 -0.0326  0.3880
 6352TIP3    H219021   4.152   5.677   2.185 -0.1357 -0.1186  0.3238
 6353TIP3   OH219022   7.103   2.663   0.317  0.5905 -0.3290  0.0417
 6353TIP3    H119023   7.098   2.703   0.230  0.6471  2.8754  1.3543
 6353TIP3    H219024   7.197   2.652   0.333  0.7384  1.3484  0.5442
 6354TIP3   OH219025   6.895   3.911   5.298  0.2029  0.3436 -0.0868
 6354TIP3    H119026   6.922   3.991   5.343 -2.3102  0.2103  1.8728
 6354TIP3    H219027   6.899   3.843   5.366  0.0926 -0.7251 -1.1218
 6355TIP3   OH219028   3.855   3.989   1.115 -0.1740 -0.0045  0.0429
 6355TIP3    H119029   3.880   3.977   1.024  0.9281 -0.6830  0.4150
 6355TIP3    H219030   3.869   4.083   1.131 -0.1392  0.0730 -0.4223
 6356TIP3   OH219031   2.238   2.494   1.420  0.2327  0.3464 -0.3014
 6356TIP3    H119032   2.284   2.576   1.403 -1.4336  1.6901  1.2123
 6356TIP3    H219033   2.169   2.518   1.483 -0.9368 -2.0217 -0.5634
 6357TIP3   OH219034   6.287   6.401   3.949 -0.0153  0.4174 -0.2034
 6357TIP3    H119035   6.215   6.464   3.956 -1.0954 -0.5389 -1.9265
 6357TIP3    H219036   6.295   6.384   3.855  0.1183 -2.1178  0.1998
 6358TIP3   OH219037   6.330   3.052   2.067  0.8206 -0.1385 -0.0462
 6358TIP3    H119038   6.398   3.118   2.050  0.3472  0.3554 -0.0330
 6358TIP3    H219039   6.321   3.051   2.162 -0.4438  1.0825 -0.1340
 6359TIP3   OH219040   2.910   5.346   3.195  0.1010 -0.1917  0.6506
 6359TIP3    H119041   2.918   5.342   3.099  0.3268 -1.8052  0.7098
 6359TIP3    H219042   2.998   5.363   3.226  0.6526 -2.6171  0.6473
 6360TIP3   OH219043   3.712   1.165   0.168  0.0437  0.5194 -0.3001
 6360TIP3    H119044   3.806   1.178   0.182  0.1493  1.8593 -1.9247
 6360TIP3    H219045   3.675   1.253   0.166 -1.4813 -0.0064  1.4828
 6361TIP3   OH219046   2.936   4.960   1.532 -0.3100  0.3119  0.1444
 6361TIP3    H119047   2.996   4.907   1.583 -1.2447 -0.0549  0.8879
 6361TIP3    H219048   2.898   4.899   1.468  0.9065  0.7807 -1.0903
 6362TIP3   OH219049   6.626   4.256   3.381  0.2338 -0.3770 -0.5860
 6362TIP3    H119050   6.714   4.224   3.360 -0.4408 -1.1430 -2.4392
 6362TIP3    H219051   6.604   4.314   3.309 -0.2961  0.8667  0.5356
 6363TIP3   OH219052   0.053   5.716   2.394  0.2330 -0.2768  0.5054
 6363TIP3    H119053  -0.019   5.747   2.339 -0.5308  0.0124  1.6305
 6363TIP3    H219054   0.046   5.768   2.474  0.7322 -1.3445  1.2606
 6364TIP3   OH219055   3.393   3.685   0.037  0.0316 -0.4679  0.1092
 6364TIP3    H119056   3.461   3.680  -0.030  1.4488 -0.7649  1.5248
 6364TIP3    H219057   3.373   3.778   0.045 -1.3827 -0.5379 -1.8631
 6365TIP3   OH219058   0.119   6.535   2.004 -0.7460  0.1230 -0.3833
 6365TIP3    H119059   0.027   6.509   2.007 -0.6018 -0.3322  1.1573
 6365TIP3    H219060   0.150   6.502   1.920 -1.8055 -0.3791 -0.6030
 6366TIP3   OH219061   5.619   1.390   3.999 -0.5560 -0.5828 -0.4251
 6366TIP3    H119062   5.674   1.457   4.039  0.1601 -2.1358  1.3540
 6366TIP3    H219063   5.551   1.439   3.954  0.3404  1.3417  0.1872
 6367TIP3   OH219064   1.838   6.326   0.830  0.2077 -0.2473  0.1604
 6367TIP3    H119065   1.810   6.315   0.739 -0.3964 -0.3508  0.3564
 6367TIP3    H219066   1.861   6.419   0.836  1.4085 -0.4891 -0.4087
 6368TIP3   OH219067   5.699   2.034   5.676 -0.1882 -0.1891 -0.1820
 6368TIP3    H119068   5.641   1.969   5.636 -1.2699  1.0311 -0.6950
 6368TIP3    H219069   5.687   2.113   5.622 -2.5196  1.8821  3.0014
 6369TIP3   OH219070   6.624   2.355   5.543 -0.1486 -0.0818  0.1491
 6369TIP3    H119071   6.562   2.380   5.474 -1.2167  0.4223  1.2640
 6369TIP3    H219072   6.667   2.277   5.509  0.4572  0.9981 -1.7429
 6370TIP3   OH219073   3.382   4.140   5.478 -0.5171 -0.3639 -0.6880
 6370TIP3    H119074   3.412   4.148   5.568  0.1574 -0.2528 -0.9195
 6370TIP3    H219075   3.364   4.047   5.466 -0.8174 -0.3486 -0.3799
 6371TIP3   OH219076   0.334   2.021   4.598  1.0629 -0.2920  0.0992
 6371TIP3    H119077   0.399   2.065   4.543 -0.9784  3.4159  0.3890
 6371TIP3    H219078   0.279   1.973   4.535 -1.0675  3.6511 -1.3656
 6372TIP3   OH219079   2.464   4.368   5.377  0.2801 -0.4326  0.1050
 6372TIP3    H119080   2.467   4.464   5.378  2.0727 -0.4514  0.3774
 6372TIP3    H219081   2.439   4.345   5.466 -0.0538 -0.2134  0.0689
 6373TIP3   OH219082   6.483   1.170   5.311  0.0489 -0.3606 -0.2343
 6373TIP3    H119083   6.564   1.219   5.322  1.3778 -2.6379  0.8557
 6373TIP3    H219084   6.480   1.148   5.218 -0.1078  0.9714 -0.5598
 6374TIP3   OH219085   3.879   0.787   0.888 -0.2554 -0.1136 -0.3918
 6374TIP3    H119086   3.788   0.818   0.885 -0.0197  0.7677  0.7662
 6374TIP3    H219087   3.929   0.856   0.845  0.2990  1.3863  2.3694
 6375TIP3   OH219088   1.584   0.705   2.142 -0.2184  0.5428  0.4043
 6375TIP3    H119089   1.550   0.755   2.216 -1.2560 -0.2371  0.4790
 6375TIP3    H219090   1.584   0.767   2.069  1.2065  1.4417  1.1196
 6376TIP3   OH219091   0.064   3.926   5.019 -0.2788  0.2549  0.0586
 6376TIP3    H119092   0.131   3.991   4.996  0.0376  0.0300  0.3502
 6376TIP3    H219093   0.106   3.842   5.003 -1.2102  0.0915 -1.8645
 6377TIP3   OH219094   6.913   4.607   2.796  0.1412 -0.2675  0.0409
 6377TIP3    H119095   6.995   4.558   2.796 -0.2154 -0.8890  0.6368
 6377TIP3    H219096   6.877   4.594   2.708  1.0653  0.6862 -0.4882
 6378TIP3   OH219097   6.612   2.754   2.714  0.0393  0.2669 -0.1028
 6378TIP3    H119098   6.523   2.791   2.714  0.3444  1.0072  0.0518
 6378TIP3    H219099   6.655   2.795   2.639  0.4017  0.2676  0.1064
 6379TIP3   OH219100   3.964   4.803   5.716  0.0828  0.0173 -0.2794
 6379TIP3    H119101   4.027   4.740   5.680 -1.3208 -0.8344 -1.3740
 6379TIP3    H219102   3.979   4.883   5.667  0.5757 -0.0618 -0.2626
 6380TIP3   OH219103   0.062   4.795   1.700  0.1059  0.2844 -0.6070
 6380TIP3    H119104   0.062   4.746   1.618 -0.2105 -1.4223  0.3633
 6380TIP3    H219105   0.067   4.728   1.768  1.2199  1.6925  0.7627
 6381TIP3   OH219106   5.018   0.835   0.352  0.2759  0.3031 -0.2851
 6381TIP3    H119107   4.990   0.759   0.300  2.8707 -0.4071 -0.7828
 6381TIP3    H219108   4.973   0.909   0.312 -0.7950 -0.7099 -1.0436
 6382TIP3   OH219109   0.535   5.210   3.225 -0.1026  0.0090 -0.5134
 6382TIP3    H119110   0.504   5.290   3.266 -0.7599 -1.1554  1.4059
 6382TIP3    H219111   0.456   5.162   3.202  0.2752 -0.7385 -0.2871
 6383TIP3   OH219112   0.880   4.719   4.216  0.2393 -0.5647  0.0285
 6383TIP3    H119113   0.927   4.639   4.238  0.0636 -0.6946 -0.0718
 6383TIP3    H219114   0.820   4.694   4.146 -1.5067 -0.9115  1.5765
 6384TIP3   OH219115   4.675   2.788   1.751 -0.1203 -0.1603  0.0626
 6384TIP3    H119116   4.595   2.841   1.759 -0.0998 -0.1260  0.0399
 6384TIP3    H219117   4.739   2.848   1.713 -0.4985 -0.6024 -1.3278
 6385TIP3   OH219118   2.601   1.896   5.578  0.3021  0.4894 -0.2861
 6385TIP3    H119119   2.672   1.960   5.571 -0.9258  2.1560  1.3088
 6385TIP3    H219120   2.630   1.835   5.645  1.3776 -0.5380 -1.6358
 6386TIP3   OH219121   2.370   5.303   4.093 -0.1311 -0.2756  0.4101
 6386TIP3    H119122   2.350   5.362   4.166 -1.0461  0.6709 -0.5659
 6386TIP3    H219123   2.308   5.230   4.104 -0.7041  0.1792  0.2266
 6387TIP3   OH219124   4.267   2.625   3.015  0.3585  0.1388 -0.2574
 6387TIP3    H119125   4.228   2.550   3.060  1.4082 -0.4249 -0.2575
 6387TIP3    H219126   4.354   2.634   3.054  0.2088  1.4249 -0.1934
 6388TIP3   OH219127   4.305   2.017   5.673 -0.3228 -0.0602  0.1408
 6388TIP3    H119128   4.374   1.969   5.719  0.1343 -0.9269 -1.3741
 6388TIP3    H219129   4.266   1.952   5.615 -2.5366  0.3744  1.0555
 6389TIP3   OH219130   5.706   0.753   1.404  0.0734  0.0437 -0.7270
 6389TIP3    H119131   5.630   0.730   1.457  0.3736 -0.7040 -0.5963
 6389TIP3    H219132   5.780   0.710   1.448  0.9389  2.4317  0.3292
 6390TIP3   OH219133   3.405   5.605   0.011 -0.5611  0.3100  0.0904
 6390TIP3    H119134   3.325   5.643   0.049 -0.3699  1.4569 -0.6105
 6390TIP3    H219135   3.443   5.675  -0.041  0.3888 -0.5330 -0.3985
 6391TIP3   OH219136   3.302   5.147   2.009  0.0108  0.0008 -0.0652
 6391TIP3    H119137   3.325   5.088   1.938 -0.5086  1.4775 -1.5188
 6391TIP3    H219138   3.345   5.109   2.086 -0.9369 -2.6586 -0.7337
 6392TIP3   OH219139   6.237   2.428   5.178  0.6033 -0.2368 -0.5510
 6392TIP3    H119140   6.156   2.462   5.217  1.2330  0.3402  0.2848
 6392TIP3    H219141   6.226   2.443   5.084 -0.4955 -0.6918 -0.5052
 6393TIP3   OH219142   3.762   5.454   1.869  0.2713  0.2727  0.6390
 6393TIP3    H119143   3.830   5.387   1.876 -0.1594 -0.4117 -1.1133
 6393TIP3    H219144   3.781   5.498   1.786 -1.9538 -0.6146 -0.4340
 6394TIP3   OH219145   3.778   6.027   0.522 -0.1359 -0.1685  0.0450
 6394TIP3    H119146   3.697   5.979   0.540  0.0229 -1.2586 -1.8217
 6394TIP3    H219147   3.776   6.042   0.428  2.1541 -0.8773 -0.1746
 6395TIP3   OH219148   1.615   2.324   1.832  0.2765  0.0905 -0.3406
 6395TIP3    H119149   1.538   2.380   1.831 -0.8393 -1.3725 -0.3185
 6395TIP3    H219150   1.584   2.241   1.869  2.3381  0.0985  1.6810
 6396TIP3   OH219151   2.865   3.416   5.605 -0.1411 -0.3394 -0.0102
 6396TIP3    H119152   2.823   3.415   5.519  0.7915  1.4424 -0.5361
 6396TIP3    H219153   2.903   3.329   5.614 -1.3309 -0.9717 -0.8291
 6397TIP3   OH219154   3.702   2.472   0.888  0.3457  0.0874 -0.0990
 6397TIP3    H119155   3.652   2.399   0.924 -1.1796  1.4511  0.6981
 6397TIP3    H219156   3.755   2.434   0.818 -0.8409 -1.6577 -0.0811
 6398TIP3   OH219157   0.009   0.275   0.795 -0.0670  0.0300  0.2188
 6398TIP3    H119158  -0.058   0.302   0.858  1.5385 -1.7083  2.8482
 6398TIP3    H219159   0.073   0.346   0.796  0.7484 -0.6726  1.8828
 6399TIP3   OH219160   5.175   5.942   3.086 -0.1277  0.0468  0.2750
 6399TIP3    H119161   5.199   5.981   3.002 -2.0540  0.0433 -0.3292
 6399TIP3    H219162   5.197   5.849   3.077 -3.2163 -0.6482 -1.5301
 6400TIP3   OH219163   6.004   1.790   3.034  0.1688 -0.3546  0.2203
 6400TIP3    H119164   5.985   1.817   2.944 -1.9583 -0.1734  0.6702
 6400TIP3    H219165   6.064   1.716   3.025 -0.5423 -0.7711 -1.3842
 6401TIP3   OH219166   0.417   3.982   5.600 -0.1213 -0.9834  0.0238
 6401TIP3    H119167   0.379   4.049   5.543  1.8115 -0.3136 -0.5473
 6401TIP3    H219168   0.388   4.007   5.688  0.4057  0.5122 -0.1976
 6402TIP3   OH219169   1.154   2.356   1.311 -0.1652  0.0115  0.3770
 6402TIP3    H119170   1.129   2.414   1.383 -0.3331  0.4648 -0.0435
 6402TIP3    H219171   1.219   2.297   1.349 -0.3403  0.1695  0.9310
 6403TIP3   OH219172   3.260   0.530   4.653 -0.1865  0.0344  0.3083
 6403TIP3    H119173   3.200   0.459   4.632 -0.0061  0.2441 -0.9526
 6403TIP3    H219174   3.203   0.599   4.689 -0.8522  0.5296 -1.5871
 6404TIP3   OH219175   1.857   1.289   1.178 -0.6830 -0.4608  0.2636
 6404TIP3    H119176   1.913   1.253   1.109 -1.1575  0.0727 -0.4161
 6404TIP3    H219177   1.909   1.361   1.214 -1.0316  0.2291 -0.5720
 6405TIP3   OH219178   5.882   5.787   5.562 -0.1096 -0.3315  0.4092
 6405TIP3    H119179   5.837   5.705   5.541  0.2086  0.4474 -4.3090
 6405TIP3    H219180   5.812   5.852   5.567 -0.0216  0.0083 -1.8274
 6406TIP3   OH219181   3.949   0.802   3.071 -0.4296 -0.3534 -0.0008
 6406TIP3    H119182   4.032   0.808   3.024 -0.2362 -2.0996  0.0216
 6406TIP3    H219183   3.946   0.880   3.126  1.1448 -0.1871 -0.0999
 6407TIP3   OH219184   3.954   2.782   0.417  0.2461  0.1706 -0.1954
 6407TIP3    H119185   3.953   2.697   0.461 -2.3806  0.3789  0.3207
 6407TIP3    H219186   3.875   2.781   0.362  0.4828  2.0512 -0.6347
 6408TIP3   OH219187   5.489   5.928   2.755  0.0346  0.1586  0.2063
 6408TIP3    H119188   5.465   5.836   2.749 -0.2922  0.2305  0.3971
 6408TIP3    H219189   5.491   5.959   2.664 -0.9580  0.2454  0.2071
 6409TIP3   OH219190   6.904   0.475   1.935 -0.2636  0.6373 -0.1505
 6409TIP3    H119191   6.939   0.386   1.929  1.0210  1.1465 -0.5253
 6409TIP3    H219192   6.845   0.472   2.010  1.6327  0.0408  1.4088
 6410TIP3   OH219193   0.322   3.452   4.107 -0.2040 -0.2035 -0.2447
 6410TIP3    H119194   0.415   3.444   4.084  0.0910  0.3833  0.6847
 6410TIP3    H219195   0.295   3.363   4.129  0.2439 -0.3184 -0.1393
 6411TIP3   OH219196   1.286   3.350   0.930 -0.4657  0.3404 -0.0188
 6411TIP3    H119197   1.200   3.310   0.940 -0.0271 -0.2977  1.3977
 6411TIP3    H219198   1.272   3.442   0.951 -1.0006  0.4653 -0.8729
 6412TIP3   OH219199   7.046   3.041   1.438  0.1107  0.1184  0.0315
 6412TIP3    H119200   7.069   2.997   1.357  2.0854  1.7188 -0.3383
 6412TIP3    H219201   7.048   3.134   1.417 -1.4408  0.5285  1.4200
 6413TIP3   OH219202   3.605   4.034   0.015 -0.1194 -0.0969 -0.0106
 6413TIP3    H119203   3.644   4.119  -0.004  0.9014 -0.5486  0.0124
 6413TIP3    H219204   3.619   4.020   0.109 -1.0403  0.0785  0.1612
 6414TIP3   OH219205   1.635   6.678   4.661 -0.1501 -0.2134 -0.6656
 6414TIP3    H119206   1.717   6.725   4.680 -0.5818 -0.3836  2.0659
 6414TIP3    H219207   1.566   6.741   4.681 -0.7834  0.0429 -3.2663
 6415TIP3   OH219208   2.619   4.618   0.136  0.3145 -0.6694 -0.2040
 6415TIP3    H119209   2.641   4.541   0.084  0.3264 -0.7899 -0.0199
 6415TIP3    H219210   2.698   4.672   0.135 -0.2443  0.1846 -1.8104
 6416TIP3   OH219211   3.166   5.601   0.595  0.3537 -0.3238 -0.8336
 6416TIP3    H119212   3.082   5.571   0.560 -0.3537  1.8050 -1.1361
 6416TIP3    H219213   3.181   5.545   0.671 -2.4318  0.5401  0.5055
 6417TIP3   OH219214   6.372   6.429   5.593  0.1958  0.9040  0.5503
 6417TIP3    H119215   6.372   6.516   5.631 -1.1430  0.6214  1.2628
 6417TIP3    H219216   6.284   6.396   5.608  0.5446 -0.4091 -0.0982
 6418TIP3   OH219217   1.318   4.551   1.378  0.2839 -0.6351  0.0611
 6418TIP3    H119218   1.371   4.474   1.356 -1.5597 -2.0327  0.3493
 6418TIP3    H219219   1.273   4.573   1.296 -0.4511 -0.8910  0.3925
 6419TIP3   OH219220   3.089   2.706   2.454  0.3780  0.6331  0.3154
 6419TIP3    H119221   3.111   2.686   2.363 -1.2958 -0.3148  0.0753
 6419TIP3    H219222   3.043   2.628   2.486  0.5924  1.0951  1.8695
 6420TIP3   OH219223   4.472   5.093   4.798 -0.3307  0.1101 -0.0785
 6420TIP3    H119224   4.560   5.077   4.763 -0.5351  0.9658 -1.0254
 6420TIP3    H219225   4.455   5.018   4.855  0.8476 -0.2708 -0.2048
 6421TIP3   OH219226   3.914   3.092   4.567  0.7942  0.0783  0.0650
 6421TIP3    H119227   3.935   3.129   4.653 -0.2195 -0.4124  0.5359
 6421TIP3    H219228   3.990   3.038   4.545  0.5065 -0.8697  1.2799
 6422TIP3   OH219229   2.506   4.056   2.520 -0.1471 -1.1243 -0.0552
 6422TIP3    H119230   2.578   4.038   2.581  1.2023 -0.5525 -1.4034
 6422TIP3    H219231   2.472   4.141   2.547  1.0483 -0.4434 -0.6016
 6423TIP3   OH219232   2.793   1.326   3.936  0.8095 -0.6478  0.2390
 6423TIP3    H119233   2.770   1.401   3.991  0.9650 -1.3956  1.3512
 6423TIP3    H219234   2.884   1.343   3.910  0.6900 -0.2203  0.0881
 6424TIP3   OH219235   4.538   0.569   1.363  0.9208 -0.1815 -0.4381
 6424TIP3    H119236   4.446   0.595   1.355  0.8589 -0.8126 -2.4380
 6424TIP3    H219237   4.572   0.623   1.434 -1.2176 -0.6418  1.0250
 6425TIP3   OH219238   5.168   6.035   1.624  0.0424  0.0594  0.2720
 6425TIP3    H119239   5.246   6.034   1.680 -0.2180  1.4514  0.7018
 6425TIP3    H219240   5.095   6.020   1.685  0.0219 -3.3626 -0.3835
 6426TIP3   OH219241   4.248   6.222   2.324  0.1590 -0.0897 -0.2344
 6426TIP3    H119242   4.343   6.230   2.315  0.1870  0.2215  0.3049
 6426TIP3    H219243   4.216   6.213   2.234  0.5296  1.6241 -0.5788
 6427TIP3   OH219244   5.058   2.611   1.491 -0.4216 -0.1515 -0.2744
 6427TIP3    H119245   4.999   2.586   1.419  0.6502  0.8801 -1.5709
 6427TIP3    H219246   5.001   2.618   1.568 -1.5916 -1.3804 -0.9935
 6428TIP3   OH219247   3.155   0.728   2.152 -0.0958  0.1835  0.4317
 6428TIP3    H119248   3.199   0.749   2.234 -0.0729  1.3087  0.1548
 6428TIP3    H219249   3.063   0.746   2.170 -0.2787 -0.8941  0.6136
 6429TIP3   OH219250   5.631   4.218   5.382 -0.1830  0.2007 -0.2480
 6429TIP3    H119251   5.547   4.255   5.409 -0.4794 -0.4053 -0.3349
 6429TIP3    H219252   5.614   4.179   5.296 -0.2503 -1.4633  0.4977
 6430TIP3   OH219253   3.256   0.097   3.462 -0.1880  0.0186 -0.1839
 6430TIP3    H119254   3.207   0.033   3.513  0.8687 -1.0702 -0.4873
 6430TIP3    H219255   3.224   0.182   3.492 -0.8198 -0.6295  1.0288
 6431TIP3   OH219256   1.405   2.920   5.489 -0.1104 -0.0516  0.4460
 6431TIP3    H119257   1.406   2.833   5.450 -2.4564 -0.2129  0.5808
 6431TIP3    H219258   1.444   2.976   5.421  2.3111 -1.2561  0.7302
 6432TIP3   OH219259   0.584   3.360   1.373 -0.3702  0.0339  0.5636
 6432TIP3    H119260   0.538   3.281   1.402 -1.9216  0.6732 -0.0267
 6432TIP3    H219261   0.657   3.369   1.434  0.5396 -2.4455 -0.0189
 6433TIP3   OH219262   2.177   3.646   1.768  0.3606 -0.2250 -0.3878
 6433TIP3    H119263   2.176   3.575   1.705  1.8222 -0.2135 -0.4454
 6433TIP3    H219264   2.123   3.715   1.728  0.2017 -0.7101 -1.0159
 6434TIP3   OH219265   1.106   3.923   4.287 -0.1595 -0.0361 -0.2475
 6434TIP3    H119266   1.026   3.956   4.328 -0.4693 -0.5598 -0.4164
 6434TIP3    H219267   1.167   3.996   4.290 -1.1513  0.8996 -1.5166
 6435TIP3   OH219268   6.527   4.629   2.501  0.4240 -0.1846  0.1369
 6435TIP3    H119269   6.602   4.572   2.483  0.2069  0.0261 -1.6247
 6435TIP3    H219270   6.451   4.572   2.487  0.2185 -0.4406  2.0638
 6436TIP3   OH219271   6.101   0.713   1.102 -0.2068  0.4117 -0.3515
 6436TIP3    H119272   6.129   0.804   1.096  2.1167 -0.1231  1.1044
 6436TIP3    H219273   6.023   0.715   1.158  1.7699  1.2609  2.5512
 6437TIP3   OH219274   4.383   4.177   1.950  0.6864  0.3313 -0.0635
 6437TIP3    H119275   4.471   4.198   1.921  0.6433  0.2597 -0.2535
 6437TIP3    H219276   4.395   4.110   2.018  0.7400 -0.3885 -0.7630
 6438TIP3   OH219277   0.021   3.365   5.174 -0.3370 -0.6550  0.3297
 6438TIP3    H119278  -0.006   3.436   5.115 -0.3259 -1.6438 -0.9043
 6438TIP3    H219279   0.011   3.402   5.261 -0.4968  0.8135 -0.2753
 6439TIP3   OH219280   6.587   3.663   5.348  0.1466  0.0656  0.1435
 6439TIP3    H119281   6.611   3.743   5.302 -1.4512  0.0333 -0.8134
 6439TIP3    H219282   6.557   3.692   5.434 -2.8253  0.8557 -1.0366
 6440TIP3   OH219283   4.374   0.885   4.366  0.1415 -0.6454  0.0364
 6440TIP3    H119284   4.445   0.871   4.303  0.7202 -0.2970  0.5993
 6440TIP3    H219285   4.303   0.921   4.314  0.0266 -1.9038 -0.7165
 6441TIP3   OH219286   3.182   5.997   0.436 -0.5336  0.4136  0.5728
 6441TIP3    H119287   3.185   5.901   0.437 -0.1333  0.4030 -0.4757
 6441TIP3    H219288   3.232   6.022   0.358 -0.8722  1.4676  0.6762
 6442TIP3   OH219289   1.414   1.446   0.707 -0.1470  0.4645 -0.0675
 6442TIP3    H119290   1.454   1.479   0.787 -0.8480  1.6798 -0.1922
 6442TIP3    H219291   1.326   1.420   0.734 -0.7889  1.9358 -0.6235
 6443TIP3   OH219292   2.278   3.826   3.497  0.4621  0.3142 -0.1578
 6443TIP3    H119293   2.300   3.737   3.526  0.2140  0.1581 -0.4370
 6443TIP3    H219294   2.357   3.877   3.514  0.3817  0.1850  0.6177
 6444TIP3   OH219295   1.934   0.722   4.868  0.0004  0.0272 -0.0965
 6444TIP3    H119296   1.949   0.691   4.957  1.1974 -0.2561 -0.3842
 6444TIP3    H219297   1.924   0.642   4.816  0.2189  0.1720 -0.3646
 6445TIP3   OH219298   1.977   2.313   2.073 -0.2671 -0.4351  0.1112
 6445TIP3    H119299   2.017   2.380   2.129  0.4657 -0.1020 -0.7912
 6445TIP3    H219300   1.927   2.363   2.008 -3.9597 -0.8274  2.3813
 6446TIP3   OH219301   0.012   4.164   1.917 -0.5074  0.4945 -0.3808
 6446TIP3    H119302   0.094   4.179   1.870 -0.4771  0.7144 -0.2604
 6446TIP3    H219303  -0.000   4.069   1.915  0.4268  0.3264  0.7275
 6447TIP3   OH219304   3.482   4.855   5.549 -0.1995  0.2632  0.1149
 6447TIP3    H119305   3.479   4.948   5.573 -1.0442  0.6440 -1.3154
 6447TIP3    H219306   3.425   4.849   5.472 -1.1206 -1.6793  0.8878
 6448TIP3   OH219307   0.252   2.654   2.985  0.0181  0.2308  0.2977
 6448TIP3    H119308   0.214   2.572   2.951 -0.9002  0.5145  0.5954
 6448TIP3    H219309   0.270   2.635   3.077  1.0177 -0.0346  0.0576
 6449TIP3   OH219310   0.887   4.678   1.030 -0.0410  0.0114 -0.0700
 6449TIP3    H119311   0.901   4.772   1.036  0.3524 -0.1261  2.5278
 6449TIP3    H219312   0.972   4.640   1.054 -0.6722 -0.9500  0.7548
 6450TIP3   OH219313   2.296   4.583   2.425 -0.2835  0.0151  0.6649
 6450TIP3    H119314   2.360   4.652   2.413 -0.2935 -0.2510 -1.2014
 6450TIP3    H219315   2.279   4.550   2.337  0.9212 -3.4469  1.5735
 6451TIP3   OH219316   2.608   5.260   5.096 -0.2351 -0.1935 -0.0706
 6451TIP3    H119317   2.519   5.264   5.130 -0.5568 -0.5677 -0.8569
 6451TIP3    H219318   2.630   5.167   5.097 -0.3371 -0.2399 -1.0877
 6452TIP3   OH219319   7.111   0.831   4.566  0.2375 -0.1581  0.1270
 6452TIP3    H119320   7.184   0.888   4.542 -0.5152  0.7632 -0.0341
 6452TIP3    H219321   7.146   0.775   4.635  1.4151 -0.4984 -0.7118
 6453TIP3   OH219322   2.727   5.328   2.517  0.5336  0.1190  0.1269
 6453TIP3    H119323   2.700   5.240   2.488 -0.6376  0.9906 -1.6360
 6453TIP3    H219324   2.645   5.373   2.537  1.2345 -0.1719  4.4684
 6454TIP3   OH219325   4.819   4.129   2.737  0.8570 -0.1151  0.1405
 6454TIP3    H119326   4.791   4.038   2.735 -1.1525  0.4495 -0.6166
 6454TIP3    H219327   4.793   4.160   2.824  1.5233 -0.2379  0.3908
 6455TIP3   OH219328   5.959   2.782   1.265 -0.1780 -0.1717 -0.1832
 6455TIP3    H119329   5.883   2.840   1.252 -0.6736 -0.7005  0.3271
 6455TIP3    H219330   5.982   2.754   1.176  0.0890  0.8299 -0.4391
 6456TIP3   OH219331   6.861   1.148   0.202 -0.6173 -0.3870 -0.3643
 6456TIP3    H119332   6.836   1.087   0.133 -1.8234 -0.2051 -0.1103
 6456TIP3    H219333   6.828   1.109   0.283  0.0527 -0.1947  0.0105
 6457TIP3   OH219334   5.099   4.745   3.966 -0.8086  0.4701 -0.2200
 6457TIP3    H119335   5.049   4.826   3.955  0.4711  1.3739  0.2792
 6457TIP3    H219336   5.131   4.750   4.057 -0.3891 -0.4010 -0.3174
 6458TIP3   OH219337   6.011   3.113   2.665 -0.0299 -0.3109 -0.1445
 6458TIP3    H119338   6.090   3.166   2.677 -0.2992 -0.2537  1.7206
 6458TIP3    H219339   5.959   3.162   2.602  0.9031  0.2542 -0.5007
 6459TIP3   OH219340   1.225   3.694   1.896  0.4346  0.2844 -0.3966
 6459TIP3    H119341   1.163   3.719   1.965  2.4861 -1.3487  2.2224
 6459TIP3    H219342   1.272   3.775   1.876  0.7643  0.5342  1.2296
 6460TIP3   OH219343   6.186   1.416   0.227  0.1092 -0.0393  0.8434
 6460TIP3    H119344   6.265   1.369   0.255  0.4369  0.5986  0.9990
 6460TIP3    H219345   6.193   1.419   0.131  0.7039  0.7399  0.8993
 6461TIP3   OH219346   5.957   5.258   1.970  0.5511 -0.5411  0.0142
 6461TIP3    H119347   5.994   5.287   2.054 -0.4264 -1.7083  0.8862
 6461TIP3    H219348   5.889   5.323   1.950 -0.1913 -1.0328  0.8757
 6462TIP3   OH219349   2.317   3.681   4.300  0.3335  0.4475  0.0710
 6462TIP3    H119350   2.259   3.707   4.372 -0.6112 -1.4973  0.0584
 6462TIP3    H219351   2.405   3.694   4.335 -0.1040 -0.2683  1.5185
 6463TIP3   OH219352   0.080   3.693   3.851 -0.1168  0.0500  0.2931
 6463TIP3    H119353   0.044   3.637   3.921 -0.4669  0.9641  0.8639
 6463TIP3    H219354   0.173   3.699   3.870 -0.3177  0.8480  1.1023
 6464TIP3   OH219355   3.405   5.480   0.270 -0.0712 -0.3568  0.4104
 6464TIP3    H119356   3.370   5.394   0.249 -0.1548  0.0611 -1.3131
 6464TIP3    H219357   3.397   5.530   0.189  1.2625  0.8487  0.9728
 6465TIP3   OH219358   6.073   4.219   1.674 -0.3815 -0.4599 -0.0246
 6465TIP3    H119359   6.027   4.154   1.726 -0.3468  0.1722  0.8079
 6465TIP3    H219360   6.071   4.299   1.727 -1.4067  0.5412 -1.4858
 6466TIP3   OH219361   1.928   2.980   4.542 -0.6073 -0.2058  0.1483
 6466TIP3    H119362   2.006   3.008   4.494 -0.1986 -0.6006  0.5694
 6466TIP3    H219363   1.948   3.001   4.634 -0.3406 -1.7433  0.4629
 6467TIP3   OH219364   0.766   2.553   0.425 -0.1914  0.1290 -0.4764
 6467TIP3    H119365   0.841   2.608   0.446 -1.1248  1.0490  0.5618
 6467TIP3    H219366   0.785   2.470   0.470  0.3825  0.2062 -0.5627
 6468TIP3   OH219367   4.568   3.989   0.260  0.6019 -0.0372  0.7365
 6468TIP3    H119368   4.615   3.967   0.341  0.6960 -0.1499  0.6515
 6468TIP3    H219369   4.634   4.030   0.204  0.4386  0.4229  0.8737
 6469TIP3   OH219370   6.740   1.088   3.252  0.4109  0.0280 -0.1209
 6469TIP3    H119371   6.761   1.152   3.320  2.0795 -0.7647  0.1410
 6469TIP3    H219372   6.705   1.013   3.300 -0.0642  0.1239 -0.3054
 6470TIP3   OH219373   3.804   2.106   2.630 -0.0357  0.4408 -0.5248
 6470TIP3    H119374   3.886   2.136   2.670 -1.8600  2.5968  2.0717
 6470TIP3    H219375   3.812   2.129   2.538  2.3379  0.3584 -0.4000
 6471TIP3   OH219376   1.188   0.486   5.670  0.0957  0.5928 -0.4198
 6471TIP3    H119377   1.250   0.537   5.617  0.9699  0.0498  0.0475
 6471TIP3    H219378   1.190   0.529   5.756  0.4066  0.1295 -0.1891
 6472TIP3   OH219379   6.750   1.285   2.688 -0.1412  0.1137  0.5335
 6472TIP3    H119380   6.715   1.198   2.706  1.0972 -0.5373 -0.0707
 6472TIP3    H219381   6.710   1.342   2.754 -0.6134 -0.9865  1.2172
 6473TIP3   OH219382   1.233   0.085   4.682 -0.1238  0.0563 -0.1552
 6473TIP3    H119383   1.178   0.014   4.716 -0.3092  1.2690  2.2873
 6473TIP3    H219384   1.321   0.047   4.680 -0.5288 -0.9010 -1.0542
 6474TIP3   OH219385   1.712   0.456   0.932  0.0005  0.1719  0.1135
 6474TIP3    H119386   1.622   0.486   0.943 -0.3083 -0.3531 -0.8508
 6474TIP3    H219387   1.765   0.534   0.948 -0.6353  0.5610  0.3879
 6475TIP3   OH219388   5.395   3.836   2.088 -0.2493  0.7211  0.3127
 6475TIP3    H119389   5.377   3.742   2.083  0.1176  0.6269  0.6909
 6475TIP3    H219390   5.308   3.877   2.081 -0.3365  0.3934 -0.6185
 6476TIP3   OH219391   6.076   1.240   3.020 -0.1679 -0.2276  0.2587
 6476TIP3    H119392   6.005   1.304   3.013 -0.9891 -1.0491  0.8324
 6476TIP3    H219393   6.039   1.169   3.073  0.5367 -1.4350 -0.8241
 6477TIP3   OH219394   2.646   3.040   0.793  0.5851 -0.2195  0.7213
 6477TIP3    H119395   2.581   2.971   0.779 -1.0386  1.1577  1.1864
 6477TIP3    H219396   2.668   3.070   0.705 -1.4740  1.0952  0.5851
 6478TIP3   OH219397   3.562   2.093   0.140  0.3274  0.4475 -0.0109
 6478TIP3    H119398   3.573   2.182   0.174  0.1315  0.6169 -0.3819
 6478TIP3    H219399   3.620   2.040   0.194 -0.7634  0.5278  1.2790
 6479TIP3   OH219400   1.798   5.769   3.831  0.3703  0.2736  0.4182
 6479TIP3    H119401   1.845   5.804   3.907 -0.8992  1.0479  0.8864
 6479TIP3    H219402   1.737   5.706   3.868  2.9450 -3.0270 -0.4495
 6480TIP3   OH219403   5.975   3.314   0.045  0.5705 -0.7503  0.1664
 6480TIP3    H119404   5.996   3.304   0.138  2.4000 -1.3425 -0.2683
 6480TIP3    H219405   6.027   3.246   0.001  0.8371  0.4044 -1.4088
 6481TIP3   OH219406   0.821   0.152   5.304  0.0413  0.0361 -0.4808
 6481TIP3    H119407   0.912   0.164   5.275  0.2664  0.8150  0.4912
 6481TIP3    H219408   0.825   0.079   5.365  0.0535  0.1807 -0.3061
 6482TIP3   OH219409   1.124   4.054   1.289  0.0201  0.0390  0.3711
 6482TIP3    H119410   1.095   4.051   1.197  1.2558 -1.8035 -0.0043
 6482TIP3    H219411   1.060   4.112   1.331  0.6157  2.6822 -2.0315
 6483TIP3   OH219412   6.192   6.614   3.029  0.3447  0.3004 -0.5439
 6483TIP3    H119413   6.192   6.693   3.082  0.6713 -0.5034  0.6941
 6483TIP3    H219414   6.280   6.579   3.037  0.0592 -0.4679 -0.6314
 6484TIP3   OH219415   5.020   0.894   5.662 -0.4061  0.5967 -0.3199
 6484TIP3    H119416   5.047   0.808   5.631 -1.4674  0.2191 -0.2438
 6484TIP3    H219417   5.047   0.896   5.754  2.8711  1.7743 -1.1547
 6485TIP3   OH219418   6.282   6.247   2.188  0.0576 -0.0444  0.0343
 6485TIP3    H119419   6.334   6.206   2.119 -0.8291 -0.2672 -0.5260
 6485TIP3    H219420   6.227   6.310   2.141  0.0523  0.4173  0.6524
 6486TIP3   OH219421   0.655   3.104   5.659 -0.0694  0.4516 -0.5431
 6486TIP3    H119422   0.589   3.064   5.716  0.0566  1.5762  0.4437
 6486TIP3    H219423   0.649   3.056   5.577 -0.5479 -0.9521  0.2884
 6487TIP3   OH219424   6.799   3.725   3.912 -0.1585  0.3065  0.0781
 6487TIP3    H119425   6.762   3.645   3.874 -2.3389  1.8333 -1.2136
 6487TIP3    H219426   6.889   3.728   3.878 -1.1636  0.1821 -2.8378
 6488TIP3   OH219427   3.334   5.716   0.416 -0.6496  0.0754 -0.1782
 6488TIP3    H119428   3.363   5.642   0.362 -0.5025 -0.2798  0.3691
 6488TIP3    H219429   3.268   5.678   0.474 -1.8858  0.7708 -1.0832
 6489TIP3   OH219430   2.886   1.423   4.939  0.2998  0.5842 -0.1098
 6489TIP3    H119431   2.801   1.463   4.959 -0.4299 -0.1052 -1.6601
 6489TIP3    H219432   2.866   1.355   4.875  1.7284 -1.1305  1.1377
 6490TIP3   OH219433   7.196   1.526   4.430  0.3835 -0.5039 -0.6152
 6490TIP3    H119434   7.103   1.503   4.427  0.1789  0.0934  0.5962
 6490TIP3    H219435   7.210   1.557   4.519  1.8813 -1.0956 -0.6271
 6491TIP3   OH219436   3.995   0.049   1.796 -0.3199  0.4441  0.5493
 6491TIP3    H119437   4.038   0.100   1.865 -0.4788  0.2719  0.7794
 6491TIP3    H219438   3.902   0.051   1.819 -0.6863  2.2031 -0.8432
 6492TIP3   OH219439   3.056   0.694   1.827 -0.2549  0.0520 -0.1391
 6492TIP3    H119440   3.138   0.741   1.819  0.2205 -0.6589  0.4000
 6492TIP3    H219441   3.078   0.614   1.875 -1.1534 -0.4168 -0.4645
 6493TIP3   OH219442   2.953   1.537   2.321 -0.2190  0.1232  0.1852
 6493TIP3    H119443   2.877   1.527   2.263 -0.6522 -4.0090  1.1643
 6493TIP3    H219444   3.005   1.458   2.306  2.5413  1.5392  1.5354
 6494TIP3   OH219445   2.050   2.668   3.068  0.1045 -0.0648  0.3377
 6494TIP3    H119446   2.093   2.634   2.990  0.0318 -1.7570  0.9858
 6494TIP3    H219447   2.072   2.761   3.070  0.0214  0.0308 -1.7244
 6495TIP3   OH219448   0.252   3.784   0.725 -0.6715  0.2320  0.2005
 6495TIP3    H119449   0.177   3.761   0.779 -0.6245 -0.4798 -0.0230
 6495TIP3    H219450   0.324   3.797   0.787 -0.6992 -0.2508  0.3379
 6496TIP3   OH219451   0.743   0.329   2.410  0.5323  0.0999  0.4492
 6496TIP3    H119452   0.791   0.344   2.329 -0.7084  0.4418 -0.2556
 6496TIP3    H219453   0.768   0.402   2.467 -0.2670  1.1117 -0.4616
 6497TIP3   OH219454   4.016   1.272   0.637 -0.8037  0.0123  0.7150
 6497TIP3    H119455   3.949   1.320   0.589  0.2814  0.6969 -0.1542
 6497TIP3    H219456   4.046   1.333   0.704  0.5685  0.5777 -0.3830
 6498TIP3   OH219457   1.181   5.041   2.044 -0.4648  0.6396 -0.0716
 6498TIP3    H119458   1.119   5.001   1.984  0.2006 -1.2106  0.3905
 6498TIP3    H219459   1.129   5.103   2.095 -1.4730  0.6579 -1.0930
 6499TIP3   OH219460   6.101   1.186   4.105 -0.3334 -1.0145  0.3702
 6499TIP3    H119461   6.072   1.095   4.097  2.0603 -1.8624  0.4974
 6499TIP3    H219462   6.103   1.202   4.199 -1.2398 -0.6216  0.3362
 6500TIP3   OH219463   0.906   4.568   5.682 -0.1106 -0.1192 -0.0279
 6500TIP3    H119464   0.817   4.595   5.659 -0.3922  0.3008  1.4592
 6500TIP3    H219465   0.901   4.545   5.775  0.3521 -4.3500 -0.8648
 6501TIP3   OH219466   1.808   0.721   5.688  0.3352 -0.2704 -0.4147
 6501TIP3    H119467   1.751   0.797   5.675 -1.5219 -1.7269 -1.2131
 6501TIP3    H219468   1.749   0.646   5.686  1.9929 -1.7110  1.2757
 6502TIP3   OH219469   3.782  -0.013   0.335  0.5486 -0.4315  0.0752
 6502TIP3    H119470   3.756   0.057   0.275 -0.6484 -0.7498  0.1965
 6502TIP3    H219471   3.789   0.030   0.420 -1.2294 -0.6188  0.3552
 6503TIP3   OH219472   6.092   2.297   1.287 -0.0622  0.5348 -0.1255
 6503TIP3    H119473   6.085   2.342   1.371  0.4153 -2.0218  1.3885
 6503TIP3    H219474   6.050   2.356   1.224 -0.0838  2.7070  1.8027
 6504TIP3   OH219475   2.963   5.281   2.665 -0.8489 -0.6481  0.0381
 6504TIP3    H119476   2.928   5.194   2.686 -1.3460 -0.6338 -0.6928
 6504TIP3    H219477   2.899   5.319   2.605  0.0653 -0.3253 -0.7634
 6505TIP3   OH219478   1.661   6.754   4.978 -0.0094 -0.2293 -0.7821
 6505TIP3    H119479   1.699   6.779   4.894 -0.8846  1.9527 -0.6062
 6505TIP3    H219480   1.580   6.805   4.983 -0.0141 -0.3611  1.3469
 6506TIP3   OH219481   2.708   3.527   3.836  0.2281  0.0774  0.3053
 6506TIP3    H119482   2.672   3.459   3.893  3.3925 -1.9399  0.1140
 6506TIP3    H219483   2.757   3.584   3.894  0.4956  0.1383  0.0219
 6507TIP3   OH219484   5.970   2.638   2.706 -0.9546  0.0175 -0.0011
 6507TIP3    H119485   5.966   2.734   2.711 -1.9191  0.2678 -3.2187
 6507TIP3    H219486   5.904   2.609   2.769 -0.3124  1.4082  1.3845
 6508TIP3   OH219487   4.738   2.507   2.925  0.2863  0.5082 -0.1869
 6508TIP3    H119488   4.774   2.456   2.997 -0.2053  0.1443 -0.1980
 6508TIP3    H219489   4.743   2.449   2.849 -0.5367  0.3643 -0.1401
 6509TIP3   OH219490   2.359   4.132   5.267 -0.3266 -0.3071  0.2343
 6509TIP3    H119491   2.414   4.207   5.289  1.6619 -1.2176 -1.3606
 6509TIP3    H219492   2.397   4.059   5.317 -0.3884 -0.8515 -0.5055
 6510TIP3   OH219493   4.799   6.489   5.639  0.2118 -0.0610 -0.3715
 6510TIP3    H119494   4.775   6.574   5.676 -1.5481 -0.2490 -1.0091
 6510TIP3    H219495   4.872   6.510   5.580  1.3220  0.6207  1.1626
 6511TIP3   OH219496   5.877   0.151   5.332 -0.0575  0.5301 -0.0974
 6511TIP3    H119497   5.859   0.157   5.238 -0.1870 -1.7999 -0.2925
 6511TIP3    H219498   5.922   0.232   5.353  0.1014  1.0520 -2.2046
 6512TIP3   OH219499   0.969   6.204   2.850 -0.3741  0.3202  0.4689
 6512TIP3    H119500   0.889   6.228   2.897 -0.5461  5.3128 -1.6945
 6512TIP3    H219501   1.031   6.274   2.871  2.7170 -2.1579  0.2728
 6513TIP3   OH219502   5.281   2.322   1.318 -0.4094  0.4144  0.6498
 6513TIP3    H119503   5.286   2.266   1.395 -0.6440 -1.8084 -0.8704
 6513TIP3    H219504   5.196   2.302   1.279  0.5585 -0.1221 -1.3078
 6514TIP3   OH219505   4.252   6.522   0.592 -0.6523 -0.8009  0.2564
 6514TIP3    H119506   4.158   6.514   0.608 -0.8798  0.4762 -0.3024
 6514TIP3    H219507   4.267   6.480   0.507 -1.3232  1.7828 -1.2473
 6515TIP3   OH219508   4.389   3.878   1.475 -0.1135 -0.0859  0.0091
 6515TIP3    H119509   4.448   3.910   1.543  0.2513  2.0591 -1.2152
 6515TIP3    H219510   4.424   3.792   1.451  0.6246 -0.2207  1.4574
 6516TIP3   OH219511   3.947   1.200   1.689  0.6374  0.0062 -0.4299
 6516TIP3    H119512   3.924   1.179   1.599 -2.4428  0.5248  0.1393
 6516TIP3    H219513   3.934   1.118   1.737  0.7485  0.1171 -0.2097
 6517TIP3   OH219514   3.349   6.705   2.840  0.4320  0.6323  0.4024
 6517TIP3    H119515   3.323   6.699   2.932  1.9150  0.3912  0.8340
 6517TIP3    H219516   3.387   6.792   2.831  1.3153  0.2541  0.3186
 6518TIP3   OH219517   0.386   3.106   1.075 -0.0272  0.4318  0.1667
 6518TIP3    H119518   0.380   3.198   1.103 -1.4731  0.1533  0.8767
 6518TIP3    H219519   0.398   3.111   0.980 -1.8124  1.3699 -0.0586
 6519TIP3   OH219520   2.931   1.657   2.594  0.1041  0.1087  0.3785
 6519TIP3    H119521   2.844   1.617   2.598 -0.4512  1.1868 -0.3550
 6519TIP3    H219522   2.969   1.623   2.512  0.6563 -0.8765  1.0249
 6520TIP3   OH219523   3.117   0.708   3.858  0.0584  1.0265 -0.3562
 6520TIP3    H119524   3.086   0.798   3.869  0.2082  1.0822 -0.3918
 6520TIP3    H219525   3.198   0.704   3.908  0.4568  1.1271 -0.9842
 6521TIP3   OH219526   1.116   6.738   0.557  0.1080  0.3696  0.5629
 6521TIP3    H119527   1.046   6.800   0.574  0.5224  0.5909  1.5122
 6521TIP3    H219528   1.189   6.769   0.611  1.7406  1.4948 -2.1036
 6522TIP3   OH219529   4.737   3.166   2.207 -0.3035  0.0483  0.7424
 6522TIP3    H119530   4.700   3.228   2.270 -0.2581  0.4620  0.3645
 6522TIP3    H219531   4.817   3.134   2.249 -0.4954  0.0010  1.0742
 6523TIP3   OH219532   4.738   5.892   3.264  0.7621 -0.0678 -0.4155
 6523TIP3    H119533   4.834   5.894   3.267  0.7451 -0.5076  1.5003
 6523TIP3    H219534   4.711   5.908   3.354 -0.9557 -0.8377 -0.7575
 6524TIP3   OH219535   4.856   0.312   3.835  0.5952 -0.5678 -0.3116
 6524TIP3    H119536   4.917   0.374   3.794  0.4997  0.6222  1.2703
 6524TIP3    H219537   4.771   0.336   3.800  0.3502  1.2250  1.4131
 6525TIP3   OH219538   6.147   0.129   2.998  0.1282  0.0100  0.2701
 6525TIP3    H119539   6.169   0.222   3.001 -0.2232  0.1649 -1.2887
 6525TIP3    H219540   6.074   0.123   2.937  0.3592 -1.3329  0.0916
 6526TIP3   OH219541   3.102   6.157   1.034 -0.1375 -0.2539  0.0273
 6526TIP3    H119542   3.131   6.159   1.125 -1.8557  1.1615  0.5947
 6526TIP3    H219543   3.125   6.243   0.999 -1.6424  0.1195 -0.1230
 6527TIP3   OH219544   3.026   2.124   2.406 -0.2259 -0.2548 -0.2951
 6527TIP3    H119545   3.062   2.121   2.494 -0.2905  0.4818 -0.2377
 6527TIP3    H219546   2.967   2.048   2.402 -0.6377  0.0121  0.4822
 6528TIP3   OH219547   4.683   2.236   2.326 -0.2595 -0.6883 -0.2594
 6528TIP3    H119548   4.618   2.238   2.255 -1.5922 -0.5071  0.9165
 6528TIP3    H219549   4.645   2.177   2.391 -0.1588  0.9198  1.3061
 6529TIP3   OH219550   1.058   2.831   3.513 -0.1541  0.2409 -0.2347
 6529TIP3    H119551   1.117   2.755   3.515  2.1594  1.8915 -1.1464
 6529TIP3    H219552   1.043   2.852   3.605  0.9884 -0.0347  0.0355
 6530TIP3   OH219553   2.742   2.120   0.760 -0.3193  0.1211  0.1910
 6530TIP3    H119554   2.705   2.032   0.765  0.3794 -0.4290 -2.6890
 6530TIP3    H219555   2.811   2.121   0.826 -0.2829 -1.5331  0.2034
 6531TIP3   OH219556   3.029   3.368   3.730  0.0400  0.4754  0.2634
 6531TIP3    H119557   3.081   3.445   3.751 -2.6032  1.6753  3.3043
 6531TIP3    H219558   2.976   3.353   3.809 -2.3169 -2.1549 -1.6220
 6532TIP3   OH219559   2.275   6.277   5.449 -0.1475  0.4280 -0.0244
 6532TIP3    H119560   2.320   6.355   5.417 -0.5271  1.6247  2.1005
 6532TIP3    H219561   2.183   6.291   5.427 -0.1073  0.2021 -0.3352
 6533TIP3   OH219562   5.391   3.179   4.194 -0.3864 -0.2714  0.5497
 6533TIP3    H119563   5.464   3.239   4.213 -1.0925  0.7652  0.0815
 6533TIP3    H219564   5.389   3.174   4.098 -1.4862  0.4475  0.5137
 6534TIP3   OH219565   6.258   5.402   0.471  0.4236 -0.4027 -0.4287
 6534TIP3    H119566   6.165   5.405   0.449  0.7477 -0.9244 -1.9991
 6534TIP3    H219567   6.302   5.427   0.391  1.6273  2.5467  1.0302
 6535TIP3   OH219568   3.103   4.669   0.100  0.7642 -0.0869 -0.3382
 6535TIP3    H119569   3.118   4.626   0.185 -0.1218 -0.1368 -0.2034
 6535TIP3    H219570   3.180   4.724   0.088  3.1282 -3.3460 -1.5901
 6536TIP3   OH219571   7.082   3.314   1.403 -0.3154 -0.2150 -0.2892
 6536TIP3    H119572   7.056   3.353   1.486 -0.5983 -0.1772 -0.3936
 6536TIP3    H219573   7.096   3.389   1.345 -0.4564 -0.2556 -0.3742
 6537TIP3   OH219574   5.687   4.188   0.785 -0.0632  0.5423  0.2537
 6537TIP3    H119575   5.645   4.131   0.721  0.4365  0.6956 -0.2200
 6537TIP3    H219576   5.780   4.185   0.762 -0.0417  1.6386  0.1477
 6538TIP3   OH219577   7.006   4.298   0.184 -0.0419 -0.1410  0.3366
 6538TIP3    H119578   7.053   4.245   0.249 -1.3940 -0.1448  1.3519
 6538TIP3    H219579   7.069   4.365   0.158  0.7949 -0.6288  1.0452
 6539TIP3   OH219580   5.675   5.419   0.027  0.5902  0.3893 -0.3236
 6539TIP3    H119581   5.627   5.423   0.110  1.4135  1.3236  0.1346
 6539TIP3    H219582   5.707   5.508   0.013  0.3183  0.2848 -1.7528
 6540TIP3   OH219583   6.326   0.095   4.755 -0.4049  0.3911 -0.2965
 6540TIP3    H119584   6.311   0.095   4.660  0.0055  1.4230 -0.3698
 6540TIP3    H219585   6.310   0.186   4.782  0.2910  0.2878  0.4945
 6541TIP3   OH219586   1.124   0.235   4.467  0.2187 -0.5482  0.2267
 6541TIP3    H119587   1.171   0.192   4.538  0.5782  1.1435  1.0644
 6541TIP3    H219588   1.192   0.275   4.413 -0.0727 -1.5206 -0.8918
 6542TIP3   OH219589   6.070   2.142   2.580 -0.4281  0.0883 -0.2372
 6542TIP3    H119590   6.103   2.230   2.563  0.2780 -0.1371 -0.0771
 6542TIP3    H219591   6.145   2.095   2.618 -0.5277 -0.8349 -1.1288
 6543TIP3   OH219592   4.660   5.336   1.212 -0.8427 -0.0320 -0.2882
 6543TIP3    H119593   4.566   5.336   1.193 -1.1172  0.2223  0.9487
 6543TIP3    H219594   4.690   5.423   1.185 -1.4904  0.8180  1.5749
 6544TIP3   OH219595   2.732   3.778   0.240  0.1667 -0.0455  0.1333
 6544TIP3    H119596   2.710   3.716   0.170 -1.0052 -0.8554  1.1780
 6544TIP3    H219597   2.755   3.722   0.314  0.3592  0.7967  0.7157
 6545TIP3   OH219598   4.750   0.151   1.791  0.1638 -0.5597 -0.6659
 6545TIP3    H119599   4.767   0.185   1.879 -0.3733  1.9509 -1.4467
 6545TIP3    H219600   4.688   0.080   1.805  1.1998 -1.1910  1.0830
 6546TIP3   OH219601   2.627   2.144   2.562  0.3784  0.3213 -0.7040
 6546TIP3    H119602   2.713   2.107   2.578 -0.0695  0.3937  2.5788
 6546TIP3    H219603   2.575   2.072   2.528  0.7452 -0.8718  1.1254
 6547TIP3   OH219604   6.120   1.193   3.604 -0.1002 -0.0155 -0.1287
 6547TIP3    H119605   6.113   1.275   3.555  0.9571  0.8260  1.0607
 6547TIP3    H219606   6.075   1.211   3.687 -2.1502 -1.5251 -0.8246
 6548TIP3   OH219607   1.655   6.319   0.091  0.0346 -0.1116  0.2276
 6548TIP3    H119608   1.582   6.324   0.029 -1.0540  1.0673  1.5204
 6548TIP3    H219609   1.612   6.302   0.176  1.1855  1.3797  1.1443
 6549TIP3   OH219610   6.348   4.934   2.747  0.4235 -0.0138  0.3635
 6549TIP3    H119611   6.417   4.922   2.681 -1.2392  0.4352 -1.5453
 6549TIP3    H219612   6.359   5.024   2.777  0.5034  0.1471 -0.1372
 6550TIP3   OH219613   5.354   2.762   3.285  0.4204  0.0371  0.6963
 6550TIP3    H119614   5.349   2.684   3.341  0.8561 -0.2690  0.3172
 6550TIP3    H219615   5.327   2.732   3.199  3.7880 -0.5705 -0.2922
 6551TIP3   OH219616   3.080   1.427   1.019  0.6826  0.0213 -0.5323
 6551TIP3    H119617   2.985   1.421   1.013  0.6975  0.7319 -1.8614
 6551TIP3    H219618   3.113   1.367   0.952  1.1895 -0.5278  0.1922
 6552TIP3   OH219619   4.604   4.912   4.642  0.3787  0.2118 -0.0292
 6552TIP3    H119620   4.681   4.942   4.596  0.5458 -0.4327 -0.1876
 6552TIP3    H219621   4.561   4.852   4.581 -0.0739  0.3233  0.1735
 6553TIP3   OH219622   2.018   6.431   1.614  0.2046  0.0775  0.1235
 6553TIP3    H119623   1.930   6.431   1.577 -0.4868  2.7753  1.4645
 6553TIP3    H219624   2.005   6.403   1.705  0.6118  0.8887  0.4476
 6554TIP3   OH219625   4.041   1.138   0.154  0.0436  0.6998 -0.4721
 6554TIP3    H119626   4.104   1.108   0.220 -0.2041  1.3088  0.0568
 6554TIP3    H219627   4.056   1.233   0.148 -2.6630  1.4136  1.7513
 6555TIP3   OH219628   0.705   1.323   4.251  0.1474  0.1908  0.5593
 6555TIP3    H119629   0.610   1.323   4.240  0.1829  1.3979  0.0867
 6555TIP3    H219630   0.729   1.230   4.256 -1.2084 -0.1252  2.2093
 6556TIP3   OH219631   6.153   5.746   3.847 -0.8699  0.1595 -0.4075
 6556TIP3    H119632   6.206   5.826   3.856  1.6110 -1.2356 -1.5186
 6556TIP3    H219633   6.183   5.708   3.764 -1.4460 -2.2992  0.4546
 6557TIP3   OH219634   1.088   1.117   2.916  1.1120  0.1929 -0.4609
 6557TIP3    H119635   1.137   1.054   2.864  0.6967 -0.4560 -0.0827
 6557TIP3    H219636   1.116   1.102   3.006  1.6493  1.1465 -0.4648
 6558TIP3   OH219637   1.644   4.833   0.009 -0.7231 -0.2273 -0.7857
 6558TIP3    H119638   1.583   4.775  -0.037  0.1735 -2.0417  0.1801
 6558TIP3    H219639   1.706   4.774   0.051  0.4082  1.4748  0.0705
 6559TIP3   OH219640   2.802   1.179   4.362 -0.1307 -0.2482  0.2182
 6559TIP3    H119641   2.819   1.086   4.377 -0.6858 -0.5459 -0.9550
 6559TIP3    H219642   2.868   1.223   4.416 -0.3843 -1.2938  1.4316
 6560TIP3   OH219643   3.184   4.987   0.344 -0.3994 -0.4710 -0.5962
 6560TIP3    H119644   3.261   4.931   0.343 -0.0305 -0.1316  1.9946
 6560TIP3    H219645   3.126   4.947   0.409 -0.6795  1.3758  0.3553
 6561TIP3   OH219646   5.862   0.978   0.866 -0.0642  0.1774 -0.0378
 6561TIP3    H119647   5.915   1.008   0.940 -0.7909 -0.0779  0.6023
 6561TIP3    H219648   5.909   0.902   0.832 -0.6861 -0.9234  1.4123
 6562TIP3   OH219649   3.241   5.531   5.235  0.0061  0.0762 -1.0759
 6562TIP3    H119650   3.266   5.441   5.255 -0.4926  0.0938 -0.2982
 6562TIP3    H219651   3.145   5.532   5.243  0.0520  0.8122 -0.4334
 6563TIP3   OH219652   5.987   2.309   3.366 -0.5126  0.0632 -0.7165
 6563TIP3    H119653   5.988   2.215   3.350  0.5036 -0.1426  0.3686
 6563TIP3    H219654   6.072   2.327   3.406 -0.7431  1.4227 -0.7905
 6564TIP3   OH219655   6.698   0.357   1.644  0.1697 -0.1421  0.9067
 6564TIP3    H119656   6.643   0.285   1.616  0.3630  0.5778 -1.5736
 6564TIP3    H219657   6.660   0.386   1.727 -3.4215  0.4749 -0.7550
 6565TIP3   OH219658   4.982   5.812   4.601 -0.1644 -0.3198 -0.0812
 6565TIP3    H119659   4.923   5.824   4.675  0.7838 -1.0687  0.8214
 6565TIP3    H219660   4.932   5.762   4.537 -1.8877  2.4735 -1.0922
 6566TIP3   OH219661   4.032   1.612   2.588 -0.3211 -0.0534  0.0636
 6566TIP3    H119662   3.995   1.657   2.663 -0.9443  0.7446 -0.6974
 6566TIP3    H219663   4.106   1.668   2.561 -0.6687  0.1639 -0.4622
 6567TIP3   OH219664   4.478   2.570   4.216  0.3283 -0.4321 -0.2787
 6567TIP3    H119665   4.515   2.484   4.199 -1.3555 -1.3488  0.4893
 6567TIP3    H219666   4.448   2.600   4.130  3.3858  0.7112 -1.1047
 6568TIP3   OH219667   3.103   3.844   1.792  0.3114  0.0519  0.3091
 6568TIP3    H119668   3.163   3.862   1.719  1.6263 -0.2605  1.2652
 6568TIP3    H219669   3.156   3.860   1.871 -0.9740  0.0766  1.1939
 6569TIP3   OH219670   0.867   3.982   4.434 -0.8502  0.2488  0.2535
 6569TIP3    H119671   0.837   3.898   4.468 -1.3734 -0.2527 -1.3507
 6569TIP3    H219672   0.799   4.008   4.372 -0.1798  1.3513 -0.0381
 6570TIP3   OH219673   4.829   5.456   0.873 -0.1524 -0.0712  0.4299
 6570TIP3    H119674   4.741   5.469   0.838 -0.5294  1.8515  1.8900
 6570TIP3    H219675   4.837   5.361   0.885 -2.4633 -0.2205  1.2634
 6571TIP3   OH219676   3.127   6.806   1.326 -0.1123 -0.0825  0.7791
 6571TIP3    H119677   3.174   6.726   1.305 -0.0199  0.0908  0.3279
 6571TIP3    H219678   3.092   6.836   1.243 -0.0130  0.4347  0.9216
 6572TIP3   OH219679   0.071   5.430   1.639 -0.5917  0.2061  0.1909
 6572TIP3    H119680   0.012   5.502   1.617  1.6257  1.9980 -0.1888
 6572TIP3    H219681   0.114   5.458   1.719 -0.7657 -1.4240  0.8961
 6573TIP3   OH219682   5.010   6.706   2.085  0.0210  0.0060 -0.1614
 6573TIP3    H119683   5.095   6.734   2.118  1.4629 -1.5198 -2.3078
 6573TIP3    H219684   5.007   6.612   2.105 -2.7310  0.5966  2.9183
 6574TIP3   OH219685   5.770   4.484   5.651 -0.6282  0.2004  0.1178
 6574TIP3    H119686   5.676   4.479   5.632 -0.7088  0.8657  0.2845
 6574TIP3    H219687   5.784   4.576   5.676 -0.0182 -0.0009  0.5433
 6575TIP3   OH219688   6.481   4.411   0.078 -0.0740 -0.1540  0.2522
 6575TIP3    H119689   6.453   4.497   0.107  1.7636  0.6023 -0.0541
 6575TIP3    H219690   6.542   4.381   0.147 -0.6842 -1.2141  0.3556
 6576TIP3   OH219691   5.552   3.223   0.531 -0.2856 -0.0166 -0.3768
 6576TIP3    H119692   5.501   3.158   0.484 -0.4915 -0.7947  0.9023
 6576TIP3    H219693   5.584   3.282   0.462 -1.4136 -0.5320 -1.3760
 6577TIP3   OH219694   4.337   0.816   4.942 -0.0944  0.2087  0.3334
 6577TIP3    H119695   4.316   0.858   4.858 -0.9132  0.1422  0.4978
 6577TIP3    H219696   4.423   0.777   4.927  0.4940  1.5501  0.0365
 6578TIP3   OH219697   1.186   3.224   3.450 -0.0744 -0.1648  0.4464
 6578TIP3    H119698   1.113   3.163   3.461 -0.5242 -0.1021 -1.6318
 6578TIP3    H219699   1.204   3.222   3.356  1.3566  1.2689  0.6473
 6579TIP3   OH219700   6.481   2.806   3.302 -0.3950 -0.1112 -0.2620
 6579TIP3    H119701   6.469   2.743   3.373 -0.6466  0.0562 -0.1546
 6579TIP3    H219702   6.450   2.889   3.338 -1.3469 -0.1940 -0.8588
 6580TIP3   OH219703   4.107   0.273   3.880 -0.0873  0.0341 -0.8507
 6580TIP3    H119704   4.055   0.351   3.899 -0.3235 -0.6523  1.7050
 6580TIP3    H219705   4.069   0.238   3.799 -1.0755  1.6266 -1.1155
 6581TIP3   OH219706   1.754   1.720   5.397  0.2202 -0.6331 -0.5087
 6581TIP3    H119707   1.809   1.798   5.403 -0.3590 -0.3100  0.9669
 6581TIP3    H219708   1.681   1.737   5.457 -0.0556 -2.2024 -0.3566
 6582TIP3   OH219709   5.773   1.203   5.318  0.5185  0.3711 -0.1721
 6582TIP3    H119710   5.740   1.191   5.229 -2.5238 -0.6116  0.9725
 6582TIP3    H219711   5.809   1.117   5.341 -1.1399 -0.2098  0.4017
 6583TIP3   OH219712   0.228   5.453   5.136 -0.2442  0.0400  0.0750
 6583TIP3    H119713   0.172   5.417   5.068 -0.9784 -1.8247  1.5691
 6583TIP3    H219714   0.292   5.385   5.153 -0.7418 -0.0148  1.9544
 6584TIP3   OH219715   6.169   0.845   1.612  0.0617  0.0033  0.6319
 6584TIP3    H119716   6.261   0.867   1.595 -0.1551  0.3394 -0.1123
 6584TIP3    H219717   6.141   0.795   1.536  0.0370 -1.3807  1.5081
 6585TIP3   OH219718   3.052   5.411   1.520 -0.5311 -0.1444 -0.1416
 6585TIP3    H119719   3.051   5.327   1.473 -2.1253  0.2399 -0.8507
 6585TIP3    H219720   3.044   5.386   1.612 -1.4520 -0.7627 -0.3778
 6586TIP3   OH219721   5.884   4.637   1.284  0.0796 -0.0566  0.4905
 6586TIP3    H119722   5.915   4.714   1.237 -1.0430  0.3128  0.3091
 6586TIP3    H219723   5.961   4.602   1.329  1.3154 -0.7408 -2.0197
 6587TIP3   OH219724   4.269   3.898   5.496 -0.4201 -0.5668  0.1151
 6587TIP3    H119725   4.228   3.913   5.581 -0.9857  1.6728 -0.4800
 6587TIP3    H219726   4.363   3.904   5.514 -0.5521  1.9100  0.3530
 6588TIP3   OH219727   4.952   4.429   3.370 -0.9267  0.6642 -0.0097
 6588TIP3    H119728   5.032   4.451   3.418 -1.8098  0.6502  1.5378
 6588TIP3    H219729   4.983   4.406   3.282  0.7166  1.0617  0.4137
 6589TIP3   OH219730   7.156   3.197   3.102  0.1291  0.6426 -0.2156
 6589TIP3    H119731   7.223   3.197   3.033  0.2097 -1.8413 -0.2243
 6589TIP3    H219732   7.200   3.159   3.178 -0.8949  0.2806  0.2122
 6590TIP3   OH219733   2.440   0.717   4.569 -0.2735  0.0065 -0.3511
 6590TIP3    H119734   2.457   0.748   4.658 -1.5159  1.2095 -0.5026
 6590TIP3    H219735   2.518   0.667   4.546 -0.1697 -0.8490  1.6327
 6591TIP3   OH219736   2.849   3.084   2.950 -0.5734  0.3937  0.1260
 6591TIP3    H119737   2.938   3.054   2.935 -1.6111 -1.7286 -2.9425
 6591TIP3    H219738   2.821   3.040   3.030  0.8656  0.4736  0.6875
 6592TIP3   OH219739   4.278   1.645   3.897  0.7911 -0.5021  0.6017
 6592TIP3    H119740   4.239   1.682   3.817  2.7725 -1.5683 -0.9641
 6592TIP3    H219741   4.362   1.690   3.904  0.2896  0.1928  2.6390
 6593TIP3   OH219742   0.751   4.295   2.699  0.2587  0.2945  0.3730
 6593TIP3    H119743   0.665   4.272   2.734 -0.7153 -0.9081 -2.4604
 6593TIP3    H219744   0.801   4.213   2.701  0.8116  0.6379  0.6713
 6594TIP3   OH219745   7.034   0.239   3.520 -0.1880  0.2194 -0.5406
 6594TIP3    H119746   7.088   0.162   3.501 -0.3683 -0.2489  0.7072
 6594TIP3    H219747   7.072   0.275   3.600 -0.5647  0.9993 -0.7059
 6595TIP3   OH219748   1.837   0.424   4.349 -0.0572 -0.4668  0.1287
 6595TIP3    H119749   1.922   0.404   4.390 -0.3146 -1.3262  0.2647
 6595TIP3    H219750   1.859   0.448   4.259  0.2887 -1.3506 -0.0334
 6596TIP3   OH219751   2.057   6.111   3.612  0.1724  0.3594 -0.0249
 6596TIP3    H119752   2.099   6.196   3.599  0.3561  0.4927  1.3310
 6596TIP3    H219753   2.123   6.048   3.583 -0.3719  0.6611 -2.1078
 6597TIP3   OH219754   2.661   1.538   2.610 -0.0835  0.5719 -0.0537
 6597TIP3    H119755   2.581   1.539   2.558  0.1393  2.0841 -0.4033
 6597TIP3    H219756   2.632   1.562   2.698 -0.2217 -0.4123  0.1839
 6598TIP3   OH219757   5.104   5.843   4.344  0.1658  0.0102  0.0882
 6598TIP3    H119758   5.115   5.751   4.366  0.3474  0.3319  1.4459
 6598TIP3    H219759   5.082   5.885   4.427  0.8403  1.3061 -0.3577
 6599TIP3   OH219760   0.157   0.102   2.408  0.2384 -0.0813  0.2200
 6599TIP3    H119761   0.139   0.101   2.314 -0.8077  0.5284  0.3968
 6599TIP3    H219762   0.171   0.195   2.428  4.9626 -0.4789 -0.0875
 6600TIP3   OH219763   5.504   6.415   5.131  0.5686 -0.2871  0.1083
 6600TIP3    H119764   5.422   6.408   5.082  0.6673 -1.3582  0.0775
 6600TIP3    H219765   5.556   6.477   5.080 -0.0102 -0.0229 -0.1713
 6601TIP3   OH219766   0.325   6.560   2.513 -0.1101 -0.7234 -0.5110
 6601TIP3    H119767   0.418   6.543   2.497  0.3982  0.5813  0.8219
 6601TIP3    H219768   0.308   6.642   2.466 -0.5810 -0.9405 -0.7235
 6602TIP3   OH219769   4.911   3.804   2.333  0.2458  0.1641 -0.1655
 6602TIP3    H119770   4.880   3.738   2.395 -0.3400  0.4806 -0.1178
 6602TIP3    H219771   4.944   3.875   2.388  1.3001 -0.2689 -0.2122
 6603TIP3   OH219772  -0.001   1.149   0.086  0.0964  0.7620  0.0532
 6603TIP3    H119773   0.082   1.114   0.055 -0.4073  0.2192 -0.6909
 6603TIP3    H219774   0.023   1.202   0.162  1.0750  0.2907  0.0874
 6604TIP3   OH219775   0.877   4.824   4.996 -0.8416  0.0386 -0.0276
 6604TIP3    H119776   0.924   4.812   4.914 -0.7151  0.7406 -0.0628
 6604TIP3    H219777   0.945   4.827   5.063 -0.8970  0.2275  0.0195
 6605TIP3   OH219778   3.141   6.490   0.606 -0.4209  0.0097 -0.0353
 6605TIP3    H119779   3.222   6.456   0.568  0.9979  0.8684  2.0961
 6605TIP3    H219780   3.162   6.578   0.636 -2.1362  0.2449  0.6238
 6606TIP3   OH219781   0.727   1.212   5.572  0.3975 -0.0301  0.1099
 6606TIP3    H119782   0.758   1.290   5.618 -0.3784 -0.1991  0.9605
 6606TIP3    H219783   0.653   1.244   5.520 -0.2363 -0.2672  0.8399
 6607TIP3   OH219784   2.738   0.511   4.322 -0.2599  0.3844  0.1122
 6607TIP3    H119785   2.650   0.548   4.313  0.7305  2.6031 -1.3835
 6607TIP3    H219786   2.752   0.463   4.240  0.3487  1.0675 -0.1904
 6608TIP3   OH219787   4.034   3.139   5.616 -0.3541  0.4520  0.1317
 6608TIP3    H119788   4.009   3.051   5.644 -1.1958  1.0542  1.3938
 6608TIP3    H219789   4.066   3.128   5.527 -0.3924 -1.1383  0.2878
 6609TIP3   OH219790   4.453   3.647   1.119  0.3474 -0.6767 -0.1828
 6609TIP3    H119791   4.450   3.640   1.214  0.4254 -0.0289 -0.1295
 6609TIP3    H219792   4.532   3.600   1.094  0.7509 -0.1704  0.1401
 6610TIP3   OH219793   2.132   5.185   1.990  0.1407 -0.0641  0.4919
 6610TIP3    H119794   2.105   5.095   1.973 -0.6532 -0.2069  2.3021
 6610TIP3    H219795   2.050   5.234   1.995  0.5814  0.9384 -1.1846
 6611TIP3   OH219796   3.570   0.815   5.291  0.1416 -0.2622  0.1615
 6611TIP3    H119797   3.625   0.842   5.217  1.1722  1.0914  1.3604
 6611TIP3    H219798   3.491   0.779   5.251 -0.0385  1.9308 -1.6093
 6612TIP3   OH219799   3.630   6.400   3.484 -0.3228 -0.5059 -0.1655
 6612TIP3    H119800   3.601   6.326   3.431 -0.8117 -0.5889  0.2071
 6612TIP3    H219801   3.582   6.475   3.448 -1.3799 -0.7165  0.7350
 6613TIP3   OH219802   5.134   6.346   0.943 -0.0221  0.6276  0.3196
 6613TIP3    H119803   5.206   6.285   0.924  0.4286  1.7651 -1.9575
 6613TIP3    H219804   5.059   6.289   0.961  0.8106 -0.5923  0.0786
 6614TIP3   OH219805   4.742   2.101   3.148 -0.1864  0.0046 -0.3047
 6614TIP3    H119806   4.663   2.096   3.201  1.0113 -0.5060  1.5187
 6614TIP3    H219807   4.711   2.101   3.058 -2.3486  1.5900  0.3612
 6615TIP3   OH219808   2.494   5.671   3.662  0.0527 -0.0165  0.2919
 6615TIP3    H119809   2.436   5.687   3.737 -0.1167  0.8739 -0.0079
 6615TIP3    H219810   2.495   5.576   3.651 -0.8065 -0.0857  0.7370
 6616TIP3   OH219811   3.304   4.740   0.572 -0.4693 -0.6194 -0.2141
 6616TIP3    H119812   3.326   4.682   0.645  1.2615 -2.7118 -2.2564
 6616TIP3    H219813   3.377   4.802   0.568  0.1706 -1.3985 -0.9840
 6617TIP3   OH219814   1.440   2.122   0.887 -0.3027 -0.7179 -0.4069
 6617TIP3    H119815   1.366   2.124   0.826 -0.7925  2.9396  0.0848
 6617TIP3    H219816   1.418   2.188   0.953  2.7924 -0.4468  0.4828
 6618TIP3   OH219817   0.255   5.061   0.138 -0.0363  0.7511  0.1760
 6618TIP3    H119818   0.223   5.121   0.070  0.2708  2.0020  1.0980
 6618TIP3    H219819   0.177   5.036   0.187 -0.4744 -1.2141 -1.3726
 6619TIP3   OH219820   3.835   6.619   0.153 -0.0346 -0.4436  0.4729
 6619TIP3    H119821   3.910   6.678   0.145  0.6279 -1.3357 -0.1187
 6619TIP3    H219822   3.796   6.641   0.237  0.9519 -0.0205  0.8379
 6620TIP3   OH219823   4.505   2.157   3.236 -0.1791 -0.5352  0.6697
 6620TIP3    H119824   4.427   2.113   3.201 -0.8852  1.0944  0.1057
 6620TIP3    H219825   4.470   2.223   3.296  0.7549  0.2889  0.3292
 6621TIP3   OH219826   0.680   6.792   3.017  0.5021  0.3502 -1.0930
 6621TIP3    H119827   0.664   6.741   2.938 -0.3619 -0.9522 -0.1113
 6621TIP3    H219828   0.593   6.815   3.050  0.7942 -0.1521  0.1038
 6622TIP3   OH219829   5.187   1.896   1.905  0.3606 -0.5125 -0.0078
 6622TIP3    H119830   5.241   1.848   1.967 -0.9759 -0.6935  1.0762
 6622TIP3    H219831   5.215   1.987   1.914  0.7922 -0.6621  0.1983
 6623TIP3   OH219832   0.530   5.055   3.954 -0.2270 -0.5405  0.5536
 6623TIP3    H119833   0.533   5.149   3.935 -1.0226 -0.7656 -0.8628
 6623TIP3    H219834   0.540   5.013   3.869  0.2776 -1.7566  1.1857
 6624TIP3   OH219835   4.859   4.543   1.588  0.1514  0.3313 -0.1729
 6624TIP3    H119836   4.832   4.629   1.621  0.1879  0.8199 -1.3420
 6624TIP3    H219837   4.942   4.526   1.632  0.3161  1.0734 -0.1781
 6625TIP3   OH219838   5.038   5.016   2.241 -0.2012  0.5398 -0.1759
 6625TIP3    H119839   4.974   5.062   2.295  1.0546 -0.4224  2.2932
 6625TIP3    H219840   5.122   5.054   2.264  0.6314 -1.4553  0.3443
 6626TIP3   OH219841   0.632   3.706   3.957 -0.5218  0.4395  0.4616
 6626TIP3    H119842   0.669   3.663   4.035 -0.1306  1.5060  0.8805
 6626TIP3    H219843   0.707   3.718   3.899 -0.6301  0.5503  0.3462
 6627TIP3   OH219844   0.334   6.513   3.518 -0.3205 -0.2127 -0.5917
 6627TIP3    H119845   0.347   6.541   3.427  0.6051 -0.1804 -0.4611
 6627TIP3    H219846   0.392   6.570   3.569 -0.8841 -0.1830  0.0304
 6628TIP3   OH219847   5.299   2.803   1.623  0.6172  0.5019 -0.0986
 6628TIP3    H119848   5.273   2.743   1.554 -0.8100  0.4403  0.4514
 6628TIP3    H219849   5.220   2.813   1.677  1.4294  1.2336  1.0085
 6629TIP3   OH219850   5.752   4.353   1.727 -0.4296  0.3289  0.5378
 6629TIP3    H119851   5.787   4.287   1.667  0.1379  1.1572 -0.0595
 6629TIP3    H219852   5.707   4.415   1.670 -3.2635 -0.8749  1.2958
 6630TIP3   OH219853   2.208   5.731   5.587  0.0492 -0.2017 -0.7298
 6630TIP3    H119854   2.187   5.823   5.597  0.2657 -0.0574 -1.4970
 6630TIP3    H219855   2.246   5.725   5.499  1.1157 -0.8179 -0.2463
 6631TIP3   OH219856   2.524   0.195   2.547  0.5335  0.1064  0.0525
 6631TIP3    H119857   2.468   0.129   2.588 -0.4274  0.7930 -0.1182
 6631TIP3    H219858   2.549   0.252   2.620 -0.6117  0.9272 -0.1647
 6632TIP3   OH219859   0.529   4.575   4.739  0.0052  0.2349  0.1790
 6632TIP3    H119860   0.530   4.549   4.831 -1.9203  1.8468  0.7090
 6632TIP3    H219861   0.561   4.666   4.739  1.8186 -0.3418 -1.0177
 6633TIP3   OH219862   6.175   0.352   2.538 -0.8559  0.2822  0.0437
 6633TIP3    H119863   6.231   0.324   2.611 -2.0978 -0.1227  0.8675
 6633TIP3    H219864   6.230   0.341   2.460  0.6562  1.1368  0.9335
 6634TIP3   OH219865   1.242   5.974   2.807  0.3487  0.0641  0.7757
 6634TIP3    H119866   1.254   5.883   2.781 -0.8256 -0.0794  0.6800
 6634TIP3    H219867   1.170   6.006   2.753  4.1581  2.8036 -3.4402
 6635TIP3   OH219868   3.859   5.743   4.697  0.3989 -0.1846  0.1773
 6635TIP3    H119869   3.952   5.752   4.677 -0.1493  2.9587 -1.5256
 6635TIP3    H219870   3.854   5.759   4.791  1.4801  0.9384  0.0723
 6636TIP3   OH219871   5.551   2.225   0.718 -0.4471 -0.4764 -0.6483
 6636TIP3    H119872   5.597   2.301   0.681 -1.3911 -0.5940 -2.1059
 6636TIP3    H219873   5.598   2.207   0.800  0.1111  1.3564 -0.5233
 6637TIP3   OH219874   2.296   1.641   2.929 -0.4753 -0.4540 -0.2494
 6637TIP3    H119875   2.203   1.638   2.952 -0.6124 -0.5418 -0.8023
 6637TIP3    H219876   2.297   1.668   2.838  0.0769  0.2443 -0.0448
 6638TIP3   OH219877   3.689   1.910   4.039  0.0891  0.1891  0.0432
 6638TIP3    H119878   3.597   1.889   4.058  0.5726 -1.0229  1.2232
 6638TIP3    H219879   3.721   1.835   3.989  1.4776 -1.4469  3.1210
 6639TIP3   OH219880   7.038   5.278   3.373 -0.6142 -0.4228  0.1909
 6639TIP3    H119881   7.009   5.359   3.414 -0.4320 -1.3211  2.2212
 6639TIP3    H219882   7.051   5.301   3.281 -0.4806  1.8590  0.7160
 6640TIP3   OH219883   6.983   0.876   1.516  0.0410  0.2275  0.4198
 6640TIP3    H119884   6.930   0.833   1.584  2.5910 -0.4652  2.1142
 6640TIP3    H219885   6.925   0.880   1.440 -1.4768 -3.1809  1.1912
 6641TIP3   OH219886   6.809   0.689   4.652 -0.2655  0.3404 -0.4332
 6641TIP3    H119887   6.848   0.747   4.718 -1.0249 -2.4238  2.7567
 6641TIP3    H219888   6.717   0.715   4.649 -0.4506 -0.1635  0.4441
 6642TIP3   OH219889   2.035   3.958   3.533 -0.2030 -0.2999  0.1202
 6642TIP3    H119890   2.118   3.911   3.542  2.6955  4.1366 -0.5395
 6642TIP3    H219891   2.020   3.961   3.438 -0.8298 -0.5035  0.2054
 6643TIP3   OH219892   4.943   4.002   4.576  0.1032 -0.0158  0.1096
 6643TIP3    H119893   4.963   3.918   4.535  0.7488 -0.1350  0.6521
 6643TIP3    H219894   4.930   3.981   4.668  0.4414  0.4969  0.2809
 6644TIP3   OH219895   6.754   4.097   3.163  0.2996  0.0065  0.6237
 6644TIP3    H119896   6.765   4.012   3.120  0.0310 -0.0258  0.6215
 6644TIP3    H219897   6.663   4.098   3.192  0.1287  0.5569  0.0724
 6645TIP3   OH219898   0.529   1.272   4.844 -0.6171  0.0827  0.2153
 6645TIP3    H119899   0.488   1.353   4.874  0.5483  0.3628  1.1090
 6645TIP3    H219900   0.578   1.298   4.766  0.3183  0.4088  0.8935
 6646TIP3   OH219901   4.046   2.449   3.821  0.8074  0.7136 -0.2472
 6646TIP3    H119902   3.998   2.458   3.738 -2.5276 -2.3650  1.0616
 6646TIP3    H219903   4.018   2.524   3.873  0.1375  0.7976 -0.7183
 6647TIP3   OH219904   7.208   1.491   1.569  0.8519  0.5756 -0.2238
 6647TIP3    H119905   7.212   1.437   1.490 -0.9054 -0.3702  0.2852
 6647TIP3    H219906   7.125   1.538   1.562  0.2697 -0.1628  1.4521
 6648TIP3   OH219907   6.665   3.691   3.256 -0.5699 -0.0464  0.5653
 6648TIP3    H119908   6.614   3.769   3.280  0.8081  0.8754  0.6065
 6648TIP3    H219909   6.613   3.617   3.290 -2.5633  0.7228 -0.6251
 6649TIP3   OH219910   5.644   4.883   0.190 -1.0246 -0.2550 -0.6053
 6649TIP3    H119911   5.586   4.873   0.265  1.4811  0.2861  1.5912
 6649TIP3    H219912   5.676   4.973   0.196  2.1523 -1.2975  0.0821
 6650TIP3   OH219913   5.152   3.383   5.211  0.0498  0.2668 -0.7783
 6650TIP3    H119914   5.165   3.457   5.152 -0.1868 -2.1898 -4.2291
 6650TIP3    H219915   5.057   3.378   5.224  0.2025  3.1741  3.4839
 6651TIP3   OH219916   1.802   1.136   3.513  0.0193 -0.1858  0.1920
 6651TIP3    H119917   1.892   1.146   3.484  0.3875 -0.0079  1.3735
 6651TIP3    H219918   1.798   1.047   3.548 -0.6817 -0.7631 -1.2280
 6652TIP3   OH219919   5.697   4.803   3.350 -0.1785  0.4287 -0.0842
 6652TIP3    H119920   5.779   4.769   3.386  0.1104  2.2140  1.0733
 6652TIP3    H219921   5.648   4.833   3.427 -1.8604 -0.4207 -0.7729
 6653TIP3   OH219922   1.681   5.596   5.079  0.0822 -0.1393  0.0096
 6653TIP3    H119923   1.608   5.643   5.039  0.5400 -1.4825 -2.6450
 6653TIP3    H219924   1.757   5.618   5.025  0.7013 -2.2169 -0.0862
 6654TIP3   OH219925   0.544   0.695   0.344  0.3995  0.0498 -0.4760
 6654TIP3    H119926   0.527   0.602   0.356 -1.7631  0.4448 -0.0152
 6654TIP3    H219927   0.550   0.707   0.249  0.1114 -0.4547 -0.5587
 6655TIP3   OH219928   2.283   6.774   3.412 -0.3505 -0.1993  0.1193
 6655TIP3    H119929   2.361   6.726   3.382 -0.9234 -1.3421  0.4062
 6655TIP3    H219930   2.310   6.866   3.411 -0.1304 -0.1936 -3.2712
 6656TIP3   OH219931   6.098   4.533   4.768  0.4087 -0.0010 -0.1461
 6656TIP3    H119932   6.121   4.458   4.824 -0.3985  0.3203  0.6338
 6656TIP3    H219933   6.160   4.601   4.793  1.0805 -0.3630 -0.7859
 6657TIP3   OH219934   2.049   2.292   0.949 -0.8015 -0.3561  0.4037
 6657TIP3    H119935   2.074   2.303   1.041  0.5790  0.3156 -0.0251
 6657TIP3    H219936   1.972   2.235   0.952  0.2691 -1.8480  1.8701
 6658TIP3   OH219937   6.475   0.229   1.070 -0.0322 -0.0354  0.1521
 6658TIP3    H119938   6.448   0.138   1.084 -0.9561  0.4300  1.7715
 6658TIP3    H219939   6.561   0.223   1.030 -0.0342 -1.6296  0.3143
 6659TIP3   OH219940   1.310   6.645   2.701 -0.3368  0.1176 -0.3124
 6659TIP3    H119941   1.400   6.645   2.734 -1.0120 -0.6651  1.7157
 6659TIP3    H219942   1.261   6.699   2.764 -1.7220 -1.5581  0.1278
 6660TIP3   OH219943   1.618   2.866   5.111  0.5346  0.0620  0.7105
 6660TIP3    H119944   1.523   2.859   5.108  0.6036 -1.2800  1.1980
 6660TIP3    H219945   1.638   2.942   5.056 -0.7688 -0.0216  0.0952
 6661TIP3   OH219946   4.644   1.534   4.073  0.3372  0.6115  0.5664
 6661TIP3    H119947   4.665   1.530   3.980  0.4692  0.0901  0.6129
 6661TIP3    H219948   4.721   1.498   4.117  1.1526  2.7767  1.0263
 6662TIP3   OH219949   4.993   4.318   3.703 -0.5781  0.4919  0.2310
 6662TIP3    H119950   5.042   4.354   3.630  0.0037  1.0302  0.8759
 6662TIP3    H219951   5.044   4.341   3.781 -1.0388 -0.3103  0.7912
 6663TIP3   OH219952   2.984   6.348   3.402 -0.2048 -0.2103 -0.0582
 6663TIP3    H119953   2.922   6.378   3.336 -0.3141  0.2571  0.2481
 6663TIP3    H219954   3.028   6.273   3.362  0.2001  0.4668 -0.9156
 6664TIP3   OH219955   3.427   3.617   5.716  0.4306 -0.3697  0.6889
 6664TIP3    H119956   3.352   3.582   5.764  1.2874 -2.4100  0.6416
 6664TIP3    H219957   3.501   3.605   5.776  1.3437 -2.0005 -0.6706
 6665TIP3   OH219958   0.460   3.900   1.554  0.5046  0.3147 -0.0831
 6665TIP3    H119959   0.551   3.874   1.569  1.1346  0.8512 -2.5089
 6665TIP3    H219960   0.440   3.960   1.626  1.5195 -0.9600  1.3373
 6666TIP3   OH219961   2.388   5.502   3.886 -0.0899 -0.2881  0.0624
 6666TIP3    H119962   2.403   5.415   3.924  0.8103 -1.0805 -1.9327
 6666TIP3    H219963   2.458   5.556   3.923 -0.8973 -0.2619  1.6349
 6667TIP3   OH219964   6.959   4.596   0.933  0.3287 -0.4284  0.3189
 6667TIP3    H119965   7.026   4.546   0.886  0.9284  0.5158  0.1371
 6667TIP3    H219966   6.964   4.684   0.895 -1.3363 -0.4344 -0.0260
 6668TIP3   OH219967   1.914   1.856   2.186 -0.2100  0.8134  0.2376
 6668TIP3    H119968   1.910   1.803   2.266 -2.6946 -0.0264 -0.3672
 6668TIP3    H219969   1.855   1.812   2.125  0.7579  2.0745 -1.6890
 6669TIP3   OH219970   3.858   5.105   3.763  0.4188  0.3839  0.0759
 6669TIP3    H119971   3.869   5.196   3.789  0.3149  0.6969 -0.9570
 6669TIP3    H219972   3.782   5.104   3.706 -0.7984 -0.6791  1.6118
 6670TIP3   OH219973   1.227   4.277   5.182  0.4624 -0.0881 -0.2245
 6670TIP3    H119974   1.227   4.182   5.177  0.4273 -0.0582 -0.7914
 6670TIP3    H219975   1.313   4.303   5.152  0.2233  0.0932 -0.7602
 6671TIP3   OH219976   6.003   0.535   0.645  0.4733  0.0154  0.2194
 6671TIP3    H119977   6.097   0.523   0.627  0.1756  0.7409 -2.1673
 6671TIP3    H219978   6.001   0.593   0.721  1.9815  0.2956  0.0918
 6672TIP3   OH219979   3.112   4.964   5.381  0.2095 -0.5164 -0.2797
 6672TIP3    H119980   3.130   5.040   5.436  0.2637 -1.9081  1.7069
 6672TIP3    H219981   3.191   4.955   5.327  0.1717  0.8480 -0.6014
 6673TIP3   OH219982   2.982   1.707   1.083 -0.3210 -0.0707  0.3687
 6673TIP3    H119983   3.001   1.613   1.081 -1.6423 -0.3482 -1.1105
 6673TIP3    H219984   3.014   1.739   0.999  0.9593  1.0265  1.2304
 6674TIP3   OH219985   0.339   6.325   0.733  0.1913  0.0230  0.1456
 6674TIP3    H119986   0.336   6.231   0.712  0.7220 -0.1093  0.6177
 6674TIP3    H219987   0.358   6.327   0.827  2.2046  0.5855 -0.2159
 6675TIP3   OH219988   0.444   1.528   5.576 -0.0414 -0.1761 -0.5251
 6675TIP3    H119989   0.452   1.481   5.493  2.5673 -1.6478  0.4251
 6675TIP3    H219990   0.391   1.471   5.631 -0.4474  0.0409 -0.6918
 6676TIP3   OH219991   3.807   4.394   5.636 -0.3018 -0.1447 -0.4406
 6676TIP3    H119992   3.756   4.377   5.715  0.0322  0.4525 -0.0878
 6676TIP3    H219993   3.742   4.396   5.566 -0.8089  0.8561  0.0330
 6677TIP3   OH219994   3.339   2.007   3.194  0.2295 -0.3428  0.4216
 6677TIP3    H119995   3.377   1.919   3.186  0.0964 -0.4534  0.9549
 6677TIP3    H219996   3.395   2.062   3.140  1.2340 -0.4885  1.2659
 6678TIP3   OH219997   6.486   5.840   1.258  0.6794 -0.1787  0.3403
 6678TIP3    H119998   6.494   5.912   1.321 -1.3752  1.7742 -1.4361
 6678TIP3    H219999   6.534   5.871   1.181  0.0066 -0.8430 -0.3595
 6679TIP3   OH220000   0.863   2.629   3.711  0.2718  0.0708  0.3199
 6679TIP3    H120001   0.889   2.716   3.742  2.1769 -0.6582  0.9187
 6679TIP3    H220002   0.938   2.599   3.660 -0.3826 -1.2172  0.0728
 6680TIP3   OH220003   5.512   0.063   0.061  0.3602  0.6358 -0.4956
 6680TIP3    H120004   5.507   0.158   0.061  0.0626  0.6580  1.3488
 6680TIP3    H220005   5.424   0.034   0.034  0.6716  0.8516 -1.8020
 6681TIP3   OH220006   6.237   4.250   5.255  0.6468  0.3892  0.3428
 6681TIP3    H120007   6.262   4.340   5.274  0.8283  0.3775  0.1604
 6681TIP3    H220008   6.141   4.249   5.261  0.5440  0.8986 -0.9754
 6682TIP3   OH220009   3.781   5.017   5.793  0.0015  0.1647 -0.7031
 6682TIP3    H120010   3.747   4.932   5.824  2.0263  0.0875  1.6012
 6682TIP3    H220011   3.846   4.994   5.726 -0.5312  0.0149 -1.1792
 6683TIP3   OH220012   6.285   1.855   5.598 -0.0020 -0.3242  0.2871
 6683TIP3    H120013   6.221   1.793   5.633 -1.0264  0.7702  0.3953
 6683TIP3    H220014   6.234   1.933   5.576  1.6508  1.8789  3.4142
 6684TIP3   OH220015   1.644   5.450   2.737 -0.2571 -0.1135 -0.0666
 6684TIP3    H120016   1.554   5.419   2.744  0.3319 -1.6296  1.4594
 6684TIP3    H220017   1.638   5.529   2.684 -2.3470 -0.7219 -0.8235
 6685TIP3   OH220018   5.011   3.153   0.069  0.6247  0.1244 -0.8446
 6685TIP3    H120019   4.989   3.088   0.002  1.8691 -1.1421 -0.0911
 6685TIP3    H220020   5.096   3.188   0.041  1.0884 -0.3220 -0.0172
 6686TIP3   OH220021   2.263   3.416   5.569 -0.3037  0.3732  0.4322
 6686TIP3    H120022   2.352   3.392   5.594 -0.8903 -0.3542  1.9375
 6686TIP3    H220023   2.208   3.382   5.640 -1.8413  0.2594 -0.7636
 6687TIP3   OH220024   5.119   1.881   3.476 -0.1958 -0.1572  0.2490
 6687TIP3    H120025   5.086   1.967   3.453 -1.9615 -0.6663  0.7620
 6687TIP3    H220026   5.151   1.891   3.566  2.0563  0.5686 -0.5582
 6688TIP3   OH220027   4.561   3.274   1.355  0.1045  0.3355 -0.2726
 6688TIP3    H120028   4.496   3.345   1.362  0.1725  0.2685  1.1564
 6688TIP3    H220029   4.528   3.220   1.283 -0.3376  1.4014 -0.9102
 6689TIP3   OH220030   4.318   1.829   1.819 -0.3907  0.3837 -0.2047
 6689TIP3    H120031   4.409   1.854   1.803 -0.1030  0.3549  1.3103
 6689TIP3    H220032   4.313   1.739   1.787  0.5886 -0.2147  1.2150
 6690TIP3   OH220033   5.030   2.456   1.049  0.1142  0.3677  0.0345
 6690TIP3    H120034   5.027   2.371   1.092  0.1128  0.3124 -0.0737
 6690TIP3    H220035   5.019   2.520   1.120  1.0941  0.3112  0.2545
 6691TIP3   OH220036   2.867   0.473   5.627 -0.6243  0.1619  0.0381
 6691TIP3    H120037   2.815   0.462   5.548  0.1987 -2.2740 -0.2596
 6691TIP3    H220038   2.804   0.465   5.699 -1.1422  0.8283 -0.3311
 6692TIP3   OH220039   3.290   5.066   1.443  0.4015  0.8479  0.3598
 6692TIP3    H120040   3.353   5.077   1.372  2.1008  0.2172  1.6969
 6692TIP3    H220041   3.209   5.039   1.400  2.1291 -2.4056 -1.1678
 6693TIP3   OH220042   4.745   3.589   2.837 -0.1296  0.6307  0.4168
 6693TIP3    H120043   4.838   3.607   2.851  0.0011  0.5763 -0.3354
 6693TIP3    H220044   4.704   3.604   2.923  0.2031  2.9871  0.2206
 6694TIP3   OH220045   7.179   2.997   4.772  0.0452 -0.0253  0.1921
 6694TIP3    H120046   7.162   2.946   4.851 -0.8196  0.9538  0.6490
 6694TIP3    H220047   7.267   2.969   4.744 -0.1289 -1.2459  0.8129
 6695TIP3   OH220048   3.545   0.196   1.914  0.0781 -0.0717  0.0640
 6695TIP3    H120049   3.520   0.220   2.003 -0.5532 -2.4450  0.6004
 6695TIP3    H220050   3.508   0.264   1.858 -0.7334  0.6940  1.5034
 6696TIP3   OH220051   4.330   4.569   0.201 -0.2014 -0.3109 -0.1153
 6696TIP3    H120052   4.287   4.613   0.128 -0.5613 -1.2487 -0.4815
 6696TIP3    H220053   4.261   4.518   0.243  0.1356 -0.2652  0.5065
 6697TIP3   OH220054   2.144   3.987   0.576  0.0818 -0.2684 -0.0405
 6697TIP3    H120055   2.110   4.075   0.560  1.3356  0.5126  1.2620
 6697TIP3    H220056   2.184   3.993   0.663 -0.8435 -2.4630  0.6121
 6698TIP3   OH220057   5.522   3.462   1.177  0.4847 -0.2955  0.0053
 6698TIP3    H120058   5.538   3.523   1.249  2.8786 -1.1870  0.3004
 6698TIP3    H220059   5.463   3.397   1.214  1.0023 -0.2682  0.9020
 6699TIP3   OH220060   6.673   3.493   4.253 -0.7562  0.0718 -0.7018
 6699TIP3    H120061   6.697   3.539   4.173 -1.4830  2.7538  0.5086
 6699TIP3    H220062   6.580   3.474   4.243 -1.0632  1.2043 -0.1919
 6700TIP3   OH220063   0.721   0.869   0.475 -0.0773  0.0552 -0.3345
 6700TIP3    H120064   0.788   0.831   0.419  0.2315 -2.4359  1.5206
 6700TIP3    H220065   0.647   0.809   0.469 -0.5932  0.5410  0.7407
 6701TIP3   OH220066   6.242   3.127   4.603 -0.2372 -0.4909  0.3595
 6701TIP3    H120067   6.210   3.143   4.514  3.2042 -0.7409 -1.0544
 6701TIP3    H220068   6.296   3.048   4.595  1.5252  0.4393  2.2819
 6702TIP3   OH220069   2.371   1.041   4.736 -0.4901 -0.0056 -0.3038
 6702TIP3    H120070   2.374   0.971   4.801  0.2135  1.6351  1.5303
 6702TIP3    H220071   2.436   1.016   4.671  0.0671 -0.8335  0.5468
 6703TIP3   OH220072   2.749   5.924   1.350 -0.4008  0.1161  0.0494
 6703TIP3    H120073   2.696   5.952   1.276 -1.7509 -0.6916  0.6815
 6703TIP3    H220074   2.719   5.835   1.368  0.9524 -0.2431  0.6366
 6704TIP3   OH220075   6.849   3.123   2.485  0.1158  0.0761 -0.1741
 6704TIP3    H120076   6.795   3.149   2.560  1.3825 -0.5683  0.9936
 6704TIP3    H220077   6.813   3.173   2.411 -0.4780  1.5606  1.0639
 6705TIP3   OH220078   3.853   6.175   3.469 -0.0970  0.0482  0.1562
 6705TIP3    H120079   3.773   6.171   3.416 -1.9283  0.3684  2.6937
 6705TIP3    H220080   3.822   6.175   3.560  2.7883  0.7242  1.2721
 6706TIP3   OH220081   4.323   5.755   2.431  0.0153  0.1300 -0.1910
 6706TIP3    H120082   4.397   5.798   2.390  0.1337  0.1668  0.0557
 6706TIP3    H220083   4.297   5.815   2.502 -0.4053  0.2372 -0.4317
 6707TIP3   OH220084   3.993   3.799   4.106  0.1833 -0.0424  0.1429
 6707TIP3    H120085   4.080   3.807   4.068  0.3605 -1.4086  0.2118
 6707TIP3    H220086   3.947   3.738   4.048 -0.8296  0.8680 -0.0461
 6708TIP3   OH220087   5.251   1.032   3.570 -0.0964 -0.6111  0.1724
 6708TIP3    H120088   5.270   0.951   3.616  0.5733 -0.0763  0.8492
 6708TIP3    H220089   5.266   1.101   3.634  1.8294  0.2254 -1.0547
 6709TIP3   OH220090   1.292   5.072   1.577 -0.3195  0.3116  0.5564
 6709TIP3    H120091   1.275   5.049   1.485 -1.0488 -0.6631  0.9195
 6709TIP3    H220092   1.223   5.133   1.600 -0.0026  0.7345  0.3977
 6710TIP3   OH220093   6.103   5.512   5.770  0.0591  0.9047  0.4210
 6710TIP3    H120094   6.031   5.485   5.827  1.1455  0.3862  1.5841
 6710TIP3    H220095   6.157   5.433   5.760 -0.2403  0.9064 -1.5624
 6711TIP3   OH220096   4.616   6.710   0.350 -0.6408 -0.0943 -0.4863
 6711TIP3    H120097   4.647   6.656   0.422 -2.3879 -0.8193 -0.2325
 6711TIP3    H220098   4.689   6.714   0.289  1.2501  1.3312  1.7178
 6712TIP3   OH220099   3.974   2.190   4.238  0.1656 -0.3918 -0.5871
 6712TIP3    H120100   4.026   2.213   4.161  0.2686 -0.8209 -0.6507
 6712TIP3    H220101   3.966   2.095   4.233 -0.6039 -0.3348 -0.5641
 6713TIP3   OH220102   6.516   0.750   1.785 -0.4079 -0.7583 -0.1204
 6713TIP3    H120103   6.599   0.798   1.783  0.6617 -2.5269 -0.8906
 6713TIP3    H220104   6.473   0.773   1.703 -0.3087 -0.4542 -0.0878
 6714TIP3   OH220105   5.933   5.876   2.086 -0.1279 -0.7276  0.0876
 6714TIP3    H120106   5.936   5.970   2.103 -1.7841 -0.6933  0.3887
 6714TIP3    H220107   6.014   5.842   2.122  0.5174  0.5904 -0.0718
 6715TIP3   OH220108   3.769   5.674   0.490 -0.0026  0.3536  0.0589
 6715TIP3    H120109   3.701   5.736   0.518  0.6148  0.7861  0.6182
 6715TIP3    H220110   3.798   5.632   0.570 -0.9923 -1.3064 -0.3937
 6716TIP3   OH220111   1.975   5.809   2.033  0.9205  0.0698  0.2965
 6716TIP3    H120112   1.907   5.759   2.079  1.4176  0.0397  1.0126
 6716TIP3    H220113   2.018   5.744   1.977  0.9079 -0.0874  0.4688
 6717TIP3   OH220114   3.831   6.527   0.825 -0.5410  0.5946 -0.1885
 6717TIP3    H120115   3.920   6.550   0.851 -0.2630 -0.7748  0.1559
 6717TIP3    H220116   3.804   6.597   0.765  0.7774  0.9947 -0.3422
 6718TIP3   OH220117   5.439   2.176   5.684 -0.1670  0.3630 -0.0546
 6718TIP3    H120118   5.498   2.205   5.614 -1.7787  0.3141 -1.4963
 6718TIP3    H220119   5.431   2.251   5.742 -0.1790  1.0160 -0.8895
 6719TIP3   OH220120   5.665   6.185   3.954  0.0085  0.1774  0.0577
 6719TIP3    H120121   5.719   6.247   3.905  0.0306 -0.1760 -0.3749
 6719TIP3    H220122   5.727   6.141   4.013 -0.2226  1.4801  1.3298
 6720TIP3   OH220123   7.210   6.769   2.092 -0.8438 -0.3410  0.2654
 6720TIP3    H120124   7.241   6.682   2.067 -0.2927 -0.3538  0.9653
 6720TIP3    H220125   7.139   6.753   2.154 -1.9536 -0.3035 -0.9537
 6721TIP3   OH220126   6.363   5.894   5.594 -0.0048 -0.2601 -1.1037
 6721TIP3    H120127   6.322   5.978   5.574  0.4881  0.0479 -0.8593
 6721TIP3    H220128   6.291   5.832   5.599 -0.5166  0.3995  0.0015
 6722TIP3   OH220129   2.195   1.906   4.165 -0.2582  0.2647 -0.5675
 6722TIP3    H120130   2.224   1.957   4.241 -1.8618  0.9946 -0.4136
 6722TIP3    H220131   2.144   1.967   4.113 -0.4345 -0.6342 -1.4769
 6723TIP3   OH220132   5.243   1.129   2.177  0.2739 -0.4063 -0.2025
 6723TIP3    H120133   5.173   1.188   2.207  0.8940 -0.5635  1.7434
 6723TIP3    H220134   5.261   1.156   2.088 -0.7156  1.1465  0.0312
 6724TIP3   OH220135   2.478   6.764   5.770 -0.5499  0.7681 -0.5964
 6724TIP3    H120136   2.539   6.763   5.843 -1.7223  1.3783  0.4238
 6724TIP3    H220137   2.509   6.695   5.711 -0.1210 -0.3556  0.9036
 6725TIP3   OH220138   2.271   0.707   3.989  0.2844 -0.1706 -0.6376
 6725TIP3    H120139   2.189   0.695   3.942  1.0215 -0.7560 -1.8366
 6725TIP3    H220140   2.259   0.788   4.039 -0.4613  0.6122 -2.0221
 6726TIP3   OH220141   1.197   0.860   4.667 -0.0478 -0.2377  0.5332
 6726TIP3    H120142   1.180   0.788   4.607  0.4975 -0.5146  0.7053
 6726TIP3    H220143   1.146   0.839   4.745  2.1665 -1.8337  1.6356
 6727TIP3   OH220144   4.026   0.884   0.513 -0.6776  0.4538 -0.0095
 6727TIP3    H120145   3.978   0.818   0.464  1.0143 -0.9084  0.0733
 6727TIP3    H220146   4.100   0.907   0.457 -0.8178  1.7390  0.2948
 6728TIP3   OH220147   2.917   3.671   1.888 -0.0511  0.0976 -0.0247
 6728TIP3    H120148   2.972   3.738   1.848  0.3525 -0.6268 -0.7062
 6728TIP3    H220149   2.961   3.588   1.869 -1.5375 -0.5451 -0.9020
 6729TIP3   OH220150   2.041   2.460   2.664  0.5876  0.4386 -0.0059
 6729TIP3    H120151   1.961   2.513   2.667  0.0633 -0.3116 -0.5279
 6729TIP3    H220152   2.102   2.513   2.612  0.9625  1.6849  1.6222
 6730TIP3   OH220153   6.793   2.936   5.842  0.2307  0.1442 -0.3894
 6730TIP3    H120154   6.712   2.986   5.841  0.0727 -0.1117 -0.2572
 6730TIP3    H220155   6.772   2.853   5.800 -0.2808 -0.9988  1.9149
 6731TIP3   OH220156   3.555   6.724   3.802  0.1026 -0.8146 -0.4864
 6731TIP3    H120157   3.564   6.709   3.896  1.8788 -0.3468 -0.5406
 6731TIP3    H220158   3.465   6.754   3.790  0.3550  0.8282  1.3187
 6732TIP3   OH220159   0.482   2.265   4.506  0.1742  0.6919  0.3279
 6732TIP3    H120160   0.457   2.349   4.544  1.1270 -0.3695  3.6530
 6732TIP3    H220161   0.577   2.269   4.500  0.2720 -0.3138  1.0268
 6733TIP3   OH220162   1.874   5.109   3.731  0.0459 -0.0589 -0.4260
 6733TIP3    H120163   1.968   5.126   3.733 -0.2249  1.5919 -0.6413
 6733TIP3    H220164   1.866   5.015   3.748  1.6650 -0.0198  0.7584
 6734TIP3   OH220165   3.468   2.191   4.043 -0.2933 -0.4054  0.4603
 6734TIP3    H120166   3.521   2.201   3.964  1.1171  0.6904  1.4999
 6734TIP3    H220167   3.379   2.210   4.014  0.4492  2.0000 -0.5082
 6735TIP3   OH220168   3.774   5.162   5.458  0.0913  0.1072  0.4145
 6735TIP3    H120169   3.833   5.236   5.475 -0.2338  0.7864 -1.2359
 6735TIP3    H220170   3.687   5.196   5.478 -0.2820  0.8718 -2.1538
 6736TIP3   OH220171   6.640   6.177   2.832  0.0598  0.9853 -0.3117
 6736TIP3    H120172   6.653   6.192   2.738  1.3438  0.0212 -0.3231
 6736TIP3    H220173   6.608   6.087   2.838 -0.0751  1.0618  0.1784
 6737TIP3   OH220174   2.286   5.984   0.809  0.2769 -0.0717  0.3939
 6737TIP3    H120175   2.237   6.065   0.820  0.7235  0.5132 -1.5498
 6737TIP3    H220176   2.330   5.970   0.893  0.3645  1.8185  0.6889
 6738TIP3   OH220177   4.144   0.765   0.048 -0.4478 -0.0807  0.0754
 6738TIP3    H120178   4.114   0.676   0.031  2.1408 -0.7167 -1.8367
 6738TIP3    H220179   4.212   0.755   0.114  0.1703  0.3878 -0.4754
 6739TIP3   OH220180   4.893   0.882   5.211  0.2409  0.3289  0.6121
 6739TIP3    H120181   4.959   0.820   5.243  0.4725  0.7325  0.9247
 6739TIP3    H220182   4.838   0.900   5.287 -1.8827 -2.0201 -0.2347
 6740TIP3   OH220183   2.579   1.009   1.023  0.0257  0.3183  0.5037
 6740TIP3    H120184   2.602   0.999   0.931 -0.8360 -0.1862  0.3295
 6740TIP3    H220185   2.582   0.920   1.059 -1.3031  0.2617  0.5341
 6741TIP3   OH220186   4.558   4.876   3.291 -0.0158 -0.0964  0.1613
 6741TIP3    H120187   4.492   4.833   3.237 -1.5206  2.7660 -0.4565
 6741TIP3    H220188   4.604   4.803   3.334 -0.1554 -2.4254 -3.2498
 6742TIP3   OH220189   4.543   3.410   5.137  0.0430 -0.5170  0.7511
 6742TIP3    H120190   4.584   3.391   5.053  0.9933 -1.4235  1.3975
 6742TIP3    H220191   4.609   3.458   5.186  0.1427 -1.4654  1.5839
 6743TIP3   OH220192   6.289   2.428   5.504 -0.3520  0.3425 -0.2301
 6743TIP3    H120193   6.195   2.409   5.510 -0.2132 -0.4205 -0.3580
 6743TIP3    H220194   6.296   2.489   5.430 -0.6090 -0.6711 -1.1144
 6744TIP3   OH220195   6.572   0.662   3.958 -0.3539 -0.0330  0.1038
 6744TIP3    H120196   6.622   0.602   3.902  1.4003  0.3799  1.1305
 6744TIP3    H220197   6.600   0.749   3.929  0.0975  0.1887  1.1690
 6745TIP3   OH220198   5.842   2.920   4.627 -0.0814 -0.0399  0.5619
 6745TIP3    H120199   5.761   2.870   4.623 -0.7109  0.9522  0.4923
 6745TIP3    H220200   5.872   2.925   4.536 -0.4597  0.3962  0.4567
 6746TIP3   OH220201   5.993   6.752   4.376 -0.1754 -0.2483 -0.1724
 6746TIP3    H120202   5.954   6.823   4.428 -1.0519 -0.7623 -0.1102
 6746TIP3    H220203   6.078   6.737   4.417  0.6940  1.7820 -1.1105
 6747TIP3   OH220204   4.681   5.934   3.538 -0.1302  0.1847  0.1970
 6747TIP3    H120205   4.621   6.003   3.511 -3.6742 -3.4575 -2.5892
 6747TIP3    H220206   4.634   5.885   3.606 -0.9848 -3.1538 -2.4948
 6748TIP3   OH220207   2.856   5.741   4.318  0.1417  0.6567 -0.2122
 6748TIP3    H120208   2.918   5.686   4.269  0.3850  0.5835  0.1726
 6748TIP3    H220209   2.813   5.680   4.378  1.9523  1.1930  1.7693
 6749TIP3   OH220210   0.830   6.514   0.871  0.7062  0.1653 -0.6940
 6749TIP3    H120211   0.791   6.584   0.924 -0.3537  0.3346 -1.6461
 6749TIP3    H220212   0.814   6.434   0.921  1.2935  0.5096  0.0692
 6750TIP3   OH220213   2.924   5.409   2.913  0.0577 -0.2112  0.3791
 6750TIP3    H120214   2.998   5.470   2.913  1.0919 -1.4318  0.3058
 6750TIP3    H220215   2.927   5.367   2.827 -0.9310 -0.0503  0.2505
 6751TIP3   OH220216   6.491   6.088   0.959 -0.2049  0.6851 -0.6508
 6751TIP3    H120217   6.542   6.165   0.935 -1.8285  1.8688 -0.4973
 6751TIP3    H220218   6.473   6.098   1.052 -2.6350  1.5648 -1.1358
 6752TIP3   OH220219   2.453   5.963   1.028  0.6275 -0.4275  0.5305
 6752TIP3    H120220   2.416   5.999   1.109  0.2981  1.3993 -0.3909
 6752TIP3    H220221   2.547   5.983   1.034  0.2652  1.9087 -0.5630
 6753TIP3   OH220222   4.172   4.525   3.896 -0.3570 -0.1802  0.4552
 6753TIP3    H120223   4.107   4.462   3.928 -0.3599 -0.0545  0.7046
 6753TIP3    H220224   4.165   4.522   3.801 -1.7779  0.9117  0.4847
 6754TIP3   OH220225   6.284   0.511   0.620 -0.0757  0.0902 -0.1993
 6754TIP3    H120226   6.312   0.426   0.586  1.0515  0.8322 -1.1912
 6754TIP3    H220227   6.350   0.534   0.685 -0.3810  0.2045  0.0737
 6755TIP3   OH220228   6.294   1.176   1.594 -0.1202 -0.2967 -0.4939
 6755TIP3    H120229   6.287   1.081   1.585  2.4370 -0.5019 -0.8548
 6755TIP3    H220230   6.349   1.190   1.671  0.5318  0.8714 -1.1455
 6756TIP3   OH220231   6.303   3.479   2.364  0.6830  0.1395 -0.3007
 6756TIP3    H120232   6.366   3.549   2.380 -0.7841  1.1122  1.5437
 6756TIP3    H220233   6.221   3.525   2.345 -0.4147 -1.0389  1.3589
 6757TIP3   OH220234   1.742   5.243   3.481  0.5241 -0.1355 -0.0134
 6757TIP3    H120235   1.772   5.199   3.560  1.2941 -1.1963 -0.8639
 6757TIP3    H220236   1.813   5.303   3.458 -0.1697  0.9842  0.6854
 6758TIP3   OH220237   0.614   4.377   1.867  0.1392  0.7781 -0.0291
 6758TIP3    H120238   0.541   4.398   1.809  0.8857  1.5958 -0.7010
 6758TIP3    H220239   0.692   4.381   1.811  0.6618 -0.7006  0.5245
 6759TIP3   OH220240   5.595   4.635   4.662  0.2230  0.2179 -0.3705
 6759TIP3    H120241   5.552   4.549   4.658 -0.2154  0.4413 -0.5304
 6759TIP3    H220242   5.558   4.676   4.740  1.9695 -0.5383  0.9003
 6760TIP3   OH220243   0.080   0.427   5.456 -0.2844  0.0441 -0.0395
 6760TIP3    H120244   0.001   0.457   5.500 -0.4776  2.1127 -1.6509
 6760TIP3    H220245   0.054   0.415   5.365  0.3540 -3.0974  0.0633
 6761TIP3   OH220246   1.648   3.824   1.782 -0.2934 -0.1664  0.3121
 6761TIP3    H120247   1.657   3.783   1.696 -1.3875 -1.3282  0.7244
 6761TIP3    H220248   1.736   3.821   1.819 -0.0795 -0.8733 -0.2360
 6762TIP3   OH220249   1.423   2.178   4.552 -0.0315 -0.3988  0.0806
 6762TIP3    H120250   1.425   2.099   4.606  0.6263 -1.0161 -0.8193
 6762TIP3    H220251   1.511   2.213   4.558 -0.4537  0.6010  0.9073
 6763TIP3   OH220252   5.673   2.019   4.489  0.4009 -0.1210 -0.2513
 6763TIP3    H120253   5.609   2.060   4.431 -0.2391  0.0104  0.5330
 6763TIP3    H220254   5.755   2.065   4.470  0.5908 -1.1356 -2.1644
 6764TIP3   OH220255   6.684   6.138   1.714  0.5430  0.1450  0.3303
 6764TIP3    H120256   6.765   6.187   1.723  0.2642  0.3861  1.8325
 6764TIP3    H220257   6.649   6.133   1.803  0.3370 -2.4210  0.1765
 6765TIP3   OH220258   0.634   5.744   2.151  0.2474 -0.2328  0.2104
 6765TIP3    H120259   0.716   5.696   2.145  0.6568  0.4335  0.4023
 6765TIP3    H220260   0.630   5.796   2.070  0.0080 -0.2790  0.1912
 6766TIP3   OH220261   3.098   6.051   4.892 -0.7407 -0.3750 -0.4346
 6766TIP3    H120262   3.146   6.032   4.973 -1.9911  0.1327  0.4563
 6766TIP3    H220263   3.128   5.984   4.831  1.2469  0.0412  0.0046
 6767TIP3   OH220264   1.264   2.102   2.217  0.5442  0.1659  0.1824
 6767TIP3    H120265   1.206   2.035   2.254  0.4323  0.1210 -0.0727
 6767TIP3    H220266   1.321   2.126   2.290 -0.6309  1.1621  0.8260
 6768TIP3   OH220267   6.229   4.472   0.261  0.1281  0.3431  0.4491
 6768TIP3    H120268   6.307   4.514   0.225  0.1943 -0.0757  0.0844
 6768TIP3    H220269   6.180   4.542   0.303  1.0183  0.4985  1.2453
 6769TIP3   OH220270   6.667   0.612   0.530 -0.3938 -0.5684 -0.1500
 6769TIP3    H120271   6.694   0.612   0.622 -1.4845 -2.3506  0.2303
 6769TIP3    H220272   6.733   0.560   0.485  0.5134  0.8715 -0.5364
 6770TIP3   OH220273   1.861   6.360   3.517  0.2675  0.0155  0.0337
 6770TIP3    H120274   1.846   6.403   3.601  1.2860  0.7546 -0.1466
 6770TIP3    H220275   1.887   6.431   3.458 -0.4618 -0.4825 -0.9314
 6771TIP3   OH220276   4.536   5.426   0.109  0.2314  0.1372 -0.1720
 6771TIP3    H120277   4.558   5.412   0.016  0.5202  0.4860 -0.1552
 6771TIP3    H220278   4.552   5.519   0.124 -1.1912  0.4070 -0.1407
 6772TIP3   OH220279   0.673   2.524   4.090  0.1486  0.1008  0.5501
 6772TIP3    H120280   0.617   2.450   4.065  0.2311  0.5178 -0.9871
 6772TIP3    H220281   0.711   2.498   4.174 -2.1203 -0.2995  1.5213
 6773TIP3   OH220282   2.979   4.423   5.869 -0.0934 -0.2637 -0.4429
 6773TIP3    H120283   2.999   4.480   5.943 -1.3324  0.8922 -0.9599
 6773TIP3    H220284   3.013   4.470   5.793 -1.6015  0.0956 -0.9373
 6774TIP3   OH220285   4.745   2.818   2.152  0.4045 -0.3851  0.0586
 6774TIP3    H120286   4.749   2.892   2.213  2.0065  0.8006 -1.3831
 6774TIP3    H220287   4.809   2.756   2.187  0.9334  0.0590 -0.0980
 6775TIP3   OH220288   6.766   3.460   1.335  0.2394 -0.4059 -0.1017
 6775TIP3    H120289   6.686   3.485   1.289  0.6197 -1.4274 -1.4147
 6775TIP3    H220290   6.817   3.412   1.269  3.0949  2.3418 -0.1033
 6776TIP3   OH220291   7.005   1.991   3.718  0.0088 -0.4860 -0.4537
 6776TIP3    H120292   6.984   1.976   3.810 -0.4989 -0.2044 -0.5180
 6776TIP3    H220293   6.952   2.068   3.694  1.7497  0.8012 -0.3855
 6777TIP3   OH220294   6.783   3.995   4.209  0.3042 -0.1521 -0.6336
 6777TIP3    H120295   6.755   3.999   4.118 -0.7823  1.5998 -0.2655
 6777TIP3    H220296   6.714   3.947   4.253  0.7201 -0.8042 -0.6798
 6778TIP3   OH220297   0.636   5.903   1.926  0.2281  0.1165  0.8345
 6778TIP3    H120298   0.582   5.978   1.901 -0.8371 -0.4063  1.4891
 6778TIP3    H220299   0.713   5.908   1.870 -0.0205  1.4702  0.5940
 6779TIP3   OH220300   0.940   3.708   3.468 -0.1949 -0.2485 -0.6515
 6779TIP3    H120301   0.996   3.750   3.402  0.0935 -2.2349 -1.7719
 6779TIP3    H220302   0.882   3.651   3.416  0.2803 -2.1492  0.8235
 6780TIP3   OH220303   5.836   6.521   4.280 -0.0189  0.0758  0.4703
 6780TIP3    H120304   5.766   6.565   4.327  0.1892  1.9766 -0.8746
 6780TIP3    H220305   5.913   6.577   4.293  0.5652 -0.5191 -0.3038
 6781TIP3   OH220306   2.656   4.072   1.582  0.4722 -0.0298  0.2431
 6781TIP3    H120307   2.681   4.143   1.640  1.1200  1.3779 -1.6784
 6781TIP3    H220308   2.591   4.110   1.523 -0.9442 -1.7025  0.6400
 6782TIP3   OH220309   1.449   0.283   4.878 -0.6038  0.1058  0.7242
 6782TIP3    H120310   1.373   0.229   4.856  1.4990 -1.9542 -2.2007
 6782TIP3    H220311   1.479   0.319   4.795  0.9940  1.7976  1.9494
 6783TIP3   OH220312   1.311   0.296   2.615  0.0152  0.0494  0.1129
 6783TIP3    H120313   1.220   0.267   2.622  0.0015 -0.2198 -0.9641
 6783TIP3    H220314   1.313   0.353   2.538  0.6456  0.5255  0.4694
 6784TIP3   OH220315   5.797   0.935   5.341 -0.0072 -0.1489 -0.1567
 6784TIP3    H120316   5.726   0.921   5.403  0.8514 -1.8328  0.5057
 6784TIP3    H220317   5.787   0.863   5.278  0.4951  0.2137 -0.6505
 6785TIP3   OH220318   0.502   3.963   3.008  0.0277 -0.2454  0.0358
 6785TIP3    H120319   0.564   4.022   3.051  0.1195  0.9690 -1.6848
 6785TIP3    H220320   0.553   3.919   2.941 -0.7459  0.0759 -0.7825
 6786TIP3   OH220321   3.744   6.635   2.130 -0.4218  0.5304 -0.4108
 6786TIP3    H120322   3.703   6.612   2.213  3.7323 -1.7121  1.3648
 6786TIP3    H220323   3.766   6.728   2.139 -2.8663  1.1894 -0.5322
 6787TIP3   OH220324   0.252   3.360   1.447  0.0028 -0.2215 -0.5457
 6787TIP3    H120325   0.296   3.313   1.518 -0.6380  0.4377  0.3177
 6787TIP3    H220326   0.263   3.453   1.469 -0.7766 -0.0201 -0.9484
 6788TIP3   OH220327   2.283   5.017   5.031 -0.2135  0.3536  0.5807
 6788TIP3    H120328   2.287   5.092   5.090  0.0436  0.7798  0.0248
 6788TIP3    H220329   2.328   5.045   4.952 -2.3097  0.5366 -0.6359
 6789TIP3   OH220330   2.922   1.628   1.464 -0.1902  0.7886  0.4122
 6789TIP3    H120331   2.884   1.643   1.551  1.1493  0.6009  1.0627
 6789TIP3    H220332   2.998   1.687   1.461  0.8234 -0.4912  0.0964
 6790TIP3   OH220333   5.146   0.175   5.369  0.5823  0.0861  0.2733
 6790TIP3    H120334   5.136   0.202   5.278 -0.6893  0.7596  0.5859
 6790TIP3    H220335   5.215   0.108   5.367 -0.7716 -1.3788 -1.4734
 6791TIP3   OH220336   2.651   6.073   1.569 -0.2314  0.6627  0.0644
 6791TIP3    H120337   2.729   6.039   1.525  1.6622  3.3904  1.0525
 6791TIP3    H220338   2.592   5.997   1.575  3.3308 -2.2940  1.5880
 6792TIP3   OH220339   7.140   5.414   2.737 -0.1717  0.5465 -0.2209
 6792TIP3    H120340   7.133   5.464   2.656  1.7318  0.3742 -0.5569
 6792TIP3    H220341   7.173   5.328   2.709 -3.0938 -0.8983  0.3653
 6793TIP3   OH220342   6.786   4.229   2.910  0.0676  0.3114  0.1133
 6793TIP3    H120343   6.794   4.324   2.914 -0.2818  0.3100  0.9871
 6793TIP3    H220344   6.792   4.200   3.001 -1.1162 -0.3957 -0.0128
 6794TIP3   OH220345   1.247   1.190   1.563  0.1387 -0.5172  0.5180
 6794TIP3    H120346   1.242   1.095   1.573 -0.3653 -0.4666  0.7523
 6794TIP3    H220347   1.322   1.203   1.504 -0.2875 -1.0977 -0.1753
 6795TIP3   OH220348   5.859   1.190   0.174 -0.9838  0.3622  0.3317
 6795TIP3    H120349   5.780   1.237   0.202 -0.3333  1.1580  0.8786
 6795TIP3    H220350   5.848   1.102   0.210 -0.9512  0.8867  1.6808
 6796TIP3   OH220351   3.160   5.668   0.120  0.2926 -0.0035 -0.0588
 6796TIP3    H120352   3.110   5.664   0.201 -0.0245  1.4579 -0.1482
 6796TIP3    H220353   3.114   5.610   0.060  1.2435 -2.0925  1.1324
 6797TIP3   OH220354   3.246   4.738   2.206 -0.0464  0.5718  0.0820
 6797TIP3    H120355   3.262   4.694   2.122  0.7731  3.2160 -1.2722
 6797TIP3    H220356   3.318   4.801   2.213 -1.1912  1.7541  1.8382
 6798TIP3   OH220357   5.642   0.198   2.266  0.2875  0.0136  0.1809
 6798TIP3    H120358   5.575   0.263   2.285  0.6119  0.2718  0.4338
 6798TIP3    H220359   5.629   0.178   2.173  1.4671  1.9394 -0.4669
 6799TIP3   OH220360   4.020   4.815   4.005 -0.0684 -0.0488  0.1037
 6799TIP3    H120361   3.970   4.790   3.928 -0.3631  0.1239  0.2368
 6799TIP3    H220362   4.005   4.909   4.015  1.7976  0.4311 -0.9489
 6800TIP3   OH220363   3.025   2.547   3.858 -0.0106  0.0096  0.4700
 6800TIP3    H120364   3.078   2.625   3.843 -0.4613  0.4704  1.2177
 6800TIP3    H220365   2.999   2.518   3.770 -0.0733  0.8619  0.1978
 6801TIP3   OH220366   5.714   3.143   0.843 -0.4306  0.2602 -0.0352
 6801TIP3    H120367   5.689   3.230   0.813  0.0222  1.1150  1.8687
 6801TIP3    H220368   5.668   3.133   0.926 -0.0908 -1.1231  0.0098
 6802TIP3   OH220369   6.732   3.102   1.282  0.4655  0.3331  0.1426
 6802TIP3    H120370   6.655   3.156   1.298 -0.4995 -1.5146  2.3552
 6802TIP3    H220371   6.781   3.104   1.364 -0.0528 -2.6991  0.6435
 6803TIP3   OH220372   2.391   6.285   4.981 -0.0921  0.3788  0.4952
 6803TIP3    H120373   2.467   6.234   4.952 -0.6442  0.5853 -1.4654
 6803TIP3    H220374   2.395   6.365   4.928 -1.7842  0.2911  0.1723
 6804TIP3   OH220375   1.942   4.358   5.303  0.4469 -0.3283  0.0015
 6804TIP3    H120376   1.893   4.438   5.283  1.4918  0.6688  1.2901
 6804TIP3    H220377   1.978   4.331   5.218 -0.9551 -0.1703 -0.6809
 6805TIP3   OH220378   7.206   2.502   3.452 -0.3863  0.1493  0.3734
 6805TIP3    H120379   7.114   2.479   3.451 -0.5487  0.7264 -1.1132
 6805TIP3    H220380   7.237   2.479   3.364  0.2593  2.2833 -0.0090
 6806TIP3   OH220381   6.818   6.410   5.368 -0.1445 -0.4422  0.2212
 6806TIP3    H120382   6.897   6.442   5.325  0.5479 -0.3145  1.5347
 6806TIP3    H220383   6.764   6.489   5.380  1.6317  0.4888  3.6059
 6807TIP3   OH220384   4.978   0.506   4.976 -0.0289 -0.3927 -0.1325
 6807TIP3    H120385   4.924   0.572   4.933 -1.1729  0.3893  2.2803
 6807TIP3    H220386   5.065   0.545   4.981  0.1333 -0.5169 -1.6830
 6808TIP3   OH220387   1.774   1.117   1.724 -0.3381  0.2035  0.3067
 6808TIP3    H120388   1.683   1.139   1.741 -0.5404  0.4681 -0.9734
 6808TIP3    H220389   1.808   1.191   1.673  0.0273 -0.7555 -0.8895
 6809TIP3   OH220390   2.136   4.301   3.907  0.2321 -0.7097  0.6791
 6809TIP3    H120391   2.226   4.315   3.936  1.1381 -1.1822 -1.6219
 6809TIP3    H220392   2.132   4.209   3.884 -0.0085 -0.1880 -1.6221
 6810TIP3   OH220393   5.637   1.073   0.456 -0.3161  0.1000  0.2159
 6810TIP3    H120394   5.555   1.039   0.492 -0.6437 -0.3575 -0.9282
 6810TIP3    H220395   5.610   1.148   0.403  0.2706  1.3992  1.7027
 6811TIP3   OH220396   0.832   6.698   4.332  0.1589  0.1317 -0.8856
 6811TIP3    H120397   0.830   6.766   4.265 -0.4497  0.0166 -0.9866
 6811TIP3    H220398   0.902   6.725   4.391 -0.3273  1.0441 -0.7139
 6812TIP3   OH220399   3.799   4.175   2.156 -0.2044  0.1899 -0.2560
 6812TIP3    H120400   3.805   4.130   2.072 -1.9330 -0.8489  0.1154
 6812TIP3    H220401   3.819   4.107   2.221  1.5024  1.0742  0.1940
 6813TIP3   OH220402   5.279   6.791   2.134 -0.2017 -0.5191  0.0960
 6813TIP3    H120403   5.270   6.756   2.222 -1.2060 -1.5214 -0.3827
 6813TIP3    H220404   5.372   6.813   2.126 -0.4486  1.6758  2.1470
 6814TIP3   OH220405   3.307   3.609   4.191  0.0255  0.1193 -0.1230
 6814TIP3    H120406   3.315   3.608   4.096  2.6202 -0.7306  0.0328
 6814TIP3    H220407   3.214   3.625   4.207 -0.1802  2.2358 -2.7614
 6815TIP3   OH220408   5.934   6.374   4.993 -0.0224 -0.0123  0.1211
 6815TIP3    H120409   5.877   6.342   4.923  0.2612 -0.4505  0.0843
 6815TIP3    H220410   5.990   6.299   5.014  1.5943  0.8487 -0.9225
 6816TIP3   OH220411   6.030   1.526   3.259 -0.1241  0.6893 -0.0109
 6816TIP3    H120412   6.062   1.568   3.179  0.2505 -0.8019 -0.6796
 6816TIP3    H220413   5.968   1.461   3.229 -0.6678  0.7187  1.0001
 6817TIP3   OH220414   6.048   6.410   0.947 -0.8584 -0.4172  0.2929
 6817TIP3    H120415   6.010   6.470   1.011 -0.2305  0.2738  0.0405
 6817TIP3    H220416   6.105   6.466   0.893 -0.1285 -1.2630  0.1579
 6818TIP3   OH220417   2.058   0.281   2.966 -0.3186 -0.6594  0.7817
 6818TIP3    H120418   1.985   0.223   2.945  0.1672 -0.2468 -2.6158
 6818TIP3    H220419   2.133   0.223   2.979 -0.5457 -0.9196  0.9218
 6819TIP3   OH220420   1.628   0.607   5.865  0.0277  0.5139 -0.8320
 6819TIP3    H120421   1.540   0.645   5.862 -1.7242 -3.1101 -0.7497
 6819TIP3    H220422   1.680   0.669   5.917 -2.4247  2.7885 -0.9081
 6820TIP3   OH220423   6.535   5.135   3.093 -0.1716  0.4035 -0.4416
 6820TIP3    H120424   6.499   5.047   3.100 -0.5775  0.6618  1.0115
 6820TIP3    H220425   6.630   5.123   3.095 -0.1894  0.1424  2.7694
 6821TIP3   OH220426   4.286   5.496   4.222 -0.3596  0.2520  0.2137
 6821TIP3    H120427   4.371   5.451   4.219 -0.3091  0.4047 -0.6100
 6821TIP3    H220428   4.277   5.522   4.314  0.3327 -0.0595  0.3777
 6822TIP3   OH220429   3.508   6.679   2.604 -0.2996 -0.2029  0.8240
 6822TIP3    H120430   3.455   6.668   2.683 -1.3278  0.3871  0.2443
 6822TIP3    H220431   3.592   6.711   2.635 -0.4785 -0.5985  1.7314
 6823TIP3   OH220432   1.373   4.065   2.067  0.1236 -0.9008  0.2414
 6823TIP3    H120433   1.381   4.003   1.995  0.0429 -0.8285  0.1697
 6823TIP3    H220434   1.437   4.133   2.048 -0.9123 -0.1105 -0.5465
 6824TIP3   OH220435   5.019   0.268   0.102 -0.3113 -0.7496  0.7716
 6824TIP3    H120436   5.014   0.179   0.137 -0.6452 -1.2827 -0.5619
 6824TIP3    H220437   4.969   0.264   0.021 -1.0641  0.8863  1.1173
 6825TIP3   OH220438   4.089   0.496   0.016 -0.0637 -0.0691 -0.0290
 6825TIP3    H120439   4.044   0.446  -0.051  2.4076  0.4192 -2.2288
 6825TIP3    H220440   4.093   0.438   0.092 -3.3794 -0.4542 -0.0210
 6826TIP3   OH220441   6.649   2.263   2.926 -0.6082  0.1300 -0.2991
 6826TIP3    H120442   6.659   2.188   2.867 -0.5510 -0.2316  0.1666
 6826TIP3    H220443   6.737   2.283   2.956 -0.4632  1.1250 -1.3110
 6827TIP3   OH220444   4.843   0.629   1.617  0.1333  0.7569 -0.1315
 6827TIP3    H120445   4.824   0.538   1.637  0.9707  0.2588 -1.4301
 6827TIP3    H220446   4.784   0.651   1.544  0.8670  0.8053 -0.7283
 6828TIP3   OH220447   4.745   2.677   0.604  0.6665  0.4000  0.2220
 6828TIP3    H120448   4.731   2.768   0.629  3.1338  0.5110  1.5410
 6828TIP3    H220449   4.773   2.635   0.685  0.1078 -1.4364 -0.4869
 6829TIP3   OH220450   2.368   3.619   3.629  0.0152  0.1135 -0.2682
 6829TIP3    H120451   2.411   3.534   3.632  1.6601  0.9180  1.2586
 6829TIP3    H220452   2.379   3.653   3.718 -0.7842  1.8312 -0.7968
 6830TIP3   OH220453   5.204   3.238   2.633 -0.2271 -0.4166 -0.0555
 6830TIP3    H120454   5.211   3.219   2.727  1.5034 -4.2261 -0.7839
 6830TIP3    H220455   5.112   3.220   2.612 -0.4774 -0.1440  0.7487
 6831TIP3   OH220456   6.610   5.800   0.272 -0.0524 -0.4854  0.0785
 6831TIP3    H120457   6.656   5.883   0.284 -0.5343  0.0579 -1.5678
 6831TIP3    H220458   6.647   5.763   0.193 -1.5018 -0.6649 -0.5537
 6832TIP3   OH220459   1.138   3.424   5.702 -0.8175 -0.1927 -0.6640
 6832TIP3    H120460   1.220   3.374   5.711 -0.0043  1.2422  0.3621
 6832TIP3    H220461   1.079   3.383   5.764 -0.5815 -0.6693 -0.7466
 6833TIP3   OH220462   0.494   4.277   2.982  0.1841 -0.0660  0.1297
 6833TIP3    H120463   0.587   4.265   3.003  0.2153 -0.4224 -0.2074
 6833TIP3    H220464   0.483   4.236   2.897 -0.1600  0.5057 -0.1022
 6834TIP3   OH220465   2.920   2.135   1.354 -0.1210 -0.1633  0.0092
 6834TIP3    H120466   2.965   2.214   1.384  1.3665 -0.6566 -0.7916
 6834TIP3    H220467   2.853   2.118   1.420  1.8138 -0.1887  2.0582
 6835TIP3   OH220468   6.398   1.102   0.579 -0.8121 -0.1854 -0.0797
 6835TIP3    H120469   6.452   1.030   0.613 -0.6266 -0.0426 -0.0732
 6835TIP3    H220470   6.413   1.100   0.485 -1.4819 -0.7089 -0.1848
 6836TIP3   OH220471   6.178   5.777   4.648  0.1599  0.2731 -0.0278
 6836TIP3    H120472   6.256   5.804   4.697 -0.5705 -0.1921  1.4446
 6836TIP3    H220473   6.151   5.695   4.689  0.2420 -0.8415 -2.0629
 6837TIP3   OH220474   1.786   1.630   1.245 -0.7156 -0.3011  0.1536
 6837TIP3    H120475   1.829   1.565   1.189 -2.1026  0.6846 -2.1785
 6837TIP3    H220476   1.858   1.685   1.277  0.1301 -0.9516 -0.5689
 6838TIP3   OH220477   5.334   2.691   1.869 -0.7074 -0.2657  0.2751
 6838TIP3    H120478   5.317   2.750   1.943 -1.2591 -1.2908  0.9835
 6838TIP3    H220479   5.339   2.749   1.793  0.9230  0.9288  1.2356
 6839TIP3   OH220480   1.314   5.346   3.295 -0.0331  0.6219 -0.0319
 6839TIP3    H120481   1.406   5.330   3.275 -0.4096  0.8092 -2.2712
 6839TIP3    H220482   1.313   5.429   3.341  0.9595  0.3218  0.5577
 6840TIP3   OH220483   3.825   0.496   5.291 -0.1807  0.4760  0.5042
 6840TIP3    H120484   3.821   0.591   5.296 -2.2141  0.4232  0.6087
 6840TIP3    H220485   3.784   0.466   5.372  1.0989 -0.5235  0.8202
 6841TIP3   OH220486   7.056   0.569   5.865 -0.2210 -0.7939  0.2169
 6841TIP3    H120487   7.110   0.583   5.943 -0.0890  0.5878 -0.0938
 6841TIP3    H220488   7.118   0.573   5.792 -0.7058  0.9963 -0.1573
 6842TIP3   OH220489   2.453   5.059   3.938 -0.0132  0.2745 -0.4684
 6842TIP3    H120490   2.374   5.033   3.986 -0.6966  0.4804 -1.4479
 6842TIP3    H220491   2.487   5.135   3.986 -0.2780  0.0484  0.0876
 6843TIP3   OH220492   5.859   5.006   4.372 -0.0495 -0.3399 -0.1632
 6843TIP3    H120493   5.824   5.013   4.283 -1.5996 -2.2218  0.2207
 6843TIP3    H220494   5.954   4.999   4.360 -0.0773  1.0902 -1.5249
 6844TIP3   OH220495   0.791   3.111   1.047  0.5580  0.2133  0.5818
 6844TIP3    H120496   0.717   3.066   1.088  0.4909  0.3541  0.6182
 6844TIP3    H220497   0.752   3.188   1.005  0.8142  0.8427  1.4558
 6845TIP3   OH220498   5.027   2.126   0.923  0.0934 -0.2907  0.1993
 6845TIP3    H120499   5.090   2.085   0.864  0.8612  1.3101 -0.1356
 6845TIP3    H220500   4.959   2.161   0.866  0.0214 -0.1283  0.3831
 6846TIP3   OH220501   4.512   5.676   5.640 -0.0343  0.3539 -0.4558
 6846TIP3    H120502   4.484   5.619   5.712  0.3239  1.4587  0.5925
 6846TIP3    H220503   4.552   5.616   5.577  2.1341 -0.4051  1.4952
 6847TIP3   OH220504   5.805   3.790   5.152  0.8970 -0.3937  0.5721
 6847TIP3    H120505   5.895   3.815   5.171  2.0024 -2.4314 -1.4809
 6847TIP3    H220506   5.790   3.712   5.205 -0.4443  1.0187  2.4165
 6848TIP3   OH220507   6.189   1.072   1.973  0.4765  0.0785 -0.3529
 6848TIP3    H120508   6.173   1.027   2.056  1.0950 -2.2340 -1.4071
 6848TIP3    H220509   6.283   1.065   1.960  0.1985 -1.1244 -2.0208
 6849TIP3   OH220510   5.160   6.084   2.250  0.4641 -0.3278  0.1039
 6849TIP3    H120511   5.089   6.029   2.284  0.0421 -1.2143 -2.0245
 6849TIP3    H220512   5.134   6.104   2.160  0.5879  3.4893  0.7447
 6850TIP3   OH220513   6.185   5.092   0.044  0.0079  0.6124 -0.2585
 6850TIP3    H120514   6.161   5.184   0.056  0.3150  0.6829 -0.1643
 6850TIP3    H220515   6.113   5.054  -0.007 -1.3468  0.3059  1.7639
 6851TIP3   OH220516   6.980   0.177   0.605  0.5518 -0.3205  0.0019
 6851TIP3    H120517   6.931   0.096   0.621  1.6917 -1.6425 -2.5539
 6851TIP3    H220518   7.015   0.201   0.690 -3.2426 -0.0620  1.7186
 6852TIP3   OH220519   4.287   1.554   1.784 -0.1451 -0.9180 -0.2609
 6852TIP3    H120520   4.259   1.464   1.769  0.4693 -1.2905  0.7956
 6852TIP3    H220521   4.270   1.570   1.877 -0.3909  0.1180 -0.4666
 6853TIP3   OH220522   7.054   0.408   1.589  0.6176  0.1598 -0.2892
 6853TIP3    H120523   7.074   0.486   1.640  2.2116 -0.0626 -0.5455
 6853TIP3    H220524   7.136   0.385   1.546 -0.5891  0.1717 -2.7668
 6854TIP3   OH220525   2.951   6.160   5.676  0.2167 -0.0886 -0.1845
 6854TIP3    H120526   2.921   6.146   5.766 -1.0181  1.2524 -0.3484
 6854TIP3    H220527   3.047   6.163   5.683  0.1187  1.5218  1.3736
 6855TIP3   OH220528   1.362   3.535   2.344 -0.2762 -0.0977 -0.1472
 6855TIP3    H120529   1.440   3.481   2.357  0.1550  0.9281  1.9182
 6855TIP3    H220530   1.393   3.625   2.354 -1.4945  0.4124 -0.6909
 6856TIP3   OH220531   3.351   2.631   5.607  0.5612 -0.5128 -0.0136
 6856TIP3    H120532   3.401   2.633   5.526  0.2691 -1.4762 -0.2227
 6856TIP3    H220533   3.315   2.719   5.615  1.9328  0.0747 -0.0736
 6857TIP3   OH220534   3.016   0.368   1.064  0.1032 -0.3166 -0.1795
 6857TIP3    H120535   3.095   0.356   1.116 -0.0797 -0.0489  0.1677
 6857TIP3    H220536   2.944   0.365   1.128  0.0255  3.1348  0.1351
 6858TIP3   OH220537   0.911   4.077   5.613  0.0202  0.3959  0.2853
 6858TIP3    H120538   0.977   4.130   5.568 -0.6511  2.3668  1.4691
 6858TIP3    H220539   0.828   4.103   5.573 -0.6327  2.4621  2.7459
 6859TIP3   OH220540   4.163   3.944   2.297 -0.1516  0.2213 -0.1181
 6859TIP3    H120541   4.140   3.851   2.291  0.0855  0.0578  1.2726
 6859TIP3    H220542   4.122   3.983   2.220  0.5692 -1.1849 -1.2702
 6860TIP3   OH220543   0.642   1.183   0.818  0.1670 -0.2805  0.4284
 6860TIP3    H120544   0.585   1.108   0.801  0.5215 -0.1644 -1.4505
 6860TIP3    H220545   0.649   1.186   0.913 -3.2740 -0.0530  0.7858
 6861TIP3   OH220546   3.007   1.236   4.545  0.3704  0.3410 -0.2998
 6861TIP3    H120547   3.019   1.180   4.623  0.7676  0.7439 -0.0690
 6861TIP3    H220548   3.024   1.324   4.577  0.9825  0.4600 -0.9544
 6862TIP3   OH220549   0.779   3.593   5.604  0.4279  0.3017  0.3256
 6862TIP3    H120550   0.699   3.555   5.640  1.1619 -1.1600  0.5292
 6862TIP3    H220551   0.800   3.666   5.662 -1.3512  1.4539 -0.4063
 6863TIP3   OH220552   5.054   0.299   1.985 -0.4032 -0.1018 -0.1512
 6863TIP3    H120553   5.116   0.279   2.055  0.3570  1.4565 -0.3314
 6863TIP3    H220554   5.058   0.223   1.927  2.0375  0.2884 -0.6194
 6864TIP3   OH220555   0.579   0.361   0.371  0.4111  0.1796 -0.5893
 6864TIP3    H120556   0.489   0.331   0.383 -0.2123  1.7796 -0.9833
 6864TIP3    H220557   0.613   0.306   0.300 -0.9808  0.9582 -1.9196
 6865TIP3   OH220558   1.445   3.556   1.428  0.2047 -0.1500 -0.3693
 6865TIP3    H120559   1.430   3.612   1.352 -1.2324  0.3875  0.2708
 6865TIP3    H220560   1.446   3.467   1.393 -0.3852  0.1005 -1.0419
 6866TIP3   OH220561   1.242  -0.022   5.738  0.1361 -0.3459 -0.5207
 6866TIP3    H120562   1.242   0.066   5.778  1.7598 -0.4784 -0.1404
 6866TIP3    H220563   1.176  -0.018   5.670 -0.4045  0.9206  0.0489
 6867TIP3   OH220564   3.466   3.257   4.683 -1.1688 -0.2786 -0.0231
 6867TIP3    H120565   3.400   3.289   4.744  0.1701 -0.9904  1.9437
 6867TIP3    H220566   3.479   3.165   4.708 -0.8349 -0.6986 -1.6519
 6868TIP3   OH220567   3.212   5.205   5.795 -0.2260 -0.3542 -0.0215
 6868TIP3    H120568   3.262   5.277   5.832 -1.1021  1.1640 -1.6662
 6868TIP3    H220569   3.123   5.217   5.828 -0.6411  0.0427 -1.2236
 6869TIP3   OH220570   5.645   6.113   4.285  0.3825 -0.6570 -0.3427
 6869TIP3    H120571   5.643   6.167   4.206  1.8014 -0.3242 -0.1731
 6869TIP3    H220572   5.575   6.048   4.271 -1.3501  1.1462 -0.5726
 6870TIP3   OH220573   0.095   6.782   0.281  0.1904  0.0722  0.0136
 6870TIP3    H120574   0.134   6.816   0.201 -0.8861  2.3327  0.3881
 6870TIP3    H220575   0.169   6.745   0.330  1.1811  0.5485 -1.0813
 6871TIP3   OH220576   2.511   3.589   5.436 -0.6278 -0.1611  0.3474
 6871TIP3    H120577   2.569   3.555   5.504 -1.3909  0.0078  1.0871
 6871TIP3    H220578   2.484   3.512   5.387  0.9786 -0.1541 -0.6403
 6872TIP3   OH220579   4.926   3.703   2.061  0.4485 -0.0152  0.2034
 6872TIP3    H120580   4.897   3.696   2.152 -1.1527 -1.0880 -0.3534
 6872TIP3    H220581   5.021   3.690   2.065  0.4384  0.1987  1.7336
 6873TIP3   OH220582   1.808   0.132   4.155  0.0272  0.2513 -0.0137
 6873TIP3    H120583   1.755   0.156   4.080 -1.4927 -0.4409  0.7941
 6873TIP3    H220584   1.781   0.043   4.178  0.6933  0.3112  1.1426
 6874TIP3   OH220585   0.248   5.443   1.868  0.2730 -0.5008  0.0475
 6874TIP3    H120586   0.336   5.442   1.831 -0.0716 -1.0139 -0.7837
 6874TIP3    H220587   0.243   5.364   1.921  1.2614  0.9615  2.4478
 6875TIP3   OH220588   0.458   3.870   2.645  0.5842 -0.4509  0.8173
 6875TIP3    H120589   0.388   3.826   2.694  1.4151  0.3867  2.8730
 6875TIP3    H220590   0.538   3.827   2.675  1.1911  0.6782  0.8431
 6876TIP3   OH220591   3.759   2.365   0.071  1.1074  0.1063  0.3388
 6876TIP3    H120592   3.825   2.343   0.137  0.2042  0.2734  1.3269
 6876TIP3    H220593   3.752   2.286   0.017  0.6320 -0.6761  1.5134
 6877TIP3   OH220594   3.604   6.363   0.790  0.0010 -0.5060 -0.3636
 6877TIP3    H120595   3.691   6.401   0.803  0.5263 -1.8976  0.4604
 6877TIP3    H220596   3.619   6.268   0.790 -1.6545 -0.8272  1.0796
 6878TIP3   OH220597   1.089   4.471   4.625 -0.1518  0.0854 -0.1451
 6878TIP3    H120598   1.137   4.433   4.552 -0.5219 -0.1233 -0.2796
 6878TIP3    H220599   0.997   4.459   4.603 -0.3946  3.4424 -1.5047
 6879TIP3   OH220600   3.181   6.382   2.521 -0.0685  0.1109 -0.2817
 6879TIP3    H120601   3.127   6.341   2.589 -1.0004 -4.8337 -3.4841
 6879TIP3    H220602   3.269   6.349   2.538  0.2783  1.1944  0.0806
 6880TIP3   OH220603   3.161   6.536   4.001  0.1141  0.1083  0.6550
 6880TIP3    H120604   3.167   6.621   3.958  0.3680  0.3778  1.2142
 6880TIP3    H220605   3.084   6.494   3.961  1.8718 -0.8068 -2.0465
 6881TIP3   OH220606   6.110   0.922   3.619 -0.7219 -0.2562 -0.4665
 6881TIP3    H120607   6.115   1.017   3.619  0.8735 -0.3104 -0.3874
 6881TIP3    H220608   6.072   0.899   3.535 -1.5746  0.4545 -0.2858
 6882TIP3   OH220609   1.993   1.208   0.934 -0.0506 -0.1750 -0.3113
 6882TIP3    H120610   1.968   1.224   0.843  2.8737 -0.3589 -1.2535
 6882TIP3    H220611   2.060   1.274   0.952  0.0499 -0.7147  1.4266
 6883TIP3   OH220612   4.461   5.072   5.338  0.6679  0.0215 -0.7958
 6883TIP3    H120613   4.486   5.010   5.269 -1.9662 -0.1083 -1.7679
 6883TIP3    H220614   4.387   5.120   5.300 -1.6136 -0.7797  2.3005
 6884TIP3   OH220615   3.162   3.690   4.696  0.3376  0.3353  0.1690
 6884TIP3    H120616   3.171   3.737   4.614  3.7301 -0.5140 -0.0691
 6884TIP3    H220617   3.158   3.597   4.670 -1.3697  0.1557  0.8930
 6885TIP3   OH220618   6.808   6.597   2.947  0.5736  0.0709  0.5862
 6885TIP3    H120619   6.826   6.510   2.913  0.4245  0.0677  0.5181
 6885TIP3    H220620   6.797   6.585   3.041 -0.2732 -0.1063  0.4662
 6886TIP3   OH220621   6.056   0.961   1.314  0.1767 -0.1815 -0.4479
 6886TIP3    H120622   6.083   0.980   1.224 -0.3623  0.1905 -0.5355
 6886TIP3    H220623   6.066   0.866   1.322 -0.6815 -0.3438 -1.2124
 6887TIP3   OH220624   2.772   3.472   5.362  0.3125 -0.3846  0.3390
 6887TIP3    H120625   2.839   3.530   5.325  0.1686  0.3455  1.1821
 6887TIP3    H220626   2.690   3.517   5.342  0.1192 -0.8859 -0.0077
 6888TIP3   OH220627   6.897   6.629   5.582  0.5058 -0.0913 -0.1993
 6888TIP3    H120628   6.922   6.705   5.636  0.8411  0.2523 -0.8294
 6888TIP3    H220629   6.810   6.650   5.549  0.2980 -0.3041  0.2075
 6889TIP3   OH220630   6.784   6.069   0.576  0.6950 -0.0616 -0.3893
 6889TIP3    H120631   6.776   6.162   0.598  1.6126  0.7917 -3.1970
 6889TIP3    H220632   6.737   6.060   0.493  0.0707 -2.2851  0.1491
 6890TIP3   OH220633   2.658   2.152   0.391  0.7364 -0.1055  0.0640
 6890TIP3    H120634   2.607   2.231   0.412 -1.4386 -1.5402  0.4527
 6890TIP3    H220635   2.741   2.164   0.439  1.2041  2.6573 -1.2327
 6891TIP3   OH220636   4.102   4.561   5.681  0.2276 -0.1021  0.0966
 6891TIP3    H120637   4.186   4.606   5.673 -0.1074  1.1549  2.6080
 6891TIP3    H220638   4.091   4.547   5.775 -1.4641 -2.0895 -0.3171
 6892TIP3   OH220639   5.904   0.109   3.174  0.2626 -0.0588  0.3144
 6892TIP3    H120640   5.916   0.199   3.206  0.9130 -0.3665  0.9647
 6892TIP3    H220641   5.980   0.092   3.119  0.8195 -0.6530  1.2473
 6893TIP3   OH220642   4.180   6.257   1.426 -0.0252 -0.7955  0.0414
 6893TIP3    H120643   4.223   6.225   1.506 -0.7043 -0.2024  0.6551
 6893TIP3    H220644   4.141   6.179   1.387  0.1359 -1.0605  0.3977
 6894TIP3   OH220645   1.863   6.359   0.281 -0.3789  0.3795  0.6564
 6894TIP3    H120646   1.871   6.267   0.307 -1.7499  0.8074  2.8587
 6894TIP3    H220647   1.800   6.358   0.210 -0.3990 -0.3851  0.6778
 6895TIP3   OH220648   0.275   0.440   0.242  0.3054  0.4465  0.3369
 6895TIP3    H120649   0.259   0.377   0.171 -0.9547  0.5917  0.4725
 6895TIP3    H220650   0.259   0.391   0.322 -1.8877  1.1860  0.4300
 6896TIP3   OH220651   3.093   0.956   3.455 -0.1053 -0.5526  0.0206
 6896TIP3    H120652   3.168   0.989   3.405  0.0890 -0.5155  0.3340
 6896TIP3    H220653   3.055   0.889   3.398 -0.7605  0.4898 -0.8122
 6897TIP3   OH220654  -0.019   4.084   0.347  0.5469  0.3346  0.0438
 6897TIP3    H120655  -0.009   4.141   0.424  1.4119 -0.7286  0.7422
 6897TIP3    H220656   0.070   4.058   0.326  0.0685 -2.3901  1.0094
 6898TIP3   OH220657   1.821   2.941   3.303  0.0552 -0.3275 -0.0714
 6898TIP3    H120658   1.791   2.885   3.373  0.9376 -1.1314 -0.3243
 6898TIP3    H220659   1.740   2.976   3.264 -0.4409 -0.0386  1.1842
 6899TIP3   OH220660   1.628   2.078   0.629  0.2224  0.4557 -0.0171
 6899TIP3    H120661   1.618   2.132   0.550  1.8317  0.6337 -0.1245
 6899TIP3    H220662   1.575   2.123   0.695 -1.3549  0.1704 -1.0180
 6900TIP3   OH220663   7.014   3.731   1.531  0.0977 -0.1846  0.0487
 6900TIP3    H120664   7.059   3.811   1.558 -1.9166  0.9170  0.3889
 6900TIP3    H220665   7.068   3.695   1.461  2.1655  0.3038  1.3248
 6901TIP3   OH220666   5.250   1.633   1.331  0.2589 -0.1939 -0.0671
 6901TIP3    H120667   5.323   1.692   1.349 -1.2511  1.3457  1.4266
 6901TIP3    H220668   5.272   1.552   1.378  0.4171  0.7246  1.5299
 6902TIP3   OH220669   4.164   4.641   4.303 -0.5515  0.7142  0.0541
 6902TIP3    H120670   4.226   4.620   4.233 -0.3538  1.6298 -0.0556
 6902TIP3    H220671   4.105   4.566   4.306  0.0112  0.2440 -0.4577
 6903TIP3   OH220672   0.380   3.945   4.860 -0.0741 -0.1386  0.0790
 6903TIP3    H120673   0.342   4.020   4.906  1.5200 -0.3094  1.8094
 6903TIP3    H220674   0.453   3.981   4.811  1.3742 -0.6513  1.7781
 6904TIP3   OH220675   2.894   1.041   3.962  0.4661 -0.0589 -0.2002
 6904TIP3    H120676   2.881   1.135   3.970  0.1353 -0.1574  0.6028
 6904TIP3    H220677   2.979   1.031   3.920  0.0530  0.5995 -1.2174
 6905TIP3   OH220678   4.654   3.559   5.635 -0.0844 -0.4710 -0.7463
 6905TIP3    H120679   4.652   3.557   5.731 -2.3954  0.4910 -0.7082
 6905TIP3    H220680   4.734   3.608   5.614  0.2867 -0.4115  0.6964
 6906TIP3   OH220681   2.832   1.721   1.705 -0.0248  0.3328 -0.1143
 6906TIP3    H120682   2.806   1.809   1.733 -0.0296  0.3542 -0.1857
 6906TIP3    H220683   2.822   1.667   1.783 -0.4304  0.3114 -0.1783
 6907TIP3   OH220684   1.956   5.860   0.352 -0.2188 -0.2374 -0.8903
 6907TIP3    H120685   2.039   5.861   0.304 -0.3054 -1.6393 -1.1175
 6907TIP3    H220686   1.947   5.769   0.381  0.4682  0.7423  2.9272
 6908TIP3   OH220687   4.452   3.774   4.660 -0.1554 -0.2049  0.2202
 6908TIP3    H120688   4.545   3.752   4.672  0.0373  0.1385 -0.5934
 6908TIP3    H220689   4.407   3.689   4.665  0.3232 -0.5102 -0.4494
 6909TIP3   OH220690   4.831   6.643   2.616 -0.1527 -0.5895 -0.0010
 6909TIP3    H120691   4.906   6.702   2.611  1.1012 -2.1176  0.1772
 6909TIP3    H220692   4.842   6.598   2.700 -0.0863 -2.3185 -0.8874
 6910TIP3   OH220693   4.430   5.630   4.828 -0.1012 -0.6669  0.0241
 6910TIP3    H120694   4.456   5.652   4.917  0.0882 -1.3225  0.1358
 6910TIP3    H220695   4.437   5.534   4.824 -0.1138 -0.6424 -0.6907
 6911TIP3   OH220696   0.066   3.921   5.783  0.0691 -0.5870 -0.0439
 6911TIP3    H120697   0.100   3.848   5.731  1.4274  0.0391 -0.0587
 6911TIP3    H220698  -0.024   3.895   5.802  0.8146 -2.7829  0.8775
 6912TIP3   OH220699   6.383   1.190   4.424  0.6196 -0.0441 -0.1521
 6912TIP3    H120700   6.429   1.193   4.341 -0.8012  0.9695 -0.9375
 6912TIP3    H220701   6.424   1.258   4.477 -0.3469  1.3151 -1.0858
 6913TIP3   OH220702   4.544   5.257   0.456  0.3395  0.0903 -0.2013
 6913TIP3    H120703   4.518   5.182   0.510  1.2503 -0.7308 -0.8631
 6913TIP3    H220704   4.489   5.250   0.378  0.9420 -0.3217 -0.5906
 6914TIP3   OH220705   7.073   1.873   2.314 -0.2169 -0.4051  0.6293
 6914TIP3    H120706   7.114   1.873   2.400 -3.0595  2.6164  2.2022
 6914TIP3    H220707   6.990   1.826   2.327  0.4497 -2.2500 -1.2302
 6915TIP3   OH220708   4.821   5.702   0.726  0.1590  0.4812  0.2728
 6915TIP3    H120709   4.878   5.676   0.654 -0.6186 -0.3802 -0.0619
 6915TIP3    H220710   4.859   5.660   0.803  0.4304  0.5765  0.1906
 6916TIP3   OH220711   4.025   5.222   5.214 -0.2211  0.0431 -0.4121
 6916TIP3    H120712   4.032   5.127   5.227 -0.9585  0.1298  0.7410
 6916TIP3    H220713   4.113   5.249   5.188  0.1000 -0.8957 -0.3478
 6917TIP3   OH220714   3.225   3.296   2.508  0.9858  0.1427 -0.5159
 6917TIP3    H120715   3.288   3.254   2.449  0.4793 -1.8033  0.2538
 6917TIP3    H220716   3.141   3.285   2.465  0.4776 -2.1196  0.8945
 6918TIP3   OH220717   6.691   5.401   0.409  0.9624 -0.1730  0.8031
 6918TIP3    H120718   6.728   5.361   0.331  1.3116 -0.7934  1.2759
 6918TIP3    H220719   6.696   5.333   0.476  1.2130  0.5281  1.5246
 6919TIP3   OH220720   0.846   3.080   2.343 -0.2805 -0.5771  0.1598
 6919TIP3    H120721   0.922   3.062   2.400  0.6300  1.3857 -0.3709
 6919TIP3    H220722   0.794   3.143   2.392 -1.3112 -1.4816  0.2639
 6920TIP3   OH220723   1.422   1.431   4.561 -0.3110  0.3779  0.2425
 6920TIP3    H120724   1.347   1.417   4.619 -1.2216 -0.4449 -1.0699
 6920TIP3    H220725   1.498   1.402   4.611 -1.0813 -0.3563  1.0037
 6921TIP3   OH220726   0.057   5.319   1.022 -0.0078 -0.1199  0.2660
 6921TIP3    H120727   0.064   5.293   1.113  0.7322  0.4813  0.3915
 6921TIP3    H220728   0.103   5.251   0.973 -1.6738 -1.2313  0.1814
 6922TIP3   OH220729   5.322   6.692   1.878 -0.4799  0.0957 -0.0602
 6922TIP3    H120730   5.238   6.681   1.832  0.0018 -2.1825 -0.5057
 6922TIP3    H220731   5.298   6.690   1.971 -1.1778  2.2033 -0.1493
 6923TIP3   OH220732   2.289   0.430   3.927 -0.4762  0.3982  0.2764
 6923TIP3    H120733   2.292   0.524   3.946 -0.2490  0.3648  0.4126
 6923TIP3    H220734   2.292   0.388   4.013 -0.3113  0.2613  0.2046
 6924TIP3   OH220735   4.203   1.064   1.895  0.0665  0.2591  0.4521
 6924TIP3    H120736   4.257   1.039   1.970 -0.0384  0.3116  0.5451
 6924TIP3    H220737   4.121   1.017   1.907  0.5031 -0.7308 -0.2969
 6925TIP3   OH220738   5.259   5.680   5.196 -0.2886 -0.1150  0.6106
 6925TIP3    H120739   5.211   5.703   5.275 -0.8178 -1.3226  0.6537
 6925TIP3    H220740   5.334   5.628   5.227 -0.6455 -0.8229  0.3096
 6926TIP3   OH220741   5.619   0.607   4.143  0.0740 -0.6079 -0.1227
 6926TIP3    H120742   5.687   0.625   4.208  1.1832 -0.5421 -1.2480
 6926TIP3    H220743   5.584   0.693   4.121  0.2534 -0.5472 -0.1772
 6927TIP3   OH220744   6.610   3.762   5.639  0.5893  0.2402  0.2795
 6927TIP3    H120745   6.520   3.745   5.664  1.1991 -0.5793  2.1032
 6927TIP3    H220746   6.662   3.724   5.710  2.3306  1.9824  0.0094
 6928TIP3   OH220747   6.224   3.502   5.800 -0.5391  0.1403 -0.2637
 6928TIP3    H120748   6.214   3.549   5.883  2.3059  1.3520 -0.5213
 6928TIP3    H220749   6.250   3.414   5.825  2.4584  1.0585  0.2530
 6929TIP3   OH220750   5.674   6.494   3.009  0.0916  0.3307  0.2754
 6929TIP3    H120751   5.765   6.523   3.020 -0.1646  0.6836  1.6951
 6929TIP3    H220752   5.681   6.410   2.965  1.1689  0.0014  1.0291
 6930TIP3   OH220753   4.845   2.665   4.699  0.1170  0.3561  0.0046
 6930TIP3    H120754   4.780   2.668   4.768 -0.6531  1.1665 -0.7349
 6930TIP3    H220755   4.878   2.754   4.691 -0.6788  0.5547 -1.4656
 6931TIP3   OH220756   1.267   5.592   3.399  0.1514 -0.0637 -0.2994
 6931TIP3    H120757   1.246   5.679   3.364 -2.3035 -0.3124  0.3963
 6931TIP3    H220758   1.268   5.604   3.494 -1.7668 -1.0709 -0.1226
 6932TIP3   OH220759   6.400   6.619   0.995  0.0297  0.3149 -0.0746
 6932TIP3    H120760   6.464   6.652   0.932 -0.1040  0.6113 -0.0577
 6932TIP3    H220761   6.326   6.591   0.942  0.6976 -1.2992 -0.2067
 6933TIP3   OH220762   4.505   0.925   1.177 -0.2540  0.0771  0.1373
 6933TIP3    H120763   4.436   0.889   1.233  1.1241  0.0546  1.9613
 6933TIP3    H220764   4.581   0.870   1.197  0.4365  0.4362 -1.3933
 6934TIP3   OH220765   0.344   0.108   5.239  0.0741  0.6946  0.2111
 6934TIP3    H120766   0.387   0.120   5.323 -0.7161  1.7468  0.4882
 6934TIP3    H220767   0.278   0.177   5.235 -0.7884 -0.1361 -0.7107
 6935TIP3   OH220768   7.085   1.101   0.736  0.1664 -0.6850 -0.1495
 6935TIP3    H120769   7.045   1.014   0.727  0.4627 -0.9101  0.6220
 6935TIP3    H220770   7.068   1.144   0.652  1.8266 -2.2654 -1.3991
 6936TIP3   OH220771   2.416   4.913   4.578  0.1861 -0.0127 -0.0505
 6936TIP3    H120772   2.335   4.909   4.629  0.5778 -1.5219  0.4870
 6936TIP3    H220773   2.442   4.822   4.567  2.1509  0.4654  0.3042
 6937TIP3   OH220774   0.344   6.683   0.391 -0.0558  0.4559 -0.0541
 6937TIP3    H120775   0.403   6.688   0.316  0.1110 -0.3795  0.0046
 6937TIP3    H220776   0.362   6.597   0.430 -0.5094  0.6592  0.6338
 6938TIP3   OH220777   5.878   0.889   3.782 -0.2137  0.1985  0.1691
 6938TIP3    H120778   5.933   0.854   3.712  1.6588  1.7389  0.7766
 6938TIP3    H220779   5.923   0.862   3.863 -0.6225  1.0476  0.6911
 6939TIP3   OH220780   7.012   0.423   0.970  0.2376 -0.5117  0.1958
 6939TIP3    H120781   7.030   0.505   1.016 -0.4278  0.6329 -1.5372
 6939TIP3    H220782   6.960   0.372   1.033 -0.9175  1.1268  0.6447
 6940TIP3   OH220783   1.475   3.086   1.269 -0.0958 -0.3058  0.1924
 6940TIP3    H120784   1.421   3.096   1.191  1.3140 -0.0621 -0.7914
 6940TIP3    H220785   1.460   2.996   1.297 -1.6076 -0.0048  0.4259
 6941TIP3   OH220786   1.876   6.598   0.838  0.0064 -0.0257 -0.0909
 6941TIP3    H120787   1.917   6.598   0.924  1.6843  0.9663 -0.8405
 6941TIP3    H220788   1.880   6.689   0.809 -0.9297 -0.2654 -1.0408
 6942TIP3   OH220789   2.604   5.896   4.275 -0.0057 -0.4010 -0.8606
 6942TIP3    H120790   2.567   5.948   4.347 -1.1586  0.0935 -1.7793
 6942TIP3    H220791   2.688   5.939   4.257  1.3325 -1.8148  1.5477
 6943TIP3   OH220792   3.112   3.168   1.860  0.2904 -0.1047  0.0676
 6943TIP3    H120793   3.111   3.074   1.844 -0.6361 -0.3154  1.1536
 6943TIP3    H220794   3.203   3.188   1.881  0.6126 -0.6391 -0.7676
 6944TIP3   OH220795   6.425   5.201   0.075 -0.0192 -0.0418 -0.1341
 6944TIP3    H120796   6.347   5.148   0.060 -1.4926  1.5975  1.3614
 6944TIP3    H220797   6.481   5.146   0.130 -0.5012 -0.8875 -0.4685
 6945TIP3   OH220798   0.218   4.784   3.492 -0.2067 -0.4892 -0.4786
 6945TIP3    H120799   0.250   4.749   3.409 -0.3386 -0.6107 -0.4792
 6945TIP3    H220800   0.139   4.734   3.510 -0.6796  0.1454 -0.7304
 6946TIP3   OH220801   5.100   5.374   1.027 -0.1944  0.2870 -0.2589
 6946TIP3    H120802   5.055   5.458   1.037 -1.6900 -0.4632 -0.4762
 6946TIP3    H220803   5.031   5.311   1.007  0.9063 -0.9946 -0.2086
 6947TIP3   OH220804   5.809   5.904   4.056 -0.0718 -0.3337 -0.2062
 6947TIP3    H120805   5.830   5.857   4.137 -0.0471 -0.6175 -0.3765
 6947TIP3    H220806   5.767   5.839   4.001  0.8691 -0.4257 -0.8375
 6948TIP3   OH220807   4.640   5.628   1.786  0.2840 -0.7435 -0.0596
 6948TIP3    H120808   4.552   5.593   1.774 -0.6007  1.3858 -0.1691
 6948TIP3    H220809   4.681   5.622   1.700 -1.5425  2.6865 -1.3585
 6949TIP3   OH220810   2.292   3.129   5.779  0.0996  0.0896  0.1433
 6949TIP3    H120811   2.221   3.123   5.843  0.1068 -1.9057  0.0287
 6949TIP3    H220812   2.264   3.071   5.708  1.1043  0.5720 -0.6665
 6950TIP3   OH220813   3.547   5.111   1.275  0.2554 -0.3396  0.3262
 6950TIP3    H120814   3.636   5.103   1.243 -0.1189 -0.4730 -0.7081
 6950TIP3    H220815   3.523   5.202   1.258 -0.4515 -0.7810 -1.1656
 6951TIP3   OH220816   5.713   3.523   1.648  0.0063  0.3825 -0.3329
 6951TIP3    H120817   5.777   3.589   1.621 -0.5278  1.6579  1.3559
 6951TIP3    H220818   5.643   3.529   1.583 -0.6011  2.3637  0.4477
 6952TIP3   OH220819   5.882   0.511   4.353 -0.5096  0.2526 -0.2571
 6952TIP3    H120820   5.977   0.522   4.344 -0.2122 -1.3144  0.6263
 6952TIP3    H220821   5.871   0.472   4.440 -2.0323  1.1096 -0.0406
 6953TIP3   OH220822   1.553   0.298   5.371 -0.0625  0.4096  0.5022
 6953TIP3    H120823   1.619   0.358   5.407 -0.1321  1.0611 -0.4168
 6953TIP3    H220824   1.590   0.269   5.287  0.1190 -1.1236  1.0788
 6954TIP3   OH220825   1.699   0.746   3.078  0.4402 -0.0313 -0.6268
 6954TIP3    H120826   1.644   0.693   3.136 -0.0517  0.4430 -0.6490
 6954TIP3    H220827   1.669   0.723   2.990  1.0172 -0.5680 -0.6861
 6955TIP3   OH220828   5.955   3.765   5.850 -0.1536 -0.2332  0.6350
 6955TIP3    H120829   6.031   3.806   5.808  0.9238 -1.5671  1.1808
 6955TIP3    H220830   5.990   3.730   5.932 -1.7703  0.6321  1.7498
 6956TIP3   OH220831   0.640   3.740   4.814 -0.1577  0.4485  0.1982
 6956TIP3    H120832   0.661   3.832   4.796 -0.0236  0.0169 -2.0701
 6956TIP3    H220833   0.717   3.692   4.783 -0.4638 -0.4892  0.8614
 6957TIP3   OH220834   0.333   5.818   2.687  0.0140 -0.2861 -0.2746
 6957TIP3    H120835   0.263   5.880   2.665  1.3473  0.8935 -1.4112
 6957TIP3    H220836   0.305   5.778   2.769 -1.3162  1.1897  0.0439
 6958TIP3   OH220837   5.697   5.158   2.283  0.0396 -0.2429 -0.2639
 6958TIP3    H120838   5.639   5.205   2.342 -2.1121 -1.8803 -0.9270
 6958TIP3    H220839   5.644   5.142   2.204  0.7172 -3.2769 -0.2478
 6959TIP3   OH220840   6.289   1.958   0.724  0.3642 -0.1176 -0.0913
 6959TIP3    H120841   6.205   1.963   0.679  0.0915  1.1530  0.5079
 6959TIP3    H220842   6.271   1.992   0.812  1.0913 -1.6275  0.6749
 6960TIP3   OH220843   0.034   4.089   2.416  0.2666 -0.1476 -0.3754
 6960TIP3    H120844   0.002   4.069   2.328  0.7959 -2.4004 -0.1220
 6960TIP3    H220845   0.123   4.120   2.402  0.0410  0.3800 -0.6810
 6961TIP3   OH220846   5.847   6.551   3.937  0.1262  0.2235  0.1637
 6961TIP3    H120847   5.770   6.582   3.986 -0.8480 -0.9284 -0.5744
 6961TIP3    H220848   5.819   6.551   3.846  1.8602  2.1497 -0.4544
 6962TIP3   OH220849   2.919   1.792   5.294  0.5433  0.8561  0.1016
 6962TIP3    H120850   2.905   1.777   5.387  0.3173  0.4943  0.0106
 6962TIP3    H220851   3.007   1.829   5.289  1.3328 -0.8869  0.2966
 6963TIP3   OH220852   3.317   1.225   2.553 -0.2451 -0.1119  0.4346
 6963TIP3    H120853   3.287   1.209   2.643  0.5622 -4.2252  0.1617
 6963TIP3    H220854   3.248   1.189   2.498  0.4911 -0.1071 -0.5126
 6964TIP3   OH220855   5.031   0.224   2.913 -0.2938  0.0742  0.1503
 6964TIP3    H120856   4.993   0.304   2.876 -0.8849  0.0173  0.6238
 6964TIP3    H220857   5.110   0.208   2.860 -0.0331  1.1019  0.2085
 6965TIP3   OH220858   7.150   6.221   1.693 -0.0287  0.3405 -0.4194
 6965TIP3    H120859   7.065   6.246   1.729 -0.8872 -0.1129 -2.0232
 6965TIP3    H220860   7.164   6.281   1.620  0.9702  0.3046 -0.2748
 6966TIP3   OH220861   2.511   0.774   4.830 -0.3652 -0.2348 -0.2928
 6966TIP3    H120862   2.526   0.791   4.923 -1.9728 -0.5033  0.0393
 6966TIP3    H220863   2.468   0.689   4.828 -1.3712  0.2831 -1.2000
 6967TIP3   OH220864   1.247   3.758   4.714  0.0573  0.6252  0.2966
 6967TIP3    H120865   1.187   3.745   4.641  1.9332 -0.9966 -1.0637
 6967TIP3    H220866   1.331   3.779   4.674  1.0904 -0.0684  1.9609
 6968TIP3   OH220867   3.869   1.063   2.877 -0.0926 -0.0775 -0.2646
 6968TIP3    H120868   3.833   1.113   2.803  2.5333  0.5934 -1.2218
 6968TIP3    H220869   3.882   0.975   2.843  0.2299 -0.0135 -0.3133
 6969TIP3   OH220870   4.134   4.165   5.333 -0.2320  0.2469 -0.5412
 6969TIP3    H120871   4.217   4.119   5.336 -0.0692  0.5869  1.6609
 6969TIP3    H220872   4.155   4.255   5.358 -1.2995  0.1820  0.7347
 6970TIP3   OH220873   1.954   2.275   4.253  1.1793  0.5412 -0.2622
 6970TIP3    H120874   1.964   2.350   4.195 -1.7677  1.7168  0.5579
 6970TIP3    H220875   1.937   2.201   4.193 -1.1897  1.6079 -1.0350
 6971TIP3   OH220876   4.886   0.741   1.862 -0.1372 -0.0111 -0.1556
 6971TIP3    H120877   4.876   0.738   1.767 -1.7527  2.4097 -0.1529
 6971TIP3    H220878   4.978   0.764   1.875 -0.4417  2.1947 -1.3131
 6972TIP3   OH220879   1.657   1.276   0.626 -0.2476 -0.2068 -0.2181
 6972TIP3    H120880   1.610   1.331   0.688 -0.1115 -1.6215  1.2125
 6972TIP3    H220881   1.739   1.255   0.670 -0.5660 -2.0430 -0.4228
 6973TIP3   OH220882   5.828   1.756   3.506 -0.1997  0.2000 -0.2065
 6973TIP3    H120883   5.744   1.729   3.542 -0.2152  1.0145  0.3855
 6973TIP3    H220884   5.812   1.767   3.413 -0.3323 -1.2551 -0.3814
 6974TIP3   OH220885   3.800   0.084   4.089 -0.1926 -0.7681 -0.0450
 6974TIP3    H120886   3.771   0.061   4.178  0.1662 -0.8696  0.0437
 6974TIP3    H220887   3.874   0.027   4.072 -0.1327 -0.6039 -0.3337
 6975TIP3   OH220888   3.429   5.886   3.381 -0.1910 -0.0189 -0.1587
 6975TIP3    H120889   3.381   5.928   3.452  0.4061 -1.5517  1.2227
 6975TIP3    H220890   3.373   5.897   3.304 -0.7405  1.8960  0.4706
 6976TIP3   OH220891   4.551   5.284   4.276  0.0886  0.5010  0.3185
 6976TIP3    H120892   4.592   5.205   4.242  0.2835  0.5457  0.4483
 6976TIP3    H220893   4.531   5.265   4.367 -4.2239 -1.1459 -0.7395
 6977TIP3   OH220894   6.954   5.126   2.660  0.2245 -0.8640  0.4889
 6977TIP3    H120895   6.970   5.043   2.704 -1.4892 -0.9464  1.0104
 6977TIP3    H220896   6.956   5.191   2.730  1.9447 -0.3585  0.0352
 6978TIP3   OH220897   6.703   0.064   5.586  0.4442 -0.5170 -0.3408
 6978TIP3    H120898   6.790   0.032   5.562  0.9979 -0.1257  1.0607
 6978TIP3    H220899   6.720   0.145   5.634 -0.5320 -1.5465  1.8557
 6979TIP3   OH220900   3.551   4.110   4.263 -0.2308  0.1229 -0.2990
 6979TIP3    H120901   3.579   4.020   4.280 -0.7096 -0.3608 -1.9093
 6979TIP3    H220902   3.631   4.162   4.274  0.5996 -0.8094 -1.5973
 6980TIP3   OH220903   1.802   2.676   1.663  0.1503  0.2300 -0.7647
 6980TIP3    H120904   1.714   2.690   1.628 -0.5887 -0.9732  0.4839
 6980TIP3    H220905   1.818   2.752   1.719  0.2727  0.8816 -1.6721
 6981TIP3   OH220906   1.371   2.385   2.920  0.0192 -0.1369  0.7982
 6981TIP3    H120907   1.436   2.437   2.872 -1.2509  0.6732 -0.1323
 6981TIP3    H220908   1.400   2.388   3.011  2.6023 -1.8403  0.1474
 6982TIP3   OH220909   6.548   2.732   5.528  0.4192  0.2161 -0.0140
 6982TIP3    H120910   6.562   2.806   5.469 -0.9526 -0.5490 -1.3802
 6982TIP3    H220911   6.637   2.706   5.555  1.0659  0.8996 -1.3621
 6983TIP3   OH220912   5.354   1.395   5.708  0.1899  0.0896  0.3879
 6983TIP3    H120913   5.397   1.448   5.775 -1.7402  2.5034 -0.1326
 6983TIP3    H220914   5.272   1.367   5.749 -0.7035  1.0468 -0.6531
 6984TIP3   OH220915   6.715   3.022   3.859  0.1486  0.1327  0.7452
 6984TIP3    H120916   6.743   3.107   3.893 -0.6248  0.2364  1.1491
 6984TIP3    H220917   6.703   2.969   3.937  0.2606 -0.2355  0.5121
 6985TIP3   OH220918   1.749   0.577   0.456  0.2798 -0.4201  0.1358
 6985TIP3    H120919   1.696   0.655   0.469  0.8311 -0.2947  1.8115
 6985TIP3    H220920   1.695   0.505   0.487 -0.7320 -0.9534 -2.5492
 6986TIP3   OH220921   2.952   2.392   4.876  0.0787 -0.2467  0.8803
 6986TIP3    H120922   3.003   2.370   4.799 -1.0534 -0.6589  0.2312
 6986TIP3    H220923   2.899   2.314   4.894  0.7926 -0.4132  2.4774
 6987TIP3   OH220924   0.088   0.201   5.726 -0.2259  0.0099 -0.2436
 6987TIP3    H120925   0.130   0.236   5.648  0.4951 -1.7358 -0.6891
 6987TIP3    H220926  -0.006   0.212   5.710 -0.0368  1.1584 -0.6113
 6988TIP3   OH220927   6.092   1.125   0.345 -0.5944  0.1178  0.5021
 6988TIP3    H120928   6.037   1.157   0.273 -0.7576  1.7724  1.3060
 6988TIP3    H220929   6.175   1.102   0.303 -1.3921 -0.9975 -0.5103
 6989TIP3   OH220930   5.908   3.245   3.748  0.4871 -0.4474  0.7104
 6989TIP3    H120931   5.966   3.314   3.715  0.2214 -0.0699  1.0269
 6989TIP3    H220932   5.859   3.216   3.671 -0.0578  0.3593  0.7340
 6990TIP3   OH220933   1.641   3.256   1.578 -0.1705  0.0050 -0.0069
 6990TIP3    H120934   1.608   3.199   1.648 -0.6750 -1.5729 -1.4467
 6990TIP3    H220935   1.715   3.207   1.541  0.0302  0.7717 -0.6358
 6991TIP3   OH220936   6.605   1.037   1.966 -0.0948 -0.4938  0.6450
 6991TIP3    H120937   6.557   1.043   2.049 -0.0126 -3.8812  1.0755
 6991TIP3    H220938   6.691   1.003   1.990  0.5568  0.1205 -0.6998
 6992TIP3   OH220939   5.389   6.706   3.711 -0.0827  0.3788 -0.1759
 6992TIP3    H120940   5.365   6.615   3.729 -1.7218  0.9636  0.7924
 6992TIP3    H220941   5.484   6.705   3.707 -0.0517 -1.3147  0.1886
 6993TIP3   OH220942   1.825   4.229   0.098 -0.0763  0.0577 -0.1740
 6993TIP3    H120943   1.772   4.298   0.058  0.0560  0.5193  0.4346
 6993TIP3    H220944   1.814   4.241   0.192 -0.8894 -1.4218 -0.0489
 6994TIP3   OH220945   6.947   3.131   5.603  0.1963  0.1419 -0.4502
 6994TIP3    H120946   6.860   3.130   5.645 -1.0840  0.9814 -2.8886
 6994TIP3    H220947   6.929   3.152   5.512  2.8664 -1.2847 -1.4035
 6995TIP3   OH220948   4.715   3.555   1.537 -0.7067  0.4834  0.0758
 6995TIP3    H120949   4.672   3.563   1.622 -1.9219  0.7380 -0.5392
 6995TIP3    H220950   4.764   3.637   1.527 -0.4898  0.4138  0.5590
 6996TIP3   OH220951   4.336   5.342   0.863 -0.1440 -0.0141 -0.7816
 6996TIP3    H120952   4.260   5.385   0.823  0.5560  0.7590 -1.3147
 6996TIP3    H220953   4.352   5.266   0.807 -1.3285 -0.9620  0.1118
 6997TIP3   OH220954   7.056   3.827   2.910  0.6886  0.4362  0.5223
 6997TIP3    H120955   7.003   3.904   2.893  0.5037  0.9828  3.1296
 6997TIP3    H220956   7.116   3.822   2.836 -0.5344  1.9696 -0.6369
 6998TIP3   OH220957   3.707   0.009   4.335 -0.6321  0.2007 -0.4423
 6998TIP3    H120958   3.642   0.080   4.334 -2.1112 -1.0699 -2.0144
 6998TIP3    H220959   3.658  -0.067   4.367  0.2956 -0.6302 -0.9484
 6999TIP3   OH220960   4.493   4.834   1.762  0.4684  0.1881  0.2618
 6999TIP3    H120961   4.506   4.871   1.849 -0.8185  0.9742  0.1444
 6999TIP3    H220962   4.459   4.746   1.779  2.9368 -0.7901  0.5345
 7000TIP3   OH220963   1.684   2.467   4.123  0.2855 -0.1756  0.0124
 7000TIP3    H120964   1.760   2.469   4.181 -0.3730  0.9159  0.8744
 7000TIP3    H220965   1.608   2.469   4.181 -0.3916  0.9893 -0.8562
 7001TIP3   OH220966   5.466   3.061   5.624  0.4580 -0.2341  0.0908
 7001TIP3    H120967   5.527   2.995   5.656  2.0083  0.6069 -1.0014
 7001TIP3    H220968   5.487   3.140   5.674  0.3015  0.0716 -0.3204
 7002TIP3   OH220969   1.400   0.890   1.776  0.1282  0.3191  0.1035
 7002TIP3    H120970   1.364   0.901   1.688 -1.7974  0.5638  0.8508
 7002TIP3    H220971   1.337   0.832   1.820  1.1159  0.0956  1.2768
 7003TIP3   OH220972   1.221   4.233   5.873  0.0628 -0.4742 -0.5192
 7003TIP3    H120973   1.184   4.256   5.788 -1.3346 -2.1281 -0.4133
 7003TIP3    H220974   1.147   4.201   5.924  0.9619  0.0522  1.1816
 7004TIP3   OH220975   0.182   0.285   1.252 -0.3479 -0.5200  0.0362
 7004TIP3    H120976   0.162   0.265   1.161  0.1350  2.2889 -0.7818
 7004TIP3    H220977   0.277   0.272   1.259  0.5681  3.6002 -1.3456
 7005TIP3   OH220978   0.571   2.684   4.406 -0.2418 -0.9885 -0.2737
 7005TIP3    H120979   0.647   2.626   4.408 -1.3653 -2.5258  1.5009
 7005TIP3    H220980   0.545   2.688   4.314  0.2339 -2.8305 -0.5214
 7006TIP3   OH220981   1.437   2.395   2.510 -0.0300 -0.4471 -0.2434
 7006TIP3    H120982   1.450   2.479   2.467  1.6094 -0.2705  0.5007
 7006TIP3    H220983   1.513   2.343   2.486 -0.7577 -1.5428 -0.2634
 7007TIP3   OH220984   6.087   6.776   1.165  0.2135 -0.0133  0.1512
 7007TIP3    H120985   6.051   6.691   1.138 -0.0202  0.5553 -1.4047
 7007TIP3    H220986   6.106   6.764   1.258  0.4888 -1.8748 -0.0913
 7008TIP3   OH220987   3.411   3.205   0.151 -0.4184 -0.4926 -0.5284
 7008TIP3    H120988   3.471   3.176   0.082  0.5862 -1.3172  0.6307
 7008TIP3    H220989   3.449   3.168   0.231 -1.4557  0.5830  0.4807
 7009TIP3   OH220990   3.489   0.113   2.442  0.1628  0.5030  0.4804
 7009TIP3    H120991   3.494   0.025   2.403 -1.3457  0.1515  1.0479
 7009TIP3    H220992   3.575   0.126   2.482  0.1110 -1.0761  1.1538
 7010TIP3   OH220993   3.092   1.865   3.007  0.0899 -0.4400 -0.1608
 7010TIP3    H120994   3.054   1.920   2.939 -2.1617 -0.3689  1.0588
 7010TIP3    H220995   3.086   1.918   3.087  1.1670 -1.1296  0.4097
 7011TIP3   OH220996   6.085   5.853   2.432 -0.4719  0.0271  0.5102
 7011TIP3    H120997   6.140   5.794   2.381  1.7390  1.0177  1.6205
 7011TIP3    H220998   6.016   5.796   2.467  0.8610 -1.6668  0.5210
 7012TIP3   OH220999   6.671   3.860   5.147  0.2392  0.1660 -0.2980
 7012TIP3    H121000   6.676   3.826   5.057  0.4679 -2.3434  0.5830
 7012TIP3    H221001   6.763   3.870   5.173  0.1763 -0.0180 -0.0130
 7013TIP3   OH221002   3.520   1.140   3.313 -0.3026 -0.6352 -0.0959
 7013TIP3    H121003   3.521   1.073   3.382 -0.2722 -1.9537 -1.3176
 7013TIP3    H221004   3.597   1.121   3.259  0.2227  0.9816  0.0340
 7014TIP3   OH221005   0.091   2.320   1.474 -0.1553  0.0043 -0.2785
 7014TIP3    H121006   0.114   2.374   1.398 -2.8000  3.7324  1.2666
 7014TIP3    H221007   0.094   2.381   1.548  0.0685 -2.9134  2.3098
 7015TIP3   OH221008   5.673   5.095   0.826  0.3802  0.1302  0.5249
 7015TIP3    H121009   5.768   5.094   0.814  0.4786  0.5922  1.1888
 7015TIP3    H221010   5.659   5.152   0.901 -0.4146 -0.0836  0.5513
 7016TIP3   OH221011   6.286   1.355   5.439  0.2747  0.5033  0.6585
 7016TIP3    H121012   6.351   1.324   5.375  0.2617  1.0825  0.3592
 7016TIP3    H221013   6.213   1.293   5.429  0.6802 -0.0135  0.8340
 7017TIP3   OH221014   5.329   2.110   5.019 -0.1017  0.0815 -0.9487
 7017TIP3    H121015   5.357   2.192   4.979  0.0730  0.1219 -0.7446
 7017TIP3    H221016   5.386   2.100   5.095 -1.6873  0.9720  0.4144
 7018TIP3   OH221017   4.651   0.946   3.852  0.3182  0.3107 -0.9044
 7018TIP3    H121018   4.728   0.922   3.801 -0.2266 -0.1967 -1.4946
 7018TIP3    H221019   4.581   0.891   3.818 -0.6422  1.7328 -1.3568
 7019TIP3   OH221020   6.357   3.573   5.153 -0.4855  0.0910 -0.1805
 7019TIP3    H121021   6.410   3.634   5.204 -2.5552  1.1191  0.8661
 7019TIP3    H221022   6.392   3.579   5.064  0.3479  1.6407  0.2194
 7020TIP3   OH221023   4.701   0.734   0.882  0.4401 -0.1584 -0.2319
 7020TIP3    H121024   4.788   0.735   0.844  0.9042 -1.5317  0.7109
 7020TIP3    H221025   4.706   0.668   0.951 -1.4138 -0.4667 -0.3381
 7021TIP3   OH221026   1.653   4.185   3.241  0.1337  0.1795 -0.0349
 7021TIP3    H121027   1.653   4.091   3.228 -0.4556  0.3918 -1.8183
 7021TIP3    H221028   1.566   4.214   3.212  0.2108  1.2538  0.7249
 7022TIP3   OH221029   3.858   1.742   3.866  0.3049 -0.7714  0.0113
 7022TIP3    H121030   3.898   1.660   3.894  0.9157 -0.0670  1.3315
 7022TIP3    H221031   3.923   1.782   3.808  0.5382 -0.6558  0.3536
 7023TIP3   OH221032   5.949   2.242   3.041  0.4735  0.0776 -0.2074
 7023TIP3    H121033   5.995   2.325   3.036  0.2317  0.2229 -0.0378
 7023TIP3    H221034   6.017   2.179   3.067  1.0629 -0.1256 -2.0995
 7024TIP3   OH221035   2.851   5.998   3.627  0.2808  0.5210  0.1151
 7024TIP3    H121036   2.796   5.923   3.647  0.8426  0.1841  0.4060
 7024TIP3    H221037   2.937   5.961   3.607 -0.0329  0.8722 -2.2567
 7025TIP3   OH221038   3.174   4.201   2.301  0.1784  0.2240  0.0424
 7025TIP3    H121039   3.182   4.173   2.393  0.1548  0.2394  0.0492
 7025TIP3    H221040   3.202   4.125   2.251 -0.4223 -0.0101  0.0488
 7026TIP3   OH221041   3.924   1.998   2.394  0.1805  0.0200 -0.0179
 7026TIP3    H121042   3.985   1.943   2.346 -1.6702 -0.9162 -1.4314
 7026TIP3    H221043   3.875   2.045   2.327  0.1640  1.6919  1.1098
 7027TIP3   OH221044   3.467   2.399   5.671 -0.4250 -0.1242 -0.3509
 7027TIP3    H121045   3.413   2.347   5.730  0.5212  0.1652  0.8117
 7027TIP3    H221046   3.420   2.482   5.661 -0.7145 -0.2706 -0.2013
 7028TIP3   OH221047   0.989   3.864   1.716  0.5919  0.0051  0.1689
 7028TIP3    H121048   0.894   3.848   1.724  0.3290  1.4028  0.0571
 7028TIP3    H221049   1.010   3.838   1.627  0.2766 -0.1212  0.1301
 7029TIP3   OH221050   1.638   5.084   1.706  0.0123 -0.0322  0.8888
 7029TIP3    H121051   1.555   5.066   1.750  0.0897 -1.1048  0.6183
 7029TIP3    H221052   1.645   5.017   1.638  0.9135  0.2806  0.6529
 7030TIP3   OH221053   0.610   1.919   4.605 -0.0293 -0.0385 -0.3126
 7030TIP3    H121054   0.670   1.882   4.540  0.1146 -0.1021 -0.1443
 7030TIP3    H221055   0.668   1.953   4.673 -0.2221 -1.0891  0.3902
 7031TIP3   OH221056   6.659   0.221   0.190 -0.2282  0.0141  0.2504
 7031TIP3    H121057   6.569   0.217   0.158 -0.0632 -1.9249 -0.1112
 7031TIP3    H221058   6.712   0.229   0.111 -0.0112 -0.6357  0.3275
 7032TIP3   OH221059   5.739   5.082   5.061  1.3467  0.3490 -0.1526
 7032TIP3    H121060   5.780   4.996   5.052  0.9102  0.1269 -0.1022
 7032TIP3    H221061   5.693   5.077   5.145 -1.1242 -0.4584 -1.4250
 7033TIP3   OH221062   2.515   3.184   0.358  0.0196 -0.5582  0.2691
 7033TIP3    H121063   2.464   3.122   0.409 -0.9453 -0.0249 -0.0155
 7033TIP3    H221064   2.576   3.130   0.307 -2.4004 -1.5143 -1.7981
 7034TIP3   OH221065   3.016   3.330   2.067 -0.0557  0.1813 -0.4472
 7034TIP3    H121066   3.046   3.268   2.001 -2.1323 -1.0808 -0.2658
 7034TIP3    H221067   2.925   3.349   2.044 -0.0248  1.7892  0.5564
 7035TIP3   OH221068   0.413   5.365   4.883 -0.0747  0.2255  0.4247
 7035TIP3    H121069   0.397   5.275   4.912 -0.1176  0.3618  0.8346
 7035TIP3    H221070   0.507   5.377   4.891  0.0939 -0.1845 -0.8258
 7036TIP3   OH221071   3.403   2.532   4.619 -0.4344  0.2021 -0.0796
 7036TIP3    H121072   3.455   2.563   4.692 -0.0750 -0.3871 -0.0834
 7036TIP3    H221073   3.317   2.513   4.657  0.1974 -1.5964  0.5236
 7037TIP3   OH221074   2.350   4.179   1.090 -0.1289  0.0579  0.2483
 7037TIP3    H121075   2.298   4.099   1.083 -0.6987  0.4856 -0.5624
 7037TIP3    H221076   2.418   4.171   1.023 -1.1346  0.9191 -0.9242
 7038TIP3   OH221077   6.285   0.768   4.379 -0.1608 -0.5089  0.0952
 7038TIP3    H121078   6.203   0.731   4.412  0.3005 -0.3738  1.4821
 7038TIP3    H221079   6.274   0.771   4.284 -1.2118 -1.8065  0.1432
 7039TIP3   OH221080   0.332   3.575   3.423  0.0949 -0.2458 -0.5303
 7039TIP3    H121081   0.364   3.654   3.379  1.4336 -0.6428 -0.3314
 7039TIP3    H221082   0.403   3.551   3.483 -1.5020  0.0570  1.5830
 7040TIP3   OH221083   0.241   5.882   1.167  0.3564  0.5718  0.3754
 7040TIP3    H121084   0.329   5.916   1.180  0.5414 -0.3157  1.6348
 7040TIP3    H221085   0.250   5.820   1.095 -0.0133  3.1379 -2.0408
 7041TIP3   OH221086   3.254   0.638   4.175 -0.0514  0.1167  0.1548
 7041TIP3    H121087   3.327   0.631   4.237  1.5225 -0.1580 -1.6533
 7041TIP3    H221088   3.274   0.573   4.108 -0.3053  2.1621 -2.0044
 7042TIP3   OH221089   2.542   3.928   1.781  0.5329  0.2336  0.0565
 7042TIP3    H121090   2.564   3.975   1.701 -0.1990 -1.3485 -1.1224
 7042TIP3    H221091   2.543   3.836   1.756 -2.6131 -0.1920  1.0850
 7043TIP3   OH221092   0.211   2.031   0.382  0.2654  0.2953  0.4979
 7043TIP3    H121093   0.254   2.015   0.466  1.4679  0.6320 -0.0294
 7043TIP3    H221094   0.213   1.946   0.338  0.8060  0.4086  0.2969
 7044TIP3   OH221095   3.856   3.192   5.288  0.4537 -0.3317  0.3850
 7044TIP3    H121096   3.782   3.195   5.349 -1.0349 -0.6018 -1.3075
 7044TIP3    H221097   3.933   3.197   5.343 -0.8121 -0.8288  2.2980
 7045TIP3   OH221098   1.352   2.120   2.836 -0.1263 -0.1721  0.0978
 7045TIP3    H121099   1.372   2.210   2.861  1.4168 -0.4284 -0.1635
 7045TIP3    H221100   1.401   2.066   2.898 -0.4973 -0.8365 -0.1763
 7046TIP3   OH221101   5.423   0.115   4.256 -0.5090 -0.1337 -0.0755
 7046TIP3    H121102   5.439   0.193   4.203 -1.8352 -0.0562 -0.3913
 7046TIP3    H221103   5.478   0.127   4.334 -0.7975  1.1950 -0.0481
 7047TIP3   OH221104   2.970   4.655   3.054 -0.5143  0.2881 -0.4515
 7047TIP3    H121105   2.946   4.562   3.056 -2.1692  0.6923 -0.2553
 7047TIP3    H221106   3.010   4.667   2.967 -1.3434 -0.3628 -0.9333
 7048TIP3   OH221107   5.840   1.416   3.078 -0.9032  0.6893 -0.0378
 7048TIP3    H121108   5.811   1.490   3.025 -0.5847  1.0166  0.2395
 7048TIP3    H221109   5.768   1.402   3.140  0.2855  2.7904  1.9745
 7049TIP3   OH221110   0.307   3.562   0.205 -0.0885 -0.4320 -0.2112
 7049TIP3    H121111   0.295   3.594   0.295  1.5718 -0.6384  0.1127
 7049TIP3    H221112   0.370   3.622   0.166 -0.9715 -0.2056 -1.3511
 7050TIP3   OH221113   5.015   1.812   1.059 -0.0638  0.1107 -0.5278
 7050TIP3    H121114   5.091   1.754   1.072  1.0406  1.6300  0.0688
 7050TIP3    H221115   5.013   1.827   0.965 -0.8660 -1.4946 -0.8118
 7051TIP3   OH221116   1.367   0.928   5.650  0.0720  0.0135  0.0556
 7051TIP3    H121117   1.276   0.913   5.622 -0.1556  1.1293  0.1339
 7051TIP3    H221118   1.417   0.858   5.609 -0.1997  1.6544 -3.3914
 7052TIP3   OH221119   1.652   2.515   4.588  0.3069 -0.0027  0.7473
 7052TIP3    H121120   1.649   2.611   4.590 -0.6067  0.0207 -0.3898
 7052TIP3    H221121   1.668   2.489   4.679 -0.6385  1.2126  1.2938
 7053TIP3   OH221122   2.087   6.587   4.551  0.7269 -0.0493 -0.4477
 7053TIP3    H121123   2.153   6.578   4.481  1.8646  0.7784  0.4656
 7053TIP3    H221124   2.099   6.677   4.583 -1.2226  0.3021 -0.5879
 7054TIP3   OH221125   6.305   4.818   4.410  0.2101  0.0853  0.0346
 7054TIP3    H121126   6.335   4.730   4.430 -0.3064  0.1190  1.0349
 7054TIP3    H221127   6.383   4.873   4.419  0.2574 -0.0871  0.7617
 7055TIP3   OH221128   5.524   6.682   1.484  0.0820  0.4724 -0.1234
 7055TIP3    H121129   5.520   6.632   1.403 -1.3186  0.8079 -0.2900
 7055TIP3    H221130   5.522   6.616   1.553 -0.5225  0.2441 -0.3520
 7056TIP3   OH221131   2.059   4.561   2.035  0.3541  0.4293  0.3525
 7056TIP3    H121132   2.032   4.575   1.944  0.7791 -1.0074 -0.0163
 7056TIP3    H221133   2.155   4.555   2.031  0.4325  1.0699  1.0139
 7057TIP3   OH221134   0.590   2.795   2.648 -0.2978  0.0769 -0.1301
 7057TIP3    H121135   0.522   2.728   2.657 -0.4545  0.0840 -1.0818
 7057TIP3    H221136   0.547   2.865   2.597  0.7715 -0.4776 -1.8973
 7058TIP3   OH221137   6.115   1.189   4.385  0.1669  0.3011  0.3670
 7058TIP3    H121138   6.208   1.189   4.408  0.1808  0.9704  0.3284
 7058TIP3    H221139   6.078   1.261   4.436 -0.4452 -0.3345  0.8365
 7059TIP3   OH221140   3.158   4.214   2.624 -0.4917  0.0402  0.4654
 7059TIP3    H121141   3.224   4.267   2.669  0.8373 -1.4869  0.3934
 7059TIP3    H221142   3.077   4.264   2.634  1.1739  3.7669 -2.3691
 7060TIP3   OH221143   2.728   3.483   4.967 -0.1574  0.5200 -0.5081
 7060TIP3    H121144   2.683   3.532   5.036  0.0252  1.9170 -1.3457
 7060TIP3    H221145   2.809   3.532   4.951  0.2123 -0.2646 -1.1141
 7061TIP3   OH221146   0.191   0.247   3.579 -0.0263 -0.0432  0.1761
 7061TIP3    H121147   0.215   0.157   3.599 -0.1601 -0.2005 -0.3744
 7061TIP3    H221148   0.118   0.266   3.638 -0.1403 -0.3640  0.1406
 7062TIP3   OH221149   3.189   6.623   2.383  0.0831 -0.1114  0.0569
 7062TIP3    H121150   3.193   6.544   2.436 -1.5276 -0.2061  0.0651
 7062TIP3    H221151   3.132   6.682   2.432 -0.5057  0.2296 -1.0170
 7063TIP3   OH221152   5.000   3.480   5.452  0.1335 -0.0397  0.3818
 7063TIP3    H121153   5.024   3.388   5.467  0.3823 -0.0911 -0.3037
 7063TIP3    H221154   4.963   3.508   5.535  0.1977 -0.7184  0.6514
 7064TIP3   OH221155   1.208   5.676   4.744  0.0586 -0.3698 -0.0126
 7064TIP3    H121156   1.237   5.703   4.657  1.4027 -1.2748  0.1146
 7064TIP3    H221157   1.124   5.720   4.756 -0.1423 -0.1922 -1.7438
 7065TIP3   OH221158   5.703   1.362   4.897  0.0672  0.0878 -0.4223
 7065TIP3    H121159   5.676   1.447   4.863  0.7675 -0.2112 -1.8226
 7065TIP3    H221160   5.697   1.303   4.821  2.3437 -0.4744 -0.2430
 7066TIP3   OH221161   2.267   5.462   3.237  0.0287 -0.0967 -0.3222
 7066TIP3    H121162   2.253   5.489   3.328 -1.3141 -0.2762 -0.4568
 7066TIP3    H221163   2.362   5.451   3.230  0.3375  1.5986  0.5701
 7067TIP3   OH221164   3.670   0.974   0.893 -0.1676  0.2065  0.3038
 7067TIP3    H121165   3.583   1.004   0.922  0.8468  2.4861  1.2561
 7067TIP3    H221166   3.682   1.017   0.808 -0.5749 -1.4120 -0.6116
 7068TIP3   OH221167   0.110   2.425   2.925  0.2071  0.4941  0.0616
 7068TIP3    H121168   0.074   2.352   2.876 -0.1753  1.8420 -1.7771
 7068TIP3    H221169   0.036   2.484   2.940  0.7982  1.2718  0.0430
 7069TIP3   OH221170   3.744   6.117   4.018  0.2885  0.2263  0.4668
 7069TIP3    H121171   3.681   6.099   4.088 -0.5044 -0.2965 -0.3514
 7069TIP3    H221172   3.824   6.071   4.044 -0.1673 -0.4099  0.7774
 7070TIP3   OH221173   0.405   4.216   4.730 -0.2773 -0.0399 -0.5461
 7070TIP3    H121174   0.361   4.170   4.658  0.9082  0.4365 -1.6175
 7070TIP3    H221175   0.336   4.268   4.771 -1.3649 -1.7612 -0.1186
 7071TIP3   OH221176   4.802   0.951   5.485  0.1118 -0.3392  0.1886
 7071TIP3    H121177   4.773   0.862   5.503 -2.3682  0.4879  0.6568
 7071TIP3    H221178   4.875   0.965   5.545 -0.2687 -1.6420  0.9954
 7072TIP3   OH221179   3.648   5.144   4.776 -1.2781 -0.5206 -0.1672
 7072TIP3    H121180   3.643   5.110   4.687 -2.2506  2.3313 -1.3017
 7072TIP3    H221181   3.558   5.165   4.799 -0.8046  0.7179  0.6739
 7073TIP3   OH221182   6.238   1.737   4.540 -0.2654 -0.6437 -0.3078
 7073TIP3    H121183   6.311   1.694   4.585 -1.4327 -1.8745  0.4726
 7073TIP3    H221184   6.218   1.813   4.595 -1.2942 -1.8082  1.0035
 7074TIP3   OH221185   3.528   4.124   0.718 -0.0667  0.3857  0.6100
 7074TIP3    H121186   3.450   4.073   0.694  0.2013  0.6294 -0.9009
 7074TIP3    H221187   3.556   4.088   0.801 -0.3539 -1.4129 -0.0315
 7075TIP3   OH221188   1.520   3.764   5.572  0.3419  0.3368  0.2147
 7075TIP3    H121189   1.523   3.850   5.614  0.0512  0.4866 -0.0763
 7075TIP3    H221190   1.550   3.780   5.483  1.5169 -0.0755  0.5054
 7076TIP3   OH221191   5.558   5.906   3.013  0.0490  0.1211 -0.0688
 7076TIP3    H121192   5.509   5.942   2.939 -2.5661 -1.6710  0.6150
 7076TIP3    H221193   5.496   5.908   3.086  0.8917 -2.4120  0.8428
 7077TIP3   OH221194   2.445   0.757   3.646 -0.1235 -0.1528 -0.1983
 7077TIP3    H121195   2.426   0.664   3.652  1.5378 -0.5438 -0.3097
 7077TIP3    H221196   2.507   0.764   3.573  1.2838  0.7403  1.0222
 7078TIP3   OH221197   6.325   6.224   5.901 -0.3406 -0.0764 -0.2480
 7078TIP3    H121198   6.246   6.279   5.900  0.4438  1.1321 -1.5407
 7078TIP3    H221199   6.345   6.211   5.808  2.3085  1.7429 -0.0554
 7079TIP3   OH221200   2.747   3.048   0.519 -0.4578 -0.2380  0.3330
 7079TIP3    H121201   2.767   3.066   0.427  2.8103  0.0937  0.9730
 7079TIP3    H221202   2.735   2.953   0.523 -1.5761 -0.1572 -0.5371
 7080TIP3   OH221203   6.931   2.276   5.134 -0.2089 -0.0497  0.2484
 7080TIP3    H121204   7.014   2.278   5.087 -0.0903 -0.1403  0.4533
 7080TIP3    H221205   6.879   2.346   5.094  0.2010  0.4335  0.5583
 7081TIP3   OH221206   5.192   4.455   3.542  0.5319 -0.2995  0.7096
 7081TIP3    H121207   5.245   4.381   3.513 -0.0546 -0.8402  0.9987
 7081TIP3    H221208   5.241   4.532   3.513  0.2414 -0.7928 -1.2033
 7082TIP3   OH221209   1.020   6.734   4.510  0.6579 -0.2367 -0.1041
 7082TIP3    H121210   1.044   6.644   4.532 -0.9579 -0.8575 -0.7045
 7082TIP3    H221211   1.051   6.786   4.584  0.9009 -1.4030  0.6319
 7083TIP3   OH221212   1.663   2.067   0.131 -0.0690  0.0146 -0.0001
 7083TIP3    H121213   1.717   2.123   0.075  1.3721 -0.2016  1.1100
 7083TIP3    H221214   1.609   2.016   0.070 -0.0746  1.2685 -1.0912
 7084TIP3   OH221215   2.221   4.453   3.617  0.6488 -0.4921  0.1721
 7084TIP3    H121216   2.158   4.517   3.584  0.5559 -0.7675 -0.1929
 7084TIP3    H221217   2.167   4.378   3.644  0.6039  0.1434  2.0142
 7085TIP3   OH221218   4.975   4.293   1.219  0.1171 -0.0499 -0.3510
 7085TIP3    H121219   5.049   4.241   1.249  0.8716  1.4833  0.5635
 7085TIP3    H221220   5.014   4.366   1.172 -0.7429  1.1385  0.6994
 7086TIP3   OH221221   4.854   6.784   4.201 -0.2679  0.1662  0.0311
 7086TIP3    H121222   4.888   6.868   4.233  1.0199  1.0177 -3.1499
 7086TIP3    H221223   4.915   6.719   4.236  2.2131  1.2357 -1.9955
 7087TIP3   OH221224   5.041   0.472   2.335  0.0555  0.3781 -0.4262
 7087TIP3    H121225   4.947   0.455   2.331  0.4045 -1.6354 -2.6477
 7087TIP3    H221226   5.063   0.508   2.250  1.5687 -1.1281 -0.7368
 7088TIP3   OH221227   2.419   4.462   2.866  0.1482  0.2173 -0.0252
 7088TIP3    H121228   2.425   4.549   2.827 -1.1601  1.5219  2.4315
 7088TIP3    H221229   2.492   4.458   2.928  1.1253 -1.1056 -1.1926
 7089TIP3   OH221230   0.943   3.409   3.432 -0.0039 -0.2015  0.4108
 7089TIP3    H121231   1.033   3.389   3.457  0.0748  0.6879  0.8636
 7089TIP3    H221232   0.895   3.328   3.451  0.8309 -0.9688 -0.6190
 7090TIP3   OH221233   6.928   5.770   3.364  0.5337 -0.1061  0.2204
 7090TIP3    H121234   6.836   5.745   3.352  0.4722  0.1889  0.0832
 7090TIP3    H221235   6.955   5.806   3.280  1.3233 -1.8808 -0.3456
 7091TIP3   OH221236   6.179   5.303   1.253 -0.5025  0.5941  0.4104
 7091TIP3    H121237   6.090   5.329   1.231 -0.2922  2.9368  2.0332
 7091TIP3    H221238   6.216   5.378   1.300  2.7022  0.1624 -1.1261
 7092TIP3   OH221239   1.529   0.756   2.848  0.1149  0.5706  0.3680
 7092TIP3    H121240   1.501   0.678   2.799  1.4945 -0.2874  0.8984
 7092TIP3    H221241   1.611   0.782   2.806  0.6608  0.5718  1.4115
 7093TIP3   OH221242   1.935   6.634   5.779 -0.0465 -0.4250  0.2117
 7093TIP3    H121243   1.878   6.581   5.834  0.7452 -0.7392  0.7274
 7093TIP3    H221244   1.966   6.574   5.711  0.3916 -0.4776  0.4590
 7094TIP3   OH221245   1.948   3.870   5.522 -0.4003 -0.4830 -0.1491
 7094TIP3    H121246   1.946   3.794   5.464 -1.2430 -1.3942  1.0286
 7094TIP3    H221247   1.948   3.945   5.463  1.1099 -1.3629 -1.3629
 7095TIP3   OH221248   6.651   3.115   3.382  0.2536 -0.8138 -0.5817
 7095TIP3    H121249   6.559   3.122   3.407  0.4312  1.2523 -0.3701
 7095TIP3    H221250   6.650   3.072   3.296 -1.0956  0.9975 -1.5396
 7096TIP3   OH221251   0.917   1.820   4.063  0.8099 -0.1371 -0.3580
 7096TIP3    H121252   0.969   1.824   4.143 -1.5146 -1.4706  1.3507
 7096TIP3    H221253   0.912   1.911   4.033  2.7687  0.2215  0.2913
 7097TIP3   OH221254   3.459   1.943   2.240 -0.3356  0.1204  0.1010
 7097TIP3    H121255   3.520   2.017   2.239 -0.7216  0.5713  2.9377
 7097TIP3    H221256   3.375   1.982   2.264 -0.7395 -1.1168  0.7861
 7098TIP3   OH221257   5.375   4.287   5.383 -0.0810  0.1234  0.6931
 7098TIP3    H121258   5.365   4.302   5.289 -1.9412 -0.5168  0.7468
 7098TIP3    H221259   5.300   4.331   5.422 -0.1118 -0.8179  1.7324
 7099TIP3   OH221260   0.414   2.882   1.521  0.2583  0.3612 -0.0421
 7099TIP3    H121261   0.355   2.882   1.445 -0.6403  0.1063  0.6315
 7099TIP3    H221262   0.469   2.805   1.508 -0.0449  0.1854 -0.3177
 7100TIP3   OH221263   6.298   2.673   5.371  0.1715 -0.1414  0.1987
 7100TIP3    H121264   6.324   2.685   5.280 -1.4099  1.5198 -0.0962
 7100TIP3    H221265   6.378   2.688   5.421  1.0338 -0.9544 -0.8880
 7101TIP3   OH221266   0.633   3.614   2.004  0.0242 -0.2833 -0.0066
 7101TIP3    H121267   0.649   3.522   1.982  1.8442  0.3651 -1.7491
 7101TIP3    H221268   0.708   3.661   1.967  0.2067  1.7238  2.5808
 7102TIP3   OH221269   0.794   2.487   4.349  0.4599  0.3974  0.2306
 7102TIP3    H121270   0.793   2.434   4.429  1.4647 -2.4790 -1.5201
 7102TIP3    H221271   0.878   2.534   4.353  0.5256  0.2413  0.8329
 7103TIP3   OH221272   1.216   3.414   5.169 -0.4255 -0.0182 -0.0104
 7103TIP3    H121273   1.135   3.369   5.146  0.7367 -2.8495  1.0831
 7103TIP3    H221274   1.254   3.439   5.084 -1.1276 -1.1383 -0.6793
 7104TIP3   OH221275   5.525   1.841   4.675  0.7159 -0.2366  0.2857
 7104TIP3    H121276   5.611   1.873   4.647  1.7692 -2.5557  0.6092
 7104TIP3    H221277   5.534   1.828   4.769 -0.1838 -0.0173  0.4116
 7105TIP3   OH221278   3.140   0.670   1.251 -0.0232 -0.6212  0.0454
 7105TIP3    H121279   3.115   0.578   1.258  1.1349 -0.9528  0.0245
 7105TIP3    H221280   3.187   0.676   1.168 -1.6481  0.3947 -0.8586
 7106TIP3   OH221281   3.473   3.028   1.862  0.1010  0.0663  0.3001
 7106TIP3    H121282   3.564   3.046   1.887 -0.2110 -0.2486  1.7571
 7106TIP3    H221283   3.421   3.083   1.920 -0.6512 -0.2253 -0.0928
 7107TIP3   OH221284   3.789   1.560   2.428  0.2403 -0.4695  0.1519
 7107TIP3    H121285   3.839   1.515   2.496  0.1352 -0.9897 -0.1066
 7107TIP3    H221286   3.852   1.575   2.358  0.3652  0.1270  0.3872
 7108TIP3   OH221287   7.201   2.090   3.544  0.2106 -0.6701  0.3332
 7108TIP3    H121288   7.148   2.099   3.464  0.7441  0.9342  0.1395
 7108TIP3    H221289   7.147   2.037   3.602 -1.0597 -0.1553 -0.3374
 7109TIP3   OH221290   6.569   1.592   4.458 -0.7228 -0.0525  0.1507
 7109TIP3    H121291   6.645   1.563   4.508 -0.1840  3.0923  1.4268
 7109TIP3    H221292   6.499   1.600   4.524 -0.5474  2.2885  0.1424
 7110TIP3   OH221293   5.238   2.455   2.054 -0.4071  0.0399  0.8937
 7110TIP3    H121294   5.284   2.382   2.095 -0.0354 -0.6311 -0.6090
 7110TIP3    H221295   5.306   2.498   2.001 -0.9957  0.4658  0.4723
 7111TIP3   OH221296   5.106   3.491   1.205 -0.1728 -0.3422 -0.1034
 7111TIP3    H121297   5.017   3.457   1.199 -0.4608  0.6496 -1.8066
 7111TIP3    H221298   5.160   3.423   1.165 -0.5143  0.2597 -1.6471
 7112TIP3   OH221299   4.620   5.851   0.804  0.2036  0.5176 -0.0082
 7112TIP3    H121300   4.688   5.790   0.776 -0.7982 -0.7777  0.2710
 7112TIP3    H221301   4.625   5.851   0.900  1.1417  2.0269 -0.0213
 7113TIP3   OH221302   4.825   2.086   5.447 -0.0331 -0.6417  0.0917
 7113TIP3    H121303   4.811   2.046   5.360 -0.9193 -1.5218  0.6190
 7113TIP3    H221304   4.843   2.178   5.428 -1.6638 -0.4956 -0.9622
 7114TIP3   OH221305   2.440   6.746   0.729  0.4230 -0.2919 -0.0707
 7114TIP3    H121306   2.529   6.768   0.702  0.2538  1.0905  0.4355
 7114TIP3    H221307   2.410   6.822   0.777 -1.1311 -0.6532 -0.4206
 7115TIP3   OH221308   2.019   3.152   4.122  0.1425  0.0545 -0.2883
 7115TIP3    H121309   1.989   3.240   4.096 -1.5576 -0.2436  0.4785
 7115TIP3    H221310   2.088   3.130   4.060 -0.2406  1.4466 -1.2491
 7116TIP3   OH221311   3.984   5.481   0.495  0.4242  0.0594 -0.2952
 7116TIP3    H121312   3.949   5.463   0.582 -0.1375  1.9801 -0.0858
 7116TIP3    H221313   3.910   5.469   0.436  0.8097 -1.2641 -0.5436
 7117TIP3   OH221314   5.514   0.569   3.189 -0.2319 -0.2576 -0.1368
 7117TIP3    H121315   5.592   0.547   3.137 -1.6000  0.5856 -2.7611
 7117TIP3    H221316   5.499   0.662   3.172 -1.3124 -0.1872  1.0403
 7118TIP3   OH221317   2.507   3.400   0.220 -0.3625  0.2057 -0.8838
 7118TIP3    H121318   2.507   3.334   0.289  2.0694  0.6871 -0.3310
 7118TIP3    H221319   2.478   3.481   0.263  1.4592  0.5796 -0.2708
 7119TIP3   OH221320   3.487   6.588   0.574  0.7640  0.4676  0.4795
 7119TIP3    H121321   3.484   6.552   0.662  0.4613  1.1472  0.7526
 7119TIP3    H221322   3.510   6.681   0.586  0.4501  0.6321 -0.1320
 7120TIP3   OH221323   7.016   5.570   1.721 -0.2969  0.0488  0.1949
 7120TIP3    H121324   6.956   5.620   1.775 -0.6650  0.3941 -0.5276
 7120TIP3    H221325   7.098   5.619   1.725 -0.5075  0.4273 -0.0863
 7121TIP3   OH221326   5.130   1.530   3.557  0.0301  0.4439  0.1936
 7121TIP3    H121327   5.111   1.594   3.488  0.6002  0.4562  0.0458
 7121TIP3    H221328   5.165   1.455   3.510  1.0770  0.7121  0.5217
 7122TIP3   OH221329   5.704   1.930   0.842 -0.4901  0.1693  0.2955
 7122TIP3    H121330   5.777   1.948   0.901  0.2200 -4.2536  1.0817
 7122TIP3    H221331   5.633   1.900   0.899 -1.9074  1.4003 -0.7260
 7123TIP3   OH221332   2.668   6.532   0.754  0.4304  0.0752  0.0315
 7123TIP3    H121333   2.750   6.492   0.723  0.6907 -4.0078  4.7779
 7123TIP3    H221334   2.602   6.465   0.741 -0.5111  0.3274  2.8315
 7124TIP3   OH221335   5.776   0.612   2.656 -0.4968  0.1026 -0.4061
 7124TIP3    H121336   5.691   0.648   2.681 -0.4304  0.7421 -1.0836
 7124TIP3    H221337   5.787   0.637   2.564 -0.1883 -1.1449 -0.7316
 7125TIP3   OH221338   5.193   2.015   0.730  0.1647  0.2432  0.2074
 7125TIP3    H121339   5.258   1.944   0.735 -0.0750 -0.2210 -2.1869
 7125TIP3    H221340   5.203   2.050   0.642 -0.9340  2.0652  0.7612
 7126TIP3   OH221341   1.999   0.492   0.431 -0.2855 -0.0312 -0.4577
 7126TIP3    H121342   2.043   0.566   0.473 -0.5216 -0.4219  0.4883
 7126TIP3    H221343   1.907   0.517   0.430 -0.4952 -0.7212  0.7434
 7127TIP3   OH221344   0.415   5.835   2.405  0.2570 -0.0014  0.3510
 7127TIP3    H121345   0.391   5.747   2.374  2.1045 -0.0900 -0.9854
 7127TIP3    H221346   0.404   5.831   2.500 -1.3770 -1.1113  0.1504
 7128TIP3   OH221347   4.344   3.290   2.755  0.1321 -0.2436 -0.1537
 7128TIP3    H121348   4.331   3.384   2.767  1.5258  0.0482 -0.6917
 7128TIP3    H221349   4.260   3.258   2.722 -0.1744  0.9283 -0.5621
 7129TIP3   OH221350   5.115   2.888   2.715 -0.1681 -0.5570 -0.2736
 7129TIP3    H121351   5.019   2.881   2.714 -0.2559  0.3685  0.5223
 7129TIP3    H221352   5.141   2.854   2.801  0.6146 -4.7178 -1.9269
 7130TIP3   OH221353   4.743   4.263   3.697 -0.4039  0.5364  0.0286
 7130TIP3    H121354   4.834   4.290   3.705 -1.0037  2.0218  3.2971
 7130TIP3    H221355   4.746   4.181   3.648  2.6308  0.5883 -0.0371
 7131TIP3   OH221356   5.326   5.435   0.016 -0.1752 -0.2594 -0.4979
 7131TIP3    H121357   5.352   5.358   0.066  0.8808  0.0985 -0.4778
 7131TIP3    H221358   5.383   5.506   0.048 -1.4363  0.6510 -0.1824
 7132TIP3   OH221359   6.420   4.389   2.026 -0.4864 -0.1894  0.2987
 7132TIP3    H121360   6.386   4.339   1.952 -1.0250 -0.4432  0.7109
 7132TIP3    H221361   6.439   4.323   2.093 -2.5685  0.2275  1.3866
 7133TIP3   OH221362   0.617   3.827   2.185 -0.0562  1.1126 -0.1867
 7133TIP3    H121363   0.638   3.903   2.130 -2.1767  0.3415 -2.2586
 7133TIP3    H221364   0.587   3.761   2.123 -2.9212  0.2521  1.8760
 7134TIP3   OH221365   5.493   4.354   0.556  0.6154 -0.0377  0.2655
 7134TIP3    H121366   5.461   4.388   0.639  0.1721 -0.5954  0.3296
 7134TIP3    H221367   5.589   4.357   0.563  0.5796 -0.3043  0.8893
 7135TIP3   OH221368   0.525   1.628   0.898 -0.0983 -0.4213 -0.1592
 7135TIP3    H121369   0.486   1.703   0.853  1.3919  0.3574 -0.2234
 7135TIP3    H221370   0.567   1.578   0.829  1.4234  0.2948  0.2127
 7136TIP3   OH221371   6.258   6.120   5.428  0.5764 -0.0072 -0.0915
 7136TIP3    H121372   6.179   6.088   5.473  1.4339 -1.7956  0.2191
 7136TIP3    H221373   6.263   6.068   5.348 -0.3377  2.4199 -1.8716
 7137TIP3   OH221374   6.404   5.501   0.673  0.2428 -0.0975  0.0166
 7137TIP3    H121375   6.368   5.431   0.619  0.3625 -0.2999  0.2015
 7137TIP3    H221376   6.420   5.461   0.758  1.2219 -0.0903 -0.1604
 7138TIP3   OH221377   5.618   5.412   0.302 -0.4162 -0.2428 -0.0239
 7138TIP3    H121378   5.706   5.426   0.336 -0.4998 -0.9392  0.4800
 7138TIP3    H221379   5.561   5.454   0.366 -0.3745  2.4332 -1.5600
 7139TIP3   OH221380   2.773   0.816   5.677  0.1229 -0.4129 -0.4256
 7139TIP3    H121381   2.867   0.810   5.695  0.0842  1.3700  0.6064
 7139TIP3    H221382   2.731   0.779   5.755 -0.0787 -1.6617 -1.0879
 7140TIP3   OH221383   5.396   1.557   0.490  0.2802 -0.7934  0.2975
 7140TIP3    H121384   5.402   1.517   0.403  0.7524  0.2038 -0.1392
 7140TIP3    H221385   5.485   1.588   0.508 -0.1229  0.2540  0.5304
 7141TIP3   OH221386   3.958   5.815   2.032 -0.1131 -0.0988 -0.1261
 7141TIP3    H121387   4.011   5.813   2.112 -0.2995 -0.1734 -0.0040
 7141TIP3    H221388   3.884   5.758   2.051  0.6603 -1.4222 -0.9222
 7142TIP3   OH221389   5.427   5.124   1.241  0.5291 -0.1475  0.1062
 7142TIP3    H121390   5.484   5.133   1.317  1.7739 -0.2653 -0.7794
 7142TIP3    H221391   5.340   5.149   1.273  0.8694 -0.9247  1.7473
 7143TIP3   OH221392   0.294   0.337   2.050  0.5681 -0.4249  0.0335
 7143TIP3    H121393   0.339   0.314   1.969  0.1477 -1.6723  0.1270
 7143TIP3    H221394   0.364   0.352   2.113  0.9001 -2.2563  0.1589
 7144TIP3   OH221395   3.569   2.240   1.851 -0.1198  0.1362  0.3203
 7144TIP3    H121396   3.642   2.301   1.849  0.3433 -0.3825  0.8396
 7144TIP3    H221397   3.610   2.154   1.858 -0.7788 -0.1652  0.5616
 7145TIP3   OH221398   2.460   2.352   0.454  0.5408 -0.5941  0.3668
 7145TIP3    H121399   2.449   2.434   0.406 -0.7704 -0.3776  0.9739
 7145TIP3    H221400   2.489   2.380   0.541  0.4294 -0.8047  0.4701
 7146TIP3   OH221401   4.015   5.320   3.417 -0.2074 -0.1287  0.1467
 7146TIP3    H121402   4.029   5.233   3.455 -1.0646 -0.1506  0.4348
 7146TIP3    H221403   4.076   5.376   3.465  0.5973 -0.6176 -0.2777
 7147TIP3   OH221404   5.134   0.922   0.604 -0.2428  0.1809  0.2980
 7147TIP3    H121405   5.096   0.907   0.518 -0.5723  3.1149 -0.1603
 7147TIP3    H221406   5.063   0.904   0.665 -0.3685 -0.7070 -0.0884
 7148TIP3   OH221407   4.266   4.174   0.650  0.8684  0.1568  0.2901
 7148TIP3    H121408   4.330   4.141   0.713  0.7378  0.6463  0.6796
 7148TIP3    H221409   4.271   4.269   0.657 -0.8670  0.2028  1.3204
 7149TIP3   OH221410   2.358   1.107   2.737  0.1208  0.3244 -0.2503
 7149TIP3    H121411   2.327   1.139   2.821 -1.2141  0.0914 -0.6234
 7149TIP3    H221412   2.436   1.056   2.757 -1.2407 -1.3189  1.0931
 7150TIP3   OH221413   0.923   3.514   5.289  0.5814  0.4425  0.7117
 7150TIP3    H121414   0.881   3.444   5.339 -0.7774  1.4853  1.1083
 7150TIP3    H221415   1.003   3.533   5.338  0.3316  0.0103  1.2996
 7151TIP3   OH221416   4.642   5.999   3.855 -0.3420 -0.3536 -0.0100
 7151TIP3    H121417   4.649   5.903   3.862  0.2668 -0.3218 -0.1029
 7151TIP3    H221418   4.732   6.028   3.842 -0.4878  0.2589  0.3122
 7152TIP3   OH221419   5.562   5.098   2.644 -0.6900 -0.2955 -0.5405
 7152TIP3    H121420   5.540   5.038   2.715 -0.6990  0.2604 -0.0617
 7152TIP3    H221421   5.639   5.146   2.676 -1.8890  1.3857 -0.0334
 7153TIP3   OH221422   5.005   1.331   3.273  0.4670  0.3455  0.2730
 7153TIP3    H121423   4.975   1.420   3.261 -1.1199  0.0445  1.6232
 7153TIP3    H221424   5.072   1.337   3.341  1.7210  0.7063 -0.9573
 7154TIP3   OH221425   6.191   2.522   2.033  0.3021  0.2606 -0.4575
 7154TIP3    H121426   6.112   2.574   2.043  0.1661  0.0054 -0.1835
 7154TIP3    H221427   6.160   2.434   2.013  0.3145 -0.7822  3.2769
 7155TIP3   OH221428   4.596   3.292   2.396  0.4172  0.1556 -0.2158
 7155TIP3    H121429   4.664   3.351   2.428 -0.2986  0.5899  0.5286
 7155TIP3    H221430   4.515   3.323   2.437  0.3480 -2.8835  2.3201
 7156TIP3   OH221431   5.271   6.117   5.584 -0.2247  0.1953  0.2042
 7156TIP3    H121432   5.296   6.115   5.492  4.2706 -1.9109  1.2209
 7156TIP3    H221433   5.226   6.034   5.599 -0.9828  0.5509 -0.0253
 7157TIP3   OH221434   4.266   5.668   1.407  0.6355  0.4704 -0.5691
 7157TIP3    H121435   4.192   5.728   1.414 -0.1639 -0.3168 -1.9305
 7157TIP3    H221436   4.233   5.585   1.440  1.0291  0.2118 -0.8144
 7158TIP3   OH221437   4.246   1.099   3.365  0.4804 -0.8200  1.0263
 7158TIP3    H121438   4.227   1.179   3.415 -2.0188  0.0492 -1.1000
 7158TIP3    H221439   4.318   1.123   3.308 -0.2971 -0.0012  0.3546
 7159TIP3   OH221440   2.431   6.453   3.107  0.0204  0.5272 -0.0454
 7159TIP3    H121441   2.463   6.541   3.124  1.1724  0.0987  0.0746
 7159TIP3    H221442   2.445   6.440   3.013 -1.4316  0.9566 -0.3489
 7160TIP3   OH221443   1.628   2.804   4.608 -0.3467  0.1211 -0.5167
 7160TIP3    H121444   1.655   2.783   4.698 -2.1898  0.1706  0.0901
 7160TIP3    H221445   1.698   2.860   4.574 -0.4630  1.6499  1.5588
 7161TIP3   OH221446   1.619   1.999   1.419 -0.3117  0.7011  0.0419
 7161TIP3    H121447   1.625   2.092   1.401 -0.2073  0.7300  0.2178
 7161TIP3    H221448   1.554   1.993   1.490 -0.8250  0.5786 -0.4306
 7162TIP3   OH221449   4.968   6.025   1.801 -0.1627  0.5305 -0.4352
 7162TIP3    H121450   4.898   6.088   1.786  1.7350  2.8162 -0.1708
 7162TIP3    H221451   5.011   6.054   1.881  0.3998 -1.5328  0.0817
 7163TIP3   OH221452   6.380   2.280   2.835  0.4286 -0.4077  0.2568
 7163TIP3    H121453   6.475   2.288   2.837  0.3550  0.8015 -0.4380
 7163TIP3    H221454   6.348   2.366   2.807 -0.8299 -1.0370 -0.3627
 7164TIP3   OH221455   3.131   1.467   5.283  0.1764 -0.3744  0.6749
 7164TIP3    H121456   3.209   1.425   5.247  0.0073  0.0615 -0.2203
 7164TIP3    H221457   3.164   1.549   5.321 -0.1076  0.9357 -1.7062
 7165TIP3   OH221458   2.638   3.629   1.763 -0.1330 -0.2190  0.3607
 7165TIP3    H121459   2.686   3.630   1.845  2.2515 -3.3268 -0.7880
 7165TIP3    H221460   2.552   3.594   1.786  0.5787 -1.2856  1.5203
 7166TIP3   OH221461   3.370   3.285   3.827 -0.5351  0.3751  0.1272
 7166TIP3    H121462   3.344   3.254   3.914  1.3177 -1.1099  0.2212
 7166TIP3    H221463   3.382   3.205   3.776  0.3067  1.1312 -0.9063
 7167TIP3   OH221464   4.396   6.004   4.492 -0.4648 -0.6031  0.6899
 7167TIP3    H121465   4.412   5.926   4.546  2.2823 -1.2903 -0.9361
 7167TIP3    H221466   4.478   6.054   4.498 -0.8519  0.3207 -1.1891
 7168TIP3   OH221467   3.264   1.081   5.131  0.0252  0.0978 -0.3871
 7168TIP3    H121468   3.239   1.158   5.080  1.6521 -0.3459 -1.9550
 7168TIP3    H221469   3.336   1.112   5.186 -1.2066  0.3730  1.1365
 7169TIP3   OH221470   5.533   3.066   3.636 -0.4827  0.3994 -0.1327
 7169TIP3    H121471   5.509   3.005   3.567 -2.4346 -0.4178  1.1925
 7169TIP3    H221472   5.579   3.013   3.701 -0.7522  0.6587  0.2751
 7170TIP3   OH221473   5.644   1.189   4.688 -0.2824  0.2616 -0.1122
 7170TIP3    H121474   5.673   1.196   4.597  0.0431 -0.9151 -0.1079
 7170TIP3    H221475   5.548   1.187   4.682 -0.2445 -0.4648 -0.4791
 7171TIP3   OH221476   6.859   0.901   1.269 -0.3605 -0.1617 -0.2921
 7171TIP3    H121477   6.852   0.996   1.272  1.0826 -0.0441  2.2343
 7171TIP3    H221478   6.774   0.869   1.297 -0.4819  0.4191  0.0083
 7172TIP3   OH221479   3.553   0.022   5.090 -0.1094 -0.0208 -0.2703
 7172TIP3    H121480   3.476   0.076   5.111 -0.0952 -1.3146  4.1150
 7172TIP3    H221481   3.627   0.073   5.125  0.8317  0.1380 -2.3535
 7173TIP3   OH221482   2.245   4.011   1.812  0.0798 -0.6186 -0.7023
 7173TIP3    H121483   2.206   4.089   1.852  0.4719 -0.6573 -0.2210
 7173TIP3    H221484   2.339   4.020   1.832  0.0451 -1.5215 -0.0995
 7174TIP3   OH221485   6.221   6.775   1.742 -0.3147 -0.2177 -0.8653
 7174TIP3    H121486   6.290   6.726   1.788  0.9485  1.2127 -1.1439
 7174TIP3    H221487   6.142   6.757   1.791  0.5347 -0.7566  0.3606
 7175TIP3   OH221488   1.063   1.975   1.085  0.4884  0.0557 -0.3569
 7175TIP3    H121489   1.044   1.979   1.179  0.4794 -0.4252 -0.3364
 7175TIP3    H221490   1.019   1.895   1.055  1.6111 -0.5347 -0.5028
 7176TIP3   OH221491   5.290   3.768   2.546 -0.3941  0.1811  0.0594
 7176TIP3    H121492   5.367   3.801   2.592  0.4132 -0.7737 -0.5602
 7176TIP3    H221493   5.230   3.842   2.544  1.3483  1.6627 -1.2998
 7177TIP3   OH221494   2.397   1.266   3.828  0.6102  0.0845 -0.5746
 7177TIP3    H121495   2.346   1.330   3.877  1.9694  0.1654  0.8260
 7177TIP3    H221496   2.461   1.319   3.780  0.8538 -0.1467 -0.5068
 7178TIP3   OH221497   4.353   6.431   4.325  0.1351  0.4801 -0.4612
 7178TIP3    H121498   4.320   6.492   4.259 -1.8074 -0.1804 -0.1463
 7178TIP3    H221499   4.364   6.348   4.278 -0.6976  0.1568 -0.0969
 7179TIP3   OH221500   6.031   4.596   2.482  0.1981  0.4157 -0.3356
 7179TIP3    H121501   5.953   4.578   2.430 -0.3113  0.8945  0.2401
 7179TIP3    H221502   6.104   4.562   2.430 -0.2327  1.4390 -1.6368
 7180TIP3   OH221503   3.303   0.762   1.742  0.1698  0.0298 -0.6918
 7180TIP3    H121504   3.302   0.857   1.733 -0.9478  0.0847 -0.0966
 7180TIP3    H221505   3.346   0.745   1.826 -1.7876  0.1358  0.3690
 7181TIP3   OH221506   5.506   3.580   0.941 -0.0253 -0.5996 -0.3613
 7181TIP3    H121507   5.485   3.537   1.024 -1.7025 -0.2539 -0.5689
 7181TIP3    H221508   5.529   3.508   0.882 -2.8356 -1.2975 -0.7149
 7182TIP3   OH221509   6.132   4.530   4.189  0.0751  0.1326  0.1107
 7182TIP3    H121510   6.110   4.542   4.281  0.0924  0.6020  0.0588
 7182TIP3    H221511   6.060   4.477   4.153  0.3564 -0.5322  0.5166
 7183TIP3   OH221512   3.547   1.312   3.561  0.1684 -0.2143 -0.1367
 7183TIP3    H121513   3.561   1.351   3.475 -0.1835  0.2885  0.0279
 7183TIP3    H221514   3.460   1.271   3.555  1.6566 -3.5855 -1.2538
 7184TIP3   OH221515   3.153   6.446   0.934  0.1666  0.9460  0.5296
 7184TIP3    H121516   3.119   6.456   0.846  0.3064  0.6243  0.4374
 7184TIP3    H221517   3.246   6.468   0.927  0.1164  1.2008  0.6537
 7185TIP3   OH221518   0.211   5.027   3.891 -0.0618  0.4780  0.3750
 7185TIP3    H121519   0.224   5.013   3.985 -2.3687 -1.1478  0.5262
 7185TIP3    H221520   0.264   4.959   3.849 -0.2618  0.2190  0.5470
 7186TIP3   OH221521   6.497   3.514   1.307 -0.3320  0.7543 -0.1395
 7186TIP3    H121522   6.500   3.607   1.327  0.7056  0.5997  0.4792
 7186TIP3    H221523   6.449   3.474   1.380 -2.5995  1.0127 -1.3807
 7187TIP3   OH221524   5.356   5.732   4.874  0.2458 -0.1454 -0.2172
 7187TIP3    H121525   5.403   5.778   4.943 -2.8387  0.7136  1.4730
 7187TIP3    H221526   5.276   5.783   4.861 -2.1767 -3.5824 -0.0289
 7188TIP3   OH221527   5.132  -0.000   3.447  0.0470 -1.0040 -0.3536
 7188TIP3    H121528   5.132   0.051   3.528 -0.7839 -0.5119 -0.6527
 7188TIP3    H221529   5.153   0.063   3.379 -3.2169 -0.4782 -1.0351
 7189TIP3   OH221530   1.542   6.004   1.883  0.1650 -0.0660  0.5344
 7189TIP3    H121531   1.486   5.930   1.905  0.7235 -0.3151  1.1473
 7189TIP3    H221532   1.512   6.032   1.796 -0.3357 -0.7314  0.4878
 7190TIP3   OH221533   1.100   6.573   3.703  0.2365  0.4344  0.1185
 7190TIP3    H121534   1.131   6.639   3.641 -0.4763  1.4408  0.7942
 7190TIP3    H221535   1.085   6.622   3.784  0.9614 -0.8165  1.0398
 7191TIP3   OH221536   1.331   3.103   0.251  0.0262 -0.2410 -0.8454
 7191TIP3    H121537   1.334   3.072   0.342  0.9664  1.7735 -0.1286
 7191TIP3    H221538   1.423   3.121   0.229 -0.3708  1.0447 -1.5427
 7192TIP3   OH221539   2.716   4.143   5.871  0.1485  0.1556 -0.6490
 7192TIP3    H121540   2.802   4.143   5.913 -0.7737  2.0994  1.4213
 7192TIP3    H221541   2.729   4.193   5.790  0.9505  0.6122 -0.2549
 7193TIP3   OH221542   4.640   3.642   1.796  0.1040 -0.2497  0.9469
 7193TIP3    H121543   4.577   3.713   1.806  2.0842  1.9310 -1.0499
 7193TIP3    H221544   4.725   3.685   1.791  1.3391 -2.6485 -1.2975
 7194TIP3   OH221545   7.094   6.211   0.943  0.2040 -0.1912 -0.1874
 7194TIP3    H121546   7.017   6.154   0.955  0.6527 -0.7638  0.0506
 7194TIP3    H221547   7.169   6.153   0.959  0.6691  0.5386  0.3257
 7195TIP3   OH221548   3.441   5.377   1.178 -0.7301  0.3160  0.1601
 7195TIP3    H121549   3.417   5.429   1.254  0.7849  1.1747  0.0911
 7195TIP3    H221550   3.523   5.416   1.147 -1.0515 -0.3208 -1.6119
 7196TIP3   OH221551   6.051   3.665   5.270 -0.0037 -0.1739  0.3087
 7196TIP3    H121552   6.075   3.756   5.288 -1.4468  0.0246  1.3379
 7196TIP3    H221553   6.135   3.621   5.255  0.8759  0.9180  1.7779
 7197TIP3   OH221554   3.142   4.437   5.014 -0.1176 -0.0872  0.4360
 7197TIP3    H121555   3.128   4.393   5.098 -1.5909 -0.5135 -0.0047
 7197TIP3    H221556   3.075   4.506   5.012  1.6065  1.6799  0.7430
 7198TIP3   OH221557   1.132   3.961   0.740 -0.3981 -0.6141 -0.1773
 7198TIP3    H121558   1.218   3.956   0.784  0.1102  1.2860 -0.8664
 7198TIP3    H221559   1.152   3.996   0.653 -1.7953 -0.9848 -0.6642
 7199TIP3   OH221560   0.158   1.185   3.564 -0.4608  0.3363 -0.5604
 7199TIP3    H121561   0.073   1.228   3.555 -0.9604  0.0991  2.1899
 7199TIP3    H221562   0.140   1.092   3.554 -0.5834  0.2735  0.1730
 7200TIP3   OH221563   4.736   2.405   0.182 -0.2711 -0.0844 -0.4254
 7200TIP3    H121564   4.801   2.394   0.113  0.9549 -4.9381  1.1682
 7200TIP3    H221565   4.654   2.375   0.143 -0.2293 -0.0209 -0.5638
 7201TIP3   OH221566   3.451   1.099   2.968 -0.4498 -0.5810  0.2235
 7201TIP3    H121567   3.413   1.011   2.960  1.1571 -1.2740 -0.1555
 7201TIP3    H221568   3.540   1.084   2.999 -0.1773  0.9328  0.2346
 7202TIP3   OH221569   2.236   4.577   5.146 -0.0328  0.0303 -0.2150
 7202TIP3    H121570   2.180   4.655   5.136  2.2271  1.5450 -1.9274
 7202TIP3    H221571   2.295   4.599   5.217  0.3382 -0.3137 -0.4142
 7203TIP3   OH221572   2.536   2.191   1.328 -0.6259  0.1965 -0.1890
 7203TIP3    H121573   2.562   2.213   1.238 -2.2482  0.1278 -0.7142
 7203TIP3    H221574   2.501   2.272   1.363 -0.6729  0.0386  0.1318
 7204TIP3   OH221575   6.699   4.722   0.711  0.3784  0.4574 -0.7645
 7204TIP3    H121576   6.789   4.751   0.694  0.5415 -0.7026 -2.1109
 7204TIP3    H221577   6.650   4.803   0.727  1.4252  1.2142 -1.2787
 7205TIP3   OH221578   3.383   1.438   5.840  0.3723  0.2460 -0.2857
 7205TIP3    H121579   3.321   1.449   5.913 -1.0405  2.1718 -1.6746
 7205TIP3    H221580   3.446   1.374   5.872  0.8410  2.2505  3.2855
 7206TIP3   OH221581   3.811   5.601   2.497 -0.0689 -0.0584 -0.2857
 7206TIP3    H121582   3.780   5.690   2.511  0.3704  0.3704 -1.9406
 7206TIP3    H221583   3.742   5.559   2.445 -1.1642 -1.3065  1.9708
 7207TIP3   OH221584   6.453   2.141   4.596  0.1874  0.8490 -0.2954
 7207TIP3    H121585   6.480   2.069   4.540 -1.3853  0.3943 -0.5238
 7207TIP3    H221586   6.479   2.220   4.548  0.9032  0.4457 -0.5782
 7208TIP3   OH221587  -0.013   4.496   0.081 -0.4788 -0.2371 -0.2588
 7208TIP3    H121588   0.038   4.546   0.018  2.3699 -1.3496  1.0066
 7208TIP3    H221589   0.017   4.526   0.167 -2.6049 -0.3799  0.6109
 7209TIP3   OH221590   1.850   4.765   2.501  0.0987  0.2148  0.2905
 7209TIP3    H121591   1.937   4.797   2.476  0.6323 -1.3794 -0.0550
 7209TIP3    H221592   1.792   4.840   2.489  1.5374  1.5235  1.2252
 7210TIP3   OH221593   1.723   1.282   0.909  0.0266  0.1093 -0.3985
 7210TIP3    H121594   1.678   1.211   0.954 -0.6689  0.9761  0.3103
 7210TIP3    H221595   1.808   1.287   0.951  0.4456 -0.9048 -1.0881
 7211TIP3   OH221596   4.531   1.879   2.320 -0.2761  0.1765  0.1964
 7211TIP3    H121597   4.616   1.880   2.277 -0.3157 -0.9588  0.0493
 7211TIP3    H221598   4.549   1.846   2.408 -0.7967 -2.1376 -0.4928
 7212TIP3   OH221599   2.917   4.176   2.911  0.2080  0.2198  0.4797
 7212TIP3    H121600   2.860   4.199   2.984 -0.1753  1.2787 -0.1292
 7212TIP3    H221601   2.965   4.099   2.941  0.0790  0.6486  1.8526
 7213TIP3   OH221602   1.655  -0.004   2.776  0.4908  0.2604  0.1760
 7213TIP3    H121603   1.643   0.084   2.740 -0.3325 -0.1040 -0.4641
 7213TIP3    H221604   1.638   0.006   2.870 -0.5174  0.6205 -0.0325
 7214TIP3   OH221605   5.158   3.559   1.472 -0.3188 -0.3651 -0.1744
 7214TIP3    H121606   5.149   3.550   1.377  2.6645 -2.8629 -0.3762
 7214TIP3    H221607   5.240   3.606   1.484 -0.8079  0.1997  1.2158
 7215TIP3   OH221608   3.560   6.139   2.860 -0.2039  0.4249 -0.2040
 7215TIP3    H121609   3.563   6.090   2.778 -1.1180 -0.8143  0.4803
 7215TIP3    H221610   3.652   6.150   2.884  0.0649 -2.1784  0.2920
 7216TIP3   OH221611   7.162   4.849   0.237 -0.3623 -0.1885  0.0675
 7216TIP3    H121612   7.088   4.811   0.188 -0.0748 -1.1436  0.3516
 7216TIP3    H221613   7.216   4.774   0.260 -0.2734  0.2877  1.5099
 7217TIP3   OH221614   4.806   5.575   1.112  0.0379  0.2601  0.5545
 7217TIP3    H121615   4.886   5.626   1.123  0.1363  0.4336 -0.8082
 7217TIP3    H221616   4.825   5.516   1.039 -0.2149 -1.4659  1.8418
 7218TIP3   OH221617   4.355   4.160   1.148 -0.0264  0.6694 -0.3669
 7218TIP3    H121618   4.305   4.164   1.066 -1.7050  0.5729  0.6183
 7218TIP3    H221619   4.401   4.076   1.143  0.6267  1.0712 -1.6012
 7219TIP3   OH221620   1.180   5.800   5.705 -0.4620  1.2813  0.2918
 7219TIP3    H121621   1.152   5.762   5.788 -1.7463 -1.8794 -1.4229
 7219TIP3    H221622   1.259   5.752   5.681 -0.0364  2.2329 -0.3068
 7220TIP3   OH221623   4.092   1.542   4.714 -0.0335 -0.3303 -0.0492
 7220TIP3    H121624   4.020   1.603   4.730  0.4923 -0.0406  1.3907
 7220TIP3    H221625   4.052   1.455   4.720 -0.5108 -0.1558 -0.6372
 7221TIP3   OH221626   0.120   0.943   3.431  0.9647 -0.2087  0.0772
 7221TIP3    H121627   0.135   0.997   3.353 -0.7381  0.6265  0.2956
 7221TIP3    H221628   0.031   0.963   3.458  0.8030 -2.0408  1.0590
 7222TIP3   OH221629   6.312   2.185   1.538 -0.1504 -0.2853 -0.2131
 7222TIP3    H121630   6.345   2.271   1.511 -1.4167 -0.5578 -3.0558
 7222TIP3    H221631   6.379   2.124   1.508  0.1119 -0.3773  0.5601
 7223TIP3   OH221632   4.155   0.929   5.493  0.1284 -0.1462  0.0557
 7223TIP3    H121633   4.208   0.885   5.427 -0.0889 -0.3942  0.0437
 7223TIP3    H221634   4.161   1.022   5.472 -1.3013 -0.3305 -1.3503
 7224TIP3   OH221635   0.987   1.640   0.597 -0.0840  0.2931  0.1910
 7224TIP3    H121636   1.009   1.694   0.673 -0.9121  1.7253 -0.5427
 7224TIP3    H221637   1.071   1.630   0.551  0.5226 -0.9915  1.4901
 7225TIP3   OH221638   0.634   0.895   5.044 -1.0010  1.0332 -0.3269
 7225TIP3    H121639   0.702   0.958   5.020 -0.1065 -0.0031 -0.5948
 7225TIP3    H221640   0.642   0.826   4.979 -1.2014  0.0945  0.6153
 7226TIP3   OH221641   6.810   3.651   4.691  0.0602  0.2586 -0.4738
 7226TIP3    H121642   6.862   3.600   4.629 -0.8879 -0.5080 -0.6634
 7226TIP3    H221643   6.722   3.652   4.653 -0.3108  0.6356  0.3672
 7227TIP3   OH221644   3.203   2.411   3.649 -0.5019  0.4993  0.1488
 7227TIP3    H121645   3.268   2.391   3.582  0.4910  1.2414  0.8590
 7227TIP3    H221646   3.157   2.487   3.616 -1.4098 -0.3521 -0.6078
 7228TIP3   OH221647   1.618   5.266   4.120  0.0376 -0.5232 -0.3446
 7228TIP3    H121648   1.708   5.269   4.153 -0.4581  0.9790  0.9854
 7228TIP3    H221649   1.627   5.289   4.027  1.0347 -0.5211 -0.2629
 7229TIP3   OH221650   3.129   6.629   2.132 -0.1987 -0.0474  0.2374
 7229TIP3    H121651   3.153   6.657   2.220 -1.4227  0.8581  0.3114
 7229TIP3    H221652   3.146   6.535   2.130 -0.2358 -0.0887  1.4639
 7230TIP3   OH221653   5.386   4.074   3.937  0.0828 -0.3446  0.1597
 7230TIP3    H121654   5.433   3.992   3.949  0.2073 -0.4222 -0.7816
 7230TIP3    H221655   5.324   4.056   3.866 -1.0991 -0.1254  1.1074
 7231TIP3   OH221656   5.481   6.246   1.389 -0.6973  0.5931  0.1997
 7231TIP3    H121657   5.400   6.197   1.372 -0.4947  0.5829 -0.7792
 7231TIP3    H221658   5.551   6.185   1.365 -0.3823  0.6165  1.0070
 7232TIP3   OH221659   3.604   0.661   0.934 -0.1019 -0.0958 -0.2298
 7232TIP3    H121660   3.534   0.710   0.977  1.9895  3.0114 -0.0232
 7232TIP3    H221661   3.595   0.685   0.841 -0.7483 -1.6662 -0.5949
 7233TIP3   OH221662   1.978   1.551   4.782 -0.3214  0.0645 -0.1711
 7233TIP3    H121663   1.919   1.614   4.741 -2.0232 -2.0026 -1.0735
 7233TIP3    H221664   1.930   1.518   4.858  0.3435 -0.4561  0.0384
 7234TIP3   OH221665   2.736   5.375   5.325  0.0624  0.0655 -0.2922
 7234TIP3    H121666   2.653   5.383   5.373 -0.5671  1.3903 -1.4993
 7234TIP3    H221667   2.712   5.331   5.243  0.2873  1.4715 -1.1493
 7235TIP3   OH221668   2.421   4.952   0.252 -0.2487  0.1727 -1.2309
 7235TIP3    H121669   2.483   4.936   0.323 -0.7500 -0.8360 -0.9946
 7235TIP3    H221670   2.461   5.020   0.200  0.0537  1.0695  0.1215
 7236TIP3   OH221671   1.094   2.248   1.049 -0.0235 -0.2327 -0.2152
 7236TIP3    H121672   1.090   2.154   1.066  4.1477 -0.6796 -0.5227
 7236TIP3    H221673   1.115   2.288   1.133 -0.1621  0.2152 -0.3877
 7237TIP3   OH221674   4.884   1.536   1.083 -0.4073  0.1273 -0.3196
 7237TIP3    H121675   4.906   1.580   1.165 -2.2722  0.8952 -0.1871
 7237TIP3    H221676   4.966   1.494   1.056  0.9419  2.0791  0.5289
 7238TIP3   OH221677   3.127   3.322   0.543 -0.0040 -0.4480  0.6530
 7238TIP3    H121678   3.053   3.284   0.590 -1.2653  0.5447 -0.4759
 7238TIP3    H221679   3.194   3.333   0.610 -0.8794 -1.2997  1.7186
 7239TIP3   OH221680   0.586   3.765   3.577 -0.0722  0.0829  0.4331
 7239TIP3    H121681   0.521   3.834   3.565  0.8963  1.1545  1.1878
 7239TIP3    H221682   0.534   3.686   3.594 -1.2308  0.3724 -1.4149
 7240TIP3   OH221683   5.960   0.381   0.986  0.5642 -0.3572  0.3545
 7240TIP3    H121684   5.902   0.456   0.972 -1.6364 -1.9490  0.4490
 7240TIP3    H221685   5.964   0.338   0.901  3.9074  1.1499 -0.3982
 7241TIP3   OH221686   4.162   4.211   3.143  0.3640 -0.6329 -0.5752
 7241TIP3    H121687   4.222   4.281   3.117 -1.0224  1.0566  0.5404
 7241TIP3    H221688   4.080   4.232   3.099 -0.4955 -0.6775  0.9209
 7242TIP3   OH221689   4.224   4.189   4.153 -0.3583 -0.2307 -0.3528
 7242TIP3    H121690   4.298   4.152   4.200  0.3384  1.9554  0.4146
 7242TIP3    H221691   4.247   4.184   4.061  0.9912  0.8291 -0.0980
 7243TIP3   OH221692   0.155   6.272   5.459  0.3262 -0.8397  0.2356
 7243TIP3    H121693   0.186   6.240   5.374  0.0164  0.3545 -0.3384
 7243TIP3    H221694   0.060   6.269   5.452  0.3015 -0.5733  0.4770
 7244TIP3   OH221695   2.973   0.391   1.613 -0.1478 -0.2741  0.3099
 7244TIP3    H121696   2.944   0.336   1.540 -0.0868 -1.5486  1.2195
 7244TIP3    H221697   2.896   0.399   1.669 -0.2234  0.7899  0.0872
 7245TIP3   OH221698   1.460   2.747   0.857 -0.1671  0.3355  0.0232
 7245TIP3    H121699   1.459   2.819   0.793 -2.3560 -0.4276 -0.8912
 7245TIP3    H221700   1.405   2.779   0.929 -0.3062 -0.0183  0.0739
 7246TIP3   OH221701   6.413   1.638   4.726 -0.4094 -0.1617 -0.1095
 7246TIP3    H121702   6.480   1.681   4.781  0.1629 -1.2304  0.0482
 7246TIP3    H221703   6.334   1.640   4.780 -0.3780  0.6027 -0.0672
 7247TIP3   OH221704   0.336   4.836   4.613  0.4407 -0.0362 -0.4146
 7247TIP3    H121705   0.322   4.812   4.521  1.0158 -0.1967 -0.4673
 7247TIP3    H221706   0.396   4.910   4.609  0.8251 -0.3270 -0.1580
 7248TIP3   OH221707   1.160   0.621   2.542  0.0553 -0.5581  0.2977
 7248TIP3    H121708   1.215   0.572   2.481  0.5081 -1.5420  1.4785
 7248TIP3    H221709   1.143   0.704   2.496  1.7161 -0.6110 -0.5027
 7249TIP3   OH221710   5.425   6.488   3.130 -0.2968 -0.3370  0.1277
 7249TIP3    H121711   5.395   6.567   3.086 -1.0069 -0.4857  0.3225
 7249TIP3    H221712   5.514   6.474   3.098 -0.1407  0.5781  0.1540
 7250TIP3   OH221713   1.891   6.500   4.284  0.2423  0.8497 -0.0996
 7250TIP3    H121714   1.837   6.429   4.318  1.1485  0.3132  0.2617
 7250TIP3    H221715   1.899   6.562   4.357 -1.7571  2.0995 -0.8545
 7251TIP3   OH221716   5.126   3.805  -0.030 -0.2780  0.4884  0.1524
 7251TIP3    H121717   5.177   3.768   0.041 -0.9820  0.5437  0.6930
 7251TIP3    H221718   5.039   3.819   0.007 -0.2630  1.8960 -0.2732
 7252TIP3   OH221719   1.041   4.483   1.879 -0.4017  0.1146 -0.2609
 7252TIP3    H121720   1.087   4.566   1.881 -0.3104  0.0778 -0.7203
 7252TIP3    H221721   1.098   4.423   1.928 -1.4819  0.8103  1.9718
 7253TIP3   OH221722   1.871   4.087   5.282  0.2087 -0.1703 -0.0482
 7253TIP3    H121723   1.807   4.157   5.266  0.8949  0.2991 -0.7991
 7253TIP3    H221724   1.830   4.009   5.245 -0.6695 -0.2357  1.0046
 7254TIP3   OH221725   2.342   5.812   4.258 -0.1767 -0.0122 -0.0243
 7254TIP3    H121726   2.299   5.898   4.257  0.1839  0.1664 -0.8366
 7254TIP3    H221727   2.435   5.832   4.265 -0.0513 -0.3097 -0.7179
 7255TIP3   OH221728   5.224   6.469   4.352  0.0467  0.4665 -0.0749
 7255TIP3    H121729   5.280   6.464   4.274  1.1973 -0.3555  0.7779
 7255TIP3    H221730   5.213   6.379   4.380 -2.3019  0.5230 -0.5736
 7256TIP3   OH221731   5.888   6.306   0.749  0.1434  0.2449  0.2364
 7256TIP3    H121732   5.841   6.388   0.735  0.3752  0.7264  2.0336
 7256TIP3    H221733   5.951   6.325   0.819  0.5557 -1.3186  0.3424
 7257TIP3   OH221734   0.818   3.334   5.465  0.2132 -0.0282  0.0589
 7257TIP3    H121735   0.895   3.278   5.473  0.2783  0.1104  0.4427
 7257TIP3    H221736   0.811   3.377   5.550  0.1807  0.5670 -0.2429
 7258TIP3   OH221737   4.129   3.415   1.880  0.4342  0.8378 -0.1285
 7258TIP3    H121738   4.215   3.392   1.846 -1.2564  0.1926 -4.5612
 7258TIP3    H221739   4.124   3.510   1.869  0.7400  0.9590  0.6962
 7259TIP3   OH221740   6.361   4.156   1.529  0.0218  0.0566 -0.2584
 7259TIP3    H121741   6.291   4.103   1.491  0.0147  0.9569 -1.5680
 7259TIP3    H221742   6.425   4.092   1.559 -0.5462 -0.7281 -0.6768
 7260TIP3   OH221743   2.601   4.356   1.106 -0.4309  0.1528 -0.0947
 7260TIP3    H121744   2.665   4.318   1.046 -0.0848 -0.7426  0.8003
 7260TIP3    H221745   2.526   4.377   1.052 -0.0936 -0.5424 -0.8571
 7261TIP3   OH221746   7.062   2.393   0.179  0.0143  0.3597 -0.6259
 7261TIP3    H121747   7.046   2.473   0.229  2.0353  1.6461 -1.8789
 7261TIP3    H221748   6.992   2.333   0.206 -0.4857  1.8708  1.7403
 7262TIP3   OH221749   1.008   4.955   4.185 -0.0728  0.4009  0.8004
 7262TIP3    H121750   0.945   4.985   4.119 -1.3481 -1.2710  1.1948
 7262TIP3    H221751   0.990   4.861   4.194  2.3851 -0.1228  1.0489
 7263TIP3   OH221752   2.504   4.496   1.511  0.0149  0.2530  0.4746
 7263TIP3    H121753   2.596   4.486   1.533 -0.3407 -0.9885  1.5669
 7263TIP3    H221754   2.491   4.443   1.433  0.2073  0.3926  0.3473
 7264TIP3   OH221755   3.280   2.811   1.554 -0.0808 -0.0071  0.5014
 7264TIP3    H121756   3.231   2.885   1.518  2.2204  0.6129 -1.6435
 7264TIP3    H221757   3.272   2.822   1.649 -1.3467  1.9220  0.2355
 7265TIP3   OH221758   1.695   6.589   5.458 -0.0763  0.0527  0.5937
 7265TIP3    H121759   1.616   6.583   5.404  0.8835 -0.0749 -0.8303
 7265TIP3    H221760   1.694   6.680   5.490 -0.6711  0.1230  0.3951
 7266TIP3   OH221761   5.616   0.727   0.334 -0.2315 -0.2616 -0.1393
 7266TIP3    H121762   5.674   0.658   0.304  0.5019 -0.3175  1.3061
 7266TIP3    H221763   5.626   0.728   0.429 -2.4224 -0.0975  0.1538
 7267TIP3   OH221764   3.482   3.458   0.225  0.1834 -0.2551 -0.6815
 7267TIP3    H121765   3.448   3.368   0.222 -1.7882  0.2287  2.5346
 7267TIP3    H221766   3.426   3.507   0.164 -0.7859 -0.6578 -0.1320
 7268TIP3   OH221767   4.468   5.057   1.610 -0.1977  0.1418  0.1145
 7268TIP3    H121768   4.473   4.971   1.651 -1.1675  0.1490  0.2644
 7268TIP3    H221769   4.551   5.100   1.632  0.0783 -0.5636  0.4549
 7269TIP3   OH221770   2.552   1.225   5.507  0.3612  0.2754 -0.1872
 7269TIP3    H121771   2.544   1.184   5.421 -0.1339 -2.6156  1.1406
 7269TIP3    H221772   2.482   1.291   5.508  0.5305  0.5515 -2.0401
 7270TIP3   OH221773   0.533   0.793   3.839  0.0861  0.8104  0.2951
 7270TIP3    H121774   0.527   0.732   3.766  0.2432  0.2981  0.7087
 7270TIP3    H221775   0.524   0.879   3.798 -2.1338  0.4610 -0.0703
 7271TIP3   OH221776   3.050   1.610   5.068  0.1429  0.1680 -1.0290
 7271TIP3    H121777   2.974   1.560   5.038  0.3881 -0.5103 -0.5411
 7271TIP3    H221778   3.073   1.571   5.152  1.0661  0.3346 -1.1929
 7272TIP3   OH221779   4.608   5.297   4.566 -0.3947  0.3082 -0.3524
 7272TIP3    H121780   4.686   5.249   4.539 -0.0712  0.7533 -0.2024
 7272TIP3    H221781   4.605   5.287   4.661 -2.1749 -2.2606 -0.5745
 7273TIP3   OH221782   6.121   6.694   0.401  0.4334  0.4280  0.5967
 7273TIP3    H121783   6.210   6.667   0.379  0.2979  0.8361 -0.4837
 7273TIP3    H221784   6.129   6.787   0.422  0.4478  0.1983  1.6879
 7274TIP3   OH221785  -0.017   1.610   4.957  0.2987  0.4456 -0.1254
 7274TIP3    H121786   0.052   1.641   4.900  0.8961  0.4597  0.5889
 7274TIP3    H221787   0.026   1.546   5.014 -0.2732  0.4497  0.3230
 7275TIP3   OH221788   6.039   3.348   1.117  0.0058  0.5634 -0.1281
 7275TIP3    H121789   5.998   3.270   1.154  0.4890 -0.6413 -1.9601
 7275TIP3    H221790   5.965   3.404   1.091 -0.3860  0.0111 -0.2125
 7276TIP3   OH221791   6.168   5.432   0.057  0.0308  0.3514  0.2898
 7276TIP3    H121792   6.232   5.502   0.059 -0.2622  0.6289  0.1170
 7276TIP3    H221793   6.083   5.477   0.056 -0.1487  0.0307 -0.8504
 7277TIP3   OH221794   3.182   6.157   0.670  0.1506 -0.3383 -0.1111
 7277TIP3    H121795   3.186   6.101   0.592  2.2493  1.1302 -1.1701
 7277TIP3    H221796   3.168   6.245   0.635 -0.1004  0.1968  1.2789
 7278TIP3   OH221797   4.513   3.119   3.715 -0.1200 -0.9631  0.0796
 7278TIP3    H121798   4.605   3.134   3.693 -0.4026  1.8798  0.3949
 7278TIP3    H221799   4.481   3.059   3.648  1.4874 -0.3975 -1.2517
 7279TIP3   OH221800   4.378   5.497   0.540  0.0434 -0.1947 -0.4139
 7279TIP3    H121801   4.315   5.479   0.471 -0.9164 -1.1385  0.6754
 7279TIP3    H221802   4.456   5.447   0.514 -0.2480 -0.4171 -0.8834
 7280TIP3   OH221803   5.236   4.659   5.148 -0.5060 -0.3459 -0.0514
 7280TIP3    H121804   5.170   4.612   5.200 -0.8964  0.1774 -0.0621
 7280TIP3    H221805   5.274   4.722   5.209 -0.4934 -0.1910 -0.2168
 7281TIP3   OH221806   1.702   3.717   0.342  0.2607  0.4036  0.4231
 7281TIP3    H121807   1.775   3.692   0.400  1.2279 -2.2597 -1.7490
 7281TIP3    H221808   1.738   3.788   0.289 -0.4700  2.5187  2.5628
 7282TIP3   OH221809   3.611   3.609   3.951  0.0748 -0.6142 -0.0445
 7282TIP3    H121810   3.639   3.591   4.041  0.2445 -0.5183 -0.0764
 7282TIP3    H221811   3.540   3.673   3.960 -1.4462 -2.2524  0.1488
 7283TIP3   OH221812   0.083   1.283   3.236  0.3332  0.3061  0.2591
 7283TIP3    H121813   0.177   1.284   3.220  0.3288  0.9257  0.2239
 7283TIP3    H221814   0.047   1.343   3.170 -0.0407  0.3603  0.5053
 7284TIP3   OH221815   1.803   2.142   5.581 -0.0255  0.3818  0.3091
 7284TIP3    H121816   1.750   2.221   5.586 -1.5366 -0.6147  0.4986
 7284TIP3    H221817   1.740   2.071   5.568  1.3593 -0.7058 -0.7671
 7285TIP3   OH221818   5.033   4.415   4.681 -0.5530 -0.4884  0.1298
 7285TIP3    H121819   5.002   4.389   4.594 -0.6203 -0.9625  0.2934
 7285TIP3    H221820   5.082   4.339   4.713  1.5954  0.5310 -0.4903
 7286TIP3   OH221821   3.818   6.118   2.692  0.1994 -0.0360 -0.1333
 7286TIP3    H121822   3.807   6.126   2.597  0.5808 -1.7889 -0.3642
 7286TIP3    H221823   3.843   6.205   2.721 -0.6583  0.7062 -1.5396
 7287TIP3   OH221824   4.963   1.508   1.581 -0.1240  0.1142  0.0633
 7287TIP3    H121825   4.992   1.596   1.605 -0.8239 -0.0692  1.6886
 7287TIP3    H221826   4.878   1.498   1.623 -1.5423 -0.2371 -2.6384
 7288TIP3   OH221827   4.823   3.649   3.424  0.1204  0.1647  0.3464
 7288TIP3    H121828   4.805   3.600   3.504 -1.9869 -0.4289 -0.4425
 7288TIP3    H221829   4.862   3.585   3.364 -1.6957 -0.3615 -0.3310
 7289TIP3   OH221830   3.162   1.324   1.551  0.5344  0.0511  0.5318
 7289TIP3    H121831   3.183   1.244   1.503  1.2021  1.0075 -0.8311
 7289TIP3    H221832   3.221   1.390   1.515  0.3294  1.0707  1.9513
 7290TIP3   OH221833   1.565   0.436   2.045  0.1500 -0.0065 -0.0120
 7290TIP3    H121834   1.573   0.523   2.085  1.9197  0.3256 -0.9962
 7290TIP3    H221835   1.588   0.450   1.953 -0.4695 -1.3594 -0.3925
 7291TIP3   OH221836   2.010   5.841   4.061  0.2528 -0.5301  0.0479
 7291TIP3    H121837   1.982   5.871   4.147 -0.9917  1.4969 -0.9960
 7291TIP3    H221838   2.081   5.900   4.037 -1.2063  0.7436 -1.3880
 7292TIP3   OH221839   1.714   5.144   1.303 -0.2147 -0.3218  0.4972
 7292TIP3    H121840   1.675   5.087   1.368  2.2487 -3.3526 -0.4361
 7292TIP3    H221841   1.666   5.126   1.222  0.9654 -1.7157  0.0551
 7293TIP3   OH221842   3.858   2.759   4.917  0.4382 -0.4666 -0.3990
 7293TIP3    H121843   3.949   2.790   4.926  0.0058  0.5752  0.6364
 7293TIP3    H221844   3.813   2.794   4.993 -1.1246  0.0419 -1.5011
 7294TIP3   OH221845   4.150   4.387   0.968 -0.4347  0.1758  0.3980
 7294TIP3    H121846   4.143   4.291   0.965  2.8607 -0.1457 -0.3453
 7294TIP3    H221847   4.131   4.415   0.879  1.2698 -0.1054 -0.0879
 7295TIP3   OH221848   6.845   6.133   3.215  0.1442  0.0258 -0.5939
 7295TIP3    H121849   6.754   6.152   3.236  0.7337  1.2843  0.9800
 7295TIP3    H221850   6.895   6.206   3.252  1.8662 -1.0136 -0.7249
 7296TIP3   OH221851   0.778   3.965   2.417 -0.0003  0.2262 -0.2639
 7296TIP3    H121852   0.823   4.025   2.358 -1.6301  1.9439  0.1221
 7296TIP3    H221853   0.757   3.889   2.363  1.5837  0.2231 -0.9326
 7297TIP3   OH221854   0.352   1.332   3.207 -0.2746 -0.3859  0.2347
 7297TIP3    H121855   0.434   1.312   3.162 -0.2000 -0.3875  0.3710
 7297TIP3    H221856   0.367   1.418   3.247 -0.8427  0.2851 -0.9508
 7298TIP3   OH221857   5.755   4.732   3.975  0.7395  0.0306  0.1929
 7298TIP3    H121858   5.791   4.676   3.906 -1.0737 -0.9229 -0.0295
 7298TIP3    H221859   5.824   4.734   4.042  1.9460 -0.2095 -0.9901
 7299TIP3   OH221860   5.503   2.188   1.774 -0.2358 -0.0455  0.4135
 7299TIP3    H121861   5.581   2.164   1.824  1.3420  0.3184 -1.7274
 7299TIP3    H221862   5.528   2.174   1.683 -2.4890  0.6772 -0.3759
 7300TIP3   OH221863   4.204   1.295   1.745 -0.4620 -1.0467  0.6318
 7300TIP3    H121864   4.224   1.220   1.801 -0.2489 -1.5502 -0.0940
 7300TIP3    H221865   4.110   1.290   1.731 -0.8373  0.1949  2.4753
 7301TIP3   OH221866   5.902   4.459   4.071  0.3253 -0.4325 -0.5158
 7301TIP3    H121867   5.821   4.503   4.097  0.6608 -0.7774  1.2671
 7301TIP3    H221868   5.887   4.431   3.981 -1.3806 -0.1464 -0.3425
 7302TIP3   OH221869   4.184   6.200   4.538 -0.2000  0.2910 -0.2247
 7302TIP3    H121870   4.248   6.129   4.538 -0.0512  0.4247  0.0710
 7302TIP3    H221871   4.227   6.271   4.586 -0.0047  0.8954 -1.2467
 7303TIP3   OH221872   6.642   4.819   3.257 -0.1241 -0.3993 -0.2079
 7303TIP3    H121873   6.703   4.751   3.228  0.2258 -0.5832  0.8895
 7303TIP3    H221874   6.573   4.820   3.191  0.8171 -0.5327 -1.2140
 7304TIP3   OH221875   7.066   2.359   4.149  0.3831 -0.1303 -0.3054
 7304TIP3    H121876   7.160   2.358   4.129  1.0476 -0.5043  2.4730
 7304TIP3    H221877   7.035   2.441   4.111  1.7610 -0.1089 -1.4969
 7305TIP3   OH221878   2.903   5.863   0.432 -0.0151  0.5036  0.2177
 7305TIP3    H121879   2.816   5.824   0.439  0.0357  0.4423  0.5030
 7305TIP3    H221880   2.927   5.885   0.522  0.7931 -0.6163  0.3004
 7306TIP3   OH221881   3.461   6.232   1.258 -0.1358  0.3065 -0.2668
 7306TIP3    H121882   3.528   6.213   1.324 -1.9155 -2.3140  0.9507
 7306TIP3    H221883   3.482   6.176   1.184 -0.9378 -0.5391  0.1255
 7307TIP3   OH221884   7.010   4.173   1.490 -0.3003 -0.2624  0.0564
 7307TIP3    H121885   6.977   4.225   1.563 -0.5199 -1.1477  0.6092
 7307TIP3    H221886   6.952   4.196   1.417 -0.3911  0.2613  0.2874
 7308TIP3   OH221887   4.984   0.437   2.753  0.2538  0.1797 -0.5208
 7308TIP3    H121888   5.036   0.480   2.685  2.0110 -0.9495  0.0222
 7308TIP3    H221889   4.941   0.508   2.799  2.7321  1.3924  0.1027
 7309TIP3   OH221890   7.204   5.546   3.226 -0.4953  0.0799 -0.0900
 7309TIP3    H121891   7.160   5.476   3.177 -0.2369 -0.4250  0.3909
 7309TIP3    H221892   7.215   5.617   3.162  0.6460 -0.8979 -1.0286
 7310TIP3   OH221893   4.390   0.709   0.173 -0.6664 -0.2571  0.5453
 7310TIP3    H121894   4.397   0.798   0.139  0.0382 -0.4086  0.2819
 7310TIP3    H221895   4.418   0.716   0.265 -0.8589 -0.1663  0.5983
 7311TIP3   OH221896   6.632   4.538   1.881 -0.4776 -0.6399 -0.2566
 7311TIP3    H121897   6.668   4.599   1.945 -1.8543  1.7957 -1.6333
 7311TIP3    H221898   6.567   4.487   1.930  0.6665 -1.0282  0.9117
 7312TIP3   OH221899   7.035   5.568   3.704 -0.3102  0.2761 -0.5803
 7312TIP3    H121900   7.092   5.493   3.687  0.8337  0.9312  0.2469
 7312TIP3    H221901   7.091   5.645   3.689 -1.0374  0.9410  0.0311
 7313TIP3   OH221902   6.371   5.597   1.309 -0.2051  0.1277  0.0204
 7313TIP3    H121903   6.404   5.682   1.281 -1.4377  0.3264 -0.8707
 7313TIP3    H221904   6.449   5.550   1.340  0.3558  1.9204  1.4937
 7314TIP3   OH221905   2.098   4.838   2.400  0.6544 -0.4452  0.0932
 7314TIP3    H121906   2.104   4.876   2.312  1.7345 -0.8006 -0.0046
 7314TIP3    H221907   2.144   4.754   2.392 -1.3137 -1.6019  0.4108
 7315TIP3   OH221908   5.507   2.317   3.812 -0.6351 -0.4015 -0.2285
 7315TIP3    H121909   5.529   2.399   3.856 -1.1400 -0.4135  0.0609
 7315TIP3    H221910   5.586   2.263   3.821 -0.4879 -0.1432  0.0533
 7316TIP3   OH221911  -0.001   0.632   3.655 -0.0968  0.2626  0.6007
 7316TIP3    H121912  -0.043   0.670   3.578 -0.9973 -1.2634  0.2913
 7316TIP3    H221913   0.091   0.622   3.630 -0.6841 -1.8566 -1.0047
 7317TIP3   OH221914   2.905   1.566   4.242  0.4276  0.2036  0.2722
 7317TIP3    H121915   2.963   1.607   4.307  0.8093 -1.0044  0.7199
 7317TIP3    H221916   2.964   1.533   4.175  0.0576  1.1262 -0.5188
 7318TIP3   OH221917   2.108   5.854   1.446 -0.4685 -0.1624 -0.3689
 7318TIP3    H121918   2.082   5.871   1.537  2.6112  0.1562  0.5666
 7318TIP3    H221919   2.106   5.940   1.405  1.2708  0.2705  0.3669
 7319TIP3   OH221920   3.327   5.835   4.224 -0.0486 -0.0995  0.8316
 7319TIP3    H121921   3.369   5.751   4.207 -0.7289 -0.0058 -1.6405
 7319TIP3    H221922   3.367   5.895   4.161 -0.5902  1.0995  1.5944
 7320TIP3   OH221923   0.698   1.390   5.305 -0.5019 -0.5809  0.1525
 7320TIP3    H121924   0.749   1.397   5.224  0.2897 -0.7686  0.6288
 7320TIP3    H221925   0.720   1.470   5.353 -0.0662 -1.0181  0.6898
 7321TIP3   OH221926   6.779   2.577   5.564  0.2331 -0.6256  0.1048
 7321TIP3    H121927   6.791   2.602   5.656 -1.8751  1.1988 -0.0289
 7321TIP3    H221928   6.739   2.490   5.568  0.8103 -0.8724  0.8729
 7322TIP3   OH221929   1.880   0.373   3.992 -0.5038  0.1634  0.5520
 7322TIP3    H121930   1.966   0.337   3.968 -0.9414 -0.1425 -0.6326
 7322TIP3    H221931   1.848   0.314   4.060  0.1393  0.1684  0.8671
 7323TIP3   OH221932   3.117   1.350   2.251  0.3080 -0.4263 -0.3394
 7323TIP3    H121933   3.189   1.394   2.206  0.0419 -0.0352 -0.3897
 7323TIP3    H221934   3.128   1.257   2.229  0.4145 -0.2876 -0.8844
 7324TIP3   OH221935   5.630   6.001   1.388 -0.2785  0.0301  0.1888
 7324TIP3    H121936   5.693   5.937   1.358  0.3075  0.0142  1.3825
 7324TIP3    H221937   5.664   6.030   1.473  0.2361  2.9421 -0.8850
 7325TIP3   OH221938   3.970   5.151   1.513  0.0667  0.1727 -0.1067
 7325TIP3    H121939   4.055   5.123   1.547  0.1782  0.0280 -0.5016
 7325TIP3    H221940   3.934   5.074   1.470 -0.1039  0.3332 -0.2552
 7326TIP3   OH221941   1.218   5.248   5.693 -0.2003 -0.4883  0.0596
 7326TIP3    H121942   1.152   5.208   5.636 -0.4120  0.4475 -0.3723
 7326TIP3    H221943   1.228   5.186   5.765  1.0881 -2.4004 -1.6516
 7327TIP3   OH221944   6.684   0.315   0.917 -0.1146 -0.1078  0.2545
 7327TIP3    H121945   6.673   0.234   0.868 -2.0588 -2.6686  4.3411
 7327TIP3    H221946   6.778   0.320   0.934  0.1512 -0.9346 -0.8528
 7328TIP3   OH221947   1.433   4.600   5.112  0.1856  0.1239  0.5506
 7328TIP3    H121948   1.440   4.616   5.018 -2.3317 -0.7287  0.1408
 7328TIP3    H221949   1.472   4.514   5.125 -0.8960 -0.4770 -0.0316
 7329TIP3   OH221950   1.730   4.636   3.855  0.3972 -0.2093 -0.4477
 7329TIP3    H121951   1.651   4.609   3.901  0.4982  0.1725 -0.0415
 7329TIP3    H221952   1.712   4.617   3.763  1.7785 -5.0641  0.0059
 7330TIP3   OH221953   0.688   3.963   3.365 -0.0157 -0.1081 -0.1540
 7330TIP3    H121954   0.675   3.883   3.416 -0.3635 -0.2170 -0.4082
 7330TIP3    H221955   0.740   4.020   3.421  1.0457 -0.8779 -0.3220
 7331TIP3   OH221956   4.994   3.893   0.681  0.1836 -0.0427 -0.1773
 7331TIP3    H121957   5.066   3.867   0.624  0.2722 -0.3035  0.0514
 7331TIP3    H221958   5.034   3.902   0.768  0.2207  1.1668 -0.3086
 7332TIP3   OH221959   0.158   6.412   1.723 -0.0818 -0.4110 -0.0789
 7332TIP3    H121960   0.233   6.428   1.667 -0.8031  0.5817 -0.7953
 7332TIP3    H221961   0.085   6.400   1.662 -0.7049 -0.2660  0.6281
 7333TIP3   OH221962   2.478   6.059   4.492  0.1945  0.4810  0.0303
 7333TIP3    H121963   2.489   6.154   4.486  1.8486  0.5858  2.7776
 7333TIP3    H221964   2.400   6.047   4.547  0.1682  0.2687 -0.0507
 7334TIP3   OH221965   0.644   4.634   5.619  0.6574  0.7241  0.6249
 7334TIP3    H121966   0.588   4.584   5.560  0.7345  1.2892  0.0706
 7334TIP3    H221967   0.603   4.624   5.705 -1.7841  3.2077 -0.1129
 7335TIP3   OH221968   6.479   3.283   3.962 -0.1852  0.1876  0.1236
 7335TIP3    H121969   6.555   3.228   3.980 -0.8891 -1.2281 -1.0039
 7335TIP3    H221970   6.516   3.364   3.926  0.8479  0.2191  1.2159
 7336TIP3   OH221971   5.771   1.005   4.840  0.1953  0.0671 -0.6709
 7336TIP3    H121972   5.722   1.078   4.801 -1.1037 -0.9845 -1.0778
 7336TIP3    H221973   5.782   0.943   4.769  1.5280 -0.0605 -0.3921
 7337TIP3   OH221974   6.228   6.457   3.289 -0.4798  0.0474  0.0418
 7337TIP3    H121975   6.187   6.471   3.203 -0.2047 -0.6498 -0.2104
 7337TIP3    H221976   6.280   6.535   3.304 -0.0156 -0.1046 -0.7296
 7338TIP3   OH221977   1.073   2.340   2.976 -0.0129 -0.5603 -0.2129
 7338TIP3    H121978   1.033   2.422   3.006  0.1607 -0.0967 -1.1990
 7338TIP3    H221979   1.167   2.357   2.979  0.0916 -1.2435  0.9729
 7339TIP3   OH221980   1.982   6.134   5.745 -0.1624  0.3559 -0.1630
 7339TIP3    H121981   2.012   6.215   5.785 -0.3872  0.4023 -0.0851
 7339TIP3    H221982   1.983   6.070   5.816 -1.5524  0.6829  0.1937
 7340TIP3   OH221983   7.042   5.630   4.073  0.0635 -0.0778 -0.1730
 7340TIP3    H121984   7.061   5.540   4.100  0.7190 -0.2832 -1.2651
 7340TIP3    H221985   6.959   5.624   4.026 -1.6189  0.4392  2.5222
 7341TIP3   OH221986   0.624   6.413   5.725 -0.2825 -0.0219  0.2888
 7341TIP3    H121987   0.634   6.422   5.819 -0.1626  0.6574  0.2146
 7341TIP3    H221988   0.714   6.419   5.691  0.0011 -2.7713  0.3110
 7342TIP3   OH221989   1.678   5.020   2.440  0.0437 -0.1993  0.4267
 7342TIP3    H121990   1.625   4.985   2.368  0.5696  0.6878 -0.4060
 7342TIP3    H221991   1.624   5.007   2.518 -0.0090 -2.3581  0.0867
 7343TIP3   OH221992   5.977   4.252   5.210  0.0777  0.2154  0.0859
 7343TIP3    H121993   5.910   4.313   5.179  1.3648  1.4443 -0.3713
 7343TIP3    H221994   5.978   4.182   5.144 -0.5653  0.3273 -0.0439
 7344TIP3   OH221995   3.857   0.119   0.549 -0.0738  0.2326 -0.3537
 7344TIP3    H121996   3.951   0.119   0.567 -0.0380  0.6538 -0.5194
 7344TIP3    H221997   3.826   0.204   0.581 -0.9955 -1.0684  2.6086
 7345TIP3   OH221998   2.488   0.837   3.919  0.3108 -0.3314  0.2363
 7345TIP3    H121999   2.410   0.875   3.960  0.5979  1.4967 -0.8011
 7345TIP3    H222000   2.453   0.778   3.852 -0.1457 -1.7712  1.6748
 7346TIP3   OH222001   5.588   2.000   0.504  0.2408 -0.0696  0.1206
 7346TIP3    H122002   5.540   2.040   0.576 -3.0018 -2.5301 -0.4706
 7346TIP3    H222003   5.578   2.061   0.431 -1.6690 -0.2908  0.1578
 7347TIP3   OH222004   2.847   6.340   4.617  0.1833 -0.5440 -0.0015
 7347TIP3    H122005   2.784   6.281   4.576  0.2757 -0.9961  0.4958
 7347TIP3    H222006   2.904   6.367   4.545 -0.5466 -0.1616 -0.4470
 7348TIP3   OH222007   0.855   4.099   3.557  0.0678  0.5136  0.3436
 7348TIP3    H122008   0.810   4.133   3.635 -0.4284  0.1562  0.2192
 7348TIP3    H222009   0.922   4.165   3.538 -0.2519  0.9457  0.6671
 7349TIP3   OH222010   3.189   2.787   3.133  0.1411  0.4210  0.1942
 7349TIP3    H122011   3.240   2.707   3.124  0.9583  0.9727 -0.1978
 7349TIP3    H222012   3.216   2.824   3.217  0.8605  1.0193 -0.2818
 7350TIP3   OH222013   0.534   3.242   5.438  0.2381 -0.0825  0.4015
 7350TIP3    H122014   0.628   3.256   5.448  0.2332 -0.5126  1.0988
 7350TIP3    H222015   0.499   3.243   5.527 -0.3243 -0.5618  0.1981
 7351TIP3   OH222016   0.375   6.356   1.014  0.1429  0.6195  0.3030
 7351TIP3    H122017   0.393   6.450   1.010  0.1710  0.5948 -0.2504
 7351TIP3    H222018   0.356   6.339   1.106 -0.0949  1.2129  0.3673
 7352TIP3   OH222019   2.979   5.923   0.974 -0.0034 -0.4320  0.4513
 7352TIP3    H122020   3.038   5.996   0.992 -0.4224 -0.0550  0.2978
 7352TIP3    H222021   3.035   5.846   0.979  0.1556 -0.2495  2.1191
 7353TIP3   OH222022   0.302   6.189   3.910 -0.4089 -0.1837  0.4455
 7353TIP3    H122023   0.330   6.171   3.820 -0.9132  0.8436  0.0606
 7353TIP3    H222024   0.303   6.104   3.954  1.0671 -0.5129 -0.1800
 7354TIP3   OH222025   1.293   0.713   3.260  0.0374 -0.0239 -0.1699
 7354TIP3    H122026   1.260   0.784   3.204  2.2324  0.3244 -1.1379
 7354TIP3    H222027   1.329   0.649   3.198 -1.8117 -2.0413  0.6796
 7355TIP3   OH222028   0.591   3.987   3.965 -0.2460  0.3011  0.2498
 7355TIP3    H122029   0.621   3.898   3.947 -0.8428 -0.1308  1.2875
 7355TIP3    H222030   0.506   3.976   4.007 -0.3800  1.3702  0.2985
 7356TIP3   OH222031   7.191   6.296   2.683  0.2857  0.2719  0.4254
 7356TIP3    H122032   7.156   6.378   2.718  0.1594  0.5863 -0.4336
 7356TIP3    H222033   7.242   6.259   2.756 -2.2943 -0.5100  1.9537
 7357TIP3   OH222034   4.950   2.658   3.867 -0.5026  0.1602 -0.6876
 7357TIP3    H122035   4.900   2.648   3.948 -0.7533  0.4144 -0.8089
 7357TIP3    H222036   5.026   2.600   3.878 -0.4004  0.3836 -0.1639
 7358TIP3   OH222037   0.752   3.000   3.307 -0.0086 -0.6957 -0.3354
 7358TIP3    H122038   0.675   2.958   3.268 -0.1234 -2.1896  1.3748
 7358TIP3    H222039   0.825   2.946   3.276  0.2307 -0.0845 -0.8624
 7359TIP3   OH222040   4.298   0.362   0.876 -0.1799 -0.1571  0.1312
 7359TIP3    H122041   4.388   0.393   0.868 -0.7290  1.3872 -0.4808
 7359TIP3    H222042   4.247   0.441   0.895 -1.0373 -1.4289  3.8887
 7360TIP3   OH222043   5.330   0.535   4.611  0.0754 -0.2648 -0.7576
 7360TIP3    H122044   5.402   0.578   4.566  1.0264 -1.3981 -0.3866
 7360TIP3    H222045   5.340   0.442   4.589 -1.6335 -0.3938 -1.1699
 7361TIP3   OH222046   1.331   3.124   5.708  0.2895  0.2139 -0.2527
 7361TIP3    H122047   1.263   3.123   5.641  0.9318  0.6771 -0.9212
 7361TIP3    H222048   1.413   3.115   5.660  0.7344  0.1194  0.5046
 7362TIP3   OH222049   1.351   3.395   2.580  0.2994 -0.1621 -0.2143
 7362TIP3    H122050   1.445   3.388   2.592  0.5157  2.9070  0.8639
 7362TIP3    H222051   1.341   3.454   2.504 -0.6479  1.1920  0.9024
 7363TIP3   OH222052   1.509   1.771   2.137 -0.1344 -0.0353  0.4295
 7363TIP3    H122053   1.438   1.733   2.189 -0.8380  1.2352  0.4268
 7363TIP3    H222054   1.588   1.736   2.177 -0.7153 -0.4961  1.2270
 7364TIP3   OH222055   2.477   6.365   2.541 -0.2067  0.1106  0.0194
 7364TIP3    H122056   2.408   6.347   2.477  0.3203  0.9199 -0.8082
 7364TIP3    H222057   2.524   6.282   2.550 -2.1124 -0.8759  1.6838
 7365TIP3   OH222058   6.660   1.675   5.636  0.0346 -0.3581 -0.4431
 7365TIP3    H122059   6.635   1.765   5.654 -0.5749 -0.3844 -1.1188
 7365TIP3    H222060   6.748   1.666   5.672  0.5992  0.8599 -1.4510
 7366TIP3   OH222061   7.178   6.283   1.257  0.1608  0.7500 -0.2743
 7366TIP3    H122062   7.102   6.225   1.263  0.6611  0.0621 -0.4547
 7366TIP3    H222063   7.150   6.354   1.199 -1.0196  1.5967  1.2679
 7367TIP3   OH222064   5.874   5.954   0.139  0.1575 -0.5586 -0.2303
 7367TIP3    H122065   5.874   6.015   0.065 -0.6673 -0.4227 -0.1287
 7367TIP3    H222066   5.929   5.996   0.205  0.2896 -0.3286 -0.4852
 7368TIP3   OH222067   4.126   6.509   5.569 -0.5270 -0.2122  0.7258
 7368TIP3    H122068   4.094   6.421   5.590  0.2176 -0.8060 -0.5501
 7368TIP3    H222069   4.215   6.510   5.603  0.5737 -1.0646 -1.9376
 7369TIP3   OH222070   3.976   5.903   0.909  0.9786 -0.0480  0.3148
 7369TIP3    H122071   4.000   5.992   0.935  2.7272 -0.2556 -0.4830
 7369TIP3    H222072   4.028   5.886   0.831 -0.8196 -1.0715 -0.7168
 7370TIP3   OH222073   3.579   4.273   4.882  0.4206  0.7059 -0.5061
 7370TIP3    H122074   3.549   4.200   4.827 -1.1032  0.1637  0.9659
 7370TIP3    H222075   3.507   4.335   4.882  0.1077  0.3933  1.3685
 7371TIP3   OH222076   3.078   3.173   1.055 -0.3321  0.7497  0.4605
 7371TIP3    H122077   3.076   3.222   1.137 -1.0955  1.1692  0.1997
 7371TIP3    H222078   2.986   3.149   1.039 -0.1156  0.1713  0.0265
 7372TIP3   OH222079   5.294   0.815   3.735 -0.0584 -0.0054  0.1510
 7372TIP3    H122080   5.315   0.853   3.820 -0.8971 -0.4184  0.5551
 7372TIP3    H222081   5.360   0.747   3.722  1.4738  1.5535 -0.5927
 7373TIP3   OH222082   5.931   5.619   3.894  0.4424 -0.4183  0.3152
 7373TIP3    H122083   5.865   5.680   3.860  0.3424 -0.7032 -0.0011
 7373TIP3    H222084   6.014   5.666   3.882  0.2448  0.2177  1.3350
 7374TIP3   OH222085   1.087   0.694   3.923 -0.0489  0.1134  0.3613
 7374TIP3    H122086   1.049   0.721   3.840  2.8372  0.0200 -1.1241
 7374TIP3    H222087   1.021   0.717   3.989 -2.5741 -0.1259 -1.9353
 7375TIP3   OH222088   7.085   0.287   1.322 -0.1826 -0.4175  0.2929
 7375TIP3    H122089   7.167   0.322   1.289 -0.7659  0.6778 -0.0447
 7375TIP3    H222090   7.080   0.318   1.413  0.2967 -1.4359  0.6836
 7376TIP3   OH222091   6.997   5.472   5.733  0.3929  0.1610 -0.4608
 7376TIP3    H122092   6.948   5.524   5.797  0.6489 -0.0341 -0.0962
 7376TIP3    H222093   7.072   5.528   5.710  1.1849 -0.4061  0.6495
 7377TIP3   OH222094   1.329   4.153   3.606  0.2898  0.0567  0.0249
 7377TIP3    H122095   1.394   4.087   3.628  0.1770 -0.1021 -0.1116
 7377TIP3    H222096   1.251   4.102   3.584  0.0749  0.2511  0.3366
 7378TIP3   OH222097   6.618   1.676   0.904 -0.6409  0.0992  0.4404
 7378TIP3    H122098   6.691   1.732   0.930 -0.6994  0.1019  0.6016
 7378TIP3    H222099   6.658   1.606   0.853 -0.6648  0.7330 -0.4736
 7379TIP3   OH222100   1.315   6.457   0.242  0.2611 -0.8554 -0.0853
 7379TIP3    H122101   1.234   6.448   0.191 -0.4249  0.1309  0.7819
 7379TIP3    H222102   1.285   6.468   0.333  1.3261  0.3388  0.1472
 7380TIP3   OH222103   0.231   5.825   4.719  0.1188 -0.3340  0.0383
 7380TIP3    H122104   0.218   5.887   4.647  0.9604 -0.0812  0.0959
 7380TIP3    H222105   0.167   5.851   4.785 -1.3131 -1.1459 -0.9772
 7381TIP3   OH222106   6.808   3.166   0.787 -0.1226 -0.1873  0.1474
 7381TIP3    H122107   6.772   3.078   0.787  0.4525 -0.4222 -0.4002
 7381TIP3    H222108   6.886   3.161   0.841 -0.4763  0.1575  0.7097
 7382TIP3   OH222109   6.195   0.627   4.922  0.1491  0.2176 -0.1931
 7382TIP3    H122110   6.131   0.563   4.955 -0.0486 -0.1427 -1.2276
 7382TIP3    H222111   6.141   0.692   4.876  0.4446  0.5522 -0.0713
 7383TIP3   OH222112   5.158   1.903   1.373  0.4953  0.1300 -0.2004
 7383TIP3    H122113   5.070   1.930   1.347  0.3674  0.6016  0.6809
 7383TIP3    H222114   5.146   1.853   1.453  1.0488  0.4276  0.0774
 7384TIP3   OH222115   6.407   4.805   3.054 -0.0797  0.1336 -0.0802
 7384TIP3    H122116   6.388   4.718   3.020  1.5493 -0.6839  0.9514
 7384TIP3    H222117   6.323   4.838   3.085 -0.7724 -0.9508 -0.7355
 7385TIP3   OH222118   3.579   3.529   4.223 -0.5410  0.0309 -0.4839
 7385TIP3    H122119   3.542   3.456   4.273 -1.2062  0.9641  0.4392
 7385TIP3    H222120   3.505   3.587   4.206 -0.2742 -0.1459 -2.3988
 7386TIP3   OH222121   6.326   3.257   0.566  0.7904 -0.4076  0.5213
 7386TIP3    H122122   6.357   3.274   0.477  0.1624 -1.2962  0.1025
 7386TIP3    H222123   6.405   3.242   0.617  1.1445 -0.3452  0.0014
 7387TIP3   OH222124   4.135   3.176   2.626 -0.6425 -0.0753  0.4284
 7387TIP3    H122125   4.163   3.180   2.534  0.4479 -2.2925  0.5871
 7387TIP3    H222126   4.054   3.126   2.624 -1.3544  1.0425  0.5755
 7388TIP3   OH222127   1.292   5.997   5.208  0.2483  0.0552  0.7094
 7388TIP3    H122128   1.264   6.009   5.299  0.2353 -1.1020  0.8748
 7388TIP3    H222129   1.314   6.085   5.178 -2.7657  0.9676  0.8278
 7389TIP3   OH222130   6.220   6.506   1.410  0.0435  0.3565 -0.5891
 7389TIP3    H122131   6.219   6.601   1.424  3.3166  0.4831 -0.4559
 7389TIP3    H222132   6.278   6.494   1.334 -0.8655 -1.5298 -1.0337
 7390TIP3   OH222133   2.832   3.608   0.437 -0.0680  0.1907  0.2317
 7390TIP3    H122134   2.819   3.636   0.528  0.4461  0.1518  0.3201
 7390TIP3    H222135   2.799   3.518   0.435 -0.5363  0.3590  0.2583
 7391TIP3   OH222136   2.189   3.039   2.751  0.3261 -0.4737  0.1143
 7391TIP3    H122137   2.183   3.123   2.798 -2.5812 -0.2531 -0.4813
 7391TIP3    H222138   2.249   3.057   2.679 -1.7598  1.8081 -1.2050
 7392TIP3   OH222139   6.866   3.255   0.480  0.6391  0.1818 -0.0223
 7392TIP3    H122140   6.883   3.181   0.539  0.8557  1.5425  1.6857
 7392TIP3    H222141   6.906   3.330   0.523  0.7956  1.2594 -1.9262
 7393TIP3   OH222142   0.291   2.730   4.485  0.3859 -0.4409 -0.2956
 7393TIP3    H122143   0.223   2.682   4.533  0.5339  0.8202  1.2694
 7393TIP3    H222144   0.269   2.719   4.393 -1.3931 -0.8417  0.1560
 7394TIP3   OH222145   6.288   2.741   0.455 -0.0645  0.7199 -0.3569
 7394TIP3    H122146   6.352   2.808   0.436 -0.1270  0.7161 -0.5886
 7394TIP3    H222147   6.232   2.738   0.377 -0.1897  0.5483 -0.2630
 7395TIP3   OH222148   5.453   4.726   1.500 -0.4596 -0.0125 -0.0444
 7395TIP3    H122149   5.546   4.746   1.506 -0.2792 -1.0152  0.9237
 7395TIP3    H222150   5.409   4.811   1.503  0.3532  0.3789  1.3511
 7396TIP3   OH222151   1.243   1.764   4.775 -0.0072 -0.0360  0.0767
 7396TIP3    H122152   1.183   1.734   4.707 -0.6138 -0.0233  0.5926
 7396TIP3    H222153   1.248   1.690   4.836 -0.4343  0.3887  0.6429
 7397TIP3   OH222154   3.060   6.226   2.313  0.5642  0.2933 -0.1499
 7397TIP3    H122155   3.097   6.284   2.380  1.2319 -1.5323  1.1390
 7397TIP3    H222156   3.135   6.177   2.280  0.1997  0.9644 -2.1053
 7398TIP3   OH222157   5.257   3.874   4.596  0.1642  0.6619 -0.0624
 7398TIP3    H122158   5.261   3.922   4.513 -1.1587  0.8100 -0.0608
 7398TIP3    H222159   5.303   3.930   4.659  1.9310  0.1560 -0.8499
 7399TIP3   OH222160   2.892   1.433   5.423 -0.2708  0.0322  0.0197
 7399TIP3    H122161   2.851   1.354   5.389  0.1433  0.2141 -0.9239
 7399TIP3    H222162   2.976   1.438   5.377  1.1528 -0.6781  2.3218
 7400TIP3   OH222163   1.625   6.227   3.392 -0.1535 -0.1214 -0.7481
 7400TIP3    H122164   1.680   6.278   3.333  0.3364  0.1312 -0.0863
 7400TIP3    H222165   1.537   6.234   3.355  0.0264  0.6278 -1.0439
 7401TIP3   OH222166   1.943   3.326   5.067  0.6301 -0.1380 -0.3157
 7401TIP3    H122167   1.937   3.274   5.148  1.2951 -0.3354 -0.3884
 7401TIP3    H222168   1.855   3.364   5.057  0.2296 -0.9698 -0.0807
 7402TIP3   OH222169   5.715   2.069   3.548 -0.7278  0.8467  0.2375
 7402TIP3    H122170   5.789   2.073   3.488 -1.0177  3.3711 -0.0384
 7402TIP3    H222171   5.728   1.987   3.596 -0.0013 -0.8234 -2.5714
 7403TIP3   OH222172   5.131   4.306   5.146  0.0128  0.0106  0.4044
 7403TIP3    H122173   5.087   4.354   5.076  0.1837  1.0599  0.9915
 7403TIP3    H222174   5.224   4.314   5.125 -0.0100 -1.1262 -0.1570
 7404TIP3   OH222175   1.456   3.000   3.582  0.0881  0.1013 -0.3522
 7404TIP3    H122176   1.485   3.091   3.578  1.0865 -0.2320 -1.4851
 7404TIP3    H222177   1.375   2.999   3.531  0.0384  0.3744 -0.2808
 7405TIP3   OH222178   5.612   5.320   3.609  0.6947  0.2854  0.1937
 7405TIP3    H122179   5.524   5.302   3.641  0.8163 -0.7652 -0.0261
 7405TIP3    H222180   5.600   5.339   3.516  0.7893 -0.7728 -0.0448
 7406TIP3   OH222181   1.519   0.381   4.634  0.3656  0.4232  0.3884
 7406TIP3    H122182   1.569   0.373   4.553  0.5128 -0.7628  0.5701
 7406TIP3    H222183   1.440   0.428   4.609  0.0879 -0.5219 -0.6093
 7407TIP3   OH222184   0.211   4.354   3.591  0.6262 -0.3474 -0.0991
 7407TIP3    H122185   0.295   4.310   3.605 -0.2699 -1.5088  2.3589
 7407TIP3    H222186   0.198   4.353   3.497  2.7435 -1.3047 -0.4400
 7408TIP3   OH222187   1.256   5.754   0.424 -0.2265  0.5805 -0.5184
 7408TIP3    H122188   1.276   5.730   0.514 -0.4356  0.2401 -0.5630
 7408TIP3    H222189   1.160   5.755   0.420 -0.2260 -0.4996 -1.0251
 7409TIP3   OH222190   5.379   0.432   3.712  0.0383 -0.4170 -0.1068
 7409TIP3    H122191   5.435   0.494   3.759 -0.0079 -2.1019  2.3452
 7409TIP3    H222192   5.289   0.459   3.734  0.0007 -2.3076  2.5738
 7410TIP3   OH222193   4.037   4.444   0.721 -0.0035  0.7434 -0.1666
 7410TIP3    H122194   4.066   4.524   0.678  0.3048  0.6908 -0.0553
 7410TIP3    H222195   3.998   4.392   0.651 -1.5822  1.6231  0.0189
 7411TIP3   OH222196   0.995   0.446   4.216 -0.2262 -0.0637  0.0986
 7411TIP3    H122197   1.073   0.419   4.264 -0.0321 -0.7053 -0.5504
 7411TIP3    H222198   0.968   0.368   4.167  0.2339  0.8357 -1.6874
 7412TIP3   OH222199   5.437   5.916   5.721  0.0042  0.1576 -0.7001
 7412TIP3    H122200   5.354   5.904   5.766 -0.2379  0.0137 -1.1753
 7412TIP3    H222201   5.467   6.003   5.748  0.9937 -0.8194  1.5257
 7413TIP3   OH222202   1.624   1.021   3.121  0.1099  0.2895  0.4268
 7413TIP3    H122203   1.669   0.936   3.119  0.8864  0.6710  0.8027
 7413TIP3    H222204   1.650   1.064   3.040  0.3880  0.4894  0.6192
 7414TIP3   OH222205   6.403   6.008   4.188 -0.5580  0.4922  0.4256
 7414TIP3    H122206   6.377   5.994   4.279 -0.4501  1.5044  0.6316
 7414TIP3    H222207   6.400   6.103   4.177  0.7163  0.4874 -0.2313
 7415TIP3   OH222208   6.710   2.500   2.007 -0.3472  0.1250 -0.2791
 7415TIP3    H122209   6.641   2.495   2.073  0.8243  0.7937  1.0737
 7415TIP3    H222210   6.673   2.551   1.935 -1.2302  0.5395  0.4572
 7416TIP3   OH222211  -0.015   5.810   1.212 -0.3705 -0.5496 -0.4051
 7416TIP3    H122212   0.069   5.853   1.231 -0.6899  0.1160 -0.4733
 7416TIP3    H222213   0.009   5.723   1.181  0.2465 -0.9093  0.9847
 7417TIP3   OH222214   6.970   1.233   0.515  0.1281  0.1482  0.3292
 7417TIP3    H122215   6.935   1.320   0.500 -0.6199 -0.1344  0.3717
 7417TIP3    H222216   6.903   1.188   0.567  0.5513 -0.4097  0.4098
 7418TIP3   OH222217   2.101   5.615   1.325  0.0803 -0.0521  0.1948
 7418TIP3    H122218   2.078   5.706   1.342 -0.1398 -0.1744  0.5736
 7418TIP3    H222219   2.018   5.568   1.327  0.2582 -0.3577  0.6414
 7419TIP3   OH222220   1.695   4.172   4.994  0.4098 -0.3055  0.2971
 7419TIP3    H122221   1.676   4.157   4.902 -0.9116 -2.9894  0.9099
 7419TIP3    H222222   1.749   4.097   5.020  2.7642  1.5776  1.2327
 7420TIP3   OH222223   6.728   2.884   0.305  0.0546 -0.4399 -0.3502
 7420TIP3    H122224   6.650   2.904   0.357  0.3071  0.1557 -0.1890
 7420TIP3    H222225   6.738   2.789   0.311  0.4479 -0.3231  1.2481
 7421TIP3   OH222226   3.416   5.390   1.890  0.5915  0.4331 -0.0839
 7421TIP3    H122227   3.468   5.412   1.967 -0.6919  1.4734  0.5039
 7421TIP3    H222228   3.363   5.315   1.917  0.3154  0.6455 -0.0459
 7422TIP3   OH222229   0.372   3.227   5.642  0.0807 -0.5143  0.0136
 7422TIP3    H122230   0.361   3.135   5.617  0.7704 -1.2691  2.2768
 7422TIP3    H222231   0.298   3.246   5.698  0.3502  0.0841  0.1776
 7423TIP3   OH222232   5.953   3.059   1.047 -0.5568 -0.2200 -0.3478
 7423TIP3    H122233   6.026   2.999   1.054 -0.9171 -0.6007  0.1523
 7423TIP3    H222234   5.876   3.008   1.073 -0.8081  0.5760  0.5257
 7424TIP3   OH222235   7.126   0.038   3.211 -0.5998  0.7151 -0.5327
 7424TIP3    H122236   7.155   0.129   3.218 -1.5064  0.9163  1.1559
 7424TIP3    H222237   7.051   0.032   3.270  0.9486 -1.7249  1.3929
 7425TIP3   OH222238   1.770   1.683   4.614 -0.1408  0.2688 -0.2752
 7425TIP3    H122239   1.687   1.700   4.569 -0.2895 -2.5572 -1.2985
 7425TIP3    H222240   1.837   1.709   4.552 -0.3502 -1.5697 -1.3577
 7426TIP3   OH222241   0.866   6.627   3.933 -0.0595  0.1611 -0.2136
 7426TIP3    H122242   0.832   6.568   3.865  0.9029 -0.8121  0.1192
 7426TIP3    H222243   0.898   6.568   4.001 -1.7517  1.1278  1.5072
 7427TIP3   OH222244   3.652   6.725   1.098 -0.0462 -0.1111 -0.3911
 7427TIP3    H122245   3.619   6.640   1.127  0.0340  0.0670  0.2320
 7427TIP3    H222246   3.577   6.784   1.105  0.1779  0.1066  0.2161
 7428TIP3   OH222247   4.796   4.618   4.672  0.2278 -0.0620 -0.0914
 7428TIP3    H122248   4.725   4.555   4.684  0.1674  0.2119  1.1768
 7428TIP3    H222249   4.875   4.568   4.691  0.2835 -0.0785 -0.3673
 7429TIP3   OH222250   3.540   6.143   4.861  0.5393  0.1398 -0.2436
 7429TIP3    H122251   3.524   6.171   4.951  2.9728 -0.0562  0.3093
 7429TIP3    H222252   3.512   6.051   4.860  0.0860  0.2645  0.1594
 7430TIP3   OH222253   4.683   6.140   0.140 -0.4657 -0.3610  0.0920
 7430TIP3    H122254   4.683   6.134   0.044 -1.0630 -0.3336  0.0896
 7430TIP3    H222255   4.747   6.073   0.167 -1.4274 -1.4567 -0.2651
 7431TIP3   OH222256   2.323   1.329   5.791  0.2407  0.3795  0.1143
 7431TIP3    H122257   2.346   1.329   5.698  0.7473 -1.3472  0.2062
 7431TIP3    H222258   2.377   1.260   5.829 -2.2806 -1.2020  1.0745
 7432TIP3   OH222259   0.764   1.820   4.411  0.5242  0.1633  0.4548
 7432TIP3    H122260   0.778   1.743   4.357  0.2932 -0.5455  1.3865
 7432TIP3    H222261   0.834   1.881   4.386  0.5300 -0.2216 -0.4935
 7433TIP3   OH222262   0.022   1.993   2.534 -0.1387 -0.1944 -0.4397
 7433TIP3    H122263   0.072   2.074   2.542 -1.3391  0.7288 -1.7916
 7433TIP3    H222264   0.051   1.940   2.609  0.3557  1.6342  0.7402
 7434TIP3   OH222265   3.712   3.588   5.388  0.0130  0.1432 -0.3349
 7434TIP3    H122266   3.756   3.665   5.424 -0.8118 -0.5723  2.4532
 7434TIP3    H222267   3.635   3.623   5.342  0.1236  1.0244  0.1393
 7435TIP3   OH222268   6.270   0.540   5.203  0.1511 -0.0660  0.4185
 7435TIP3    H122269   6.187   0.583   5.225  0.0647  0.1589 -0.3304
 7435TIP3    H222270   6.309   0.596   5.135  0.7506 -0.3586  0.5158
 7436TIP3   OH222271   2.632   5.771   3.447  0.3738 -0.0060 -0.0044
 7436TIP3    H122272   2.595   5.772   3.535 -0.0911 -0.5957 -0.1842
 7436TIP3    H222273   2.655   5.679   3.432  0.1202  0.0285 -0.6308
 7437TIP3   OH222274   5.195   2.192   4.336 -0.1993  0.4031  1.2238
 7437TIP3    H122275   5.204   2.128   4.406  0.1267 -0.3111  0.5382
 7437TIP3    H222276   5.100   2.208   4.331 -0.3292 -0.3735  1.0896
 7438TIP3   OH222277   1.261   1.115   3.389 -0.3695  0.2706  0.2252
 7438TIP3    H122278   1.339   1.135   3.337 -0.2154  0.2657  0.4506
 7438TIP3    H222279   1.284   1.034   3.435 -0.7139 -0.0295 -0.1242
 7439TIP3   OH222280   0.911   0.550   2.920 -0.3864 -0.6645 -0.0291
 7439TIP3    H122281   0.964   0.474   2.945 -0.3941 -0.2680  1.2835
 7439TIP3    H222282   0.906   0.602   3.000 -0.9670  0.3723 -0.7265
 7440TIP3   OH222283   5.814   4.190   4.692  0.4810 -0.5918 -0.1747
 7440TIP3    H122284   5.809   4.276   4.733 -0.4883 -0.5431 -0.3683
 7440TIP3    H222285   5.907   4.177   4.675  0.5490  0.8447 -1.0506
 7441TIP3   OH222286   7.104   6.590   0.475 -0.1692 -0.5572 -0.5830
 7441TIP3    H122287   7.177   6.629   0.523 -0.7401  0.0734 -0.2171
 7441TIP3    H222288   7.026   6.629   0.514 -0.7791 -2.1582 -0.1125
 7442TIP3   OH222289   2.480   0.244   0.632  0.3088  0.0960  0.1001
 7442TIP3    H122290   2.415   0.196   0.683  0.7769 -0.7387 -0.0606
 7442TIP3    H222291   2.544   0.177   0.606 -0.2173  0.3769 -2.0752
 7443TIP3   OH222292   4.741   1.578   2.562  0.5690 -0.2647 -0.2172
 7443TIP3    H122293   4.813   1.612   2.615  0.3087  0.0538 -0.0604
 7443TIP3    H222294   4.681   1.652   2.553 -0.0295 -0.6911  0.1627
 7444TIP3   OH222295   2.564   1.280   1.996 -0.0717 -0.6874  0.0291
 7444TIP3    H122296   2.497   1.304   1.933 -1.6904  1.2136  2.3052
 7444TIP3    H222297   2.527   1.206   2.044 -0.2707 -0.0469  0.8718
 7445TIP3   OH222298   3.361   3.180   3.431  0.1159  0.5598 -0.3626
 7445TIP3    H122299   3.444   3.139   3.407 -0.4640  0.4627 -2.3934
 7445TIP3    H222300   3.367   3.193   3.526  2.1728 -0.0189 -0.3648
 7446TIP3   OH222301   6.433   2.132   5.646 -0.1515 -0.3755 -0.1505
 7446TIP3    H122302   6.471   2.102   5.564  0.5683 -1.3935  0.5302
 7446TIP3    H222303   6.399   2.220   5.627 -0.7835 -0.9455 -1.7435
 7447TIP3   OH222304   6.910   2.352   2.383 -0.4318 -0.3032  0.0538
 7447TIP3    H122305   6.874   2.439   2.369 -0.6570 -0.7250 -2.2949
 7447TIP3    H222306   6.995   2.368   2.426 -2.0003  0.8080  3.0552
 7448TIP3   OH222307   0.347   5.696   4.014  0.3769  0.1897  0.3656
 7448TIP3    H122308   0.254   5.674   4.001  0.0338  1.2068  0.9452
 7448TIP3    H222309   0.391   5.611   4.017 -0.6010 -0.3336  0.5426
 7449TIP3   OH222310   2.771   2.777   2.626  0.3354 -0.2231 -0.2961
 7449TIP3    H122311   2.756   2.696   2.577  0.5515  0.9479 -2.4421
 7449TIP3    H222312   2.690   2.828   2.613  0.5283  0.2403  0.3049
 7450TIP3   OH222313   6.432   1.995   5.219  0.5346 -0.0671  0.4108
 7450TIP3    H122314   6.395   2.068   5.270 -0.7519 -0.3276 -0.0923
 7450TIP3    H222315   6.432   2.027   5.129  1.3969 -0.1511  0.3751
 7451TIP3   OH222316   1.896   0.214   3.535  0.4053 -0.4805  0.5407
 7451TIP3    H122317   1.869   0.176   3.452  0.5296  0.5855 -0.0085
 7451TIP3    H222318   1.815   0.227   3.584  0.0216  1.2569 -0.4712
 7452TIP3   OH222319   0.397   5.663   5.074 -0.1793  0.1060  0.5097
 7452TIP3    H122320   0.456   5.595   5.041 -0.8709  0.2451 -1.1290
 7452TIP3    H222321   0.312   5.619   5.082 -0.0799  0.1302  2.0006
 7453TIP3   OH222322   1.017   2.497   4.776  0.2557 -0.0300  0.1068
 7453TIP3    H122323   1.021   2.469   4.868  0.6152  0.9200  0.3906
 7453TIP3    H222324   1.007   2.415   4.727  0.2765 -0.5703  0.9758
 7454TIP3   OH222325   0.638   6.368   4.179 -0.1403 -0.3461  0.4065
 7454TIP3    H122326   0.570   6.426   4.212 -1.2124 -1.2160 -0.2098
 7454TIP3    H222327   0.699   6.358   4.253  0.2869  1.8046  0.4175
 7455TIP3   OH222328   5.777   6.221   2.240  0.2009  0.0580  0.7100
 7455TIP3    H122329   5.762   6.133   2.274  0.2197 -0.1263  0.2383
 7455TIP3    H222330   5.833   6.262   2.306  0.5699 -0.4353  0.7080
 7456TIP3   OH222331   6.253   3.625   4.880  0.3139 -0.0487 -0.5479
 7456TIP3    H122332   6.220   3.587   4.798  0.6621  2.1184 -1.7859
 7456TIP3    H222333   6.180   3.677   4.913 -0.0627 -1.4489  0.9566
 7457TIP3   OH222334   4.566   0.713   4.850 -0.3383  0.0533  0.6590
 7457TIP3    H122335   4.572   0.776   4.778 -0.9479  0.6630  1.1315
 7457TIP3    H222336   4.657   0.699   4.877 -0.0108 -0.8608 -0.7816
 7458TIP3   OH222337   0.833   1.668   3.429 -0.1026 -0.3277  0.0366
 7458TIP3    H122338   0.851   1.575   3.416 -0.8635 -0.2406 -2.0510
 7458TIP3    H222339   0.911   1.702   3.473  1.1934 -1.5298 -1.2254
 7459TIP3   OH222340   0.153   1.542   0.913  0.8400  0.4159  0.3708
 7459TIP3    H122341   0.058   1.541   0.926  0.5687 -2.7982 -1.0237
 7459TIP3    H222342   0.189   1.537   1.001 -0.1698  2.9596  1.0099
 7460TIP3   OH222343   2.301   3.419   2.941 -0.1622  0.0418 -0.0695
 7460TIP3    H122344   2.210   3.395   2.957 -0.3902  1.3727  0.7909
 7460TIP3    H222345   2.302   3.515   2.946  1.3601  0.0303  0.3313
 7461TIP3   OH222346   3.701   2.288   5.601 -0.1203 -0.0319  0.0602
 7461TIP3    H122347   3.628   2.310   5.659  1.0517 -1.3584  2.1734
 7461TIP3    H222348   3.768   2.353   5.621  0.7157 -1.1714  1.1119
 7462TIP3   OH222349   2.931   1.137   1.212 -0.0816  0.3145 -0.1545
 7462TIP3    H122350   2.841   1.168   1.222 -0.7822 -2.1005  2.4477
 7462TIP3    H222351   2.978   1.175   1.286  0.1984 -0.9065  0.3186
 7463TIP3   OH222352   0.632   5.014   5.199 -0.3328 -0.5001  0.0855
 7463TIP3    H122353   0.562   4.971   5.249  0.6843 -3.0308 -0.4809
 7463TIP3    H222354   0.629   4.971   5.113  2.8885 -1.9041  0.5467
 7464TIP3   OH222355   2.024   2.552   3.330 -0.1498  0.3936  0.5487
 7464TIP3    H122356   2.004   2.577   3.240 -1.2610 -0.1864  0.6196
 7464TIP3    H222357   2.082   2.622   3.362  0.1828  0.6474 -0.5782
 7465TIP3   OH222358   4.205   5.507   3.192  0.5727  0.8386  0.7601
 7465TIP3    H122359   4.135   5.569   3.215 -0.7161 -0.4098  0.3327
 7465TIP3    H222360   4.185   5.429   3.243  0.7736 -0.0630 -0.5130
 7466TIP3   OH222361   0.912   1.417   3.324 -0.2398  0.2588  0.0493
 7466TIP3    H122362   0.957   1.423   3.240  1.8501 -0.6548  1.0404
 7466TIP3    H222363   0.866   1.333   3.321 -1.1980  0.7797 -0.6034
 7467TIP3   OH222364   3.643   5.559   2.774  0.2142  0.0963  0.0213
 7467TIP3    H122365   3.684   5.646   2.773  0.5575 -0.0612  0.3218
 7467TIP3    H222366   3.708   5.502   2.733  0.7971 -0.3717  1.5357
 7468TIP3   OH222367   5.665   3.400   4.824  0.6699 -0.7279  0.3115
 7468TIP3    H122368   5.707   3.316   4.838 -0.2578 -1.0698  1.1870
 7468TIP3    H222369   5.580   3.378   4.785  1.1366 -0.0688 -1.1737
 7469TIP3   OH222370   1.214   5.373   4.305 -0.5655  0.2210  1.0216
 7469TIP3    H122371   1.143   5.391   4.244 -1.4630 -0.6439  1.7729
 7469TIP3    H222372   1.178   5.308   4.365  0.4968  0.5969  2.1032
 7470TIP3   OH222373   6.981   2.822   0.966  0.2641  0.2543  0.0981
 7470TIP3    H122374   7.029   2.810   1.048  2.4047 -0.0187 -1.1198
 7470TIP3    H222375   6.995   2.740   0.919 -0.3208  0.6899 -0.8464
 7471TIP3   OH222376   6.739   1.092   0.934  0.4188  0.4490 -0.0863
 7471TIP3    H122377   6.731   1.078   0.839  1.2780  0.4165 -0.1608
 7471TIP3    H222378   6.697   1.177   0.948 -0.8404 -0.1056 -0.2920
 7472TIP3   OH222379   3.569   5.900   4.104 -0.1091  0.2152  0.4035
 7472TIP3    H122380   3.607   5.886   4.191 -1.3339 -0.6691  0.8127
 7472TIP3    H222381   3.612   5.835   4.048  1.5217  1.5168  0.0343
 7473TIP3   OH222382   0.823   5.200   5.275  0.0858  0.7795  0.8390
 7473TIP3    H122383   0.906   5.154   5.272  0.8176  2.0860 -1.3443
 7473TIP3    H222384   0.757   5.131   5.267  0.9387 -0.2232  2.0616
 7474TIP3   OH222385   4.757   4.186   1.547 -0.4938 -0.1273  0.1272
 7474TIP3    H122386   4.845   4.170   1.511 -0.6745  0.0564 -0.4034
 7474TIP3    H222387   4.703   4.205   1.471 -1.3025 -1.5232  0.3117
 7475TIP3   OH222388   3.835   5.569   0.068  0.3870  0.8249  0.2703
 7475TIP3    H122389   3.834   5.660   0.040  1.3430  0.8330  0.2292
 7475TIP3    H222390   3.797   5.521  -0.005  0.1075  1.1588  0.1924
 7476TIP3   OH222391   6.592   5.673   2.983 -0.2541 -0.2338 -0.3547
 7476TIP3    H122392   6.565   5.593   3.029  1.4724 -0.1254  0.9445
 7476TIP3    H222393   6.649   5.718   3.045 -0.6043  1.6592 -1.3518
 7477TIP3   OH222394   3.485   5.235   2.865 -0.3710 -0.1079 -0.0381
 7477TIP3    H122395   3.517   5.305   2.923  1.4977  0.8107 -2.0285
 7477TIP3    H222396   3.416   5.277   2.814 -0.1298 -0.0708 -0.3405
 7478TIP3   OH222397   5.862   4.975   1.434  0.1703  0.1869  0.4218
 7478TIP3    H122398   5.869   5.070   1.427 -1.4324  0.4741  1.8385
 7478TIP3    H222399   5.944   4.948   1.475  1.3018  0.7378 -1.4083
 7479TIP3   OH222400   5.933   6.633   4.779 -0.0051  0.7699  0.1876
 7479TIP3    H122401   5.986   6.554   4.765 -0.2425  0.7947 -0.9560
 7479TIP3    H222402   5.931   6.644   4.874 -0.5939 -1.0324  0.4257
 7480TIP3   OH222403   2.499   5.959   5.193 -0.0888 -0.1876  0.5307
 7480TIP3    H122404   2.580   5.921   5.226 -1.3198 -0.8350  3.0812
 7480TIP3    H222405   2.524   6.002   5.112  2.6422 -0.9614  0.8576
 7481TIP3   OH222406   3.957   2.612   4.087  0.4293  0.6384  0.1292
 7481TIP3    H122407   3.931   2.639   4.175  0.9791  0.8650  0.2278
 7481TIP3    H222408   4.003   2.529   4.099 -0.4533  0.1114 -0.0712
 7482TIP3   OH222409   6.235   6.063   2.850 -0.1613  0.1143  0.5240
 7482TIP3    H122410   6.275   5.984   2.887 -2.5779 -0.2578  2.6666
 7482TIP3    H222411   6.275   6.073   2.764  2.0409 -1.9921  1.1932
 7483TIP3   OH222412   2.489   0.135   1.119 -0.1859  0.3567 -0.4694
 7483TIP3    H122413   2.489   0.039   1.118  0.0523  0.3403  0.4758
 7483TIP3    H222414   2.468   0.158   1.209  1.0827  1.1873 -0.3670
 7484TIP3   OH222415   2.049   2.644   4.560  0.0270  0.1279  0.2572
 7484TIP3    H122416   2.028   2.737   4.568 -1.5455  0.0020 -1.6954
 7484TIP3    H222417   1.982   2.609   4.501  0.0878 -2.4343  1.5821
 7485TIP3   OH222418   0.440   5.500   2.966 -0.1205  0.3934  0.5861
 7485TIP3    H122419   0.427   5.556   3.043 -0.9072 -0.2474  0.9312
 7485TIP3    H222420   0.356   5.500   2.922  0.5423  1.4080 -0.7434
 7486TIP3   OH222421   5.942   3.643   1.744  0.2884  0.1469  0.0161
 7486TIP3    H122422   5.947   3.559   1.790 -0.0532 -0.1660 -0.5130
 7486TIP3    H222423   6.030   3.680   1.753  0.2267  0.1045  0.9387
 7487TIP3   OH222424   3.224   6.381   5.068  0.5162 -0.1421  0.5759
 7487TIP3    H122425   3.242   6.412   5.156  3.5387 -0.7596  0.2922
 7487TIP3    H222426   3.268   6.296   5.062  0.7686  0.0682 -1.6386
 7488TIP3   OH222427   6.767   3.154   0.264  0.7931  0.0904  0.6604
 7488TIP3    H122428   6.805   3.191   0.344  0.0305  0.2480  0.9590
 7488TIP3    H222429   6.781   3.060   0.272  0.2870  0.0596  1.2157
 7489TIP3   OH222430   1.316   4.612   0.501  0.2130  0.3379  0.3458
 7489TIP3    H122431   1.235   4.605   0.451  0.4164  1.5240 -0.1741
 7489TIP3    H222432   1.365   4.682   0.458  2.3695 -1.5840 -0.5386
 7490TIP3   OH222433   1.516   4.162   0.836 -0.0481  0.0836 -0.2644
 7490TIP3    H122434   1.504   4.067   0.834  1.8684 -0.3092  2.2127
 7490TIP3    H222435   1.439   4.195   0.883  0.3398 -0.5418  0.8537
 7491TIP3   OH222436   0.337   2.255   3.337 -0.0059 -0.6112 -0.0071
 7491TIP3    H122437   0.379   2.191   3.279  0.2413 -1.0780  0.6850
 7491TIP3    H222438   0.400   2.270   3.407  0.1183  0.7227 -0.3802
 7492TIP3   OH222439   1.368   6.297   3.284  0.3879 -0.0109  0.0057
 7492TIP3    H122440   1.279   6.268   3.262  0.5157 -0.5715  0.2236
 7492TIP3    H222441   1.416   6.289   3.201  0.9600 -2.4677  0.4973
 7493TIP3   OH222442   5.329   0.159   5.820 -0.3456 -0.0175 -1.1883
 7493TIP3    H122443   5.395   0.104   5.863 -0.3944  0.7664 -0.0658
 7493TIP3    H222444   5.247   0.137   5.865 -0.0177  2.4906  0.8315
 7494TIP3   OH222445   3.935   3.527   1.524 -0.2217 -0.4063 -0.2962
 7494TIP3    H122446   3.917   3.433   1.511  3.6333 -1.3914  0.1890
 7494TIP3    H222447   3.888   3.570   1.453 -0.7715 -2.9097 -1.5807
 7495TIP3   OH222448   2.903   2.695   5.795 -0.5483  0.1359  0.0473
 7495TIP3    H122449   2.914   2.609   5.835  0.2037  0.3969  0.4208
 7495TIP3    H222450   2.827   2.685   5.737 -0.2645 -0.8705 -0.1710
 7496TIP3   OH222451   5.501   5.533   2.945  0.5984  0.0744 -0.4864
 7496TIP3    H122452   5.581   5.581   2.925  0.8031  0.5170  1.2610
 7496TIP3    H222453   5.530   5.455   2.992  0.0154  0.1751  0.0492
 7497TIP3   OH222454   0.999   3.275   5.108 -0.2361 -0.7329  0.1539
 7497TIP3    H122455   0.939   3.229   5.166 -1.3882  0.7518  0.2011
 7497TIP3    H222456   0.993   3.228   5.025 -1.1927 -0.8400  0.2670
 7498TIP3   OH222457   0.013   3.363   0.739 -0.2063  0.3598  0.0469
 7498TIP3    H122458   0.052   3.357   0.826 -1.5934  1.6772  0.8160
 7498TIP3    H222459   0.086   3.351   0.678  0.9352  0.2815  1.3934
 7499TIP3   OH222460   5.965   0.991   3.145  0.8780  0.2260 -0.1099
 7499TIP3    H122461   5.911   0.916   3.170  0.7328  0.0623 -0.8958
 7499TIP3    H222462   6.006   1.019   3.227 -2.5449  2.1103  1.1646
 7500TIP3   OH222463   6.077   4.377   2.956  0.0235 -0.3799 -0.2028
 7500TIP3    H122464   6.149   4.358   2.895 -0.3519 -1.7117 -0.2592
 7500TIP3    H222465   6.059   4.470   2.942  0.9738 -0.2870 -1.0057
 7501TIP3   OH222466   5.636   4.450   0.818  0.0038  0.5206  0.4423
 7501TIP3    H122467   5.680   4.471   0.900  0.5491 -0.1750  0.3445
 7501TIP3    H222468   5.652   4.356   0.806 -1.1127  0.3519  0.1568
 7502TIP3   OH222469   2.099   0.683   2.225  0.1888 -0.1612  0.0142
 7502TIP3    H122470   2.030   0.682   2.158 -1.4823  1.1050  1.6336
 7502TIP3    H222471   2.052   0.691   2.308  2.2097 -1.5294  1.3787
 7503TIP3   OH222472   6.669   3.012   3.103  0.0439 -0.4322 -0.3225
 7503TIP3    H122473   6.751   3.059   3.085 -0.7575  1.1905  0.0644
 7503TIP3    H222474   6.697   2.923   3.124  2.1849  0.8992  3.6209
 7504TIP3   OH222475   2.048   1.380   5.880  0.4843  0.5006  0.0638
 7504TIP3    H122476   2.095   1.340   5.806  1.3758  1.1258  0.2778
 7504TIP3    H222477   1.956   1.378   5.853  0.3881 -2.2377  0.3141
 7505TIP3   OH222478   2.635   2.550   1.256 -0.2844  0.0594 -0.2250
 7505TIP3    H122479   2.674   2.526   1.340 -1.4479 -1.1370  0.0145
 7505TIP3    H222480   2.612   2.466   1.215 -3.3480  0.6450  0.0513
 7506TIP3   OH222481   0.865   0.232   4.438 -0.7162 -0.4820  0.3668
 7506TIP3    H122482   0.820   0.244   4.522 -0.2974 -0.3864  0.5857
 7506TIP3    H222483   0.957   0.247   4.459 -0.6206 -0.3453 -0.1370
 7507TIP3   OH222484   6.586   4.472   0.756 -0.4317 -0.0736 -0.0936
 7507TIP3    H122485   6.636   4.553   0.753 -0.9622  0.2957  0.6044
 7507TIP3    H222486   6.495   4.500   0.744 -0.8262 -0.3278  1.8495
 7508TIP3   OH222487   0.363   5.720   3.728 -0.5985 -0.2205  0.0662
 7508TIP3    H122488   0.436   5.659   3.713  1.0334  1.8265 -0.8009
 7508TIP3    H222489   0.348   5.717   3.822  1.3949  0.1200  0.4283
 7509TIP3   OH222490   5.436   4.539   1.268 -0.5639 -0.4198  0.2593
 7509TIP3    H122491   5.479   4.574   1.190 -1.1674 -1.3750 -0.5295
 7509TIP3    H222492   5.418   4.615   1.322 -0.0613  0.2505 -0.5022
 7510TIP3   OH222493   6.405   5.468   2.945  0.2973  0.2701 -0.2211
 7510TIP3    H122494   6.366   5.444   3.029 -0.6595 -1.6064 -1.1387
 7510TIP3    H222495   6.459   5.393   2.920 -1.3498 -0.3271 -2.3646
 7511TIP3   OH222496   2.728   2.735   0.753  0.4180 -0.3696  0.6051
 7511TIP3    H122497   2.781   2.685   0.690 -1.4034 -0.1679 -1.2029
 7511TIP3    H222498   2.772   2.819   0.760  1.3756 -0.8649  0.6209
 7512TIP3   OH222499   6.781   1.631   2.759 -0.0449 -0.3811 -0.8864
 7512TIP3    H122500   6.740   1.683   2.690 -1.3238 -1.9467 -1.3776
 7512TIP3    H222501   6.846   1.578   2.713 -0.2508 -0.7586 -0.7456
 7513TIP3   OH222502   2.566   5.118   0.099 -0.8063 -0.2600  0.5261
 7513TIP3    H122503   2.565   5.139   0.006 -0.0789  0.2423  0.6213
 7513TIP3    H222504   2.598   5.197   0.141  0.4851 -1.0189  1.0475
 7514TIP3   OH222505   5.340   4.773   0.764 -0.0249  0.4275  0.0081
 7514TIP3    H122506   5.271   4.838   0.748  0.3748  0.5590 -1.2934
 7514TIP3    H222507   5.323   4.704   0.700 -0.7469 -1.0419  1.6995
 7515TIP3   OH222508   6.493   4.775   2.111  0.1958 -0.2383  0.2230
 7515TIP3    H122509   6.582   4.739   2.109  0.2986 -0.0529  1.1399
 7515TIP3    H222510   6.487   4.829   2.033  0.2478 -1.7509 -0.8757
 7516TIP3   OH222511   4.113   3.973   3.403  0.1527  0.0026 -0.1221
 7516TIP3    H122512   4.063   4.053   3.419 -0.7981 -0.7381  0.8141
 7516TIP3    H222513   4.176   3.996   3.335  0.3874  1.7405  0.6290
 7517TIP3   OH222514   5.747   1.593   4.740 -0.2027 -0.3523  0.0082
 7517TIP3    H122515   5.835   1.574   4.772  0.0159 -0.3781 -0.5995
 7517TIP3    H222516   5.761   1.629   4.653 -0.4071  4.0806  1.5035
 7518TIP3   OH222517   2.484   1.610   1.428 -0.1602  0.1223  0.3677
 7518TIP3    H122518   2.571   1.620   1.388 -0.0531  0.9497  0.7932
 7518TIP3    H222519   2.439   1.692   1.409 -0.3983  0.2090  1.2525
 7519TIP3   OH222520   5.451   0.991   1.945  0.1447  0.2911 -0.0485
 7519TIP3    H122521   5.377   0.935   1.921  0.1994  0.4246 -0.5566
 7519TIP3    H222522   5.427   1.077   1.911  1.3490 -0.0590 -1.9806
 7520TIP3   OH222523   7.166   3.954   0.701 -0.1465 -0.2422 -0.0775
 7520TIP3    H122524   7.122   3.913   0.627  1.3165 -3.1243  0.5040
 7520TIP3    H222525   7.191   3.881   0.758 -0.0809  1.7399  2.6670
 7521TIP3   OH222526   6.084   4.035   3.378  0.2064  0.1536  0.3211
 7521TIP3    H122527   6.129   4.044   3.294  0.6780 -0.5426  0.4924
 7521TIP3    H222528   6.013   4.099   3.374 -1.0500 -1.2520 -1.4303
 7522TIP3   OH222529   5.021   2.227   0.374 -0.0535  0.1965  0.0160
 7522TIP3    H122530   5.097   2.170   0.388 -0.3744 -0.0047  1.0256
 7522TIP3    H222531   4.957   2.199   0.440 -0.0474  2.0314  0.8588
 7523TIP3   OH222532   7.124   1.453   2.214 -0.3637  0.5440 -0.4959
 7523TIP3    H122533   7.081   1.496   2.141  0.1637  0.8445 -0.6367
 7523TIP3    H222534   7.194   1.513   2.240 -1.6702  1.3163  1.4661
 7524TIP3   OH222535   1.430   2.380   5.345 -0.2588 -0.8095 -0.3411
 7524TIP3    H122536   1.469   2.397   5.430 -4.1402  1.6444  1.2391
 7524TIP3    H222537   1.438   2.286   5.332  0.2969 -1.2921  2.8616
 7525TIP3   OH222538   3.154   6.163   4.341 -0.5850 -0.6453  0.8489
 7525TIP3    H122539   3.127   6.177   4.251 -0.1480 -1.7650  0.5311
 7525TIP3    H222540   3.123   6.240   4.388  0.9994  0.9627 -0.6244
 7526TIP3   OH222541   0.055   6.726   5.250  0.1868  0.5627  0.3602
 7526TIP3    H122542   0.086   6.810   5.286  0.5338  1.1546 -1.2228
 7526TIP3    H222543   0.031   6.675   5.326  0.6898  1.8328  1.4157
 7527TIP3   OH222544   3.205   4.770   4.676  0.0190 -1.1960  0.0593
 7527TIP3    H122545   3.297   4.792   4.665  0.4264 -1.3679  2.5540
 7527TIP3    H222546   3.162   4.853   4.694 -0.8823 -0.7013 -3.6194
 7528TIP3   OH222547   0.663   4.629   3.080  0.2692  0.8147  0.0632
 7528TIP3    H122548   0.713   4.651   3.001  0.0084  1.2831  0.0228
 7528TIP3    H222549   0.626   4.713   3.109  0.8072  0.7511  0.9971
 7529TIP3   OH222550   3.538   3.498   1.164  0.3351 -0.6447  1.1624
 7529TIP3    H122551   3.560   3.480   1.072  0.5725  0.2628  1.0338
 7529TIP3    H222552   3.448   3.531   1.161  1.1630  1.7544  0.9469
 7530TIP3   OH222553   5.471   4.158   0.157 -0.3877  0.4467  0.1026
 7530TIP3    H122554   5.418   4.148   0.078 -0.6904  1.7513  0.1116
 7530TIP3    H222555   5.517   4.241   0.144  0.2734  0.2160  0.8953
 7531TIP3   OH222556   4.130   3.921   1.434 -0.2414 -0.2235 -0.4744
 7531TIP3    H122557   4.133   3.865   1.357  0.2634 -0.9145  0.0393
 7531TIP3    H222558   4.219   3.918   1.470 -0.8266 -1.1471  1.0043
 7532TIP3   OH222559   1.411   3.961   1.801 -0.0807 -0.2950 -0.2977
 7532TIP3    H122560   1.395   3.968   1.707 -0.0372 -1.3960 -0.4035
 7532TIP3    H222561   1.485   3.901   1.807  1.7052  1.8507  0.3347
 7533TIP3   OH222562   5.124   3.184   0.780  0.2430  0.0535  0.1753
 7533TIP3    H122563   5.157   3.232   0.704 -2.1139 -0.5726 -1.3649
 7533TIP3    H222564   5.173   3.102   0.780 -0.2747 -0.2949 -1.2481
 7534TIP3   OH222565   3.343   3.209   3.008 -0.0054  0.5735 -0.5201
 7534TIP3    H122566   3.324   3.191   2.916  1.9338  0.9897 -1.0340
 7534TIP3    H222567   3.364   3.302   3.010  1.3539  0.2740  0.0748
 7535TIP3   OH222568   2.204   5.997   4.634 -0.7775 -0.2037  0.2196
 7535TIP3    H122569   2.148   6.059   4.588 -1.8066 -0.4643  1.0885
 7535TIP3    H222570   2.172   5.911   4.608  0.1554 -0.3852 -0.3876
 7536TIP3   OH222571   6.834   4.308   1.985 -0.1298 -0.1436 -0.6558
 7536TIP3    H122572   6.812   4.329   2.076  0.6866  1.9170 -0.8637
 7536TIP3    H222573   6.792   4.224   1.968 -0.4084 -0.5156  1.5817
 7537TIP3   OH222574   1.582   5.660   2.584 -0.6183  0.3338  0.1074
 7537TIP3    H122575   1.492   5.687   2.566  0.0363  2.0377 -0.7842
 7537TIP3    H222576   1.621   5.644   2.498 -0.8963 -3.5609  0.5350
 7538TIP3   OH222577   4.907   2.556   3.576  0.0169 -0.2620  0.1454
 7538TIP3    H122578   4.984   2.613   3.573 -2.2314  3.0156 -1.0143
 7538TIP3    H222579   4.871   2.569   3.664  1.5732 -3.1823  1.3516
 7539TIP3   OH222580   5.668   2.882   4.902 -0.1207 -0.4730 -0.0827
 7539TIP3    H122581   5.691   2.802   4.854  0.9128 -0.3596  0.2044
 7539TIP3    H222582   5.607   2.852   4.969 -0.1945 -0.9306 -0.3481
 7540TIP3   OH222583   0.815   3.266   0.511 -0.1724 -0.3685  0.1517
 7540TIP3    H122584   0.776   3.263   0.423 -1.1158  0.2774  0.5378
 7540TIP3    H222585   0.819   3.359   0.532 -1.0157 -0.5638  1.2476
 7541TIP3   OH222586   0.329   3.014   5.484  0.3672 -0.0961 -0.8267
 7541TIP3    H122587   0.286   2.929   5.483  0.3617 -0.0961 -0.6378
 7541TIP3    H222588   0.405   3.004   5.427  0.4746 -0.2856 -0.6506
 7542TIP3   OH222589   1.851   3.896   1.003  0.4983 -0.2309  0.0762
 7542TIP3    H122590   1.869   3.841   0.926  2.0353 -0.6271  0.6768
 7542TIP3    H222591   1.934   3.940   1.021 -0.0882  0.5516  0.9854
 7543TIP3   OH222592   0.538   1.442   4.594 -0.5405 -0.0742 -0.1523
 7543TIP3    H122593   0.516   1.474   4.506 -0.6376  0.0032 -0.1015
 7543TIP3    H222594   0.453   1.439   4.639 -0.3315  1.1713  0.3606
 7544TIP3   OH222595   7.038   1.026   3.480  0.1264  0.0033 -0.0068
 7544TIP3    H122596   7.057   1.119   3.484  0.0498 -0.0076  3.0079
 7544TIP3    H222597   7.017   1.009   3.388 -0.5491  3.0680 -0.5120
 7545TIP3   OH222598   4.728   1.230   5.131  0.0341  0.0969  0.2968
 7545TIP3    H122599   4.735   1.278   5.048 -0.2542  0.3485  0.4132
 7545TIP3    H222600   4.701   1.296   5.195 -1.2648 -0.3800  0.2774
 7546TIP3   OH222601   5.738   0.096   3.530  0.2607 -0.3484  0.4125
 7546TIP3    H122602   5.731   0.175   3.583  0.3255 -0.6896  0.9321
 7546TIP3    H222603   5.829   0.096   3.499 -0.5881  1.5960 -2.4608
 7547TIP3   OH222604   0.226   3.208   5.122 -0.3606 -0.3445 -0.2229
 7547TIP3    H122605   0.202   3.140   5.060 -0.6006  0.0530 -0.5674
 7547TIP3    H222606   0.143   3.248   5.147 -0.2138 -0.1206 -0.0880
 7548TIP3   OH222607   3.194   2.341   5.403  0.3449  0.0043  0.4696
 7548TIP3    H122608   3.225   2.252   5.419  0.5481  0.0174  0.1573
 7548TIP3    H222609   3.239   2.368   5.323 -1.4622 -0.4661 -0.7629
 7549TIP3   OH222610   7.127   0.559   4.272 -0.3342  0.5640 -0.1236
 7549TIP3    H122611   7.090   0.557   4.360 -1.5763  1.1801 -0.5974
 7549TIP3    H222612   7.140   0.652   4.253 -1.1975  0.5193 -1.0172
 7550TIP3   OH222613   1.300   1.986   3.635  0.0336 -0.4404  0.6736
 7550TIP3    H122614   1.281   1.907   3.685 -0.7057 -0.9772 -0.3992
 7550TIP3    H222615   1.221   2.001   3.583  0.9660 -0.2639 -0.7585
 7551TIP3   OH222616   1.744   5.064   2.805 -0.4193  0.6713  0.1459
 7551TIP3    H122617   1.771   5.061   2.713 -1.2090  0.3306 -0.0854
 7551TIP3    H222618   1.816   5.022   2.852  0.0283  0.9192 -0.3015
 7552TIP3   OH222619   0.672   5.366   0.337  0.4298 -0.2667 -0.4568
 7552TIP3    H122620   0.673   5.283   0.288 -0.4329  0.3247 -1.5242
 7552TIP3    H222621   0.647   5.432   0.272  0.4337  0.7354  0.5308
 7553TIP3   OH222622   0.982   4.777   5.527 -0.6064 -0.4305  0.1205
 7553TIP3    H122623   0.990   4.690   5.565 -3.3204 -0.3260  1.1514
 7553TIP3    H222624   0.916   4.767   5.458 -1.2870  0.8617  0.5546
 7554TIP3   OH222625   5.443   1.233   4.960  0.0282 -0.5102 -0.3897
 7554TIP3    H122626   5.424   1.139   4.965  0.3355 -0.5100  2.1808
 7554TIP3    H222627   5.536   1.240   4.979  0.0664  0.3268 -0.8087
 7555TIP3   OH222628   0.570   5.111   0.527 -0.3654  0.5000  0.0998
 7555TIP3    H122629   0.479   5.102   0.553 -0.2686  1.9247  1.0271
 7555TIP3    H222630   0.577   5.060   0.447 -2.2947  1.3955 -0.6971
 7556TIP3   OH222631   0.210   4.662   2.743  0.5137  0.0466  0.2328
 7556TIP3    H122632   0.176   4.738   2.791  2.5692  1.5482 -0.5056
 7556TIP3    H222633   0.262   4.615   2.808 -2.8995 -2.4362  1.4536
 7557TIP3   OH222634   5.870   4.375   3.166  0.4352 -0.1883  0.3146
 7557TIP3    H122635   5.897   4.378   3.074  0.0613  1.5721  0.2223
 7557TIP3    H222636   5.862   4.282   3.186  1.7955 -0.6441 -1.0577
 7558TIP3   OH222637   2.098   2.852   1.587  0.1419  0.1833 -0.9440
 7558TIP3    H122638   2.077   2.769   1.544 -0.0801 -0.9960  1.3336
 7558TIP3    H222639   2.118   2.911   1.514 -3.1325 -0.8108 -2.8791
 7559TIP3   OH222640   1.773   3.479   0.215 -0.1463  0.2132  0.1053
 7559TIP3    H122641   1.734   3.560   0.249 -0.5680  0.3726 -0.7505
 7559TIP3    H222642   1.744   3.411   0.276  2.2580  1.0146  2.3433
 7560TIP3   OH222643   6.393   5.955   2.096 -0.5269 -0.2988 -0.2194
 7560TIP3    H122644   6.374   5.900   2.171 -1.1643 -1.9237 -1.5253
 7560TIP3    H222645   6.347   5.914   2.023 -0.9194  1.8866 -1.3011
 7561TIP3   OH222646   5.072   5.260   3.795 -0.2684  0.2476  0.5169
 7561TIP3    H122647   4.989   5.243   3.749  0.3846 -2.3249  0.1167
 7561TIP3    H222648   5.055   5.236   3.886 -0.0631 -0.0316  0.4853
 7562TIP3   OH222649   3.682   3.386   5.134  0.5917  0.3404 -0.2889
 7562TIP3    H122650   3.658   3.464   5.183 -0.9320  0.1263 -0.6618
 7562TIP3    H222651   3.744   3.340   5.191  1.5852  1.8312 -0.1069
 7563TIP3   OH222652   4.800   1.710   3.684 -0.2964  0.2679 -0.2305
 7563TIP3    H122653   4.864   1.700   3.613  0.4018 -0.4558  0.4753
 7563TIP3    H222654   4.715   1.707   3.640  0.1048 -0.8058 -0.9947
 7564TIP3   OH222655   6.553   5.639   4.048  0.0549  0.3837  0.0067
 7564TIP3    H122656   6.581   5.680   4.129  1.4005  0.0905 -0.2754
 7564TIP3    H222657   6.593   5.693   3.979 -0.3253  0.1087 -0.4367
 7565TIP3   OH222658   5.669   2.874   3.802  0.8117  0.2120 -0.0179
 7565TIP3    H122659   5.733   2.882   3.872 -0.0770 -1.3157  1.0304
 7565TIP3    H222660   5.670   2.781   3.778 -3.0283 -0.6384  2.1737
 7566TIP3   OH222661   4.764   2.771   0.293 -0.2317  0.7730 -0.2254
 7566TIP3    H122662   4.764   2.866   0.280 -2.1637  0.7350 -0.7400
 7566TIP3    H222663   4.842   2.755   0.347  0.6217  2.5306 -0.8373
 7567TIP3   OH222664   5.346   1.040   1.080 -0.0681 -0.0640  0.1421
 7567TIP3    H122665   5.429   0.995   1.067 -0.0775 -0.2462  0.6829
 7567TIP3    H222666   5.355   1.122   1.031  0.0033 -0.5839 -0.7273
 7568TIP3   OH222667   4.478   0.012   1.290  0.1023 -0.1545  0.5012
 7568TIP3    H122668   4.567   0.016   1.256 -0.1818 -0.0219 -0.2368
 7568TIP3    H222669   4.469   0.091   1.344 -0.2141  0.8976 -1.0334
 7569TIP3   OH222670   7.024   5.684   0.799  0.3701 -0.1608 -0.1344
 7569TIP3    H122671   7.001   5.594   0.777  2.3900 -0.7752  0.1344
 7569TIP3    H222672   6.940   5.730   0.803 -0.8586 -2.3719  1.3635
 7570TIP3   OH222673   1.551   6.220   3.079 -0.1135 -0.2164 -0.0612
 7570TIP3    H122674   1.511   6.216   2.993 -1.2297 -1.1019  0.4635
 7570TIP3    H222675   1.621   6.284   3.071 -1.4400  1.1515 -1.1031
 7571TIP3   OH222676   3.025   6.730   3.866 -0.2215 -0.1379  0.1527
 7571TIP3    H122677   2.983   6.698   3.787 -0.5645 -1.3059  0.7774
 7571TIP3    H222678   3.094   6.789   3.835  0.1618 -1.1828 -1.0389
 7572TIP3   OH222679   6.139   4.869   2.903 -0.5053  0.5837  0.5900
 7572TIP3    H122680   6.095   4.946   2.938  0.2335  0.7999  1.0463
 7572TIP3    H222681   6.206   4.904   2.844 -1.2380  0.2425 -0.4986
 7573TIP3   OH222682   7.013   6.522   5.183 -1.1549 -0.0894  0.1614
 7573TIP3    H122683   7.078   6.503   5.250 -1.4914  0.7868  0.7510
 7573TIP3    H222684   7.051   6.486   5.102  0.5655  1.3214  0.2853
 7574TIP3   OH222685   0.518   0.349   1.525  0.3721  0.0670 -0.9773
 7574TIP3    H122686   0.442   0.299   1.497  1.1146 -1.2299 -0.7859
 7574TIP3    H222687   0.592   0.289   1.512  1.0167  0.1392  1.6842
 7575TIP3   OH222688   4.852   6.466   5.282 -0.3777 -0.1431  0.1064
 7575TIP3    H122689   4.764   6.500   5.301 -0.7419 -0.1890 -1.3538
 7575TIP3    H222690   4.898   6.540   5.243 -0.1157 -0.4167 -0.1095
 7576TIP3   OH222691   1.061   0.030   5.543  0.0688  0.2475  0.0913
 7576TIP3    H122692   1.046   0.123   5.531  0.4561  0.1671 -1.1591
 7576TIP3    H222693   1.114   0.004   5.468 -0.3810 -1.0601  0.1901
 7577TIP3   OH222694   3.007   0.146   1.370 -0.2330 -0.3390 -0.0595
 7577TIP3    H122695   3.039   0.223   1.323 -1.3356  1.2432  1.6893
 7577TIP3    H222696   3.069   0.134   1.442 -1.5667  0.6558  1.3098
 7578TIP3   OH222697   4.488   3.902   5.658  0.7330 -0.0887  0.3541
 7578TIP3    H122698   4.538   3.981   5.673  1.6404 -0.5523 -0.1340
 7578TIP3    H222699   4.397   3.926   5.678  0.8992  1.2397 -0.4104
 7579TIP3   OH222700   6.007   2.380   5.569  0.1495 -0.0542  0.3005
 7579TIP3    H122701   5.917   2.413   5.572  0.2443  0.1631  0.9230
 7579TIP3    H222702   6.032   2.368   5.660 -0.0387 -2.3621  0.1140
 7580TIP3   OH222703   1.091   6.632   1.165 -0.6889 -0.3547 -0.0312
 7580TIP3    H122704   1.009   6.680   1.165 -0.6179 -0.1165 -2.1402
 7580TIP3    H222705   1.113   6.623   1.072  1.0529 -1.4605  0.4410
 7581TIP3   OH222706   2.714   0.518   4.887  0.3528  0.1785  0.1617
 7581TIP3    H122707   2.709   0.442   4.830  1.2588  0.7530 -0.7080
 7581TIP3    H222708   2.718   0.482   4.975  2.4705 -0.8708 -0.3101
 7582TIP3   OH222709   6.805   3.711   4.400 -0.4011 -0.7337  0.3595
 7582TIP3    H122710   6.790   3.618   4.380  1.7182 -1.0603  0.0873
 7582TIP3    H222711   6.728   3.755   4.365 -1.2366 -2.3298  0.0504
 7583TIP3   OH222712   2.722   6.379   3.002 -0.4546 -0.2863  0.0103
 7583TIP3    H122713   2.806   6.423   3.004 -0.9562  0.7175 -0.3566
 7583TIP3    H222714   2.675   6.419   2.928 -1.5861 -0.1698  0.7626
 7584TIP3   OH222715   1.321   5.397   4.609 -0.2089  0.4548  0.0500
 7584TIP3    H122716   1.320   5.343   4.531  0.0509  0.5924 -0.0476
 7584TIP3    H222717   1.241   5.371   4.657 -1.5629  1.9108 -1.3078
 7585TIP3   OH222718   2.246   2.619   2.541 -0.0552  0.2394 -0.7677
 7585TIP3    H122719   2.313   2.638   2.607 -0.7591 -1.5277  0.5569
 7585TIP3    H222720   2.192   2.698   2.538 -0.8367 -0.0869  1.9034
 7586TIP3   OH222721   0.093   5.060   4.949  0.1750  0.1075  0.1053
 7586TIP3    H122722   0.167   5.001   4.934  1.7174  2.0276 -0.2811
 7586TIP3    H222723   0.019   5.002   4.968  1.7064 -1.8986  0.2517
 7587TIP3   OH222724   1.099   2.184   1.589 -0.3997 -0.2124  0.5933
 7587TIP3    H122725   1.040   2.215   1.520  1.3426  0.3624 -0.7117
 7587TIP3    H222726   1.066   2.096   1.610 -0.1141 -1.1019 -2.1453
 7588TIP3   OH222727   5.799   2.450   2.185  0.6460  0.6205 -0.1715
 7588TIP3    H122728   5.820   2.458   2.278  0.6090  2.1185 -0.2540
 7588TIP3    H222729   5.839   2.528   2.145 -0.5468  0.7663 -1.1672
 7589TIP3   OH222730   0.941   3.096   0.034  0.1321 -0.2633 -0.4319
 7589TIP3    H122731   0.872   3.030   0.032 -0.8988  0.7656 -0.1251
 7589TIP3    H222732   0.938   3.131   0.123  3.4877 -2.6153  0.8384
 7590TIP3   OH222733   6.427   2.555   3.442 -0.2777 -0.2341 -0.2508
 7590TIP3    H122734   6.393   2.529   3.357 -2.0712 -1.0396  0.6513
 7590TIP3    H222735   6.349   2.571   3.495  0.7797 -0.3530  1.4135
 7591TIP3   OH222736   4.156   4.392   3.630  0.1082  0.5514 -0.0818
 7591TIP3    H122737   4.248   4.396   3.602  0.2111 -0.4056  0.0781
 7591TIP3    H222738   4.110   4.356   3.554  0.2918 -1.4590  0.6915
 7592TIP3   OH222739   2.021   0.330   5.333  0.1840 -0.3573 -0.2120
 7592TIP3    H122740   2.083   0.283   5.277 -0.1826  1.3384 -2.1696
 7592TIP3    H222741   1.941   0.337   5.280 -0.2129  1.2251  0.5240
 7593TIP3   OH222742   1.780   0.984   5.437  0.2237 -0.4218 -0.3203
 7593TIP3    H122743   1.707   1.045   5.421  0.1390 -0.8942 -1.8878
 7593TIP3    H222744   1.844   1.036   5.486 -1.5311 -0.2701  1.9843
 7594TIP3   OH222745   1.519   4.188   2.455 -0.2274  0.3038 -0.0923
 7594TIP3    H122746   1.484   4.277   2.462  0.3230  0.5333 -0.1901
 7594TIP3    H222747   1.501   4.149   2.541 -0.1224  0.6440  0.0897
 7595TIP3   OH222748   3.689   4.856   1.619  0.0309  0.6355  0.2242
 7595TIP3    H122749   3.623   4.787   1.617  0.0512  0.6227 -1.5195
 7595TIP3    H222750   3.717   4.865   1.528  1.8380  1.2196  0.8019
 7596TIP3   OH222751   6.990   1.646   1.528 -0.4094  0.6684  0.3533
 7596TIP3    H122752   6.916   1.586   1.525  3.2736 -4.4677 -1.9812
 7596TIP3    H222753   7.004   1.672   1.437  0.6210  1.5864  0.7471
 7597TIP3   OH222754   6.427   3.812   2.061  0.5658  1.0113 -0.2651
 7597TIP3    H122755   6.377   3.892   2.048 -1.8233 -0.0583  1.6377
 7597TIP3    H222756   6.369   3.742   2.032  2.6369 -0.1107 -1.9744
 7598TIP3   OH222757   1.932   0.674   2.862 -0.4194 -0.3925 -0.0510
 7598TIP3    H122758   1.884   0.716   2.791 -1.3654 -0.8722  0.2831
 7598TIP3    H222759   1.981   0.603   2.820 -0.3928 -0.2107 -0.3284
 7599TIP3   OH222760   6.024   4.639   2.974 -0.1189  0.2836 -0.3140
 7599TIP3    H122761   6.064   4.719   2.939 -1.2810  0.5606 -1.0760
 7599TIP3    H222762   6.000   4.661   3.064  0.1551  0.5696 -0.3078
 7600TIP3   OH222763   4.646   2.201   1.407  0.0748 -0.4748 -0.2520
 7600TIP3    H122764   4.684   2.286   1.427  1.2424 -0.6222 -1.7275
 7600TIP3    H222765   4.654   2.192   1.312 -0.3013 -2.1054 -0.1654
 7601TIP3   OH222766   1.145   4.505   3.940  0.6796 -0.2079  0.3107
 7601TIP3    H122767   1.139   4.488   3.846 -2.8934  0.2048  0.3344
 7601TIP3    H222768   1.187   4.591   3.946  1.2405 -0.3802 -0.8643
 7602TIP3   OH222769   2.351   3.354   1.505  0.6648 -0.3045 -0.3777
 7602TIP3    H122770   2.265   3.391   1.521  1.1751  1.1697 -0.9258
 7602TIP3    H222771   2.377   3.317   1.590 -0.5532 -0.9175 -0.2494
 7603TIP3   OH222772   2.141   5.990   5.575 -0.2853  0.5635 -0.0561
 7603TIP3    H122773   2.106   6.059   5.632 -0.0439  0.7147 -0.0914
 7603TIP3    H222774   2.118   6.019   5.486 -1.7254 -0.2558  0.0111
 7604TIP3   OH222775   0.395   2.902   3.903 -0.1352  0.0927 -0.1923
 7604TIP3    H122776   0.347   2.905   3.820 -0.0340  2.2158 -0.2144
 7604TIP3    H222777   0.338   2.944   3.966 -0.7810 -2.6518  1.2196
 7605TIP3   OH222778   6.531   0.065   5.095  0.0525  0.1578  0.3738
 7605TIP3    H122779   6.440   0.080   5.071  0.2809  2.7152  0.8766
 7605TIP3    H222780   6.530   0.054   5.190  0.0896 -1.8779  0.1893
 7606TIP3   OH222781   3.386   4.458   4.908 -0.4304  0.2210  0.8324
 7606TIP3    H122782   3.304   4.443   4.955 -0.1519 -0.2051  1.1995
 7606TIP3    H222783   3.402   4.552   4.917 -1.9226  0.7067 -1.0171
 7607TIP3   OH222784   1.903   1.046   2.620  0.0443  0.1399 -0.0149
 7607TIP3    H122785   1.889   1.086   2.534 -0.3125 -1.9177 -0.9762
 7607TIP3    H222786   1.873   0.956   2.610  0.9136 -0.4360  1.9956
 7608TIP3   OH222787   1.363   1.437   1.760  0.4116  0.5480  0.1151
 7608TIP3    H122788   1.285   1.470   1.804 -0.6124 -1.2542 -0.2481
 7608TIP3    H222789   1.348   1.458   1.667  1.0183  1.3998  0.1978
 7609TIP3   OH222790   3.331   4.203   3.022 -0.0537  0.0414 -0.4067
 7609TIP3    H122791   3.412   4.215   3.071  0.4507 -1.7935 -0.7019
 7609TIP3    H222792   3.301   4.115   3.046  0.2661 -0.9851 -3.3245
 7610TIP3   OH222793   5.042   1.262   0.119  0.0112  0.0085 -0.4372
 7610TIP3    H122794   4.965   1.296   0.074 -0.0768 -0.2623 -0.4918
 7610TIP3    H222795   5.110   1.328   0.104 -0.2386  0.3006 -0.2993
 7611TIP3   OH222796   6.630   0.355   3.508  0.3702 -0.0089  0.3042
 7611TIP3    H122797   6.563   0.320   3.449 -0.9393  1.2153  1.0040
 7611TIP3    H222798   6.694   0.395   3.450 -0.4427  0.3976 -0.3414
 7612TIP3   OH222799   3.570   3.245   1.621  0.1520  0.4592  0.7360
 7612TIP3    H122800   3.635   3.181   1.590 -0.2366  0.7896 -0.8068
 7612TIP3    H222801   3.486   3.205   1.602 -0.0941  1.0433  0.5831
 7613TIP3   OH222802   0.733   2.705   1.065  0.3304  0.3992 -0.6102
 7613TIP3    H122803   0.722   2.615   1.097 -0.5938  0.8174  0.2763
 7613TIP3    H222804   0.672   2.757   1.116 -0.9066  1.1870 -2.7341
 7614TIP3   OH222805   2.167   4.080   5.564  0.0904  0.2212  0.1296
 7614TIP3    H122806   2.260   4.095   5.580 -0.0442 -0.6917  1.9807
 7614TIP3    H222807   2.153   3.988   5.587 -1.3399  0.4301  0.1873
 7615TIP3   OH222808   7.030   4.034   4.060  0.3428  0.1863  0.3634
 7615TIP3    H122809   7.044   3.959   4.118 -0.7102 -0.1794  0.1736
 7615TIP3    H222810   6.962   4.004   3.999 -0.2139  1.3478  0.3927
 7616TIP3   OH222811   2.695   1.821   2.253  0.2081 -0.5242 -0.0780
 7616TIP3    H122812   2.700   1.800   2.159 -1.7639  0.1415 -0.3964
 7616TIP3    H222813   2.667   1.739   2.294  1.5884 -0.9641  0.0392
 7617TIP3   OH222814   6.208   1.545   1.046 -0.3064 -0.5302  0.5875
 7617TIP3    H122815   6.268   1.599   0.996 -0.3369 -0.9334  0.1089
 7617TIP3    H222816   6.251   1.459   1.051 -0.8281 -0.8203  0.2503
 7618TIP3   OH222817   2.176   6.056   3.936 -0.1738  0.2356  0.1187
 7618TIP3    H122818   2.105   6.060   3.872  0.0788  0.9298 -0.1365
 7618TIP3    H222819   2.255   6.046   3.884 -0.1790 -2.0658  0.4740
 7619TIP3   OH222820   3.306   3.743   3.456 -0.0809 -0.2202  0.0040
 7619TIP3    H122821   3.325   3.666   3.402 -0.6843 -1.4163  1.4511
 7619TIP3    H222822   3.391   3.766   3.494 -0.5196 -2.9994  3.1273
 7620TIP3   OH222823   7.105   0.551   2.586  0.1599  0.0023 -0.1265
 7620TIP3    H122824   7.142   0.466   2.561 -0.0555  0.4852 -2.3199
 7620TIP3    H222825   7.172   0.614   2.562  0.0551  0.5260  0.9030
 7621TIP3   OH222826   6.239   4.495   1.655 -0.1273  0.6069 -0.4230
 7621TIP3    H122827   6.183   4.517   1.730 -0.8911 -0.8316 -0.5338
 7621TIP3    H222828   6.177   4.474   1.585  0.4927 -1.3823 -0.4409
 7622TIP3   OH222829   3.778   0.877   2.457 -0.2217  0.0572 -0.8432
 7622TIP3    H122830   3.760   0.878   2.363  1.2388 -0.4729 -1.1496
 7622TIP3    H222831   3.692   0.869   2.498 -0.9802  1.4248 -2.0803
 7623TIP3   OH222832   4.774   3.221   5.833 -0.4779  0.3362 -0.2958
 7623TIP3    H122833   4.782   3.183   5.920 -0.1186  0.2471 -0.3649
 7623TIP3    H222834   4.862   3.250   5.811 -0.6339  0.6609 -0.4944
 7624TIP3   OH222835   6.742   5.137   1.322 -0.2921  0.3466  0.6515
 7624TIP3    H122836   6.817   5.099   1.368  0.4652 -0.1835 -0.9554
 7624TIP3    H222837   6.729   5.080   1.246 -1.5312  1.1753  0.2090
 7625TIP3   OH222838   5.787   0.124   4.183 -0.7108  0.4510  0.0823
 7625TIP3    H122839   5.870   0.159   4.215  0.2589 -1.4455 -0.2027
 7625TIP3    H222840   5.725   0.195   4.195  0.2320  0.9006  3.3452
 7626TIP3   OH222841   1.131   2.564   1.140  0.1872  0.3152 -0.4612
 7626TIP3    H122842   1.155   2.519   1.059 -1.0779  3.5618 -2.8924
 7626TIP3    H222843   1.126   2.495   1.206  1.0216 -2.5744 -3.1731
 7627TIP3   OH222844   3.794   6.374   4.282  0.1612  0.2053 -0.5675
 7627TIP3    H122845   3.743   6.309   4.234 -1.3512  0.4382  0.6498
 7627TIP3    H222846   3.885   6.344   4.274 -0.4463 -1.8780 -0.3303
 7628TIP3   OH222847   4.057   0.130   2.973 -0.0019 -0.2290  0.6266
 7628TIP3    H122848   4.143   0.142   2.933 -1.0968 -0.3026 -1.9266
 7628TIP3    H222849   4.067   0.053   3.028  1.2215 -1.1542 -0.8036
 7629TIP3   OH222850   4.350   2.484   0.203 -0.2081 -0.8201  0.3806
 7629TIP3    H122851   4.439   2.510   0.226 -0.6625  0.2144  0.9907
 7629TIP3    H222852   4.342   2.505   0.110  0.7151 -2.4707 -0.1209
 7630TIP3   OH222853   0.855   2.375   5.519  0.6436  0.1085 -0.7144
 7630TIP3    H122854   0.799   2.438   5.563  1.2387  0.8952 -1.0625
 7630TIP3    H222855   0.795   2.311   5.481  0.0608  0.2167  0.0150
 7631TIP3   OH222856   0.182   1.467   5.041 -0.2537  0.6102  0.3553
 7631TIP3    H122857   0.264   1.432   5.078 -0.1071 -0.0697 -0.5922
 7631TIP3    H222858   0.118   1.398   5.056 -0.3793  0.6584  0.0280
 7632TIP3   OH222859   2.348   4.611   5.391 -0.0742  0.2727  0.0266
 7632TIP3    H122860   2.342   4.669   5.467 -0.3462  1.2849 -0.7518
 7632TIP3    H222861   2.272   4.553   5.399 -0.2665  0.5669  0.3653
 7633TIP3   OH222862   1.900   0.467   2.297 -0.1281  0.2659  0.0860
 7633TIP3    H122863   1.944   0.383   2.311 -0.5611  0.2937  1.7282
 7633TIP3    H222864   1.897   0.476   2.201  0.7039 -1.1633 -0.1084
 7634TIP3   OH222865   2.222   0.028   5.740 -0.2303 -0.6619  0.2828
 7634TIP3    H122866   2.314   0.001   5.743 -0.2903 -0.9355 -0.1800
 7634TIP3    H222867   2.190   0.013   5.829  0.3466  0.0823  0.6244
 7635TIP3   OH222868   4.679   3.943   1.215  0.5316  0.2935  0.3792
 7635TIP3    H122869   4.606   3.921   1.158  0.5564  1.2437 -0.0334
 7635TIP3    H222870   4.683   4.038   1.213  1.2686  0.2859  1.0522
 7636TIP3   OH222871   6.142   6.377   0.333 -0.4872  0.8289 -0.2933
 7636TIP3    H122872   6.096   6.460   0.348 -1.0928  0.5734 -0.7271
 7636TIP3    H222873   6.151   6.338   0.420 -1.6164  0.6074 -0.2659
 7637TIP3   OH222874   4.690   6.174   3.204 -0.4096  0.3574 -0.5171
 7637TIP3    H122875   4.759   6.130   3.155  0.3017 -1.3170  1.8196
 7637TIP3    H222876   4.614   6.116   3.196 -0.6119  0.6146 -0.5042
 7638TIP3   OH222877   6.199   5.586   2.738  0.4726 -0.1892 -0.2537
 7638TIP3    H122878   6.222   5.678   2.752  1.0810 -0.5465  1.2348
 7638TIP3    H222879   6.255   5.537   2.799 -1.1792 -1.4030  0.3636
 7639TIP3   OH222880   5.884   0.812   5.082  0.1750  0.0468 -0.5232
 7639TIP3    H122881   5.853   0.748   5.018  0.6209 -1.5471  0.7834
 7639TIP3    H222882   5.931   0.877   5.030 -0.1172 -0.7999 -1.8957
 7640TIP3   OH222883   6.522   1.923   5.470  0.3708  0.0348  0.2498
 7640TIP3    H122884   6.491   1.936   5.380  0.6474 -0.8778  0.0078
 7640TIP3    H222885   6.449   1.879   5.514  0.6626 -0.5781  0.1407
 7641TIP3   OH222886   3.083   3.157   4.399  0.7023 -0.1784  0.1759
 7641TIP3    H122887   3.158   3.215   4.388  0.5015 -0.1381 -1.1844
 7641TIP3    H222888   3.008   3.207   4.366 -0.0194 -0.0530  1.9138
 7642TIP3   OH222889   1.565   2.704   5.658  0.4061 -0.1843  0.0997
 7642TIP3    H122890   1.528   2.646   5.725 -0.4476 -0.0801 -0.2717
 7642TIP3    H222891   1.607   2.774   5.708 -0.3360 -0.0407  0.5252
 7643TIP3   OH222892   2.354   2.589   2.303  0.6254  0.3799 -0.4125
 7643TIP3    H122893   2.387   2.678   2.290  1.4200  0.5234  2.0379
 7643TIP3    H222894   2.302   2.595   2.384 -0.2734 -1.1667 -0.8344
 7644TIP3   OH222895   4.202   5.127   1.634  0.5665  0.6962  0.4172
 7644TIP3    H122896   4.212   5.172   1.718  0.1372  0.3912  0.6362
 7644TIP3    H222897   4.291   5.105   1.608  0.7538  1.3788  0.4711
 7645TIP3   OH222898   0.762   5.926   0.199 -0.4289 -0.3386 -0.0084
 7645TIP3    H122899   0.851   5.933   0.231  0.4444 -1.3734 -2.0230
 7645TIP3    H222900   0.738   6.016   0.177 -0.3831  0.1215  1.6804
 7646TIP3   OH222901   6.911  -0.004   3.705 -0.1253 -0.2374  0.4064
 7646TIP3    H122902   6.875   0.082   3.723 -1.1820  0.0705 -2.5224
 7646TIP3    H222903   7.005   0.005   3.718 -0.0896  1.7002 -0.8651
 7647TIP3   OH222904   0.793   2.254   2.204 -0.2114  0.1204 -0.1001
 7647TIP3    H122905   0.820   2.346   2.201 -0.2697  0.1001 -2.0593
 7647TIP3    H222906   0.871   2.205   2.178 -0.4494 -0.3316  0.0350
 7648TIP3   OH222907   4.415   6.197  -0.013  0.2832 -0.6247  0.4747
 7648TIP3    H122908   4.456   6.119  -0.049  3.2346  0.1705  1.8549
 7648TIP3    H222909   4.373   6.167   0.068  1.1691 -0.8761  0.8565
 7649TIP3   OH222910   5.775   5.966   2.347 -0.5983 -0.4770 -0.1966
 7649TIP3    H122911   5.839   5.896   2.360 -0.7378 -0.6991 -0.6550
 7649TIP3    H222912   5.700   5.921   2.306 -0.6223 -0.0293 -0.6507
 7650TIP3   OH222913   3.031   2.719   0.381  0.2687 -0.1306  0.1696
 7650TIP3    H122914   3.043   2.661   0.306 -1.3465 -0.9931  0.5481
 7650TIP3    H222915   2.986   2.666   0.446 -0.8151  1.3940  0.7175
 7651TIP3   OH222916   7.076   4.132   2.178 -0.0777  0.0795 -0.2594
 7651TIP3    H122917   7.005   4.076   2.148  0.1348 -0.4225  0.1650
 7651TIP3    H222918   7.147   4.116   2.115  0.1088 -0.4109  0.0679
 7652TIP3   OH222919   1.501   1.855   3.433  0.0396  0.4820 -0.4678
 7652TIP3    H122920   1.440   1.819   3.369 -0.3372  1.1498 -0.4931
 7652TIP3    H222921   1.447   1.908   3.490  0.3912 -0.0325  0.3549
 7653TIP3   OH222922   1.330   3.286   2.839  0.2039  0.0783  0.0656
 7653TIP3    H122923   1.327   3.310   2.747 -2.3040  1.6487  0.4774
 7653TIP3    H222924   1.255   3.227   2.852 -0.1171  0.7140  1.2878
 7654TIP3   OH222925   6.250   4.291   1.154  0.0617  0.0368  0.6330
 7654TIP3    H122926   6.329   4.244   1.181 -0.3255 -1.2842 -0.4497
 7654TIP3    H222927   6.190   4.281   1.228  0.0612 -1.0343  0.5084
 7655TIP3   OH222928   4.689   5.112   0.743  0.1583 -0.3359 -0.1993
 7655TIP3    H122929   4.602   5.135   0.709  0.5794 -2.1780 -2.7224
 7655TIP3    H222930   4.674   5.098   0.837 -1.4766  2.9351  0.1777
 7656TIP3   OH222931   4.683   0.038   0.508 -0.2426 -0.0180  0.1269
 7656TIP3    H122932   4.738   0.080   0.442 -1.3270  1.5689  0.1807
 7656TIP3    H222933   4.745  -0.007   0.566  0.9557  1.2541 -0.1202
 7657TIP3   OH222934   2.253   0.327   4.731 -0.1301 -0.6785 -0.3610
 7657TIP3    H122935   2.345   0.307   4.752 -0.6282 -0.8858  1.7774
 7657TIP3    H222936   2.214   0.352   4.814 -1.6774  0.8803 -1.4968
 7658TIP3   OH222937   5.558   2.935   1.649 -0.0512 -0.3204 -0.2214
 7658TIP3    H122938   5.471   2.911   1.618 -0.0873  0.2773 -0.6098
 7658TIP3    H222939   5.612   2.858   1.633 -0.3207 -0.3982 -0.7784
 7659TIP3   OH222940   0.135   6.234   4.644 -0.1668  0.2051  0.1678
 7659TIP3    H122941   0.229   6.214   4.634 -0.3298 -0.8530  0.6289
 7659TIP3    H222942   0.091   6.159   4.603 -0.8111  0.2099  0.8447
 7660TIP3   OH222943   3.732   3.722   0.115  0.1062 -0.8901 -0.1081
 7660TIP3    H122944   3.803   3.746   0.175 -1.7417 -0.0143  1.8744
 7660TIP3    H222945   3.768   3.737   0.028  1.9478  0.7081  0.8470
 7661TIP3   OH222946   2.215   3.122   3.923  0.8134  0.3053  0.0188
 7661TIP3    H122947   2.244   3.184   3.857 -1.2819  0.3425 -0.9474
 7661TIP3    H222948   2.208   3.039   3.876 -1.3376  0.4685 -0.0452
 7662TIP3   OH222949   2.855   4.100   4.595 -0.0237  0.0533 -0.0292
 7662TIP3    H122950   2.881   4.137   4.680 -0.8821  0.8444 -0.0849
 7662TIP3    H222951   2.821   4.013   4.616  1.9150 -0.7030  0.1244
 7663TIP3   OH222952   0.779   0.264   2.984  0.7291 -0.4587 -0.0906
 7663TIP3    H122953   0.776   0.279   3.078  0.8796 -1.0729  0.0161
 7663TIP3    H222954   0.852   0.317   2.953  0.2931  0.2248  0.0440
 7664TIP3   OH222955   3.343   1.797   2.907  0.5775 -0.0377 -0.1536
 7664TIP3    H122956   3.296   1.799   2.990 -1.0101 -0.8592 -1.0107
 7664TIP3    H222957   3.276   1.783   2.841  1.8389  0.3698 -1.5789
 7665TIP3   OH222958   2.498   0.986   4.496  0.0528 -0.3176 -0.6692
 7665TIP3    H122959   2.465   0.896   4.493  0.6755 -0.6378  0.8362
 7665TIP3    H222960   2.536   1.001   4.410 -1.4883 -0.9171 -1.4839
 7666TIP3   OH222961   0.426   4.871   0.877 -0.1311 -0.1130 -0.2775
 7666TIP3    H122962   0.503   4.850   0.930 -1.0614  0.3474  1.3162
 7666TIP3    H222963   0.462   4.906   0.795  1.3534 -0.1176  0.3426
 7667TIP3   OH222964   3.924   4.736   2.299  0.5997 -0.1636  0.3051
 7667TIP3    H122965   3.945   4.690   2.218  0.6543 -0.4754  0.4926
 7667TIP3    H222966   3.924   4.829   2.275  2.3105 -0.1214  0.3122
 7668TIP3   OH222967   1.497   1.959   4.326 -0.2605  0.1975  0.0140
 7668TIP3    H122968   1.509   2.041   4.375  0.6327  0.0745  0.0143
 7668TIP3    H222969   1.581   1.914   4.334 -1.2515 -1.5351  1.5065
 7669TIP3   OH222970   0.418   5.285   5.894  0.1050  0.0353  0.1038
 7669TIP3    H122971   0.350   5.249   5.837 -1.4526  1.9176  0.6837
 7669TIP3    H222972   0.500   5.253   5.856 -1.0148 -1.3281 -1.3204
 7670TIP3   OH222973   0.584   1.695   3.943  0.0691  0.0891 -0.1882
 7670TIP3    H122974   0.605   1.746   4.022 -0.9006 -1.1396  0.8982
 7670TIP3    H222975   0.669   1.661   3.914  0.0890 -2.9142  2.8077
 7671TIP3   OH222976   2.040   5.702   3.345  0.1206  0.6508 -0.2623
 7671TIP3    H122977   2.021   5.697   3.439 -1.0118 -0.4280 -0.5227
 7671TIP3    H222978   2.119   5.755   3.340 -1.0392  2.6831  1.1548
 7672TIP3   OH222979   6.174   2.988   5.460 -0.2023 -0.0143  0.2897
 7672TIP3    H122980   6.118   2.980   5.537  0.4614  0.8794  0.8826
 7672TIP3    H222981   6.203   2.898   5.442  1.8854  0.0215  2.8178
 7673TIP3   OH222982   1.876   1.513   0.007 -0.6484 -0.0721  0.0947
 7673TIP3    H122983   1.811   1.502   0.077 -0.8911  0.4240 -0.0528
 7673TIP3    H222984   1.861   1.439  -0.052 -1.9249  0.7232 -0.6116
 7674TIP3   OH222985   6.454   0.972   3.798 -0.4786 -0.0846  0.0852
 7674TIP3    H122986   6.449   1.046   3.738 -0.3733 -1.5126 -1.7541
 7674TIP3    H222987   6.528   0.993   3.855 -2.0496  2.4248  1.3801
 7675TIP3   OH222988   6.500   3.215   1.701  0.6642 -0.4933  0.1094
 7675TIP3    H122989   6.460   3.133   1.672  1.9586 -0.3208 -2.4083
 7675TIP3    H222990   6.513   3.204   1.795  0.0034 -2.8042 -0.0242
 7676TIP3   OH222991   4.452   6.770   1.874  0.1463 -0.6992  0.1369
 7676TIP3    H122992   4.372   6.748   1.826  0.5690 -1.5461 -0.1990
 7676TIP3    H222993   4.468   6.694   1.930  2.0843 -1.7284 -1.6486
 7677TIP3   OH222994   6.935   5.141   5.251  0.6541  0.2560  0.0984
 7677TIP3    H122995   6.918   5.116   5.160  1.9765  0.5791 -0.2549
 7677TIP3    H222996   6.889   5.075   5.303 -0.9474  0.6102 -0.7673
 7678TIP3   OH222997   3.872   4.337   3.100 -0.0608 -0.0609 -0.4680
 7678TIP3    H122998   3.815   4.406   3.134  2.4174  0.9396  2.0234
 7678TIP3    H222999   3.938   4.384   3.049 -0.6024 -1.0619 -2.1778
 7679TIP3   OH223000   5.355   5.926   3.645  0.6703 -0.5082 -0.4181
 7679TIP3    H123001   5.368   5.834   3.671  0.9544 -1.2983 -3.0445
 7679TIP3    H223002   5.437   5.950   3.602  0.3174  0.7283 -0.4213
 7680TIP3   OH223003   2.543   4.429   2.230 -0.0215  0.1462  0.3205
 7680TIP3    H123004   2.525   4.475   2.312 -2.5376  1.3507 -0.7722
 7680TIP3    H223005   2.483   4.354   2.231 -1.2832  1.0751 -1.0412
 7681TIP3   OH223006   3.248   2.227   5.119 -0.2417  0.1178 -0.2596
 7681TIP3    H123007   3.299   2.236   5.038  0.8243  0.0961  0.3885
 7681TIP3    H223008   3.302   2.171   5.175 -1.9563 -1.7052 -0.3067
 7682TIP3   OH223009   4.183   0.042   5.630 -0.1633  0.6204  0.0732
 7682TIP3    H123010   4.239  -0.025   5.669 -2.4879 -0.2902  2.1646
 7682TIP3    H223011   4.214   0.124   5.668 -1.0328 -0.0236  2.3671
 7683TIP3   OH223012   2.192   0.848   3.368 -0.3217  0.3189  0.5225
 7683TIP3    H123013   2.159   0.781   3.429  2.1474 -0.4741  1.1199
 7683TIP3    H223014   2.231   0.798   3.297 -0.6515  1.2010 -0.2892
 7684TIP3   OH223015   0.976   1.000   2.567 -0.0162  0.4016 -0.4622
 7684TIP3    H123016   1.022   0.952   2.636 -1.9261  0.1290  0.7068
 7684TIP3    H223017   0.959   0.935   2.499  1.0517  0.4501 -0.7938
 7685TIP3   OH223018   1.032   3.224   0.900  0.5263  0.3961 -0.9175
 7685TIP3    H123019   0.950   3.176   0.911  0.9187 -0.1298 -0.1650
 7685TIP3    H223020   1.006   3.316   0.899  0.0657  0.3613  1.3305
 7686TIP3   OH223021   2.556   2.896   2.501 -0.1923 -0.0383  0.1033
 7686TIP3    H123022   2.522   2.980   2.531  0.4569  0.4287 -0.4364
 7686TIP3    H223023   2.489   2.863   2.442 -1.3487 -0.8262  1.7595
 7687TIP3   OH223024   0.159   2.779   5.766  0.0229 -0.4812 -0.0105
 7687TIP3    H123025   0.193   2.861   5.802  1.0243 -0.6337 -0.5817
 7687TIP3    H223026   0.065   2.795   5.755  0.5474  1.5346 -2.5093
 7688TIP3   OH223027   6.931   6.071   3.956 -0.2674 -0.4680  0.3831
 7688TIP3    H123028   6.964   6.003   4.014 -0.2922 -0.7699  0.0418
 7688TIP3    H223029   6.968   6.152   3.992 -1.7683 -0.4104  1.9397
 7689TIP3   OH223030   6.723   4.939   2.255  0.3744 -0.1932  0.0786
 7689TIP3    H123031   6.759   5.014   2.301  2.8506  0.3774 -2.4826
 7689TIP3    H223032   6.683   4.977   2.176 -1.3802 -1.3304  0.3619
 7690TIP3   OH223033   6.354   5.056   5.723 -0.2833 -1.0537 -0.0691
 7690TIP3    H123034   6.430   5.114   5.718 -0.7596 -0.4800 -0.8470
 7690TIP3    H223035   6.391   4.969   5.736  0.5985 -1.0064 -1.9537
 7691TIP3   OH223036   1.469   4.342   5.786 -0.2909  0.0962  0.2343
 7691TIP3    H123037   1.395   4.320   5.843  0.6448 -1.3230  0.9599
 7691TIP3    H223038   1.448   4.299   5.703  0.4016 -1.6203  0.9129
 7692TIP3   OH223039   5.204   3.787   4.221 -0.0392  0.6781 -0.1044
 7692TIP3    H123040   5.276   3.731   4.193 -1.2569 -0.2349 -1.5403
 7692TIP3    H223041   5.156   3.735   4.285 -0.5258  0.4987 -0.6046
 7693TIP3   OH223042   5.458   5.364   2.483  0.4898  0.5039  0.1751
 7693TIP3    H123043   5.493   5.410   2.559  0.3091  0.7548  0.1074
 7693TIP3    H223044   5.453   5.431   2.414 -0.5006  0.5758  0.3015
 7694TIP3   OH223045   1.443   3.808   2.392 -0.0583 -0.3179 -0.0116
 7694TIP3    H123046   1.521   3.795   2.446  0.6165 -0.5208 -1.0175
 7694TIP3    H223047   1.418   3.899   2.408 -1.1536 -0.9488  2.2873
 7695TIP3   OH223048   6.566   2.543   3.027 -0.0414  1.0881  0.1492
 7695TIP3    H123049   6.574   2.458   2.984  0.5361  1.8456 -1.3131
 7695TIP3    H223050   6.609   2.532   3.111 -0.0074 -0.0755 -0.0079
 7696TIP3   OH223051   1.110   3.972   3.548 -0.5833  0.3137  0.2267
 7696TIP3    H123052   1.114   3.939   3.459  1.4837  0.6554  0.1496
 7696TIP3    H223053   1.024   4.013   3.555 -1.5828 -1.4725 -0.9400
 7697TIP3   OH223054   0.124   2.714   4.915  0.1602 -0.0090  0.2381
 7697TIP3    H123055   0.121   2.625   4.953  0.7776  0.0947  0.5367
 7697TIP3    H223056   0.099   2.771   4.988 -2.8655 -0.0979 -0.6079
 7698TIP3   OH223057   1.007   2.209   4.748  0.2573  0.2140  0.0008
 7698TIP3    H123058   1.057   2.228   4.669  0.3303 -2.1887 -0.6127
 7698TIP3    H223059   1.070   2.221   4.819  0.5821  1.0142 -0.4071
 7699TIP3   OH223060   4.283   6.006   4.853 -0.3691  0.6038  0.1921
 7699TIP3    H123061   4.307   5.980   4.942 -0.2480  1.1138  0.3129
 7699TIP3    H223062   4.311   5.933   4.799  1.7005  1.2572  0.3026
 7700TIP3   OH223063   6.261   1.019   4.838 -0.6994  0.0553 -0.5357
 7700TIP3    H123064   6.320   0.981   4.773  0.6763  1.1590  0.0227
 7700TIP3    H223065   6.265   1.113   4.824  1.0965  0.5251  2.2208
 7701TIP3   OH223066   1.798   5.340   2.936 -0.3246  0.3896  0.1410
 7701TIP3    H123067   1.753   5.390   2.868  1.1207  0.5987 -0.7064
 7701TIP3    H223068   1.786   5.249   2.911 -1.5495  0.3460  0.7802
 7702TIP3   OH223069   5.607   1.717   0.671  0.0746  0.2284 -0.4584
 7702TIP3    H123070   5.521   1.747   0.698  0.2625  0.4020 -0.0464
 7702TIP3    H223071   5.628   1.646   0.731  0.1324  0.0441 -0.6923
 7703TIP3   OH223072   4.381   4.224   1.411  0.0852 -0.0670 -0.0291
 7703TIP3    H123073   4.292   4.254   1.429  0.6383  1.1924  0.7347
 7703TIP3    H223074   4.376   4.185   1.324 -0.9974  0.9133 -0.4281
 7704TIP3   OH223075   0.583   2.915   4.550 -0.0961 -0.3333  0.2109
 7704TIP3    H123076   0.575   2.834   4.499  0.8471 -1.5242  1.8469
 7704TIP3    H223077   0.498   2.924   4.594 -0.5992  0.2142 -0.8410
 7705TIP3   OH223078   1.298   3.748   3.664  0.4991 -0.3301  0.3490
 7705TIP3    H123079   1.334   3.753   3.752 -1.6902 -1.8709  1.4189
 7705TIP3    H223080   1.212   3.789   3.671  0.1487 -0.7729 -0.9931
 7706TIP3   OH223081   3.766   6.556   4.511 -0.3278 -0.8709 -0.1028
 7706TIP3    H123082   3.861   6.568   4.508 -0.2727 -0.5648  1.7808
 7706TIP3    H223083   3.748   6.493   4.442  1.0281  0.2346 -1.5637
 7707TIP3   OH223084   4.550   0.692   3.214  0.1060  0.2340 -0.2252
 7707TIP3    H123085   4.527   0.771   3.165 -0.8665  0.0805 -0.0523
 7707TIP3    H223086   4.498   0.698   3.294  0.1770 -0.4720 -0.1204
 7708TIP3   OH223087   2.870   5.367   4.729 -0.1975  0.2366 -0.3237
 7708TIP3    H123088   2.888   5.273   4.730 -1.9120 -0.1378 -0.8511
 7708TIP3    H223089   2.804   5.379   4.797 -0.3724  0.9779 -0.6199
 7709TIP3   OH223090   0.743   0.056   5.826  0.5328  0.6807  0.2745
 7709TIP3    H123091   0.755  -0.022   5.880 -0.5042 -0.7294 -1.4313
 7709TIP3    H223092   0.757   0.129   5.887 -1.7650 -0.7550  2.7978
 7710TIP3   OH223093   4.871   1.107   1.333  0.0408  0.1256  0.1177
 7710TIP3    H123094   4.849   1.105   1.240  0.1574 -1.8999  0.0944
 7710TIP3    H223095   4.957   1.149   1.336 -0.1642  0.6248 -0.6203
 7711TIP3   OH223096   3.226   1.091   1.388  0.7727 -0.7802 -0.1613
 7711TIP3    H123097   3.167   1.026   1.426 -1.8104 -1.2847 -4.4062
 7711TIP3    H223098   3.286   1.040   1.333  1.6157  0.1667 -0.1589
 7712TIP3   OH223099   4.993   3.749   4.507 -0.2581  0.1039  0.3809
 7712TIP3    H123100   5.002   3.675   4.447  0.8013  1.0400 -0.6662
 7712TIP3    H223101   5.083   3.776   4.526 -0.6098  2.0840 -0.5288
 7713TIP3   OH223102   2.124   0.721   3.604 -0.3453 -0.3709 -0.8364
 7713TIP3    H123103   2.218   0.737   3.613 -0.6404  1.4665 -0.4398
 7713TIP3    H223104   2.105   0.654   3.669  0.7730 -1.2122 -1.3329
 7714TIP3   OH223105   5.262   3.098   1.669 -0.3005 -0.2671 -0.9079
 7714TIP3    H123106   5.266   3.186   1.708 -0.8060 -0.1300 -1.1608
 7714TIP3    H223107   5.238   3.041   1.742 -0.6310 -0.0966 -0.8778
 7715TIP3   OH223108   2.712   5.986   2.762 -0.0156  0.1121  0.7520
 7715TIP3    H123109   2.769   6.052   2.801  0.0192 -0.1313  1.1235
 7715TIP3    H223110   2.661   5.951   2.836 -1.5271  1.1802  0.2656
 7716TIP3   OH223111   2.188   3.447   0.092  0.2939 -0.0739  0.3956
 7716TIP3    H123112   2.187   3.425   0.185 -3.0257 -0.5779  0.3711
 7716TIP3    H223113   2.175   3.541   0.089 -0.1049 -0.1271  0.4432
 7717TIP3   OH223114   3.296   4.675   3.905 -0.3349 -0.2204 -0.4677
 7717TIP3    H123115   3.264   4.677   3.995 -0.0716  0.6207 -0.3775
 7717TIP3    H223116   3.381   4.720   3.909  0.3870 -1.5082 -0.8791
 7718TIP3   OH223117   6.204   6.089   2.574 -0.1997 -0.0422  0.0127
 7718TIP3    H123118   6.157   6.164   2.537 -1.9905 -0.0717  2.0405
 7718TIP3    H223119   6.165   6.013   2.532 -1.0173  0.0102  0.6526
 7719TIP3   OH223120   5.039   3.311   5.772  0.2098  0.2271  0.4411
 7719TIP3    H123121   5.032   3.376   5.841 -3.1328  1.5163 -0.8879
 7719TIP3    H223122   5.110   3.342   5.716  0.3590  1.3035  1.2000
 7720TIP3   OH223123   1.338   6.374   4.628 -0.2200 -0.2281  0.3963
 7720TIP3    H123124   1.345   6.304   4.693 -1.5761 -0.5103  0.2634
 7720TIP3    H223125   1.375   6.451   4.672  1.4191 -1.0413  0.4921
 7721TIP3   OH223126   2.802   4.655   4.025 -0.2883  0.0743  0.3744
 7721TIP3    H123127   2.848   4.738   4.014 -0.3972  0.2284  1.0680
 7721TIP3    H223128   2.725   4.676   4.077 -0.6049 -0.3682  0.0937
 7722TIP3   OH223129   0.390   0.978   4.235 -0.3991  0.1059 -0.3286
 7722TIP3    H123130   0.332   0.926   4.291 -0.1798 -0.2246 -0.3984
 7722TIP3    H223131   0.474   0.978   4.282  0.3032 -1.6787 -1.4722
 7723TIP3   OH223132   4.342   5.881   5.092 -0.3506  0.1565  0.3961
 7723TIP3    H123133   4.417   5.888   5.150 -0.5468  0.3347  0.6310
 7723TIP3    H223134   4.337   5.788   5.071  1.3269  0.4316 -1.4948
 7724TIP3   OH223135   5.094   2.869   1.246  0.0820 -0.0701  1.0462
 7724TIP3    H123136   5.144   2.850   1.167  0.2916  0.6723  0.9967
 7724TIP3    H223137   5.159   2.868   1.316 -0.1127 -0.7896  1.2306
 7725TIP3   OH223138   0.327   4.138   5.817  0.1139 -0.4705  0.1812
 7725TIP3    H123139   0.328   4.230   5.788 -0.7793 -0.6832 -0.5914
 7725TIP3    H223140   0.267   4.138   5.892 -1.9645 -0.8127 -1.3871
 7726TIP3   OH223141   2.092   0.921   0.960  0.4340  0.1085 -0.7898
 7726TIP3    H123142   2.080   1.014   0.943 -0.7570  0.0553 -0.3284
 7726TIP3    H223143   2.172   0.916   1.011  0.2567  0.9370 -0.4043
 7727TIP3   OH223144   5.262   1.671   5.199  0.3464 -0.3540  0.2261
 7727TIP3    H123145   5.181   1.623   5.218  0.3704 -0.3725  0.2787
 7727TIP3    H223146   5.244   1.717   5.117  0.6514 -1.2126 -0.3311
 7728TIP3   OH223147   7.145   0.477   5.216 -0.6046 -0.2433 -0.0555
 7728TIP3    H123148   7.178   0.450   5.130 -0.1041  0.9707 -0.2654
 7728TIP3    H223149   7.063   0.522   5.197 -0.5191 -0.0193  0.1083
 7729TIP3   OH223150   0.748   0.548   0.768 -0.1954  0.1182 -0.1728
 7729TIP3    H123151   0.812   0.619   0.758 -0.2408  0.2121  0.1806
 7729TIP3    H223152   0.750   0.502   0.684  0.9456 -0.3777  0.0981
 7730TIP3   OH223153   1.609   3.012   4.883 -0.2007  0.1993  0.8567
 7730TIP3    H123154   1.616   3.053   4.797  1.4967  0.5080  1.1245
 7730TIP3    H223155   1.519   3.030   4.910 -0.5443  0.7139 -0.5361
 7731TIP3   OH223156   6.281   1.897   3.845 -0.4263  0.3339  0.9394
 7731TIP3    H123157   6.202   1.937   3.809 -0.3270 -0.5899 -0.4187
 7731TIP3    H223158   6.353   1.938   3.796 -0.0293  1.3287  2.3187
 7732TIP3   OH223159   7.100   5.241   3.900 -0.7554 -0.4183 -0.0356
 7732TIP3    H123160   7.017   5.194   3.889 -0.1344 -1.5301  0.0007
 7732TIP3    H223161   7.106   5.297   3.823 -1.1917 -0.8763 -0.4084
 7733TIP3   OH223162   3.804   2.551   1.538 -0.0444 -0.1884 -0.2170
 7733TIP3    H123163   3.774   2.541   1.628 -0.0091  0.5176 -0.1206
 7733TIP3    H223164   3.796   2.645   1.520  0.4946 -0.2380 -0.7526
 7734TIP3   OH223165   5.066   5.222   4.608  0.2616  0.1841  0.0173
 7734TIP3    H123166   5.152   5.193   4.578  0.9480  3.3091 -1.5324
 7734TIP3    H223167   5.076   5.232   4.703  1.3984 -0.1737 -0.0524
 7735TIP3   OH223168   1.064   4.571   0.356  0.2592 -0.1332 -0.0649
 7735TIP3    H123169   1.071   4.476   0.359 -1.0775 -0.2885 -0.9841
 7735TIP3    H223170   0.974   4.588   0.330  0.1972  1.4149  1.0057
 7736TIP3   OH223171   2.039   6.335   5.340  0.1573 -0.3984 -0.0518
 7736TIP3    H123172   1.976   6.266   5.362 -0.6640  0.0864 -0.8069
 7736TIP3    H223173   2.058   6.320   5.247  0.3178  0.1274 -0.1062
 7737TIP3   OH223174   4.976   2.398   0.773 -0.5023 -0.0497  0.3696
 7737TIP3    H123175   5.064   2.401   0.734 -1.2445 -0.3609 -1.4374
 7737TIP3    H223176   4.990   2.422   0.865  1.5063 -0.4046  0.2119
 7738TIP3   OH223177   4.789   4.727   5.750 -0.1963  0.3331 -0.0594
 7738TIP3    H123178   4.750   4.698   5.668 -0.6791  0.7663  0.0080
 7738TIP3    H223179   4.804   4.821   5.737  1.8493 -0.0063 -0.4791
 7739TIP3   OH223180   7.028   2.236   1.938  0.2274  0.0196 -0.3131
 7739TIP3    H123181   7.056   2.274   1.855 -0.8587 -0.5007 -0.9419
 7739TIP3    H223182   7.029   2.309   2.000  0.6212  0.5042 -0.8789
 7740TIP3   OH223183   5.554   0.877   4.087 -0.0263 -0.0603  0.1352
 7740TIP3    H123184   5.570   0.896   3.995  1.8573  0.7231  0.5935
 7740TIP3    H223185   5.557   0.962   4.130  0.5112 -0.5621  1.1120
 7741TIP3   OH223186   4.917   5.228   5.279 -0.5697 -0.4322 -0.3854
 7741TIP3    H123187   4.847   5.208   5.217  0.5026 -1.1428 -1.4201
 7741TIP3    H223188   4.993   5.179   5.246  0.4086  0.2892  0.7054
 7742TIP3   OH223189   6.463   5.364   4.030  0.2470 -0.4101  0.3170
 7742TIP3    H123190   6.456   5.459   4.031 -0.1841 -0.4387  0.2000
 7742TIP3    H223191   6.486   5.340   4.120 -1.1105 -0.3024  0.7043
 7743TIP3   OH223192   4.823   5.511   3.415 -0.2015  0.3758  0.0091
 7743TIP3    H123193   4.843   5.600   3.446 -2.4566  1.5122 -1.5627
 7743TIP3    H223194   4.900   5.459   3.441  0.0190  2.1273  3.4118
 7744TIP3   OH223195   2.155   3.406   4.311  0.5737 -0.3996  0.2919
 7744TIP3    H123196   2.157   3.431   4.218  1.1859 -3.1505 -0.5358
 7744TIP3    H223197   2.069   3.434   4.341 -0.3705 -1.0222 -1.6272
 7745TIP3   OH223198   3.013   4.033   5.680 -0.4200  0.5949 -0.6098
 7745TIP3    H123199   3.023   3.956   5.625 -2.4071  0.6866 -1.1748
 7745TIP3    H223200   3.035   4.106   5.622  0.8685  0.5227 -0.2467
 7746TIP3   OH223201   3.940   1.470   2.078  1.1450 -0.0155  0.3772
 7746TIP3    H123202   3.974   1.461   2.167  0.2786  3.5419  1.2394
 7746TIP3    H223203   3.845   1.477   2.089  0.7854 -1.8819 -1.1290
 7747TIP3   OH223204   0.744   0.649   2.265 -0.2892 -0.3030  0.2108
 7747TIP3    H123205   0.685   0.659   2.340  0.4407  1.2580  0.6204
 7747TIP3    H223206   0.729   0.727   2.213  1.8614  0.4661  0.6640
 7748TIP3   OH223207   4.998   1.243   5.185 -0.6216  0.0934 -0.5687
 7748TIP3    H123208   4.991   1.233   5.280 -1.8031  1.3441 -0.4827
 7748TIP3    H223209   4.921   1.199   5.150 -1.3002  1.4061 -0.7764
 7749TIP3   OH223210   7.217   2.391   2.179 -0.3672 -0.1288 -0.7810
 7749TIP3    H123211   7.200   2.302   2.211 -0.6311  0.3993  0.6295
 7749TIP3    H223212   7.139   2.412   2.126 -1.2546 -0.0305  0.5100
 7750TIP3   OH223213   6.443   4.598   3.436  0.4792  0.0070  0.2996
 7750TIP3    H123214   6.480   4.540   3.369 -0.3790 -0.5136  0.2487
 7750TIP3    H223215   6.362   4.554   3.463 -0.1600  1.1350  0.3182
 7751TIP3   OH223216   2.603   1.137   3.963  0.1458  0.4466  0.4095
 7751TIP3    H123217   2.525   1.163   3.915  0.6372  0.3143 -0.5045
 7751TIP3    H223218   2.667   1.206   3.944  0.9593 -0.5669 -0.7425
 7752TIP3   OH223219   2.370   0.682   2.181 -0.2754 -0.7407  0.2207
 7752TIP3    H123220   2.290   0.646   2.219 -0.0019 -0.6525  0.8874
 7752TIP3    H223221   2.368   0.775   2.205  0.7404 -1.0304  1.4859
 7753TIP3   OH223222   2.642   0.000   2.338  0.8927  0.3244 -0.4099
 7753TIP3    H123223   2.592   0.070   2.380  0.9299  0.0091  0.1619
 7753TIP3    H223224   2.643   0.024   2.245 -1.2889 -0.2575 -0.6256
 7754TIP3   OH223225   0.091   0.055   1.088 -0.4854 -0.2806 -0.5304
 7754TIP3    H123226   0.122   0.054   1.178 -2.0588 -1.2180  0.0357
 7754TIP3    H223227   0.170   0.040   1.035  0.3419 -0.4265  0.7129
 7755TIP3   OH223228   2.068   1.930   1.842  0.3749  0.3747  0.1749
 7755TIP3    H123229   2.098   1.997   1.781  0.0195  1.3407  1.0312
 7755TIP3    H223230   1.988   1.895   1.803  0.3703  0.6911 -0.1040
 7756TIP3   OH223231   7.065   3.286   5.807 -0.3305  0.4446  0.1948
 7756TIP3    H123232   7.012   3.237   5.744 -0.4797  1.3851 -0.4430
 7756TIP3    H223233   7.140   3.316   5.756  0.4640 -0.2865  0.9218
 7757TIP3   OH223234   4.026   0.798   4.525  0.1200  0.0098  0.7376
 7757TIP3    H123235   4.086   0.868   4.501 -1.4915  1.3359  0.4398
 7757TIP3    H223236   3.946   0.842   4.553 -0.8134 -1.6931  0.9348
 7758TIP3   OH223237   1.806   5.410   3.218  0.2276 -0.2181 -0.4912
 7758TIP3    H123238   1.884   5.387   3.267  1.6374  1.4389 -1.8305
 7758TIP3    H223239   1.829   5.394   3.126 -1.8270 -1.8610 -0.8026
 7759TIP3   OH223240   3.700   5.039   2.230 -0.7602  0.1357  0.1301
 7759TIP3    H123241   3.682   5.098   2.156 -0.9642 -0.6197 -0.4387
 7759TIP3    H223242   3.795   5.041   2.240 -0.7904  0.8574  0.3767
 7760TIP3   OH223243   0.997   1.893   3.098 -0.3359 -0.3601 -0.1174
 7760TIP3    H123244   1.054   1.907   3.023 -0.0627 -0.6348  0.0350
 7760TIP3    H223245   0.997   1.977   3.144 -0.4101 -0.2269 -0.3588
 7761TIP3   OH223246   4.585   0.383   2.154  0.5365  0.5337 -0.2215
 7761TIP3    H123247   4.580   0.289   2.174 -0.3204  0.4596 -0.7327
 7761TIP3    H223248   4.663   0.391   2.098  0.0074 -0.0537 -1.0751
 7762TIP3   OH223249   1.021   6.646   2.876 -0.7833  0.3607 -0.3814
 7762TIP3    H123250   1.049   6.563   2.913 -0.2990  0.6235 -0.1538
 7762TIP3    H223251   1.077   6.712   2.917 -0.9624  0.7694 -0.7744
 7763TIP3   OH223252   4.386   1.793   4.229  0.6781  0.1998 -0.1808
 7763TIP3    H123253   4.300   1.806   4.189  0.3464 -0.7806  0.1884
 7763TIP3    H223254   4.368   1.741   4.307  1.6158 -0.0477 -0.1240
 7764TIP3   OH223255   6.060   2.444   1.505  0.1161  0.5869  0.6034
 7764TIP3    H123256   6.021   2.432   1.592  2.1065  0.7920  1.5770
 7764TIP3    H223257   6.154   2.446   1.521  0.5023  1.4314 -1.4865
 7765TIP3   OH223258   2.039   0.621   5.130 -0.2677  0.0925 -0.2808
 7765TIP3    H123259   2.131   0.624   5.158 -0.4613 -1.7743  0.7244
 7765TIP3    H223260   1.994   0.685   5.185 -0.1143 -1.3867  1.6566
 7766TIP3   OH223261   3.859   3.253   0.962  0.1380  0.1328 -0.1414
 7766TIP3    H123262   3.887   3.244   0.871 -0.7911 -1.5091 -0.3041
 7766TIP3    H223263   3.897   3.336   0.990  2.3820 -0.4107 -1.3117
 7767TIP3   OH223264   2.202   2.146   1.671  0.1860  0.1791 -0.0579
 7767TIP3    H123265   2.204   2.208   1.744  0.1844 -1.0974  1.0641
 7767TIP3    H223266   2.293   2.140   1.642  0.2034  0.6252 -0.0997
 7768TIP3   OH223267   5.470   5.275   5.451  0.1863  0.2384 -0.0625
 7768TIP3    H123268   5.476   5.279   5.547  0.0767 -0.0378 -0.0440
 7768TIP3    H223269   5.483   5.365   5.423  1.5496  0.1374  0.1432
 7769TIP3   OH223270   5.062   0.514   3.771  0.0451  0.3320  0.9786
 7769TIP3    H123271   5.035   0.603   3.794 -0.6066  0.2171  0.6617
 7769TIP3    H223272   5.057   0.511   3.676  3.1878  0.9527  0.6724
 7770TIP3   OH223273   4.620   2.310   1.876 -0.0902 -0.0779  0.4236
 7770TIP3    H123274   4.666   2.243   1.926  1.5826  0.8774  0.2333
 7770TIP3    H223275   4.674   2.388   1.884 -1.6705  1.1169  0.1286
 7771TIP3   OH223276   4.431   1.812   0.679  0.1011 -0.0943 -0.3186
 7771TIP3    H123277   4.493   1.860   0.624 -1.3598  1.5956 -0.6134
 7771TIP3    H223278   4.428   1.724   0.641  1.0170  0.2967 -1.3467
 7772TIP3   OH223279   2.341   3.265   1.779  0.2652  0.4302  0.4759
 7772TIP3    H123280   2.365   3.340   1.833 -2.0946  0.9834  0.8658
 7772TIP3    H223281   2.263   3.229   1.821  1.7406 -2.8040  0.7849
 7773TIP3   OH223282   6.259   6.020   4.406 -0.4275  0.2439 -0.0325
 7773TIP3    H123283   6.204   6.097   4.416 -1.2543  0.1610 -2.9175
 7773TIP3    H223284   6.197   5.949   4.385  0.6052 -0.2017 -1.7447
 7774TIP3   OH223285   5.152   0.344   3.979  0.2656  0.5169 -0.1653
 7774TIP3    H123286   5.135   0.262   3.933 -0.8143  1.0056 -0.6780
 7774TIP3    H223287   5.131   0.412   3.915  0.9799  1.2036  0.3080
 7775TIP3   OH223288   5.425   3.336   4.688 -0.0561  0.5782 -0.0943
 7775TIP3    H123289   5.410   3.297   4.602  0.8114  1.0607 -0.4833
 7775TIP3    H223290   5.338   3.341   4.727 -0.3480 -0.4946 -0.5628
 7776TIP3   OH223291   2.147   0.997   2.454 -0.0464 -0.3485  0.4285
 7776TIP3    H123292   2.075   0.948   2.415  0.0469 -0.5805  0.5458
 7776TIP3    H223293   2.168   0.950   2.535  0.2636 -0.3098  0.3735
 7777TIP3   OH223294   2.941   4.514   4.352 -0.8143 -0.8839 -0.0507
 7777TIP3    H123295   2.929   4.543   4.442  1.5803  0.9005 -0.2258
 7777TIP3    H223296   2.852   4.509   4.317 -1.7059 -0.2325  1.9742
 7778TIP3   OH223297   3.135   3.824   1.168  0.4353 -0.4077 -0.4097
 7778TIP3    H123298   3.080   3.881   1.114  0.8756 -2.0037 -2.6708
 7778TIP3    H223299   3.094   3.825   1.254 -1.4047  0.7638 -1.2501
 7779TIP3   OH223300   1.983   2.737   3.915  0.4507  0.2634 -0.3359
 7779TIP3    H123301   1.942   2.651   3.905  0.6755  0.1358 -0.1658
 7779TIP3    H223302   1.910   2.799   3.918  0.2789  0.0522 -0.1782
 7780TIP3   OH223303   3.791   2.137   2.185  0.4609 -0.6867  0.1666
 7780TIP3    H123304   3.850   2.212   2.175  0.3479 -0.6196 -0.0011
 7780TIP3    H223305   3.705   2.177   2.203  0.3353 -0.7658 -0.2406
 7781TIP3   OH223306   2.876   2.712   1.723 -0.1301 -0.3359  0.1742
 7781TIP3    H123307   2.958   2.665   1.711  0.1055  0.0157  0.3815
 7781TIP3    H223308   2.825   2.658   1.783 -0.0353 -0.5377  0.0719
 7782TIP3   OH223309   1.726   2.328   0.334 -0.3259 -0.2143 -0.4416
 7782TIP3    H123310   1.633   2.349   0.330 -0.3036  0.5229  1.7174
 7782TIP3    H223311   1.765   2.377   0.262 -1.3646  0.9765 -0.2324
 7783TIP3   OH223312   3.126   4.159   1.592  0.6321 -0.4266  0.0276
 7783TIP3    H123313   3.134   4.135   1.684  1.4964 -1.2234 -0.2372
 7783TIP3    H223314   3.033   4.145   1.572 -0.1178  1.9836  1.3362
 7784TIP3   OH223315   7.098   6.781   4.877 -0.8404  0.6005  0.1568
 7784TIP3    H123316   7.047   6.794   4.957  1.4911 -0.0643  1.8627
 7784TIP3    H223317   7.176   6.733   4.906 -0.0627  0.0336 -2.5970
 7785TIP3   OH223318   2.084   2.639   0.468 -0.0405  0.5579  0.3167
 7785TIP3    H123319   2.122   2.726   0.478 -0.4884  0.5740  2.5894
 7785TIP3    H223320   2.072   2.608   0.558  1.4706 -2.4855 -0.4127
 7786TIP3   OH223321   1.186   2.867   3.869 -0.5661  0.1360  0.0727
 7786TIP3    H123322   1.253   2.935   3.862 -1.0135  0.4913 -1.0207
 7786TIP3    H223323   1.234   2.787   3.889  0.1852  0.3881 -0.7026
 7787TIP3   OH223324   0.231   4.400   1.498 -0.0339 -0.0308 -0.3477
 7787TIP3    H123325   0.219   4.306   1.488 -0.5389  0.0206 -0.2250
 7787TIP3    H223326   0.156   4.440   1.454  0.8609  0.3667 -1.5675
 7788TIP3   OH223327   3.842   5.418   5.274 -0.2271 -0.2197  0.2811
 7788TIP3    H123328   3.852   5.455   5.187 -0.7332  1.1499  0.7847
 7788TIP3    H223329   3.891   5.336   5.271  1.2413  0.6573 -0.7590
 7789TIP3   OH223330   5.516   3.365   0.161  0.1063 -0.3355 -0.0963
 7789TIP3    H123331   5.582   3.342   0.096  1.5748  0.6765  0.9760
 7789TIP3    H223332   5.543   3.318   0.240 -1.6956 -1.6208 -0.1885
 7790TIP3   OH223333   0.934   2.895   0.299  0.2581 -0.1580  0.0444
 7790TIP3    H123334   0.910   2.970   0.353 -0.4214 -1.0266  0.9721
 7790TIP3    H223335   0.926   2.819   0.357 -0.3033 -1.0945 -1.2122
 7791TIP3   OH223336   1.570   4.005   5.702  0.0610 -0.2632 -0.0185
 7791TIP3    H123337   1.530   4.009   5.789  0.1185  1.1545 -0.0379
 7791TIP3    H223338   1.660   3.978   5.718  0.2076  0.4643  0.4230
 7792TIP3   OH223339   5.888   4.947   2.076  0.3318 -0.0455 -0.9448
 7792TIP3    H123340   5.933   4.950   2.161  1.6749 -1.2962 -1.5854
 7792TIP3    H223341   5.889   5.037   2.046 -2.1837  0.9026  1.3324
 7793TIP3   OH223342   7.080   3.561   2.718  0.0393  0.3126  0.0247
 7793TIP3    H123343   7.071   3.527   2.807  2.5131 -0.4267  0.0528
 7793TIP3    H223344   7.173   3.550   2.697 -0.3112  1.2913 -2.3329
 7794TIP3   OH223345   5.738   6.368   1.976  0.0634  0.0228  0.0657
 7794TIP3    H123346   5.775   6.325   2.054  1.1464  1.1933  0.2404
 7794TIP3    H223347   5.668   6.309   1.947  1.3147 -1.7303  0.4199
 7795TIP3   OH223348   7.031   0.518   0.534  0.4469  0.5540 -0.0122
 7795TIP3    H123349   6.968   0.472   0.479  0.7301 -0.0978  0.2049
 7795TIP3    H223350   7.038   0.605   0.494 -0.3976  0.5514 -0.1836
 7796TIP3   OH223351   6.729   5.674   0.075  0.4065  0.0494  0.4718
 7796TIP3    H123352   6.815   5.715   0.072  1.0082 -1.1865 -0.7798
 7796TIP3    H223353   6.748   5.580   0.072 -0.9752 -0.2572  0.7240
 7797TIP3   OH223354   0.883   0.338   3.468  0.0925 -1.0623  0.1206
 7797TIP3    H123355   0.912   0.308   3.554  0.0940  0.6888  0.7700
 7797TIP3    H223356   0.946   0.406   3.444 -0.8274 -0.4196 -0.5424
 7798TIP3   OH223357   5.776   0.557   5.870 -0.1603  0.0638 -0.2381
 7798TIP3    H123358   5.839   0.499   5.828 -0.7038  0.0983 -1.1078
 7798TIP3    H223359   5.795   0.643   5.833 -0.5757  0.1135 -0.3310
 7799TIP3   OH223360   2.663   5.070   2.121  0.1226 -0.2192 -0.1634
 7799TIP3    H123361   2.710   4.992   2.092 -0.8955 -0.8067 -0.2548
 7799TIP3    H223362   2.642   5.053   2.212 -0.6356 -0.3244 -0.3506
 7800TIP3   OH223363   1.441   2.230   0.421 -0.3948 -0.1575  0.0495
 7800TIP3    H123364   1.463   2.172   0.348 -0.2941 -0.8735  0.6325
 7800TIP3    H223365   1.347   2.221   0.432 -0.4508  0.1578 -0.1613
 7801TIP3   OH223366   3.973   4.120   2.430 -0.3385 -0.4708  0.3088
 7801TIP3    H123367   4.018   4.037   2.417 -1.4851 -0.7913 -2.0592
 7801TIP3    H223368   4.036   4.186   2.399 -0.4673 -0.6917 -0.4337
 7802TIP3   OH223369   0.896   2.910   2.027  0.1569  0.0611 -0.1360
 7802TIP3    H123370   0.964   2.969   2.059  0.2577 -0.2772  0.2741
 7802TIP3    H223371   0.944   2.830   2.003 -0.2102 -0.5641  1.1244
 7803TIP3   OH223372   1.018   0.688   0.776 -0.8867 -0.4680 -0.1041
 7803TIP3    H123373   1.097   0.738   0.795 -0.8281 -0.7864  0.5157
 7803TIP3    H223374   1.049   0.614   0.723 -0.8138 -0.4326 -0.1114
 7804TIP3   OH223375   6.765   1.060   0.651  0.2338  0.2427 -0.3215
 7804TIP3    H123376   6.698   1.029   0.590 -0.2545  0.6689 -0.0185
 7804TIP3    H223377   6.824   0.986   0.663 -0.2966 -0.2058 -0.4450
 7805TIP3   OH223378   1.959   5.254   2.193 -0.3431 -0.1950 -0.1740
 7805TIP3    H123379   2.012   5.183   2.229 -0.4472  0.4339  1.3245
 7805TIP3    H223380   2.007   5.333   2.215 -0.3498  0.2346 -1.6173
 7806TIP3   OH223381   5.336   4.036   0.371 -0.2609  0.5873  0.1382
 7806TIP3    H123382   5.407   3.973   0.384 -0.1162  0.7817  0.2895
 7806TIP3    H223383   5.370   4.097   0.305 -0.4166  0.4849 -0.0376
 7807TIP3   OH223384   2.515   1.516   3.186 -0.4256  0.0625 -0.2031
 7807TIP3    H123385   2.464   1.465   3.123  0.0830 -0.8180  0.0665
 7807TIP3    H223386   2.506   1.606   3.157 -0.7576 -0.2546 -1.1405
 7808TIP3   OH223387   3.616   1.666   1.000 -0.4486  0.3102 -0.1389
 7808TIP3    H123388   3.620   1.673   1.095 -0.3297 -2.3787  0.1174
 7808TIP3    H223389   3.675   1.735   0.969  0.1639  0.7035  1.7454
 7809TIP3   OH223390   4.993   6.373   3.074  0.4297 -0.3607  0.0539
 7809TIP3    H123391   4.903   6.392   3.102  0.5504 -0.5079  0.5493
 7809TIP3    H223392   5.024   6.309   3.138  1.4015  0.8005  0.7701
 7810TIP3   OH223393   4.798   1.395   5.698  0.4474 -0.6757 -0.7896
 7810TIP3    H123394   4.830   1.390   5.788 -1.2931  1.3753  0.0374
 7810TIP3    H223395   4.755   1.311   5.683  0.7256 -1.0265  0.2997
 7811TIP3   OH223396   1.394   4.085   4.145  0.5527 -0.3748 -0.3075
 7811TIP3    H123397   1.314   4.081   4.093  1.0239 -0.8921 -1.0147
 7811TIP3    H223398   1.421   4.177   4.142 -0.4819 -0.0087  0.6887
 7812TIP3   OH223399   0.295   4.543   2.238  0.2015 -0.0177  0.4133
 7812TIP3    H123400   0.227   4.500   2.186 -0.3973 -0.1192  1.2725
 7812TIP3    H223401   0.262   4.542   2.327  2.1804 -1.8746  1.2235
 7813TIP3   OH223402   6.227   0.835   3.849 -0.4896 -0.3989  0.0849
 7813TIP3    H123403   6.297   0.900   3.841 -0.0682 -0.9592 -0.9127
 7813TIP3    H223404   6.176   0.844   3.769 -0.2217 -1.5250 -0.2337
 7814TIP3   OH223405   5.660   5.525   1.039 -0.0360  0.6616  0.1472
 7814TIP3    H123406   5.605   5.451   1.014  0.2785  0.1114  1.0228
 7814TIP3    H223407   5.691   5.561   0.957 -0.5084  0.0603 -0.3073
 7815TIP3   OH223408   3.868   3.286   3.578  0.3748  0.0343  0.0565
 7815TIP3    H123409   3.872   3.344   3.654  0.4229  1.3971 -0.9433
 7815TIP3    H223410   3.829   3.205   3.611 -2.9775  1.7762  0.8456
 7816TIP3   OH223411   5.508   3.871   5.678  0.2052 -0.2435 -0.7227
 7816TIP3    H123412   5.591   3.875   5.631  0.0929 -0.3289 -0.9300
 7816TIP3    H223413   5.487   3.962   5.697 -0.1984 -0.1394 -1.6347
 7817TIP3   OH223414   1.681   1.990   3.277 -0.1058 -0.2308  0.3937
 7817TIP3    H123415   1.621   1.943   3.335  1.5765  1.3566  3.7281
 7817TIP3    H223416   1.765   1.989   3.324  1.3078  1.5208 -1.9003
 7818TIP3   OH223417   5.654   3.458   3.927 -0.1115  1.1130  0.7731
 7818TIP3    H123418   5.656   3.540   3.977 -1.5543  0.7747  1.4441
 7818TIP3    H223419   5.574   3.414   3.957 -0.2205  0.1989 -0.7496
 7819TIP3   OH223420   5.284   4.519   4.629 -0.3694  0.5224  0.9345
 7819TIP3    H123421   5.192   4.492   4.640 -0.1420  0.1054  1.9790
 7819TIP3    H223422   5.309   4.553   4.715  0.7233 -0.2366  0.9343
 7820TIP3   OH223423   1.209   4.324   4.120  0.2416 -0.0177  0.1714
 7820TIP3    H123424   1.132   4.267   4.121 -1.1772  1.8349  1.5343
 7820TIP3    H223425   1.196   4.381   4.044 -0.2807  0.9762  0.9898
 7821TIP3   OH223426   4.696   5.157   1.949  0.0057  0.5295 -0.2450
 7821TIP3    H123427   4.749   5.160   1.870 -0.0470  0.7118 -0.2735
 7821TIP3    H223428   4.664   5.067   1.953  1.1507  0.1329  0.3249
 7822TIP3   OH223429   6.018   4.750   4.078  0.3513 -0.0179 -0.1458
 7822TIP3    H123430   6.072   4.674   4.096 -0.1902 -0.1865  0.8923
 7822TIP3    H223431   6.033   4.770   3.986  1.2432 -0.7811 -0.1772
 7823TIP3   OH223432   0.884   0.726   4.109 -0.1555 -0.0755  0.4354
 7823TIP3    H123433   0.823   0.784   4.064  0.3013  1.9146  2.2157
 7823TIP3    H223434   0.829   0.653   4.140 -0.7913 -0.5093 -1.5931
 7824TIP3   OH223435   1.092   6.688   0.911  0.2207  0.3310  0.0529
 7824TIP3    H123436   1.127   6.654   0.829  0.2055  0.9797 -0.2299
 7824TIP3    H223437   1.100   6.783   0.903 -1.6872  0.5248 -0.0742
 7825TIP3   OH223438   4.592   4.002   4.512  0.3480 -0.0331 -0.6662
 7825TIP3    H123439   4.576   3.929   4.572 -1.6140  1.1902  0.3622
 7825TIP3    H223440   4.674   3.978   4.468 -0.6396 -3.2823 -1.0254
 7826TIP3   OH223441   0.098   1.370   1.307  0.4692  0.5313 -0.3386
 7826TIP3    H123442   0.192   1.357   1.313  0.6383  1.5478 -0.5220
 7826TIP3    H223443   0.079   1.363   1.213  0.4633  0.8818 -0.3674
 7827TIP3   OH223444   3.691   6.065   0.260 -0.2236  0.6350 -0.6373
 7827TIP3    H123445   3.705   6.009   0.184  0.2392  1.4098 -1.1389
 7827TIP3    H223446   3.767   6.124   0.260 -0.8641  1.4786 -0.3179
 7828TIP3   OH223447   0.634   0.194   3.805 -0.2025 -0.2309 -0.3536
 7828TIP3    H123448   0.614   0.105   3.774 -2.0706  0.0337 -0.0211
 7828TIP3    H223449   0.654   0.182   3.898  1.4291 -0.5099 -0.7083
 7829TIP3   OH223450   2.680   3.484   0.892  0.3609 -0.0688  0.0728
 7829TIP3    H123451   2.655   3.419   0.957 -2.5197  1.5185  0.7221
 7829TIP3    H223452   2.698   3.433   0.813 -2.7880 -1.6885  0.2637
 7830TIP3   OH223453   0.902   0.180   1.699  0.4309  0.0024  0.3364
 7830TIP3    H123454   0.954   0.130   1.637 -0.8136  0.8332 -1.4610
 7830TIP3    H223455   0.855   0.114   1.751  0.9541 -0.7020 -0.0781
 7831TIP3   OH223456   0.295   4.200   3.144  0.1533 -0.4290  0.4231
 7831TIP3    H123457   0.365   4.261   3.121 -0.1811  0.8419  2.5000
 7831TIP3    H223458   0.262   4.168   3.060  1.5886  0.8179 -0.6640
 7832TIP3   OH223459   5.232   5.899   3.917  0.1208  0.1241 -0.5699
 7832TIP3    H123460   5.303   5.945   3.963 -0.6000  1.3040 -0.6237
 7832TIP3    H223461   5.232   5.936   3.829  0.7230 -1.3030 -1.2060
 7833TIP3   OH223462   3.655   3.059   4.954 -0.2055  0.0362  0.1218
 7833TIP3    H123463   3.600   3.053   4.876  0.4769 -0.3667 -0.3291
 7833TIP3    H223464   3.608   3.121   5.011 -0.0648  1.3442 -1.1299
 7834TIP3   OH223465   2.376   5.448   2.298  0.6032  0.6103 -0.0056
 7834TIP3    H123466   2.435   5.464   2.225  0.5538  0.2002 -0.1383
 7834TIP3    H223467   2.350   5.357   2.288  2.7142 -0.3321  2.0031
 7835TIP3   OH223468   0.252   4.159   2.281 -0.1449  0.1087  0.7878
 7835TIP3    H123469   0.212   4.093   2.225 -0.7822  0.6194  0.6188
 7835TIP3    H223470   0.345   4.156   2.260 -0.4095  0.5160 -0.5335
 7836TIP3   OH223471   1.488   4.573   3.177  0.0776  0.3298 -0.0442
 7836TIP3    H123472   1.477   4.478   3.168  0.6187  0.1409  1.0712
 7836TIP3    H223473   1.492   4.587   3.272  0.5235  1.4016 -0.2102
 7837TIP3   OH223474   3.906   3.079   3.737  0.0998  0.2040 -0.3538
 7837TIP3    H123475   3.913   3.008   3.801  2.0061  1.4764  0.9528
 7837TIP3    H223476   3.829   3.129   3.765  0.4179  0.2599  0.4417
 7838TIP3   OH223477   5.391   0.115   0.588 -0.2862  0.1770 -0.3313
 7838TIP3    H123478   5.389   0.165   0.670  0.9817 -0.2237 -0.0314
 7838TIP3    H223479   5.484   0.106   0.568 -0.5688 -0.2544 -1.4999
 7839TIP3   OH223480   1.074   6.766   3.286 -0.2782  0.1097  0.2765
 7839TIP3    H123481   1.113   6.762   3.198 -0.5878 -0.3587  0.1568
 7839TIP3    H223482   0.980   6.777   3.270 -0.8238 -3.2288  0.4367
 7840TIP3   OH223483   3.955   3.602   0.330  0.7276  0.8762 -0.2639
 7840TIP3    H123484   3.881   3.547   0.306  0.7007  0.1008  1.5300
 7840TIP3    H223485   3.930   3.690   0.299 -1.0901  0.7022  0.5661
 7841TIP3   OH223486   1.596   4.957   1.479 -0.4794 -0.0164  0.2794
 7841TIP3    H123487   1.526   4.924   1.423 -1.2887  1.4877  0.3714
 7841TIP3    H223488   1.654   4.881   1.492  0.8087 -0.0623 -4.0570
 7842TIP3   OH223489   0.994   1.596   4.686  0.3478  0.1861  0.3754
 7842TIP3    H123490   0.914   1.643   4.658  1.0892  1.7428  0.7626
 7842TIP3    H223491   1.044   1.586   4.605  0.6504  1.0109  0.4537
 7843TIP3   OH223492   5.320   2.992   2.528  0.4400 -0.2459  0.1806
 7843TIP3    H123493   5.276   3.077   2.534  1.7709  0.8376 -3.1272
 7843TIP3    H223494   5.395   3.000   2.587  0.3177  0.7247  0.2212
 7844TIP3   OH223495   0.122   4.849   2.392  0.8978 -0.1752 -0.1704
 7844TIP3    H123496   0.196   4.847   2.453 -0.6078  2.3741  1.9429
 7844TIP3    H223497   0.160   4.877   2.309  2.5465 -0.6061  0.4061
 7845TIP3   OH223498   5.769   4.088   1.637  0.1921 -0.3238  0.3451
 7845TIP3    H123499   5.805   4.071   1.550  0.3265  1.6083 -0.0165
 7845TIP3    H223500   5.687   4.039   1.639  0.8900 -1.5785 -0.2948
 7846TIP3   OH223501   6.305   5.401   5.458 -0.0142 -0.0453 -0.4096
 7846TIP3    H123502   6.342   5.431   5.375 -1.1307 -0.1859 -0.9830
 7846TIP3    H223503   6.348   5.456   5.525 -0.1039  1.0292 -1.2053
 7847TIP3   OH223504   6.155   1.880   4.100  0.0964  0.1261 -0.2105
 7847TIP3    H123505   6.114   1.794   4.096 -1.4956  0.8547 -0.0420
 7847TIP3    H223506   6.196   1.891   4.014 -0.3665 -0.4715 -0.5139
 7848TIP3   OH223507   2.993   1.967   2.791 -0.4471  0.5684  0.0855
 7848TIP3    H123508   2.915   1.935   2.748 -0.7300  0.5405  0.6098
 7848TIP3    H223509   2.990   2.062   2.779 -0.7801  0.6091  0.4494
 7849TIP3   OH223510   3.549   4.690   4.969  0.3493  0.1008 -0.1484
 7849TIP3    H123511   3.517   4.762   5.022  0.9424 -0.1445  0.5637
 7849TIP3    H223512   3.618   4.728   4.915 -0.2120  0.3364 -0.7148
 7850TIP3   OH223513   3.293   4.120   5.012 -0.5415  0.1980 -0.4505
 7850TIP3    H123514   3.332   4.142   4.927  0.5599 -0.3696 -0.1208
 7850TIP3    H223515   3.340   4.175   5.075  1.1430 -1.8147  0.1864
 7851TIP3   OH223516   1.421   2.222   3.577 -0.2693 -0.1256 -0.1060
 7851TIP3    H123517   1.379   2.136   3.584  0.3486 -0.5163 -0.9914
 7851TIP3    H223518   1.400   2.252   3.488  1.2348 -0.3077 -0.5541
 7852TIP3   OH223519   2.605   6.076   4.968 -0.1739 -0.0163 -0.4007
 7852TIP3    H123520   2.679   6.024   4.937  1.0639  1.4098  0.0112
 7852TIP3    H223521   2.536   6.061   4.902  0.6328 -1.0081 -1.0536
 7853TIP3   OH223522   3.851   4.109   5.503  0.1179 -0.4240  0.2175
 7853TIP3    H123523   3.828   4.145   5.589  1.3558  3.1550 -0.7383
 7853TIP3    H223524   3.945   4.125   5.495 -0.0531 -0.1784 -1.9509
 7854TIP3   OH223525   5.956   4.237   2.309 -0.1738 -0.2419  0.1500
 7854TIP3    H123526   6.028   4.196   2.358 -0.7082  0.3352  1.4669
 7854TIP3    H223527   5.997   4.311   2.264  0.8621 -2.2639 -2.4866
 7855TIP3   OH223528   6.779   0.725   3.060 -0.8174  0.9732  0.1470
 7855TIP3    H123529   6.694   0.724   3.016 -1.0484  3.4825  0.3982
 7855TIP3    H223530   6.831   0.789   3.011  0.6782  0.0692  0.4929
 7856TIP3   OH223531   1.976   1.145   5.524  0.0527 -0.0292 -0.1007
 7856TIP3    H123532   2.049   1.189   5.481  0.3793  1.7402  2.1150
 7856TIP3    H223533   2.017   1.085   5.587 -0.4322 -2.1297 -1.6492
 7857TIP3   OH223534   2.520   6.608   1.546 -0.1159  0.7210  0.0234
 7857TIP3    H123535   2.437   6.576   1.582 -0.3042 -0.1344 -1.1033
 7857TIP3    H223536   2.547   6.540   1.485 -0.5040  2.6436 -2.4543
 7858TIP3   OH223537   4.659   5.192   5.160  0.2423  0.3489 -0.1223
 7858TIP3    H123538   4.641   5.284   5.181  0.0851  0.0115  1.3387
 7858TIP3    H223539   4.587   5.143   5.200  0.9914 -0.5068  0.2222
 7859TIP3   OH223540   0.231   2.158   2.481  0.0916  0.0415  0.2085
 7859TIP3    H123541   0.275   2.233   2.522 -1.5528  0.2856  1.6262
 7859TIP3    H223542   0.294   2.126   2.416  2.0783  0.7668  1.6848
 7860TIP3   OH223543   5.644   6.033   1.017  0.2913  0.9805  0.5131
 7860TIP3    H123544   5.706   6.023   0.945  0.7015  3.3819  0.4320
 7860TIP3    H223545   5.699   6.055   1.092 -0.2592  0.0703  1.1964
 7861TIP3   OH223546   2.833   5.531   1.313  0.2808  0.4757 -0.3964
 7861TIP3    H123547   2.904   5.475   1.346  1.5049  2.4185  0.4540
 7861TIP3    H223548   2.845   5.530   1.218  1.5619  0.8611 -0.2655
 7862TIP3   OH223549   2.489   2.413   1.476 -0.1440  0.2174  0.3445
 7862TIP3    H123550   2.532   2.474   1.536 -0.4275 -0.3592  1.1488
 7862TIP3    H223551   2.399   2.443   1.472  0.1171  0.9086 -0.6651
 7863TIP3   OH223552   0.112   2.044   1.467 -0.4761 -0.1629 -0.8687
 7863TIP3    H123553   0.117   2.139   1.475  1.3664 -0.2445 -0.5647
 7863TIP3    H223554   0.129   2.027   1.374  0.6889 -0.2316 -0.6629
 7864TIP3   OH223555   0.769   6.078   1.403  0.5400  0.0754  0.3929
 7864TIP3    H123556   0.681   6.114   1.413  0.4079  0.2957 -1.3220
 7864TIP3    H223557   0.827   6.148   1.433  0.1447 -0.2566  2.0101
 7865TIP3   OH223558   2.658   2.596   5.094 -0.2356 -0.4333  0.6611
 7865TIP3    H123559   2.594   2.620   5.162 -0.1384 -0.7260  0.8555
 7865TIP3    H223560   2.659   2.501   5.095 -1.8768 -0.5440 -1.2710
 7866TIP3   OH223561   6.132   1.390   4.566  0.4119 -0.2700  0.1463
 7866TIP3    H123562   6.082   1.423   4.640  0.5213  0.0870  0.0612
 7866TIP3    H223563   6.217   1.366   4.603 -0.0508 -1.5468  0.4284
 7867TIP3   OH223564   3.845   4.943   1.342 -0.1724  0.0087  0.3392
 7867TIP3    H123565   3.803   5.000   1.277 -0.0420 -1.2919 -0.9224
 7867TIP3    H223566   3.867   4.863   1.294 -0.1645 -1.0458  2.0177
 7868TIP3   OH223567   1.045   1.883   0.259 -0.0969  0.6255 -0.3594
 7868TIP3    H123568   1.025   1.975   0.240  0.3614  0.3162 -2.5972
 7868TIP3    H223569   1.109   1.858   0.193  2.0823 -0.5298  2.0207
 7869TIP3   OH223570   4.272   6.580   0.133  0.5438  0.5434 -0.0142
 7869TIP3    H123571   4.220   6.601   0.056  0.9963 -1.1730 -0.8244
 7869TIP3    H223572   4.350   6.536   0.099  1.0005  0.1967  1.3911
 7870TIP3   OH223573   3.844   2.565   0.515 -0.5435 -0.3271 -0.3666
 7870TIP3    H123574   3.850   2.525   0.601 -0.1904  1.7956  0.6574
 7870TIP3    H223575   3.755   2.544   0.485 -0.9043 -0.5345  0.7937
 7871TIP3   OH223576   3.986   5.739   4.333  0.8634 -0.7200  0.3351
 7871TIP3    H123577   4.055   5.778   4.281  0.1673  1.0838  0.7100
 7871TIP3    H223578   4.018   5.650   4.351  3.0315  0.0073  0.4211
 7872TIP3   OH223579   7.164   5.631   1.456  0.5503 -0.0618 -0.1808
 7872TIP3    H123580   7.253   5.665   1.461  1.3534 -1.9227 -0.7743
 7872TIP3    H223581   7.148   5.617   1.363  0.7988 -2.4457  0.0714
 7873TIP3   OH223582   5.467   1.405   2.611  0.0704 -0.0416 -0.2544
 7873TIP3    H123583   5.403   1.335   2.602 -0.7589  0.9049 -2.2693
 7873TIP3    H223584   5.550   1.366   2.585  0.2654 -1.0877  1.7100
 7874TIP3   OH223585   1.938   5.958   4.322 -0.1917  0.0185  0.0251
 7874TIP3    H123586   1.958   6.051   4.336 -2.2822  0.6609 -0.8324
 7874TIP3    H223587   1.986   5.913   4.391 -0.6966  1.9275  1.7277
 7875TIP3   OH223588   1.054   2.062   2.536 -0.0677 -0.0499  0.1761
 7875TIP3    H123589   0.994   2.106   2.596  0.2398  1.0081 -0.2666
 7875TIP3    H223590   1.139   2.100   2.556  0.0811  0.1056 -0.7349
 7876TIP3   OH223591   5.118   3.959   2.781  0.9906  0.3867  0.5866
 7876TIP3    H123592   5.161   4.043   2.792 -1.0059  1.2162  3.1935
 7876TIP3    H223593   5.166   3.900   2.840  1.5123  0.0483 -0.1679
 7877TIP3   OH223594   3.157   0.142   0.114  0.0727 -0.8569  0.1242
 7877TIP3    H123595   3.242   0.151   0.157 -0.0242  1.4008 -0.0095
 7877TIP3    H223596   3.095   0.183   0.175 -0.1818  1.7382 -1.7139
 7878TIP3   OH223597   3.213   1.471   4.390 -0.2484  0.1074 -0.5633
 7878TIP3    H123598   3.147   1.469   4.459  0.5073  1.9041  0.2702
 7878TIP3    H223599   3.220   1.563   4.366  0.8203 -0.2609 -1.7697
 7879TIP3   OH223600   5.974   1.240   3.813  0.0114 -0.5166 -0.1953
 7879TIP3    H123601   5.959   1.334   3.826 -0.0233 -0.5001 -0.3503
 7879TIP3    H223602   5.994   1.207   3.900  0.5033 -0.2728 -0.2096
 7880TIP3   OH223603   1.256   3.394   4.519  0.1474  0.8406  0.6799
 7880TIP3    H123604   1.203   3.314   4.528  1.5364 -0.2839 -0.6144
 7880TIP3    H223605   1.200   3.454   4.470  0.1358 -0.4442 -0.9463
 7881TIP3   OH223606   2.914   5.463   5.164  0.1016 -0.0089 -0.0804
 7881TIP3    H123607   2.849   5.441   5.231 -0.9136  0.6531 -0.8106
 7881TIP3    H223608   2.887   5.550   5.132 -0.3309 -0.8966 -2.3505
 7882TIP3   OH223609   2.949   2.693   2.827  0.4674 -0.1359  0.0250
 7882TIP3    H123610   3.003   2.766   2.860 -0.0622  0.2206  0.1063
 7882TIP3    H223611   2.898   2.731   2.756 -0.1556 -0.3129  0.3781
 7883TIP3   OH223612   4.766   5.675   4.751  0.0711 -0.3024 -0.0010
 7883TIP3    H123613   4.755   5.597   4.805 -1.7682  0.3453  0.6298
 7883TIP3    H223614   4.713   5.742   4.794  1.2471  1.1981 -0.7637
 7884TIP3   OH223615   2.924   2.746   3.142 -0.4455 -0.0532  0.4370
 7884TIP3    H123616   2.920   2.736   3.047 -1.1950  0.2779  0.4273
 7884TIP3    H223617   3.015   2.771   3.160 -0.2788 -0.2010 -0.1784
 7885TIP3   OH223618   0.318   3.234   1.664 -0.5553  0.1563  0.0497
 7885TIP3    H123619   0.244   3.185   1.700 -0.5166  0.2584  0.2738
 7885TIP3    H223620   0.339   3.298   1.732  0.3432 -0.4861  0.3934
 7886TIP3   OH223621   1.738   4.565   4.306 -0.0438 -0.2421 -0.0046
 7886TIP3    H123622   1.750   4.558   4.401 -1.2241  0.1414  0.1936
 7886TIP3    H223623   1.812   4.618   4.276  2.0242 -2.7697  0.2469
 7887TIP3   OH223624   3.858   1.592   1.482  0.4371  0.2488 -0.2428
 7887TIP3    H123625   3.862   1.565   1.574  0.9338  0.0907 -0.3055
 7887TIP3    H223626   3.943   1.633   1.466  2.1335 -3.4874 -1.7764
 7888TIP3   OH223627   6.901   1.923   4.409  0.3656 -0.0326 -0.1615
 7888TIP3    H123628   6.833   1.888   4.467 -0.5955 -0.4028 -1.4814
 7888TIP3    H223629   6.884   2.017   4.405 -0.9988 -0.3065 -1.6132
 7889TIP3   OH223630   5.149   0.597   2.576 -0.2698 -0.3529 -0.1915
 7889TIP3    H123631   5.132   0.568   2.486  0.7391  0.7032 -0.7412
 7889TIP3    H223632   5.234   0.559   2.597  0.1885  0.6155 -0.2419
 7890TIP3   OH223633   3.975   5.780   0.253 -0.2226  0.0494 -0.5384
 7890TIP3    H123634   3.914   5.707   0.243  2.1544 -1.9630 -1.3137
 7890TIP3    H223635   3.967   5.829   0.171 -2.2593  1.0815  0.2222
 7891TIP3   OH223636   2.352   5.757   5.337 -0.9632  0.5155  0.0158
 7891TIP3    H123637   2.385   5.828   5.281  0.0235  0.1276  0.0952
 7891TIP3    H223638   2.395   5.678   5.304 -1.0662  0.1436  0.7493
 7892TIP3   OH223639   6.875   5.684   2.793 -0.4272  0.6411 -0.0404
 7892TIP3    H123640   6.800   5.630   2.768 -0.5183  0.8716 -0.2782
 7892TIP3    H223641   6.865   5.764   2.741  0.3329  0.4131 -0.5662
 7893TIP3   OH223642   2.330   3.701   3.007  0.0258  0.1042 -1.0343
 7893TIP3    H123643   2.323   3.718   3.101 -0.6457 -2.5896 -0.5320
 7893TIP3    H223644   2.248   3.733   2.971 -1.1904 -1.8353 -0.1407
 7894TIP3   OH223645   6.651   2.325   0.852 -0.5006 -0.2878 -0.3184
 7894TIP3    H123646   6.639   2.285   0.938  0.3855  0.3117  0.1056
 7894TIP3    H223647   6.563   2.333   0.816 -0.9135 -0.1997  0.6945
 7895TIP3   OH223648   3.816   6.644   1.503 -0.4180 -0.4454 -0.1736
 7895TIP3    H123649   3.847   6.622   1.415  0.4412 -1.1781  0.2973
 7895TIP3    H223650   3.895   6.644   1.557 -0.8752  0.4364  0.5197
 7896TIP3   OH223651   3.750   2.903   5.653  0.2135  0.2675 -0.2571
 7896TIP3    H123652   3.699   2.827   5.679  1.4655  0.0419  1.7571
 7896TIP3    H223653   3.707   2.977   5.697  1.0519  0.1959  0.7250
 7897TIP3   OH223654   0.978   6.512   4.166 -0.1972  0.5562  0.5910
 7897TIP3    H123655   1.022   6.437   4.205 -0.6020  0.0552  0.1076
 7897TIP3    H223656   0.907   6.533   4.227 -2.2127 -1.5981 -0.8298
 7898TIP3   OH223657   4.924   5.200   0.914  0.2930 -0.1522  0.0401
 7898TIP3    H123658   4.874   5.157   0.845  2.0936 -1.2205 -0.6650
 7898TIP3    H223659   4.949   5.129   0.973  2.6585 -0.0277 -0.7280
 7899TIP3   OH223660   0.019   4.985   3.151 -0.9515 -0.0985  0.1885
 7899TIP3    H123661  -0.018   4.903   3.185  0.8303 -1.0255  0.0490
 7899TIP3    H223662   0.035   5.038   3.229 -0.4752 -0.6374  0.4704
 7900TIP3   OH223663   1.954   3.355   1.339  0.0767  0.2290 -0.5670
 7900TIP3    H123664   2.010   3.325   1.268 -0.9243  0.1467 -1.3389
 7900TIP3    H223665   1.868   3.317   1.320  0.2648 -1.7238  1.9168
 7901TIP3   OH223666   4.030   1.261   4.755  0.0637  0.1773 -0.2384
 7901TIP3    H123667   4.005   1.217   4.836 -1.7637 -1.8005 -1.7692
 7901TIP3    H223668   4.117   1.226   4.735  0.2405  0.1747  0.5076
 7902TIP3   OH223669   0.098   6.135   5.192  0.5551 -0.8167 -1.0370
 7902TIP3    H123670   0.053   6.080   5.258  0.1576 -0.5531 -1.0845
 7902TIP3    H223671   0.027   6.171   5.139  0.8427 -0.5765 -1.2598
 7903TIP3   OH223672   6.178   2.846   4.368 -0.2293 -0.0445 -0.4216
 7903TIP3    H123673   6.237   2.778   4.336  0.4725  1.2813 -2.0663
 7903TIP3    H223674   6.103   2.844   4.308 -0.1255  0.7183 -0.5945
 7904TIP3   OH223675   4.254   2.947   2.246 -0.3279 -0.1000  0.0914
 7904TIP3    H123676   4.329   2.898   2.214 -0.3840 -0.5324  0.6072
 7904TIP3    H223677   4.241   2.915   2.336 -1.8696 -0.9057 -0.3895
 7905TIP3   OH223678   1.331   2.943   4.627  0.8363  0.0098  0.2794
 7905TIP3    H123679   1.293   2.883   4.690  1.1975 -0.0806  0.4128
 7905TIP3    H223680   1.339   2.891   4.547 -1.4247  0.6540 -0.4503
 7906TIP3   OH223681   1.656   1.712   1.581  0.4361 -0.3950  0.2459
 7906TIP3    H123682   1.670   1.796   1.624  0.0307 -0.1779 -0.0428
 7906TIP3    H223683   1.672   1.730   1.488  0.7659 -0.7335  0.2367
 7907TIP3   OH223684   1.092   5.863   0.070 -0.1202  0.0894  0.0168
 7907TIP3    H123685   1.180   5.837   0.042  0.0885 -1.0765  1.6359
 7907TIP3    H223686   1.034   5.805   0.022  0.0697  0.0191 -0.1312
 7908TIP3   OH223687   3.746   1.310   4.545  0.3228  0.1084  1.2228
 7908TIP3    H123688   3.831   1.267   4.528 -1.6183 -3.0110 -1.9657
 7908TIP3    H223689   3.753   1.394   4.500  2.4394  1.0359  3.0745
 7909TIP3   OH223690   4.409   6.068   3.663 -0.0468 -0.5840  0.2814
 7909TIP3    H123691   4.433   5.975   3.661  0.6757 -0.4230  0.8327
 7909TIP3    H223692   4.464   6.108   3.595 -0.7869 -0.6500 -0.3615
 7910TIP3   OH223693   5.203   1.601   1.051 -0.6360  0.6269  0.1871
 7910TIP3    H123694   5.177   1.510   1.036  1.7693  0.0140 -0.7697
 7910TIP3    H223695   5.253   1.599   1.133 -0.3508  1.0284  0.0289
 7911TIP3   OH223696   6.799   3.663   2.760 -0.1270  1.0762 -0.3369
 7911TIP3    H123697   6.828   3.734   2.818  0.8924  0.3482  0.0888
 7911TIP3    H223698   6.874   3.648   2.702 -0.5546  0.7539 -0.8103
 7912TIP3   OH223699   4.198   1.343   1.277  0.6502 -0.0835 -0.1811
 7912TIP3    H123700   4.116   1.297   1.298  1.6222 -0.9820  2.0589
 7912TIP3    H223701   4.256   1.322   1.351  2.1550  2.3807 -0.5563
 7913TIP3   OH223702   3.607   1.710   2.946  0.3757  0.2862  0.0025
 7913TIP3    H123703   3.632   1.676   2.860  1.0727  0.7684  0.0034
 7913TIP3    H223704   3.511   1.714   2.943  0.3817  0.0810 -0.6664
 7914TIP3   OH223705   5.667   5.331   1.980 -0.2842  0.0030  0.2256
 7914TIP3    H123706   5.699   5.271   1.912  0.0469 -1.4671  1.6353
 7914TIP3    H223707   5.616   5.396   1.931  0.2776 -0.7604 -1.4758
 7915TIP3   OH223708   7.078   1.613   0.966  0.4686 -0.1037 -0.0693
 7915TIP3    H123709   7.023   1.553   0.916  0.0267  0.1257  0.1380
 7915TIP3    H223710   7.081   1.693   0.914 -2.9122  1.4516  1.8403
 7916TIP3   OH223711   4.651   1.645   3.315  0.1133  0.0578 -0.5587
 7916TIP3    H123712   4.691   1.718   3.361 -1.9914  0.5702  0.5702
 7916TIP3    H223713   4.594   1.685   3.250 -2.2026 -0.4377  1.0438
 7917TIP3   OH223714   0.339   4.558   5.130  0.1574 -0.2224  0.1895
 7917TIP3    H123715   0.357   4.526   5.219  1.2906 -1.7910 -0.5492
 7917TIP3    H223716   0.425   4.561   5.089 -0.4949 -0.9500 -1.2919
 7918TIP3   OH223717   1.441   6.402   4.162  0.5438  0.4822 -0.1515
 7918TIP3    H123718   1.465   6.493   4.180  1.1166  0.0829  1.2704
 7918TIP3    H223719   1.520   6.364   4.123  1.5835 -0.2562  2.4690
 7919TIP3   OH223720   2.696   2.141   0.112 -0.4786 -0.1319  0.4206
 7919TIP3    H123721   2.674   2.115   0.202 -2.3859 -3.5750 -0.8037
 7919TIP3    H223722   2.788   2.117   0.102  0.7264  3.1403  2.1786
 7920TIP3   OH223723   0.335   0.709   5.683  0.1437 -0.2354 -0.1843
 7920TIP3    H123724   0.370   0.674   5.766  1.0098  0.6069 -0.1783
 7920TIP3    H223725   0.345   0.637   5.621 -0.2036 -0.7639  0.3594
 7921TIP3   OH223726   5.674   6.724   3.723 -0.4862  0.1055 -0.2032
 7921TIP3    H123727   5.693   6.779   3.647  0.5998  0.6489  0.4400
 7921TIP3    H223728   5.653   6.786   3.793 -1.1338 -0.3786  0.0500
 7922TIP3   OH223729   1.795   5.927   0.068  0.2083  0.7930 -1.0588
 7922TIP3    H123730   1.801   5.835   0.094  1.0114  1.0008 -0.4813
 7922TIP3    H223731   1.730   5.965   0.128  1.0464  0.9577 -0.2381
 7923TIP3   OH223732   3.779   0.483   4.721 -0.6955  0.1080 -0.3255
 7923TIP3    H123733   3.813   0.471   4.810  1.2026  1.4374 -0.8259
 7923TIP3    H223734   3.692   0.441   4.724 -1.1245  0.9431  2.4051
 7924TIP3   OH223735   4.171   2.487   1.719 -0.1566  0.1180 -0.0360
 7924TIP3    H123736   4.217   2.565   1.689  0.0915 -0.7288 -2.0836
 7924TIP3    H223737   4.240   2.427   1.747 -0.3186  0.4333  1.0841
 7925TIP3   OH223738   6.270   5.733   0.332  0.3178 -0.1676 -0.1549
 7925TIP3    H123739   6.289   5.791   0.258 -0.0211 -0.4610 -0.4731
 7925TIP3    H223740   6.339   5.753   0.396  0.9649 -0.3339 -0.7908
 7926TIP3   OH223741   5.029   4.267   2.611 -0.3357  0.2331 -0.5859
 7926TIP3    H123742   4.998   4.319   2.537  0.4781  1.2465 -0.2471
 7926TIP3    H223743   4.952   4.217   2.639 -0.4572 -0.7550 -2.5633
 7927TIP3   OH223744   2.235   1.473   4.906  0.0185  0.3736 -0.3887
 7927TIP3    H123745   2.270   1.560   4.925 -0.2268  0.2551  0.6647
 7927TIP3    H223746   2.148   1.490   4.868  0.3029  0.5992 -0.9555
 7928TIP3   OH223747   7.002   5.980   2.894  0.3594  0.6185 -0.1508
 7928TIP3    H123748   6.967   6.005   2.809 -1.7903  1.1019  0.7987
 7928TIP3    H223749   6.944   5.910   2.925  0.9046  0.6538  1.0252
 7929TIP3   OH223750   4.931   3.049   0.961 -0.0492 -0.6545  0.0393
 7929TIP3    H123751   4.946   3.119   0.897 -0.1428  1.5277  2.2272
 7929TIP3    H223752   4.926   2.969   0.909  0.2164  0.9260 -2.6058
 7930TIP3   OH223753   6.499   0.434   3.021 -0.3201  0.1468  0.2061
 7930TIP3    H123754   6.477   0.438   3.113 -0.7010  0.0105  0.1226
 7930TIP3    H223755   6.416   0.416   2.977 -0.0446 -0.4038 -0.1073
 7931TIP3   OH223756   4.745   3.627   3.817 -0.3500  0.7551 -0.1713
 7931TIP3    H123757   4.659   3.585   3.818  0.2191 -0.4252 -0.0708
 7931TIP3    H223758   4.807   3.557   3.798  0.4749  1.8398 -1.8227
 7932TIP3   OH223759   2.047   4.044   0.127  0.4618 -0.4525 -0.2685
 7932TIP3    H123760   1.994   4.116   0.094 -0.3278  0.0057  1.8623
 7932TIP3    H223761   2.099   4.016   0.052 -1.6701  0.0806 -2.0443
 7933TIP3   OH223762   3.318   0.766   1.033  0.4303 -0.1053 -0.1512
 7933TIP3    H123763   3.330   0.671   1.039 -1.2025 -0.4933 -1.8434
 7933TIP3    H223764   3.320   0.784   0.939  0.5621  1.5271  0.1328
 7934TIP3   OH223765   0.581   1.022   4.454 -0.0188 -0.3693 -0.5638
 7934TIP3    H123766   0.652   1.080   4.480 -0.4417 -0.0832 -0.0155
 7934TIP3    H223767   0.515   1.034   4.522  0.0282 -1.7602 -0.2573
 7935TIP3   OH223768   3.069   0.079   1.012 -0.3664  0.0810 -0.1046
 7935TIP3    H123769   2.983   0.048   1.041 -0.9222  1.6781  0.0252
 7935TIP3    H223770   3.061   0.174   1.008  1.9160  0.4611  1.6746
 7936TIP3   OH223771   4.784   2.154   2.028  0.2621  0.2367  0.3735
 7936TIP3    H123772   4.865   2.184   1.988  0.2842 -1.3308 -0.9050
 7936TIP3    H223773   4.810   2.081   2.084 -0.2234 -0.0755  0.2037
 7937TIP3   OH223774   3.839   6.137   5.486 -0.2731 -0.4193  0.1376
 7937TIP3    H123775   3.867   6.207   5.546 -0.9382 -0.1083  0.0985
 7937TIP3    H223776   3.761   6.100   5.528 -0.4172 -0.5745 -0.2640
 7938TIP3   OH223777   3.189   6.202   3.264 -0.1743 -0.3142 -0.9855
 7938TIP3    H123778   3.233   6.168   3.186 -0.0795  0.7338 -1.4062
 7938TIP3    H223779   3.203   6.135   3.331  3.4199  0.5937 -0.6279
 7939TIP3   OH223780   3.684   5.760   3.403 -0.3222  0.1582 -0.2220
 7939TIP3    H123781   3.613   5.824   3.400  0.6176  1.2452 -0.0438
 7939TIP3    H223782   3.692   5.728   3.313  0.8583  2.2068 -0.9110
 7940TIP3   OH223783   0.366   2.494   3.185 -0.7665 -0.4188  0.4256
 7940TIP3    H123784   0.366   2.414   3.237 -0.5722 -0.4467  0.3854
 7940TIP3    H223785   0.450   2.493   3.139 -0.6942 -0.1159  0.5437
 7941TIP3   OH223786   2.666   2.726   3.473 -0.0233 -0.4128  0.0395
 7941TIP3    H123787   2.663   2.631   3.463  1.7612 -0.3882 -1.1817
 7941TIP3    H223788   2.745   2.753   3.425  0.1232  1.5694  1.2738
 7942TIP3   OH223789   6.527   3.327   2.618 -0.0605  0.0286  0.2885
 7942TIP3    H123790   6.554   3.408   2.576 -0.3001 -0.9815 -1.9522
 7942TIP3    H223791   6.607   3.290   2.654  0.4994 -0.0128 -0.9822
 7943TIP3   OH223792   6.810   1.962   2.116  0.1138 -0.4801  0.0186
 7943TIP3    H123793   6.841   2.051   2.129 -2.0130  0.1366  1.3065
 7943TIP3    H223794   6.864   1.928   2.044  2.0443  1.2624  0.5385
 7944TIP3   OH223795   2.278   1.264   3.007 -0.2163  0.5594 -0.0184
 7944TIP3    H123796   2.276   1.247   3.101  0.2922 -1.1159 -0.2730
 7944TIP3    H223797   2.187   1.280   2.983 -0.4470  0.2832  0.6556
 7945TIP3   OH223798   6.879   0.262   1.146  0.3190  0.1771  0.3837
 7945TIP3    H123799   6.796   0.244   1.190  0.3106 -0.7357  0.0159
 7945TIP3    H223800   6.940   0.280   1.217  0.2149 -0.9080  0.7689
 7946TIP3   OH223801   0.741   6.129   3.106  0.5363 -0.0951  0.4169
 7946TIP3    H123802   0.708   6.108   3.194 -0.1658  0.9757  0.4316
 7946TIP3    H223803   0.702   6.063   3.049 -0.4648  0.2765  0.6555
 7947TIP3   OH223804   2.616   5.514   0.539 -0.5720 -0.2213  0.3255
 7947TIP3    H123805   2.629   5.426   0.575  2.4299 -0.0887 -0.2099
 7947TIP3    H223806   2.544   5.504   0.477  0.9493 -2.8120 -1.1860
 7948TIP3   OH223807   0.499   3.010   0.106 -0.0440  0.2708 -0.3384
 7948TIP3    H123808   0.426   2.950   0.092 -0.9498  1.2351  0.1225
 7948TIP3    H223809   0.518   3.004   0.200  0.3659  0.1396 -0.4285
 7949TIP3   OH223810   2.418   5.479   0.334 -0.3834 -0.4606 -0.0641
 7949TIP3    H123811   2.391   5.387   0.344  1.8516 -1.2133 -0.4272
 7949TIP3    H223812   2.470   5.479   0.254 -0.3192  1.1477 -0.0379
 7950TIP3   OH223813   6.553   0.044   3.170  0.4290  0.1041 -0.1717
 7950TIP3    H123814   6.527   0.105   3.239  1.2196  0.1421  0.1059
 7950TIP3    H223815   6.581  -0.035   3.218  0.6241 -0.0074 -0.4659
 7951TIP3   OH223816   2.007   4.250   3.605 -0.4035  0.2314 -0.2500
 7951TIP3    H123817   1.923   4.254   3.650  0.2042 -1.0051  1.0833
 7951TIP3    H223818   2.026   4.156   3.599  0.0225  0.4022 -2.2101
 7952TIP3   OH223819   6.576   3.875   4.335 -0.4763  0.1951 -0.3363
 7952TIP3    H123820   6.522   3.843   4.407  0.7133 -3.3802 -0.8175
 7952TIP3    H223821   6.514   3.911   4.271 -2.0258 -1.1541  0.3501
 7953TIP3   OH223822   4.629   0.711   5.202 -0.0473 -0.2602  0.4175
 7953TIP3    H123823   4.601   0.801   5.216 -1.7666 -0.7283  0.2280
 7953TIP3    H223824   4.651   0.706   5.110  0.4681  0.0753  0.5229
 7954TIP3   OH223825   1.245   2.574   4.628 -0.4429 -0.7122  0.5388
 7954TIP3    H123826   1.320   2.610   4.676  1.8962 -0.2070 -3.1382
 7954TIP3    H223827   1.174   2.572   4.693  1.5857  2.5729  3.2104
 7955TIP3   OH223828   4.056   3.170   4.215 -0.0782  0.3511  0.0774
 7955TIP3    H123829   4.012   3.132   4.139 -0.0879  2.0872 -0.8603
 7955TIP3    H223830   4.090   3.096   4.264  1.3954 -0.8050 -2.5327
 7956TIP3   OH223831   1.525   3.297   5.526  0.1465  0.3769  0.0712
 7956TIP3    H123832   1.435   3.322   5.505  0.5782  3.6074  1.4901
 7956TIP3    H223833   1.571   3.307   5.442 -0.1560  2.6118  0.0866
 7957TIP3   OH223834   2.937   6.312   1.428  0.5001  0.5705 -0.4010
 7957TIP3    H123835   2.844   6.320   1.407  0.3481 -1.0066 -0.4560
 7957TIP3    H223836   2.982   6.329   1.346  0.1666 -0.1498 -0.7473
 7958TIP3   OH223837   3.405   6.515   0.886 -0.4339 -0.1312 -0.4340
 7958TIP3    H123838   3.432   6.550   0.970  2.1994  0.5757 -1.4659
 7958TIP3    H223839   3.467   6.444   0.868 -1.6026 -0.9896 -1.3375
 7959TIP3   OH223840   4.864   3.853   0.063 -0.0288 -0.0514  0.0705
 7959TIP3    H123841   4.810   3.809  -0.002  0.1571 -0.0233 -0.1024
 7959TIP3    H223842   4.817   3.934   0.083 -0.0385 -0.0150 -0.0990
 7960TIP3   OH223843   6.212   4.407   3.444 -0.3816 -0.0432 -0.0680
 7960TIP3    H123844   6.275   4.350   3.488  1.4742  0.9355 -1.3145
 7960TIP3    H223845   6.210   4.375   3.354 -1.7089 -0.0415 -0.0609
 7961TIP3   OH223846   2.998   0.604   5.821 -0.0516 -0.0177 -0.2728
 7961TIP3    H123847   2.955   0.569   5.744 -0.2304 -1.6008  0.5009
 7961TIP3    H223848   3.069   0.659   5.787  0.4423 -1.4130 -1.5621
 7962TIP3   OH223849   3.495   6.296   5.708 -0.2335 -0.1185  0.0858
 7962TIP3    H123850   3.534   6.323   5.791 -0.2818  0.5678 -0.1061
 7962TIP3    H223851   3.539   6.214   5.686  1.3193  0.7599 -0.2638
 7963TIP3   OH223852   3.790   5.833   2.776 -0.1081 -0.2479 -0.5369
 7963TIP3    H123853   3.844   5.834   2.855 -0.3827  0.1559 -0.3497
 7963TIP3    H223854   3.802   5.919   2.737 -0.7594 -0.0850 -0.3942
 7964TIP3   OH223855   3.074   1.460   4.053 -0.6710  0.0213  0.2491
 7964TIP3    H123856   3.101   1.410   3.976  1.6279  0.8232  0.4451
 7964TIP3    H223857   3.046   1.393   4.116 -2.3356 -0.6569 -1.1194
 7965TIP3   OH223858   3.968   3.664   2.493  0.4986 -0.0597  0.2324
 7965TIP3    H123859   3.886   3.704   2.520  1.1938  0.5729  1.4567
 7965TIP3    H223860   3.968   3.672   2.397 -1.9035 -2.1477 -0.0470
 7966TIP3   OH223861   0.252   2.155   3.889  0.1586 -0.0513  0.0166
 7966TIP3    H123862   0.336   2.110   3.880  0.9220  1.4639 -0.8002
 7966TIP3    H223863   0.234   2.189   3.801 -0.9928  0.1929  0.3328
 7967TIP3   OH223864   6.457   2.157   2.407 -0.0362 -0.1331 -0.0006
 7967TIP3    H123865   6.448   2.215   2.331 -0.2495  1.5147  1.2289
 7967TIP3    H223866   6.542   2.179   2.444 -0.2731 -0.3551  0.6865
 7968TIP3   OH223867   3.790   1.935   5.642  0.4708  0.0608  0.2811
 7968TIP3    H123868   3.777   1.975   5.728 -1.3288 -0.5595  0.3458
 7968TIP3    H223869   3.876   1.966   5.614  0.4222  1.5415  1.6054
 7969TIP3   OH223870   0.161   1.532   5.398  0.3029  0.1859  0.3237
 7969TIP3    H123871   0.234   1.478   5.426 -0.9589 -1.9198 -0.2744
 7969TIP3    H223872   0.201   1.598   5.340  1.6962 -1.1321 -0.2753
 7970TIP3   OH223873   2.007   4.750   2.937 -0.4554 -0.1914 -0.2744
 7970TIP3    H123874   2.030   4.795   2.856  0.2429 -0.3398 -0.1635
 7970TIP3    H223875   2.074   4.778   3.000 -1.6242  0.8205  0.5859
 7971TIP3   OH223876   2.517   5.638   1.137 -0.2957 -0.1244  0.0122
 7971TIP3    H123877   2.461   5.578   1.087 -0.2817 -0.8469  0.8316
 7971TIP3    H223878   2.578   5.674   1.073 -0.9234 -0.2585 -0.6675
 7972TIP3   OH223879   1.123   5.368   5.262  0.2550  0.7303 -0.3479
 7972TIP3    H123880   1.185   5.361   5.334  0.2865  1.5088 -0.2933
 7972TIP3    H223881   1.056   5.429   5.293  0.5911  1.5498 -1.2003
 7973TIP3   OH223882   4.307   1.879   1.423  0.5952  0.1182  0.1954
 7973TIP3    H123883   4.308   1.784   1.436  0.1461  0.0260 -0.3939
 7973TIP3    H223884   4.393   1.901   1.389  0.7139 -0.0712  0.3745
 7974TIP3   OH223885   2.699   3.846   5.311 -0.7180 -0.1572  1.0762
 7974TIP3    H123886   2.695   3.885   5.398  0.9137  1.2587  0.5527
 7974TIP3    H223887   2.792   3.837   5.292 -1.0266 -0.2349 -0.6094
 7975TIP3   OH223888   2.654   1.850   0.766 -0.2794 -0.4368  0.3286
 7975TIP3    H123889   2.706   1.799   0.704  0.2818 -0.2259  0.6252
 7975TIP3    H223890   2.673   1.812   0.851  0.4248  0.4850  0.6018
 7976TIP3   OH223891   4.562   3.972   4.009  0.7327 -0.0961 -0.5125
 7976TIP3    H123892   4.530   4.020   3.932  2.1815  1.7388 -0.0328
 7976TIP3    H223893   4.555   4.034   4.081 -0.0677 -1.6009  0.7653
 7977TIP3   OH223894   5.550   0.159   2.020 -0.1291 -0.0055 -0.1296
 7977TIP3    H123895   5.565   0.240   1.972  0.0587  0.3264  0.4917
 7977TIP3    H223896   5.561   0.090   1.954  0.8574  0.4047 -0.4083
 7978TIP3   OH223897   1.711   4.902   5.561 -0.2839  0.8497  0.3125
 7978TIP3    H123898   1.651   4.964   5.602 -2.0337 -0.9699  0.7026
 7978TIP3    H223899   1.661   4.865   5.488  1.1224  0.6981 -0.6287
 7979TIP3   OH223900   4.393   0.655   4.499 -0.2313  0.5011  0.9758
 7979TIP3    H123901   4.369   0.728   4.442 -0.5429 -0.0919  0.3348
 7979TIP3    H223902   4.472   0.686   4.545  0.0179  0.9922  0.2396
 7980TIP3   OH223903   5.882   5.167   3.643 -0.0107  0.6187 -0.4681
 7980TIP3    H123904   5.931   5.248   3.653 -0.8191  1.2674 -1.5442
 7980TIP3    H223905   5.917   5.128   3.562 -0.6631  0.6550 -0.7711
 7981TIP3   OH223906   0.765   3.413   3.840  0.3363  1.1228  0.1668
 7981TIP3    H123907   0.797   3.502   3.822  0.8107  0.8439 -0.4010
 7981TIP3    H223908   0.834   3.356   3.807 -0.2356  0.5294 -0.0176
 7982TIP3   OH223909   2.956   4.483   1.667 -0.2263  0.4220  1.3581
 7982TIP3    H123910   2.999   4.547   1.724 -0.4831 -0.2960  2.3988
 7982TIP3    H223911   2.901   4.431   1.727 -1.8699  0.7489  0.2011
 7983TIP3   OH223912   4.411   4.493   0.705 -0.2030  0.1417  0.2545
 7983TIP3    H123913   4.453   4.435   0.769 -0.4426 -0.1884  0.1107
 7983TIP3    H223914   4.450   4.469   0.621  0.6860  1.1040  0.3709
 7984TIP3   OH223915   6.316   0.825   4.108 -0.0048 -0.0622 -0.4564
 7984TIP3    H123916   6.288   0.828   4.016  1.1273 -3.6634 -1.0927
 7984TIP3    H223917   6.355   0.738   4.117  2.9971  1.4306  2.6138
 7985TIP3   OH223918   1.898   0.068   3.303  0.8305 -0.3556  0.2189
 7985TIP3    H123919   1.889   0.078   3.208  1.7489 -2.7010 -0.1953
 7985TIP3    H223920   1.873  -0.023   3.319  2.2423 -0.4834  1.9963
 7986TIP3   OH223921   6.905   5.302   0.751 -0.1054  0.4684  0.0492
 7986TIP3    H123922   6.852   5.357   0.809  1.5483  1.6140  0.5581
 7986TIP3    H223923   6.908   5.217   0.794 -4.0406 -0.6920 -1.5323
 7987TIP3   OH223924   1.562   0.780   5.455  0.4553 -0.2736 -0.3132
 7987TIP3    H123925   1.557   0.741   5.368 -0.1786  4.4807 -2.7601
 7987TIP3    H223926   1.645   0.827   5.456  0.2278  0.1856  1.4584
 7988TIP3   OH223927   5.192   4.612   2.686  0.6650 -0.0094  0.2728
 7988TIP3    H123928   5.277   4.569   2.688  0.2799 -0.8619  3.4895
 7988TIP3    H223929   5.150   4.588   2.769 -1.7140  2.3859 -0.0661
 7989TIP3   OH223930   3.727   6.466   2.899  0.1313  0.0441 -0.1263
 7989TIP3    H123931   3.795   6.533   2.898  0.4223 -0.2352 -1.2829
 7989TIP3    H223932   3.771   6.387   2.929 -0.1576  0.3018  1.0135
 7990TIP3   OH223933   4.510   0.682   1.610  0.5098 -0.0228  0.1463
 7990TIP3    H123934   4.533   0.642   1.693 -2.0951 -3.3169 -0.4937
 7990TIP3    H223935   4.458   0.759   1.634  0.4208 -0.4956  1.5594
 7991TIP3   OH223936   6.547   1.319   1.480 -0.4327  0.7451  0.1032
 7991TIP3    H123937   6.474   1.284   1.532  2.2628 -3.2680  1.7107
 7991TIP3    H223938   6.547   1.265   1.401  1.2541  0.0327  0.5565
 7992TIP3   OH223939   5.342   6.534   0.912  0.4121  0.2688  0.1342
 7992TIP3    H123940   5.283   6.462   0.931  0.2187  0.4219  0.1205
 7992TIP3    H223941   5.418   6.493   0.872  0.0891  0.1164 -0.3407
 7993TIP3   OH223942   1.211   3.101  -0.013 -0.2979 -0.9154  0.0629
 7993TIP3    H123943   1.117   3.096   0.005 -0.3054 -1.2069 -0.0561
 7993TIP3    H223944   1.252   3.099   0.073 -0.3076 -2.8505  0.0814
 7994TIP3   OH223945   2.930   1.999   3.205 -0.0099 -0.1107 -0.1179
 7994TIP3    H123946   2.953   2.089   3.184  1.7605 -0.5479 -0.1700
 7994TIP3    H223947   2.985   1.977   3.280  1.6397 -1.9949 -1.7735
 7995TIP3   OH223948   2.626   5.239   1.328 -0.0491  0.1467 -0.3536
 7995TIP3    H123949   2.593   5.328   1.345  0.6664  0.3293  0.1179
 7995TIP3    H223950   2.652   5.241   1.236 -2.8573 -0.4957 -1.2696
 7996TIP3   OH223951   6.509  -0.001   3.540  0.1291  0.0084  0.1458
 7996TIP3    H123952   6.425  -0.010   3.495 -0.9218  2.7434  1.3736
 7996TIP3    H223953   6.493   0.062   3.610  3.0196 -0.0220  0.9688
 7997TIP3   OH223954   6.105   4.512   1.412  0.1127 -0.2132 -0.6001
 7997TIP3    H123955   6.159   4.576   1.365  0.0380 -0.4092 -0.9605
 7997TIP3    H223956   6.125   4.428   1.370 -0.0905 -0.3655 -0.3982
 7998TIP3   OH223957   4.497   0.750   4.136  0.3995 -0.2121  0.4850
 7998TIP3    H123958   4.554   0.753   4.060  0.4788 -1.9607  0.4259
 7998TIP3    H223959   4.411   0.726   4.101 -0.0673  1.0072  0.7370
 7999TIP3   OH223960   6.327   0.785   1.273 -0.5086 -0.1673 -0.1067
 7999TIP3    H123961   6.315   0.694   1.298 -1.0606  0.1820  0.9570
 7999TIP3    H223962   6.381   0.781   1.194  0.0294 -1.3797  0.2979
 8000TIP3   OH223963   6.268   3.405   3.788 -0.5958  0.0756 -0.2946
 8000TIP3    H123964   6.350   3.422   3.742  1.0107 -2.3563  1.4647
 8000TIP3    H223965   6.263   3.474   3.855  0.3725 -0.1271  0.0003
 8001TIP3   OH223966   2.728   4.092   2.680  0.0629 -0.2318  0.0864
 8001TIP3    H123967   2.824   4.088   2.679  0.0724  0.0288 -0.9424
 8001TIP3    H223968   2.705   4.084   2.773  1.0508 -0.8422  0.2952
 8002TIP3   OH223969   0.348   0.260   0.452 -0.4390 -0.3333  0.0216
 8002TIP3    H123970   0.263   0.238   0.492 -0.1963  0.6180  1.0970
 8002TIP3    H223971   0.380   0.335   0.502  0.8537 -0.4108 -0.6453
 8003TIP3   OH223972   4.618   3.911   2.765 -0.7203 -0.4773 -0.1210
 8003TIP3    H123973   4.537   3.895   2.814 -0.8814 -4.4559 -1.3114
 8003TIP3    H223974   4.688   3.882   2.823 -0.5703 -1.2846 -0.6867
 8004TIP3   OH223975   5.958   1.098   5.006 -0.0766 -0.6632  0.0300
 8004TIP3    H123976   5.906   1.076   4.929  0.3969  1.2102 -0.8819
 8004TIP3    H223977   6.038   1.138   4.971  0.1243  0.2991  1.4824
 8005TIP3   OH223978   1.326   2.964   4.964  0.4020  0.1772  0.2112
 8005TIP3    H123979   1.299   3.042   4.916  0.6743  1.9249  2.6752
 8005TIP3    H223980   1.273   2.893   4.928  0.7354  1.2802 -2.6968
 8006TIP3   OH223981   5.138   4.852   4.503  0.3571  0.0149 -0.7765
 8006TIP3    H123982   5.144   4.947   4.497  0.8721  0.0881  0.5875
 8006TIP3    H223983   5.208   4.827   4.564  0.0183 -1.2042 -0.8565
 8007TIP3   OH223984   2.404   5.059   1.487  0.1237  0.2197  0.3127
 8007TIP3    H123985   2.474   5.122   1.471  1.6164 -0.8543  2.1596
 8007TIP3    H223986   2.352   5.098   1.557 -0.3122  0.4061 -0.1133
 8008TIP3   OH223987   1.397   5.204   5.041  0.3234  0.5527 -0.5268
 8008TIP3    H123988   1.312   5.193   4.999  1.4803 -1.7315 -2.5484
 8008TIP3    H223989   1.406   5.298   5.054 -2.6649  0.8271  0.2152
 8009TIP3   OH223990   3.246   4.190   5.847  0.5236  0.2772 -0.3125
 8009TIP3    H123991   3.246   4.275   5.891 -0.0901 -0.6055  1.4882
 8009TIP3    H223992   3.176   4.195   5.782 -0.9600  0.4651  1.2490
 8010TIP3   OH223993   4.370   2.249   4.600 -0.0598  0.0756  0.2947
 8010TIP3    H123994   4.425   2.193   4.546 -0.1255 -1.2096  1.5014
 8010TIP3    H223995   4.374   2.335   4.558  1.3963 -0.4249 -0.6565
 8011TIP3   OH223996   0.795   5.113   2.467 -0.3126 -0.3867 -0.6546
 8011TIP3    H123997   0.762   5.035   2.511 -0.9220 -0.8972 -1.9624
 8011TIP3    H223998   0.863   5.080   2.408  2.2730  0.5747  1.5576
 8012TIP3   OH223999   2.673   6.187   5.653  0.1932 -0.2860 -0.1686
 8012TIP3    H124000   2.769   6.197   5.655  0.2133 -0.1503 -1.4431
 8012TIP3    H224001   2.653   6.156   5.565 -0.8901 -0.9911  0.3026
 8013TIP3   OH224002   1.405   0.407   5.119 -0.2795 -0.0059  0.0099
 8013TIP3    H124003   1.434   0.359   5.041  0.4184 -0.1327  0.3371
 8013TIP3    H224004   1.413   0.344   5.191 -0.8259  0.1397  0.1990
 8014TIP3   OH224005   1.327   5.450   1.819 -0.0359  0.5550  0.1685
 8014TIP3    H124006   1.344   5.398   1.740 -1.6817  1.7917 -1.0797
 8014TIP3    H224007   1.409   5.448   1.868  0.4071 -1.9518 -0.5465
 8015TIP3   OH224008   1.545   6.324   4.463  0.2659  0.3463  0.3642
 8015TIP3    H124009   1.480   6.334   4.532  1.2649 -0.1329  1.4154
 8015TIP3    H224010   1.531   6.236   4.429  0.1571  0.3651  0.3601
 8016TIP3   OH224011   2.060   3.952   1.357 -0.4180 -0.0613 -0.2973
 8016TIP3    H124012   1.975   3.994   1.349  0.0232  0.8483 -0.2625
 8016TIP3    H224013   2.095   3.952   1.268 -0.1363  0.2403 -0.1872
 8017TIP3   OH224014   3.729   4.721   0.325 -0.5813 -0.2989  0.4046
 8017TIP3    H124015   3.672   4.650   0.354  0.2038 -0.6107  1.2271
 8017TIP3    H224016   3.812   4.678   0.304 -0.6726  0.1277 -0.9230
 8018TIP3   OH224017   5.231   4.096   0.647 -0.7029  0.0836 -0.0848
 8018TIP3    H124018   5.294   4.048   0.701  0.7747  2.0392  0.0707
 8018TIP3    H224019   5.241   4.059   0.560 -0.3622 -0.6082  0.2414
 8019TIP3   OH224020   1.653   4.419   0.010  0.3900  0.8114 -0.1248
 8019TIP3    H124021   1.592   4.444   0.079  1.0905  3.1762 -0.2608
 8019TIP3    H224022   1.697   4.501  -0.014  2.1446 -0.4340 -1.4578
 8020TIP3   OH224023   2.955   4.559   5.260  0.3091 -0.2205 -0.4937
 8020TIP3    H124024   2.876   4.609   5.238  0.6599  0.1063 -1.0545
 8020TIP3    H224025   2.991   4.603   5.338 -0.4684 -0.8429  0.2318
 8021TIP3   OH224026   6.929   3.766   2.320 -0.0239 -0.0703 -0.2356
 8021TIP3    H124027   6.944   3.832   2.389 -1.9932 -0.5810  0.7476
 8021TIP3    H224028   6.913   3.685   2.368 -1.0629 -0.5176 -1.3067
 8022TIP3   OH224029   4.761   4.791   2.027  0.0481 -0.3811  0.5470
 8022TIP3    H124030   4.830   4.755   1.972  0.4142 -0.2233  0.8994
 8022TIP3    H224031   4.781   4.760   2.115  0.3941  0.6882  0.8673
 8023TIP3   OH224032   3.634   0.893   1.832 -0.0265 -0.0088 -0.2255
 8023TIP3    H124033   3.650   0.853   1.747 -0.8310  0.1882 -0.4696
 8023TIP3    H224034   3.608   0.983   1.812 -0.1417  0.0605  0.2283
 8024TIP3   OH224035   3.106   0.699   0.425  0.1564 -0.8791  0.0709
 8024TIP3    H124036   3.018   0.665   0.410  0.3364 -0.9016 -1.0073
 8024TIP3    H224037   3.145   0.704   0.338  1.3947 -1.3303  0.5768
 8025TIP3   OH224038   0.287   4.443   4.023 -0.0449 -0.4778 -0.5406
 8025TIP3    H124039   0.203   4.463   3.982 -0.1313  0.6946  0.1581
 8025TIP3    H224040   0.296   4.509   4.092  1.6263 -0.3197 -0.8681
 8026TIP3   OH224041   0.559   4.234   0.949  0.5107  0.5168 -0.1632
 8026TIP3    H124042   0.576   4.290   0.873  3.3901 -0.4283 -0.3522
 8026TIP3    H224043   0.555   4.295   1.023 -3.8326  1.6247 -1.0317
 8027TIP3   OH224044   2.225   0.659   0.540  0.4994 -0.1369 -0.2970
 8027TIP3    H124045   2.232   0.742   0.587  0.5046 -0.9884  1.2700
 8027TIP3    H224046   2.309   0.616   0.557  0.3572 -0.6185 -0.8071
 8028TIP3   OH224047   0.675   0.699   2.534  0.2551 -0.4994  0.7712
 8028TIP3    H124048   0.753   0.643   2.530  0.9554  0.4585  0.5459
 8028TIP3    H224049   0.651   0.702   2.626  0.3296 -1.0106  0.8067
 8029TIP3   OH224050   3.180   2.966   0.778 -0.2884  0.2545  0.0967
 8029TIP3    H124051   3.263   2.920   0.791 -0.2403 -0.0690 -1.1933
 8029TIP3    H224052   3.204   3.059   0.774  0.2108  0.0941 -1.4617
 8030TIP3   OH224053   6.474   4.159   1.201  0.1673  0.2274 -0.1078
 8030TIP3    H124054   6.547   4.195   1.151 -0.2674  1.8882  0.4058
 8030TIP3    H224055   6.507   4.151   1.290  0.4930 -1.4235 -0.3368
 8031TIP3   OH224056   3.185   0.515   3.122  0.4524  0.0325  0.1449
 8031TIP3    H124057   3.172   0.607   3.141 -0.1532 -0.4038  2.0183
 8031TIP3    H224058   3.223   0.514   3.034  0.4023  2.0384  0.0558
 8032TIP3   OH224059   3.187   6.525   3.339  0.7885  0.2454  0.8077
 8032TIP3    H124060   3.183   6.512   3.245  3.3048  0.0313  0.6652
 8032TIP3    H224061   3.143   6.449   3.376 -0.0253  0.2264 -0.1787
 8033TIP3   OH224062   4.853   6.527   4.915 -0.5540 -0.0811  0.3325
 8033TIP3    H124063   4.927   6.588   4.912 -0.9043  0.2970 -1.0830
 8033TIP3    H224064   4.781   6.579   4.950 -0.3778 -0.2222  0.9223
 8034TIP3   OH224065   5.273   2.931   0.087 -0.3409  0.1665 -0.3743
 8034TIP3    H124066   5.319   2.847   0.084 -0.9123 -0.1443 -0.7743
 8034TIP3    H224067   5.245   2.946  -0.004  0.6187  1.2917 -0.5104
 8035TIP3   OH224068   0.927   5.281   1.794  0.6945 -0.0172  0.2074
 8035TIP3    H124069   0.925   5.253   1.885 -1.1695  2.0834  0.8910
 8035TIP3    H224070   0.889   5.208   1.745 -0.6489 -0.1774  1.4457
 8036TIP3   OH224071   4.778   1.901   5.213  0.4944 -0.1386 -0.3629
 8036TIP3    H124072   4.870   1.905   5.189  0.3234  1.6573 -0.8757
 8036TIP3    H224073   4.736   1.969   5.160 -0.8197  0.2535  1.0966
 8037TIP3   OH224074   2.100   2.804   4.852  0.5135 -0.7337  0.0676
 8037TIP3    H124075   2.184   2.757   4.854  0.1039 -1.5057 -0.2530
 8037TIP3    H224076   2.035   2.737   4.875 -0.2771 -0.7892 -2.1012
 8038TIP3   OH224077   2.397   1.683   5.417  0.3694 -0.5734 -0.1223
 8038TIP3    H124078   2.442   1.765   5.437  1.8117 -1.3488 -0.0624
 8038TIP3    H224079   2.462   1.630   5.371 -0.6124 -1.5984 -0.3904
 8039TIP3   OH224080   5.402   4.054   4.758  0.1546  0.4577 -0.1327
 8039TIP3    H124081   5.397   4.087   4.668 -1.6856  0.9936  0.1142
 8039TIP3    H224082   5.475   4.101   4.797  1.0929  0.0867 -1.3900
 8040TIP3   OH224083   2.801   2.087   5.646  0.6856  0.1057 -0.5217
 8040TIP3    H124084   2.836   2.081   5.735  0.6432 -0.4240 -0.5357
 8040TIP3    H224085   2.818   2.177   5.619  0.6318  0.2933  0.0513
 8041TIP3   OH224086   0.893   2.297   4.997  0.4848  0.5494  0.2732
 8041TIP3    H124087   0.915   2.283   5.089  1.3924 -2.0232 -0.2535
 8041TIP3    H224088   0.949   2.236   4.949 -1.0640  0.6893 -1.8848
 8042TIP3   OH224089   3.776   0.088   3.331 -0.0414  0.3632  0.4197
 8042TIP3    H124090   3.702   0.029   3.343 -0.1640 -0.1801 -2.2081
 8042TIP3    H224091   3.737   0.170   3.300  0.3632  0.4809  0.2082
 8043TIP3   OH224092   5.252   4.039   5.789 -0.4740  0.1645  0.0170
 8043TIP3    H124093   5.338   4.067   5.820  0.2157  0.7188 -2.2016
 8043TIP3    H224094   5.252   3.944   5.801  0.3380  0.1919  0.2987
 8044TIP3   OH224095   5.502   1.489   4.596 -0.4245  0.1555 -0.0406
 8044TIP3    H124096   5.555   1.496   4.675 -1.0070 -0.0844  0.3739
 8044TIP3    H224097   5.566   1.490   4.525  0.4233 -3.0606  0.5347
 8045TIP3   OH224098   6.635   0.692   5.360  0.1851  0.4114 -0.2667
 8045TIP3    H124099   6.686   0.773   5.351 -0.1447  0.5286 -1.1933
 8045TIP3    H224100   6.549   0.714   5.324 -0.1668 -0.1272  0.2253
 8046TIP3   OH224101   6.452   1.797   1.275 -0.1875  0.0814  0.3762
 8046TIP3    H124102   6.360   1.770   1.281  0.0532 -0.8441  0.0800
 8046TIP3    H224103   6.501   1.716   1.285  0.7113  0.8647  3.1692
 8047TIP3   OH224104   0.143   0.558   1.886  0.0649  0.4488 -0.0388
 8047TIP3    H124105   0.226   0.570   1.933  0.5411  1.4301 -1.0580
 8047TIP3    H224106   0.128   0.463   1.887  2.0322  0.0681 -1.1566
 8048TIP3   OH224107   6.043   5.357   2.702  0.8019  0.1363 -0.3588
 8048TIP3    H124108   6.075   5.447   2.705  1.1953  0.0073 -0.5605
 8048TIP3    H224109   6.074   5.324   2.618  0.1429  0.0003 -0.5491
 8049TIP3   OH224110   6.604   3.868   3.638 -0.4570 -0.5034 -0.3827
 8049TIP3    H124111   6.535   3.882   3.702  0.5087 -0.5367  0.7007
 8049TIP3    H224112   6.558   3.843   3.558 -1.8526  2.0311 -0.4547
 8050TIP3   OH224113   0.798   0.574   4.365  0.3413  0.1385 -0.0961
 8050TIP3    H124114   0.738   0.500   4.381 -1.7962  1.2466 -2.3277
 8050TIP3    H224115   0.857   0.542   4.297  1.3840 -0.4314  1.0247
 8051TIP3   OH224116   1.440   2.075   4.953 -0.1607  0.1755 -0.1994
 8051TIP3    H124117   1.482   2.045   4.873  1.6074  0.7756  0.4544
 8051TIP3    H224118   1.451   2.003   5.015  1.4927  0.9862  0.4922
 8052TIP3   OH224119   1.543   0.700   3.661  0.1447 -0.0091  0.0447
 8052TIP3    H124120   1.605   0.708   3.733 -0.5164  1.1179  0.5274
 8052TIP3    H224121   1.567   0.770   3.600 -0.6961  0.5213  0.2970
 8053TIP3   OH224122   2.121   1.092   2.051  0.2054 -0.2144  0.1019
 8053TIP3    H124123   2.064   1.045   2.112 -1.3601  0.5851 -0.6881
 8053TIP3    H224124   2.078   1.176   2.038  0.1020 -0.5813 -2.5516
 8054TIP3   OH224125   7.122   2.115   3.268 -0.6842 -0.0886 -0.3437
 8054TIP3    H124126   7.177   2.185   3.232  0.2665  0.3905  1.8696
 8054TIP3    H224127   7.043   2.117   3.215  0.8334  0.1413 -2.7332
 8055TIP3   OH224128   5.150   6.315   0.342  0.5456 -0.1198  0.7123
 8055TIP3    H124129   5.149   6.298   0.248 -0.4886 -1.0126  0.8757
 8055TIP3    H224130   5.058   6.318   0.367  0.7742  1.4062  1.4845
 8056TIP3   OH224131   0.339   0.505   5.494 -0.1769 -0.1762  0.1143
 8056TIP3    H124132   0.368   0.497   5.403  0.5689  0.8850  0.2407
 8056TIP3    H224133   0.250   0.471   5.493 -1.0712  1.9847 -1.5251
 8057TIP3   OH224134   1.739   6.302   0.559  0.1671  0.0746  0.1472
 8057TIP3    H124135   1.786   6.222   0.538  0.7059  0.3422  0.3213
 8057TIP3    H224136   1.669   6.307   0.493  0.9574  0.1647 -0.7157
 8058TIP3   OH224137   6.492   2.019   3.720  0.1460 -0.5285 -0.0629
 8058TIP3    H124138   6.479   2.114   3.727  0.6819 -0.4452 -0.1248
 8058TIP3    H224139   6.557   1.999   3.788  1.1039 -0.6153 -0.9714
 8059TIP3   OH224140   5.517   4.888   2.409 -0.8387  0.5520 -0.8411
 8059TIP3    H124141   5.473   4.834   2.475 -3.0202  0.3377 -2.3435
 8059TIP3    H224142   5.551   4.963   2.457 -0.9568 -0.3716  0.7451
 8060TIP3   OH224143   6.063   6.058   4.798 -0.5214  0.2447 -0.3770
 8060TIP3    H124144   6.006   5.981   4.800 -2.5987  1.5704 -2.8547
 8060TIP3    H224145   6.148   6.023   4.773 -0.3189 -1.6771  2.4626
 8061TIP3   OH224146   1.694   1.312   5.031  0.1946  0.4164  0.3701
 8061TIP3    H124147   1.635   1.365   5.085 -0.7456 -0.8050  0.5836
 8061TIP3    H224148   1.678   1.344   4.942 -0.6899  0.1961  0.4429
 8062TIP3   OH224149   6.009   3.662   0.497  0.1654 -0.2126  0.1011
 8062TIP3    H124150   6.024   3.755   0.516 -1.9249  0.1926 -0.0525
 8062TIP3    H224151   6.093   3.620   0.519  1.7726  1.9062 -1.5039
 8063TIP3   OH224152   0.293   1.313   0.803  0.3327  0.1818 -0.2606
 8063TIP3    H124153   0.257   1.397   0.831  3.1744  1.2849  0.4595
 8063TIP3    H224154   0.322   1.328   0.713  1.6587  0.2945  0.1680
 8064TIP3   OH224155   3.632   3.954   1.350 -0.0135  0.4395 -0.4468
 8064TIP3    H124156   3.598   3.868   1.377 -0.8403  1.1783  0.9878
 8064TIP3    H224157   3.723   3.938   1.327 -0.6996 -1.2148 -2.3215
 8065TIP3   OH224158   1.219   5.889   1.580  0.3882 -0.4457  0.0908
 8065TIP3    H124159   1.162   5.820   1.614 -1.1899  0.6686 -0.1971
 8065TIP3    H224160   1.169   5.929   1.508  1.1001  1.2133  0.4660
 8066TIP3   OH224161   3.450   0.240   1.056  0.1556  0.2808 -0.6032
 8066TIP3    H124162   3.523   0.234   0.995  0.4239 -0.3795 -0.2240
 8066TIP3    H224163   3.483   0.202   1.138 -0.3851  0.6134 -0.2204
 8067TIP3   OH224164   2.696   4.628   1.955  0.1418  0.3318 -0.6100
 8067TIP3    H124165   2.746   4.632   2.037  2.8213 -0.8193 -2.0448
 8067TIP3    H224166   2.674   4.719   1.937  1.5801  0.8893  0.2310
 8068TIP3   OH224167   5.449   0.939   4.486  0.4637  0.9146  0.4008
 8068TIP3    H124168   5.427   0.963   4.577 -2.6522 -2.0202  0.6253
 8068TIP3    H224169   5.407   1.006   4.433 -1.5282  0.3059  1.1210
 8069TIP3   OH224170   5.204   2.519   3.783 -0.1862 -0.1887 -0.6416
 8069TIP3    H124171   5.235   2.609   3.790  1.2629 -0.7585  1.0671
 8069TIP3    H224172   5.233   2.490   3.697 -0.5428  0.9207 -1.1505
 8070TIP3   OH224173   0.095   3.716   3.103 -0.0735  0.1149  0.2733
 8070TIP3    H124174   0.006   3.680   3.103  0.7656 -2.1820 -0.8640
 8070TIP3    H224175   0.091   3.789   3.041 -1.0697 -0.2511 -0.1230
 8071TIP3   OH224176   2.877   0.727   1.625 -0.5718 -0.0592 -0.3966
 8071TIP3    H124177   2.915   0.674   1.555  0.3546  0.6498 -0.4447
 8071TIP3    H224178   2.945   0.732   1.692 -1.4463 -0.7331  0.5856
 8072TIP3   OH224179   2.642   6.126   2.537 -0.0397  0.1568  0.3300
 8072TIP3    H124180   2.664   6.053   2.479 -0.2074 -0.0956  0.5810
 8072TIP3    H224181   2.646   6.089   2.625  1.4232  0.8339  0.5793
 8073TIP3   OH224182   6.018   0.358   3.231 -0.7873 -0.0602  0.3761
 8073TIP3    H124183   6.048   0.449   3.223 -0.7864 -0.1469 -0.7748
 8073TIP3    H224184   6.072   0.321   3.300 -1.8573  1.2350  1.9991
 8074TIP3   OH224185   0.328   6.763   4.767  0.1202 -0.6438  0.2906
 8074TIP3    H124186   0.304   6.680   4.725 -0.5311  0.7669 -2.3006
 8074TIP3    H224187   0.275   6.765   4.847  0.2943 -2.7829  0.5204
 8075TIP3   OH224188   4.531   4.651   3.795  0.4781  0.1799  0.2744
 8075TIP3    H124189   4.563   4.740   3.779 -1.7330  0.6807 -1.9800
 8075TIP3    H224190   4.459   4.662   3.858  0.0631  0.0330 -0.1689
 8076TIP3   OH224191   2.240   1.402   1.495 -0.4779  0.4115  0.0968
 8076TIP3    H124192   2.210   1.379   1.583  0.8255  1.0043  0.7107
 8076TIP3    H224193   2.301   1.474   1.508  0.3829 -0.0422 -1.2140
 8077TIP3   OH224194   4.156   1.133   0.431 -0.0847  0.5781  0.2409
 8077TIP3    H124195   4.180   1.225   0.427  2.7801  0.3586  4.9011
 8077TIP3    H224196   4.104   1.124   0.511 -0.0579 -1.8799  0.0851
 8078TIP3   OH224197   4.830   0.503   2.031  0.3006  0.3585  0.3171
 8078TIP3    H124198   4.902   0.446   2.002  0.6708  0.9327  0.0737
 8078TIP3    H224199   4.840   0.582   1.978  0.5893  1.1692  1.5404
 8079TIP3   OH224200   0.322   4.807   0.403  0.4061 -0.0477  0.3603
 8079TIP3    H124201   0.319   4.902   0.413  1.3868 -0.0738  0.9447
 8079TIP3    H224202   0.347   4.774   0.489 -0.2162 -0.8659  0.2466
 8080TIP3   OH224203   0.971   0.314   0.273 -0.0298  0.1341  0.4324
 8080TIP3    H124204   0.910   0.338   0.203  0.4392 -0.0213 -0.0312
 8080TIP3    H224205   1.005   0.229   0.247  1.5342  0.8805 -0.0984
 8081TIP3   OH224206   4.280   0.568   3.722  0.0138 -0.1304 -0.2883
 8081TIP3    H124207   4.332   0.493   3.750 -0.1717  0.6584  2.4702
 8081TIP3    H224208   4.189   0.538   3.731 -0.0618  0.3820  0.8930
 8082TIP3   OH224209   3.624   2.517   4.429  0.5258 -0.0146  0.3130
 8082TIP3    H124210   3.595   2.443   4.376  0.1123 -0.1370  0.7034
 8082TIP3    H224211   3.579   2.505   4.513 -0.3080  1.2044  0.0576
 8083TIP3   OH224212   0.435   3.214   2.863 -0.3855  0.6903 -0.4184
 8083TIP3    H124213   0.455   3.127   2.899  2.9370  0.9489 -1.2274
 8083TIP3    H224214   0.386   3.196   2.783  0.2282 -0.4806 -0.5556
 8084TIP3   OH224215   7.170   1.370   0.302  0.2121  0.2904  0.5305
 8084TIP3    H124216   7.125   1.323   0.372  0.0220  1.7879  1.4450
 8084TIP3    H224217   7.106   1.434   0.271  0.8232  0.6851  0.0627
 8085TIP3   OH224218   6.801   4.013   3.876 -0.2700 -0.3278 -0.0309
 8085TIP3    H124219   6.796   4.050   3.788  0.3408 -1.6029 -0.6276
 8085TIP3    H224220   6.752   3.931   3.870 -1.0255  0.0203  1.0799
 8086TIP3   OH224221   3.113   4.660   2.487  0.1315 -0.0228 -0.3727
 8086TIP3    H124222   3.160   4.743   2.483  2.1693 -1.0254  0.8639
 8086TIP3    H224223   3.161   4.603   2.427  0.1001 -0.8866  0.4026
 8087TIP3   OH224224   4.058   5.830   0.500  0.3233 -0.1182  0.3054
 8087TIP3    H124225   4.052   5.773   0.424  1.5897 -0.0085  0.0975
 8087TIP3    H224226   3.969   5.866   0.510  0.2865  0.4640 -1.5900
 8088TIP3   OH224227   5.951   5.789   0.481 -0.4439  0.2559 -0.3312
 8088TIP3    H124228   5.992   5.871   0.456 -0.1011  0.4775  0.9368
 8088TIP3    H224229   5.920   5.802   0.570 -0.1214 -1.0768  0.0089
 8089TIP3   OH224230   5.528   0.212   3.173 -0.0100 -0.4359  0.1566
 8089TIP3    H124231   5.586   0.176   3.106 -0.8027  0.0931 -0.8480
 8089TIP3    H224232   5.546   0.160   3.251  1.8593 -0.2342 -0.0917
 8090TIP3   OH224233   0.345   2.217   0.260  0.3883  0.1865  0.3799
 8090TIP3    H124234   0.283   2.289   0.268  0.6410  0.3656  0.7410
 8090TIP3    H224235   0.302   2.144   0.304  1.2864  0.8630  2.5213
 8091TIP3   OH224236   1.372   6.639   5.038 -0.0177 -0.1908  0.0355
 8091TIP3    H124237   1.302   6.703   5.047 -0.1466 -0.4457  0.9566
 8091TIP3    H224238   1.394   6.640   4.945 -0.9060  0.2454 -0.1769
 8092TIP3   OH224239   7.096   0.974   5.470 -0.1438  0.9437  0.1454
 8092TIP3    H124240   7.114   1.042   5.405  0.8254  0.5786  0.0107
 8092TIP3    H224241   7.160   0.906   5.451 -0.4129  0.4582  0.9496
 8093TIP3   OH224242   4.192   3.511   4.923  0.3674  0.0543 -0.1225
 8093TIP3    H124243   4.098   3.496   4.914  0.3411  0.2193 -0.1442
 8093TIP3    H224244   4.205   3.598   4.883  0.0747  1.3682  2.4662
 8094TIP3   OH224245   1.805   4.481   2.543  0.2198  0.5328 -0.2797
 8094TIP3    H124246   1.825   4.575   2.544 -1.6270  1.0149  2.4750
 8094TIP3    H224247   1.717   4.476   2.505  0.1568 -0.0326 -0.0627
 8095TIP3   OH224248   4.861   2.991   1.643  0.0760 -0.2949  0.0153
 8095TIP3    H124249   4.805   3.067   1.636  1.4277  0.8661  1.0787
 8095TIP3    H224250   4.935   3.009   1.585  0.0426 -1.1495 -0.3150
 8096TIP3   OH224251   5.928   5.116   0.767 -0.2318  0.1281 -0.4948
 8096TIP3    H124252   6.022   5.101   0.753 -0.2963 -0.3072 -0.4960
 8096TIP3    H224253   5.922   5.207   0.796  0.0144  0.7494 -2.2908
 8097TIP3   OH224254   2.439   2.584   3.227  0.4458 -0.4348  0.0490
 8097TIP3    H124255   2.416   2.640   3.153  0.8639 -0.6627 -0.2610
 8097TIP3    H224256   2.389   2.619   3.301  2.3404  1.7086  0.3905
 8098TIP3   OH224257   3.193   3.287   3.253 -0.0367  0.3039 -0.2533
 8098TIP3    H124258   3.234   3.257   3.171  1.9096  0.1721  0.7056
 8098TIP3    H224259   3.234   3.232   3.321 -1.9790  0.0665  0.7822
 8099TIP3   OH224260   3.353   0.917   1.248 -0.0382 -0.0971  0.3523
 8099TIP3    H124261   3.307   0.878   1.173  2.3749  2.1445 -2.5533
 8099TIP3    H224262   3.433   0.865   1.257 -0.2548 -0.2703  1.3309
 8100TIP3   OH224263   4.182   6.020   1.257 -0.3121 -0.7038  0.3011
 8100TIP3    H124264   4.188   5.934   1.215 -0.6006 -0.7437  0.3443
 8100TIP3    H224265   4.257   6.022   1.317 -0.1413 -0.8122  0.0933
 8101TIP3   OH224266   5.096   4.196   1.634 -0.3307  0.4150  0.2714
 8101TIP3    H124267   5.144   4.196   1.551  0.0730 -3.2305  0.3306
 8101TIP3    H224268   5.037   4.120   1.628  0.5822 -0.7787  3.6871
 8102TIP3   OH224269   0.201   1.444   2.562 -0.1077 -0.3622 -0.0554
 8102TIP3    H124270   0.133   1.378   2.547  0.6130 -1.4037  1.0930
 8102TIP3    H224271   0.195   1.502   2.486 -0.4731 -2.0078 -1.3495
 8103TIP3   OH224272   6.879   4.191   3.395  0.3999 -0.0938  0.1745
 8103TIP3    H124273   6.853   4.127   3.328 -2.4783  1.7831 -0.7001
 8103TIP3    H224274   6.963   4.225   3.365  0.3721 -1.0819 -1.1237
 8104TIP3   OH224275   3.735   4.693   0.613  0.7804  0.2728  0.4329
 8104TIP3    H124276   3.740   4.748   0.535  2.8144 -1.2731 -0.6261
 8104TIP3    H224277   3.674   4.624   0.590  0.0369  0.7571  0.8971
 8105TIP3   OH224278   4.644   2.765   3.587 -0.0429  0.2940 -0.0338
 8105TIP3    H124279   4.599   2.746   3.669 -2.1263  0.2698 -1.0969
 8105TIP3    H224280   4.686   2.850   3.602  0.0130  0.0660  1.1975
 8106TIP3   OH224281   1.516   1.042   0.676  0.5330 -0.1254  0.3016
 8106TIP3    H124282   1.563   1.119   0.647 -0.5512  0.4957  0.1307
 8106TIP3    H224283   1.427   1.055   0.644  0.3567 -1.5025  0.1681
 8107TIP3   OH224284   7.091   6.280   5.488  0.6181 -0.1238  0.7950
 8107TIP3    H124285   7.029   6.351   5.500  1.1057  0.5516 -0.4175
 8107TIP3    H224286   7.040   6.200   5.500 -0.5920  0.4024 -0.5468
 8108TIP3   OH224287   0.517   4.086   1.769 -0.1810  0.2343  0.0646
 8108TIP3    H124288   0.550   4.153   1.709 -1.2978  1.3382  0.6330
 8108TIP3    H224289   0.531   4.123   1.856  0.1291 -0.7331  0.4389
 8109TIP3   OH224290   1.268   0.417   4.326  0.2343  0.6317  0.2639
 8109TIP3    H124291   1.319   0.485   4.370  2.5584 -0.9215  0.1530
 8109TIP3    H224292   1.319   0.395   4.248  0.4670 -2.3007  1.1230
 8110TIP3   OH224293   0.829   3.704   3.730  0.2095  0.0747  0.4924
 8110TIP3    H124294   0.892   3.683   3.660 -0.8820 -1.3003 -0.1344
 8110TIP3    H224295   0.749   3.728   3.684 -0.2481  0.0917  1.2760
 8111TIP3   OH224296   2.920   2.938   2.448 -0.2265 -0.1099 -0.4897
 8111TIP3    H124297   2.834   2.924   2.487  0.2507 -0.5879  0.4402
 8111TIP3    H224298   2.969   2.859   2.471  0.7471  0.5632 -0.1897
 8112TIP3   OH224299   5.543   2.267   0.384  0.1179 -0.3636  0.3537
 8112TIP3    H124300   5.584   2.241   0.302  1.6348  0.7481  0.7169
 8112TIP3    H224301   5.560   2.361   0.391 -2.0524  0.0366  0.8177
 8113TIP3   OH224302   1.370   0.234   3.167  0.1207 -0.3605 -0.1069
 8113TIP3    H124303   1.344   0.272   3.083 -1.3906 -1.3354 -0.1139
 8113TIP3    H224304   1.347   0.301   3.232  1.2133  0.3584 -0.4372
 8114TIP3   OH224305   0.456   1.788   3.278  0.4912 -0.0998 -0.0245
 8114TIP3    H124306   0.472   1.747   3.363 -0.7397 -0.1579  0.1984
 8114TIP3    H224307   0.429   1.878   3.299 -1.2442 -0.5293 -0.2398
 8115TIP3   OH224308   3.401   5.745   2.712 -0.5224 -0.0855  0.0140
 8115TIP3    H124309   3.322   5.698   2.738 -0.4715  0.1456  0.5906
 8115TIP3    H224310   3.471   5.679   2.718 -0.5987 -0.1717 -0.0528
 8116TIP3   OH224311   2.911   1.095   3.152 -0.1878 -0.0093 -0.6814
 8116TIP3    H124312   2.944   1.053   3.073 -1.4956  0.5720 -1.5685
 8116TIP3    H224313   2.983   1.151   3.182  0.3506 -0.3147 -1.3979
 8117TIP3   OH224314   3.348   2.473   2.866  0.2229 -0.2282  0.0181
 8117TIP3    H124315   3.439   2.444   2.864  0.4588  0.5230 -0.2881
 8117TIP3    H224316   3.313   2.449   2.780  0.6667  1.1425 -0.5734
 8118TIP3   OH224317   5.132   6.404   4.802  0.2306  0.1644  0.1525
 8118TIP3    H124318   5.070   6.335   4.777  0.3514  0.7776 -2.0230
 8118TIP3    H224319   5.123   6.470   4.734  1.7652  1.2706  0.9618
 8119TIP3   OH224320   4.695   4.123   1.939 -0.3129  0.0449 -0.4791
 8119TIP3    H124321   4.757   4.154   2.004  0.8494 -1.9253 -0.5767
 8119TIP3    H224322   4.712   4.029   1.932 -0.1502  0.2236 -3.8667
 8120TIP3   OH224323   2.582   3.185   5.526  0.0861 -0.2543  0.0932
 8120TIP3    H124324   2.548   3.181   5.616  1.1948  2.6661  0.7489
 8120TIP3    H224325   2.676   3.172   5.535  0.2833  0.6434 -0.5588
 8121TIP3   OH224326   3.391   6.070   0.804  0.3247  0.0289 -0.3889
 8121TIP3    H124327   3.366   5.977   0.805 -1.0578  0.3752 -0.6810
 8121TIP3    H224328   3.318   6.114   0.760  0.2822  1.4360  1.0009
 8122TIP3   OH224329   6.339   5.422   1.774 -0.0722  0.5430 -0.0561
 8122TIP3    H124330   6.418   5.470   1.748 -0.1069  0.5290 -0.1887
 8122TIP3    H224331   6.337   5.429   1.870 -1.8595  3.7084 -0.1923
 8123TIP3   OH224332   0.880   1.030   1.492 -0.0367 -0.5220  0.3181
 8123TIP3    H124333   0.793   1.044   1.455  0.1855 -1.8324 -0.7853
 8123TIP3    H224334   0.866   0.977   1.570 -0.3776  0.9634  1.2992
 8124TIP3   OH224335   3.291   3.386   5.389  0.1159 -0.2139 -0.0102
 8124TIP3    H124336   3.199   3.358   5.395  0.1545 -0.1201  1.2721
 8124TIP3    H224337   3.337   3.309   5.355 -0.3766 -0.3873 -0.2941
 8125TIP3   OH224338   0.677   1.910   2.588  0.5617 -0.0357  0.1290
 8125TIP3    H124339   0.686   1.970   2.514 -0.1346  0.4954  0.4692
 8125TIP3    H224340   0.629   1.835   2.552  0.1003  0.2838  0.0733
 8126TIP3   OH224341   2.928   2.266   5.472 -0.3550  0.1382  0.1566
 8126TIP3    H124342   2.962   2.182   5.442 -0.6648 -0.4678  1.4098
 8126TIP3    H224343   2.988   2.331   5.436  1.1994 -0.7871  0.9889
 8127TIP3   OH224344   2.979   0.822   2.651 -0.0262 -0.1842  0.0836
 8127TIP3    H124345   2.980   0.748   2.591  0.1011  1.4460 -2.0604
 8127TIP3    H224346   2.906   0.805   2.710  0.5048 -2.3631  0.1963
 8128TIP3   OH224347   0.047   5.871   0.732 -0.7093 -0.1033  0.2412
 8128TIP3    H124348  -0.016   5.925   0.685 -1.5359 -2.2871 -1.3131
 8128TIP3    H224349   0.015   5.781   0.721  1.2509 -1.0546  1.6640
 8129TIP3   OH224350   5.136   4.608   5.415 -0.3859  0.1757  0.1264
 8129TIP3    H124351   5.060   4.650   5.374  0.2348 -0.0424 -1.3058
 8129TIP3    H224352   5.198   4.680   5.429 -0.1263  0.0654 -0.4393
 8130TIP3   OH224353   1.051   1.033   0.767  0.1031  0.1548  0.7631
 8130TIP3    H124354   0.999   1.011   0.844 -2.4507 -1.3403 -1.2334
 8130TIP3    H224355   0.987   1.060   0.701  1.9984 -0.1944 -1.3466
 8131TIP3   OH224356   6.903   3.446   4.553  0.5154 -0.4047 -0.1382
 8131TIP3    H124357   6.910   3.426   4.459 -0.5103 -0.5462 -0.1923
 8131TIP3    H224358   6.955   3.377   4.595  2.4126  0.6425 -0.6706
 8132TIP3   OH224359   2.316   0.927   4.141  0.2504  0.5108 -0.2684
 8132TIP3    H124360   2.250   0.993   4.161  1.1672  1.7030 -1.0396
 8132TIP3    H224361   2.398   0.966   4.171  0.7620 -0.4135 -0.4482
 8133TIP3   OH224362   6.698   5.886   1.066 -0.5358  0.3340  0.0484
 8133TIP3    H124363   6.683   5.829   0.990 -1.0442  3.2075 -2.1573
 8133TIP3    H224364   6.793   5.883   1.079 -0.5639 -1.1028  0.0964
 8134TIP3   OH224365   0.656   1.617   1.690 -0.4347  0.1732  0.0768
 8134TIP3    H124366   0.567   1.641   1.664 -0.3056 -0.5967 -1.1219
 8134TIP3    H224367   0.645   1.534   1.737 -0.2921 -0.2019 -0.5515
 8135TIP3   OH224368   1.045   2.894   3.224 -0.0088 -0.1536 -0.7938
 8135TIP3    H124369   1.126   2.945   3.217 -0.6171  1.3461  1.7040
 8135TIP3    H224370   1.042   2.866   3.315 -1.4916 -1.6293 -1.2485
 8136TIP3   OH224371   1.727   0.630   5.056 -0.6599  0.4474 -0.4951
 8136TIP3    H124372   1.689   0.638   4.968 -1.0379  1.6359 -0.2406
 8136TIP3    H224373   1.711   0.715   5.097  2.0591  0.9620 -0.2846
 8137TIP3   OH224374   4.041   0.280   0.172 -0.0847 -0.5321 -0.2885
 8137TIP3    H124375   3.946   0.266   0.174 -0.3344  0.5614 -2.3947
 8137TIP3    H224376   4.077   0.199   0.208 -1.7835 -1.3501 -0.3109
 8138TIP3   OH224377   0.386   4.542   2.903  0.1400 -0.2752  0.1248
 8138TIP3    H124378   0.411   4.454   2.929 -0.0888 -0.7086 -1.0488
 8138TIP3    H224379   0.462   4.575   2.855 -0.0601 -0.1373 -0.1046
 8139TIP3   OH224380   3.148   1.779   3.304 -0.5445  1.1934  0.0803
 8139TIP3    H124381   3.148   1.690   3.339  0.7445  1.2307  0.2186
 8139TIP3    H224382   3.231   1.786   3.255  0.1489  2.8065  1.3736
 8140TIP3   OH224383   3.073   5.456   5.720 -0.1244 -0.9647 -0.2711
 8140TIP3    H124384   3.020   5.513   5.774  0.5055 -0.4180 -0.2125
 8140TIP3    H224385   3.047   5.476   5.630 -0.2130 -0.8986 -0.2304
 8141TIP3   OH224386   1.541   5.545   4.687 -0.0047  0.5210 -0.7888
 8141TIP3    H124387   1.523   5.602   4.762 -0.4032 -0.0070 -0.4691
 8141TIP3    H224388   1.457   5.503   4.668  0.2483  0.1480 -1.1045
 8142TIP3   OH224389   3.350   0.834   2.920 -0.1718  0.0456 -0.5002
 8142TIP3    H124390   3.286   0.764   2.934  0.3279 -0.1459  0.9402
 8142TIP3    H224391   3.435   0.790   2.927  0.1582  0.2909 -2.4046
 8143TIP3   OH224392   2.962   0.123   4.319 -0.3407  0.2261 -0.1908
 8143TIP3    H124393   3.040   0.131   4.263 -1.7112  0.8831 -2.0985
 8143TIP3    H224394   2.934   0.033   4.309 -0.6373  0.3673 -0.6561
 8144TIP3   OH224395   3.305   6.755   3.125 -0.3175  0.2389  0.3780
 8144TIP3    H124396   3.304   6.709   3.209  0.2829 -0.3301  0.0822
 8144TIP3    H224397   3.379   6.815   3.132 -1.0285  1.0998  0.7190
 8145TIP3   OH224398   6.985   4.756   4.738  0.3187 -0.1169  0.1315
 8145TIP3    H124399   7.010   4.720   4.823 -1.6040 -2.6311 -0.2426
 8145TIP3    H224400   7.057   4.732   4.680 -0.4166 -2.6476  0.1395
 8146TIP3   OH224401   3.685   5.552   1.061  0.2313  0.0722 -0.0097
 8146TIP3    H124402   3.743   5.595   1.124  0.8856  1.3837 -1.4576
 8146TIP3    H224403   3.613   5.614   1.048 -0.4886 -0.6872  0.2815
 8147TIP3   OH224404   6.942   0.870   0.673  0.1692  0.1849  0.1624
 8147TIP3    H124405   6.934   0.796   0.734 -1.4625 -1.8014 -2.2659
 8147TIP3    H224406   6.963   0.830   0.589 -0.7678  2.4931 -1.2716
 8148TIP3   OH224407   1.760   3.809   3.524 -0.7792  0.9951  0.4084
 8148TIP3    H124408   1.841   3.860   3.528  0.0154 -0.0334 -1.4967
 8148TIP3    H224409   1.762   3.767   3.439 -1.8578 -1.4630  1.4999
 8149TIP3   OH224410   0.865   2.263   2.649 -0.4539  0.6253  0.0416
 8149TIP3    H124411   0.794   2.286   2.589 -0.1711  0.8296 -0.2165
 8149TIP3    H224412   0.929   2.333   2.639 -0.2084  0.4369  0.2642
 8150TIP3   OH224413   7.135   1.700   0.533 -0.1723 -0.0027  0.0254
 8150TIP3    H124414   7.214   1.672   0.577 -1.3203 -2.4540  0.6877
 8150TIP3    H224415   7.076   1.726   0.603 -0.3901  0.6548 -0.3890
 8151TIP3   OH224416   3.408   0.883   4.969  0.1939 -0.1079 -0.6477
 8151TIP3    H124417   3.428   0.921   4.884 -2.4750  0.6163 -1.0669
 8151TIP3    H224418   3.368   0.954   5.019  1.8505 -0.4655  1.3416
 8152TIP3   OH224419   5.970   0.448   5.717  0.7543 -0.4716 -0.1259
 8152TIP3    H124420   6.031   0.520   5.701 -1.6387  2.0247  1.0508
 8152TIP3    H224421   5.920   0.441   5.636 -0.4339  0.7588  0.4637
 8153TIP3   OH224422   6.747   0.226   2.443  0.0424  0.1912 -0.1680
 8153TIP3    H124423   6.670   0.278   2.420  0.1096  0.3545 -0.0361
 8153TIP3    H224424   6.811   0.291   2.474  0.5816  0.1670 -1.1810
 8154TIP3   OH224425   0.627   2.167   0.454 -0.5692 -0.4901 -0.3261
 8154TIP3    H124426   0.554   2.200   0.507 -0.3705 -2.0499  0.9982
 8154TIP3    H224427   0.593   2.087   0.415  0.8130 -2.0601  1.4891
 8155TIP3   OH224428   2.567   1.249   4.983 -0.5226  0.0330  0.4885
 8155TIP3    H124429   2.473   1.246   4.969 -0.5450  2.7546 -0.5309
 8155TIP3    H224430   2.577   1.280   5.073 -0.6858  1.6192 -0.0070
 8156TIP3   OH224431   1.737   1.380   2.398 -0.0841  0.6493  0.3337
 8156TIP3    H124432   1.742   1.293   2.438  1.1147  0.1696 -0.7803
 8156TIP3    H224433   1.648   1.410   2.418 -0.2747 -0.4941  1.3900
 8157TIP3   OH224434   6.589   3.189   0.975 -0.1568 -0.4743  0.0425
 8157TIP3    H124435   6.560   3.277   0.998  0.5652 -0.3059  0.3457
 8157TIP3    H224436   6.668   3.202   0.922 -0.2982 -0.9295 -0.2939
 8158TIP3   OH224437   1.642   0.153   1.341 -0.2022 -0.5431 -0.1304
 8158TIP3    H124438   1.673   0.124   1.255  0.3718  1.2867 -0.5863
 8158TIP3    H224439   1.715   0.135   1.400  0.3412  0.3584 -0.5032
 8159TIP3   OH224440   5.617   0.076   5.458  0.0861 -0.0320 -0.1193
 8159TIP3    H124441   5.617   0.074   5.362 -0.4786 -0.5281 -0.1147
 8159TIP3    H224442   5.708   0.056   5.482  0.5396  1.3723 -0.5535
 8160TIP3   OH224443   5.206   3.210   1.165  0.5622  0.3767  0.1655
 8160TIP3    H124444   5.248   3.240   1.084 -0.1497 -1.2562 -0.8782
 8160TIP3    H224445   5.268   3.233   1.234  1.4911  1.2525 -0.8967
 8161TIP3   OH224446   0.377   0.694   2.765  0.5961  0.1032 -0.9596
 8161TIP3    H124447   0.470   0.690   2.785  0.8002  1.5397 -1.4861
 8161TIP3    H224448   0.363   0.784   2.734 -0.8263 -0.3007 -1.5721
 8162TIP3   OH224449   4.447   4.943   2.642  0.2675 -0.2852  0.4661
 8162TIP3    H124450   4.500   4.910   2.714 -0.1074 -1.6586  0.1408
 8162TIP3    H224451   4.448   5.038   2.653  0.8270 -0.4289  1.8308
 8163TIP3   OH224452   1.256   4.474   2.274  0.3639  0.2174  0.3879
 8163TIP3    H124453   1.326   4.528   2.236  0.1926 -1.0854 -1.9941
 8163TIP3    H224454   1.224   4.421   2.200 -1.5730 -0.8915  1.9264
 8164TIP3   OH224455   1.391   0.965   2.937 -0.2736  0.0906 -0.1932
 8164TIP3    H124456   1.462   0.908   2.906 -0.0290  0.5220 -0.4355
 8164TIP3    H224457   1.419   0.993   3.024 -1.0574 -1.2893  0.5529
 8165TIP3   OH224458   5.987   6.729   2.488  0.2587 -0.1223 -0.1046
 8165TIP3    H124459   6.019   6.724   2.398 -0.4764  1.6539 -0.4982
 8165TIP3    H224460   6.064   6.711   2.542  0.2969 -3.4688 -1.0200
 8166TIP3   OH224461   5.611   3.816   0.873  0.3310  0.1948  0.3355
 8166TIP3    H124462   5.564   3.734   0.890  0.8352 -0.2158 -0.2082
 8166TIP3    H224463   5.620   3.857   0.958  0.6668 -0.6377  0.7065
 8167TIP3   OH224464   2.160   2.602   5.740 -0.3889 -0.0224  0.0509
 8167TIP3    H124465   2.084   2.548   5.720 -0.7198  0.3824  0.2211
 8167TIP3    H224466   2.183   2.643   5.656  0.6306 -1.3791 -0.3791
 8168TIP3   OH224467   1.460   6.489   3.870  0.0273  0.0888 -0.2265
 8168TIP3    H124468   1.482   6.516   3.959  0.7928 -0.3505 -0.2771
 8168TIP3    H224469   1.381   6.539   3.849  0.7184  1.3708  0.1235
 8169TIP3   OH224470   6.590   0.453   2.342 -0.3647 -0.5296 -0.3318
 8169TIP3    H124471   6.585   0.507   2.421  0.4705 -0.6882 -0.1680
 8169TIP3    H224472   6.511   0.400   2.345  0.1038 -1.1933  0.8888
 8170TIP3   OH224473   2.385   0.537   2.709 -0.6148 -0.6228 -0.2089
 8170TIP3    H124474   2.303   0.492   2.732  0.3050 -2.5816 -0.5062
 8170TIP3    H224475   2.371   0.565   2.618 -1.4780  0.4208  0.2169
 8171TIP3   OH224476   3.356   3.141   1.492  0.4320  0.3327  0.1690
 8171TIP3    H124477   3.356   3.168   1.400 -0.2410  1.5873  0.5061
 8171TIP3    H224478   3.268   3.104   1.506  0.5074  0.2112  0.3212
 8172TIP3   OH224479   5.945   4.876   1.097  0.6912 -0.1644 -0.5128
 8172TIP3    H124480   6.025   4.894   1.146  0.2374  0.9160 -0.1214
 8172TIP3    H224481   5.969   4.808   1.034  1.6098 -0.6707  0.3614
 8173TIP3   OH224482   5.827   2.903   0.389 -0.0096  0.3519 -0.7398
 8173TIP3    H124483   5.742   2.913   0.430  0.6772 -0.7209  1.0345
 8173TIP3    H224484   5.890   2.931   0.456  1.1205 -0.8567 -1.2450
 8174TIP3   OH224485   2.251   4.253   4.768 -0.4564 -0.0221 -0.4440
 8174TIP3    H124486   2.291   4.175   4.805 -1.9182  0.0707  1.4826
 8174TIP3    H224487   2.288   4.326   4.818  0.7095  0.5405 -2.0555
 8175TIP3   OH224488   2.901   3.967   3.513 -0.3403 -0.1848  0.6639
 8175TIP3    H124489   2.888   4.030   3.583 -0.9007 -1.2052  1.5083
 8175TIP3    H224490   2.831   3.984   3.450 -1.6052 -1.1413  1.7850
 8176TIP3   OH224491   6.022   2.535   5.327  0.1500 -0.0738  0.4625
 8176TIP3    H124492   6.059   2.623   5.329  0.6770 -0.3113  1.7696
 8176TIP3    H224493   5.995   2.517   5.417 -3.6864  0.2543 -0.4245
 8177TIP3   OH224494   1.033   1.198   3.488  0.5331 -0.6126  0.3610
 8177TIP3    H124495   1.119   1.182   3.450  0.3060  0.8038 -0.8572
 8177TIP3    H224496   1.015   1.291   3.470 -1.4686 -0.9904  0.0980
 8178TIP3   OH224497   5.530   2.661   5.524  0.3468  0.4878  0.1251
 8178TIP3    H124498   5.487   2.714   5.456 -0.1711 -1.1740 -0.9268
 8178TIP3    H224499   5.506   2.703   5.606  0.6710  2.3461 -0.6764
 8179TIP3   OH224500   4.224   4.945   2.250 -0.4328  0.1197 -0.0622
 8179TIP3    H124501   4.300   5.000   2.271 -0.6230  0.4350 -0.1970
 8179TIP3    H224502   4.213   4.889   2.327 -0.1934  0.2180  0.0452
 8180TIP3   OH224503   2.916   0.102   3.267  0.1445  0.0819  0.8303
 8180TIP3    H124504   2.995   0.155   3.256 -0.3094  0.3942 -1.3988
 8180TIP3    H224505   2.844   0.165   3.259 -0.3577 -0.4676  1.0004
 8181TIP3   OH224506   1.890   1.575   1.770  0.8070 -0.5746 -0.0934
 8181TIP3    H124507   1.897   1.634   1.845 -0.6293 -0.3037 -0.1560
 8181TIP3    H224508   1.811   1.523   1.787  0.0232  0.0041 -1.7671
 8182TIP3   OH224509   2.369   5.840   2.781  0.5765  0.6568  0.0944
 8182TIP3    H124510   2.422   5.889   2.844 -0.6170 -0.1179  1.7562
 8182TIP3    H224511   2.341   5.762   2.828 -1.4778  0.6917 -0.9456
 8183TIP3   OH224512   6.926   6.448   4.114  0.2398 -0.0538  0.0606
 8183TIP3    H124513   6.972   6.530   4.132 -0.3088  0.4658 -0.8497
 8183TIP3    H224514   6.982   6.403   4.051  0.1077  0.0199 -0.1091
 8184TIP3   OH224515   4.177   3.144   1.020 -0.1372 -0.3927  0.4090
 8184TIP3    H124516   4.153   3.206   1.088 -0.0627 -0.9636  0.9627
 8184TIP3    H224517   4.112   3.074   1.027 -1.7080  0.7289 -1.7873
 8185TIP3   OH224518   2.590   6.311   4.736 -0.4967 -0.0525 -0.9046
 8185TIP3    H124519   2.575   6.323   4.642  1.8917  1.6995 -1.1810
 8185TIP3    H224520   2.660   6.246   4.741  0.9420  1.4464 -0.5455
 8186TIP3   OH224521   2.946   3.024   5.060 -0.4294  0.9135  0.1262
 8186TIP3    H124522   2.950   3.000   5.153 -0.6459 -0.3657 -0.1777
 8186TIP3    H224523   2.884   2.962   5.022 -0.1135  1.2310 -0.9381
 8187TIP3   OH224524   1.368   0.995   3.651  0.4132  0.1449  0.2401
 8187TIP3    H124525   1.443   1.048   3.676 -0.2203  0.0816  2.4257
 8187TIP3    H224526   1.337   0.956   3.733 -1.4663 -0.5419 -0.7351
 8188TIP3   OH224527   5.150   1.352   4.945  0.1976 -0.3718 -0.0859
 8188TIP3    H124528   5.151   1.402   5.027 -0.1313  0.3083 -0.4858
 8188TIP3    H224529   5.242   1.333   4.928  0.2096 -1.3050  0.8987
 8189TIP3   OH224530   4.725   0.582   1.128 -0.2421 -0.3323  0.2833
 8189TIP3    H124531   4.676   0.590   1.210 -0.5449  1.3774 -0.0272
 8189TIP3    H224532   4.811   0.618   1.147  0.3480 -1.6861  0.3335
 8190TIP3   OH224533   1.451   5.621   1.081  1.0565 -0.2008 -0.8436
 8190TIP3    H124534   1.465   5.680   1.154  0.7912 -1.8908  0.6297
 8190TIP3    H224535   1.530   5.632   1.026  1.5442  0.6413  0.0064
 8191TIP3   OH224536   1.334   5.562   4.046 -0.3291 -0.0134 -0.3421
 8191TIP3    H124537   1.363   5.573   4.137 -0.9264  0.1356 -0.1638
 8191TIP3    H224538   1.355   5.645   4.003 -0.4996  0.0975 -0.2121
 8192TIP3   OH224539   2.509   3.859   4.098  0.4414 -0.3007 -0.1050
 8192TIP3    H124540   2.530   3.891   4.186 -1.9941 -2.0690  1.2457
 8192TIP3    H224541   2.449   3.924   4.063 -0.9301 -1.0190  0.8074
 8193TIP3   OH224542   6.601   3.983   5.406 -0.8034 -0.5121  0.3624
 8193TIP3    H124543   6.612   3.994   5.312 -1.2415  2.8521  0.5730
 8193TIP3    H224544   6.688   3.959   5.438 -0.0290  0.7686 -0.6841
 8194TIP3   OH224545   5.305   5.129   1.795 -0.0280 -0.0979 -0.3655
 8194TIP3    H124546   5.262   5.075   1.861 -0.5550 -0.3253 -0.8875
 8194TIP3    H224547   5.277   5.218   1.815 -2.9774 -0.4489 -2.2581
 8195TIP3   OH224548   5.460   4.276   1.310 -0.2566  0.4441  0.0040
 8195TIP3    H124549   5.503   4.244   1.231 -2.6325 -1.8189 -0.5119
 8195TIP3    H224550   5.448   4.370   1.295 -1.3468 -0.0511 -2.7187
 8196TIP3   OH224551   3.203   0.209   5.402  0.6362  0.1865  0.0246
 8196TIP3    H124552   3.198   0.270   5.476 -1.2093 -0.1042  0.1811
 8196TIP3    H224553   3.176   0.260   5.326  1.0916  0.0885 -0.2117
 8197TIP3   OH224554   1.401   5.693   0.652  0.0577  0.3030  0.2282
 8197TIP3    H124555   1.493   5.714   0.667  0.5423 -1.4573 -0.0901
 8197TIP3    H224556   1.390   5.604   0.686 -2.1292  1.2881  2.4423
 8198TIP3   OH224557   6.421   2.845   4.123 -0.2654  0.1612  0.1984
 8198TIP3    H124558   6.490   2.832   4.059  0.3476  0.6650  0.7496
 8198TIP3    H224559   6.407   2.757   4.161  0.8630  0.2513  0.8720
 8199TIP3   OH224560   2.172   2.150   0.741  0.7921  0.3054  0.2939
 8199TIP3    H124561   2.264   2.142   0.766  1.1992  1.2357 -0.8028
 8199TIP3    H224562   2.131   2.198   0.814  1.2288  0.1241  0.6624
 8200TIP3   OH224563   3.609   4.929   1.875 -0.3650  0.3048 -0.5299
 8200TIP3    H124564   3.518   4.905   1.856 -0.5846  0.5244  0.2482
 8200TIP3    H224565   3.650   4.933   1.788 -0.8142 -0.8819 -0.8310
 8201TIP3   OH224566   2.143   3.058   1.389  0.7319 -0.1765 -0.1282
 8201TIP3    H124567   2.231   3.083   1.418  0.6013  1.8477 -1.2578
 8201TIP3    H224568   2.147   3.065   1.293 -0.5059 -0.5933 -0.2282
 8202TIP3   OH224569   3.725   5.831   4.332 -0.4369 -0.2239 -0.0235
 8202TIP3    H124570   3.813   5.794   4.323  0.0223  0.6736  0.5905
 8202TIP3    H224571   3.676   5.764   4.380  0.2135 -0.2901  0.5712
 8203TIP3   OH224572   4.151   5.598   5.786  0.2179 -0.1904  0.2708
 8203TIP3    H124573   4.161   5.556   5.701  0.5456 -0.6015  0.5129
 8203TIP3    H224574   4.240   5.608   5.820  0.3657  2.5483 -0.6470
 8204TIP3   OH224575   1.088   1.847   0.757 -0.1495 -0.3989  0.0554
 8204TIP3    H124576   1.163   1.869   0.702 -0.8990 -1.0349 -1.2906
 8204TIP3    H224577   1.030   1.923   0.750 -0.3601 -0.5856 -0.2562
 8205TIP3   OH224578   6.244   6.745   3.823  0.0034 -0.1657  0.4411
 8205TIP3    H124579   6.319   6.801   3.842  0.5512 -0.4159 -0.8233
 8205TIP3    H224580   6.222   6.704   3.906  0.3021  1.0650  1.1499
 8206TIP3   OH224581   3.849   5.277   3.207  0.5803 -0.0123  0.2492
 8206TIP3    H124582   3.774   5.336   3.221  0.8128  0.0973  1.0875
 8206TIP3    H224583   3.910   5.301   3.276  1.0806 -0.6083  0.0124
 8207TIP3   OH224584   5.978   4.572   4.463 -0.2057  0.2913 -0.0447
 8207TIP3    H124585   5.896   4.525   4.479 -0.6184  0.4760 -1.5263
 8207TIP3    H224586   5.965   4.658   4.503 -0.0703 -0.2372  1.2059
 8208TIP3   OH224587   6.040   5.582   4.815 -0.4723  0.1372  0.0103
 8208TIP3    H124588   5.968   5.530   4.781 -1.6916  1.1765  0.8878
 8208TIP3    H224589   6.118   5.529   4.801 -1.5145 -1.3621 -0.2384
 8209TIP3   OH224590   0.795   3.598   4.132  0.6502  0.3645  0.2482
 8209TIP3    H124591   0.844   3.532   4.082  1.8995  1.1687  0.3725
 8209TIP3    H224592   0.795   3.564   4.221 -0.2323 -0.3092  0.0067
 8210TIP3   OH224593   6.215   3.616   4.170 -0.1175  0.5125 -0.3878
 8210TIP3    H124594   6.132   3.581   4.137 -0.9804  0.8523  1.2952
 8210TIP3    H224595   6.222   3.702   4.131 -0.3374  0.3036 -0.8945
 8211TIP3   OH224596   1.824   6.019   0.835  0.0407 -0.1329 -0.8894
 8211TIP3    H124597   1.898   6.076   0.815  0.6564  0.0558  1.5235
 8211TIP3    H224598   1.751   6.078   0.853  0.3218 -0.1186  0.3020
 8212TIP3   OH224599   2.873   0.922   4.347  0.0596  0.2450  0.6708
 8212TIP3    H124600   2.840   0.856   4.408  1.5528 -1.4116 -0.2261
 8212TIP3    H224601   2.940   0.877   4.297  0.2158  2.1050 -0.9059
 8213TIP3   OH224602   5.717   3.242   0.021  0.2858 -0.3846 -0.3689
 8213TIP3    H124603   5.759   3.159   0.044  0.1453 -0.7832 -1.5074
 8213TIP3    H224604   5.784   3.308   0.037  1.3720 -1.0075 -2.1161
 8214TIP3   OH224605   5.383   0.640   2.311 -0.0769 -0.1081 -0.0532
 8214TIP3    H124606   5.380   0.660   2.404  0.9126 -0.4471  0.0653
 8214TIP3    H224607   5.332   0.709   2.270  0.0783  0.4518  0.6752
 8215TIP3   OH224608   5.413   5.006   3.860 -0.2529 -0.1862 -0.6590
 8215TIP3    H124609   5.487   5.011   3.800  2.1850  0.7170  2.2215
 8215TIP3    H224610   5.406   4.914   3.883 -0.2900 -0.3257 -1.2133
 8216TIP3   OH224611   6.986   0.966   3.205 -0.1115  0.0247 -0.5936
 8216TIP3    H124612   6.896   0.996   3.219 -0.0331  0.2474 -0.5684
 8216TIP3    H224613   6.992   0.951   3.111 -0.4956 -1.0177 -0.4667
 8217TIP3   OH224614   0.642   6.401   4.656 -0.6103 -0.1026 -0.2240
 8217TIP3    H124615   0.569   6.340   4.668 -0.8168  0.0207 -0.8558
 8217TIP3    H224616   0.609   6.469   4.598  0.0651 -0.1623 -0.7032
 8218TIP3   OH224617   2.729   6.084   4.628 -0.3125  0.5170 -0.6429
 8218TIP3    H124618   2.778   6.008   4.596 -1.1408 -0.7138  0.8777
 8218TIP3    H224619   2.640   6.070   4.593 -1.0468 -0.4688  1.4757
 8219TIP3   OH224620   6.139   3.919   1.151 -0.6610 -0.0508 -0.4765
 8219TIP3    H124621   6.141   3.824   1.156  1.3560  0.0043  1.2705
 8219TIP3    H224622   6.210   3.941   1.090 -1.1687  0.3519 -0.9328
 8220TIP3   OH224623   1.207   5.850   4.995  0.1511  0.3766 -0.3671
 8220TIP3    H124624   1.222   5.912   5.066 -2.6205  2.1108 -1.1587
 8220TIP3    H224625   1.144   5.788   5.030 -0.6776  0.8133 -1.0532
 8221TIP3   OH224626   1.099   4.301   3.002  0.0352  0.1694 -0.0839
 8221TIP3    H124627   1.143   4.320   2.920  2.3921 -1.7864  0.6109
 8221TIP3    H224628   1.117   4.377   3.057 -0.0793  0.7179 -0.7911
 8222TIP3   OH224629   5.620   6.349   1.020 -0.4888  0.1754  0.2532
 8222TIP3    H124630   5.644   6.259   1.039  0.0743  0.0513 -0.9585
 8222TIP3    H224631   5.703   6.396   1.013 -0.5197 -0.0215 -2.8442
 8223TIP3   OH224632   1.513   0.054   2.414  0.2156  0.0018  0.6231
 8223TIP3    H124633   1.446   0.116   2.386  1.3668  1.0505  0.0433
 8223TIP3    H224634   1.470  -0.002   2.477 -1.8415 -0.8585 -1.4159
 8224TIP3   OH224635   7.026   3.458   4.025  0.3764 -0.2516  0.0320
 8224TIP3    H124636   7.048   3.412   3.944 -0.4083 -0.3964 -0.1037
 8224TIP3    H224637   7.110   3.491   4.057  0.7427 -0.5067 -0.6446
 8225TIP3   OH224638   6.813   4.428   1.522  0.0959  0.0593  0.0073
 8225TIP3    H124639   6.761   4.354   1.491  0.1576 -0.2640  0.6670
 8225TIP3    H224640   6.773   4.504   1.481  0.5608 -0.4103 -1.3823
 8226TIP3   OH224641   2.509   0.318   4.821 -0.5092  0.3083  1.4547
 8226TIP3    H124642   2.550   0.264   4.753  1.6068  3.3462  0.0945
 8226TIP3    H224643   2.526   0.271   4.903  0.2100 -1.5769  0.2857
 8227TIP3   OH224644   6.810   1.680   0.026  0.1880  0.2340 -0.3263
 8227TIP3    H124645   6.900   1.680   0.057  0.3027  1.7675 -0.5756
 8227TIP3    H224646   6.769   1.755   0.069 -0.8224 -0.1094 -0.6439
 8228TIP3   OH224647   3.414   6.297   2.661  0.1892  0.5993 -0.3281
 8228TIP3    H124648   3.472   6.229   2.694  0.4450  0.4436 -1.0676
 8228TIP3    H224649   3.332   6.284   2.708  0.2858 -0.1278 -0.3467
 8229TIP3   OH224650   3.514   3.317   4.412 -0.2402  0.5103  0.1208
 8229TIP3    H124651   3.593   3.270   4.384 -1.2000 -0.9581 -0.2185
 8229TIP3    H224652   3.496   3.284   4.500 -2.4461 -1.9146 -1.1185
 8230TIP3   OH224653   1.264   6.501   0.496 -0.2872 -0.1008  0.1961
 8230TIP3    H124654   1.240   6.593   0.508  0.2323 -0.0581  0.9747
 8230TIP3    H224655   1.274   6.467   0.585 -0.4443 -0.9072 -0.0865
 8231TIP3   OH224656   4.129   5.582   4.896 -0.3815 -0.2607  0.2203
 8231TIP3    H124657   4.175   5.519   4.840  0.5829 -0.7223  1.4836
 8231TIP3    H224658   4.198   5.619   4.953 -0.9605  1.7945 -0.3342
 8232TIP3   OH224659   4.224   4.295   4.637  0.1996  0.1679  0.1463
 8232TIP3    H124660   4.140   4.283   4.594  0.5380  0.3832 -0.6070
 8232TIP3    H224661   4.212   4.262   4.726 -0.8991  0.9295  0.2924
 8233TIP3   OH224662   2.718   5.023   1.026 -0.3000  0.6834  0.4744
 8233TIP3    H124663   2.793   5.025   1.085 -0.6111  0.0758  0.8930
 8233TIP3    H224664   2.689   5.114   1.021  1.7311  1.3242 -1.3354
 8234TIP3   OH224665   1.692   1.992   2.753  0.4737  0.2686 -0.0117
 8234TIP3    H124666   1.783   2.020   2.743  0.0928  0.7829 -2.6172
 8234TIP3    H224667   1.641   2.072   2.742 -0.3545 -0.1022  0.9416
 8235TIP3   OH224668   0.587   5.125   1.754  0.3568  0.2704 -0.5054
 8235TIP3    H124669   0.539   5.058   1.802  2.8318 -0.9265  0.5001
 8235TIP3    H224670   0.593   5.198   1.816 -0.5340  0.6229 -0.8184
 8236TIP3   OH224671   6.316   3.164   2.688 -0.3996  0.4261 -0.5467
 8236TIP3    H124672   6.396   3.216   2.686  0.0840 -0.2344  0.5410
 8236TIP3    H224673   6.342   3.079   2.650 -0.4319  0.0288  0.3036
 8237TIP3   OH224674   0.144   2.087   5.072 -0.0884 -0.4062 -0.8609
 8237TIP3    H124675   0.139   2.075   5.167  0.9680  1.4605 -0.5301
 8237TIP3    H224676   0.105   2.007   5.036  0.0257 -1.4142  1.1202
 8238TIP3   OH224677   1.698   5.996   5.134 -0.1637 -0.2465  0.1847
 8238TIP3    H124678   1.762   5.995   5.063 -1.3984  0.1401 -0.9628
 8238TIP3    H224679   1.641   5.921   5.117 -0.7466  0.1133  0.5116
 8239TIP3   OH224680   0.396   3.722   2.389 -0.2176  0.2445  0.7352
 8239TIP3    H124681   0.396   3.772   2.470 -1.5188  2.4735 -0.5302
 8239TIP3    H224682   0.414   3.787   2.321 -0.8218 -1.2311 -0.9192
 8240TIP3   OH224683   0.420   6.693   0.739 -0.1282  0.1396  0.0439
 8240TIP3    H124684   0.395   6.784   0.721  0.5302  0.0149 -1.7744
 8240TIP3    H224685   0.457   6.662   0.656  0.3453 -1.5641  0.8467
 8241TIP3   OH224686   0.309   2.237   0.876 -0.6042  0.0119 -0.0615
 8241TIP3    H124687   0.356   2.253   0.958 -0.1524 -2.0772  0.1680
 8241TIP3    H224688   0.219   2.219   0.904 -0.8978  1.1793 -0.2256
 8242TIP3   OH224689   6.866   3.290   1.104 -0.8055  0.3327  0.2401
 8242TIP3    H124690   6.926   3.235   1.054 -0.1465 -0.1631  1.5154
 8242TIP3    H224691   6.797   3.230   1.133  1.0428 -0.4968  3.5120
 8243TIP3   OH224692   6.036   3.184   5.201  0.5491 -0.0703  0.0342
 8243TIP3    H124693   6.107   3.240   5.168 -0.2844  0.3372 -1.1268
 8243TIP3    H224694   6.024   3.118   5.132  0.9999 -1.2493  1.0403
 8244TIP3   OH224695   4.308   1.151   5.334 -0.1320  0.0576  0.0741
 8244TIP3    H124696   4.281   1.180   5.247  0.9239 -0.7951 -0.5624
 8244TIP3    H224697   4.338   1.231   5.377  1.3384  0.1910 -1.1225
 8245TIP3   OH224698   4.300   5.593   5.109 -0.0719 -0.0140  0.1680
 8245TIP3    H124699   4.383   5.546   5.107 -1.0523 -1.8291 -1.0386
 8245TIP3    H224700   4.269   5.583   5.199 -0.1990 -1.6537 -0.0259
 8246TIP3   OH224701   6.985   4.671   0.150  0.1323 -0.5765 -0.8516
 8246TIP3    H124702   6.890   4.668   0.144  0.1566  0.1193 -1.8910
 8246TIP3    H224703   7.015   4.588   0.113 -0.0722 -0.9839 -0.1232
 8247TIP3   OH224704   4.135   3.252   0.332 -0.0782  0.3408 -0.1993
 8247TIP3    H124705   4.114   3.229   0.242  1.4283 -0.2454 -0.4269
 8247TIP3    H224706   4.114   3.174   0.383  1.3055 -0.2014 -0.4100
 8248TIP3   OH224707   7.013   4.668   5.370 -0.3240 -0.6538  1.0695
 8248TIP3    H124708   6.941   4.695   5.313  1.1163  2.6274  0.5147
 8248TIP3    H224709   7.035   4.580   5.340 -1.0968  0.0522 -1.9986
 8249TIP3   OH224710   1.851   5.924   4.887  0.1460  0.1208 -0.1204
 8249TIP3    H124711   1.802   5.960   4.814 -0.7638 -0.3577  0.2347
 8249TIP3    H224712   1.860   5.831   4.867  0.7935  0.1734 -0.1071
 8250TIP3   OH224713   3.587   1.964   1.693 -0.1650  0.1462 -0.3869
 8250TIP3    H124714   3.565   1.878   1.657  0.4400  0.1759 -0.8434
 8250TIP3    H224715   3.650   2.001   1.631  2.6756 -0.7077  1.7742
 8251TIP3   OH224716   3.972   6.345   3.239  0.8692  0.1459 -0.0596
 8251TIP3    H124717   3.949   6.302   3.320 -0.0340  0.7182 -0.0039
 8251TIP3    H224718   3.987   6.437   3.263  0.7643  0.2867 -0.5064
 8252TIP3   OH224719   2.745   3.560   4.271  0.2134  0.0736  0.5015
 8252TIP3    H124720   2.684   3.529   4.204  0.2338  2.0497 -0.5062
 8252TIP3    H224721   2.705   3.639   4.306  0.6738 -0.3945  2.1783
 8253TIP3   OH224722   4.682   4.788   4.913  0.5311 -0.3344  0.3428
 8253TIP3    H124723   4.663   4.788   4.820 -1.4519  1.8670  0.6620
 8253TIP3    H224724   4.694   4.696   4.935  0.9360 -0.9095 -2.0279
 8254TIP3   OH224725   0.644   4.834   4.792 -0.1448  0.0951 -0.1121
 8254TIP3    H124726   0.732   4.870   4.780 -0.1183  0.0803  0.0449
 8254TIP3    H224727   0.586   4.906   4.767 -0.0888  0.1096 -0.2014
 8255TIP3   OH224728   2.987   0.916   2.942 -0.0776  0.3133 -0.8984
 8255TIP3    H124729   2.976   0.964   2.859 -0.3748  0.3222 -0.8533
 8255TIP3    H224730   2.931   0.839   2.933  0.7999 -0.3086 -1.1819
 8256TIP3   OH224731   1.095   1.547   1.775  0.2191  0.1620  0.6763
 8256TIP3    H124732   1.033   1.538   1.703  1.2424 -2.2104 -0.0004
 8256TIP3    H224733   1.044   1.584   1.847 -1.3200  0.6270 -0.6027
 8257TIP3   OH224734   0.574   0.590   3.076 -0.4382  0.7841  0.2367
 8257TIP3    H124735   0.621   0.571   3.157  0.2457  1.7917  0.0992
 8257TIP3    H224736   0.483   0.569   3.096 -0.1650  0.2735  1.0129
 8258TIP3   OH224737   7.032   0.637   1.151  0.1687 -0.4561 -0.0413
 8258TIP3    H124738   7.044   0.616   1.243  2.6286 -2.3115 -0.6592
 8258TIP3    H224739   7.064   0.727   1.142 -1.9787  0.5056  1.1677
 8259TIP3   OH224740   1.370   5.436   2.790  0.0447  0.0638  0.1106
 8259TIP3    H124741   1.348   5.528   2.803  0.9123  0.3529 -0.4505
 8259TIP3    H224742   1.319   5.410   2.713 -0.8191 -0.1590  0.7373
 8260TIP3   OH224743   6.076   4.147   4.641  0.5903  0.2846 -0.4017
 8260TIP3    H124744   6.079   4.119   4.550 -0.8657  0.1285 -0.4225
 8260TIP3    H224745   6.162   4.185   4.658  0.9356  0.1443 -1.7781
 8261TIP3   OH224746   6.735   4.514   2.995 -0.8372  0.4823  0.5635
 8261TIP3    H124747   6.667   4.541   2.933  0.0275 -0.7003 -0.9871
 8261TIP3    H224748   6.816   4.552   2.959 -0.0202 -1.8087 -0.1833
 8262TIP3   OH224749   6.919   6.131   0.025  0.5095  0.0475 -0.1206
 8262TIP3    H124750   7.012   6.149   0.041  0.3955  0.6463 -0.0780
 8262TIP3    H224751   6.873   6.190   0.085  0.1019  0.5119 -0.8689
 8263TIP3   OH224752   4.777   1.274   1.731  0.3042 -0.6253  0.2382
 8263TIP3    H124753   4.780   1.359   1.776 -1.8687 -0.3887  0.0554
 8263TIP3    H224754   4.839   1.219   1.779  0.4975  0.5784  1.4316
 8264TIP3   OH224755   1.884   4.210   1.327  0.0090  0.9876 -0.2701
 8264TIP3    H124756   1.854   4.301   1.323 -1.5147  0.4777 -1.3553
 8264TIP3    H224757   1.853   4.171   1.246  0.3491 -0.5931  0.3198
 8265TIP3   OH224758   1.404   2.734   4.441 -0.3365  0.4754  0.4634
 8265TIP3    H124759   1.492   2.737   4.478  0.0072  0.5156 -0.3291
 8265TIP3    H224760   1.365   2.654   4.476  0.4365 -0.1577 -0.0840
 8266TIP3   OH224761   5.076   4.118   0.028  0.0399 -0.2006 -0.6906
 8266TIP3    H124762   5.032   4.171   0.095  0.0460  1.7370 -2.1313
 8266TIP3    H224763   5.105   4.040   0.075 -0.8226  0.6111  1.3335
 8267TIP3   OH224764   3.340   2.461   4.176  0.0676  0.0077 -0.2476
 8267TIP3    H124765   3.430   2.444   4.203 -0.0427  2.1579  1.7908
 8267TIP3    H224766   3.347   2.484   4.083  1.9592  2.1534  0.3513
 8268TIP3   OH224767   5.811   4.118   5.780  0.5092 -0.0343 -0.3447
 8268TIP3    H124768   5.835   4.026   5.787  0.0658 -0.2704 -1.6404
 8268TIP3    H224769   5.838   4.156   5.864  2.1858 -0.9865 -0.4117
 8269TIP3   OH224770   0.884   5.514   4.188 -0.2397 -0.1211  0.5944
 8269TIP3    H124771   0.951   5.573   4.153 -1.4490  0.6379 -0.5172
 8269TIP3    H224772   0.832   5.570   4.246 -0.2950 -0.5573  0.9684
 8270TIP3   OH224773   1.228   4.666   4.405 -0.4242 -0.0363  0.6418
 8270TIP3    H124774   1.229   4.571   4.405  0.1120 -0.0934 -1.9083
 8270TIP3    H224775   1.206   4.690   4.496 -0.6223 -2.5442  1.3224
 8271TIP3   OH224776   4.564   5.682   1.067  0.2247  1.0004  0.2015
 8271TIP3    H124777   4.535   5.719   1.151  0.2200 -0.4310  0.8575
 8271TIP3    H224778   4.659   5.686   1.070  0.2182  2.6388 -0.5415
 8272TIP3   OH224779   5.065   0.045   1.239 -0.7060 -0.4138  0.1410
 8272TIP3    H124780   5.109   0.005   1.314 -1.8142  0.4725  1.3304
 8272TIP3    H224781   5.007  -0.023   1.205  0.3632 -1.0626 -0.4045
 8273TIP3   OH224782   2.783   4.408   1.479  0.6103  0.7184 -0.3692
 8273TIP3    H124783   2.770   4.331   1.534  0.2933  1.2251  0.2702
 8273TIP3    H224784   2.850   4.459   1.523 -0.8444  1.9741  0.4954
 8274TIP3   OH224785   2.994   4.714   5.495 -0.4952 -0.4423 -0.0090
 8274TIP3    H124786   3.035   4.795   5.465  0.6132 -0.7346  0.6908
 8274TIP3    H224787   2.919   4.743   5.548 -0.5163  0.1044 -0.3344
 8275TIP3   OH224788   5.304   0.425   0.440 -0.1920  0.4232 -0.1277
 8275TIP3    H124789   5.283   0.505   0.488  1.3404  0.6106  0.2950
 8275TIP3    H224790   5.266   0.439   0.354 -1.8125  0.6667  0.5782
 8276TIP3   OH224791   2.045   0.665   5.550 -0.1273 -0.3253  0.1820
 8276TIP3    H124792   2.024   0.707   5.467 -1.0011 -0.7262  0.1847
 8276TIP3    H224793   1.967   0.677   5.604 -0.3673 -1.8147  0.2167
 8277TIP3   OH224794   2.556   1.781   4.473 -0.5927  0.0276  0.2360
 8277TIP3    H124795   2.544   1.864   4.521 -0.9201 -0.1259  0.4219
 8277TIP3    H224796   2.577   1.717   4.542 -3.3134 -0.6900  0.4875
 8278TIP3   OH224797   3.526   3.913   5.745 -0.2324  0.1278  0.1915
 8278TIP3    H124798   3.473   3.858   5.687  0.5410 -0.7183  0.2651
 8278TIP3    H224799   3.569   3.850   5.804  2.2865  0.5992 -1.0328
 8279TIP3   OH224800   6.955   5.894   5.383  0.0685  0.5823  0.5170
 8279TIP3    H124801   6.987   5.831   5.447 -0.5964  0.6604  0.9364
 8279TIP3    H224802   6.925   5.969   5.435 -1.1090  0.3678  0.1779
 8280TIP3   OH224803   0.663   6.662   3.505  0.0955 -0.3757 -0.1613
 8280TIP3    H124804   0.689   6.649   3.414 -1.3575 -0.0863 -0.6357
 8280TIP3    H224805   0.645   6.573   3.537 -0.2145 -0.4073 -0.4168
 8281TIP3   OH224806   4.274   0.327   2.345  0.2916 -0.3498  0.2402
 8281TIP3    H124807   4.331   0.280   2.405 -1.1670 -0.8634  1.2629
 8281TIP3    H224808   4.269   0.271   2.268  0.1870 -0.8910  0.6388
 8282TIP3   OH224809   1.549   4.179   4.693 -0.1907  0.3113  0.5550
 8282TIP3    H124810   1.491   4.235   4.745 -3.0666 -0.6233 -1.4069
 8282TIP3    H224811   1.572   4.233   4.617 -0.9916 -0.3138 -0.1468
 8283TIP3   OH224812   2.569   3.486   4.549  0.5990  0.1322 -0.0817
 8283TIP3    H124813   2.587   3.574   4.515 -0.6289  0.0079 -1.1684
 8283TIP3    H224814   2.541   3.501   4.640 -0.3639  0.9792 -0.4890
 8284TIP3   OH224815   4.063   5.980   3.409 -0.3185  0.4569  0.6240
 8284TIP3    H124816   4.036   5.892   3.437 -0.2595  0.4022  0.5090
 8284TIP3    H224817   3.986   6.035   3.425 -0.1510  0.5111  1.2882
 8285TIP3   OH224818   0.388   1.082   5.006  0.0549 -0.3236  0.0579
 8285TIP3    H124819   0.452   1.019   5.038  0.7274  0.3535  0.0690
 8285TIP3    H224820   0.439   1.146   4.957 -0.9350 -1.2569 -2.3433
 8286TIP3   OH224821   1.018   2.670   0.436 -0.2997 -0.2246  0.5924
 8286TIP3    H124822   1.032   2.671   0.531  0.0694  1.8751  0.5665
 8286TIP3    H224823   1.105   2.656   0.399 -0.4691 -1.2117  0.5557
 8287TIP3   OH224824   0.242   2.853   3.669 -0.3372  0.1797 -0.0019
 8287TIP3    H124825   0.185   2.864   3.593 -0.1708  1.4497  0.0346
 8287TIP3    H224826   0.202   2.782   3.719  0.4747 -1.8338 -2.0745
 8288TIP3   OH224827   4.172   0.271   2.604 -0.1544 -0.3173 -0.3925
 8288TIP3    H124828   4.196   0.321   2.526 -1.0530 -1.0947 -1.2032
 8288TIP3    H224829   4.082   0.242   2.586 -1.3011  1.4430  1.9403
 8289TIP3   OH224830   4.521   6.417   5.120  0.1175  0.6325  0.0899
 8289TIP3    H124831   4.567   6.389   5.200 -1.6804  1.2046  1.3964
 8289TIP3    H224832   4.442   6.461   5.152 -0.1247  1.8603 -2.0091
 8290TIP3   OH224833   1.177   5.362   0.390 -0.7299  0.3365 -0.3067
 8290TIP3    H124834   1.088   5.391   0.410 -1.2088 -0.7082 -0.8628
 8290TIP3    H224835   1.167   5.273   0.357  0.4160  0.6180 -1.4955
 8291TIP3   OH224836   5.233   1.072   1.345  0.4275 -0.7297 -0.4871
 8291TIP3    H124837   5.262   1.153   1.388 -0.8194  1.4071 -3.3921
 8291TIP3    H224838   5.314   1.032   1.312  0.9046  0.3351 -0.6424
 8292TIP3   OH224839   4.586   6.495   4.000 -0.1201  0.7480 -0.5892
 8292TIP3    H124840   4.527   6.448   3.942 -0.1004  1.6396 -1.3510
 8292TIP3    H224841   4.543   6.578   4.017  0.1811  0.7610  0.1372
 8293TIP3   OH224842   7.105   6.487   2.373  0.4138  0.6020  0.2104
 8293TIP3    H124843   7.163   6.456   2.304  0.8337  0.5143  0.6040
 8293TIP3    H224844   7.028   6.520   2.326  0.8888  0.9613 -0.3189
 8294TIP3   OH224845   0.133   1.025   4.531 -0.6029  0.0535  0.0560
 8294TIP3    H124846   0.164   1.096   4.475  1.6268  0.7107  1.9309
 8294TIP3    H224847   0.163   0.945   4.488 -0.2352  0.4440 -0.4253
 8295TIP3   OH224848   0.619   6.031   2.405  0.4830 -0.0463 -0.1003
 8295TIP3    H124849   0.595   5.938   2.410  0.2592  0.0422  0.5232
 8295TIP3    H224850   0.669   6.038   2.324 -0.5259 -0.4812 -0.7821
 8296TIP3   OH224851   1.320   2.825   5.747 -0.0086  0.2912  0.3102
 8296TIP3    H124852   1.369   2.867   5.676  0.4080 -0.5737  0.0759
 8296TIP3    H224853   1.359   2.738   5.755  0.0173  0.4153  1.6707
 8297TIP3   OH224854   0.613   1.945   2.940 -0.3521  0.1171  0.6283
 8297TIP3    H124855   0.655   1.885   3.001 -2.0629 -0.5911  1.1793
 8297TIP3    H224856   0.685   1.984   2.891  0.8006 -4.0014 -1.3392
 8298TIP3   OH224857   3.027   3.033   4.650 -0.4332 -0.2969 -0.7146
 8298TIP3    H124858   3.091   3.092   4.691 -1.2481 -0.1333  0.3699
 8298TIP3    H224859   3.017   3.066   4.561  1.3385 -0.6215 -1.0706
 8299TIP3   OH224860   1.792   3.163   4.353  0.0605 -0.4816 -0.2322
 8299TIP3    H124861   1.844   3.117   4.419 -1.1565 -0.7504  0.5798
 8299TIP3    H224862   1.714   3.108   4.343 -0.9935  0.9020  0.0587
 8300TIP3   OH224863   3.745   2.169   4.432  0.3494  0.2638  0.6957
 8300TIP3    H124864   3.839   2.186   4.430  0.2161  0.9447  0.0734
 8300TIP3    H224865   3.735   2.098   4.495  1.4486 -0.8222 -0.2998
 8301TIP3   OH224866   2.757   5.658   2.133  0.3636 -0.1406 -0.2861
 8301TIP3    H124867   2.799   5.618   2.209 -0.6033 -1.8951 -0.6211
 8301TIP3    H224868   2.700   5.725   2.170  0.9441 -0.0086  0.4089
 8302TIP3   OH224869   6.361   2.400   0.441 -0.3580 -0.1939 -0.0916
 8302TIP3    H124870   6.361   2.380   0.535  0.9607  0.4710  0.0785
 8302TIP3    H224871   6.331   2.491   0.436 -2.4509 -0.8590 -0.5213
 8303TIP3   OH224872   1.577   1.946   5.578 -0.3816  0.6635  0.3051
 8303TIP3    H124873   1.500   1.959   5.633 -0.8952  1.1605 -0.5168
 8303TIP3    H224874   1.611   1.860   5.604 -1.5225  0.2009  0.2907
 8304TIP3   OH224875   1.964   1.222   0.214 -0.2981 -0.5935  0.3765
 8304TIP3    H124876   1.999   1.187   0.295  2.3740  0.9273  0.0013
 8304TIP3    H224877   2.019   1.298   0.195 -2.2872  0.4438 -1.6852
 8305TIP3   OH224878   5.503   1.930   4.197 -0.0587 -0.2491  0.5600
 8305TIP3    H124879   5.411   1.904   4.202  0.0169 -0.6332 -0.0034
 8305TIP3    H224880   5.503   2.008   4.142  0.1644 -1.4182 -1.1829
 8306TIP3   OH224881   4.499   0.737   2.510  0.3765 -0.4887  0.4559
 8306TIP3    H124882   4.507   0.829   2.487 -1.6551  0.0493  1.7209
 8306TIP3    H224883   4.466   0.695   2.430  0.8271 -0.0609  0.0343
 8307TIP3   OH224884   1.342   2.381   1.823 -0.7248 -0.3140 -0.5055
 8307TIP3    H124885   1.337   2.322   1.747 -0.0399 -0.8668 -0.1311
 8307TIP3    H224886   1.357   2.322   1.897 -1.5461  0.2080  0.0938
 8308TIP3   OH224887   3.654   4.683   2.318  0.0440 -0.3941  0.5380
 8308TIP3    H124888   3.649   4.604   2.265  0.2163 -1.8098  2.5394
 8308TIP3    H224889   3.743   4.715   2.305  0.0660 -0.6797 -0.0515
 8309TIP3   OH224890   6.515   5.706   0.534 -0.3174  0.3006 -0.0109
 8309TIP3    H124891   6.573   5.685   0.461  0.2534  0.7280  0.3150
 8309TIP3    H224892   6.508   5.624   0.583 -0.4955  0.0816 -0.3943
 8310TIP3   OH224893   4.002   2.076   3.233  0.1115 -0.0658 -0.2104
 8310TIP3    H124894   3.913   2.108   3.247  0.4321  0.1627  1.7096
 8310TIP3    H224895   3.994   2.007   3.167 -0.9036  2.4621 -2.9398
 8311TIP3   OH224896   6.831   1.850   0.758 -0.1493 -0.1456  0.4739
 8311TIP3    H124897   6.793   1.937   0.757 -2.1978 -0.9591  1.3085
 8311TIP3    H224898   6.775   1.798   0.700 -0.2924 -1.3671  1.6387
 8312TIP3   OH224899   0.102   5.836   0.176 -0.4531 -0.3591  0.4103
 8312TIP3    H124900   0.135   5.925   0.159  2.6833 -1.6905 -1.3154
 8312TIP3    H224901   0.052   5.845   0.257 -0.0115  2.9153  0.4809
 8313TIP3   OH224902   0.893   2.360   0.085  0.0570  0.3382  0.2772
 8313TIP3    H124903   0.818   2.419   0.084  0.4663  0.8733  0.5210
 8313TIP3    H224904   0.886   2.313   0.169 -0.8007 -0.6722 -0.3401
 8314TIP3   OH224905   1.010   2.929   5.260 -0.1352  0.0710 -0.5639
 8314TIP3    H124906   0.959   2.865   5.211 -0.0304  0.1467 -0.7745
 8314TIP3    H224907   1.058   2.977   5.192  0.3260 -0.0975 -0.3596
 8315TIP3   OH224908   0.567   1.449   1.170 -0.4528  0.2269  0.2182
 8315TIP3    H124909   0.477   1.483   1.167 -0.3488  0.6008  1.0235
 8315TIP3    H224910   0.570   1.383   1.100 -1.0465  0.9375 -0.5023
 8316TIP3   OH224911   6.515   4.219   2.216  0.0211 -0.6791 -0.9658
 8316TIP3    H124912   6.451   4.264   2.272 -0.0657  0.5459 -2.0064
 8316TIP3    H224913   6.599   4.259   2.239 -0.1852  0.8149 -2.5998
 8317TIP3   OH224914   0.161   1.924   0.894  0.3933 -0.3495  0.1890
 8317TIP3    H124915   0.120   1.918   0.981 -0.3118 -1.0661 -0.1730
 8317TIP3    H224916   0.117   1.856   0.843 -0.3027  1.0742 -1.1920
 8318TIP3   OH224917   6.007   0.523   3.613 -0.0454 -0.3548 -0.5881
 8318TIP3    H124918   5.986   0.523   3.519  0.6793 -0.5276 -0.7555
 8318TIP3    H224919   6.100   0.544   3.617 -0.0914 -0.2590  0.1031
 8319TIP3   OH224920   3.480   6.014   2.631  0.2669  0.1265 -0.0120
 8319TIP3    H124921   3.424   6.025   2.554 -0.4998  1.5197  0.6933
 8319TIP3    H224922   3.436   5.947   2.683 -1.6419  2.1370  1.1942
 8320TIP3   OH224923   4.268   0.861   5.819  0.0519 -0.1025  0.3950
 8320TIP3    H124924   4.195   0.914   5.853 -1.1637 -1.1832 -0.4240
 8320TIP3    H224925   4.299   0.811   5.895  0.0549  0.4847  0.7857
 8321TIP3   OH224926   6.298   2.185   5.375  0.3208 -0.3013  0.0197
 8321TIP3    H124927   6.302   2.276   5.405 -0.0131 -0.9020  2.0692
 8321TIP3    H224928   6.211   2.176   5.337 -0.7469 -0.3907  2.2895
 8322TIP3   OH224929   4.382   6.560   2.102 -0.0040 -0.2263  0.2813
 8322TIP3    H124930   4.402   6.482   2.049 -1.2993 -0.2799 -0.1806
 8322TIP3    H224931   4.313   6.531   2.162 -1.0127  0.7285 -0.3792
 8323TIP3   OH224932   6.534   6.740   1.914 -0.0535  0.3742  0.2150
 8323TIP3    H124933   6.452   6.708   1.952 -0.0055  0.5291  0.4562
 8323TIP3    H224934   6.552   6.821   1.963  0.9833 -0.3940  1.1477
 8324TIP3   OH224935   6.391   0.842   2.031 -0.2807 -0.3726  0.2714
 8324TIP3    H124936   6.455   0.851   1.960 -0.4854  2.9054  0.3249
 8324TIP3    H224937   6.324   0.784   1.996  1.2557 -1.5218 -0.8932
 8325TIP3   OH224938   6.568   1.382   3.546  0.2863 -0.0973 -0.3899
 8325TIP3    H124939   6.573   1.420   3.634  1.3175 -0.0614 -0.4522
 8325TIP3    H224940   6.554   1.458   3.488  1.0744  0.0640 -0.3873
 8326TIP3   OH224941   5.417   2.344   4.369  0.4575 -0.2170 -0.0004
 8326TIP3    H124942   5.416   2.358   4.464  1.9035 -0.3787  0.0539
 8326TIP3    H224943   5.336   2.294   4.352 -1.5026  2.4983  0.6567
 8327TIP3   OH224944   5.759   6.713   2.858  0.2749 -0.3852 -0.4023
 8327TIP3    H124945   5.696   6.773   2.818 -0.4818 -0.3655  0.7753
 8327TIP3    H224946   5.705   6.649   2.904  1.0652 -1.7969 -1.3392
 8328TIP3   OH224947   6.314   4.014   2.762  0.6185  0.4245 -0.0278
 8328TIP3    H124948   6.222   4.039   2.766  0.6052  0.2255  1.4365
 8328TIP3    H224949   6.313   3.927   2.721  0.1865  0.5530 -0.2963
 8329TIP3   OH224950   4.827   6.013   0.365 -0.3183 -0.2579  0.2312
 8329TIP3    H124951   4.794   5.926   0.342 -1.1283 -0.5445  2.2883
 8329TIP3    H224952   4.834   6.011   0.460 -1.0823  2.1865  0.3905
 8330TIP3   OH224953   3.165   6.127   5.394  0.4851  0.5420  0.0547
 8330TIP3    H124954   3.239   6.188   5.398  1.6069 -0.7751 -0.1103
 8330TIP3    H224955   3.167   6.081   5.478 -0.5596  0.9200  0.3140
 8331TIP3   OH224956   0.329   5.407   5.541  0.2226 -0.6664  0.2004
 8331TIP3    H124957   0.336   5.354   5.461 -0.1251 -0.3952 -0.0149
 8331TIP3    H224958   0.419   5.427   5.565  0.2954  1.3919 -1.5580
 8332TIP3   OH224959   3.561   2.595   4.834 -0.4098 -0.2473 -0.0114
 8332TIP3    H124960   3.594   2.633   4.916  0.9294 -0.0813 -0.5961
 8332TIP3    H224961   3.626   2.529   4.811 -0.9622 -0.5436 -0.7489
 8333TIP3   OH224962   6.242   4.762   5.800 -0.1066  0.1082  0.5572
 8333TIP3    H124963   6.264   4.682   5.849  0.9120  0.5158  0.7926
 8333TIP3    H224964   6.309   4.767   5.731  0.6018  1.4035  1.3009
 8334TIP3   OH224965   6.557   1.433   5.168 -0.0403 -0.1692 -0.0044
 8334TIP3    H124966   6.618   1.470   5.232 -0.4203  0.4072  0.0357
 8334TIP3    H224967   6.602   1.355   5.134  0.7315  0.2583  0.0008
 8335TIP3   OH224968   5.069   4.057   5.251 -0.6508 -0.2463  0.0108
 8335TIP3    H124969   5.080   4.143   5.210  1.2739 -0.6416 -0.3663
 8335TIP3    H224970   5.104   4.068   5.339 -2.8566  0.0309  0.9126
 8336TIP3   OH224971   4.878   4.615   4.324 -0.6236 -0.4088 -0.3537
 8336TIP3    H124972   4.799   4.655   4.360 -0.1265 -0.4011  0.7703
 8336TIP3    H224973   4.888   4.534   4.373 -0.8230 -1.2183 -1.6275
 8337TIP3   OH224974   5.857   0.642   0.206  0.4372  0.5495 -0.1536
 8337TIP3    H124975   5.939   0.633   0.254  0.1545 -1.1676  0.0688
 8337TIP3    H224976   5.856   0.568   0.146 -0.0820  1.6186 -1.5141
 8338TIP3   OH224977   2.740   2.988   1.947 -0.4562 -0.2509  0.1787
 8338TIP3    H124978   2.663   3.038   1.975 -1.4887 -1.9263  0.5041
 8338TIP3    H224979   2.719   2.898   1.969  1.8687 -0.7081  0.8070
 8339TIP3   OH224980   2.466   1.187   3.537  0.2822 -0.1771  0.3445
 8339TIP3    H124981   2.381   1.214   3.573  0.3802 -0.8892  1.1215
 8339TIP3    H224982   2.511   1.270   3.517 -1.4215  0.2634 -2.1575
 8340TIP3   OH224983   5.930   5.985   2.834 -0.5071  0.6507  0.6901
 8340TIP3    H124984   5.873   5.995   2.758  0.8180  0.1197 -0.4075
 8340TIP3    H224985   6.009   6.035   2.812 -0.9678  2.4081  2.6836
 8341TIP3   OH224986   0.432   4.634   1.281 -0.2322 -0.6981 -0.6229
 8341TIP3    H124987   0.340   4.619   1.263 -0.5666  0.3684  0.1482
 8341TIP3    H224988   0.471   4.650   1.195 -1.1888  1.0644 -0.7694
 8342TIP3   OH224989   7.031   0.921  -0.010 -0.3250 -0.5826  0.3393
 8342TIP3    H124990   6.947   0.914   0.037 -0.5204  0.9292  0.2659
 8342TIP3    H224991   7.063   1.008   0.011  1.8033 -1.4942  1.2541
 8343TIP3   OH224992   6.664   2.719   4.033  0.0880  0.4677 -0.0159
 8343TIP3    H124993   6.633   2.630   4.052  0.5294  0.2715 -0.1982
 8343TIP3    H224994   6.723   2.739   4.106 -0.8936  1.0655  0.6396
 8344TIP3   OH224995   5.137   6.019   4.815 -0.1102  0.1460  0.5128
 8344TIP3    H124996   5.060   6.065   4.780  0.5235  0.5083 -0.4416
 8344TIP3    H224997   5.127   6.026   4.910 -1.9533 -0.9902  0.4585
 8345TIP3   OH224998   4.107   6.025   3.861 -0.5301 -0.4255  0.0464
 8345TIP3    H124999   4.178   5.978   3.817  0.9579  0.2366  1.6250
 8345TIP3    H225000   4.100   6.108   3.813 -0.4362 -0.6161 -0.2988
 8346TIP3   OH225001   5.960   1.567   4.914  0.2329  0.0384  0.1754
 8346TIP3    H125002   6.029   1.634   4.918  0.3045 -0.0880  1.5238
 8346TIP3    H225003   5.899   1.592   4.983 -0.3341 -0.6519 -0.0677
 8347TIP3   OH225004   5.989   6.326   1.299 -0.1249  0.3926 -0.0282
 8347TIP3    H125005   6.038   6.245   1.308 -0.5400  0.3290  2.1081
 8347TIP3    H225006   6.039   6.391   1.349 -1.1668  0.7999  0.5162
 8348TIP3   OH225007   0.088   6.318   3.260 -0.3117 -0.1089  0.0737
 8348TIP3    H125008   0.036   6.395   3.284  0.7143  1.0859 -1.4036
 8348TIP3    H225009   0.030   6.266   3.205 -0.7803 -0.0585  0.5131
 8349TIP3   OH225010   5.472   0.840   3.141  0.0965 -0.6277 -0.7052
 8349TIP3    H125011   5.469   0.909   3.075 -0.4869 -1.4396 -1.5551
 8349TIP3    H225012   5.449   0.884   3.222  2.7741  0.8214 -0.6096
 8350TIP3   OH225013   0.212   1.386   2.867  0.3103 -0.0988  0.0545
 8350TIP3    H125014   0.204   1.388   2.771  0.4167  0.4160  0.0565
 8350TIP3    H225015   0.233   1.295   2.886 -0.1285 -0.2997 -0.3791
 8351TIP3   OH225016   3.523   4.193   1.323  0.0235 -0.3216 -0.0641
 8351TIP3    H125017   3.567   4.109   1.338  0.3986 -0.1262 -0.0417
 8351TIP3    H225018   3.432   4.170   1.306  0.3569 -0.8398 -1.2896
 8352TIP3   OH225019   6.469   4.791   5.660 -0.0178 -0.5551  0.3425
 8352TIP3    H125020   6.467   4.787   5.564 -0.6472 -0.7570  0.3613
 8352TIP3    H225021   6.552   4.749   5.684  0.3340 -0.1322 -0.1293
 8353TIP3   OH225022   0.062   6.348   5.716  0.9309  0.6059 -0.2275
 8353TIP3    H125023   0.021   6.284   5.775  2.5124 -0.2549 -0.0346
 8353TIP3    H225024   0.069   6.303   5.632  1.6704  0.6683 -0.2007
 8354TIP3   OH225025   3.243   1.115   4.444 -0.0594 -0.5755  0.2709
 8354TIP3    H125026   3.148   1.125   4.445 -0.0756 -0.2315 -1.3491
 8354TIP3    H225027   3.277   1.203   4.461 -0.1263  0.2693 -3.1590
 8355TIP3   OH225028   1.237   0.467   3.899 -0.0071 -0.7005 -0.0331
 8355TIP3    H125029   1.241   0.467   3.803  1.3002 -1.3518 -0.0014
 8355TIP3    H225030   1.188   0.546   3.921  0.7592  0.1401 -1.2107
 8356TIP3   OH225031   4.477   1.374   2.696  0.3968  0.6224  0.1469
 8356TIP3    H125032   4.428   1.343   2.772  1.7214 -1.4740  0.2080
 8356TIP3    H225033   4.455   1.467   2.690 -2.8479 -0.0050  0.6773
 8357TIP3   OH225034   1.841   5.749   4.551 -0.0054 -0.7566  0.5399
 8357TIP3    H125035   1.931   5.756   4.584  0.2911 -1.9782  0.0277
 8357TIP3    H225036   1.793   5.814   4.601  1.5120  1.2555 -0.4520
 8358TIP3   OH225037   0.385   1.953   1.037 -0.1664  0.6708  0.2630
 8358TIP3    H125038   0.408   2.042   1.064  2.0327  0.5691 -1.0394
 8358TIP3    H225039   0.321   1.965   0.966  1.5523  1.3735 -1.2537
 8359TIP3   OH225040   6.917   1.588   5.471 -0.1587  0.2735  0.7412
 8359TIP3    H125041   6.975   1.520   5.504 -1.4343 -0.7453  0.9542
 8359TIP3    H225042   6.887   1.556   5.386  0.0713  1.0804  0.3461
 8360TIP3   OH225043   6.963   5.813   4.440 -0.1616  0.2842  0.3224
 8360TIP3    H125044   6.994   5.745   4.500 -0.1741 -0.5772 -0.6251
 8360TIP3    H225045   7.008   5.795   4.357 -0.4641  1.1978 -0.0534
 8361TIP3   OH225046   1.497   3.664   5.062 -0.2425  0.0038 -0.5034
 8361TIP3    H125047   1.532   3.739   5.013 -2.3543  1.3032 -0.1358
 8361TIP3    H225048   1.423   3.633   5.010 -0.1521 -1.0714 -0.0239
 8362TIP3   OH225049   0.110   0.179   0.554  0.4240 -0.0835 -0.4458
 8362TIP3    H125050   0.071   0.242   0.615 -0.1432 -0.0027 -0.8835
 8362TIP3    H225051   0.047   0.107   0.551  0.2782  0.0651 -1.1917
 8363TIP3   OH225052   4.804   5.709   5.240  1.2543 -0.1835 -0.4840
 8363TIP3    H125053   4.829   5.760   5.164 -1.8221  2.0109 -0.2065
 8363TIP3    H225054   4.742   5.644   5.206  2.4751 -1.5071 -0.2877
 8364TIP3   OH225055   2.269   1.004   3.817  0.8341 -0.2604 -0.0590
 8364TIP3    H125056   2.319   0.957   3.750  1.1698  0.8717 -0.6288
 8364TIP3    H225057   2.323   1.080   3.838  0.1055  0.1094  0.5353
 8365TIP3   OH225058   3.690   2.705   2.693 -0.2179  0.3550 -0.0853
 8365TIP3    H125059   3.777   2.672   2.715 -1.2780 -2.0702  0.7993
 8365TIP3    H225060   3.661   2.750   2.773 -0.5893 -0.6951  0.3807
 8366TIP3   OH225061   4.179   6.486   2.287  0.0866  0.0541 -0.0561
 8366TIP3    H125062   4.086   6.496   2.269 -0.1531  2.3424  1.9673
 8366TIP3    H225063   4.186   6.400   2.330 -1.0426 -0.2054 -0.3571
 8367TIP3   OH225064   2.020   6.482   2.283  0.0296  0.2204 -0.0268
 8367TIP3    H125065   2.055   6.477   2.372  1.2509 -1.0818 -0.5460
 8367TIP3    H225066   1.955   6.552   2.287 -0.7806 -0.5724  2.1754
 8368TIP3   OH225067   5.852   5.581   1.503  0.2892  0.3759 -0.4540
 8368TIP3    H125068   5.921   5.593   1.438  0.0733  1.9645 -0.4306
 8368TIP3    H225069   5.776   5.552   1.453  0.0644  1.7923 -0.9671
 8369TIP3   OH225070   6.992   1.392   4.932 -0.4516 -0.1249  0.2293
 8369TIP3    H125071   7.054   1.465   4.936 -1.4339  0.6805  2.0496
 8369TIP3    H225072   7.037   1.320   4.977 -0.8313  0.5079  1.6973
 8370TIP3   OH225073   0.305   1.329   5.716  0.0378 -0.2391 -0.0328
 8370TIP3    H125074   0.212   1.307   5.720  0.3860 -1.6521  1.3153
 8370TIP3    H225075   0.329   1.347   5.806  1.4390 -1.6054 -0.0909
 8371TIP3   OH225076   4.644   5.010   0.995  0.4765 -0.0286  0.2826
 8371TIP3    H125077   4.630   5.065   1.072 -0.0266  0.1463  0.0711
 8371TIP3    H225078   4.566   4.954   0.990  1.4845 -1.5856  1.1530
 8372TIP3   OH225079   4.085   0.885   4.195 -0.2012 -0.3248  0.2921
 8372TIP3    H125080   4.034   0.944   4.250 -1.9934  0.0413 -1.6350
 8372TIP3    H225081   4.100   0.934   4.114  0.6677 -1.5128 -0.3122
 8373TIP3   OH225082   6.512   0.853   4.763 -0.1070  0.5697 -0.0618
 8373TIP3    H125083   6.600   0.887   4.752 -0.4335  1.6203  0.4126
 8373TIP3    H225084   6.470   0.867   4.677  0.0753  0.4103 -0.1764
 8374TIP3   OH225085   0.839   6.729   1.158  0.1506  0.3259 -0.2506
 8374TIP3    H125086   0.796   6.804   1.115  1.1321 -0.0531 -2.0210
 8374TIP3    H225087   0.773   6.660   1.157  0.7422 -0.3437 -3.2006
 8375TIP3   OH225088   6.750   5.805   1.670  0.3032 -0.2937  0.3663
 8375TIP3    H125089   6.792   5.868   1.728 -1.1166  1.4463 -0.3894
 8375TIP3    H225090   6.816   5.784   1.605  0.8123  0.3910  0.6492
 8376TIP3   OH225091   1.445   3.817   0.438  0.1080 -0.8579  0.5320
 8376TIP3    H125092   1.398   3.795   0.519  0.5965 -2.6722  0.3870
 8376TIP3    H225093   1.510   3.747   0.430  0.7492 -0.1286 -0.9087
 8377TIP3   OH225094   3.717   1.446   0.866  0.2976 -0.1173  0.3950
 8377TIP3    H125095   3.634   1.397   0.860  1.1713 -1.6384  0.2260
 8377TIP3    H225096   3.694   1.526   0.915 -1.1436 -0.7962  0.8943
 8378TIP3   OH225097   1.909   6.219   2.983 -0.0932 -0.6035 -0.2800
 8378TIP3    H125098   1.855   6.140   2.975  0.2616 -0.9127  0.3168
 8378TIP3    H225099   1.930   6.243   2.893 -0.3986 -1.0509 -0.4758
 8379TIP3   OH225100   1.905   5.642   2.706  0.4816 -0.0815 -0.3605
 8379TIP3    H125101   1.928   5.549   2.695  0.5167 -0.2793  1.1988
 8379TIP3    H225102   1.928   5.682   2.622  1.5631 -1.2654 -0.6682
 8380TIP3   OH225103   1.085   3.851   3.815 -0.1290 -0.5095 -0.4446
 8380TIP3    H125104   1.020   3.845   3.885 -0.1571 -1.1807 -0.5133
 8380TIP3    H225105   1.036   3.884   3.740  0.2338  1.6968  0.2396
 8381TIP3   OH225106   2.186   5.548   2.577  0.1531 -0.0088 -0.0968
 8381TIP3    H125107   2.227   5.620   2.529  1.3421 -1.5106 -1.4719
 8381TIP3    H225108   2.102   5.534   2.534  0.4044 -0.1407 -0.5508
 8382TIP3   OH225109   5.176   5.118   0.584 -0.3148  0.1737 -0.4421
 8382TIP3    H125110   5.122   5.109   0.663 -0.5526 -1.2092 -0.7442
 8382TIP3    H225111   5.235   5.043   0.587  0.0081  0.3874 -1.3330
 8383TIP3   OH225112   3.586   2.381   3.284  0.7206  0.1667 -0.4379
 8383TIP3    H125113   3.614   2.463   3.242 -1.6542  1.5599  0.5527
 8383TIP3    H225114   3.521   2.344   3.224 -0.7671  0.8314  0.7189
 8384TIP3   OH225115   0.800   4.964   3.054 -0.4464 -0.0429 -0.4349
 8384TIP3    H125116   0.788   4.902   2.982 -0.1477 -0.0289 -0.4949
 8384TIP3    H225117   0.730   4.941   3.116 -1.8888  1.1290 -1.5505
 8385TIP3   OH225118   1.058   2.901   0.629  0.2144  0.2266  0.5284
 8385TIP3    H125119   1.107   2.983   0.624  0.4103  0.2137  1.8687
 8385TIP3    H225120   0.970   2.924   0.601  0.7103  0.4720 -0.9233
 8386TIP3   OH225121   0.205   1.485   0.272 -0.2688  0.3503 -0.4736
 8386TIP3    H125122   0.236   1.437   0.196 -0.3105 -0.3040 -0.0839
 8386TIP3    H225123   0.112   1.463   0.279 -0.2766  0.4420 -0.2666
 8387TIP3   OH225124   1.126   1.386   3.119  0.0919 -0.1190 -0.1994
 8387TIP3    H125125   1.220   1.373   3.103  0.3345  1.3122 -0.0309
 8387TIP3    H225126   1.100   1.456   3.059 -0.4421  0.7742  1.0224
 8388TIP3   OH225127   2.898   0.587   2.202  0.1957 -0.3315  0.8481
 8388TIP3    H125128   2.852   0.560   2.122 -0.3689  1.6766  0.4525
 8388TIP3    H225129   2.829   0.604   2.265  0.5700 -0.4360  1.2901
 8389TIP3   OH225130   1.122   0.498   0.389 -0.0248  0.1128 -0.2363
 8389TIP3    H125131   1.055   0.448   0.343  0.1896  1.1594 -1.7780
 8389TIP3    H225132   1.137   0.575   0.333  3.6288 -0.8415 -0.8582
 8390TIP3   OH225133   0.776   3.188   2.739  0.6739  0.2768  0.1427
 8390TIP3    H125134   0.719   3.203   2.815  1.4182  2.8980  0.2870
 8390TIP3    H225135   0.815   3.102   2.755  0.4114  0.5258  2.5000
 8391TIP3   OH225136   1.770   3.199   0.660 -0.3672  0.2855  0.2395
 8391TIP3    H125137   1.691   3.203   0.714 -1.5394 -1.9708 -1.1792
 8391TIP3    H225138   1.838   3.168   0.719 -0.9540  0.5501  1.0709
 8392TIP3   OH225139   2.103   3.714   4.493 -0.3062  0.1180 -0.3457
 8392TIP3    H125140   2.097   3.664   4.574  0.5239  0.5926  0.0207
 8392TIP3    H225141   2.018   3.701   4.450 -0.6472 -0.3667  0.4573
 8393TIP3   OH225142   3.500   2.388   1.417  0.0251  0.5199  0.3467
 8393TIP3    H125143   3.431   2.356   1.475 -0.5942  0.4475 -0.4244
 8393TIP3    H225144   3.458   2.453   1.362  0.5156  0.3216 -0.2757
 8394TIP3   OH225145   5.701   0.280   2.943  0.0380  0.4090 -0.2027
 8394TIP3    H125146   5.692   0.367   2.981  0.1904  0.2409  0.2307
 8394TIP3    H225147   5.772   0.289   2.879  1.3369  0.1928  1.1489
 8395TIP3   OH225148   2.004   6.078   2.014  0.5321  0.0568  0.2346
 8395TIP3    H125149   1.943   6.113   2.079 -0.2453  0.1199 -0.5097
 8395TIP3    H225150   2.010   5.985   2.034 -0.6753 -0.1613 -0.3542
 8396TIP3   OH225151   1.925   6.680   1.967  0.0808 -0.2288  0.0710
 8396TIP3    H125152   1.876   6.761   1.984 -0.1870  0.0343 -1.7803
 8396TIP3    H225153   1.894   6.619   2.035  0.1334  1.1245  1.3725
 8397TIP3   OH225154   5.813   0.281   0.734  0.0135 -0.0724  0.1544
 8397TIP3    H125155   5.732   0.237   0.759 -1.4027  1.6513 -1.1578
 8397TIP3    H225156   5.785   0.366   0.700  2.4304  0.8303  0.2102
 8398TIP3   OH225157   1.882   2.335   0.575  0.5587  0.3974 -0.1315
 8398TIP3    H125158   1.861   2.341   0.482 -1.5192 -0.7527  0.2160
 8398TIP3    H225159   1.819   2.392   0.618  0.8565  0.1448  0.6553
 8399TIP3   OH225160   4.210   1.366   0.122  0.1726 -0.7348  0.3514
 8399TIP3    H125161   4.252   1.308   0.058  0.4482  0.3065 -0.4545
 8399TIP3    H225162   4.198   1.448   0.075 -0.1269 -0.1065  1.4807
 8400TIP3   OH225163   0.287   5.685   0.989  0.4541  0.0189  0.4512
 8400TIP3    H125164   0.210   5.629   0.983  0.5838 -0.1800  0.6039
 8400TIP3    H225165   0.315   5.697   0.899  0.8732 -0.8004  0.4603
 8401TIP3   OH225166   6.090   2.168   1.729 -0.6868  0.3893  0.1113
 8401TIP3    H125167   6.159   2.149   1.665 -1.2360  0.4139 -0.4944
 8401TIP3    H225168   6.011   2.130   1.691 -1.1918  1.1645  0.3556
 8402TIP3   OH225169   0.365   4.862   1.512  0.1842 -0.0745  0.0036
 8402TIP3    H125170   0.378   4.956   1.499  1.6045  0.1363  2.4472
 8402TIP3    H225171   0.292   4.857   1.574  1.2647 -0.4636  1.2796
 8403TIP3   OH225172   4.165   1.424   0.402 -0.0173 -0.4104  0.1935
 8403TIP3    H125173   4.072   1.444   0.392  0.0856 -0.0799 -0.1579
 8403TIP3    H225174   4.196   1.410   0.312  0.4252  0.1998  0.2443
 8404TIP3   OH225175   3.774   4.160   2.881 -0.3937  0.6614  0.2227
 8404TIP3    H125176   3.784   4.211   2.961 -0.6769  2.7038 -0.9689
 8404TIP3    H225177   3.862   4.156   2.844  0.0409 -1.6194  1.3325
 8405TIP3   OH225178   3.202   3.629   0.662  0.0144 -0.3233  0.2523
 8405TIP3    H125179   3.202   3.634   0.567  0.7073  0.7459  0.2941
 8405TIP3    H225180   3.126   3.681   0.688 -0.0598 -0.4526  0.2983
 8406TIP3   OH225181   5.506   1.078   2.195  0.0300  0.0061 -0.2603
 8406TIP3    H125182   5.421   1.102   2.232  0.0438  0.8754 -0.7725
 8406TIP3    H225183   5.484   1.018   2.123 -0.1398  0.1699 -0.3442
 8407TIP3   OH225184   0.257   4.594   1.914 -0.7393 -0.3983  0.3266
 8407TIP3    H125185   0.295   4.651   1.981 -1.9332  0.3324  0.4085
 8407TIP3    H225186   0.233   4.514   1.961  0.6105 -0.8470  0.2832
 8408TIP3   OH225187   6.063   5.985   3.321 -0.5863  0.4520 -0.0497
 8408TIP3    H125188   6.109   5.938   3.391 -0.2153 -0.0205 -0.6036
 8408TIP3    H225189   5.999   6.039   3.367  1.0787  1.7866  0.8085
 8409TIP3   OH225190   0.567   3.193   4.799  0.9240  0.2017  0.1064
 8409TIP3    H125191   0.579   3.275   4.848  2.8867 -0.1814  0.3829
 8409TIP3    H225192   0.640   3.138   4.829  0.2939 -1.2279 -0.9120
 8410TIP3   OH225193   1.106   2.318   3.750  0.1292 -0.5991 -0.1780
 8410TIP3    H125194   1.077   2.335   3.840 -3.1930  0.2005 -1.2363
 8410TIP3    H225195   1.034   2.268   3.711  0.8388  0.2606 -2.7797
 8411TIP3   OH225196   3.710   0.628   1.650  0.2244  0.1721  0.3949
 8411TIP3    H125197   3.753   0.709   1.621  1.0641 -0.8199 -1.2827
 8411TIP3    H225198   3.676   0.589   1.570 -0.9156 -0.7290  1.2865
 8412TIP3   OH225199   1.499   4.323   1.655  0.2425  0.2460  0.2771
 8412TIP3    H125200   1.504   4.291   1.745 -0.6926 -1.2616 -0.1701
 8412TIP3    H225201   1.590   4.321   1.625  0.5564  0.7016  1.1550
 8413TIP3   OH225202   5.179   2.967   5.636  0.4946 -0.4887 -0.4035
 8413TIP3    H125203   5.161   2.999   5.548 -1.0019  0.5975  0.2449
 8413TIP3    H225204   5.272   2.944   5.636  0.5530 -0.3256 -2.1926
 8414TIP3   OH225205   2.687   2.007   5.268 -0.4723  0.4546  0.1813
 8414TIP3    H125206   2.746   1.935   5.248 -0.9425 -0.4994  2.0075
 8414TIP3    H225207   2.727   2.052   5.343 -1.0930  0.9480  0.2313
 8415TIP3   OH225208   3.454   4.275   0.479 -0.1854 -0.2561 -0.2587
 8415TIP3    H125209   3.511   4.250   0.552 -0.6268 -0.9609 -0.1560
 8415TIP3    H225210   3.422   4.193   0.444 -0.9767  0.1311 -0.4608
 8416TIP3   OH225211   2.430   3.844   0.162 -0.5978  0.7707 -0.3750
 8416TIP3    H125212   2.429   3.840   0.257  1.5881  0.3461 -0.3100
 8416TIP3    H225213   2.472   3.762   0.135  1.1866  1.9938 -1.5327
 8417TIP3   OH225214   4.423   3.918   4.894  0.6299  0.0137 -0.3472
 8417TIP3    H125215   4.430   3.867   4.813 -0.1383 -2.3352  0.9743
 8417TIP3    H225216   4.417   3.852   4.963 -2.1062  1.8584  1.3659
 8418TIP3   OH225217   2.722   1.939   3.598  0.2727 -0.5703 -0.1299
 8418TIP3    H125218   2.816   1.923   3.587  0.4460  0.5693 -0.3914
 8418TIP3    H225219   2.682   1.889   3.526  0.9128  1.2246 -1.8164
 8419TIP3   OH225220   0.821   6.165   0.863  0.0493  0.2460  0.0303
 8419TIP3    H125221   0.840   6.192   0.773 -1.8046 -2.7026 -1.3893
 8419TIP3    H225222   0.875   6.087   0.876 -0.7805 -0.1943  0.9051
 8420TIP3   OH225223   2.325   0.757   3.148 -0.5760 -0.1413  0.1876
 8420TIP3    H125224   2.298   0.679   3.100 -1.7176 -1.0238  2.1131
 8420TIP3    H225225   2.350   0.820   3.081  0.8559 -2.2992 -1.4478
 8421TIP3   OH225226   1.553   6.683   5.895 -0.1048 -0.6881 -0.7291
 8421TIP3    H125227   1.563   6.626   5.818 -2.6462 -0.5350 -1.2525
 8421TIP3    H225228   1.524   6.767   5.859 -1.3253 -0.6080  0.3826
 8422TIP3   OH225229   0.448   0.929   1.986 -0.4511  0.5517  0.0225
 8422TIP3    H125230   0.476   1.018   2.009  0.4122  0.9780 -2.3600
 8422TIP3    H225231   0.357   0.938   1.958 -0.2365  0.7879 -0.6193
 8423TIP3   OH225232   0.235   1.597   2.334  0.3613  0.1793 -0.1069
 8423TIP3    H125233   0.234   1.584   2.239  2.0380 -0.8694 -0.0199
 8423TIP3    H225234   0.301   1.666   2.347  0.7148 -0.2460  0.3480
 8424TIP3   OH225235   1.927   0.564   3.338  0.2429 -0.0565 -0.0978
 8424TIP3    H125236   1.926   0.660   3.338 -2.0301 -0.0184  0.3143
 8424TIP3    H225237   1.970   0.540   3.256  1.1069  1.2840 -0.0686
 8425TIP3   OH225238   4.307   3.345   3.102  0.2550  0.2157 -0.4195
 8425TIP3    H125239   4.290   3.439   3.112  0.4266  0.3486 -1.2761
 8425TIP3    H225240   4.222   3.308   3.077  0.7390  0.6064 -2.9248
 8426TIP3   OH225241   4.121   6.181   0.858  0.3804 -0.4646  0.3505
 8426TIP3    H125242   4.139   6.110   0.797 -1.0915  0.8845 -1.7914
 8426TIP3    H225243   4.204   6.228   0.865  0.7568 -1.0617 -0.0311
 8427TIP3   OH225244   0.132   2.629   2.317  0.4802 -0.2060  0.1073
 8427TIP3    H125245   0.113   2.565   2.248  2.1486 -0.0301 -0.5506
 8427TIP3    H225246   0.227   2.637   2.318  0.5279 -0.2158  2.4779
 8428TIP3   OH225247   2.776   4.088   4.248 -0.1724 -0.5179  0.0756
 8428TIP3    H125248   2.796   3.994   4.252 -0.6858 -0.7648 -2.0696
 8428TIP3    H225249   2.853   4.131   4.287  0.0610 -1.8018  1.1011
 8429TIP3   OH225250   1.914   4.686   1.288  0.2244 -0.5278  0.0516
 8429TIP3    H125251   1.989   4.627   1.301  0.4557 -0.3348 -0.3717
 8429TIP3    H225252   1.873   4.692   1.374  1.5771  0.5346  0.6622
 8430TIP3   OH225253   6.578   3.270   0.669 -0.0378 -1.1384 -0.2869
 8430TIP3    H125254   6.588   3.365   0.675  1.6201 -1.3785  2.0048
 8430TIP3    H225255   6.666   3.235   0.682 -0.7020 -3.0213 -0.4773
 8431TIP3   OH225256   4.072   0.616   4.233 -0.3155  0.0082  0.1702
 8431TIP3    H125257   4.021   0.596   4.312 -0.7434 -1.2577 -0.3921
 8431TIP3    H225258   4.077   0.712   4.231 -2.0405  0.1460  0.6557
 8432TIP3   OH225259   1.147   3.359   0.419 -0.4246  0.0193 -0.1929
 8432TIP3    H125260   1.240   3.341   0.403 -0.8228 -0.4267 -2.2203
 8432TIP3    H225261   1.145   3.452   0.444  0.5620 -0.0054  0.0287
 8433TIP3   OH225262   5.394   5.936   1.133 -0.4100  0.8046  0.0097
 8433TIP3    H125263   5.474   5.964   1.089 -0.4524  0.4158 -0.3227
 8433TIP3    H225264   5.376   5.849   1.097  1.0031 -0.7241  2.6798
 8434TIP3   OH225265   1.636   5.009   3.070 -0.0565  0.4043  0.3325
 8434TIP3    H125266   1.601   5.098   3.074 -0.3380  0.3338 -0.3287
 8434TIP3    H225267   1.729   5.021   3.048 -0.3373  0.5234 -0.9146
 8435TIP3   OH225268   1.417   0.418   3.358 -0.2525 -0.0603  0.2547
 8435TIP3    H125269   1.409   0.398   3.451 -1.5506  0.2915  0.2506
 8435TIP3    H225270   1.508   0.398   3.336  0.2136  0.3418  1.7064
 8436TIP3   OH225271   6.045   3.461   1.502  0.2714  0.3473 -0.7636
 8436TIP3    H125272   6.025   3.518   1.429 -0.8068  0.5628 -0.3139
 8436TIP3    H225273   5.982   3.389   1.495  0.1008  0.4115 -0.0104
 8437TIP3   OH225274   3.841   0.543   3.011 -0.0854 -0.2280  0.0260
 8437TIP3    H125275   3.880   0.629   3.027  0.5028 -0.4089 -0.3925
 8437TIP3    H225276   3.814   0.512   3.097 -0.2086  0.3264  0.1944
 8438TIP3   OH225277   6.269   4.022   0.820  0.4961  0.1158  0.1415
 8438TIP3    H125278   6.329   3.994   0.890  1.5343  2.6951  0.4015
 8438TIP3    H225279   6.311   4.099   0.782 -0.5624 -0.5661 -2.6844
 8439TIP3   OH225280   2.366   6.758   4.183  0.4279  0.0149 -0.0162
 8439TIP3    H125281   2.428   6.721   4.120 -0.3962 -2.7328  0.6866
 8439TIP3    H225282   2.383   6.852   4.179  1.4830 -0.1795 -3.1543
 8440TIP3   OH225283   0.962   0.990   1.911 -0.6850  0.7737 -0.3492
 8440TIP3    H125284   0.887   1.005   1.854 -0.6135  1.9140 -0.1595
 8440TIP3    H225285   0.992   1.078   1.935  1.6957  0.4241 -1.7055
 8441TIP3   OH225286   0.708   0.778   1.568  0.3048 -0.0811  0.0294
 8441TIP3    H125287   0.713   0.704   1.506  1.8949 -0.0494  0.0806
 8441TIP3    H225288   0.617   0.779   1.596  0.2448 -2.0917  0.0770
 8442TIP3   OH225289   0.722   1.890   5.270 -0.0745 -0.3297  0.0985
 8442TIP3    H125290   0.628   1.872   5.279  0.0426 -0.5754  0.8633
 8442TIP3    H225291   0.743   1.860   5.181 -0.3156 -2.1937  0.6150
 8443TIP3   OH225292   5.980   4.451   1.844 -0.5957  0.0062 -0.2816
 8443TIP3    H125293   5.899   4.417   1.805 -0.4065  0.9592 -1.5691
 8443TIP3    H225294   5.951   4.499   1.922 -1.0174 -1.6476  0.6129
 8444TIP3   OH225295   4.569   3.137   1.999 -0.1262 -0.5397 -0.3214
 8444TIP3    H125296   4.595   3.224   1.968 -1.5540 -0.0269 -0.1593
 8444TIP3    H225297   4.600   3.134   2.089  2.7174 -1.4614 -1.2238
 8445TIP3   OH225298   1.702   1.665   2.277 -0.4816  0.3521 -0.0460
 8445TIP3    H125299   1.697   1.573   2.304 -0.8286 -0.0477 -1.3934
 8445TIP3    H225300   1.672   1.714   2.353  0.3952 -0.5993  0.9445
 8446TIP3   OH225301   4.624   6.273   5.354  0.0376  0.3616  0.2316
 8446TIP3    H125302   4.714   6.250   5.331  0.2552  0.8015  0.6053
 8446TIP3    H225303   4.583   6.191   5.382  0.4350  0.2210  0.4043
 8447TIP3   OH225304   0.150   5.158   1.609 -0.1859 -0.3913 -1.1437
 8447TIP3    H125305   0.217   5.149   1.540  1.1273  0.3665 -0.0220
 8447TIP3    H225306   0.134   5.253   1.614  0.5068 -0.3142  0.2450
 8448TIP3   OH225307   0.572   0.654   3.597 -0.2200 -0.0364  0.6046
 8448TIP3    H125308   0.542   0.564   3.589 -1.0115  0.3693 -2.3755
 8448TIP3    H225309   0.643   0.661   3.533 -0.4233  1.5152  0.5066
 8449TIP3   OH225310   2.575   5.908   5.595  0.7773 -0.2849  0.3854
 8449TIP3    H125311   2.517   5.880   5.666  0.3368  2.2910  1.1459
 8449TIP3    H225312   2.583   6.002   5.607  1.9938 -0.0083 -2.0680
 8450TIP3   OH225313   2.950   4.656   0.993 -0.2219  0.0094 -0.1992
 8450TIP3    H125314   2.969   4.683   1.082  0.9372 -2.0961  0.2363
 8450TIP3    H225315   2.861   4.689   0.977  0.1580  1.8414  1.0873
 8451TIP3   OH225316   0.725   2.510   5.028  0.0522 -0.0370 -0.0016
 8451TIP3    H125317   0.788   2.437   5.024  0.9713  0.6952  0.6196
 8451TIP3    H225318   0.673   2.492   5.106 -1.0138 -1.0134 -0.8973
 8452TIP3   OH225319   2.050   6.750   4.867 -0.1144  0.1311  0.4890
 8452TIP3    H125320   2.036   6.661   4.898  0.1709  0.6618  2.2962
 8452TIP3    H225321   2.139   6.771   4.895  0.1037  0.7292 -0.6014
 8453TIP3   OH225322   4.022   4.362   4.283 -0.2408 -0.1949 -0.3381
 8453TIP3    H125323   4.013   4.301   4.356 -1.8643 -1.8835 -1.8465
 8453TIP3    H225324   4.086   4.320   4.225  0.9810  1.0928  0.0165
 8454TIP3   OH225325   5.300   4.172   2.895 -0.1388  0.3810 -0.5593
 8454TIP3    H125326   5.345   4.088   2.900  1.0429  0.7784 -2.9229
 8454TIP3    H225327   5.314   4.212   2.982 -0.2689 -1.5884  0.4184
 8455TIP3   OH225328   6.244   3.212   1.013  0.5296  0.9014  0.4368
 8455TIP3    H125329   6.169   3.260   1.049  1.3061  0.9409  2.0822
 8455TIP3    H225330   6.300   3.280   0.976  1.5702  1.3211  2.6587
 8456TIP3   OH225331   3.851   4.845   4.538 -0.1847 -0.4585 -0.6663
 8456TIP3    H125332   3.894   4.764   4.513  0.1637  0.2927 -2.7329
 8456TIP3    H225333   3.873   4.907   4.467 -1.7183  0.9770  0.0277
 8457TIP3   OH225334   2.680   3.597   0.031  0.2674  0.3954  0.0070
 8457TIP3    H125335   2.629   3.544   0.092  0.2867 -0.6340 -0.8468
 8457TIP3    H225336   2.620   3.615  -0.041  0.7136  0.2480 -0.4099
 8458TIP3   OH225337   5.174   1.655   3.097 -0.2335  0.0043  0.6171
 8458TIP3    H125338   5.125   1.709   3.034  0.2297 -0.3237 -0.0395
 8458TIP3    H225339   5.228   1.718   3.145  0.6823  0.0941 -0.4897
 8459TIP3   OH225340   3.859   0.719   5.548  0.7851  0.3037 -0.6330
 8459TIP3    H125341   3.844   0.775   5.472  0.1623 -0.9935 -1.5029
 8459TIP3    H225342   3.904   0.775   5.611  2.5843  1.0333 -2.4710
 8460TIP3   OH225343   1.433   0.000   3.273  0.5191 -0.2200  0.5883
 8460TIP3    H125344   1.471   0.032   3.355  0.6389  0.0835  0.4170
 8460TIP3    H225345   1.382   0.075   3.241  0.4346 -0.3551  0.4098
 8461TIP3   OH225346   5.306   0.191   1.795  0.5446 -0.4547 -0.5270
 8461TIP3    H125347   5.237   0.151   1.848  0.5837 -1.3403 -1.1346
 8461TIP3    H225348   5.340   0.120   1.742  1.1197  0.2334 -1.0994
 8462TIP3   OH225349   3.103   0.048   0.601 -0.2725 -0.4056 -0.5374
 8462TIP3    H125350   3.046   0.125   0.591 -1.2529 -1.0710 -0.2090
 8462TIP3    H225351   3.184   0.083   0.640  0.4117  0.8879 -2.9380
 8463TIP3   OH225352   2.748   5.546   3.337 -0.1514  0.2676  0.1330
 8463TIP3    H125353   2.779   5.462   3.305 -0.9756  0.9322 -2.7035
 8463TIP3    H225354   2.822   5.605   3.325 -0.2069  0.3492  0.1919
 8464TIP3   OH225355   2.575   3.446   4.092 -0.2868  0.5829  0.1287
 8464TIP3    H125356   2.505   3.438   4.156 -0.7231  0.8702 -0.2999
 8464TIP3    H225357   2.590   3.357   4.061  0.0404  0.4210  0.7464
 8465TIP3   OH225358   5.300   6.267   0.543  0.1862 -0.5010  0.3063
 8465TIP3    H125359   5.238   6.274   0.470  1.5948  0.0057 -0.8862
 8465TIP3    H225360   5.303   6.355   0.580 -1.2681 -0.9703  1.6708
 8466TIP3   OH225361   2.846   6.808   0.071 -0.1359 -0.1167  0.1558
 8466TIP3    H125362   2.828   6.715   0.085 -0.3348 -0.1952 -0.6195
 8466TIP3    H225363   2.846   6.845   0.160  0.8306 -1.0045  0.5432
 8467TIP3   OH225364   2.103   6.003   3.082 -0.3089 -0.0499  0.1316
 8467TIP3    H125365   2.096   5.915   3.045 -0.4374 -0.5652  1.3271
 8467TIP3    H225366   2.052   6.059   3.024  0.5502 -0.5816 -1.1811
 8468TIP3   OH225367   1.044   2.517   1.516 -0.3215 -0.1387  0.3776
 8468TIP3    H125368   1.105   2.548   1.583  1.0774 -1.4621 -0.2285
 8468TIP3    H225369   0.958   2.533   1.553  0.3763  1.3420  1.4755
 8469TIP3   OH225370   1.612   1.061   1.041 -0.4012  0.7041 -0.2634
 8469TIP3    H125371   1.688   1.019   1.082  1.0169  3.1697 -0.1909
 8469TIP3    H225372   1.552   1.078   1.113  0.0635  0.9160  0.0760
 8470TIP3   OH225373   4.005   6.697   4.019  0.0804 -0.3852  0.4643
 8470TIP3    H125374   4.052   6.779   4.010 -0.5605  0.0619  1.1275
 8470TIP3    H225375   3.986   6.671   3.928  0.6631 -0.0333  0.2365
 8471TIP3   OH225376   4.007   3.399   3.868 -0.1588  0.0185 -0.3884
 8471TIP3    H125377   4.061   3.327   3.836 -1.5798 -0.9686 -0.6844
 8471TIP3    H225378   4.069   3.464   3.902  1.1627 -2.4859  2.4062
 8472TIP3   OH225379   5.717   3.702   4.237  0.1227  0.1893 -0.1277
 8472TIP3    H125380   5.689   3.792   4.220 -0.1641  0.0158 -0.6098
 8472TIP3    H225381   5.647   3.665   4.290  0.6763  0.5163  0.8473
 8473TIP3   OH225382   7.115   4.924   1.340  0.1224  0.6469  0.2768
 8473TIP3    H125383   7.137   4.987   1.271  0.0772  2.2981  1.7043
 8473TIP3    H225384   7.151   4.841   1.309  1.8390  1.7486 -0.8459
 8474TIP3   OH225385   6.199   1.697   1.285 -0.4452 -0.3602  0.2124
 8474TIP3    H125386   6.224   1.605   1.286  0.2569 -0.1853 -0.4472
 8474TIP3    H225387   6.124   1.701   1.227 -0.7679 -0.5782  0.6049
 8475TIP3   OH225388   4.143   3.688   0.729 -0.1259  0.0696  0.0277
 8475TIP3    H125389   4.161   3.600   0.697  0.1853  0.0204  0.3341
 8475TIP3    H225390   4.161   3.744   0.653  1.2472  0.0098  0.2872
 8476TIP3   OH225391   6.066   0.606   3.115 -0.3791 -0.2894 -0.5430
 8476TIP3    H125392   6.019   0.644   3.040  0.7075  0.9567 -0.6447
 8476TIP3    H225393   6.109   0.681   3.156  1.5516 -1.3529 -0.5033
 8477TIP3   OH225394   1.272   4.958   4.447 -0.3971  0.0582 -0.2154
 8477TIP3    H125395   1.191   4.983   4.492  0.0383  0.1138  0.5523
 8477TIP3    H225396   1.323   5.039   4.442 -0.4417  0.0520 -0.8208
 8478TIP3   OH225397   6.188   6.422   5.251  0.1505 -0.1121  0.3727
 8478TIP3    H125398   6.240   6.351   5.289 -0.2762 -1.5017 -1.5320
 8478TIP3    H225399   6.116   6.378   5.205  0.4042  1.4822 -1.6798
 8479TIP3   OH225400   6.710   4.332   4.276 -0.2045 -0.2173  0.6629
 8479TIP3    H125401   6.707   4.345   4.182 -0.4609  0.4610  0.7594
 8479TIP3    H225402   6.618   4.333   4.303 -0.1496 -0.7014  0.8861
 8480TIP3   OH225403   1.489   5.680   0.239  0.3940 -0.2754  0.4486
 8480TIP3    H125404   1.465   5.619   0.170  1.5268 -0.9861  0.6578
 8480TIP3    H225405   1.413   5.682   0.297 -0.3231 -0.1439 -0.4718
 8481TIP3   OH225406   4.112   5.765   1.102  0.2888  1.0474 -0.3325
 8481TIP3    H125407   4.075   5.828   1.040  0.9081  1.7364 -0.0254
 8481TIP3    H225408   4.192   5.733   1.060  0.1110  0.6520 -0.3754
 8482TIP3   OH225409   6.420   0.814   5.202 -0.3125 -0.2076  0.6028
 8482TIP3    H125410   6.357   0.858   5.259  1.1117  1.4252  1.0039
 8482TIP3    H225411   6.447   0.882   5.140  2.4903 -0.2537  1.6742
 8483TIP3   OH225412   4.574   2.588   0.406 -0.4039  0.0683 -0.5375
 8483TIP3    H125413   4.624   2.591   0.324  0.8695  1.9925  0.2288
 8483TIP3    H225414   4.637   2.612   0.474 -1.5643 -0.9424  0.9682
 8484TIP3   OH225415   0.853   0.071   3.956 -0.2491 -0.8318  0.0223
 8484TIP3    H125416   0.874   0.025   4.037 -0.5775  0.4991  0.8981
 8484TIP3    H225417   0.915   0.143   3.952 -0.6594 -0.5053 -0.5843
 8485TIP3   OH225418   5.628   1.153   2.934  0.7324 -0.7237 -0.0253
 8485TIP3    H125419   5.635   1.199   3.017 -1.3985 -0.5844  0.1266
 8485TIP3    H225420   5.677   1.208   2.872 -0.5320  1.0428  0.4584
 8486TIP3   OH225421   3.821   1.411   0.207  0.3068 -0.0411 -0.4268
 8486TIP3    H125422   3.743   1.457   0.176  0.1569  0.1618  0.2205
 8486TIP3    H225423   3.889   1.478   0.210 -0.1966  0.4625  1.6051
 8487TIP3   OH225424   2.482   1.476   0.347 -0.1495  0.1733 -0.0479
 8487TIP3    H125425   2.422   1.439   0.283 -0.3226 -1.4487  0.9976
 8487TIP3    H225426   2.426   1.504   0.420  0.3084 -1.1215  0.8280
 8488TIP3   OH225427   3.493   0.190   4.352 -0.0979  0.6742 -0.0428
 8488TIP3    H125428   3.510   0.280   4.379 -0.1123  1.4325 -2.3049
 8488TIP3    H225429   3.398   0.185   4.341  0.0540  1.0121 -1.7706
 8489TIP3   OH225430   2.470   2.356   4.619 -0.3532  0.0898  0.2030
 8489TIP3    H125431   2.545   2.406   4.650  1.1932 -0.9807 -1.5758
 8489TIP3    H225432   2.401   2.421   4.604 -0.1247  0.9973  2.6413
 8490TIP3   OH225433   3.597   5.673   4.581  0.1175  0.3394 -0.3368
 8490TIP3    H125434   3.671   5.711   4.627 -1.7507  0.6644  2.6947
 8490TIP3    H225435   3.550   5.748   4.544 -1.1600  0.7393  1.8603
 8491TIP3   OH225436   0.835   4.920   1.394  0.0861 -0.5353 -0.6312
 8491TIP3    H125437   0.770   4.929   1.325 -0.4059 -2.0484 -0.4201
 8491TIP3    H225438   0.915   4.958   1.358 -0.7832  0.9235 -1.0734
 8492TIP3   OH225439   6.597   5.253   1.056  0.4561  0.4251 -0.3084
 8492TIP3    H125440   6.522   5.194   1.050 -1.4345  2.5834  0.7384
 8492TIP3    H225441   6.643   5.225   1.135  1.6492 -1.7696 -1.6664
 8493TIP3   OH225442   3.110   4.622   1.361 -0.3637  0.0887 -0.1692
 8493TIP3    H125443   3.155   4.618   1.445 -2.9262 -0.3547  1.2663
 8493TIP3    H225444   3.128   4.537   1.320  0.3965  0.0789  0.1740
 8494TIP3   OH225445   6.870   4.406   3.577 -0.2176 -0.0973 -0.3406
 8494TIP3    H125446   6.868   4.481   3.518  2.1112  0.4009  0.1156
 8494TIP3    H225447   6.855   4.330   3.520  0.3799  0.4981 -1.3217
 8495TIP3   OH225448   6.049   4.913   2.539  0.0093 -0.1900 -0.5095
 8495TIP3    H125449   6.035   4.985   2.601  1.6045 -0.8481  0.6774
 8495TIP3    H225450   5.975   4.855   2.554  0.6240 -0.5912  1.2016
 8496TIP3   OH225451   6.211   6.566   0.788 -0.2618 -0.2742  0.0095
 8496TIP3    H125452   6.286   6.547   0.732  0.3850  1.0966  0.3567
 8496TIP3    H225453   6.145   6.603   0.729 -0.6508 -1.4052 -0.2830
 8497TIP3   OH225454   2.513   2.290   0.721 -0.3492 -0.2549 -0.2586
 8497TIP3    H125455   2.592   2.237   0.729  1.2708  1.9872 -0.4657
 8497TIP3    H225456   2.467   2.277   0.804 -0.5514 -2.7074 -0.6926
 8498TIP3   OH225457   4.434   6.194   0.844 -0.5865 -0.1007  0.0158
 8498TIP3    H125458   4.428   6.153   0.757 -4.1442  0.1145 -0.0006
 8498TIP3    H225459   4.452   6.286   0.825 -2.2198  0.1202 -0.6125
 8499TIP3   OH225460   5.588   0.401   5.036 -0.3743 -0.3229 -0.5780
 8499TIP3    H125461   5.563   0.386   5.128  0.9497  0.4900 -0.0587
 8499TIP3    H225462   5.530   0.343   4.986  1.3304 -3.7235  0.9934
 8500TIP3   OH225463   3.607   2.361   2.607  0.3513 -0.0058 -0.0297
 8500TIP3    H125464   3.562   2.292   2.560  0.0914 -0.0484  0.2848
 8500TIP3    H225465   3.576   2.442   2.566 -1.7407  0.1100  1.6264
 8501TIP3   OH225466   1.567   5.097   3.790 -0.7974 -0.1973 -0.5786
 8501TIP3    H125467   1.618   5.045   3.728 -1.8006 -0.7088 -0.9958
 8501TIP3    H225468   1.581   5.054   3.874  1.4752  1.1479 -0.1707
 8502TIP3   OH225469   1.261   3.255   1.855 -0.0156 -0.0624 -0.3162
 8502TIP3    H125470   1.213   3.176   1.830  0.2527 -0.9689  1.8796
 8502TIP3    H225471   1.353   3.235   1.835 -0.1433  0.4689 -1.5479
 8503TIP3   OH225472   6.484   3.248   1.250  0.0383 -0.1025  0.6764
 8503TIP3    H125473   6.391   3.245   1.273  0.2893  1.2663  1.9652
 8503TIP3    H225474   6.506   3.341   1.247  1.1511 -0.3616 -0.6383
 8504TIP3   OH225475   6.615   2.703   3.765  0.0670 -0.3761  0.0474
 8504TIP3    H125476   6.651   2.719   3.852 -1.1087  0.1760  0.4422
 8504TIP3    H225477   6.526   2.674   3.780  0.2066 -1.3777 -0.9410
 8505TIP3   OH225478   0.711   2.726   2.069  0.1795  0.5305 -0.2946
 8505TIP3    H125479   0.620   2.755   2.081  0.3840  0.3627  2.4592
 8505TIP3    H225480   0.754   2.799   2.025 -0.7816  1.6392  0.5330
 8506TIP3   OH225481   6.058   3.604   0.139 -0.0272  0.2406  0.3574
 8506TIP3    H125482   6.146   3.637   0.159  0.3450 -0.6518  0.2454
 8506TIP3    H225483   6.073   3.518   0.099 -0.9671 -0.1474  0.7969
 8507TIP3   OH225484   1.871   1.981   5.360 -0.3097  0.0951  0.2667
 8507TIP3    H125485   1.860   2.068   5.399 -1.0322 -0.0547  0.3970
 8507TIP3    H225486   1.818   1.983   5.280 -0.3404 -0.2361  0.2769
 8508TIP3   OH225487   5.003   1.975   2.091 -0.4156  0.5649  0.2042
 8508TIP3    H125488   5.067   1.975   2.162 -1.1186  3.2760  0.9331
 8508TIP3    H225489   5.055   1.992   2.012  0.3984 -2.6871 -0.1078
 8509TIP3   OH225490   0.114   1.887   3.899 -0.3022  0.8762 -0.2038
 8509TIP3    H125491   0.065   1.899   3.980 -3.2670  0.7524 -1.8441
 8509TIP3    H225492   0.144   1.975   3.876  0.0212  1.0055  0.6710
 8510TIP3   OH225493   3.013   4.224   4.344 -0.1024 -0.1353  0.1131
 8510TIP3    H125494   3.005   4.320   4.344  1.9081  0.0768  0.5759
 8510TIP3    H225495   3.019   4.200   4.436  2.3684 -0.3597 -0.0583
 8511TIP3   OH225496   0.795   2.413   3.446 -0.0817  0.4362  0.2983
 8511TIP3    H125497   0.735   2.366   3.388  0.6831  0.5878 -0.6403
 8511TIP3    H225498   0.805   2.354   3.521 -1.0212  0.1992  0.2525
 8512TIP3   OH225499   6.385   2.045   4.848  0.5976 -0.3551 -0.2412
 8512TIP3    H125500   6.432   2.087   4.776  1.9313 -1.2011  0.0981
 8512TIP3    H225501   6.432   1.963   4.864 -1.1663 -1.3859 -0.0323
 8513TIP3   OH225502   4.453   2.291   2.900 -0.4006 -0.4846 -0.0568
 8513TIP3    H125503   4.502   2.208   2.898 -0.4403 -0.5510  1.0718
 8513TIP3    H225504   4.521   2.358   2.892 -0.2400 -0.6010  0.3038
 8514TIP3   OH225505   4.423   2.131   1.561 -0.2739  1.1523  0.1176
 8514TIP3    H125506   4.376   2.065   1.509  0.5320  0.4638  0.2451
 8514TIP3    H225507   4.502   2.148   1.510  0.6089  0.3451  1.1973
 8515TIP3   OH225508   3.935   1.803   1.268 -0.0511  0.3186  0.3820
 8515TIP3    H125509   3.990   1.743   1.217 -1.0916  1.9831 -2.9870
 8515TIP3    H225510   3.853   1.756   1.280 -0.6273  0.7088 -1.6587
 8516TIP3   OH225511   1.661   6.568   3.662 -0.4110  0.6352  0.3603
 8516TIP3    H125512   1.618   6.516   3.594  0.9604 -1.9988  1.3617
 8516TIP3    H225513   1.605   6.559   3.739 -0.6701  1.5167  0.2881
 8517TIP3   OH225514   3.935   3.446   5.489  0.1880 -0.3180 -0.5116
 8517TIP3    H125515   3.849   3.466   5.451 -0.2525  0.0288  0.6176
 8517TIP3    H225516   3.998   3.487   5.429 -0.5079  0.7019 -0.5778
 8518TIP3   OH225517   5.976   3.152   0.776  0.5803 -0.7429  0.5927
 8518TIP3    H125518   6.048   3.144   0.839  1.7195 -0.5826 -0.6535
 8518TIP3    H225519   5.897   3.148   0.830  1.5197  0.3101  2.1341
 8519TIP3   OH225520   1.902   2.868   5.610  0.4961  0.1645 -0.1086
 8519TIP3    H125521   1.961   2.802   5.571  1.0709  1.4983 -1.5946
 8519TIP3    H225522   1.930   2.872   5.701  1.0136 -1.0381 -0.1805
 8520TIP3   OH225523   6.729   3.955   1.729 -0.4631 -0.5556 -0.2468
 8520TIP3    H125524   6.751   3.928   1.640  1.8773 -0.5715  0.2834
 8520TIP3    H225525   6.634   3.943   1.735 -0.4271 -2.3196 -2.1578
 8521TIP3   OH225526   1.132   1.609   3.643 -0.3922 -0.6208  0.1999
 8521TIP3    H125527   1.152   1.572   3.557  1.7913 -1.6972  1.1017
 8521TIP3    H225528   1.140   1.703   3.631  0.3247 -0.7790 -0.6659
 8522TIP3   OH225529   3.692   2.883   3.591 -0.1124 -0.2089 -0.0526
 8522TIP3    H125530   3.707   2.954   3.654 -0.0856  1.0079 -1.3978
 8522TIP3    H225531   3.628   2.826   3.634 -1.0512  1.2639  0.5645
 8523TIP3   OH225532   0.192   2.179   1.936 -0.6920 -0.6148  0.4682
 8523TIP3    H125533   0.238   2.099   1.913  1.0344  0.0020  1.5469
 8523TIP3    H225534   0.131   2.153   2.005  0.5579 -0.8779  1.5184
 8524TIP3   OH225535   4.075   0.404   2.937 -0.3049  0.0491 -0.3210
 8524TIP3    H125536   3.999   0.458   2.960 -0.1525  0.2310 -0.2428
 8524TIP3    H225537   4.046   0.314   2.951 -0.6627  0.0918 -0.7439
 8525TIP3   OH225538   7.189   1.473   0.019  0.8084  0.7473  0.1174
 8525TIP3    H125539   7.104   1.449   0.056  1.6360  0.7736  2.1604
 8525TIP3    H225540   7.197   1.567   0.034 -0.1702  1.4793 -3.1296
 8526TIP3   OH225541   7.070   3.712   4.798 -0.6098  0.0421 -0.0857
 8526TIP3    H125542   7.127   3.779   4.762 -0.2303 -0.5549 -0.6185
 8526TIP3    H225543   6.995   3.709   4.737 -0.2139 -0.6078 -0.5545
 8527TIP3   OH225544   2.547   6.578   1.885 -0.3253 -0.1527  0.2224
 8527TIP3    H125545   2.457   6.547   1.881  0.0535 -1.1228 -1.3776
 8527TIP3    H225546   2.600   6.503   1.858  0.9050  0.6927  0.2080
 8528TIP3   OH225547   1.512   1.503   4.101 -0.7405  0.0225  0.3233
 8528TIP3    H125548   1.540   1.419   4.066 -2.0131 -0.1938 -0.2403
 8528TIP3    H225549   1.523   1.564   4.027  3.2718  1.1623  1.5782
 8529TIP3   OH225550   1.827   1.365   5.648  0.0298 -0.1276  0.0622
 8529TIP3    H125551   1.861   1.445   5.608 -1.5731  0.1094 -0.9617
 8529TIP3    H225552   1.862   1.294   5.593 -0.1000  0.0141 -0.2042
 8530TIP3   OH225553   0.283   4.547   4.578 -0.4491 -0.1113 -0.1167
 8530TIP3    H125554   0.364   4.595   4.594 -0.1275 -0.7398  0.1842
 8530TIP3    H225555   0.286   4.524   4.485  0.1900 -0.9699  0.1056
 8531TIP3   OH225556   2.654   5.332   3.002  0.5974 -0.1605 -0.8433
 8531TIP3    H125557   2.601   5.349   2.924  0.1513 -1.2170 -0.7888
 8531TIP3    H225558   2.741   5.364   2.980  0.0401  1.2938 -1.0640
 8532TIP3   OH225559   6.908   5.729   1.463  0.0453 -0.3319 -0.1617
 8532TIP3    H125560   6.880   5.646   1.425  1.2268  0.0552 -2.0068
 8532TIP3    H225561   7.004   5.723   1.467  0.1403  0.8647 -0.1221
 8533TIP3   OH225562   3.408   2.069   1.456  0.0312 -0.5558 -0.3302
 8533TIP3    H125563   3.444   2.011   1.523 -0.7331 -0.5404  0.1032
 8533TIP3    H225564   3.389   2.011   1.382 -0.6554 -0.8566  0.0720
 8534TIP3   OH225565   0.064   4.272   5.294 -0.7008  0.1686  0.1954
 8534TIP3    H125566   0.020   4.344   5.340  0.2545  1.1358 -0.3685
 8534TIP3    H225567   0.082   4.307   5.207  1.4630 -0.0748  0.5031
 8535TIP3   OH225568   3.934   2.985   2.747 -0.2901  0.3001  0.3234
 8535TIP3    H125569   3.919   2.962   2.655 -1.1506  0.3166  0.4515
 8535TIP3    H225570   4.014   2.937   2.771  1.0328  1.7305 -0.9401
 8536TIP3   OH225571   4.642   3.422   4.052 -0.6853  0.1614  0.1658
 8536TIP3    H125572   4.592   3.448   3.975 -0.9498  0.0271  0.2913
 8536TIP3    H225573   4.698   3.498   4.070 -0.5787  0.1689 -0.1922
 8537TIP3   OH225574   0.336   5.682   5.772  0.1732 -0.4058  0.9323
 8537TIP3    H125575   0.349   5.689   5.867  0.6366  3.3459  0.7286
 8537TIP3    H225576   0.393   5.609   5.746  1.1132 -0.6433  3.3499
 8538TIP3   OH225577   5.424   1.260   0.943  0.2458 -0.7482  0.1085
 8538TIP3    H125578   5.353   1.244   0.881 -1.7238  2.3788  1.3214
 8538TIP3    H225579   5.500   1.280   0.888 -0.3605 -1.9788 -1.2351
 8539TIP3   OH225580   1.834   2.525   2.366  0.1688 -0.1231 -0.3846
 8539TIP3    H125581   1.926   2.533   2.340 -0.0298  0.0535 -1.0551
 8539TIP3    H225582   1.785   2.552   2.288 -0.4530 -0.5857 -0.1590
 8540TIP3   OH225583   7.051   6.640   1.376 -0.5256  0.0570  0.0641
 8540TIP3    H125584   6.958   6.654   1.396 -1.0173 -0.6139 -1.5365
 8540TIP3    H225585   7.085   6.726   1.354 -1.7146 -0.0882 -2.7888
 8541TIP3   OH225586   2.414   4.153   4.554  0.1010  0.0704 -0.0574
 8541TIP3    H125587   2.445   4.102   4.629 -0.5425 -0.5627 -0.2138
 8541TIP3    H225588   2.346   4.209   4.590 -1.0709 -1.1084 -0.3811
 8542TIP3   OH225589   2.776   2.829   4.969  0.8692  0.4298  0.3233
 8542TIP3    H125590   2.798   2.791   4.884  1.5613  2.9982 -0.7363
 8542TIP3    H225591   2.715   2.766   5.008 -0.6519 -0.1865 -2.7197
 8543TIP3   OH225592   3.948   3.506   1.049 -0.4036 -0.3014 -0.2233
 8543TIP3    H125593   4.040   3.515   1.023 -0.2358  0.2910  0.5540
 8543TIP3    H225594   3.911   3.593   1.034 -0.8250 -0.5308 -0.4962
 8544TIP3   OH225595   6.254   0.067   0.287 -0.0630 -0.0531  0.2920
 8544TIP3    H125596   6.164   0.092   0.305 -0.3588 -0.3851 -0.6572
 8544TIP3    H225597   6.274   0.107   0.202  0.8492  0.4263  0.7145
 8545TIP3   OH225598   3.105   5.934   2.087  0.6115  0.6082  0.1729
 8545TIP3    H125599   3.051   5.964   2.013  1.6860  1.2134 -0.3949
 8545TIP3    H225600   3.124   5.842   2.068  0.9711  0.7911 -0.3738
 8546TIP3   OH225601   3.771   5.139   5.152 -0.1838  0.2072  0.5946
 8546TIP3    H125602   3.832   5.112   5.220 -0.5075  0.6690  1.0748
 8546TIP3    H225603   3.824   5.142   5.072  0.2135 -0.2552  0.8399
 8547TIP3   OH225604   3.143   5.476   4.649  0.5115  0.0134 -0.1565
 8547TIP3    H125605   3.055   5.440   4.659  1.8349 -3.8628 -0.4260
 8547TIP3    H225606   3.150   5.543   4.717 -1.9109 -1.1831  1.4317
 8548TIP3   OH225607   3.258   4.143   1.160 -0.2845 -0.6402  0.3251
 8548TIP3    H125608   3.302   4.058   1.163  1.8806  0.4057  0.0269
 8548TIP3    H225609   3.247   4.162   1.067  0.1519 -0.1539  0.3711
 8549TIP3   OH225610   0.703   4.839   0.082 -0.7501 -0.2667 -0.3835
 8549TIP3    H125611   0.709   4.880   0.168  0.4774 -2.5973  0.7412
 8549TIP3    H225612   0.766   4.887   0.028  0.6391 -0.5912  0.8691
 8550TIP3   OH225613   6.908   5.497   3.475  1.0860 -0.3131  0.1466
 8550TIP3    H125614   6.952   5.496   3.560 -0.0500 -0.8698  0.7531
 8550TIP3    H225615   6.889   5.589   3.458  0.8635 -0.2433  0.7547
 8551TIP3   OH225616   0.879   3.658   4.696  0.2544 -0.1362 -0.1158
 8551TIP3    H125617   0.928   3.674   4.615 -1.5513 -0.4043 -1.3238
 8551TIP3    H225618   0.875   3.562   4.703 -0.6522 -0.1239 -0.3973
 8552TIP3   OH225619   0.453   3.847   0.924 -0.1938 -0.3253 -0.5101
 8552TIP3    H125620   0.479   3.754   0.927  1.2177 -0.0584 -2.3496
 8552TIP3    H225621   0.533   3.894   0.947  0.1202  0.4749 -2.9913
 8553TIP3   OH225622   6.401   1.170   3.594 -0.2096  0.0291  0.2105
 8553TIP3    H125623   6.314   1.208   3.589 -0.0063  0.4469 -0.2162
 8553TIP3    H225624   6.461   1.244   3.586  0.2056 -0.0060  2.4106
 8554TIP3   OH225625   3.999   4.958   1.825 -0.1732  0.8737  0.7616
 8554TIP3    H125626   4.022   4.997   1.741 -1.0894 -1.8857 -0.9029
 8554TIP3    H225627   4.082   4.923   1.859 -0.3720 -2.2178 -1.4616
 8555TIP3   OH225628   1.262   4.352   4.381  0.0412  0.1576  0.1780
 8555TIP3    H125629   1.270   4.265   4.418 -0.4318 -0.0566 -0.2067
 8555TIP3    H225630   1.262   4.338   4.286 -1.2243  0.4470  0.1193
 8556TIP3   OH225631   4.083   2.767   1.715 -0.0571  0.2699 -0.1130
 8556TIP3    H125632   4.148   2.793   1.650  2.0524 -1.5934  1.1187
 8556TIP3    H225633   4.102   2.823   1.791 -0.0639 -0.0837  0.1522
 8557TIP3   OH225634   2.549   3.335   3.676 -0.3756 -0.7120 -0.0994
 8557TIP3    H125635   2.602   3.413   3.689  0.7219 -1.4189 -0.2536
 8557TIP3    H225636   2.548   3.292   3.762 -2.5023  0.3641  0.4882
 8558TIP3   OH225637   3.072   1.574   2.949  0.2530 -0.1702 -0.0758
 8558TIP3    H125638   3.088   1.589   2.856  2.0179 -1.9547 -0.1224
 8558TIP3    H225639   3.093   1.657   2.991 -0.4837  0.6310 -1.2406
 8559TIP3   OH225640   4.164   2.649   3.411 -0.2036  0.0681 -0.3769
 8559TIP3    H125641   4.076   2.677   3.433  0.1184  0.9372 -0.1736
 8559TIP3    H225642   4.214   2.658   3.492  0.7354  2.2743 -1.1331
 8560TIP3   OH225643   6.866   5.182   1.931 -0.5343  0.5475  0.1299
 8560TIP3    H125644   6.882   5.170   1.837  0.9256  0.0587  0.4145
 8560TIP3    H225645   6.925   5.253   1.957 -0.6659  0.4370  0.7448
 8561TIP3   OH225646   0.503   2.939   5.828  0.8185 -0.0741 -0.0484
 8561TIP3    H125647   0.495   2.881   5.904  0.1631  1.4472  1.0990
 8561TIP3    H225648   0.412   2.959   5.805  0.9570 -1.5720 -2.1324
 8562TIP3   OH225649   0.903   0.611   4.997 -0.3191  0.0072  0.2514
 8562TIP3    H125650   0.906   0.701   4.966  1.4172  0.1011  0.6107
 8562TIP3    H225651   0.994   0.583   5.000 -0.8630 -3.0860 -3.5493
 8563TIP3   OH225652   5.418   0.024   1.604  0.2321 -0.1699  0.5568
 8563TIP3    H125653   5.470   0.045   1.527 -0.2759  0.5149  0.3911
 8563TIP3    H225654   5.481  -0.012   1.666  1.0730  1.3613  0.6506
 8564TIP3   OH225655   6.085   2.523   4.494  0.2122 -0.8440 -0.2476
 8564TIP3    H125656   6.086   2.495   4.403  1.8386  1.5701 -1.0679
 8564TIP3    H225657   6.092   2.442   4.544 -0.7788 -2.2337 -2.2203
 8565TIP3   OH225658   4.605   1.543   1.487 -0.4774 -0.3078 -0.1056
 8565TIP3    H125659   4.605   1.456   1.445  0.8610 -0.0647 -0.6845
 8565TIP3    H225660   4.593   1.525   1.580 -0.1659 -1.1266 -0.2149
 8566TIP3   OH225661   1.024   1.257   1.734  0.2099 -0.2904  0.0513
 8566TIP3    H125662   1.095   1.221   1.679  0.3544 -0.1011  0.1123
 8566TIP3    H225663   0.973   1.311   1.674  0.2039 -0.3087  0.0398
 8567TIP3   OH225664   2.269   2.628   4.005 -0.2618 -0.0678 -0.1798
 8567TIP3    H125665   2.185   2.667   3.980 -2.2432 -2.2385  2.3693
 8567TIP3    H225666   2.299   2.683   4.078  0.6736  0.8128 -1.2067
 8568TIP3   OH225667   2.564   2.387   1.846  0.0263 -0.1428  0.0019
 8568TIP3    H125668   2.543   2.481   1.852 -1.5422 -0.4359 -0.2820
 8568TIP3    H225669   2.522   2.349   1.923  0.5814 -0.6331  0.0651
 8569TIP3   OH225670   1.827   6.685   2.292 -0.2880 -0.0618 -0.0510
 8569TIP3    H125671   1.781   6.744   2.233 -0.7415  0.7900  1.1342
 8569TIP3    H225672   1.843   6.737   2.371  0.3763 -1.1543  0.5572
 8570TIP3   OH225673   5.303   5.178   4.822 -0.6594  0.0723  0.8707
 8570TIP3    H125674   5.396   5.161   4.809 -1.1875 -2.9443  0.2566
 8570TIP3    H225675   5.297   5.273   4.832  2.3457  0.4471  0.0814
 8571TIP3   OH225676   2.757   0.504   5.347  0.5846 -0.4060  0.0119
 8571TIP3    H125677   2.778   0.432   5.287 -1.2256  0.5295 -1.8882
 8571TIP3    H225678   2.670   0.532   5.320  1.5684  3.0953  0.0247
 8572TIP3   OH225679   4.385   5.302   3.864 -0.1873  0.0830 -0.4781
 8572TIP3    H125680   4.439   5.250   3.923  0.3604  1.2318  0.0678
 8572TIP3    H225681   4.399   5.264   3.778  1.4093  0.2890 -0.3289
 8573TIP3   OH225682   2.043   3.602   5.515  0.0315 -0.7747  0.5081
 8573TIP3    H125683   2.093   3.680   5.491 -0.2908 -0.9257 -0.7651
 8573TIP3    H225684   2.108   3.539   5.544  0.2643  0.0731  1.9080
 8574TIP3   OH225685   1.806   6.486   2.767 -0.4424 -0.4158 -0.7526
 8574TIP3    H125686   1.815   6.392   2.780 -0.1989 -0.5218 -1.5954
 8574TIP3    H225687   1.894   6.521   2.782 -0.2035 -0.5160 -1.8278
 8575TIP3   OH225688   1.876   3.639   0.559 -0.3787 -0.3107 -0.6214
 8575TIP3    H125689   1.957   3.608   0.599 -0.1581  0.0973 -0.7557
 8575TIP3    H225690   1.807   3.591   0.605 -0.1908  0.8259  0.9026
 8576TIP3   OH225691   4.863   3.896   2.896  0.0900 -0.3544 -0.4478
 8576TIP3    H125692   4.931   3.920   2.834  0.9095  1.0680  0.9478
 8576TIP3    H225693   4.909   3.877   2.977 -1.0826 -0.4926  0.2144
 8577TIP3   OH225694   5.030   5.820   2.576  0.3198  0.4519 -0.1471
 8577TIP3    H125695   5.058   5.755   2.511  2.7847  0.1763  1.0732
 8577TIP3    H225696   4.935   5.822   2.568  0.2094 -2.5489 -0.9903
 8578TIP3   OH225697   0.569   0.353   1.121 -0.2921  0.1651 -0.3348
 8578TIP3    H125698   0.484   0.398   1.112 -0.3647 -0.0789 -0.8949
 8578TIP3    H225699   0.549   0.272   1.168  0.1481  1.6262  2.6027
 8579TIP3   OH225700   2.605   6.506   5.692  0.0688  0.2320 -0.1813
 8579TIP3    H125701   2.631   6.428   5.643 -0.8915 -0.0346 -0.3017
 8579TIP3    H225702   2.681   6.564   5.689  0.0103  0.2775 -2.0879
 8580TIP3   OH225703   6.246   5.604   2.464  0.1443 -0.1317 -0.0347
 8580TIP3    H125704   6.199   5.528   2.430 -0.0145 -0.3137  0.5862
 8580TIP3    H225705   6.251   5.590   2.558  1.7462 -0.2818 -0.1216
 8581TIP3   OH225706   3.069   4.701   4.960  0.1257 -0.5086  0.3479
 8581TIP3    H125707   3.089   4.764   5.029  2.4590  0.1971 -0.8740
 8581TIP3    H225708   3.126   4.726   4.887  0.4984 -3.4896 -0.5257
 8582TIP3   OH225709   4.857   0.446   5.823  0.3376  0.0424 -0.0427
 8582TIP3    H125710   4.928   0.449   5.888  0.7668 -0.0411 -0.5045
 8582TIP3    H225711   4.800   0.519   5.847  1.9664  1.8135 -1.2368
 8583TIP3   OH225712   3.075   1.859   1.283 -0.4001  0.4568  0.3281
 8583TIP3    H125713   3.030   1.943   1.281  1.4906  1.5224 -1.5623
 8583TIP3    H225714   3.035   1.808   1.213 -0.1595  0.5790  0.0994
 8584TIP3   OH225715   5.092   4.354   2.866 -0.1422 -0.0616  1.1273
 8584TIP3    H125716   5.047   4.334   2.783 -0.0792  0.5518  0.9416
 8584TIP3    H225717   5.184   4.337   2.847 -0.0387  0.7671  0.8456
 8585TIP3   OH225718   3.284   2.836   2.604 -0.0553 -0.0522  0.1552
 8585TIP3    H125719   3.272   2.917   2.553 -0.8254 -0.4304 -0.2875
 8585TIP3    H225720   3.222   2.774   2.565 -1.0747 -0.1899  1.8925
 8586TIP3   OH225721   3.629   4.178   5.301  0.0628  0.4679 -0.4241
 8586TIP3    H125722   3.574   4.147   5.373  0.6746 -1.3952 -0.7141
 8586TIP3    H225723   3.718   4.173   5.336  0.3358 -0.1196 -1.1842
 8587TIP3   OH225724   1.990   1.072   0.471  0.0094  0.5736  0.3680
 8587TIP3    H125725   1.983   0.977   0.477  0.3836  0.5851  1.1411
 8587TIP3    H225726   2.077   1.093   0.506  0.1484  1.1567 -0.3067
 8588TIP3   OH225727   2.059   0.513   5.816 -0.3728  0.4203 -0.4086
 8588TIP3    H125728   2.054   0.589   5.757  2.1443 -0.1814 -1.5171
 8588TIP3    H225729   2.069   0.551   5.903  1.9495  1.4468 -1.0561
 8589TIP3   OH225730   4.346   1.365   2.434 -0.5337  0.2398  0.2867
 8589TIP3    H125731   4.285   1.352   2.507  0.1323 -1.5900  0.5736
 8589TIP3    H225732   4.432   1.345   2.471 -0.0809  0.1695 -0.7629
 8590TIP3   OH225733   6.725   1.929   0.116  0.4705  0.4714  0.5522
 8590TIP3    H125734   6.683   1.985   0.182 -1.2072  0.1060 -0.1393
 8590TIP3    H225735   6.699   1.968   0.032  1.3101  0.0559  0.0873
 8591TIP3   OH225736   4.514   3.131   1.125  0.5139  0.2785  0.8424
 8591TIP3    H125737   4.566   3.057   1.156  0.4964  0.6594  1.8227
 8591TIP3    H225738   4.433   3.091   1.092  1.6163 -0.3690 -1.2421
 8592TIP3   OH225739   5.396   5.653   2.694 -1.1601  0.0891 -0.1421
 8592TIP3    H125740   5.424   5.564   2.712  0.5645  0.7182  0.4339
 8592TIP3    H225741   5.304   5.656   2.722 -1.2059 -1.4411 -0.0621
 8593TIP3   OH225742   6.424   3.225   0.306 -0.7140 -0.0284  0.6552
 8593TIP3    H125743   6.403   3.242   0.214  0.8367 -1.1873  0.0421
 8593TIP3    H225744   6.517   3.247   0.313 -0.8370  0.1050  1.9761
 8594TIP3   OH225745   4.278   5.628   5.397 -0.4803 -0.0701 -0.3449
 8594TIP3    H125746   4.245   5.570   5.465  0.2224  0.2281  0.2607
 8594TIP3    H225747   4.219   5.703   5.397 -0.8775 -0.3797 -0.5343
 8595TIP3   OH225748   4.352   1.763   2.137 -0.3162 -0.6295  0.1662
 8595TIP3    H125749   4.331   1.677   2.099  0.4023 -1.9141  2.4918
 8595TIP3    H225750   4.418   1.744   2.203 -2.0828  1.3075  2.6626
 8596TIP3   OH225751   3.603   2.933   0.766 -0.1366  0.1384  0.0475
 8596TIP3    H125752   3.559   2.850   0.787  0.3263 -0.9732 -2.8750
 8596TIP3    H225753   3.696   2.910   0.762  0.1183  1.0969  0.3688
 8597TIP3   OH225754   5.280   0.503   1.146 -0.3519  0.3717  0.1969
 8597TIP3    H125755   5.226   0.434   1.184 -1.9537  0.5485 -1.6018
 8597TIP3    H225756   5.294   0.565   1.218  1.7268 -2.0544  2.0670
 8598TIP3   OH225757   2.611   5.277   1.043 -0.5847 -0.3463  0.4820
 8598TIP3    H125758   2.523   5.311   1.026 -0.2551  0.4291  0.2494
 8598TIP3    H225759   2.668   5.355   1.038 -0.1884 -0.3634  3.1570
 8599TIP3   OH225760   0.991   5.150   0.397 -0.0872 -0.4459  0.4330
 8599TIP3    H125761   0.975   5.154   0.491  1.6415  0.1445  0.7482
 8599TIP3    H225762   0.977   5.058   0.374 -1.3568 -0.4300  1.0838
 8600TIP3   OH225763   3.207   2.046   2.204 -0.4979 -0.2620  0.1207
 8600TIP3    H125764   3.165   1.984   2.145 -1.9031  2.4773 -1.9745
 8600TIP3    H225765   3.153   2.046   2.283 -0.8654 -1.1894 -0.1304
 8601TIP3   OH225766   4.685   5.984   1.060 -0.0678 -0.3230  1.0428
 8601TIP3    H125767   4.747   6.056   1.068  1.0406 -0.9855 -1.0169
 8601TIP3    H225768   4.619   6.002   1.127  1.0457  1.6928  1.6807
 8602TIP3   OH225769   2.749   3.080   5.817 -0.0983  0.0760  0.2776
 8602TIP3    H125770   2.742   3.013   5.885  1.4606 -0.3077  0.0842
 8602TIP3    H225771   2.836   3.117   5.828 -0.5063  1.2833 -0.3602
 8603TIP3   OH225772   5.548   0.656   3.717  0.5054  0.4393 -0.2668
 8603TIP3    H125773   5.554   0.739   3.764 -0.4870  0.1953  0.3215
 8603TIP3    H225774   5.634   0.616   3.728  0.0567 -0.0156  2.1246
 8604TIP3   OH225775   6.018   2.322   1.933 -0.6521  0.3215  0.0090
 8604TIP3    H125776   5.991   2.270   2.008 -1.2888  1.1275  0.3620
 8604TIP3    H225777   6.050   2.259   1.869  0.2848 -0.3542  1.1061
 8605TIP3   OH225778   5.547   1.729   4.399 -0.1251 -0.0262 -0.4068
 8605TIP3    H125779   5.530   1.780   4.320  0.6005  0.6422 -0.1378
 8605TIP3    H225780   5.545   1.792   4.470 -2.4684 -0.8569  0.3725
 8606TIP3   OH225781   6.291   6.759   4.155  0.0785  0.4360  0.4685
 8606TIP3    H125782   6.242   6.681   4.130  2.3488 -0.8400 -0.2207
 8606TIP3    H225783   6.357   6.728   4.217  0.8567  1.8574  0.4057
 8607TIP3   OH225784   2.867   5.755   2.544 -0.2636  0.6613 -0.2535
 8607TIP3    H125785   2.877   5.781   2.635  0.8893  3.2276 -1.0183
 8607TIP3    H225786   2.821   5.828   2.502  0.8081  0.3826 -2.0487
 8608TIP3   OH225787   3.057   0.464   2.384  0.6383 -0.4139  0.1415
 8608TIP3    H125788   2.986   0.517   2.420  0.9641  0.6704 -0.7670
 8608TIP3    H225789   3.031   0.447   2.294  0.4014 -2.0902  0.4893
 8609TIP3   OH225790   3.269   1.132   5.522  0.2569 -0.0335 -0.2745
 8609TIP3    H125791   3.209   1.066   5.487 -3.0246  3.1586 -1.3711
 8609TIP3    H225792   3.325   1.155   5.448 -1.8282  1.5948 -1.4810
 8610TIP3   OH225793   4.997   1.217   5.806 -0.0967 -0.1625 -0.0263
 8610TIP3    H125794   5.056   1.278   5.848 -2.4317  1.9240  0.4767
 8610TIP3    H225795   5.051   1.141   5.786  2.6006  1.4322  0.7091
 8611TIP3   OH225796   3.943   6.455   2.158  0.6610  0.4317  0.1417
 8611TIP3    H125797   3.878   6.386   2.171  0.5161  0.6444  0.5535
 8611TIP3    H225798   3.901   6.516   2.097 -0.0343  1.2173  1.3735
 8612TIP3   OH225799   5.177   0.761   3.375 -0.0607 -0.3440  0.4392
 8612TIP3    H125800   5.214   0.674   3.360  0.2178 -0.2752  0.7310
 8612TIP3    H225801   5.200   0.781   3.466  2.9335  1.5181 -0.6075
 8613TIP3   OH225802   2.625   0.625   2.272  0.3706  0.4134 -0.0991
 8613TIP3    H125803   2.544   0.666   2.240 -0.8851 -0.6371  1.5832
 8613TIP3    H225804   2.596   0.544   2.312  2.2854  0.0419  0.6159
 8614TIP3   OH225805   4.555   4.125   3.060  0.2167 -0.1002 -0.1998
 8614TIP3    H125806   4.645   4.140   3.090 -0.0169  0.9529  0.0098
 8614TIP3    H225807   4.524   4.211   3.034 -0.2273 -0.6942 -1.7248
 8615TIP3   OH225808   1.732   3.023   0.100  0.7112 -0.2713  0.2599
 8615TIP3    H125809   1.814   3.062   0.131 -0.5063  1.9296  0.9656
 8615TIP3    H225810   1.679   3.098   0.074 -0.2512 -1.7447 -2.4587
 8616TIP3   OH225811   1.597   0.164   3.994  0.2530  0.4506  0.1653
 8616TIP3    H125812   1.551   0.096   4.045  0.9889 -0.6899 -0.6409
 8616TIP3    H225813   1.545   0.243   4.008  0.0921  0.0386  2.1793
 8617TIP3   OH225814   7.045   6.323   3.882  0.3160 -0.0084  0.5484
 8617TIP3    H125815   7.096   6.267   3.824 -1.0681 -0.4340 -0.3320
 8617TIP3    H225816   6.997   6.381   3.823  0.3849  0.9062  1.3699
 8618TIP3   OH225817   3.452   5.133   5.591 -0.1658  0.2690 -0.1587
 8618TIP3    H125818   3.508   5.204   5.622 -0.2399  0.1980  0.1452
 8618TIP3    H225819   3.363   5.161   5.610 -0.1724 -0.0940  0.3755
 8619TIP3   OH225820   5.743   3.739   1.333 -0.3461  0.5216 -0.1129
 8619TIP3    H125821   5.648   3.725   1.329 -0.5011  1.4213  0.3000
 8619TIP3    H225822   5.778   3.653   1.358 -1.0432  0.1739 -0.2733
 8620TIP3   OH225823   2.352   1.832   1.200  0.4620  0.4854 -0.1896
 8620TIP3    H125824   2.423   1.849   1.263 -1.4630  1.2193  1.9021
 8620TIP3    H225825   2.344   1.914   1.151  2.9660 -0.5567 -2.6275
 8621TIP3   OH225826   6.621   6.279   5.717 -0.5868 -0.4599  0.1144
 8621TIP3    H125827   6.591   6.369   5.731 -0.2201 -0.3119 -0.0453
 8621TIP3    H225828   6.601   6.261   5.625 -0.2218 -0.3747  0.0181
 8622TIP3   OH225829   5.196   4.008   3.738  0.2283 -0.3802  0.2349
 8622TIP3    H125830   5.244   3.927   3.720  0.5343 -0.4300  1.2126
 8622TIP3    H225831   5.105   3.988   3.715  0.5756 -0.4364 -1.1777
 8623TIP3   OH225832   3.829   1.171   5.483 -0.7517 -0.1140  0.3737
 8623TIP3    H125833   3.867   1.160   5.570  0.3783  1.3676  0.1012
 8623TIP3    H225834   3.760   1.104   5.478  0.3351 -1.3911  1.7274
 8624TIP3   OH225835   1.589   0.878   2.388 -0.0175  0.1599  0.1045
 8624TIP3    H125836   1.593   0.834   2.473  0.0493 -0.0769 -0.0183
 8624TIP3    H225837   1.625   0.965   2.403  2.2738 -0.6529 -0.1756
 8625TIP3   OH225838   5.942   3.066   3.098 -0.1590 -0.3348  0.0039
 8625TIP3    H125839   5.911   3.154   3.115  0.2671  0.3582 -2.3971
 8625TIP3    H225840   5.863   3.013   3.090 -0.4250 -0.1285  1.1521
 8626TIP3   OH225841   5.936   6.755   1.853  0.1290  0.1313 -0.2852
 8626TIP3    H125842   5.918   6.667   1.818  0.6724  0.1978 -0.7472
 8626TIP3    H225843   5.853   6.801   1.847  0.6603  0.9686 -3.9192
 8627TIP3   OH225844   4.006   5.146   0.698 -0.0316 -0.5284 -0.0693
 8627TIP3    H125845   4.068   5.146   0.772 -0.4571  1.2194  0.3198
 8627TIP3    H225846   3.966   5.233   0.700 -0.2956 -0.5608 -2.1846
 8628TIP3   OH225847   6.227   3.209   4.287 -0.0469 -0.0262  0.0919
 8628TIP3    H125848   6.189   3.184   4.203  2.3351 -0.4501 -0.9586
 8628TIP3    H225849   6.306   3.156   4.294  0.9350  1.5210  1.6056
 8629TIP3   OH225850   0.428   1.699   3.545 -0.1280 -0.0205  0.3260
 8629TIP3    H125851   0.464   1.611   3.543 -0.0136  0.0226  0.4601
 8629TIP3    H225852   0.364   1.698   3.616  0.6918  0.3130  1.0999
 8630TIP3   OH225853   0.562   2.780   3.211  0.6620  0.0818  0.1211
 8630TIP3    H125854   0.475   2.809   3.238  0.6574  0.5981 -0.4168
 8630TIP3    H225855   0.551   2.757   3.118  0.9991 -0.2665  0.1645
 8631TIP3   OH225856   0.468   5.821   5.427  0.4938  0.3249 -0.1711
 8631TIP3    H125857   0.417   5.740   5.428 -0.5344  0.9245  1.4498
 8631TIP3    H225858   0.496   5.832   5.336  1.6217 -2.3993 -0.2435
 8632TIP3   OH225859   1.055   0.793   4.316  0.5289  0.2984  0.3456
 8632TIP3    H125860   1.144   0.819   4.294  1.0688 -1.0795  0.7994
 8632TIP3    H225861   1.008   0.796   4.233  0.5779  2.4896  0.3426
 8633TIP3   OH225862   4.615   4.607   5.255 -0.2083 -0.0115 -0.5188
 8633TIP3    H125863   4.600   4.521   5.215 -1.0598 -0.1959  0.1780
 8633TIP3    H225864   4.698   4.598   5.301 -0.9447 -0.8999  0.6805
 8634TIP3   OH225865   0.686   0.823   2.056 -0.9332 -0.0139  0.5135
 8634TIP3    H125866   0.602   0.853   2.022 -0.0730  1.0665 -0.8031
 8634TIP3    H225867   0.730   0.785   1.980 -0.2237 -0.5582  1.1808
 8635TIP3   OH225868   1.623   2.239   3.968  0.1816 -0.2547 -0.0341
 8635TIP3    H125869   1.671   2.159   3.986  0.4968 -0.1756 -0.5184
 8635TIP3    H225870   1.659   2.303   4.029  0.5714 -0.2411 -0.2779
 8636TIP3   OH225871   3.059   3.413   1.765 -0.1667  0.0264 -0.0166
 8636TIP3    H125872   3.065   3.325   1.801  0.2759 -0.0181 -0.1924
 8636TIP3    H225873   3.142   3.425   1.718 -0.2735  0.4915 -0.0873
 8637TIP3   OH225874   2.711   1.853   2.706 -0.1415 -0.1487 -0.2745
 8637TIP3    H125875   2.718   1.789   2.777 -0.4435  0.8085  0.6497
 8637TIP3    H225876   2.625   1.835   2.667 -0.3116 -0.1929  0.1085
 8638TIP3   OH225877   3.371   3.832   4.344 -0.4831  1.2823  0.4932
 8638TIP3    H125878   3.463   3.833   4.319 -0.7218  1.1341 -0.4494
 8638TIP3    H225879   3.337   3.750   4.309 -0.7764  0.9061  1.6269
 8639TIP3   OH225880   0.238   6.544   5.550  0.1297 -0.2321 -0.1189
 8639TIP3    H125881   0.296   6.502   5.486  1.1545  0.3327  0.4106
 8639TIP3    H225882   0.201   6.472   5.601  1.3993 -0.5386  0.3974
 8640TIP3   OH225883   3.670   1.868   3.352 -0.6963 -0.0944 -0.3542
 8640TIP3    H125884   3.703   1.808   3.419 -1.4654 -0.8547 -0.6242
 8640TIP3    H225885   3.722   1.848   3.275 -0.0668  0.5131 -0.0901
 8641TIP3   OH225886   3.232   3.565   3.735  0.0842 -0.2517 -0.0829
 8641TIP3    H125887   3.313   3.614   3.745 -0.0559 -0.1424  0.5356
 8641TIP3    H225888   3.259   3.482   3.696  0.9190 -1.4240  2.7193
 8642TIP3   OH225889   5.525   4.723   3.642  0.2171  0.0864  0.3923
 8642TIP3    H125890   5.463   4.714   3.715  1.1317 -0.0540  1.1709
 8642TIP3    H225891   5.600   4.670   3.668 -0.3662 -1.9586 -1.7467
 8643TIP3   OH225892   6.008   5.062   3.103  0.7556  0.0940 -0.1503
 8643TIP3    H125893   6.045   4.976   3.125  1.7517  0.4596 -0.3488
 8643TIP3    H225894   6.083   5.114   3.074  0.5102  1.6048  1.6929
 8644TIP3   OH225895   6.150   0.110   1.501 -1.0770  0.4742  0.1339
 8644TIP3    H125896   6.167   0.016   1.506  0.8367  0.8258  1.3009
 8644TIP3    H225897   6.134   0.127   1.408 -0.8601 -0.9098 -0.1766
 8645TIP3   OH225898   7.132   5.990   3.311 -0.3077  0.1509  0.5923
 8645TIP3    H125899   7.093   6.043   3.381  1.5019  0.1647  1.6344
 8645TIP3    H225900   7.156   5.908   3.353 -1.3305 -0.7830 -0.5812
 8646TIP3   OH225901   0.494   3.766   0.140  0.2841  0.3847 -0.4048
 8646TIP3    H125902   0.529   3.772   0.051 -0.8921  0.4107 -0.8714
 8646TIP3    H225903   0.567   3.795   0.195  0.9779  0.5250 -1.3599
 8647TIP3   OH225904   1.804   6.761   1.211 -0.0435 -0.5529  0.0134
 8647TIP3    H125905   1.806   6.833   1.148 -0.9778 -1.4559 -1.1046
 8647TIP3    H225906   1.885   6.770   1.261 -0.4196  1.6104  0.3246
 8648TIP3   OH225907   4.593   2.680   5.098 -0.3259 -0.0576 -0.0279
 8648TIP3    H125908   4.611   2.764   5.139  1.0400 -0.8374  1.0584
 8648TIP3    H225909   4.522   2.642   5.150 -0.4577  0.1156 -0.0807
 8649TIP3   OH225910   2.718   3.726   0.682  0.1103 -0.1380 -0.1298
 8649TIP3    H125911   2.647   3.674   0.720 -0.0606 -0.8165 -1.3042
 8649TIP3    H225912   2.763   3.764   0.757 -1.2073 -0.0744  0.6623
 8650TIP3   OH225913   3.915   6.774   1.126 -0.0033  0.7977 -0.1297
 8650TIP3    H125914   3.827   6.755   1.158  0.5492  0.6197  1.3715
 8650TIP3    H225915   3.933   6.703   1.064 -0.8534  0.7338 -0.3127
 8651TIP3   OH225916   5.668   5.546   4.898 -0.2402  0.0257  0.5481
 8651TIP3    H125917   5.596   5.484   4.897 -1.3518  1.2690  0.8229
 8651TIP3    H225918   5.746   5.493   4.883 -1.3559 -1.1386 -1.4931
 8652TIP3   OH225919   2.515   4.107   4.795 -0.1381 -0.1825 -0.2113
 8652TIP3    H125920   2.474   4.062   4.868  2.2212 -0.8874  0.7773
 8652TIP3    H225921   2.595   4.145   4.831  0.3142  0.7912 -2.0810
 8653TIP3   OH225922   1.744   4.884   2.053  0.5669 -0.1190 -0.0084
 8653TIP3    H125923   1.693   4.843   1.983 -1.3765  0.4694  0.9705
 8653TIP3    H225924   1.771   4.812   2.109 -0.2905 -0.3640  0.1131
 8654TIP3   OH225925   5.342   2.597   1.430  0.6601 -0.0605  0.3597
 8654TIP3    H125926   5.249   2.575   1.443  0.2170  1.8822  0.7832
 8654TIP3    H225927   5.381   2.587   1.517  0.8324 -0.7659  0.2052
 8655TIP3   OH225928   7.185   5.822   3.089 -0.0399  0.6329  0.2065
 8655TIP3    H125929   7.116   5.823   3.022 -0.3463 -0.2834  0.4874
 8655TIP3    H225930   7.156   5.886   3.154  1.0060  2.6787 -1.2132
 8656TIP3   OH225931   0.835   1.264   2.318  0.4739  0.5313 -0.5855
 8656TIP3    H125932   0.850   1.187   2.264  1.7252 -0.3419  0.9221
 8656TIP3    H225933   0.753   1.246   2.363  2.0575 -1.3294  1.8630
 8657TIP3   OH225934   3.404   4.407   5.613 -0.3940 -0.0255  1.0990
 8657TIP3    H125935   3.402   4.436   5.522 -2.4939 -2.2726  0.3267
 8657TIP3    H225936   3.405   4.489   5.664 -3.0441  1.4306 -0.9440
 8658TIP3   OH225937   6.271   2.223   3.443 -0.6778  0.3731 -0.3238
 8658TIP3    H125938   6.241   2.136   3.471  1.7402 -0.8515 -1.2674
 8658TIP3    H225939   6.288   2.270   3.524 -2.0280  0.0046  0.2065
 8659TIP3   OH225940   0.094   5.611   0.634  0.6695 -0.4147 -0.6389
 8659TIP3    H125941   0.165   5.558   0.598 -1.1154 -1.8308 -2.3144
 8659TIP3    H225942   0.043   5.549   0.687  0.6407  0.5672  0.5121
 8660TIP3   OH225943   7.100   0.951   3.951  0.0411  0.2602  0.1013
 8660TIP3    H125944   7.185   0.928   3.913 -0.0742  0.5333 -0.3322
 8660TIP3    H225945   7.102   1.046   3.957 -1.2156  0.5024 -2.3275
 8661TIP3   OH225946   6.600   5.251   4.255  0.0537  0.0456  0.3813
 8661TIP3    H125947   6.665   5.219   4.317  0.3366  2.3341  1.3942
 8661TIP3    H225948   6.651   5.301   4.191 -0.4392 -0.5964 -0.5306
 8662TIP3   OH225949   4.275   4.692   0.850  0.1008 -0.2213  0.4577
 8662TIP3    H125950   4.324   4.618   0.815 -0.7455 -0.2530 -0.7233
 8662TIP3    H225951   4.212   4.713   0.782  0.7191  1.9948  0.4915
 8663TIP3   OH225952   3.866   2.107   0.392  0.1072  0.2793 -0.4696
 8663TIP3    H125953   3.893   2.182   0.339 -1.3001  1.1085 -0.0802
 8663TIP3    H225954   3.898   2.031   0.344  0.2283  1.0700 -1.7002
 8664TIP3   OH225955   5.807   1.299   4.473  0.3354 -0.2320  0.2276
 8664TIP3    H125956   5.811   1.387   4.511 -1.9728 -0.9139  2.2555
 8664TIP3    H225957   5.739   1.306   4.406  0.7110 -0.3125 -0.1680
 8665TIP3   OH225958   7.062   6.123   4.699  0.4093  0.0543  0.4373
 8665TIP3    H125959   7.030   6.213   4.687  2.0633  0.5411 -0.8303
 8665TIP3    H225960   7.088   6.096   4.611  1.0834 -1.2138  1.0085
 8666TIP3   OH225961   6.713   5.916   5.233  0.0167 -0.5733 -0.6127
 8666TIP3    H125962   6.711   6.009   5.211 -0.9479 -0.2858  0.5684
 8666TIP3    H225963   6.793   5.904   5.283 -2.2514  0.8729  3.9550
 8667TIP3   OH225964   1.292   0.785   4.937 -0.0762 -0.4334 -0.2008
 8667TIP3    H125965   1.243   0.702   4.932 -0.4404 -0.1817 -0.9902
 8667TIP3    H225966   1.382   0.760   4.917 -0.1467 -0.6774 -0.2225
 8668TIP3   OH225967   7.094   5.610   2.946 -0.3212 -0.5012  0.1074
 8668TIP3    H125968   7.122   5.547   2.879 -1.1152 -0.3044 -0.4285
 8668TIP3    H225969   7.006   5.635   2.919 -0.5457 -0.2023  1.0850
 8669TIP3   OH225970   1.515   3.887   4.611  0.1642 -0.7108 -0.2953
 8669TIP3    H125971   1.543   3.978   4.626  3.3049 -1.2927 -1.8728
 8669TIP3    H225972   1.500   3.882   4.516 -2.7429 -1.2437  0.0917
 8670TIP3   OH225973   3.764   5.344   1.549  0.3562  0.0929  0.0480
 8670TIP3    H125974   3.832   5.277   1.550 -0.5808 -0.8957  1.8646
 8670TIP3    H225975   3.686   5.299   1.580 -1.0021  1.3612 -1.3566
 8671TIP3   OH225976   5.916   5.236   5.272  0.6503  0.6837  0.2405
 8671TIP3    H125977   5.875   5.291   5.205 -1.4635 -0.6717  0.3066
 8671TIP3    H225978   5.941   5.156   5.225 -0.0857  0.0673  0.8546
 8672TIP3   OH225979   1.641   2.261   1.563  0.2838  0.2480  0.3522
 8672TIP3    H125980   1.666   2.350   1.537  1.1831  0.8382  2.8856
 8672TIP3    H225981   1.595   2.274   1.646  1.5835 -1.7091  1.4459
 8673TIP3   OH225982   3.343   2.081   2.840  0.3671 -0.4513  0.6275
 8673TIP3    H125983   3.427   2.117   2.811  0.3653 -1.0644 -0.1899
 8673TIP3    H225984   3.365   1.994   2.874  0.2119 -0.1661  1.4837
 8674TIP3   OH225985   2.125   1.677   5.144  0.2376 -0.6995 -0.7078
 8674TIP3    H125986   2.204   1.703   5.097 -0.3988  1.3790 -0.7485
 8674TIP3    H225987   2.142   1.701   5.235 -0.9877  1.6608 -1.0056
 8675TIP3   OH225988   0.319   5.069   3.467  0.6261  0.0552 -0.2034
 8675TIP3    H125989   0.277   4.985   3.484 -0.6060  0.7371  0.2802
 8675TIP3    H225990   0.265   5.110   3.400  1.8883 -0.0060 -1.2918
 8676TIP3   OH225991   6.977   0.634   2.798 -0.4320  0.0285  0.2365
 8676TIP3    H125992   7.015   0.632   2.710 -2.0874  0.2754 -0.5192
 8676TIP3    H225993   6.991   0.724   2.828  0.6066 -0.1998  0.4533
 8677TIP3   OH225994   5.322   2.510   4.178  0.0733 -0.6095  0.8624
 8677TIP3    H125995   5.405   2.534   4.136 -0.5774 -1.7911 -1.2091
 8677TIP3    H225996   5.349   2.463   4.257  1.3786 -0.4310  0.5479
 8678TIP3   OH225997   0.716   5.628   2.597  0.2521 -0.3770  0.1013
 8678TIP3    H125998   0.689   5.554   2.543 -0.5788 -0.1271  0.1574
 8678TIP3    H225999   0.790   5.666   2.550  1.4385 -1.9164  0.6612
 8679TIP3   OH226000   6.828   0.628   0.246  0.1079 -0.3097 -0.1229
 8679TIP3    H126001   6.886   0.577   0.189  0.2622 -0.8887  0.5421
 8679TIP3    H226002   6.758   0.567   0.269  0.2707 -0.2125  0.6454
 8680TIP3   OH226003   5.538   3.370   2.102 -0.2107  0.5323 -0.6827
 8680TIP3    H126004   5.593   3.425   2.047 -0.1128  1.0988 -0.0286
 8680TIP3    H226005   5.571   3.281   2.088  2.1316  1.0252  1.0979
 8681TIP3   OH226006   6.454   0.359   4.725 -0.2425 -0.2966 -0.2350
 8681TIP3    H126007   6.465   0.424   4.794 -1.3448  0.8072 -1.0587
 8681TIP3    H226008   6.527   0.299   4.737  1.1114  1.3722  0.2457
 8682TIP3   OH226009   3.012   3.145   3.446  0.4398  0.1646  0.4024
 8682TIP3    H126010   3.041   3.236   3.432 -0.9814  0.6747  0.5951
 8682TIP3    H226011   2.920   3.153   3.471  0.1002 -1.3851 -0.2617
 8683TIP3   OH226012   1.587   2.986   4.366  0.2450  0.4962 -0.0640
 8683TIP3    H126013   1.492   2.992   4.374  0.1322 -1.3871  0.4738
 8683TIP3    H226014   1.604   2.893   4.349  2.1407  0.1460  2.9414
 8684TIP3   OH226015   1.932   6.218   2.714 -0.0030  0.4941  0.1392
 8684TIP3    H126016   1.994   6.167   2.662 -0.7036  0.3411 -0.5660
 8684TIP3    H226017   1.846   6.188   2.684 -0.4284  0.3943  1.3887
 8685TIP3   OH226018   5.930   4.142   3.569  0.5420  0.3239 -0.3926
 8685TIP3    H126019   5.979   4.062   3.547  0.2125  0.1400 -0.4565
 8685TIP3    H226020   5.848   4.110   3.607  0.6801  0.6388  0.1707
 8686TIP3   OH226021   1.405   6.065   1.664  0.2601  0.3391 -0.7980
 8686TIP3    H126022   1.341   5.999   1.637 -0.2286 -0.4469  1.9120
 8686TIP3    H226023   1.453   6.086   1.584 -1.4755 -1.1569 -2.3477
 8687TIP3   OH226024   6.944   2.585   4.027 -0.2702  0.0928 -0.0229
 8687TIP3    H126025   6.849   2.589   4.032 -0.2964 -1.4975  1.3088
 8687TIP3    H226026   6.962   2.565   3.935 -1.1598  1.1865 -0.4548
 8688TIP3   OH226027   1.079   3.451   1.603 -0.1175  0.3148 -0.5712
 8688TIP3    H126028   1.080   3.376   1.544 -0.0417  0.4510 -0.7424
 8688TIP3    H226029   1.163   3.448   1.648 -0.0144  0.4366 -0.7543
 8689TIP3   OH226030   6.165   5.219   0.866 -0.3285 -0.4920  0.0757
 8689TIP3    H126031   6.135   5.309   0.881 -1.2593 -0.8312  0.3713
 8689TIP3    H226032   6.225   5.202   0.938 -0.6114 -0.2964  0.3642
 8690TIP3   OH226033   2.664   5.691   1.516 -0.5497  0.5379 -0.0335
 8690TIP3    H126034   2.737   5.647   1.473 -1.1020 -0.8211  0.3490
 8690TIP3    H226035   2.673   5.667   1.609 -1.1944  0.7505  0.0905
 8691TIP3   OH226036   2.003   5.490   5.378 -0.3992  0.0201 -0.0789
 8691TIP3    H126037   1.908   5.488   5.365 -0.2671 -1.6822 -0.9443
 8691TIP3    H226038   2.037   5.527   5.297 -0.3314  1.2781  0.4960
 8692TIP3   OH226039   3.790   2.926   5.153  0.2782  0.1040  0.0799
 8692TIP3    H126040   3.737   2.988   5.104  2.0830  0.9540 -0.9108
 8692TIP3    H226041   3.847   2.981   5.207  0.7095 -0.7316  0.4873
 8693TIP3   OH226042   6.450   4.649   1.603  0.4483 -0.1843  0.6736
 8693TIP3    H126043   6.523   4.588   1.609  0.4006 -0.3022  0.0742
 8693TIP3    H226044   6.378   4.606   1.650  1.0182  0.3473  2.1194
 8694TIP3   OH226045   4.837   4.508   0.035  0.0667  0.1153  0.3249
 8694TIP3    H126046   4.890   4.494  -0.043 -1.1665  1.6386 -0.8546
 8694TIP3    H226047   4.867   4.441   0.096  3.5107  1.0443 -0.1277
 8695TIP3   OH226048   2.562   5.691   3.979 -0.6364 -0.4558  0.1026
 8695TIP3    H126049   2.569   5.787   3.980 -0.1434 -0.4646 -0.9899
 8695TIP3    H226050   2.556   5.667   4.071 -0.6326  0.6150  0.4032
 8696TIP3   OH226051   0.684   3.408   3.041 -0.2355  0.1230  0.0134
 8696TIP3    H126052   0.624   3.344   3.081 -1.0285 -2.0093 -4.0354
 8696TIP3    H226053   0.627   3.465   2.991  0.8889 -0.1991 -1.6932
 8697TIP3   OH226054   4.067   4.475   2.965  0.3230  0.0762  0.0007
 8697TIP3    H126055   4.131   4.484   2.895  0.3735  0.1930  0.0620
 8697TIP3    H226056   4.081   4.552   3.021  0.5219 -0.2026  0.3368
 8698TIP3   OH226057   4.892   3.584   1.822 -0.1646  0.3497 -0.0713
 8698TIP3    H126058   4.906   3.628   1.905  1.0416  0.3144 -0.2258
 8698TIP3    H226059   4.947   3.633   1.760  0.3128 -0.6578 -0.4697
 8699TIP3   OH226060   5.834   0.260   4.960  0.0374  0.1357  1.1194
 8699TIP3    H126061   5.787   0.185   4.924 -0.0693  0.2638  0.9888
 8699TIP3    H226062   5.766   0.325   4.976  0.4814  1.8632 -2.7490
 8700TIP3   OH226063   3.385   6.076   4.006 -0.1309  0.3467  0.0852
 8700TIP3    H126064   3.415   6.164   3.983 -1.0615  0.6024 -0.1990
 8700TIP3    H226065   3.461   6.035   4.047  0.7654  0.7864 -1.0771
 8701TIP3   OH226066   4.964   4.222   0.932 -0.5359 -0.3611  0.4158
 8701TIP3    H126067   5.025   4.291   0.903 -1.9474  0.6577 -0.2415
 8701TIP3    H226068   4.976   4.218   1.026 -1.1947  1.6068  0.6224
 8702TIP3   OH226069   5.069   4.484   2.022 -0.6380  0.8865  0.3531
 8702TIP3    H126070   5.086   4.433   1.942 -1.3324 -1.0023  1.3405
 8702TIP3    H226071   5.020   4.560   1.991 -1.8737 -0.3601 -0.9569
 8703TIP3   OH226072   0.148   2.455   1.939 -0.0572 -0.3274 -0.0210
 8703TIP3    H126073   0.108   2.436   2.024 -0.8590 -1.2988 -0.5969
 8703TIP3    H226074   0.170   2.369   1.903 -1.0999 -0.0269 -1.4414
 8704TIP3   OH226075   6.149   4.688   5.031  0.4118  0.5705  0.1210
 8704TIP3    H126076   6.068   4.739   5.021  0.2751  0.1303 -1.1311
 8704TIP3    H226077   6.216   4.739   4.986  0.1014 -0.6991 -1.9260
 8705TIP3   OH226078   0.561   5.819  -0.009  0.5538 -0.3550 -0.2511
 8705TIP3    H126079   0.520   5.872   0.059  0.8504 -0.5460  0.0843
 8705TIP3    H226080   0.655   5.835   0.002  0.6499 -0.9349 -0.1434
 8706TIP3   OH226081   2.628   4.496   3.082  0.2456  0.1743  0.3852
 8706TIP3    H126082   2.700   4.461   3.134 -2.2372 -1.9633  2.7186
 8706TIP3    H226083   2.594   4.569   3.133 -1.0412 -0.7520  0.9226
 8707TIP3   OH226084   6.974   1.718   4.773  0.3521 -0.1523  0.0557
 8707TIP3    H126085   6.957   1.812   4.773 -1.1757 -0.4084 -0.2972
 8707TIP3    H226086   7.070   1.711   4.778  0.5067  1.4153 -0.2321
 8708TIP3   OH226087   1.152   4.293   0.347 -0.4087 -0.2590 -0.1088
 8708TIP3    H126088   1.238   4.253   0.347 -0.9381 -1.4490  0.2272
 8708TIP3    H226089   1.113   4.267   0.430 -1.0651  0.3159 -0.2251
 8709TIP3   OH226090   2.576   3.201   3.926  0.5753  0.2342 -0.5736
 8709TIP3    H126091   2.662   3.183   3.886  0.4408  1.8514 -1.6958
 8709TIP3    H226092   2.552   3.118   3.967  2.3876 -0.4585 -0.7659
 8710TIP3   OH226093   6.056   1.182   5.502 -0.0368 -0.1509 -0.4357
 8710TIP3    H126094   6.052   1.170   5.407  0.0957 -0.0243 -0.4576
 8710TIP3    H226095   6.040   1.095   5.538  2.2011 -0.6930 -0.6151
 8711TIP3   OH226096   4.251   3.194   0.763  1.0793 -0.5883 -0.3474
 8711TIP3    H126097   4.327   3.249   0.779  0.1264  0.5703  0.3619
 8711TIP3    H226098   4.216   3.176   0.850  0.2723 -0.7114 -0.6900
 8712TIP3   OH226099   2.298   4.032   1.544  0.0305  0.3977  0.0589
 8712TIP3    H126100   2.219   4.004   1.497  0.2430 -0.7695  0.3724
 8712TIP3    H226101   2.275   4.021   1.637  0.5081  0.2041  0.1527
 8713TIP3   OH226102   2.935   4.075   5.389  0.1257  0.1827  0.1158
 8713TIP3    H126103   3.001   4.144   5.385 -0.1535  0.8379  3.7289
 8713TIP3    H226104   2.978   3.999   5.348  1.9467  1.3855 -0.3466
 8714TIP3   OH226105   3.147   2.603   4.725 -0.3594  0.1935 -0.8527
 8714TIP3    H126106   3.086   2.530   4.725  0.9091 -0.9126 -1.2284
 8714TIP3    H226107   3.179   2.608   4.815  1.9189 -1.8549 -1.4340
 8715TIP3   OH226108   0.074   2.641   4.634  0.5723  0.3636 -0.5432
 8715TIP3    H126109   0.055   2.641   4.728 -1.4334 -0.4992 -0.8996
 8715TIP3    H226110   0.031   2.720   4.601  0.2238  0.0152 -0.9240
 8716TIP3   OH226111   3.990   1.813   4.473  0.4127  0.1335 -0.4975
 8716TIP3    H126112   3.963   1.822   4.381  0.7689 -0.1540 -0.6308
 8716TIP3    H226113   4.027   1.725   4.479  0.4268  0.1643 -0.0842
 8717TIP3   OH226114   5.121   5.474   3.557 -0.0824  0.6565 -0.4823
 8717TIP3    H126115   5.098   5.385   3.531 -0.0708  1.0597 -1.9574
 8717TIP3    H226116   5.077   5.486   3.641  1.6244 -1.4412  0.8349
 8718TIP3   OH226117   2.655   6.424   0.001 -0.3935  0.3657  0.1081
 8718TIP3    H126118   2.638   6.517   0.018  1.7218  1.1324 -1.4864
 8718TIP3    H226119   2.660   6.384   0.087 -2.6302  1.4326  0.8102
 8719TIP3   OH226120   6.720   6.450   4.523  0.2978 -0.4417  0.0341
 8719TIP3    H126121   6.754   6.463   4.434 -0.6506  0.5098 -0.2107
 8719TIP3    H226122   6.680   6.534   4.546  1.1459 -0.4504  1.6546
 8720TIP3   OH226123   0.322   3.316   1.969 -0.1835  0.1710 -0.5509
 8720TIP3    H126124   0.228   3.317   1.952 -0.0216 -0.2825 -1.5368
 8720TIP3    H226125   0.334   3.381   2.038 -1.0066  1.4808 -1.5818
 8721TIP3   OH226126   2.525   0.499   0.331  0.7417 -0.3958 -0.3694
 8721TIP3    H126127   2.447   0.484   0.279  0.2612  1.6675 -0.3034
 8721TIP3    H226128   2.493   0.506   0.421  0.2118  4.5320 -0.6552
 8722TIP3   OH226129   1.669   1.980   0.945  0.6452 -0.5265 -0.3450
 8722TIP3    H126130   1.580   1.998   0.915  0.7814 -0.0911 -0.4893
 8722TIP3    H226131   1.718   2.060   0.926  0.6984 -0.1623  1.2327
 8723TIP3   OH226132   4.961   5.263   1.855 -0.1429  0.5259  0.4212
 8723TIP3    H126133   5.037   5.212   1.880  1.1409  1.1965 -1.7956
 8723TIP3    H226134   4.985   5.353   1.877  0.5549  0.9807 -1.8551
 8724TIP3   OH226135   0.538   2.928   0.643 -0.2455 -0.6273  0.0017
 8724TIP3    H126136   0.584   2.863   0.696 -0.4759 -0.1311  0.8398
 8724TIP3    H226137   0.520   2.884   0.560  3.1038 -0.3641 -1.0091
 8725TIP3   OH226138   5.505   4.253   3.265 -0.1680 -0.2804 -0.1824
 8725TIP3    H126139   5.439   4.277   3.331 -1.2608 -1.0308 -0.9777
 8725TIP3    H226140   5.533   4.166   3.291  0.8499  0.2063  0.3974
 8726TIP3   OH226141   5.221   1.755   1.677 -0.4253  0.1795  0.4873
 8726TIP3    H126142   5.306   1.798   1.666 -0.6162  1.0198  1.9897
 8726TIP3    H226143   5.178   1.806   1.745 -2.1228 -0.2690 -0.2154
 8727TIP3   OH226144   0.531   3.363   2.245 -0.6253 -0.0259  0.5877
 8727TIP3    H126145   0.601   3.318   2.197  0.1011 -0.6243  2.1317
 8727TIP3    H226146   0.522   3.312   2.326  0.2814  2.6259  2.4733
 8728TIP3   OH226147   0.345   5.904   1.601  0.4125  0.0395  0.3802
 8728TIP3    H126148   0.316   5.991   1.627  0.8829  0.5032 -0.6240
 8728TIP3    H226149   0.386   5.868   1.680  0.8566  0.9973  0.5988
 8729TIP3   OH226150   3.485   5.789   3.784 -0.0616 -0.6032 -0.4919
 8729TIP3    H126151   3.535   5.736   3.722 -0.1479 -0.3485 -0.7818
 8729TIP3    H226152   3.496   5.879   3.753  2.3295 -0.0902  1.5108
 8730TIP3   OH226153   1.662   2.712   3.076  0.0063 -0.0497 -0.1008
 8730TIP3    H126154   1.731   2.649   3.057 -1.0465 -1.1078 -0.5643
 8730TIP3    H226155   1.628   2.685   3.162 -1.2993 -0.9373 -0.8706
 8731TIP3   OH226156   3.789   5.755   3.988 -0.1179 -0.2672 -0.1993
 8731TIP3    H126157   3.856   5.804   4.037  0.3287 -1.4537  0.4208
 8731TIP3    H226158   3.786   5.797   3.902 -0.9214  1.8820  0.8044
 8732TIP3   OH226159   1.643   5.764   0.964  0.3566 -0.5695 -0.7348
 8732TIP3    H126160   1.732   5.790   0.940 -0.0482  0.4681 -1.1529
 8732TIP3    H226161   1.588   5.836   0.935 -0.6240 -1.1706 -0.4216
 8733TIP3   OH226162   3.052   3.777   5.560 -0.3657  0.1330 -0.0773
 8733TIP3    H126163   3.068   3.729   5.479 -1.9708  0.6010 -0.7216
 8733TIP3    H226164   2.976   3.734   5.599  0.6081 -0.3218  1.4065
 8734TIP3   OH226165   2.773   3.256   1.747  0.5516 -0.1868  0.3014
 8734TIP3    H126166   2.862   3.282   1.770  0.6707  0.5548 -0.9185
 8734TIP3    H226167   2.748   3.315   1.675 -0.8389 -0.5256  0.4711
 8735TIP3   OH226168   5.823   2.332   2.724 -0.4121 -0.5574 -0.2100
 8735TIP3    H126169   5.823   2.384   2.804 -1.5582  2.4243 -2.0182
 8735TIP3    H226170   5.915   2.332   2.695 -0.3588  0.2445 -0.0496
 8736TIP3   OH226171   2.130   0.974   5.159  0.3372  0.2959  0.0010
 8736TIP3    H126172   2.127   0.926   5.076  1.8816  0.1661  0.0012
 8736TIP3    H226173   2.074   1.050   5.144  0.3761  0.1321 -1.0747
 8737TIP3   OH226174   1.712   1.676   3.992 -0.4463  0.6816 -0.2723
 8737TIP3    H126175   1.781   1.703   3.933 -0.6062 -0.0803 -0.8198
 8737TIP3    H226176   1.757   1.641   4.069 -0.1952 -0.7303 -1.0397
 8738TIP3   OH226177   1.676   3.606   1.614 -0.6457  0.5600 -0.0482
 8738TIP3    H126178   1.746   3.611   1.549 -0.2950 -1.6822  0.0881
 8738TIP3    H226179   1.600   3.574   1.565 -0.9706  0.8754  0.2431
 8739TIP3   OH226180   6.856   5.482   0.987 -0.5001  0.1950 -0.1461
 8739TIP3    H126181   6.908   5.547   1.034  0.7400 -0.0429 -1.1404
 8739TIP3    H226182   6.771   5.524   0.976 -0.2127  1.0164  0.6068
 8740TIP3   OH226183   6.979   4.174   5.400  0.1761  0.3025 -0.0524
 8740TIP3    H126184   6.898   4.181   5.450 -1.2716  1.1555 -2.3711
 8740TIP3    H226185   7.047   4.160   5.467 -1.8026 -0.2061  1.9856
 8741TIP3   OH226186   7.146   4.284   3.232  0.1835 -0.0448  0.1166
 8741TIP3    H126187   7.194   4.366   3.241  0.8198 -0.4631  0.6406
 8741TIP3    H226188   7.164   4.255   3.142  2.7448 -1.2805  0.9370
 8742TIP3   OH226189   4.219   1.605   4.474  0.0594 -0.0426 -0.3887
 8742TIP3    H126190   4.173   1.607   4.558  0.4504  2.0692 -0.1773
 8742TIP3    H226191   4.309   1.629   4.496  0.7630 -1.8504 -1.1207
 8743TIP3   OH226192   0.417   2.652   2.293  0.0124 -0.8740  0.0385
 8743TIP3    H126193   0.431   2.636   2.199 -0.6343 -0.3989 -0.1421
 8743TIP3    H226194   0.503   2.637   2.332  0.6213  0.2447 -0.8043
 8744TIP3   OH226195   7.137   3.472   3.287 -0.0140 -0.3274 -0.2317
 8744TIP3    H126196   7.063   3.448   3.343 -0.2182  0.4369 -0.1712
 8744TIP3    H226197   7.147   3.397   3.228  0.1642 -1.1165  0.7670
 8745TIP3   OH226198   0.670   3.415   4.936  0.1715 -0.0211  0.2200
 8745TIP3    H126199   0.654   3.352   5.006 -1.0438 -0.5324 -0.4850
 8745TIP3    H226200   0.741   3.471   4.970  0.9210 -1.4143  1.0722
 8746TIP3   OH226201   6.537   0.969   4.176 -0.1369 -0.6391 -0.5134
 8746TIP3    H126202   6.458   0.922   4.148  0.0417 -1.6213  0.5254
 8746TIP3    H226203   6.569   1.012   4.097 -1.9702  0.1817 -0.8602
 8747TIP3   OH226204   4.449   4.817   0.629 -0.2928  0.1134  0.5687
 8747TIP3    H126205   4.537   4.801   0.661  0.5080  2.1024 -0.5176
 8747TIP3    H226206   4.422   4.733   0.591  1.2004 -0.4632  0.7207
 8748TIP3   OH226207   4.145   4.313   2.349 -0.1304  0.1736 -0.0062
 8748TIP3    H126208   4.140   4.408   2.344  0.7335  0.2006 -0.4173
 8748TIP3    H226209   4.213   4.295   2.414 -0.2141 -0.1628 -0.0081
 8749TIP3   OH226210   6.829   6.531   2.249  0.1569  0.3749 -0.0128
 8749TIP3    H126211   6.816   6.617   2.207 -0.6164  0.7221  0.9037
 8749TIP3    H226212   6.778   6.471   2.195  0.8766  0.4348 -0.7887
 8750TIP3   OH226213   2.821   2.457   1.440 -0.0564  0.3178  0.5575
 8750TIP3    H126214   2.890   2.512   1.477  1.1028 -0.3096 -0.5759
 8750TIP3    H226215   2.797   2.397   1.511 -1.0341  1.9350  1.6657
 8751TIP3   OH226216   4.796   0.163   0.275 -0.6462 -0.1336  0.3527
 8751TIP3    H126217   4.847   0.231   0.319  0.1122 -0.0539 -0.6402
 8751TIP3    H226218   4.856   0.089   0.267 -0.5300  0.0937 -1.1635
 8752TIP3   OH226219   1.908   0.359   1.229  0.0472  0.2857  0.3466
 8752TIP3    H126220   1.867   0.417   1.293 -2.5186 -0.7878 -0.2045
 8752TIP3    H226221   1.848   0.359   1.154  1.2809 -1.0630 -0.7127
 8753TIP3   OH226222   5.368   3.822   4.910  0.3908 -0.1948  0.2017
 8753TIP3    H126223   5.344   3.841   5.001 -1.3198  0.0183 -0.2493
 8753TIP3    H226224   5.423   3.896   4.884  0.8257 -0.2137  1.0304
 8754TIP3   OH226225   0.563   1.654   2.810  0.2260  0.4206  0.2781
 8754TIP3    H126226   0.606   1.583   2.857  0.8732 -0.1392 -1.1089
 8754TIP3    H226227   0.635   1.704   2.772 -0.2897  0.8199 -0.1810
 8755TIP3   OH226228   2.433   3.408   4.331  0.2857  0.2953  0.2136
 8755TIP3    H126229   2.342   3.436   4.333  0.8810  2.3103  1.2043
 8755TIP3    H226230   2.470   3.441   4.412  2.2260  0.6736 -0.7702
 8756TIP3   OH226231   2.845   6.220   1.707  0.1520 -0.2016  0.6225
 8756TIP3    H126232   2.799   6.176   1.636 -1.3795  2.5002 -0.2154
 8756TIP3    H226233   2.865   6.307   1.672  0.9350  0.6166  2.9021
 8757TIP3   OH226234   1.708   3.240   4.107 -0.3221 -0.1503  0.0869
 8757TIP3    H126235   1.758   3.221   4.187 -2.1499 -0.0323  1.3331
 8757TIP3    H226236   1.749   3.318   4.071 -1.0295  1.3875  2.4133
 8758TIP3   OH226237   5.016   1.619   4.352 -0.1031 -0.0901  0.0796
 8758TIP3    H126238   4.987   1.709   4.336  1.0693  0.6526  1.7708
 8758TIP3    H226239   5.104   1.629   4.389 -0.6964 -1.7975  2.1776
 8759TIP3   OH226240   4.888   4.897   1.020 -0.2465  0.4667  0.1863
 8759TIP3    H126241   4.797   4.917   1.002  0.0196 -0.8463 -3.3764
 8759TIP3    H226242   4.886   4.812   1.064 -0.7672  1.9509  3.2691
 8760TIP3   OH226243   2.784   6.479   3.263  0.1529  0.0452  0.0533
 8760TIP3    H126244   2.743   6.562   3.239 -2.2626 -1.1854 -0.3515
 8760TIP3    H226245   2.737   6.413   3.212 -0.0372 -1.8861  2.5404
 8761TIP3   OH226246   0.467   4.768   4.047 -0.7032  0.1293  0.2622
 8761TIP3    H126247   0.495   4.860   4.050  2.2826 -0.6863  1.1226
 8761TIP3    H226248   0.410   4.763   3.971  1.9147  2.0297 -2.0374
 8762TIP3   OH226249   4.358   1.176   0.817 -0.8657 -0.2235 -0.2343
 8762TIP3    H126250   4.423   1.241   0.845 -1.1145 -0.1512  0.1852
 8762TIP3    H226251   4.274   1.219   0.829 -1.2417 -1.5134  2.7189
 8763TIP3   OH226252   0.047   6.602   3.251  0.4396 -0.5163  0.4735
 8763TIP3    H126253   0.070   6.601   3.158 -0.5063 -0.6957  0.2268
 8763TIP3    H226254   0.060   6.693   3.278 -0.9115 -0.0715 -0.2805
 8764TIP3   OH226255   4.512   3.693   5.315  0.3891 -0.0261 -0.1521
 8764TIP3    H126256   4.489   3.702   5.407 -2.1469 -1.1425 -0.5906
 8764TIP3    H226257   4.522   3.783   5.284  1.7886  0.3462  1.2869
 8765TIP3   OH226258   4.729   4.372   0.656 -0.0573  0.3586 -0.7665
 8765TIP3    H126259   4.793   4.309   0.689  0.6377  1.7592  0.7224
 8765TIP3    H226260   4.682   4.325   0.588  0.9541 -1.4982 -0.2585
 8766TIP3   OH226261   2.760   3.159   1.446  0.2816 -0.2613 -0.6153
 8766TIP3    H126262   2.779   3.100   1.519  0.6684  1.1167  0.4592
 8766TIP3    H226263   2.787   3.245   1.478 -0.5436  0.5533 -2.0097
 8767TIP3   OH226264   6.526   4.571   1.255 -0.9728  0.2164 -0.0423
 8767TIP3    H126265   6.492   4.509   1.319 -3.2026 -0.2162 -1.5137
 8767TIP3    H226266   6.529   4.521   1.173 -0.0674  1.2774 -0.6737
 8768TIP3   OH226267   6.655   5.517   2.753  0.5025 -0.4995 -0.2010
 8768TIP3    H126268   6.632   5.434   2.793 -1.5752 -0.3408 -0.9385
 8768TIP3    H226269   6.618   5.583   2.812  1.2163 -0.1247 -0.1650
 8769TIP3   OH226270   4.486   3.291   5.783 -0.0195  0.3449 -0.5988
 8769TIP3    H126271   4.580   3.272   5.781 -0.0329  0.3335 -1.2732
 8769TIP3    H226272   4.471   3.328   5.870  0.4606 -0.3986 -0.1929
 8770TIP3   OH226273   0.017   5.415   4.938 -0.4778  0.3011 -0.3196
 8770TIP3    H126274  -0.036   5.338   4.920  0.8192 -0.6028 -0.3849
 8770TIP3    H226275   0.087   5.412   4.873  1.4036 -0.2391  1.6218
 8771TIP3   OH226276   3.637   2.637   3.259  0.4540 -0.2586  0.0734
 8771TIP3    H126277   3.645   2.689   3.179  0.1302 -1.4241 -0.7483
 8771TIP3    H226278   3.714   2.661   3.311  0.0079  1.4519 -0.0099
 8772TIP3   OH226279   3.699   1.326   4.843 -0.3918  0.4940  0.0206
 8772TIP3    H126280   3.666   1.344   4.755  0.1941  2.1561  0.1065
 8772TIP3    H226281   3.764   1.257   4.831 -1.5515 -0.5138 -0.5928
 8773TIP3   OH226282   1.963   6.105   2.428  0.8235 -0.3019  0.3656
 8773TIP3    H126283   1.883   6.053   2.438  0.5355  0.5169  3.4685
 8773TIP3    H226284   1.948   6.157   2.348 -2.0775  0.2810  1.1495
 8774TIP3   OH226285   5.303   2.124   1.931  0.1924 -0.3049 -0.0449
 8774TIP3    H126286   5.336   2.118   2.021 -2.0068 -1.3997  0.7838
 8774TIP3    H226287   5.371   2.171   1.883  1.5616  0.0766  2.1240
 8775TIP3   OH226288   1.712   3.882   4.247  0.0025  0.2061  0.1524
 8775TIP3    H126289   1.786   3.833   4.282 -0.6856  0.9597  2.9060
 8775TIP3    H226290   1.751   3.965   4.217  0.3116  0.7306  1.8753
 8776TIP3   OH226291   0.918   5.900   1.837 -0.5826 -0.6335  0.4101
 8776TIP3    H126292   0.920   5.990   1.807  0.5122 -1.3176 -1.7414
 8776TIP3    H226293   0.978   5.898   1.912  2.5146 -0.2867 -1.8907
 8777TIP3   OH226294   0.960   2.955   1.347 -0.9191 -0.1604 -0.2545
 8777TIP3    H126295   0.928   2.869   1.322  0.5719  0.1811 -3.9736
 8777TIP3    H226296   1.053   2.941   1.366 -0.7121  0.6091 -0.6923
 8778TIP3   OH226297   5.262   0.029   0.346 -0.0399  0.2897 -0.4373
 8778TIP3    H126298   5.287   0.081   0.422 -1.5192 -1.1618  1.1013
 8778TIP3    H226299   5.337  -0.029   0.330  0.8061  1.4639 -0.9638
 8779TIP3   OH226300   2.949   0.637   3.623 -0.4376  0.1211 -0.0810
 8779TIP3    H126301   3.003   0.634   3.702  0.5683 -2.9670 -0.7225
 8779TIP3    H226302   3.007   0.607   3.553 -2.1781 -0.4247 -1.3629
 8780TIP3   OH226303   2.635   0.239   5.066 -0.2024 -0.4971  0.2302
 8780TIP3    H126304   2.730   0.247   5.079  0.0576 -1.2174 -1.1145
 8780TIP3    H226305   2.597   0.271   5.148  1.2196 -0.7993  1.0354
 8781TIP3   OH226306   0.766   4.663   4.528 -0.0907 -0.5603  0.0915
 8781TIP3    H126307   0.826   4.716   4.475 -0.6388  1.3009  1.2578
 8781TIP3    H226308   0.723   4.725   4.586 -0.2807 -2.3916  2.0253
 8782TIP3   OH226309   2.191   3.150   3.608 -0.0160 -0.6192 -0.1754
 8782TIP3    H126310   2.181   3.242   3.631  0.0612 -0.9056  1.0976
 8782TIP3    H226311   2.263   3.149   3.545 -1.8710  0.4685 -2.4307
 8783TIP3   OH226312   1.904   3.014   5.082 -0.0372 -0.0480  0.1334
 8783TIP3    H126313   1.919   3.075   5.154  1.8243 -1.9486  1.4894
 8783TIP3    H226314   1.850   2.944   5.120 -0.5922 -0.1792 -0.8593
 8784TIP3   OH226315   6.842   3.810   0.899  0.0471  0.0417 -0.3611
 8784TIP3    H126316   6.878   3.859   0.825 -0.6552 -1.1655 -1.5369
 8784TIP3    H226317   6.758   3.777   0.868 -0.4328 -0.2104  1.1097
 8785TIP3   OH226318   4.876   2.884   3.705  0.4974 -0.0301 -0.2550
 8785TIP3    H126319   4.945   2.840   3.655  0.4890 -0.9311  0.4983
 8785TIP3    H226320   4.854   2.822   3.774 -1.3775  0.0317 -0.7387
 8786TIP3   OH226321   1.339   5.937   0.725 -0.7452  0.4502 -0.4016
 8786TIP3    H126322   1.394   5.942   0.803 -3.1600 -0.0165  1.4625
 8786TIP3    H226323   1.349   5.847   0.695 -1.0725  0.1365  0.4012
 8787TIP3   OH226324   7.092   6.187   5.051 -0.2563  0.1321  0.1408
 8787TIP3    H126325   6.998   6.184   5.035 -0.4743  1.3629  1.0691
 8787TIP3    H226326   7.127   6.241   4.981 -0.5603  1.5217  1.0312
 8788TIP3   OH226327   4.110   1.299   2.573 -0.5377  0.1698 -0.1875
 8788TIP3    H126328   4.064   1.294   2.657 -1.9995 -1.8775 -1.0156
 8788TIP3    H226329   4.132   1.208   2.553  1.7236  0.8385 -1.0535
 8789TIP3   OH226330   2.623   3.909   2.043  0.2449 -0.2592 -0.1206
 8789TIP3    H126331   2.589   3.924   1.955  0.4247  0.8385 -0.0143
 8789TIP3    H226332   2.582   3.976   2.097  0.5790 -0.5616  0.5292
 8790TIP3   OH226333   0.069   4.698   4.661  0.3926  0.1210  0.8222
 8790TIP3    H126334   0.054   4.606   4.681  1.4278 -0.3379 -0.3652
 8790TIP3    H226335   0.163   4.704   4.644 -0.0737  0.7075 -2.2420
 8791TIP3   OH226336   3.307   0.759   2.371 -0.5190  0.2644 -0.8614
 8791TIP3    H126337   3.253   0.792   2.442  0.2654  1.3764 -0.7540
 8791TIP3    H226338   3.396   0.787   2.393 -0.1134 -0.2731 -1.7521
 8792TIP3   OH226339   4.611   1.973   0.581  0.1673  0.5166 -0.3028
 8792TIP3    H126340   4.695   1.984   0.537  0.4793 -0.8648 -0.1288
 8792TIP3    H226341   4.576   2.061   0.590  2.2960  1.3179  0.9488
 8793TIP3   OH226342   0.713   5.334   5.531 -0.1915 -0.0625 -0.2679
 8793TIP3    H126343   0.754   5.293   5.455  0.4322 -1.2034  0.6390
 8793TIP3    H226344   0.700   5.261   5.593 -0.0999  0.9342  0.9648
 8794TIP3   OH226345   4.115   2.829   1.065  0.0822 -0.5437  0.0965
 8794TIP3    H126346   4.131   2.875   0.982  0.2243 -0.2553  0.2825
 8794TIP3    H226347   4.021   2.841   1.080 -0.1231 -1.3379 -0.4579
 8795TIP3   OH226348   1.098   1.963   5.021 -0.4998 -0.2839 -0.1805
 8795TIP3    H126349   1.111   2.014   5.101  0.3634 -0.1669 -0.3795
 8795TIP3    H226350   1.182   1.969   4.976 -1.1711  0.2005 -1.4161
 8796TIP3   OH226351   4.061   1.993   2.628  0.4090  0.0099  0.3531
 8796TIP3    H126352   4.019   1.999   2.542 -0.5435 -0.4715  0.7754
 8796TIP3    H226353   4.130   1.928   2.615  0.9111  0.6493 -0.2907
 8797TIP3   OH226354   5.052   5.514   1.956  0.8249  0.2722 -0.1926
 8797TIP3    H126355   5.006   5.583   1.907  0.3905  0.5248  0.5504
 8797TIP3    H226356   5.010   5.515   2.042 -0.4646 -2.1763 -0.6976
 8798TIP3   OH226357   4.298   2.867   1.267 -0.5853  0.0379 -0.2261
 8798TIP3    H126358   4.250   2.882   1.186 -0.7602  1.4226  0.1063
 8798TIP3    H226359   4.337   2.780   1.256 -1.2778 -0.1429 -1.4419
 8799TIP3   OH226360   5.743   4.075   4.457  0.1656 -0.3836 -0.0001
 8799TIP3    H126361   5.696   4.119   4.527  1.4521  0.6066  0.2810
 8799TIP3    H226362   5.836   4.093   4.474  0.5991 -1.3256 -1.1504
 8800TIP3   OH226363   6.018   0.925   4.144 -0.1855  0.0792  0.2338
 8800TIP3    H126364   5.974   0.862   4.088  1.2868 -0.9362  0.1697
 8800TIP3    H226365   6.110   0.899   4.143  0.2871  1.5598  1.1056
 8801TIP3   OH226366   2.944   1.815   5.585  0.3781 -0.2104 -0.0354
 8801TIP3    H126367   2.903   1.751   5.644 -0.1584  0.3297  0.1768
 8801TIP3    H226368   2.897   1.896   5.600  0.0164 -0.1354 -1.4500
 8802TIP3   OH226369   2.338   1.307   0.988  0.6006  0.2283  0.3825
 8802TIP3    H126370   2.252   1.349   0.981  0.0607 -0.6947  1.1643
 8802TIP3    H226371   2.374   1.341   1.070  0.6306 -0.0090  0.4668
 8803TIP3   OH226372   1.423   0.806   1.064 -0.5514 -0.1144  0.3883
 8803TIP3    H126373   1.397   0.865   1.134  0.7858  1.5050 -0.4175
 8803TIP3    H226374   1.483   0.744   1.105  0.6408  1.1508  0.6009
 8804TIP3   OH226375   6.443   1.051   5.066 -0.2485  0.5691 -0.0106
 8804TIP3    H126376   6.385   1.027   4.994  0.7359 -0.4275 -0.4965
 8804TIP3    H226377   6.507   1.109   5.027  0.3135 -0.0076  0.0431
 8805TIP3   OH226378   0.524   4.145   0.193 -0.0344 -0.0696  0.3261
 8805TIP3    H126379   0.590   4.100   0.140 -1.4342 -0.6641 -1.0036
 8805TIP3    H226380   0.566   4.226   0.221  0.6554  0.4992 -2.1024
 8806TIP3   OH226381   6.132   1.133   0.609  0.1511  0.2096 -0.7505
 8806TIP3    H126382   6.114   1.119   0.517  0.3668 -1.6960 -0.5252
 8806TIP3    H226383   6.227   1.141   0.615  0.3313 -1.7210 -0.4787
 8807TIP3   OH226384   5.191   1.219   0.780  0.0344  0.6440  0.1052
 8807TIP3    H126385   5.174   1.129   0.753  1.2111  0.7208 -1.0375
 8807TIP3    H226386   5.187   1.269   0.698 -0.4350  1.6115  0.6969
 8808TIP3   OH226387   6.712   4.471   5.047 -0.3886 -0.1742  0.1301
 8808TIP3    H126388   6.682   4.452   4.958  1.3035  0.2070 -0.5587
 8808TIP3    H226389   6.685   4.395   5.098  0.1806 -1.2514 -1.1087
 8809TIP3   OH226390   6.047   5.381   3.687 -0.7627 -0.0456  0.4553
 8809TIP3    H126391   6.042   5.476   3.681  1.9850  0.1871  0.7561
 8809TIP3    H226392   6.095   5.363   3.767  1.3918 -1.5082 -1.0271
 8810TIP3   OH226393   4.058   4.730   0.655  0.3813  0.1023  0.1078
 8810TIP3    H126394   4.083   4.762   0.568  1.9107 -0.4251  0.3141
 8810TIP3    H226395   3.974   4.771   0.673  0.7873  1.4735 -0.9584
 8811TIP3   OH226396   6.086   3.242   5.871 -0.1259  0.5986 -0.0746
 8811TIP3    H126397   6.125   3.256   5.784 -0.8917  0.0643 -0.5224
 8811TIP3    H226398   6.155   3.198   5.921  0.1763  0.5011 -0.5593
 8812TIP3   OH226399   2.508   5.497   2.522 -0.3778  0.2229 -0.3332
 8812TIP3    H126400   2.482   5.483   2.431  1.3919  0.2262 -0.8617
 8812TIP3    H226401   2.477   5.585   2.542  0.8800  0.9855 -1.5647
 8813TIP3   OH226402   5.627   1.387   0.804 -0.0154 -0.2124  0.2046
 8813TIP3    H126403   5.684   1.365   0.731 -0.9307 -0.8837 -0.3271
 8813TIP3    H226404   5.673   1.456   0.851  0.5108  0.3510 -1.1048
 8814TIP3   OH226405   5.349   6.147   0.938 -0.0537 -0.3728  0.1947
 8814TIP3    H126406   5.442   6.145   0.917 -0.1562 -3.2488 -0.4985
 8814TIP3    H226407   5.343   6.109   1.025 -0.5777 -0.2129  0.2330
 8815TIP3   OH226408   2.859   0.433   2.811  0.0892 -0.6554 -0.2518
 8815TIP3    H126409   2.942   0.420   2.765  0.6644  0.2391  0.4887
 8815TIP3    H226410   2.861   0.370   2.882  0.4634 -0.1647  0.1810
 8816TIP3   OH226411   2.993   5.225   4.008 -0.0500  0.1202 -0.6620
 8816TIP3    H126412   3.022   5.309   3.974 -0.2283  0.2400 -0.5177
 8816TIP3    H226413   3.066   5.166   3.991 -0.1496  0.1675 -1.2922
 8817TIP3   OH226414   6.802   5.503   2.498  0.4805  0.3862 -0.1726
 8817TIP3    H126415   6.897   5.488   2.504  0.1554 -1.3170  1.8366
 8817TIP3    H226416   6.767   5.466   2.579 -1.9493  0.8077 -0.9576
 8818TIP3   OH226417   2.825   0.528   1.394 -0.4233  0.0375  0.2625
 8818TIP3    H126418   2.842   0.615   1.359  1.7064  0.3538  1.8820
 8818TIP3    H226419   2.752   0.540   1.455 -1.0733  0.3841 -0.5668
 8819TIP3   OH226420   6.450   3.893   1.679 -0.3809  0.0113  0.4151
 8819TIP3    H126421   6.360   3.879   1.708 -0.4929  0.8995  0.5105
 8819TIP3    H226422   6.457   3.844   1.597 -1.6720  1.8342 -0.8652
 8820TIP3   OH226423   5.292   4.955   1.531  0.6903  0.0441 -0.1722
 8820TIP3    H126424   5.291   4.973   1.625  2.7309 -0.8655  0.0779
 8820TIP3    H226425   5.215   5.001   1.497 -0.2824  0.1319  1.9688
 8821TIP3   OH226426   6.454   4.439   4.303 -0.2027 -0.8722  0.0629
 8821TIP3    H126427   6.454   4.500   4.230 -0.7911 -2.3675 -1.2369
 8821TIP3    H226428   6.394   4.479   4.367  1.0598  0.9261  0.1925
 8822TIP3   OH226429   7.046   0.921   2.102  0.0567  0.8752  0.2135
 8822TIP3    H126430   7.138   0.895   2.094 -0.2390 -0.8296  1.8567
 8822TIP3    H226431   7.049   1.017   2.099  1.3110  0.9429 -4.6913
 8823TIP3   OH226432   1.146   1.412   1.427 -0.3577  0.1625 -0.4424
 8823TIP3    H126433   1.192   1.484   1.471 -2.4415  1.4640 -0.2559
 8823TIP3    H226434   1.146   1.341   1.491  1.6525 -0.0041 -0.5881
 8824TIP3   OH226435   5.972   3.412   1.903  0.0087  0.1414  0.0343
 8824TIP3    H126436   5.899   3.406   1.965  0.3198  2.4530  0.7442
 8824TIP3    H226437   6.047   3.375   1.950  0.1990  1.7048  1.0686
 8825TIP3   OH226438   3.239   4.631   3.299  0.3429  0.4308 -0.7621
 8825TIP3    H126439   3.150   4.665   3.302  0.6205  1.2025 -1.1186
 8825TIP3    H226440   3.265   4.638   3.207  1.0489  0.9425 -0.5321
 8826TIP3   OH226441   5.317   4.872   1.249 -0.7455 -0.0449  0.0489
 8826TIP3    H126442   5.318   4.886   1.344 -0.9240 -1.0549  0.2061
 8826TIP3    H226443   5.387   4.929   1.216  0.5911 -1.0872  0.9902
 8827TIP3   OH226444   5.844   2.195   2.388 -0.1946  0.8331  0.1537
 8827TIP3    H126445   5.816   2.108   2.414 -1.0323  1.1871  0.4555
 8827TIP3    H226446   5.918   2.215   2.446  0.3503  0.1176 -0.2807
 8828TIP3   OH226447   6.769   2.151   1.865 -0.1467  0.7568 -0.2476
 8828TIP3    H126448   6.708   2.137   1.938 -0.8507 -1.0313 -1.1210
 8828TIP3    H226449   6.845   2.192   1.906 -0.3436 -0.5641  1.5942
 8829TIP3   OH226450   0.855   4.423   1.690 -0.1379 -0.3781 -0.0207
 8829TIP3    H126451   0.844   4.511   1.653  0.9392 -0.3014 -0.1875
 8829TIP3    H226452   0.924   4.434   1.756 -0.1212 -1.0652  0.0777
 8830TIP3   OH226453   4.095   4.215   1.610 -0.1172 -0.3279 -0.3050
 8830TIP3    H126454   4.004   4.243   1.620 -0.0693  0.0643 -0.9277
 8830TIP3    H226455   4.098   4.172   1.525  0.3001 -0.2655 -0.3231
 8831TIP3   OH226456   6.044   3.841   4.574 -0.5616  0.1160  0.0287
 8831TIP3    H126457   5.973   3.804   4.521 -0.1471 -1.9810  0.8764
 8831TIP3    H226458   5.999   3.890   4.643 -1.2204 -1.4107  0.7145
 8832TIP3   OH226459   4.290   4.697   2.817 -0.1707  0.0115  0.0685
 8832TIP3    H126460   4.230   4.753   2.865  0.4202  0.3206  0.4603
 8832TIP3    H226461   4.262   4.706   2.725 -1.1445 -0.3927  0.3119
 8833TIP3   OH226462   1.953   3.313   3.453  0.4637  0.1311  0.5827
 8833TIP3    H126463   1.932   3.301   3.545 -0.0297  1.5012  0.6756
 8833TIP3    H226464   2.038   3.358   3.453  0.6348 -0.1842  0.3503
 8834TIP3   OH226465   6.268   0.389   1.217 -0.0231 -0.1110 -0.0665
 8834TIP3    H126466   6.248   0.448   1.144  1.8759  0.2871 -0.3402
 8834TIP3    H226467   6.343   0.337   1.186  2.6388  1.8731  2.4124
 8835TIP3   OH226468   6.422   5.222   3.621  0.1583 -0.0985  0.5711
 8835TIP3    H126469   6.381   5.244   3.705 -0.2009  1.1569  0.0798
 8835TIP3    H226470   6.455   5.133   3.634  0.4278  0.2039  2.1660
 8836TIP3   OH226471   6.494   1.903   5.765  0.4297 -0.0222  0.4068
 8836TIP3    H126472   6.409   1.879   5.730  1.7015 -2.4952 -1.2864
 8836TIP3    H226473   6.510   1.992   5.733 -0.9187 -0.0531 -0.3790
 8837TIP3   OH226474   1.178   5.932   3.550  0.2206 -0.1825 -0.5297
 8837TIP3    H126475   1.107   5.986   3.515 -0.5914 -0.6755  0.2914
 8837TIP3    H226476   1.217   5.891   3.473 -0.1619  0.3619 -1.0234
 8838TIP3   OH226477   4.022   1.001   3.656  0.5957  0.7437 -0.5491
 8838TIP3    H126478   3.991   0.927   3.605  0.5970 -0.2571  0.8470
 8838TIP3    H226479   4.005   1.077   3.601 -0.2320 -0.2050 -1.6398
 8839TIP3   OH226480   1.201   5.002   4.807  0.6065 -0.1085  0.8039
 8839TIP3    H126481   1.234   4.913   4.822  0.4050 -0.0208  1.7675
 8839TIP3    H226482   1.279   5.051   4.779  0.7496 -0.5389  0.4138
 8840TIP3   OH226483   1.901   0.862   0.761 -0.5142  0.4441 -0.1215
 8840TIP3    H126484   1.938   0.838   0.846  0.2827 -0.6367 -0.7410
 8840TIP3    H226485   1.956   0.933   0.729 -1.0880  1.1542  0.4506
 8841TIP3   OH226486   2.918   3.719   2.182  0.3764  0.1548 -0.0253
 8841TIP3    H126487   2.829   3.704   2.213  0.6537 -3.5192 -0.5686
 8841TIP3    H226488   2.916   3.696   2.089  1.2153  3.5966 -1.0633
 8842TIP3   OH226489   1.518   2.617   2.323  0.1090 -0.0128 -0.1940
 8842TIP3    H126490   1.594   2.583   2.276 -0.7977 -1.9951 -0.3438
 8842TIP3    H226491   1.470   2.668   2.258  0.6103  0.1240 -0.4629
 8843TIP3   OH226492   0.155   3.342   0.151 -0.5833  0.0745  0.3861
 8843TIP3    H126493   0.082   3.342   0.212  1.4402  0.2848  3.0042
 8843TIP3    H226494   0.190   3.432   0.155 -0.2779  0.0472 -0.9785
 8844TIP3   OH226495   6.779   0.524   4.117  0.2989 -0.6407 -0.1325
 8844TIP3    H126496   6.862   0.484   4.091  0.3266 -1.5611  1.2758
 8844TIP3    H226497   6.796   0.618   4.115  1.0560 -0.7837 -0.8813
 8845TIP3   OH226498   2.194   0.946   1.808 -0.5253  0.1949  0.5354
 8845TIP3    H126499   2.278   0.986   1.785 -1.3372  1.7232  0.0027
 8845TIP3    H226500   2.168   0.990   1.889 -1.3445  0.6275  0.0550
 8846TIP3   OH226501   4.370   3.224   5.546  0.5719 -0.0813  0.2814
 8846TIP3    H126502   4.414   3.245   5.629 -1.8830 -0.5698  1.8176
 8846TIP3    H226503   4.308   3.296   5.532 -0.9787 -1.3409  0.3844
 8847TIP3   OH226504   5.759   3.983   3.010  0.7668 -0.0514  0.5367
 8847TIP3    H126505   5.824   3.975   2.941 -1.1884  0.4981 -1.4600
 8847TIP3    H226506   5.746   3.894   3.042  2.2692 -0.1984  0.8121
 8848TIP3   OH226507   2.470   4.672   0.369  0.1018 -0.3109  0.3097
 8848TIP3    H126508   2.535   4.681   0.299 -0.2629  0.8074  0.0964
 8848TIP3    H226509   2.407   4.608   0.335 -0.7419  1.1044 -0.9369
 8849TIP3   OH226510   6.894   4.529   3.299 -0.1760  0.3153 -0.0695
 8849TIP3    H126511   6.824   4.487   3.249  0.9588 -2.2008  0.2864
 8849TIP3    H226512   6.973   4.516   3.247  0.5476  0.1732  1.0167
 8850TIP3   OH226513   4.033   5.727   1.775  0.0405 -0.0130 -0.3731
 8850TIP3    H126514   4.015   5.735   1.869  0.6160 -0.5954 -0.2057
 8850TIP3    H226515   4.064   5.637   1.764 -0.0009  0.0561 -1.1215
 8851TIP3   OH226516   1.516   1.096   5.814 -0.7467 -0.5738 -0.7549
 8851TIP3    H126517   1.460   1.037   5.763 -0.2977  0.4064 -2.4617
 8851TIP3    H226518   1.458   1.168   5.839 -0.7936 -0.6975 -0.5059
 8852TIP3   OH226519   1.789   4.569   0.435  0.3117  0.2239 -0.6223
 8852TIP3    H126520   1.877   4.579   0.472  0.6884  1.8848 -1.8483
 8852TIP3    H226521   1.731   4.607   0.501  0.4013 -1.5068  0.5032
 8853TIP3   OH226522   5.947   1.533   3.852  0.1494 -0.2313 -0.2964
 8853TIP3    H126523   5.979   1.543   3.942  0.0426 -1.9524 -0.0306
 8853TIP3    H226524   5.855   1.558   3.857  0.4800  1.0156 -0.2362
 8854TIP3   OH226525   6.278   4.585   2.124 -0.1725  0.7430 -0.0169
 8854TIP3    H126526   6.335   4.512   2.100  0.5631  1.2152  0.2489
 8854TIP3    H226527   6.337   4.661   2.128 -0.9483  1.3774 -0.4282
 8855TIP3   OH226528   6.535   1.428   5.598  0.2631 -0.0048 -0.0547
 8855TIP3    H126529   6.557   1.521   5.600  0.5373 -0.0345 -0.9507
 8855TIP3    H226530   6.444   1.426   5.567  0.9109 -0.0850 -2.1150
 8856TIP3   OH226531   1.160   5.487   0.127 -0.4928 -0.4603  0.1732
 8856TIP3    H126532   1.246   5.477   0.087 -1.1706 -1.5904 -1.1009
 8856TIP3    H226533   1.174   5.473   0.220  0.7412 -0.3635  0.0131
 8857TIP3   OH226534   6.428   3.443   0.905  0.2303 -0.3474 -0.1160
 8857TIP3    H126535   6.350   3.416   0.857  0.2352 -0.8132  0.1325
 8857TIP3    H226536   6.470   3.508   0.849  0.2315 -0.8731 -0.7326
 8858TIP3   OH226537   5.432   6.484   0.291 -0.0518 -0.1435  0.1895
 8858TIP3    H126538   5.450   6.398   0.253  1.1024 -0.4085  1.2676
 8858TIP3    H226539   5.353   6.472   0.344 -0.6584 -0.1933 -0.7040
 8859TIP3   OH226540   2.647   4.978   4.718  0.5368 -0.2062 -0.0758
 8859TIP3    H126541   2.558   4.976   4.681  1.2068  1.1918 -1.9045
 8859TIP3    H226542   2.690   4.901   4.679  0.8376  0.5180 -1.2370
 8860TIP3   OH226543   4.972   1.088   1.811  0.0924 -0.1938  0.3528
 8860TIP3    H126544   5.009   1.008   1.849 -0.4013  0.5786  2.6205
 8860TIP3    H226545   4.952   1.064   1.721  3.4082 -1.4851 -0.1910
 8861TIP3   OH226546   3.393   0.680   4.406 -0.0816  0.1362  0.3267
 8861TIP3    H126547   3.432   0.766   4.392 -2.3939  1.3147  0.7641
 8861TIP3    H226548   3.326   0.694   4.473 -0.4056 -2.0472  0.5483
 8862TIP3   OH226549   6.227   5.594   5.064 -0.0964 -0.4488  0.2177
 8862TIP3    H126550   6.180   5.615   5.144  0.7700  0.0942  0.5983
 8862TIP3    H226551   6.293   5.530   5.092 -1.8577 -2.8163 -0.6784
 8863TIP3   OH226552   6.798   2.777   4.555  0.4768  0.5253 -0.0274
 8863TIP3    H126553   6.751   2.708   4.509  1.0273 -0.8433  1.3904
 8863TIP3    H226554   6.869   2.732   4.601  1.4657  2.1662  0.1566
 8864TIP3   OH226555   4.812   0.289   5.032 -0.1220  0.0574 -0.0963
 8864TIP3    H126556   4.869   0.362   5.006  0.6486 -0.3152  0.5064
 8864TIP3    H226557   4.739   0.332   5.077  0.4072  0.4675  0.4048
 8865TIP3   OH226558   0.658   0.131   1.373  0.0908 -0.8035  0.1672
 8865TIP3    H126559   0.735   0.187   1.373  0.6232 -1.4877 -1.0593
 8865TIP3    H226560   0.682   0.055   1.425  1.0325 -1.9613 -1.8229
 8866TIP3   OH226561   0.257   3.192   2.650  0.8672  0.5609 -0.3354
 8866TIP3    H126562   0.276   3.236   2.568  0.4074  0.3668 -0.5484
 8866TIP3    H226563   0.232   3.103   2.625 -0.2347  0.7795 -0.0727
 8867TIP3   OH226564   0.836   0.178   4.826  0.3460  0.5961  0.5903
 8867TIP3    H126565   0.772   0.142   4.765  1.2625  0.9835 -0.6339
 8867TIP3    H226566   0.810   0.270   4.838 -0.4751  0.2537  1.6929
 8868TIP3   OH226567   1.722   4.531   5.211  0.5817  0.0768 -0.0545
 8868TIP3    H126568   1.698   4.606   5.157  2.0019 -0.4343 -1.4656
 8868TIP3    H226569   1.686   4.456   5.164 -0.4523 -0.2030  1.1211
 8869TIP3   OH226570   6.757   1.272   2.056  0.2320  0.1933  0.2983
 8869TIP3    H126571   6.681   1.330   2.057  0.4175  0.4324  0.5695
 8869TIP3    H226572   6.742   1.212   2.130  0.9758  1.1123  1.2163
 8870TIP3   OH226573   5.022   5.843   2.220  0.9344 -0.2188  0.4317
 8870TIP3    H126574   5.010   5.762   2.269  0.4419 -0.5697 -0.2554
 8870TIP3    H226575   4.938   5.889   2.229  0.7089 -0.4547 -0.3673
 8871TIP3   OH226576   2.472   3.535   4.819  0.3048  0.0339 -0.8755
 8871TIP3    H126577   2.548   3.552   4.874  0.0171  2.3594 -1.1035
 8871TIP3    H226578   2.399   3.578   4.864 -0.6664 -1.1770 -1.2289
 8872TIP3   OH226579   1.556   6.130   1.417  0.4185 -0.2201  0.4168
 8872TIP3    H126580   1.637   6.118   1.468  0.3860 -1.5915  0.1740
 8872TIP3    H226581   1.557   6.223   1.394  2.0067 -0.2282  0.2876
 8873TIP3   OH226582   0.516   1.068   4.019 -0.5776 -0.2834 -0.8609
 8873TIP3    H126583   0.480   1.025   4.097  0.5050 -2.5689 -1.5365
 8873TIP3    H226584   0.444   1.122   3.986 -1.3714 -0.0185  1.1624
 8874TIP3   OH226585   4.320   2.382   3.596 -0.2323  0.8871 -0.5963
 8874TIP3    H126586   4.241   2.335   3.570  0.0462  0.7952 -1.3132
 8874TIP3    H226587   4.291   2.472   3.612 -0.6617  0.6175  0.1929
 8875TIP3   OH226588   0.800   5.733   3.137  0.0503 -0.7045  0.0938
 8875TIP3    H126589   0.780   5.677   3.063 -1.0192 -0.2882  0.0535
 8875TIP3    H226590   0.863   5.683   3.189 -0.0381 -1.4582 -0.5140
 8876TIP3   OH226591   6.457   2.118   0.540  0.0967  0.0036 -0.0090
 8876TIP3    H126592   6.403   2.153   0.469 -0.7732  1.0528  1.1229
 8876TIP3    H226593   6.394   2.079   0.600  0.1190  3.5335  2.6578
 8877TIP3   OH226594   3.910   0.975   1.882 -0.4233  0.3767  0.6424
 8877TIP3    H126595   3.876   1.051   1.929 -0.7930  0.3361  0.4460
 8877TIP3    H226596   3.833   0.934   1.844 -0.1802  0.1421  0.3963
 8878TIP3   OH226597   3.501   3.539   3.124  0.6033  0.1759 -0.1811
 8878TIP3    H126598   3.449   3.502   3.053  0.9533 -0.4799 -0.1093
 8878TIP3    H226599   3.444   3.533   3.201 -0.0192  1.4892 -0.5150
 8879TIP3   OH226600   5.378   3.384   5.378 -0.2080 -0.4457  0.2863
 8879TIP3    H126601   5.445   3.413   5.317 -0.5564  0.5481  0.3574
 8879TIP3    H226602   5.297   3.381   5.326 -0.2529 -0.9109  0.3776
 8880TIP3   OH226603   0.401   0.929   0.407 -0.2428 -0.0760 -0.3449
 8880TIP3    H126604   0.413   0.836   0.389 -1.6709 -0.1215 -1.1990
 8880TIP3    H226605   0.365   0.933   0.495  1.5203 -0.1883  0.4266
 8881TIP3   OH226606   4.728   1.254   3.356 -0.4732  0.6770 -0.4135
 8881TIP3    H126607   4.684   1.230   3.274 -0.7966  3.1735 -1.0605
 8881TIP3    H226608   4.816   1.281   3.329 -0.1846  0.3829  0.2247
 8882TIP3   OH226609   6.178   6.108   1.302  0.0940  0.0971  0.2626
 8882TIP3    H126610   6.207   6.143   1.218 -0.0613  0.8270  0.4996
 8882TIP3    H226611   6.145   6.021   1.282  0.2913  0.1661 -0.3900
 8883TIP3   OH226612   1.550   5.513   3.083  0.6505 -0.1625 -0.7291
 8883TIP3    H126613   1.601   5.572   3.028  1.2475  0.7937  0.7763
 8883TIP3    H226614   1.512   5.570   3.151 -1.2297 -1.0684 -0.9474
 8884TIP3   OH226615   6.626   1.643   5.332 -0.2721 -0.2263 -0.5313
 8884TIP3    H126616   6.673   1.672   5.410  0.0807  0.0119 -0.8283
 8884TIP3    H226617   6.534   1.649   5.355 -0.2581  2.0481 -0.8962
 8885TIP3   OH226618   0.627   0.312   5.378 -0.2206  0.1532  0.1336
 8885TIP3    H126619   0.694   0.244   5.367 -0.4121 -0.0486  0.1975
 8885TIP3    H226620   0.659   0.386   5.327 -0.0162  0.0088  0.0501
 8886TIP3   OH226621   2.210   5.783   1.114  0.2697  0.0302 -0.2304
 8886TIP3    H126622   2.276   5.844   1.147  0.4630 -0.2131 -0.1658
 8886TIP3    H226623   2.182   5.734   1.192 -0.5746  0.6849 -0.1109
 8887TIP3   OH226624   5.065   0.173   4.493  0.0401 -0.8344 -0.1263
 8887TIP3    H126625   4.970   0.171   4.508  0.3590 -0.3849  2.4682
 8887TIP3    H226626   5.093   0.083   4.510  0.1303 -0.8621 -0.4245
 8888TIP3   OH226627   4.730   3.625   0.940  0.0306  0.3282  0.4906
 8888TIP3    H126628   4.819   3.613   0.971 -0.0671 -0.4040  0.4960
 8888TIP3    H226629   4.689   3.539   0.950  0.0356  0.0035 -1.7431
 8889TIP3   OH226630   5.086   4.480   3.917  0.2005 -0.3211 -0.2124
 8889TIP3    H126631   5.177   4.467   3.943  0.6685  1.6586 -0.7275
 8889TIP3    H226632   5.069   4.573   3.930 -0.8037 -0.0090 -2.9189
 8890TIP3   OH226633   5.671   0.443   2.073  0.3405 -0.1941  0.7070
 8890TIP3    H126634   5.640   0.390   2.146 -0.2652  0.7727  1.1696
 8890TIP3    H226635   5.595   0.497   2.048  0.8566  0.2650  0.0848
 8891TIP3   OH226636   0.476   1.423   2.634  0.0192 -0.1780 -0.5541
 8891TIP3    H126637   0.385   1.401   2.617  0.2368 -2.4059  0.7681
 8891TIP3    H226638   0.475   1.475   2.714 -0.1079  0.0786 -0.7219
 8892TIP3   OH226639   5.846   5.270   1.406 -0.6281  0.5768 -0.3963
 8892TIP3    H126640   5.899   5.341   1.442 -1.5290  1.5591 -0.9449
 8892TIP3    H226641   5.835   5.293   1.314 -0.0718 -0.8315 -0.8349
 8893TIP3   OH226642   3.940   2.353   0.263 -0.5333  0.2592 -0.5254
 8893TIP3    H126643   4.006   2.375   0.198 -1.8231  1.2442 -1.5561
 8893TIP3    H226644   3.927   2.434   0.313 -1.2496  0.2002 -0.6038
 8894TIP3   OH226645   0.716   6.559   0.614  0.0769 -0.6446  0.4187
 8894TIP3    H126646   0.729   6.650   0.587  1.1655 -0.9639 -0.1813
 8894TIP3    H226647   0.743   6.557   0.706  0.2175 -0.4053  0.3832
 8895TIP3   OH226648   1.112   5.161   1.017  0.2755  0.4210 -0.6155
 8895TIP3    H126649   1.065   5.233   0.976  1.2154 -0.5126 -3.5824
 8895TIP3    H226650   1.204   5.180   1.000  0.5681 -1.1590 -0.9377
 8896TIP3   OH226651   6.617   6.573   3.393 -0.1113  0.0178 -0.4578
 8896TIP3    H126652   6.669   6.524   3.457  1.5194  1.3884 -0.6650
 8896TIP3    H226653   6.542   6.605   3.443  1.0707  0.9639  0.7791
 8897TIP3   OH226654   1.004   1.578   2.647 -0.1415  0.0028 -0.4668
 8897TIP3    H126655   1.031   1.522   2.720 -1.0929 -0.9546 -0.8053
 8897TIP3    H226656   0.929   1.627   2.682 -0.2196 -0.0151 -0.6083
 8898TIP3   OH226657   5.532   3.732   5.289 -0.2564 -0.1867  0.9816
 8898TIP3    H126658   5.546   3.688   5.205  1.8385  0.6954  0.7870
 8898TIP3    H226659   5.600   3.696   5.346  0.8879  1.9922  1.0990
 8899TIP3   OH226660   0.877   5.185   2.042 -0.3514  0.1288 -0.5077
 8899TIP3    H126661   0.786   5.162   2.059 -0.4604 -0.0103 -1.2331
 8899TIP3    H226662   0.920   5.181   2.128 -1.0928  0.5123 -0.1084
 8900TIP3   OH226663   1.203   4.435   3.644 -0.0533  0.6817 -0.1471
 8900TIP3    H126664   1.278   4.493   3.658  0.8262 -0.8283  1.8974
 8900TIP3    H226665   1.234   4.348   3.670 -2.2645 -0.1574 -0.0615
 8901TIP3   OH226666   0.038   6.236   4.033 -0.1453 -0.4459  0.3711
 8901TIP3    H126667  -0.040   6.280   3.999 -0.3729 -0.3068  1.0531
 8901TIP3    H226668   0.099   6.235   3.960  0.0538  1.4190  0.4726
 8902TIP3   OH226669   7.151   5.415   0.793  0.6007 -0.3130  0.0227
 8902TIP3    H126670   7.185   5.356   0.859  1.2984 -0.0639 -0.1096
 8902TIP3    H226671   7.061   5.385   0.778 -0.0835  0.5354  2.1339
 8903TIP3   OH226672   6.697   6.093   3.569  0.6298 -0.2480 -0.3256
 8903TIP3    H126673   6.763   6.041   3.614  1.5538  0.8248 -0.4026
 8903TIP3    H226674   6.725   6.095   3.478 -0.8809 -1.8534 -0.8986
 8904TIP3   OH226675   0.271   0.531   4.296  0.3676 -0.4058 -0.0255
 8904TIP3    H126676   0.305   0.465   4.357  2.1816  1.0736  0.6461
 8904TIP3    H226677   0.285   0.493   4.209 -0.7423 -1.8507  0.3938
 8905TIP3   OH226678   3.621   2.464   3.724 -0.2103  0.0965  0.5145
 8905TIP3    H126679   3.609   2.559   3.720 -0.4701  0.0794  0.7838
 8905TIP3    H226680   3.715   2.451   3.712 -0.3031  0.3192 -0.5005
 8906TIP3   OH226681   0.289   0.507   3.072  0.0084 -0.6864  0.1418
 8906TIP3    H126682   0.253   0.566   3.006  0.3218 -1.9920 -1.2465
 8906TIP3    H226683   0.245   0.533   3.153 -0.2482  1.0821 -0.5209
 8907TIP3   OH226684   1.168   3.404   2.167 -0.5225 -0.1322  0.3453
 8907TIP3    H126685   1.234   3.453   2.216  0.6278 -0.4193 -0.8681
 8907TIP3    H226686   1.143   3.333   2.226  0.8818 -0.5070  0.5267
 8908TIP3   OH226687   4.011   0.469   3.704 -0.1119  0.0065 -0.1382
 8908TIP3    H126688   3.940   0.501   3.761 -0.3483  0.8356 -0.8770
 8908TIP3    H226689   3.981   0.383   3.675 -0.3224 -0.1085  0.4049
 8909TIP3   OH226690   6.622   2.634   1.128  0.2280  0.2418  0.3527
 8909TIP3    H126691   6.668   2.633   1.211  1.5437 -1.0374 -0.3437
 8909TIP3    H226692   6.548   2.575   1.141 -1.3099  2.2910  1.4692
 8910TIP3   OH226693   2.877   6.691   5.352  0.0933 -0.0768  0.2803
 8910TIP3    H126694   2.871   6.716   5.260 -1.2591  0.5789  0.5168
 8910TIP3    H226695   2.912   6.602   5.351  0.1571 -0.0463 -0.8563
 8911TIP3   OH226696   1.360   3.744   1.214  0.5417 -0.0595  0.6056
 8911TIP3    H126697   1.278   3.744   1.264  0.9817 -1.4398  1.3766
 8911TIP3    H226698   1.389   3.836   1.216 -1.9399  0.8643 -1.3591
 8912TIP3   OH226699   5.199   4.372   5.874 -0.7282  0.2346  0.6933
 8912TIP3    H126700   5.139   4.301   5.850 -0.4934  0.0682  0.5934
 8912TIP3    H226701   5.143   4.438   5.913 -0.8662 -0.2800  1.3833
 8913TIP3   OH226702   6.774   6.510   0.530 -0.2424 -0.0820  0.0461
 8913TIP3    H126703   6.761   6.603   0.511 -0.5214 -0.1869 -0.2864
 8913TIP3    H226704   6.789   6.507   0.625 -2.9287  0.0426  0.5476
 8914TIP3   OH226705   6.776   4.909   5.324  0.0295 -0.2807  0.6415
 8914TIP3    H126706   6.764   4.918   5.230 -1.2180  0.4546  0.8581
 8914TIP3    H226707   6.753   4.818   5.343 -2.4430  0.2801  0.5990
 8915TIP3   OH226708   0.417   3.143   0.797 -0.4117  0.3650 -0.3638
 8915TIP3    H126709   0.376   3.186   0.722  1.2085 -0.4952 -1.8269
 8915TIP3    H226710   0.476   3.079   0.758  0.9319  0.2879  1.6452
 8916TIP3   OH226711   5.639   2.618   4.238  0.0349  0.5430  0.1505
 8916TIP3    H126712   5.680   2.612   4.324 -0.7114  0.9015  0.5438
 8916TIP3    H226713   5.598   2.705   4.237  0.0501  0.5518 -0.5726
 8917TIP3   OH226714   5.399   3.119   4.920  0.2452  0.4327  0.0641
 8917TIP3    H126715   5.431   3.179   4.853  2.4810  0.4274  1.0353
 8917TIP3    H226716   5.478   3.085   4.961 -1.0123  0.7570  2.9934
 8918TIP3   OH226717   3.167   0.967   3.888  0.2296  0.1718 -0.4004
 8918TIP3    H126718   3.195   1.039   3.832 -1.5240  1.8269  0.7045
 8918TIP3    H226719   3.196   0.993   3.976 -1.6045  0.2906  0.2259
 8919TIP3   OH226720   0.670   5.150   0.199  0.0567  0.2789  0.4468
 8919TIP3    H126721   0.713   5.109   0.124 -1.4214 -1.1276  0.3371
 8919TIP3    H226722   0.688   5.091   0.272 -0.4147  0.4747  0.7250
 8920TIP3   OH226723   6.318   1.237   3.942 -0.0638 -0.2258 -0.0815
 8920TIP3    H126724   6.265   1.299   3.892 -0.1099  0.3721  0.6806
 8920TIP3    H226725   6.268   1.222   4.022  1.1635  0.8379  0.9384
 8921TIP3   OH226726   2.932   4.807   2.620  0.9103 -0.2416 -0.9617
 8921TIP3    H126727   2.854   4.754   2.637  1.4631 -1.1780 -1.2422
 8921TIP3    H226728   2.979   4.758   2.552  1.1547  0.9205 -1.6480
 8922TIP3   OH226729   2.064   2.458   5.281 -0.0527 -0.2932 -0.3566
 8922TIP3    H126730   2.124   2.397   5.238  1.0251  0.4990 -0.0218
 8922TIP3    H226731   2.042   2.522   5.214 -0.2534 -0.3900 -0.3834
 8923TIP3   OH226732   2.617   4.086   1.301 -0.3008  0.3539  0.2295
 8923TIP3    H126733   2.558   4.039   1.242  1.2123  1.3410 -2.2585
 8923TIP3    H226734   2.638   4.167   1.255  0.3273  1.6156  2.5653
 8924TIP3   OH226735   0.623   1.904   3.561 -0.8104 -0.7956  0.0115
 8924TIP3    H126736   0.568   1.826   3.565 -0.6774 -0.9783 -1.2519
 8924TIP3    H226737   0.709   1.875   3.590 -0.4608 -1.4461 -1.5459
 8925TIP3   OH226738   6.985   4.614   1.744 -0.2505 -0.0398 -0.0871
 8925TIP3    H126739   7.046   4.651   1.807  1.0643 -0.4534 -1.0827
 8925TIP3    H226740   6.962   4.688   1.686  0.4062 -0.1930 -0.5511
 8926TIP3   OH226741   3.307   3.878   5.522 -0.4371  0.5818  0.8197
 8926TIP3    H126742   3.244   3.820   5.565  0.7038 -1.4187 -0.0499
 8926TIP3    H226743   3.325   3.835   5.438  2.0046  1.1227  0.9930
 8927TIP3   OH226744   7.030   1.188   2.083  0.2717 -0.3661  0.0143
 8927TIP3    H126745   6.993   1.265   2.039  1.6581 -0.5305 -1.5340
 8927TIP3    H226746   7.030   1.212   2.176 -1.1286  0.7056 -0.2173
 8928TIP3   OH226747   2.232   0.064   3.031  0.2764  0.0140 -0.0151
 8928TIP3    H126748   2.161   0.000   3.041  0.6427 -0.2891  0.8098
 8928TIP3    H226749   2.276   0.039   2.950 -0.2495 -0.1039 -0.2681
 8929TIP3   OH226750   5.148   1.758   3.721  0.3456  0.5990  0.0226
 8929TIP3    H126751   5.133   1.684   3.661 -1.3370  0.2375  0.8140
 8929TIP3    H226752   5.080   1.748   3.787  1.0064  2.0580  0.9577
 8930TIP3   OH226753   3.449   0.224   0.225 -0.7121 -0.2336 -0.0175
 8930TIP3    H126754   3.530   0.253   0.267 -1.2720  0.9131  0.2990
 8930TIP3    H226755   3.475   0.146   0.176  0.5278 -0.0431  0.2930
 8931TIP3   OH226756   1.291   1.115   0.961 -0.2393 -0.0678 -0.5682
 8931TIP3    H126757   1.231   1.128   0.888 -0.4213 -3.6408 -1.2541
 8931TIP3    H226758   1.266   1.181   1.025 -3.3215  0.0873 -1.7841
 8932TIP3   OH226759   4.664   5.477   0.498  0.5640  0.2256  0.3971
 8932TIP3    H126760   4.740   5.495   0.442  1.4189 -0.0198  1.4461
 8932TIP3    H226761   4.640   5.387   0.477  1.0912  0.0215  0.6570
 8933TIP3   OH226762   2.771   2.635   5.435 -0.5586 -0.5367 -0.2429
 8933TIP3    H126763   2.757   2.542   5.418  0.3020 -0.6868 -0.1732
 8933TIP3    H226764   2.730   2.650   5.520  2.0392 -1.6113  1.3304
 8934TIP3   OH226765   4.169   5.492   1.173  0.2665 -0.3845  0.1710
 8934TIP3    H126766   4.248   5.474   1.122  0.6733  2.3478 -0.2852
 8934TIP3    H226767   4.192   5.567   1.227 -1.5276 -0.5656  1.2540
 8935TIP3   OH226768   6.660   3.086   5.562 -0.3469 -0.3838 -0.3502
 8935TIP3    H126769   6.662   3.172   5.519  0.0993 -0.7427 -1.0573
 8935TIP3    H226770   6.693   3.025   5.496 -0.1527 -1.0237  0.3281
 8936TIP3   OH226771   0.909   1.423   3.669 -0.7085 -0.3107  0.0898
 8936TIP3    H126772   0.981   1.481   3.642 -1.3031 -0.3312 -1.7264
 8936TIP3    H226773   0.858   1.476   3.730 -0.7086  0.7667 -0.7980
 8937TIP3   OH226774   4.115   2.902   4.961 -0.4286 -0.2685 -0.2073
 8937TIP3    H126775   4.079   2.985   4.928 -0.6189  0.0218  0.7014
 8937TIP3    H226776   4.179   2.928   5.027 -0.3709 -0.8421 -0.0321
 8938TIP3   OH226777   0.063   2.196   2.739 -0.6333  0.8294  0.3424
 8938TIP3    H126778   0.149   2.216   2.701 -1.5677  0.5610 -2.0504
 8938TIP3    H226779   0.069   2.104   2.766 -0.5688  0.4158 -1.0370
 8939TIP3   OH226780   4.313   4.282   2.550 -0.0574  0.3036 -0.5827
 8939TIP3    H126781   4.409   4.282   2.556  0.1266 -1.8491 -2.2497
 8939TIP3    H226782   4.286   4.199   2.589 -0.8877 -0.7458 -3.1627
 8940TIP3   OH226783   1.868   5.639   0.130 -0.2061 -0.0266  0.6418
 8940TIP3    H126784   1.945   5.587   0.152  0.6857  1.3106  0.7701
 8940TIP3    H226785   1.798   5.601   0.183  0.6823 -0.3516  1.6317
 8941TIP3   OH226786   5.898   1.936   2.520 -0.2640 -0.1950  0.1492
 8941TIP3    H126787   5.894   1.885   2.600  2.0209 -3.8502 -1.7983
 8941TIP3    H226788   5.970   1.998   2.534 -1.0490  0.4340  1.4932
 8942TIP3   OH226789   1.587   6.592   4.375  0.2955  0.2445 -0.1496
 8942TIP3    H126790   1.603   6.635   4.459  1.2859 -1.4076  0.5581
 8942TIP3    H226791   1.546   6.509   4.398 -3.0273  1.3147 -1.5587
 8943TIP3   OH226792   0.988   3.983   0.249 -0.5090 -0.6099 -0.5561
 8943TIP3    H126793   1.009   3.933   0.171  0.8537  1.5525 -1.6538
 8943TIP3    H226794   0.965   4.070   0.217 -2.1582 -0.2552  1.3231
 8944TIP3   OH226795   1.877   4.455   2.823 -0.3390  0.2151 -0.2905
 8944TIP3    H126796   1.880   4.477   2.730 -1.7262  0.8567 -0.2078
 8944TIP3    H226797   1.791   4.485   2.852 -0.5211 -1.3111  0.8721
 8945TIP3   OH226798   7.237   3.332   1.940 -0.4098 -0.2013  0.3508
 8945TIP3    H126799   7.211   3.241   1.947 -2.0133  0.1692 -0.2632
 8945TIP3    H226800   7.156   3.381   1.950  0.6978  1.3059  2.8888
 8946TIP3   OH226801   1.970   6.475   0.486 -0.3161  0.1274  0.1512
 8946TIP3    H126802   1.954   6.416   0.560  0.7060  0.0422  0.3252
 8946TIP3    H226803   1.934   6.428   0.410 -0.3558 -0.3007  0.4278
 8947TIP3   OH226804   0.968   4.478   4.291 -0.1364  0.1801 -0.2217
 8947TIP3    H126805   0.915   4.426   4.353 -0.4281 -0.7185 -1.1903
 8947TIP3    H226806   1.058   4.449   4.307 -0.2207 -0.1138 -0.2657
 8948TIP3   OH226807   1.892   5.122   2.551  0.1467 -0.1369  0.6575
 8948TIP3    H126808   1.883   5.217   2.554 -0.1034 -0.1771  1.5042
 8948TIP3    H226809   1.819   5.093   2.496 -0.3577  0.1011  1.1849
 8949TIP3   OH226810   3.457   0.039   4.782  0.1385 -0.5230  0.4085
 8949TIP3    H126811   3.385   0.100   4.793 -0.7795 -1.7416  1.4566
 8949TIP3    H226812   3.533   0.082   4.821 -0.0121  0.7384 -0.6402
 8950TIP3   OH226813   4.041   3.757   4.361 -0.6401  0.0458 -0.0833
 8950TIP3    H126814   4.019   3.782   4.271 -0.6002 -1.9081 -0.6775
 8950TIP3    H226815   3.958   3.727   4.398 -0.5247  0.2212  0.3213
 8951TIP3   OH226816   1.011   5.921   0.322  0.2697 -0.4784 -0.1527
 8951TIP3    H126817   1.047   6.008   0.338 -0.2955 -0.0557 -1.1427
 8951TIP3    H226818   1.055   5.890   0.243 -1.9282  0.3130 -1.7710
 8952TIP3   OH226819   6.027   4.453   5.441  0.3161  0.1099  0.0908
 8952TIP3    H126820   6.099   4.506   5.407  0.8348  0.2089  1.2882
 8952TIP3    H226821   5.951   4.480   5.389  0.8910  0.8680 -0.3908
 8953TIP3   OH226822   1.051   6.091   4.060 -0.3927  0.4957 -0.3745
 8953TIP3    H126823   1.075   5.999   4.057 -1.2234  0.0720  2.6496
 8953TIP3    H226824   1.121   6.133   4.111 -0.4977  1.3722 -0.9188
 8954TIP3   OH226825   2.309   2.762   0.982  0.3661 -0.4037  0.0874
 8954TIP3    H126826   2.302   2.684   0.927 -1.5252 -1.2764  1.4481
 8954TIP3    H226827   2.403   2.773   0.996  0.7660 -1.3647 -1.5851
 8955TIP3   OH226828   4.479   1.638   4.519 -0.0512  0.0035  0.2650
 8955TIP3    H126829   4.524   1.582   4.582 -0.7150 -0.6004  0.2102
 8955TIP3    H226830   4.515   1.726   4.536  0.5988 -0.3391  0.7127
 8956TIP3   OH226831   4.476   6.311   3.803 -0.3979  0.0980  0.0156
 8956TIP3    H126832   4.495   6.378   3.737 -3.1183  0.0283 -0.9926
 8956TIP3    H226833   4.489   6.228   3.757 -0.9784  0.0250 -0.0226
 8957TIP3   OH226834   4.013   4.396   4.981  0.1686 -0.2176  0.3894
 8957TIP3    H126835   3.943   4.358   5.034 -0.2863 -0.0927 -0.1067
 8957TIP3    H226836   4.091   4.392   5.037 -0.3807  0.2725  1.2167
 8958TIP3   OH226837   2.619   5.218   4.226  0.1916  0.1245 -0.8132
 8958TIP3    H126838   2.595   5.132   4.261 -0.3114  0.9048  0.8563
 8958TIP3    H226839   2.541   5.248   4.180 -0.0052  0.1429 -0.4688
 8959TIP3   OH226840   2.193   2.290   4.518  0.1334  0.4825  0.3563
 8959TIP3    H126841   2.177   2.210   4.569 -0.9712 -0.5674 -1.5402
 8959TIP3    H226842   2.129   2.352   4.550 -0.4371 -0.1082  0.3770
 8960TIP3   OH226843   2.239   3.115   0.163  0.2064 -0.9088  0.1563
 8960TIP3    H126844   2.219   3.178   0.233  0.2249 -2.1376  1.3075
 8960TIP3    H226845   2.287   3.166   0.098 -0.4283  0.4337  0.7038
 8961TIP3   OH226846   2.150   4.095   4.392  0.4966  0.7428  0.0425
 8961TIP3    H126847   2.173   4.059   4.478 -1.2756  0.8628  0.5951
 8961TIP3    H226848   2.179   4.187   4.397 -2.7556  1.8235  1.9347
 8962TIP3   OH226849   1.003   2.130   2.097  0.7271  0.7504  0.7553
 8962TIP3    H126850   1.092   2.147   2.127 -0.0786  0.3562  3.7231
 8962TIP3    H226851   1.008   2.045   2.053  1.7041  0.3570  1.5849
 8963TIP3   OH226852   1.213   2.597   1.704 -0.0358  0.7123  0.1526
 8963TIP3    H126853   1.280   2.665   1.699 -0.0565  0.9754  2.4440
 8963TIP3    H226854   1.255   2.526   1.753 -1.2780  0.7306  1.3015
 8964TIP3   OH226855   7.182   4.656   3.535 -0.6342  0.4929 -0.2015
 8964TIP3    H126856   7.195   4.568   3.570 -0.8401  0.7225  0.4818
 8964TIP3    H226857   7.129   4.700   3.602 -0.4099  1.1782 -0.4665
 8965TIP3   OH226858   1.090   0.637   4.532  0.1047 -0.0162 -0.4165
 8965TIP3    H126859   1.074   0.701   4.461  2.6864  0.0471 -1.0533
 8965TIP3    H226860   1.069   0.552   4.493  0.7998  0.0865 -1.0342
 8966TIP3   OH226861   2.311   5.573   4.657  0.5864 -0.4587  0.0660
 8966TIP3    H126862   2.290   5.489   4.616  1.3016 -0.7612  0.3190
 8966TIP3    H226863   2.404   5.585   4.642  0.9101 -0.6552  1.7431
 8967TIP3   OH226864   5.292   0.680   0.574 -0.7968 -0.2246 -0.1069
 8967TIP3    H126865   5.366   0.688   0.635  1.1390  0.5361 -2.3616
 8967TIP3    H226866   5.244   0.762   0.584 -0.6302 -0.2025  0.5465
 8968TIP3   OH226867   3.178   3.080   4.905  0.0746  0.6246  0.5324
 8968TIP3    H126868   3.116   3.051   4.972  0.0072  0.5729  0.4484
 8968TIP3    H226869   3.259   3.034   4.926 -1.1724 -3.5412 -2.2891
 8969TIP3   OH226870   3.021   5.097   2.010 -0.0389 -0.4531 -0.9834
 8969TIP3    H126871   2.979   5.137   2.086  0.1872 -0.5154 -0.8248
 8969TIP3    H226872   3.114   5.119   2.019  0.0437 -0.7685 -1.0480
 8970TIP3   OH226873   0.204   1.542   2.022 -0.4808  0.1659 -0.0128
 8970TIP3    H126874   0.163   1.532   1.936 -1.4777  0.7962  0.3671
 8970TIP3    H226875   0.296   1.559   2.003 -0.8475  1.1832 -1.0122
 8971TIP3   OH226876   3.492   5.475   3.549  0.0070  0.6599 -0.3134
 8971TIP3    H126877   3.464   5.394   3.592 -0.8362  0.9411 -0.3105
 8971TIP3    H226878   3.586   5.465   3.537 -0.4287 -1.5173 -2.7794
 8972TIP3   OH226879   5.938   4.911   0.354 -0.3057  0.1752  0.4270
 8972TIP3    H126880   5.846   4.925   0.330  0.0960  0.5044 -1.0220
 8972TIP3    H226881   5.979   4.996   0.342  0.0645  0.2046  1.7641
 8973TIP3   OH226882   3.185   1.759   4.329 -0.2135  0.0231 -0.7424
 8973TIP3    H126883   3.130   1.836   4.315  1.1821  1.2307  0.1146
 8973TIP3    H226884   3.252   1.764   4.261  0.5072  0.1867 -0.0396
 8974TIP3   OH226885   5.059   2.361   5.018 -0.4345 -0.0124  0.0602
 8974TIP3    H126886   5.135   2.303   5.006  0.8537  1.6168 -0.0790
 8974TIP3    H226887   5.016   2.361   4.932  1.1147  1.2754 -0.7728
 8975TIP3   OH226888   4.876   6.471   0.855 -0.0799 -0.1008  0.3483
 8975TIP3    H126889   4.968   6.449   0.871  0.1531  0.8052  0.2795
 8975TIP3    H226890   4.839   6.480   0.943  0.2802  1.0887  0.3877
 8976TIP3   OH226891   1.592   1.285   4.701  0.5405  0.0544 -0.2257
 8976TIP3    H126892   1.669   1.250   4.656  0.2337 -0.5452 -0.2868
 8976TIP3    H226893   1.542   1.208   4.728 -0.5736  0.4217 -1.1133
 8977TIP3   OH226894   3.479   3.493   0.657  0.2367 -0.5491 -0.3483
 8977TIP3    H126895   3.445   3.424   0.600 -2.4037 -0.3705  0.8604
 8977TIP3    H226896   3.403   3.546   0.679  1.4038  0.2650  2.1501
 8978TIP3   OH226897   0.343   3.186   4.480  0.0920  0.1692 -0.4217
 8978TIP3    H126898   0.279   3.257   4.472  0.0789  0.1118 -0.8656
 8978TIP3    H226899   0.328   3.150   4.567 -0.3977  0.2401 -0.4713
 8979TIP3   OH226900   1.192   3.630   3.975 -0.0969  0.3517 -0.3881
 8979TIP3    H126901   1.158   3.709   3.933 -0.5771  0.7206  0.6686
 8979TIP3    H226902   1.258   3.661   4.036  0.5613 -0.1809 -0.8038
 8980TIP3   OH226903   0.985   2.614   3.073 -0.3723  0.1744  0.2714
 8980TIP3    H126904   0.938   2.651   3.147 -0.8728 -3.4912  2.0201
 8980TIP3    H226905   1.077   2.614   3.101 -0.7219 -2.7290  1.8512
 8981TIP3   OH226906   2.142   0.683   0.058  0.1595 -0.2928  0.6501
 8981TIP3    H126907   2.088   0.754   0.091  0.1406 -0.3259  0.6900
 8981TIP3    H226908   2.218   0.681   0.117  1.2177  1.0841 -0.5921
 8982TIP3   OH226909   2.290   4.047   4.094 -0.0709 -0.1765 -0.9016
 8982TIP3    H126910   2.221   3.985   4.071  0.6829 -0.8873 -1.2934
 8982TIP3    H226911   2.290   4.048   4.190 -0.4735 -0.3458 -0.8969
 8983TIP3   OH226912   2.918   4.330   2.688 -0.0012 -0.1915  0.5353
 8983TIP3    H126913   2.924   4.260   2.754 -0.1151 -1.3627 -0.6468
 8983TIP3    H226914   2.830   4.321   2.652 -0.0746  0.6881  0.4694
 8984TIP3   OH226915   1.867   3.700   2.087 -0.1237 -0.7820  0.2654
 8984TIP3    H126916   1.862   3.793   2.068 -0.6757 -1.3891 -3.2083
 8984TIP3    H226917   1.961   3.680   2.085 -0.0220 -0.3721  0.7550
 8985TIP3   OH226918   5.709   3.675   4.746  0.8874 -0.2128  0.1868
 8985TIP3    H126919   5.769   3.694   4.674  0.4479 -1.2312 -0.4778
 8985TIP3    H226920   5.713   3.580   4.756 -0.2070 -0.2491  0.4725
 8986TIP3   OH226921   1.980   4.841   4.558  0.5288 -0.0286  0.2167
 8986TIP3    H126922   1.954   4.751   4.578 -0.4736  0.7890  3.1182
 8986TIP3    H226923   1.897   4.888   4.548  1.0341  0.5755 -1.6555
 8987TIP3   OH226924   0.450   5.525   2.129 -0.1573  0.3719  0.0958
 8987TIP3    H126925   0.407   5.607   2.104 -0.3762 -0.6324 -3.3081
 8987TIP3    H226926   0.525   5.553   2.181 -1.7560  2.4995  1.4451
 8988TIP3   OH226927   3.672   3.489   2.492 -0.1000 -0.4063  0.4710
 8988TIP3    H126928   3.651   3.582   2.485 -0.2551 -0.4409  0.4610
 8988TIP3    H226929   3.698   3.463   2.404  0.9964 -0.1258  0.7008
 8989TIP3   OH226930   5.769   3.893   0.388 -0.1360 -0.2278 -0.0100
 8989TIP3    H126931   5.783   3.863   0.478 -1.5364  0.1029  0.3380
 8989TIP3    H226932   5.746   3.985   0.396  0.1070 -0.0998 -0.7390
 8990TIP3   OH226933   1.362   4.323   1.015 -0.1429  0.5278  0.0153
 8990TIP3    H126934   1.316   4.376   1.081 -0.3146  0.5749 -0.1399
 8990TIP3    H226935   1.440   4.374   0.994  0.2388  0.2072  0.6486
 8991TIP3   OH226936   4.099   4.839   0.390  0.8572  0.3310 -0.5667
 8991TIP3    H126937   4.012   4.860   0.354  0.2592  0.7970  1.0839
 8991TIP3    H226938   4.160   4.870   0.323 -0.2002  1.4717 -1.0447
 8992TIP3   OH226939   4.855   5.293   1.386 -0.2866  0.1033 -0.0298
 8992TIP3    H126940   4.793   5.313   1.316  1.3180  2.5398 -0.9218
 8992TIP3    H226941   4.915   5.229   1.347 -1.8714 -1.8838  0.6730
 8993TIP3   OH226942   3.127   0.803   3.156 -0.1800 -0.2862 -0.5350
 8993TIP3    H126943   3.077   0.852   3.090  0.0790  1.3197  0.4010
 8993TIP3    H226944   3.201   0.860   3.177  0.6755 -1.5162 -0.0617
 8994TIP3   OH226945   0.294   5.634   0.250 -0.4143 -0.0655  0.3584
 8994TIP3    H126946   0.231   5.705   0.246 -1.3804 -0.9007  0.3612
 8994TIP3    H226947   0.255   5.563   0.199  0.7514 -0.4342 -0.0662
 8995TIP3   OH226948   2.543   2.850   1.586 -0.5069 -0.0594 -0.0615
 8995TIP3    H126949   2.560   2.931   1.634 -0.8751  0.4190 -0.7236
 8995TIP3    H226950   2.459   2.819   1.620 -0.0501 -0.5217  0.6632
 8996TIP3   OH226951   5.010   4.710   1.853  0.0725  0.1931  0.3398
 8996TIP3    H126952   5.042   4.642   1.793 -0.6438 -0.6855  0.9215
 8996TIP3    H226953   5.078   4.718   1.919  0.3949  0.4209 -0.0169
 8997TIP3   OH226954   2.266   0.294   5.772  0.6372  0.2887  0.3510
 8997TIP3    H126955   2.272   0.207   5.733 -0.6524 -0.1750  1.1073
 8997TIP3    H226956   2.219   0.346   5.707 -2.8436 -0.8609  1.6953
 8998TIP3   OH226957   1.564   1.213   4.096 -0.2294  0.4758 -0.3999
 8998TIP3    H126958   1.535   1.170   4.016 -0.9224  1.3981 -0.6603
 8998TIP3    H226959   1.491   1.203   4.157  0.3371 -0.3203  0.1791
 8999TIP3   OH226960   0.622   2.490   3.089  0.2588  0.0235 -0.4272
 8999TIP3    H126961   0.605   2.529   3.003  1.4518 -0.9456 -1.1356
 8999TIP3    H226962   0.681   2.552   3.132  0.8257 -0.1940 -0.8877
 9000TIP3   OH226963   2.901   1.332   1.444  0.5921 -0.5641 -0.3261
 9000TIP3    H126964   2.888   1.424   1.421  0.9195  0.0473  1.7910
 9000TIP3    H226965   2.966   1.333   1.514 -0.2348 -2.3098  0.5326
 9001TIP3   OH226966   2.213   6.662   2.748 -0.1774  0.2175  0.0170
 9001TIP3    H126967   2.301   6.659   2.787 -0.2627  1.2153  0.3040
 9001TIP3    H226968   2.208   6.748   2.707 -1.2663  0.4395  0.5878
 9002TIP3   OH226969   2.201   0.381   0.822 -0.1103  0.1097  0.7461
 9002TIP3    H126970   2.200   0.470   0.787  0.7083 -0.4827 -0.8640
 9002TIP3    H226971   2.279   0.378   0.877  0.2576  0.1961  0.2372
 9003TIP3   OH226972   4.620   5.886   4.816  0.1118 -0.1751  0.2439
 9003TIP3    H126973   4.658   5.940   4.747  1.9101 -0.4468  0.9501
 9003TIP3    H226974   4.625   5.941   4.895 -3.5022  0.8043 -0.0368
 9004TIP3   OH226975   4.420   1.422   4.038  0.0615  0.2404  0.0329
 9004TIP3    H126976   4.369   1.493   3.999 -0.0085  0.1296 -0.0756
 9004TIP3    H226977   4.498   1.466   4.073 -1.0869  0.7460  2.1124
 9005TIP3   OH226978   1.329   2.714   0.027  0.2735  0.1770  0.1826
 9005TIP3    H126979   1.422   2.727   0.050  0.5969 -1.3551 -0.1058
 9005TIP3    H226980   1.281   2.760   0.096  1.2542  0.8855  0.4159
 9006TIP3   OH226981   5.023   0.783   3.718  0.8039 -0.7485 -0.7189
 9006TIP3    H126982   5.115   0.796   3.694  0.5804  0.7500 -0.8478
 9006TIP3    H226983   5.011   0.836   3.797  0.4820 -2.3692  0.3914
 9007TIP3   OH226984   6.733   1.959   5.295 -0.2880  0.8326 -0.5733
 9007TIP3    H126985   6.681   1.909   5.358  0.5490  0.5050 -0.1242
 9007TIP3    H226986   6.703   1.928   5.210  0.4273 -0.7143 -0.3108
 9008TIP3   OH226987   4.273   6.786   2.196 -0.6050 -0.5673  0.0513
 9008TIP3    H126988   4.335   6.718   2.170 -0.2241 -0.1952 -0.0440
 9008TIP3    H226989   4.316   6.829   2.271 -0.7384 -0.2963 -0.0265
 9009TIP3   OH226990   2.763   4.523   1.240  0.0552  0.0617  0.0073
 9009TIP3    H126991   2.790   4.466   1.312 -0.5577 -0.1610  0.0664
 9009TIP3    H226992   2.710   4.467   1.183 -0.0887  0.4279 -0.2234
 9010TIP3   OH226993   6.595   2.002   1.120  0.3547  0.2398  0.3222
 9010TIP3    H126994   6.552   1.933   1.171  0.7222 -1.0895 -1.0727
 9010TIP3    H226995   6.688   1.982   1.128  0.4945  0.8743  0.2927
 9011TIP3   OH226996   2.145   4.463   4.183 -0.4562  0.0840 -0.5521
 9011TIP3    H126997   2.225   4.514   4.199  0.6357 -1.3773 -1.1299
 9011TIP3    H226998   2.158   4.424   4.096 -2.1429  0.4035 -0.9870
 9012TIP3   OH226999   1.560   6.645   4.111  0.3270 -0.1832 -0.4852
 9012TIP3    H127000   1.637   6.687   4.071  1.7655 -2.0779  0.1319
 9012TIP3    H227001   1.567   6.666   4.204  0.7558 -1.2593 -0.2583
 9013TIP3   OH227002   4.793   4.492   1.912  0.0213 -0.2060  0.2140
 9013TIP3    H127003   4.862   4.439   1.951 -0.7914 -1.2513  0.2657
 9013TIP3    H227004   4.737   4.429   1.866 -0.4369  0.7142 -0.5178
 9014TIP3   OH227005   5.520   1.972   3.343  0.1101 -0.1120  0.5662
 9014TIP3    H127006   5.543   2.010   3.428  2.7903 -1.0556  0.3470
 9014TIP3    H227007   5.549   2.036   3.278  1.2203 -0.8233  0.3176
 9015TIP3   OH227008   5.659   3.468   2.546  0.3433 -1.2687  0.0140
 9015TIP3    H127009   5.602   3.448   2.621  2.6707 -1.6623  1.7958
 9015TIP3    H227010   5.603   3.517   2.486 -1.4036  0.0011  2.4872
 9016TIP3   OH227011   3.354   3.289   1.259  1.0362 -0.1293 -0.9396
 9016TIP3    H127012   3.266   3.327   1.253  0.8845 -0.2729  0.1579
 9016TIP3    H227013   3.409   3.360   1.293  1.1732 -0.2801 -0.8432
 9017TIP3   OH227014   4.590   3.370   3.410 -0.0213  0.1877 -0.6695
 9017TIP3    H127015   4.534   3.296   3.386  0.6839 -0.5721 -0.0305
 9017TIP3    H227016   4.578   3.433   3.339 -1.8130  0.1340 -0.4730
 9018TIP3   OH227017   4.142   2.768   4.689  0.3716  0.0398 -0.1054
 9018TIP3    H127018   4.215   2.706   4.697 -0.2801 -0.6221  1.2043
 9018TIP3    H227019   4.145   2.818   4.771 -0.4434  0.2047 -0.1687
 9019TIP3   OH227020   5.120   0.553   0.817  0.0132  0.4419 -0.3523
 9019TIP3    H127021   5.093   0.473   0.772 -2.0258  0.3938  0.8211
 9019TIP3    H227022   5.135   0.526   0.907 -0.3810  1.3108 -0.0108
 9020TIP3   OH227023   2.306   0.503   4.480  0.4640 -0.2265  0.9029
 9020TIP3    H127024   2.294   0.436   4.547  1.8297 -0.6934  0.7114
 9020TIP3    H227025   2.307   0.585   4.529 -2.7689 -0.1140  0.9932
 9021TIP3   OH227026   3.484   4.665   1.609  0.3734 -0.1407  0.3791
 9021TIP3    H127027   3.509   4.639   1.520 -0.3659  3.0770 -0.9141
 9021TIP3    H227028   3.431   4.592   1.641  1.3623 -1.7727 -1.4618
 9022TIP3   OH227029   3.954   5.032   2.289 -0.3439  1.0993  0.2436
 9022TIP3    H127030   3.962   5.022   2.384 -2.4194  2.0406  0.5672
 9022TIP3    H227031   4.043   5.017   2.256  0.3048  0.1270  2.2542
 9023TIP3   OH227032   3.466   6.227   2.398  0.0151  0.5937 -0.0533
 9023TIP3    H127033   3.438   6.240   2.488 -1.8752 -1.0457 -0.3308
 9023TIP3    H227034   3.397   6.173   2.359  0.4945  1.7002 -2.6479
 9024TIP3   OH227035  -0.015   0.678   3.233 -0.1519 -0.2804  0.4674
 9024TIP3    H127036   0.031   0.723   3.162  1.3877  0.6301  1.9894
 9024TIP3    H227037   0.048   0.616   3.268 -1.2914 -1.5765  0.3357
 9025TIP3   OH227038   1.343   4.677   0.096 -0.2753 -0.0905  0.0062
 9025TIP3    H127039   1.386   4.666   0.012  1.0040 -1.1633  0.7518
 9025TIP3    H227040   1.360   4.594   0.142 -2.2843 -0.1418  0.7337
 9026TIP3   OH227041   1.812   4.665   0.176  0.2314  0.3853  0.1380
 9026TIP3    H127042   1.907   4.674   0.189  0.0948  1.3793  0.5092
 9026TIP3    H227043   1.779   4.637   0.262  0.1573  0.2681  0.0713
 9027TIP3   OH227044   5.455   2.046   1.051  0.2920  0.0831  0.0891
 9027TIP3    H127045   5.426   2.027   1.140  1.5039  0.5182  0.5918
 9027TIP3    H227046   5.382   2.094   1.011 -0.1739  0.0607  0.9099
 9028TIP3   OH227047   4.272   3.474   3.988 -0.4584 -0.4111  0.0405
 9028TIP3    H127048   4.255   3.567   3.975 -2.0799 -0.6861 -0.0051
 9028TIP3    H227049   4.257   3.460   4.082 -0.5023 -0.6744 -0.0049
 9029TIP3   OH227050   0.896   1.837   4.888  0.3334  0.0423 -0.0878
 9029TIP3    H127051   0.969   1.876   4.938  0.2408  1.3904 -0.9575
 9029TIP3    H227052   0.939   1.780   4.825  0.5104 -0.7527  0.7237
 9030TIP3   OH227053   0.929   5.811   4.343  0.9856  0.1335 -0.2570
 9030TIP3    H127054   0.961   5.737   4.395  0.4927  0.8283  1.0601
 9030TIP3    H227055   0.989   5.814   4.268  0.1353 -2.5386 -1.1788
 9031TIP3   OH227056   5.027   1.720   2.380 -0.3208  0.0873  0.1410
 9031TIP3    H127057   5.071   1.693   2.461 -1.2078 -0.6695  0.4000
 9031TIP3    H227058   5.045   1.649   2.319 -0.6813  0.0503  0.0736
 9032TIP3   OH227059   0.354   6.375   4.272  0.1572  0.1696  0.3164
 9032TIP3    H127060   0.262   6.349   4.283 -0.1331  1.1793  0.3130
 9032TIP3    H227061   0.364   6.453   4.325  1.1283 -0.1505  0.6255
 9033TIP3   OH227062   1.688   2.339   3.644 -0.0168  0.6776  0.5589
 9033TIP3    H127063   1.686   2.318   3.738 -1.8498 -0.1965  0.3582
 9033TIP3    H227064   1.599   2.326   3.614  0.8430 -0.6615 -1.6668
 9034TIP3   OH227065   4.085   4.854   4.694 -0.0225  0.2060  0.3309
 9034TIP3    H127066   4.097   4.790   4.765  1.2850 -1.3504 -1.2209
 9034TIP3    H227067   3.990   4.853   4.678 -0.5664  1.6021  2.8779
 9035TIP3   OH227068   2.147   2.047   2.390  0.4465 -0.1558 -0.2751
 9035TIP3    H127069   2.187   2.032   2.304 -0.4612  0.0088 -0.7367
 9035TIP3    H227070   2.153   2.141   2.404 -0.6002  0.0062 -0.7800
 9036TIP3   OH227071   3.644   3.525   4.544  0.3406 -0.5128  0.1519
 9036TIP3    H127072   3.629   3.517   4.638 -2.1338 -1.4998 -0.2383
 9036TIP3    H227073   3.590   3.457   4.505  0.6617  0.3862 -2.0388
 9037TIP3   OH227074   7.044   5.956   5.775 -0.3657 -0.2471  0.0403
 9037TIP3    H127075   6.989   5.990   5.845 -0.4747 -2.3093  1.0143
 9037TIP3    H227076   7.127   6.002   5.785 -1.4920  2.1322 -0.7947
 9038TIP3   OH227077   5.146   0.842   2.981 -0.0832 -0.2780  0.8340
 9038TIP3    H127078   5.210   0.779   3.013  0.7304  0.1469  0.0610
 9038TIP3    H227079   5.167   0.924   3.027 -0.3237 -0.2308  0.8647
 9039TIP3   OH227080   0.894   5.653   2.114 -0.1836  0.1944  0.0238
 9039TIP3    H127081   0.880   5.584   2.179  3.5005  0.0962  0.9070
 9039TIP3    H227082   0.901   5.605   2.031 -0.7693 -0.1066  0.1372
 9040TIP3   OH227083   0.163   0.659   1.254  0.3480  0.0594 -0.3359
 9040TIP3    H127084   0.210   0.715   1.315  0.7970  1.2392 -1.7036
 9040TIP3    H227085   0.074   0.656   1.288  0.6858  0.3325  0.5980
 9041TIP3   OH227086   4.903   3.790   1.220 -0.2943 -0.3953 -0.4138
 9041TIP3    H127087   4.954   3.770   1.141  2.3468  0.4379  0.9728
 9041TIP3    H227088   4.826   3.837   1.187  0.6854 -0.1365 -2.5075
 9042TIP3   OH227089   2.984   2.006   0.920 -0.1063 -0.3186  0.9460
 9042TIP3    H127090   3.059   2.041   0.872 -0.9772  0.8734  0.4124
 9042TIP3    H227091   2.977   1.916   0.891  0.1037  0.0458 -0.2806
 9043TIP3   OH227092   4.762   3.703   2.586  0.5690 -0.6333 -0.0528
 9043TIP3    H127093   4.681   3.753   2.593  0.8681 -0.3213  1.4828
 9043TIP3    H227094   4.784   3.679   2.676  2.1546 -0.7460 -0.4303
 9044TIP3   OH227095   6.533   1.583   3.327  0.0730  0.1669 -0.0164
 9044TIP3    H127096   6.510   1.529   3.252 -0.8511 -1.5438  1.3994
 9044TIP3    H227097   6.508   1.672   3.303 -1.5192 -0.5652 -1.1968
 9045TIP3   OH227098   4.271   4.575   4.628 -0.0873 -0.1142  0.1456
 9045TIP3    H127099   4.193   4.576   4.683  0.3325 -0.3284  0.7583
 9045TIP3    H227100   4.292   4.482   4.619 -1.2159 -0.2270 -1.9347
 9046TIP3   OH227101   5.387   1.031   2.921  0.3142  0.1266 -0.7661
 9046TIP3    H127102   5.317   1.074   2.871  0.0287 -0.4774 -0.8926
 9046TIP3    H227103   5.462   1.090   2.911 -0.4489  1.3194  0.2385
 9047TIP3   OH227104   4.128   3.832   2.673 -0.0994  0.1966 -0.4843
 9047TIP3    H127105   4.178   3.762   2.716 -0.7306  0.8085  1.3325
 9047TIP3    H227106   4.067   3.786   2.616  0.1058 -0.6968 -0.0026
 9048TIP3   OH227107   1.838   5.140   4.621  0.1714  0.0203 -0.0986
 9048TIP3    H127108   1.803   5.179   4.701 -0.5874  0.3864 -0.5966
 9048TIP3    H227109   1.766   5.088   4.586  0.4259  0.0347 -0.6533
 9049TIP3   OH227110   3.449   2.588   3.444 -0.0917  0.4330  0.1668
 9049TIP3    H127111   3.480   2.498   3.437 -2.7219 -0.5398 -0.4709
 9049TIP3    H227112   3.474   2.629   3.361  0.7314  0.1764  0.2809
 9050TIP3   OH227113   1.421   0.366   4.073 -0.3381 -0.2654  0.5155
 9050TIP3    H127114   1.354   0.396   4.012 -0.6513  0.5392  1.2276
 9050TIP3    H227115   1.490   0.431   4.068 -1.6183  1.4773  3.0716
 9051TIP3   OH227116   3.587   5.409   3.245  0.1502 -0.3602  0.1901
 9051TIP3    H127117   3.544   5.408   3.330  0.9902 -0.1547  0.6170
 9051TIP3    H227118   3.548   5.334   3.198 -0.4120 -0.3897  0.6917
 9052TIP3   OH227119   4.948   5.995   1.437  0.1272 -0.4743  0.5859
 9052TIP3    H127120   4.971   5.951   1.355 -1.0090 -0.0948  0.0465
 9052TIP3    H227121   5.032   6.007   1.482  0.8731  0.0615 -0.8965
 9053TIP3   OH227122   5.146   5.079   5.206 -0.3545 -0.6976  0.1339
 9053TIP3    H127123   5.143   5.047   5.115 -1.3871 -0.0498 -0.0763
 9053TIP3    H227124   5.190   5.009   5.254  2.2015 -0.1728 -1.2008
 9054TIP3   OH227125   4.709   6.542   1.089 -0.7198  0.5557  0.0136
 9054TIP3    H127126   4.671   6.496   1.164 -0.8034  1.6943  0.6768
 9054TIP3    H227127   4.661   6.624   1.083 -0.7250  0.4838 -1.3116
 9055TIP3   OH227128   3.876   5.605   1.258  0.0690 -0.3199 -0.4916
 9055TIP3    H127129   3.840   5.660   1.327  0.1508 -2.0296  0.9832
 9055TIP3    H227130   3.928   5.664   1.205  0.7313  0.9155  1.4385
 9056TIP3   OH227131   6.590   5.264   2.841  0.0327  0.1973 -0.4456
 9056TIP3    H127132   6.514   5.231   2.793 -0.0142  0.8796 -0.8575
 9056TIP3    H227133   6.583   5.223   2.928  0.0254 -0.9112 -0.9533
 9057TIP3   OH227134   2.600   0.941   0.707  0.0790 -0.1428  0.0875
 9057TIP3    H127135   2.643   0.862   0.675 -0.6433 -0.1729 -0.8314
 9057TIP3    H227136   2.601   1.002   0.633 -1.0186  0.0273  0.1964
 9058TIP3   OH227137   0.768   3.197   4.265  0.2586  0.3458 -0.3055
 9058TIP3    H127138   0.714   3.129   4.224  0.9771 -0.4460  0.0234
 9058TIP3    H227139   0.729   3.208   4.352 -0.6896  1.3512 -0.8341
 9059TIP3   OH227140   1.747   0.420   1.577 -0.0205  0.2361 -0.3684
 9059TIP3    H127141   1.814   0.368   1.621  1.3764  1.6888 -0.6794
 9059TIP3    H227142   1.722   0.486   1.642 -0.2971  0.4127 -0.6522
 9060TIP3   OH227143   3.003   1.339   2.569  0.3019 -0.4918 -0.0572
 9060TIP3    H127144   3.008   1.427   2.530 -1.1133 -0.2642  0.2057
 9060TIP3    H227145   2.978   1.355   2.660 -1.1838 -1.1878 -0.3059
 9061TIP3   OH227146   0.361   5.303   2.291 -0.1498 -0.4263  0.7373
 9061TIP3    H127147   0.391   5.393   2.282 -1.0833  0.0293  1.9116
 9061TIP3    H227148   0.327   5.280   2.205 -1.7841  1.0747  0.9442
 9062TIP3   OH227149   1.912   5.342   4.973  0.0173 -0.1336  0.2117
 9062TIP3    H127150   1.892   5.280   5.043 -0.2485 -1.6456 -1.1376
 9062TIP3    H227151   1.998   5.316   4.942 -0.3015 -0.1626 -0.6876
 9063TIP3   OH227152   1.691   2.747   4.859 -0.1073 -0.0616  0.1085
 9063TIP3    H127153   1.733   2.693   4.926 -0.2086 -0.2604  0.0102
 9063TIP3    H227154   1.675   2.831   4.903 -2.1355 -0.8701  1.0196
 9064TIP3   OH227155   2.424   5.879   0.122  0.5894  0.5367  0.5551
 9064TIP3    H127156   2.488   5.829   0.173  0.1573 -0.1582  0.4273
 9064TIP3    H227157   2.474   5.914   0.048  1.0226  0.8017  0.9694
 9065TIP3   OH227158   1.962   1.759   0.667  0.5655  0.2670 -0.7104
 9065TIP3    H127159   1.928   1.840   0.629 -1.1264  1.1207  2.2097
 9065TIP3    H227160   1.887   1.724   0.716  2.6756 -0.0847  2.5670
 9066TIP3   OH227161   4.825   1.062   2.174  0.2561  0.0367  0.1271
 9066TIP3    H127162   4.856   1.006   2.103  0.1082 -0.3358  0.3507
 9066TIP3    H227163   4.798   1.001   2.242 -0.4107  0.3657  0.1691
 9067TIP3   OH227164   4.963   3.142   3.201  0.6278 -0.3099  0.1608
 9067TIP3    H127165   4.896   3.205   3.174  0.1490 -0.8768  0.0135
 9067TIP3    H227166   4.980   3.089   3.123  1.5062  0.0490  0.0946
 9068TIP3   OH227167   6.023   0.252   1.244  0.4763 -0.4801 -0.5828
 9068TIP3    H127168   6.112   0.284   1.256  0.2746  0.3084 -1.0929
 9068TIP3    H227169   5.991   0.299   1.167 -1.5007  1.7645  1.4408
 9069TIP3   OH227170   0.835   5.064   1.642 -0.0190 -0.4494  0.3602
 9069TIP3    H127171   0.745   5.055   1.675  0.4004 -2.7714  1.0272
 9069TIP3    H227172   0.836   5.012   1.561  0.3607  0.8728 -0.5281
 9070TIP3   OH227173   0.451   4.970   1.943  0.9122  0.2872 -0.2536
 9070TIP3    H127174   0.497   4.895   1.982  2.0864  1.9780  1.7863
 9070TIP3    H227175   0.362   4.938   1.929  2.4952 -3.3223 -4.8424
 9071TIP3   OH227176   4.229   2.003   3.409 -0.1068  1.1964 -0.1237
 9071TIP3    H127177   4.148   2.006   3.358 -0.3071 -0.1551  0.0678
 9071TIP3    H227178   4.259   1.912   3.402  1.1954  1.5790  0.1317
 9072TIP3   OH227179   0.969   0.775   2.386  0.1310  0.4565  0.1759
 9072TIP3    H127180   0.895   0.722   2.358 -0.1293  0.9310 -0.0353
 9072TIP3    H227181   1.000   0.819   2.307 -0.2427  1.3440  0.5069
 9073TIP3   OH227182   2.316   2.774   1.730  0.0284  0.8015  0.4857
 9073TIP3    H127183   2.324   2.815   1.816 -0.2336 -0.2384  1.0204
 9073TIP3    H227184   2.226   2.793   1.702  0.4694  2.1265 -0.0923
 9074TIP3   OH227185   0.355   4.333   2.488  0.0648 -0.2898  0.3320
 9074TIP3    H127186   0.292   4.396   2.524  1.3856  0.5066  1.3064
 9074TIP3    H227187   0.308   4.292   2.415 -1.2013  1.0623  0.3404
 9075TIP3   OH227188   3.288   2.518   3.190  0.5420 -0.3471  0.5263
 9075TIP3    H127189   3.266   2.501   3.099 -0.2803 -0.7706  0.7874
 9075TIP3    H227190   3.214   2.481   3.239  2.1093 -2.3819  1.5064
 9076TIP3   OH227191   3.073   3.854   3.701 -0.4198 -0.4839  0.4132
 9076TIP3    H127192   3.075   3.914   3.627  0.5514 -1.9162 -0.7764
 9076TIP3    H227193   3.008   3.788   3.677 -1.1431 -0.1817  1.4923
 9077TIP3   OH227194   4.873   6.648   1.423  0.0810  0.2497  0.0571
 9077TIP3    H127195   4.824   6.605   1.494 -0.6238 -0.7134 -0.9910
 9077TIP3    H227196   4.832   6.734   1.415 -1.4607 -0.5319 -0.7889
 9078TIP3   OH227197   4.166   1.346   0.947  0.0248  0.4063 -0.1517
 9078TIP3    H127198   4.250   1.388   0.933 -0.3783  1.2186 -0.1584
 9078TIP3    H227199   4.153   1.347   1.042  0.0684  0.1816 -0.1418
 9079TIP3   OH227200   6.528   4.619   5.296 -0.0367  0.3860 -0.0142
 9079TIP3    H127201   6.497   4.708   5.314  0.1913  0.7772 -1.4848
 9079TIP3    H227202   6.609   4.612   5.347  0.1907  1.1909 -0.2436
 9080TIP3   OH227203   3.230   0.244   4.288 -0.0264 -0.5891  0.1785
 9080TIP3    H127204   3.200   0.252   4.379  1.9250 -3.3740  1.1970
 9080TIP3    H227205   3.186   0.315   4.242 -2.9694 -0.4959  2.7969
 9081TIP3   OH227206   0.778   0.646   5.530  0.6368 -0.2371  0.2355
 9081TIP3    H127207   0.829   0.644   5.450 -0.4709 -0.4528 -0.4949
 9081TIP3    H227208   0.789   0.735   5.564  0.9927 -0.0988 -0.2398
 9082TIP3   OH227209   6.865   5.482   5.092  0.1845  0.0916  0.5577
 9082TIP3    H127210   6.903   5.566   5.068  2.3875 -1.0577 -0.2190
 9082TIP3    H227211   6.881   5.426   5.016 -0.6893 -1.2094  1.2911
 9083TIP3   OH227212   3.693   4.618   4.358  0.3612  0.8199  0.0844
 9083TIP3    H127213   3.731   4.588   4.275  0.2924  0.0909  0.3087
 9083TIP3    H227214   3.768   4.634   4.415  0.3688 -1.7384  0.9129
 9084TIP3   OH227215   6.244   2.958   1.103  0.2849 -0.3767  0.2779
 9084TIP3    H127216   6.336   2.932   1.102 -0.1052 -2.0714  2.0439
 9084TIP3    H227217   6.243   3.046   1.064  2.0707 -1.8327 -3.5404
 9085TIP3   OH227218   6.201   1.715   4.912  0.0891  0.0208 -0.1094
 9085TIP3    H127219   6.144   1.779   4.870 -0.4050 -0.8635 -0.8054
 9085TIP3    H227220   6.210   1.748   5.002 -1.3445  0.3019 -0.0328
 9086TIP3   OH227221   2.859   2.575   0.560  0.6132  0.0514  0.0820
 9086TIP3    H127222   2.826   2.555   0.472  0.4214 -0.8472  0.3450
 9086TIP3    H227223   2.944   2.531   0.564  2.4141  3.1097 -0.9194
 9087TIP3   OH227224   7.059   2.148   4.609 -0.0969 -0.3279  0.3314
 9087TIP3    H127225   7.104   2.232   4.601 -0.6466  0.0943  1.4298
 9087TIP3    H227226   7.126   2.082   4.593  0.4263  0.3207 -0.1492
 9088TIP3   OH227227   1.481   1.925   0.353 -0.5082 -0.6768 -0.1433
 9088TIP3    H127228   1.551   1.928   0.288 -0.7154 -2.7458 -0.5433
 9088TIP3    H227229   1.424   1.854   0.324 -2.2814  0.3405  0.6834
 9089TIP3   OH227230   6.075   0.605   2.278  0.2139 -0.3037  0.3106
 9089TIP3    H127231   6.031   0.529   2.238  0.0514 -0.7424  1.2918
 9089TIP3    H227232   6.159   0.610   2.231 -0.1595 -0.5100 -0.4059
 9090TIP3   OH227233   0.538   1.180   2.053 -0.1308 -0.2473 -0.1602
 9090TIP3    H127234   0.471   1.196   2.120  0.3515 -0.4157  0.3765
 9090TIP3    H227235   0.608   1.134   2.101  0.0319 -0.7621 -0.8776
 9091TIP3   OH227236   7.162   4.074   4.398  0.5427  0.1067 -0.2080
 9091TIP3    H127237   7.092   4.131   4.430  3.0299  1.3134  3.7837
 9091TIP3    H227238   7.192   4.115   4.317 -1.2529  1.3246 -0.3108
 9092TIP3   OH227239   6.377   2.439  -0.008  0.4880 -0.3897  0.0471
 9092TIP3    H127240   6.373   2.476   0.081 -1.9418  0.2167 -0.2493
 9092TIP3    H227241   6.411   2.510  -0.062  0.3250 -0.1696  0.2299
 9093TIP3   OH227242   1.178   1.443   0.828 -0.0123  0.1104 -0.3782
 9093TIP3    H127243   1.102   1.437   0.886 -0.3299 -1.0927 -0.8641
 9093TIP3    H227244   1.146   1.407   0.745  0.1969  2.4525 -1.5652
 9094TIP3   OH227245   1.163   4.453   2.739  0.2932  0.5729 -0.4419
 9094TIP3    H127246   1.204   4.417   2.661  1.8901  0.0978  0.5748
 9094TIP3    H227247   1.235   4.493   2.788 -0.3885 -0.4463  1.4994
 9095TIP3   OH227248   7.158   0.370   3.709  0.3322 -0.3490 -0.0807
 9095TIP3    H127249   7.208   0.362   3.790  1.0741 -0.5695 -0.5524
 9095TIP3    H227250   7.140   0.464   3.701 -0.7682 -0.4468  0.9304
 9096TIP3   OH227251   5.995   4.081   4.933  0.1619  0.1405  0.2053
 9096TIP3    H127252   6.053   4.137   4.882  1.1639 -0.1214  1.0256
 9096TIP3    H227253   5.911   4.086   4.887  0.5498  1.3345 -0.4302
 9097TIP3   OH227254   3.783   0.091   2.869  0.5363  0.0456 -0.2615
 9097TIP3    H127255   3.770   0.175   2.825 -1.1754 -1.1645 -2.2170
 9097TIP3    H227256   3.866   0.102   2.916  1.1626  2.2806 -1.7105
 9098TIP3   OH227257   5.461   0.390   0.985 -0.1432  0.3585 -0.0749
 9098TIP3    H127258   5.391   0.405   1.049  0.9412  1.1390  0.9946
 9098TIP3    H227259   5.537   0.366   1.039  0.5528  0.0886 -1.1585
 9099TIP3   OH227260   6.221   3.855   3.579 -0.2902  0.1504 -0.2557
 9099TIP3    H127261   6.209   3.932   3.525 -0.1840  0.3894  0.0596
 9099TIP3    H227262   6.225   3.782   3.517  0.8856  0.5275 -0.6362
 9100TIP3   OH227263   0.349   6.187   3.149  0.0548  0.6651  0.1528
 9100TIP3    H127264   0.417   6.253   3.158 -0.0134  0.7174  0.2780
 9100TIP3    H227265   0.300   6.190   3.231  0.2642  0.2204  0.3007
 9101TIP3   OH227266   4.833   2.353   5.385 -0.5164  0.0482  0.4738
 9101TIP3    H127267   4.800   2.384   5.301  1.1710 -1.2143 -0.7360
 9101TIP3    H227268   4.917   2.399   5.396 -0.1864 -0.6309  0.8818
 9102TIP3   OH227269   2.481   2.890   5.485  0.2191  0.1979  0.2799
 9102TIP3    H127270   2.478   2.831   5.410 -2.5820  1.5283 -0.8042
 9102TIP3    H227271   2.550   2.953   5.464  0.1916 -0.0831 -0.6946
 9103TIP3   OH227272   3.274   1.547   3.445  0.5167  0.0178  0.2546
 9103TIP3    H127273   3.317   1.471   3.404 -0.1054 -0.2993  0.1768
 9103TIP3    H227274   3.183   1.520   3.454  0.7189 -0.1156  2.3219
 9104TIP3   OH227275   0.454   2.957   2.250  0.2411  0.3696  0.3481
 9104TIP3    H127276   0.406   3.002   2.180 -1.7276 -0.4433  1.1174
 9104TIP3    H227277   0.420   2.868   2.249  0.8994  0.0744  1.7106
 9105TIP3   OH227278   4.770   6.630   1.874 -0.1977 -0.1809 -0.0894
 9105TIP3    H127279   4.766   6.537   1.849 -1.5461  0.2599 -1.6783
 9105TIP3    H227280   4.723   6.634   1.957 -1.2394 -0.7491 -0.6314
 9106TIP3   OH227281   6.811   1.265   3.440 -0.1530 -0.1385 -0.0909
 9106TIP3    H127282   6.866   1.340   3.415 -0.3832  0.0214 -0.1233
 9106TIP3    H227283   6.733   1.305   3.479 -1.3786 -0.2861 -2.2576
 9107TIP3   OH227284   5.450   6.805   4.680  0.2374  0.2841  0.0064
 9107TIP3    H127285   5.487   6.723   4.646  1.5733 -0.0796  2.1774
 9107TIP3    H227286   5.399   6.840   4.607  0.2222 -2.1102 -1.2254
 9108TIP3   OH227287   1.392   2.114   1.960  0.2046 -0.6735  0.5711
 9108TIP3    H127288   1.324   2.066   1.913 -1.6896  1.6391  0.7495
 9108TIP3    H227289   1.366   2.109   2.052 -0.6149  1.4023  0.5042
 9109TIP3   OH227290   2.872   3.134   5.505 -0.5297 -0.2246 -0.2200
 9109TIP3    H127291   2.914   3.078   5.570 -1.1592 -1.0057 -0.4746
 9109TIP3    H227292   2.837   3.074   5.440  0.6920  0.5611 -1.6849
 9110TIP3   OH227293   3.846   4.691   1.255 -0.0648  0.0405  0.4348
 9110TIP3    H127294   3.752   4.685   1.241 -0.0160  0.8602 -0.3367
 9110TIP3    H227295   3.858   4.667   1.347 -0.6936 -2.9254 -0.1315
 9111TIP3   OH227296   7.122   2.765   1.608  0.2679  0.2652 -0.1660
 9111TIP3    H127297   7.173   2.786   1.529  1.0049  0.6902  0.4103
 9111TIP3    H227298   7.033   2.794   1.587  0.5903  0.9546 -0.6047
 9112TIP3   OH227299   5.388   6.220   3.086 -0.3546 -0.3926  0.3757
 9112TIP3    H127300   5.375   6.229   2.992  2.2076 -0.8397 -0.0853
 9112TIP3    H227301   5.397   6.310   3.118 -1.6134 -0.2180  0.3141
 9113TIP3   OH227302   0.094   3.824   1.402 -0.2262 -0.0938 -0.4758
 9113TIP3    H127303   0.168   3.820   1.341  0.0291  0.9226 -0.2644
 9113TIP3    H227304   0.131   3.862   1.482 -0.9302  0.2383 -0.2994
 9114TIP3   OH227305   5.907   1.774   5.706  0.1178 -0.0387  0.0045
 9114TIP3    H127306   5.917   1.771   5.801 -1.7178 -1.0718  0.2255
 9114TIP3    H227307   5.851   1.850   5.690 -0.1467 -0.2673 -0.1739
 9115TIP3   OH227308   1.740   4.626   3.050 -0.0646  0.4449 -0.1990
 9115TIP3    H127309   1.661   4.600   3.098  0.4624  0.0139  0.4563
 9115TIP3    H227310   1.722   4.716   3.023 -1.0088  0.1687 -0.5559
 9116TIP3   OH227311   6.941   1.358   3.095 -0.1821  0.4529  0.6517
 9116TIP3    H127312   6.961   1.345   3.187 -0.7259 -1.3497  0.5713
 9116TIP3    H227313   7.025   1.375   3.053  0.3520 -0.6885  1.2159
 9117TIP3   OH227314   1.249   1.931   0.533  0.1205 -0.1499  0.1870
 9117TIP3    H127315   1.338   1.922   0.499  0.1518 -0.9766  0.4676
 9117TIP3    H227316   1.194   1.890   0.467  0.2665 -2.6203  1.4944
 9118TIP3   OH227317   7.007   2.646   5.427 -0.3786 -0.1034  0.3057
 9118TIP3    H127318   6.937   2.607   5.479  0.2971 -0.5385  0.8930
 9118TIP3    H227319   7.076   2.580   5.425  0.1232  0.4239 -0.0429
 9119TIP3   OH227320   3.516   5.046   0.061  0.1166  0.1555 -0.0803
 9119TIP3    H127321   3.436   5.081   0.024  0.5391 -0.2245 -1.4265
 9119TIP3    H227322   3.556   5.120   0.108 -2.1195 -0.2333  2.6760
 9120TIP3   OH227323   4.137   2.453   5.837 -0.0843  0.4805  0.3564
 9120TIP3    H127324   4.194   2.404   5.896 -1.1740  1.1884  2.0854
 9120TIP3    H227325   4.165   2.544   5.846 -0.8156  0.7065  0.4820
 9121TIP3   OH227326   3.909   6.252   2.969  0.1360  0.5151 -0.3030
 9121TIP3    H127327   3.913   6.305   3.048 -0.0299  0.2771 -0.1357
 9121TIP3    H227328   3.995   6.211   2.962  0.5526  1.4588 -0.8871
 9122TIP3   OH227329   2.237   4.711   0.515 -0.6589 -0.0034 -0.3086
 9122TIP3    H127330   2.232   4.798   0.556 -1.3711 -0.2319  0.1174
 9122TIP3    H227331   2.324   4.708   0.476 -0.4527  0.7305  0.0643
 9123TIP3   OH227332   6.218   3.452   4.649  0.2391  0.5722 -0.0114
 9123TIP3    H127333   6.185   3.484   4.566  0.4835 -1.0002 -0.7417
 9123TIP3    H227334   6.297   3.402   4.627 -0.8199 -1.6506  0.8656
 9124TIP3   OH227335   4.521   4.294   5.260  0.0941  0.1919 -0.0726
 9124TIP3    H127336   4.612   4.266   5.244 -0.1520 -0.7629  0.1169
 9124TIP3    H227337   4.522   4.326   5.350  0.3059  0.4348 -0.1619
 9125TIP3   OH227338   4.321   0.226   4.510  0.0503  0.1667 -0.0534
 9125TIP3    H127339   4.333   0.313   4.548  0.4454 -0.5848  1.6362
 9125TIP3    H227340   4.302   0.242   4.417  3.0343  1.9518 -0.4965
 9126TIP3   OH227341   5.297   5.106   2.263  0.4903 -0.1041  0.4105
 9126TIP3    H127342   5.326   5.152   2.342  3.0343 -2.1746  0.8456
 9126TIP3    H227343   5.338   5.020   2.270 -3.3432 -2.2513 -0.6913
 9127TIP3   OH227344   2.561   3.722   1.399  0.3315 -0.3519  0.3586
 9127TIP3    H127345   2.537   3.807   1.363  2.1699 -0.4562 -1.2566
 9127TIP3    H227346   2.638   3.740   1.453  0.0880 -0.8385  0.8753
 9128TIP3   OH227347   0.040   5.838   4.287  0.5630  0.1076  0.2883
 9128TIP3    H127348   0.116   5.858   4.232  0.8109  0.8157  0.8805
 9128TIP3    H227349   0.042   5.742   4.296  1.9175  0.1798  1.0277
 9129TIP3   OH227350   4.339   2.949   4.154 -0.3520  0.4795 -0.3730
 9129TIP3    H127351   4.392   3.015   4.109  0.7901 -0.9161 -1.1317
 9129TIP3    H227352   4.275   2.921   4.088  0.6492 -0.8083 -0.8313
 9130TIP3   OH227353   6.670   2.864   5.057 -0.2036 -0.0337 -0.2382
 9130TIP3    H127354   6.666   2.857   4.962  0.5950 -0.6316 -0.2303
 9130TIP3    H227355   6.725   2.940   5.074  2.3883 -1.8001 -0.2659
 9131TIP3   OH227356   2.971   1.608   0.386 -0.0729 -0.8997 -0.2228
 9131TIP3    H127357   2.935   1.651   0.308  1.8049 -0.2685 -0.7999
 9131TIP3    H227358   3.060   1.582   0.360  1.3665  1.0426  2.2260
 9132TIP3   OH227359   3.909   4.605   5.456 -0.3378 -0.3006 -0.1573
 9132TIP3    H127360   3.822   4.643   5.464 -0.4392 -0.6565  0.5521
 9132TIP3    H227361   3.925   4.565   5.542  0.1844 -0.9543 -0.5529
 9133TIP3   OH227362   2.014   3.230   0.918 -0.3293  0.7386 -0.1959
 9133TIP3    H127363   1.956   3.202   0.989 -1.6095 -0.0770 -1.5152
 9133TIP3    H227364   2.027   3.323   0.933 -0.3800  0.5319  1.2413
 9134TIP3   OH227365   2.584   5.957   2.135  0.6468 -0.5278 -0.3409
 9134TIP3    H127366   2.665   6.003   2.117 -0.4671  0.8920 -2.0882
 9134TIP3    H227367   2.572   5.899   2.061  0.0047 -0.6101 -0.1825
 9135TIP3   OH227368   0.845   1.509   5.084  0.6240 -0.1636 -0.2778
 9135TIP3    H127369   0.874   1.465   5.004  1.8341 -0.6124  0.3776
 9135TIP3    H227370   0.920   1.563   5.109  1.7410 -2.7270  2.4899
 9136TIP3   OH227371   2.383   5.255   2.022  0.3919 -0.6258  0.4015
 9136TIP3    H127372   2.290   5.231   2.021  0.0737  0.5285  0.8368
 9136TIP3    H227373   2.424   5.187   2.076 -0.3103 -0.7747  0.7641
 9137TIP3   OH227374   2.129   5.622   1.788 -1.2880  0.0862  0.2761
 9137TIP3    H127375   2.193   5.599   1.855 -0.4488 -0.2366 -0.6069
 9137TIP3    H227376   2.064   5.551   1.790 -0.2051 -0.9750 -0.5588
 9138TIP3   OH227377   5.464   0.882   1.435  0.0608 -0.6194  0.0108
 9138TIP3    H127378   5.473   0.934   1.515 -0.2776  0.0316 -0.3646
 9138TIP3    H227379   5.547   0.893   1.390 -0.4511  0.6829 -0.6874
 9139TIP3   OH227380   3.980   6.418   2.683  0.1384 -0.4465 -0.5062
 9139TIP3    H127381   4.024   6.355   2.626 -0.7477 -2.6539  1.0768
 9139TIP3    H227382   3.893   6.429   2.646 -0.1607 -1.2409 -0.0599
 9140TIP3   OH227383   6.532   5.008   0.215 -0.4424  0.6491  0.6043
 9140TIP3    H127384   6.600   4.959   0.261 -0.4896  0.0150  0.0211
 9140TIP3    H227385   6.451   4.982   0.257 -0.6038 -0.7634 -0.4812
 9141TIP3   OH227386   3.919   6.028   1.886 -0.2842 -0.3211  0.1551
 9141TIP3    H127387   3.824   6.014   1.882 -0.0896 -1.8646  0.2124
 9141TIP3    H227388   3.952   5.950   1.931  1.1115 -0.3194 -0.8236
 9142TIP3   OH227389   5.142   0.278   1.564 -0.4370 -0.0615 -0.4017
 9142TIP3    H127390   5.196   0.273   1.643 -0.9711  0.5522  0.0133
 9142TIP3    H227391   5.077   0.208   1.575  0.0761 -0.6091 -0.7641
 9143TIP3   OH227392   6.298   4.036   5.447  0.0468 -0.2232  0.3872
 9143TIP3    H127393   6.383   4.005   5.415 -0.6501 -2.5211  0.5975
 9143TIP3    H227394   6.282   4.115   5.396  2.0528 -0.0366 -0.0600
 9144TIP3   OH227395   3.841   6.721   3.139  0.2765  0.9415 -0.4121
 9144TIP3    H127396   3.895   6.669   3.078  0.0630 -0.2509  0.3801
 9144TIP3    H227397   3.813   6.796   3.087 -1.6167 -1.0400 -2.4920
 9145TIP3   OH227398   6.403   1.044   5.568  0.5369 -0.5803  0.0763
 9145TIP3    H127399   6.443   1.093   5.497  1.1936 -0.2080  0.6989
 9145TIP3    H227400   6.356   0.973   5.524 -1.6388  1.3530 -0.9688
 9146TIP3   OH227401   1.069   1.876   4.288 -0.5771 -0.0906 -0.6816
 9146TIP3    H127402   1.149   1.860   4.237  0.8997 -0.4637  1.6272
 9146TIP3    H227403   1.071   1.969   4.308 -1.5348  0.2053 -1.8202
 9147TIP3   OH227404   0.995   4.251   0.582 -0.7844 -0.4065  0.6657
 9147TIP3    H127405   1.071   4.244   0.639 -0.4693  0.3653  0.3439
 9147TIP3    H227406   0.932   4.303   0.633 -0.9095 -0.6118  0.7248
 9148TIP3   OH227407   1.261   1.700   2.823  0.7555 -0.0579 -0.7517
 9148TIP3    H127408   1.338   1.749   2.853  2.2720 -2.0517 -1.1698
 9148TIP3    H227409   1.293   1.646   2.751 -0.9481 -1.2365 -0.6952
 9149TIP3   OH227410   3.270   5.837   0.750  0.1674  0.2831  0.8204
 9149TIP3    H127411   3.209   5.813   0.820  0.7735 -0.0949  1.2280
 9149TIP3    H227412   3.258   5.769   0.684 -0.6848  0.8550  0.3717
 9150TIP3   OH227413   3.172   5.428   3.235  0.0911 -0.1525 -0.3066
 9150TIP3    H127414   3.222   5.501   3.273  1.0083 -0.2649 -1.2623
 9150TIP3    H227415   3.237   5.360   3.219 -0.1258  0.1418 -2.6801
 9151TIP3   OH227416   2.238   5.162   1.683  0.0203 -0.1649 -0.0187
 9151TIP3    H127417   2.284   5.236   1.723  1.2302 -0.6305 -0.4860
 9151TIP3    H227418   2.169   5.202   1.631  0.7135  0.6609 -0.3390
 9152TIP3   OH227419   0.129   2.447   4.984  0.4957 -0.0085  0.3984
 9152TIP3    H127420   0.045   2.401   4.989 -0.0570  0.9331  0.1221
 9152TIP3    H227421   0.170   2.413   4.905 -0.6460  1.1359 -0.7377
 9153TIP3   OH227422   5.648   3.123   5.049 -0.0277  0.3806 -0.3963
 9153TIP3    H127423   5.711   3.109   5.120  0.4124 -1.5311 -1.1170
 9153TIP3    H227424   5.679   3.067   4.978 -1.1302  1.3587 -1.6977
 9154TIP3   OH227425   3.977   0.719   5.236  0.0868 -0.1467 -0.1246
 9154TIP3    H127426   3.983   0.807   5.271  0.6701  0.1888 -1.0424
 9154TIP3    H227427   4.027   0.721   5.155 -0.9573 -0.9836 -0.8188
 9155TIP3   OH227428   6.540   4.364   5.225  0.2422 -0.0298 -0.6364
 9155TIP3    H127429   6.543   4.458   5.242 -0.1659  0.1337 -1.4182
 9155TIP3    H227430   6.510   4.326   5.307  1.2623  0.4322 -0.0331
 9156TIP3   OH227431   5.045   0.848   1.340  0.5599 -0.6320  0.3811
 9156TIP3    H127432   5.097   0.795   1.401  2.7725 -0.2337 -1.0230
 9156TIP3    H227433   5.099   0.925   1.325  0.2514 -0.8626 -2.2757
 9157TIP3   OH227434   0.294   2.318   5.140  0.4288 -0.4761  0.5578
 9157TIP3    H127435   0.280   2.228   5.109  1.3256 -0.5482  0.3288
 9157TIP3    H227436   0.233   2.371   5.090  1.1911 -0.7218 -0.6849
 9158TIP3   OH227437   0.255   2.967   1.298  0.1295  0.3951  0.3824
 9158TIP3    H127438   0.178   3.024   1.286 -0.3609 -0.2770  0.2840
 9158TIP3    H227439   0.301   2.973   1.214 -0.9884 -0.8964 -0.3562
 9159TIP3   OH227440   6.471   4.148   4.318 -0.7318 -0.0944 -0.2768
 9159TIP3    H127441   6.418   4.227   4.314  0.4811  0.6901 -1.5729
 9159TIP3    H227442   6.517   4.153   4.401 -2.0831 -0.4188  0.5197
 9160TIP3   OH227443   6.857   4.696   5.125  0.2341  0.1598  0.4792
 9160TIP3    H127444   6.809   4.771   5.088  0.3466  0.4289  0.8742
 9160TIP3    H227445   6.800   4.621   5.109 -0.1937  0.4363  0.6995
 9161TIP3   OH227446   2.486   5.351   5.457  0.3596  0.0726  0.3247
 9161TIP3    H127447   2.496   5.435   5.501 -1.8070  1.0388 -0.8358
 9161TIP3    H227448   2.438   5.296   5.519 -0.9787  0.7780 -0.0515
 9162TIP3   OH227449   6.065   6.001   5.585  0.0799 -0.1157 -0.1189
 9162TIP3    H127450   5.983   5.953   5.569  1.3234 -1.9713 -1.4565
 9162TIP3    H227451   6.104   5.957   5.660  0.3873 -0.0031 -0.2126
 9163TIP3   OH227452   0.575   1.893   0.060 -0.9190 -0.1628 -0.4464
 9163TIP3    H127453   0.522   1.873  -0.017 -0.5236  2.3363 -1.4726
 9163TIP3    H227454   0.566   1.987   0.072  3.7464  0.6264 -1.1388
 9164TIP3   OH227455   1.903   4.181   5.559  0.6173  0.0071 -0.0168
 9164TIP3    H127456   1.996   4.184   5.538  0.8141 -0.1752  0.7827
 9164TIP3    H227457   1.859   4.199   5.476  1.3780  1.1364 -0.1998
 9165TIP3   OH227458   0.511   2.196   0.038  0.2144  0.3399  0.0905
 9165TIP3    H127459   0.460   2.257  -0.015 -0.5213 -0.8690 -0.6416
 9165TIP3    H227460   0.470   2.199   0.124  0.7847  1.5648  0.3441
 9166TIP3   OH227461   1.211   1.209   5.662  0.3457 -0.0800  0.7573
 9166TIP3    H127462   1.297   1.201   5.622 -0.3020  0.5407 -0.8589
 9166TIP3    H227463   1.224   1.265   5.738  1.4963 -0.6464  0.9876
 9167TIP3   OH227464   5.372   6.047   5.340 -0.7335  0.6796 -0.1353
 9167TIP3    H127465   5.446   6.092   5.300 -0.0295 -0.4454 -0.1374
 9167TIP3    H227466   5.301   6.058   5.277 -0.2336  0.7472 -0.7002
 9168TIP3   OH227467   3.323   2.575   1.261  0.4435  0.1891  0.0054
 9168TIP3    H127468   3.374   2.655   1.277  1.9778 -1.0946  2.0797
 9168TIP3    H227469   3.232   2.603   1.266  0.8868  2.2077 -1.8086
 9169TIP3   OH227470   1.729   6.724   1.472 -0.2949 -0.1260 -0.4556
 9169TIP3    H127471   1.766   6.806   1.504 -1.0167 -0.2457  0.7504
 9169TIP3    H227472   1.709   6.741   1.380 -0.2841  1.0018 -0.2634
 9170TIP3   OH227473   3.204   6.481   1.215  0.3143 -0.1888  0.2652
 9170TIP3    H127474   3.139   6.463   1.283  2.0057 -3.7266  1.1889
 9170TIP3    H227475   3.165   6.446   1.135  0.1354 -0.1667  0.3416
 9171TIP3   OH227476   3.061   2.739   5.367  0.3812  0.5942  0.1842
 9171TIP3    H127477   3.131   2.702   5.313  0.4235  0.3403  0.4116
 9171TIP3    H227478   2.987   2.679   5.355  0.1869  0.8786 -0.0807
 9172TIP3   OH227479   3.529   3.801   1.694  0.0785 -0.5034  0.4803
 9172TIP3    H127480   3.474   3.879   1.698  1.2080  0.3537  0.0921
 9172TIP3    H227481   3.493   3.742   1.760 -1.7814 -0.3263 -0.3235
 9173TIP3   OH227482   4.328   4.644   1.554  0.0009 -0.3014  0.7883
 9173TIP3    H127483   4.373   4.632   1.638 -0.1949  0.0978  0.9522
 9173TIP3    H227484   4.354   4.568   1.502  2.5866  0.9295  0.1049
 9174TIP3   OH227485   4.766   6.127   0.813 -0.8253 -0.2516 -0.1018
 9174TIP3    H127486   4.805   6.183   0.880  0.6326 -0.4969 -0.7098
 9174TIP3    H227487   4.710   6.067   0.862 -1.4227  0.9054  0.6778
 9175TIP3   OH227488   4.081   6.188   2.530 -0.4964  0.2076  0.1733
 9175TIP3    H127489   4.016   6.129   2.491 -0.3554 -1.2500  1.9881
 9175TIP3    H227490   4.151   6.194   2.464 -0.9640 -0.8752 -0.4456
 9176TIP3   OH227491   0.647   5.927   2.954  0.1770  0.5280 -0.1316
 9176TIP3    H127492   0.668   5.916   2.861  1.5866  1.5734  0.0302
 9176TIP3    H227493   0.688   5.851   2.997 -0.5032  0.0280 -0.3572
 9177TIP3   OH227494   4.989   1.680   1.316  0.0136  0.0034  0.3653
 9177TIP3    H127495   5.077   1.667   1.351 -0.6807 -0.2372  2.1294
 9177TIP3    H227496   4.998   1.751   1.253  1.5869 -0.4994 -0.0110
 9178TIP3   OH227497   3.107   4.269   3.203  0.1914  0.1578 -0.7710
 9178TIP3    H127498   3.166   4.300   3.135 -0.5578 -1.1515 -2.0718
 9178TIP3    H227499   3.152   4.194   3.241  0.1885  0.3105 -0.4624
 9179TIP3   OH227500   2.597   3.636   5.168 -0.9412  0.3676  0.1497
 9179TIP3    H127501   2.512   3.670   5.140 -1.4876  0.4123  1.7623
 9179TIP3    H227502   2.633   3.705   5.224  0.2794  0.4484 -0.6924
 9180TIP3   OH227503   2.388   0.706   0.177 -0.3307  0.0294 -0.2546
 9180TIP3    H127504   2.456   0.663   0.230 -0.2869 -1.5685 -1.5279
 9180TIP3    H227505   2.435   0.749   0.107 -0.5975 -1.0205 -1.1002
 9181TIP3   OH227506   3.538   4.774   3.238  0.3449 -0.4979 -0.2393
 9181TIP3    H127507   3.609   4.792   3.176  0.1112 -1.2891 -0.7369
 9181TIP3    H227508   3.463   4.752   3.184  0.6010 -3.0077  0.2964
 9182TIP3   OH227509   4.342   4.509   4.924 -0.2760  0.0951 -0.1179
 9182TIP3    H127510   4.426   4.486   4.885  0.4417  2.0245  0.1902
 9182TIP3    H227511   4.322   4.435   4.982  1.2947 -0.3226 -0.0617
 9183TIP3   OH227512   1.956   1.934   5.686 -0.2511 -0.3998 -0.2850
 9183TIP3    H127513   2.049   1.953   5.675  0.1587 -0.9697  1.8447
 9183TIP3    H227514   1.913   1.994   5.625  1.5225 -1.0549 -2.3214
 9184TIP3   OH227515   0.210   4.352   2.032  0.5327 -0.4419 -0.4583
 9184TIP3    H127516   0.232   4.310   1.949  2.5215 -0.4186  0.0211
 9184TIP3    H227517   0.230   4.286   2.098  1.3361  0.3839  0.1465
 9185TIP3   OH227518   3.837   4.116   1.902 -0.0820 -0.0954  0.0692
 9185TIP3    H127519   3.823   4.033   1.857 -0.7957 -0.9342  1.7553
 9185TIP3    H227520   3.850   4.180   1.832 -0.4291 -1.4593 -1.2798
 9186TIP3   OH227521   1.482   3.655   3.473 -0.2361  0.2058  0.2388
 9186TIP3    H127522   1.442   3.697   3.397 -0.6873 -0.0663  0.3198
 9186TIP3    H227523   1.424   3.677   3.546 -1.0536 -1.3385  0.1206
 9187TIP3   OH227524   6.808   2.576   0.380 -0.3830  0.6113  0.1908
 9187TIP3    H127525   6.763   2.600   0.461 -0.9096 -1.4652  0.5589
 9187TIP3    H227526   6.901   2.576   0.404 -0.4304  1.3907  0.3977
 9188TIP3   OH227527   7.111   5.483   2.471 -0.0233 -0.4842  0.0235
 9188TIP3    H127528   7.134   5.428   2.396  1.4029  0.1472 -0.0413
 9188TIP3    H227529   7.159   5.565   2.456  0.0018 -0.2102  1.4357
 9189TIP3   OH227530   0.513   2.636   3.877  0.1598  0.2165  0.3685
 9189TIP3    H127531   0.576   2.632   3.949 -1.8668 -0.0477  2.2298
 9189TIP3    H227532   0.488   2.728   3.872  0.5491  0.2948 -0.2701
 9190TIP3   OH227533   2.796   1.399   1.028 -0.1799 -0.6205  0.1136
 9190TIP3    H127534   2.754   1.330   1.080 -1.2516  0.5428  0.8470
 9190TIP3    H227535   2.781   1.372   0.937 -1.9587 -0.5950  0.3683
 9191TIP3   OH227536   7.124   3.092   1.957  0.2601  0.4841 -0.3970
 9191TIP3    H127537   7.099   3.096   1.864 -2.2838 -0.9712  0.1356
 9191TIP3    H227538   7.055   3.041   1.998  1.8550  0.2321  2.1673
 9192TIP3   OH227539   5.379   1.873   5.369 -0.6210  0.1077  0.2968
 9192TIP3    H127540   5.319   1.808   5.332 -2.4922  1.2072  1.2453
 9192TIP3    H227541   5.325   1.951   5.381  0.8023  0.8990  2.0007
 9193TIP3   OH227542   6.292   2.836   4.903  0.5832  0.1158 -0.6231
 9193TIP3    H127543   6.312   2.930   4.900  0.9726  0.0207 -1.1272
 9193TIP3    H227544   6.287   2.810   4.811  2.4251 -0.7690 -0.5215
 9194TIP3   OH227545   4.294   0.870   0.667 -0.7405 -0.3701  0.0473
 9194TIP3    H127546   4.344   0.806   0.717  0.8823  1.1310  0.4216
 9194TIP3    H227547   4.255   0.927   0.733 -1.8046 -0.6642 -0.3016
 9195TIP3   OH227548   7.087   1.627   1.277  0.3282 -0.1021 -0.1887
 9195TIP3    H127549   7.086   1.664   1.189  0.6273  2.1867  0.6904
 9195TIP3    H227550   7.179   1.628   1.303  0.3558 -1.6160 -0.1477
 9196TIP3   OH227551   3.503   4.290   1.634  0.3548 -0.2964  0.3235
 9196TIP3    H127552   3.410   4.313   1.631  0.2692 -0.5543  0.7598
 9196TIP3    H227553   3.535   4.305   1.545  0.5715  2.5196  0.7892
 9197TIP3   OH227554   1.233   6.529   1.973  0.0908  0.3826 -0.1976
 9197TIP3    H127555   1.298   6.493   2.034 -0.4964  0.3197  0.3915
 9197TIP3    H227556   1.178   6.586   2.027  0.1291  1.0446 -0.8481
 9198TIP3   OH227557   1.262   4.645   1.898 -0.1534  0.0918  0.2772
 9198TIP3    H127558   1.268   4.595   1.817 -0.4529  1.1713 -0.4322
 9198TIP3    H227559   1.258   4.736   1.870 -1.6540  0.4322  1.4170
 9199TIP3   OH227560   2.078   3.861   4.032  0.2197 -0.1745  0.4296
 9199TIP3    H127561   2.087   3.770   4.058 -0.8016 -1.0365 -1.9343
 9199TIP3    H227562   1.987   3.869   4.003  0.7677  1.0817 -1.1294
 9200TIP3   OH227563   3.384   4.222   4.472 -0.5610 -0.2793 -0.1323
 9200TIP3    H127564   3.415   4.313   4.477 -2.1165  0.3094 -0.6571
 9200TIP3    H227565   3.428   4.186   4.394  0.7910 -0.3070  0.6046
 9201TIP3   OH227566   2.290   1.369   0.160  0.0621  0.3739  0.1332
 9201TIP3    H127567   2.228   1.442   0.159 -1.3265 -0.7721 -0.7231
 9201TIP3    H227568   2.332   1.373   0.074 -0.4502 -0.1872 -0.1456
 9202TIP3   OH227569   2.134   4.590   1.389 -0.0042 -0.0831  0.1928
 9202TIP3    H127570   2.177   4.514   1.350 -0.5938 -1.7475  2.5860
 9202TIP3    H227571   2.198   4.661   1.379  0.4640 -0.7673 -2.3296
 9203TIP3   OH227572   1.762   5.022   0.999 -0.1699 -0.0705 -0.5306
 9203TIP3    H127573   1.777   4.927   0.996 -0.6622 -0.3976  3.0134
 9203TIP3    H227574   1.835   5.060   0.950  1.9453 -2.1893  0.7882
 9204TIP3   OH227575   5.328   3.119   5.258  0.3382  0.1038 -0.5869
 9204TIP3    H127576   5.358   3.195   5.307  0.0286  0.5539 -1.0839
 9204TIP3    H227577   5.248   3.091   5.303 -0.4657  1.0802 -1.3542
 9205TIP3   OH227578   6.464   1.537   2.699 -0.3939 -0.8463  0.2411
 9205TIP3    H127579   6.555   1.542   2.729 -0.4559  0.8834  0.2324
 9205TIP3    H227580   6.469   1.563   2.607 -1.2058  2.4082  0.9871
 9206TIP3   OH227581   4.738   0.913   5.767  0.0913 -1.0179  0.2710
 9206TIP3    H127582   4.774   0.921   5.855 -0.5195 -0.3433  0.4740
 9206TIP3    H227583   4.738   1.003   5.733  1.0232 -1.3706 -0.7112
 9207TIP3   OH227584   1.305   0.325  -0.027  0.5037 -0.9048 -0.2511
 9207TIP3    H127585   1.321   0.374   0.053 -0.1823  0.4004 -0.8748
 9207TIP3    H227586   1.312   0.233  -0.001 -0.3024 -0.5283  1.4337
 9208TIP3   OH227587   2.224   5.693   0.346  0.0012  0.2595 -0.1478
 9208TIP3    H127588   2.269   5.748   0.410  0.8567 -0.1867 -0.3445
 9208TIP3    H227589   2.275   5.612   0.344 -1.6050 -0.8274  0.6114
 9209TIP3   OH227590   4.923   1.979   1.273  0.8626  0.6107  0.1726
 9209TIP3    H127591   4.949   1.952   1.185  0.2540  1.5417 -0.3158
 9209TIP3    H227592   4.836   2.018   1.262  2.0613  3.7230  0.5679
 9210TIP3   OH227593   6.464   2.693   2.286 -0.0223 -0.2290 -0.2259
 9210TIP3    H127594   6.377   2.734   2.286  0.4805  0.8574  0.0785
 9210TIP3    H227595   6.521   2.758   2.245  0.9378 -0.3093  0.9603
 9211TIP3   OH227596   4.371   6.038   3.965 -0.0712  0.1574 -0.2330
 9211TIP3    H127597   4.424   6.065   3.889  1.1077 -1.8085 -0.1567
 9211TIP3    H227598   4.281   6.049   3.935  0.3710 -0.1586 -1.7788
 9212TIP3   OH227599   3.620   4.130   3.615  0.3999 -0.5014 -0.2580
 9212TIP3    H127600   3.612   4.159   3.524  1.7236 -0.7395 -0.4755
 9212TIP3    H227601   3.708   4.157   3.641  0.1678 -0.7443  0.8481
 9213TIP3   OH227602   6.244   2.730   0.856  0.1154 -0.0046 -0.1855
 9213TIP3    H127603   6.157   2.730   0.896  0.5060  1.6930  0.7602
 9213TIP3    H227604   6.259   2.822   0.832  1.7063 -0.2389 -0.2008
 9214TIP3   OH227605   2.754   3.447   1.263  0.0584 -0.9262 -0.6804
 9214TIP3    H127606   2.682   3.412   1.211  0.0783 -2.2464  0.1410
 9214TIP3    H227607   2.725   3.439   1.353  0.8300 -0.5145 -0.3847
 9215TIP3   OH227608   3.817   4.106   1.558 -0.3524  0.8496 -0.2752
 9215TIP3    H127609   3.840   4.014   1.552  0.3931  1.0728 -0.9304
 9215TIP3    H227610   3.729   4.111   1.519 -1.1338  0.1672  1.3053
 9216TIP3   OH227611   3.821   0.876   4.050 -0.2131 -0.0949 -0.1333
 9216TIP3    H127612   3.912   0.877   4.020 -0.4089  1.6942 -0.8259
 9216TIP3    H227613   3.819   0.937   4.124 -0.6342 -1.0209  0.6352
 9217TIP3   OH227614   4.099   0.318   3.255  0.3713  0.4800 -0.0329
 9217TIP3    H127615   4.107   0.249   3.190 -1.5526  1.5433 -1.5103
 9217TIP3    H227616   4.188   0.332   3.288  1.2379 -0.7371 -1.7596
 9218TIP3   OH227617   1.061   5.001   5.807  0.1418  0.1685 -0.0717
 9218TIP3    H127618   1.034   4.986   5.897  0.0862  1.7633  0.1977
 9218TIP3    H227619   1.101   4.918   5.780 -1.6748 -1.0418  0.7181
 9219TIP3   OH227620   4.246   6.648   3.369 -0.0846 -0.1323  0.4717
 9219TIP3    H127621   4.215   6.701   3.442 -0.6546 -1.7826  1.5024
 9219TIP3    H227622   4.261   6.561   3.407  2.8854 -0.2345 -0.6545
 9220TIP3   OH227623   5.431   3.179   3.908  0.4573  0.6181 -0.4326
 9220TIP3    H127624   5.403   3.089   3.922  2.6608 -0.1691 -0.6613
 9220TIP3    H227625   5.424   3.192   3.813  1.7272  0.0607 -0.6303
 9221TIP3   OH227626   6.664   4.096   1.993 -0.3723  0.2598  0.0433
 9221TIP3    H127627   6.683   4.008   2.028 -1.9326 -0.3979 -0.6466
 9221TIP3    H227628   6.601   4.133   2.055 -1.4756 -0.0443 -0.8601
 9222TIP3   OH227629   2.411   2.771   3.013  0.0201  0.3435 -0.5488
 9222TIP3    H127630   2.499   2.789   2.980 -0.4300  3.0965 -0.4620
 9222TIP3    H227631   2.361   2.744   2.936  0.1648  2.0529 -1.2909
 9223TIP3   OH227632   0.183   0.496   4.698  0.2576 -0.6612  0.3206
 9223TIP3    H127633   0.261   0.448   4.725 -0.9849 -3.1789 -0.1906
 9223TIP3    H227634   0.147   0.444   4.626 -2.7317 -0.5200  1.5763
 9224TIP3   OH227635   3.508   4.825   2.490 -0.3242 -0.4535 -0.0555
 9224TIP3    H127636   3.567   4.829   2.566 -1.0293 -0.3879  0.4992
 9224TIP3    H227637   3.559   4.782   2.422  1.0194  1.2148 -0.1716
 9225TIP3   OH227638   0.895   0.306   1.378  0.5026  0.2285  0.3879
 9225TIP3    H127639   0.945   0.232   1.343  0.4510 -0.4696  1.6993
 9225TIP3    H227640   0.918   0.380   1.323  2.9685 -0.0824  0.8901
 9226TIP3   OH227641   3.231   1.505   2.499 -0.2793  0.2944 -0.2195
 9226TIP3    H127642   3.238   1.410   2.506 -0.0567  0.3168 -0.1376
 9226TIP3    H227643   3.246   1.524   2.406 -0.8547  0.2041 -0.3333
 9227TIP3   OH227644   3.092   1.383   3.136  0.4070  0.5434  0.6944
 9227TIP3    H127645   3.092   1.448   3.065  0.6319  1.3214  1.3905
 9227TIP3    H227646   3.012   1.400   3.185  0.7637  0.7070  1.2355
 9228TIP3   OH227647   2.669   1.716   1.985  0.5337  0.1304  0.1018
 9228TIP3    H127648   2.590   1.665   2.001  0.9935 -0.0568  2.0053
 9228TIP3    H227649   2.740   1.662   2.018  1.0929  1.7276  1.6482
 9229TIP3   OH227650   0.910   5.861   0.948  0.0606 -0.2171  0.3999
 9229TIP3    H127651   0.897   5.862   1.043  0.9661 -1.7222  0.5702
 9229TIP3    H227652   1.003   5.839   0.937  0.1966  0.8956 -0.8333
 9230TIP3   OH227653   6.460   1.948   2.963  0.0543 -0.1060 -0.2601
 9230TIP3    H127654   6.436   2.028   3.011 -0.6566  0.0001 -0.7807
 9230TIP3    H227655   6.489   1.980   2.878  0.4999 -0.3546 -0.2027
 9231TIP3   OH227656   2.988   5.509   3.932  0.6799  0.0083 -0.0358
 9231TIP3    H127657   2.938   5.587   3.955  1.0971  0.4729 -0.6581
 9231TIP3    H227658   3.065   5.543   3.886  0.8945 -0.7697 -0.2644
 9232TIP3   OH227659   4.421   5.485   2.829 -0.4046  0.0546  0.6563
 9232TIP3    H127660   4.499   5.539   2.819 -0.3908 -0.3857 -2.2300
 9232TIP3    H227661   4.349   5.549   2.837  0.0139  0.4519  1.3922
 9233TIP3   OH227662   5.188   6.265   5.792  0.4447  0.1246 -0.0438
 9233TIP3    H127663   5.114   6.302   5.743 -0.8251 -0.0493  1.6520
 9233TIP3    H227664   5.234   6.211   5.728 -1.4394 -0.5050 -0.9438
 9234TIP3   OH227665   5.276   6.522   5.322  0.1036 -0.0212  0.1299
 9234TIP3    H127666   5.311   6.518   5.412 -0.4060 -0.6548  0.3095
 9234TIP3    H227667   5.352   6.502   5.267  0.2463 -0.4570  0.4707
 9235TIP3   OH227668   2.297   6.115   0.554 -0.7132 -0.1597  0.5901
 9235TIP3    H127669   2.343   6.169   0.490 -0.6725  2.3154  2.5729
 9235TIP3    H227670   2.361   6.099   0.624 -1.0573 -1.9439  0.5583
 9236TIP3   OH227671   3.397   1.725   3.249 -0.3951  0.2743 -0.3458
 9236TIP3    H127672   3.374   1.645   3.202 -2.3754  1.7745 -2.1347
 9236TIP3    H227673   3.490   1.740   3.228  0.2193 -1.8817  0.6362
 9237TIP3   OH227674   2.893   6.754   4.446  1.1031  0.6001 -0.0230
 9237TIP3    H127675   2.919   6.671   4.405  0.6762  1.0467 -1.2613
 9237TIP3    H227676   2.909   6.820   4.378 -0.0438  1.3291  0.3835
 9238TIP3   OH227677   1.428   5.839   4.223  0.2563 -0.4880 -0.0011
 9238TIP3    H127678   1.486   5.793   4.283 -0.0739 -0.5685  0.2525
 9238TIP3    H227679   1.481   5.850   4.143  0.9860  0.3470  0.5755
 9239TIP3   OH227680   0.103   4.079   1.091  0.2223  0.1578 -0.1564
 9239TIP3    H127681   0.163   4.101   1.162  1.1957  0.1154 -0.9527
 9239TIP3    H227682   0.159   4.069   1.014 -0.5461 -2.0305 -0.4906
 9240TIP3   OH227683   1.740   6.093   5.581  0.1777  0.0346 -0.3088
 9240TIP3    H127684   1.826   6.084   5.623 -0.1991  0.1898  0.5282
 9240TIP3    H227685   1.682   6.119   5.652 -0.7426 -0.9312 -0.6825
 9241TIP3   OH227686   6.698   1.416   4.088  0.5254 -0.4379 -0.1572
 9241TIP3    H127687   6.703   1.427   3.993  1.3688  1.8397  0.0835
 9241TIP3    H227688   6.661   1.498   4.119  0.6887 -0.9766  1.5222
 9242TIP3   OH227689   5.015   5.483   5.361  0.1141 -0.3052 -0.5571
 9242TIP3    H127690   4.968   5.410   5.321  2.3371 -1.6410 -0.9329
 9242TIP3    H227691   5.002   5.556   5.301  1.4269 -1.6291 -2.5611
 9243TIP3   OH227692   3.122   5.440   2.034  0.3340  0.0688  0.0896
 9243TIP3    H127693   3.080   5.368   2.082 -0.0279 -0.3051 -0.7660
 9243TIP3    H227694   3.195   5.399   1.989  1.3658  0.6358  1.2123
 9244TIP3   OH227695   5.500   3.327   3.138 -0.4952 -0.3069 -0.3291
 9244TIP3    H127696   5.589   3.355   3.115 -0.5748 -1.9032 -3.1088
 9244TIP3    H227697   5.509   3.234   3.157 -1.5111 -0.4218 -0.3804
 9245TIP3   OH227698   3.627   1.912   5.409  0.6731  0.2951  0.1905
 9245TIP3    H127699   3.640   1.818   5.409 -0.0900  0.1805  1.0029
 9245TIP3    H227700   3.668   1.942   5.491  1.2591  0.7249 -0.2505
 9246TIP3   OH227701   5.602   0.556   4.797  0.4360 -0.0172  0.1409
 9246TIP3    H127702   5.584   0.486   4.859  2.0031 -1.6613 -1.1573
 9246TIP3    H227703   5.516   0.585   4.766 -0.2732 -0.5147  1.5739
 9247TIP3   OH227704   3.699   5.970   3.103 -0.7609  0.4416 -0.0993
 9247TIP3    H127705   3.705   5.980   3.198  0.3527 -1.2604  0.0506
 9247TIP3    H227706   3.783   6.002   3.070 -0.2587 -0.9973 -0.2819
 9248TIP3   OH227707   5.172   4.643   2.406  0.6549 -0.3488  0.0268
 9248TIP3    H127708   5.247   4.603   2.362  0.7694 -0.0499 -0.0500
 9248TIP3    H227709   5.187   4.627   2.499  0.6244 -0.6136 -0.0123
 9249TIP3   OH227710   0.375   0.965   5.544 -0.3243 -0.1953 -0.7644
 9249TIP3    H127711   0.371   0.878   5.584 -0.8484 -0.7379 -1.9541
 9249TIP3    H227712   0.363   0.949   5.451 -3.8211  1.4214 -0.7466
 9250TIP3   OH227713   4.876   1.450   4.511  0.4980  0.0197  0.6382
 9250TIP3    H127714   4.912   1.362   4.519  0.7167  0.1863  1.5845
 9250TIP3    H227715   4.938   1.496   4.454 -0.1495 -0.7031 -0.7002
 9251TIP3   OH227716   4.206   4.530   1.193  0.0288 -0.0302  0.0021
 9251TIP3    H127717   4.188   4.482   1.113  0.9815 -1.9286  0.8574
 9251TIP3    H227718   4.295   4.502   1.218 -0.0823  0.8412  1.4806
 9252TIP3   OH227719   2.678   4.162   5.275  0.0988 -0.3606 -0.2117
 9252TIP3    H127720   2.757   4.139   5.325  1.0497  0.3703 -1.3166
 9252TIP3    H227721   2.651   4.246   5.310 -1.2731 -1.3990  1.3743
 9253TIP3   OH227722   1.823   4.827   1.558  0.0261 -0.0700  0.8508
 9253TIP3    H127723   1.891   4.893   1.544 -0.6293  0.4612  0.0953
 9253TIP3    H227724   1.864   4.762   1.616  1.3526 -0.0483 -0.0294
 9254TIP3   OH227725   0.339   6.435   4.013 -0.0432  0.1538  0.0277
 9254TIP3    H127726   0.379   6.408   4.096  1.2003 -0.4120 -0.7350
 9254TIP3    H227727   0.321   6.354   3.967 -0.1759  0.4891 -0.5221
 9255TIP3   OH227728   6.878   2.852   1.546 -0.5863 -0.1848  0.5134
 9255TIP3    H127729   6.924   2.926   1.506  0.8439 -0.8323  0.8953
 9255TIP3    H227730   6.817   2.822   1.479 -1.1546  1.2695  0.3212
 9256TIP3   OH227731   5.245   2.792   2.941  0.2969  0.4463  0.4502
 9256TIP3    H127732   5.297   2.867   2.913 -0.0410  0.1146 -1.1578
 9256TIP3    H227733   5.305   2.718   2.937  0.0616  0.2783 -0.1540
 9257TIP3   OH227734   5.772   6.575   0.643  0.7227  0.6736 -0.4079
 9257TIP3    H127735   5.713   6.643   0.675  0.3921 -0.3678  1.3188
 9257TIP3    H227736   5.859   6.606   0.664  0.4712 -0.7341  3.3126
 9258TIP3   OH227737   5.942   3.326   0.530  0.6288 -0.0319  0.0863
 9258TIP3    H127738   5.890   3.395   0.571 -0.3394 -1.3155  1.0980
 9258TIP3    H227739   5.970   3.272   0.603 -0.2101 -1.7660 -0.8309
 9259TIP3   OH227740   4.037   6.125   0.105  0.1480  0.4069 -0.1860
 9259TIP3    H127741   4.124   6.102   0.137  0.5763 -2.0080 -2.7637
 9259TIP3    H227742   3.986   6.044   0.110 -0.5197  0.5686 -2.9632
 9260TIP3   OH227743   6.582   2.923   5.328 -0.9506  0.7839 -0.1478
 9260TIP3    H127744   6.595   2.871   5.249  1.6837  2.9058 -1.2529
 9260TIP3    H227745   6.507   2.979   5.307 -1.1874  0.3331 -0.5467
 9261TIP3   OH227746   3.691   4.292   0.042 -0.1006 -0.3758 -0.3206
 9261TIP3    H127747   3.606   4.337   0.038 -0.4498 -0.8960  0.8586
 9261TIP3    H227748   3.734   4.315  -0.041 -1.0273  0.6071 -0.5550
 9262TIP3   OH227749   1.925   5.052   3.083  0.6593  0.2690 -0.4065
 9262TIP3    H127750   1.971   5.130   3.113  1.1619 -0.6002  1.1708
 9262TIP3    H227751   1.995   4.993   3.054  0.4447 -0.4517  0.5196
 9263TIP3   OH227752   5.109   6.372   1.410 -0.1965  0.2357 -0.3119
 9263TIP3    H127753   5.172   6.444   1.418 -0.1817 -0.0121  3.1765
 9263TIP3    H227754   5.156   6.295   1.445 -0.5503 -1.3633 -3.0333
 9264TIP3   OH227755   6.573   0.531   1.481 -0.5562  0.5840 -0.1151
 9264TIP3    H127756   6.481   0.503   1.486 -0.0004 -1.2524  0.4940
 9264TIP3    H227757   6.623   0.455   1.511  1.3694  0.3964 -3.3359
 9265TIP3   OH227758   3.859   4.460   0.947  0.0540 -0.0125  0.2183
 9265TIP3    H127759   3.935   4.445   0.890  1.0162  1.4580  1.0386
 9265TIP3    H227760   3.860   4.554   0.963  0.6074 -0.4681  3.6475
 9266TIP3   OH227761   4.749   3.549   5.272  0.1496 -0.0901 -0.3401
 9266TIP3    H127762   4.825   3.607   5.269 -0.2047  0.3685 -2.6715
 9266TIP3    H227763   4.676   3.607   5.292  0.4088 -0.6448  2.6736
 9267TIP3   OH227764   6.519   2.002   1.481  0.1014 -0.0356 -0.0975
 9267TIP3    H127765   6.586   1.945   1.519  2.2972  1.4705 -1.4482
 9267TIP3    H227766   6.475   1.947   1.416  0.6423 -0.8085  0.1806
 9268TIP3   OH227767   6.530   0.021   4.354 -0.6145 -0.2332  0.5305
 9268TIP3    H127768   6.581   0.053   4.279  0.3550  0.1627  1.3262
 9268TIP3    H227769   6.442   0.055   4.339 -0.1811  0.7550  0.1015
 9269TIP3   OH227770   3.672   4.543   2.687 -0.1541  0.0593  0.5126
 9269TIP3    H127771   3.743   4.506   2.635  0.4079  0.8957  0.6703
 9269TIP3    H227772   3.594   4.529   2.634  0.1775 -0.5176  0.1595
 9270TIP3   OH227773   1.994   4.374   4.406  0.3957  0.0546  0.3592
 9270TIP3    H127774   1.934   4.355   4.333  0.1789 -2.1797  1.0405
 9270TIP3    H227775   2.076   4.397   4.363  0.2552 -1.1374 -0.6378
 9271TIP3   OH227776   1.105   4.181   5.464  0.3219 -0.8247 -0.0855
 9271TIP3    H127777   1.172   4.114   5.477  1.1570 -0.0283 -0.1869
 9271TIP3    H227778   1.117   4.210   5.374  0.3014 -0.1817  0.1123
 9272TIP3   OH227779   4.821   5.136   4.512  0.2323 -0.2120  0.0472
 9272TIP3    H127780   4.827   5.042   4.528 -0.2658 -0.0964  0.9460
 9272TIP3    H227781   4.894   5.173   4.562  0.0888 -0.0646  0.1458
 9273TIP3   OH227782   0.453   2.846   3.486 -0.8258 -0.3271  0.2731
 9273TIP3    H127783   0.399   2.848   3.565 -0.5331 -1.3279  0.5090
 9273TIP3    H227784   0.523   2.784   3.506 -1.2623 -1.3146 -1.0858
 9274TIP3   OH227785   2.865   4.029   1.913  0.5165  0.3340 -0.1602
 9274TIP3    H127786   2.786   3.994   1.955  0.1604 -0.2202 -1.2548
 9274TIP3    H227787   2.914   3.951   1.886  1.5944  0.6683  0.7617
 9275TIP3   OH227788   1.145   3.164   3.996  0.1743 -0.3462 -0.2723
 9275TIP3    H127789   1.207   3.092   3.987  0.3587 -0.1754 -0.3840
 9275TIP3    H227790   1.189   3.239   3.955  1.0812  0.4860  2.0302
 9276TIP3   OH227791   0.435   1.434   5.317 -0.4673 -0.3028  0.0060
 9276TIP3    H127792   0.529   1.447   5.308  0.0937  0.2537  4.3990
 9276TIP3    H227793   0.416   1.358   5.262  1.8095  1.3447 -3.4356
 9277TIP3   OH227794   6.707   0.985   4.390 -0.5818  0.0838 -0.7807
 9277TIP3    H127795   6.662   0.958   4.310 -1.0316  1.3068 -0.9594
 9277TIP3    H227796   6.766   0.912   4.410 -0.1515 -0.0599 -2.4527
 9278TIP3   OH227797   4.242   4.996   3.829  0.3880  0.5479  0.3553
 9278TIP3    H127798   4.264   5.065   3.767  2.6188  0.3545  0.8313
 9278TIP3    H227799   4.219   5.043   3.910 -2.9142  0.8153 -0.5871
 9279TIP3   OH227800   1.759   1.466   2.060 -0.0291 -0.4573  0.2722
 9279TIP3    H127801   1.775   1.547   2.109  0.8043  0.1641 -0.9739
 9279TIP3    H227802   1.674   1.480   2.018 -0.7806 -1.0202  1.5366
 9280TIP3   OH227803   4.123   4.946   2.870 -0.0412  0.6827  0.2375
 9280TIP3    H127804   4.048   4.975   2.923  0.7330  1.6864  0.8149
 9280TIP3    H227805   4.167   5.027   2.844  1.6378  0.0919  1.0914
 9281TIP3   OH227806   5.241   6.328   5.043  0.4108 -0.3192 -0.1239
 9281TIP3    H127807   5.181   6.343   5.116  1.4141 -0.6082  0.7939
 9281TIP3    H227808   5.191   6.351   4.965 -0.3476  1.0360  0.7270
 9282TIP3   OH227809   6.175   3.038   0.184 -0.2440  0.3481 -0.1892
 9282TIP3    H127810   6.143   3.115   0.231 -0.9439  0.4903 -0.8645
 9282TIP3    H227811   6.168   3.062   0.092 -1.8266 -1.0055 -0.4767
 9283TIP3   OH227812   5.927   4.000   0.963  0.0453 -0.1380  0.6224
 9283TIP3    H127813   5.984   4.060   0.915 -1.1306  1.0344  0.6318
 9283TIP3    H227814   5.981   3.969   1.036  0.5879  1.1665  0.8012
 9284TIP3   OH227815   6.658   2.434   4.652  0.1398 -0.5670  0.0564
 9284TIP3    H127816   6.612   2.395   4.578  0.2696 -1.0450  0.2234
 9284TIP3    H227817   6.740   2.384   4.659  0.5123  0.0245 -0.0022
 9285TIP3   OH227818   1.489   0.936   0.034 -0.4981 -0.1384  0.7191
 9285TIP3    H127819   1.483   1.025  -0.001  1.3594 -0.4182 -0.4343
 9285TIP3    H227820   1.416   0.889  -0.006 -0.1799  0.3182 -0.4403
 9286TIP3   OH227821   5.558   2.165   1.487 -0.1318  0.2674 -0.6162
 9286TIP3    H127822   5.639   2.214   1.501 -0.3431  0.3327  0.4068
 9286TIP3    H227823   5.533   2.186   1.397 -0.0552  1.7835 -0.2965
 9287TIP3   OH227824   5.409   0.613   5.453 -0.8399  0.4650 -0.2259
 9287TIP3    H127825   5.429   0.680   5.519 -1.1919  0.1545  0.1994
 9287TIP3    H227826   5.316   0.594   5.466 -1.0061  0.6671 -1.0611
 9288TIP3   OH227827   6.539   0.531   1.947  0.1795 -0.1216 -0.3638
 9288TIP3    H127828   6.612   0.562   2.001  0.0787 -1.6286  0.6958
 9288TIP3    H227829   6.515   0.606   1.894  2.1564  0.5739 -0.3537
 9289TIP3   OH227830   0.129   6.700   1.661  0.3683  0.1312 -0.6514
 9289TIP3    H127831   0.205   6.703   1.719  0.0938 -0.0712 -0.2690
 9289TIP3    H227832   0.150   6.633   1.597 -0.2555 -1.3223  0.5910
 9290TIP3   OH227833   5.759   5.250   0.551 -0.3882  0.1945 -0.0764
 9290TIP3    H127834   5.812   5.253   0.631  0.0628 -3.3546 -0.0832
 9290TIP3    H227835   5.688   5.191   0.571 -2.5671  2.2580 -1.1778
 9291TIP3   OH227836   6.249   1.376   3.365 -0.4209 -0.0404  0.0058
 9291TIP3    H127837   6.270   1.445   3.428 -1.8284  0.7548 -0.3700
 9291TIP3    H227838   6.168   1.404   3.324  0.2434 -0.7339 -1.8999
 9292TIP3   OH227839   2.382   0.384   1.888 -0.1917 -0.2988  0.1630
 9292TIP3    H127840   2.299   0.429   1.903 -1.0874 -0.9032 -2.4459
 9292TIP3    H227841   2.435   0.446   1.839 -1.1817 -1.6481 -2.8555
 9293TIP3   OH227842   0.693   6.144   4.471 -0.2987 -0.4068  0.2069
 9293TIP3    H127843   0.743   6.201   4.412 -0.1184 -0.2655  0.4949
 9293TIP3    H227844   0.711   6.055   4.440  1.6791 -0.5167  1.4542
 9294TIP3   OH227845   1.740   6.539   5.156  0.1269 -0.1457 -1.0321
 9294TIP3    H127846   1.727   6.610   5.093  3.0286  0.3671 -1.2086
 9294TIP3    H227847   1.776   6.583   5.233  0.9907 -1.3034 -0.7577
 9295TIP3   OH227848   4.267   4.873   1.985  0.3253  0.1248 -0.1353
 9295TIP3    H127849   4.247   4.879   2.079  1.2683  0.1051  0.0771
 9295TIP3    H227850   4.240   4.785   1.960  1.3740 -0.3864  0.4545
 9296TIP3   OH227851   3.576   5.684   1.475  0.1649  0.3092 -0.4026
 9296TIP3    H127852   3.511   5.621   1.444 -1.3592  1.9872 -0.7935
 9296TIP3    H227853   3.526   5.746   1.528  1.8698  0.3763  1.2525
 9297TIP3   OH227854   3.071   3.772   3.252  0.1699  0.5070 -0.3155
 9297TIP3    H127855   3.095   3.741   3.340  1.1705  0.6082 -0.5431
 9297TIP3    H227856   3.058   3.692   3.202  1.7538  0.4186 -0.6340
 9298TIP3   OH227857   4.946   0.071   1.624 -0.3446  0.1068 -0.6286
 9298TIP3    H127858   4.868   0.090   1.677  0.1323 -0.3699  0.2821
 9298TIP3    H227859   4.930  -0.017   1.590  0.3848 -0.5794  0.7200
 9299TIP3   OH227860   3.607   0.146   0.847 -0.5525 -0.0145  0.1942
 9299TIP3    H127861   3.677   0.091   0.882 -0.8143 -1.5464 -1.5435
 9299TIP3    H227862   3.653   0.218   0.803 -0.1338 -0.0439  0.5750
 9300TIP3   OH227863   0.529   1.968   1.493 -0.4950  0.1250 -0.0221
 9300TIP3    H127864   0.441   1.932   1.486  0.2976 -1.5790 -2.8678
 9300TIP3    H227865   0.536   2.000   1.583 -4.5114  1.7563 -0.1214
 9301TIP3   OH227866   0.109   2.322   4.568  0.0617 -0.1182 -0.0097
 9301TIP3    H127867   0.068   2.405   4.547 -0.3643 -0.8642 -2.4816
 9301TIP3    H227868   0.173   2.343   4.636 -0.5984  2.0444  0.0200
 9302TIP3   OH227869   0.873   6.288   4.748  0.3709 -0.1733 -0.1612
 9302TIP3    H127870   0.874   6.207   4.697  0.3428  0.4262 -1.1486
 9302TIP3    H227871   0.801   6.339   4.711 -1.3387 -0.7362  2.1749
 9303TIP3   OH227872   6.721   3.560   0.572  0.3950  0.2869  0.1064
 9303TIP3    H127873   6.671   3.526   0.498 -1.6227  0.6772  1.2037
 9303TIP3    H227874   6.806   3.516   0.566 -0.9788 -2.5718 -0.3382
 9304TIP3   OH227875   3.724   4.725   5.229 -0.1487  0.2905  0.1637
 9304TIP3    H127876   3.758   4.776   5.302  1.4545 -0.7438  0.2013
 9304TIP3    H227877   3.664   4.783   5.184  0.4928  1.6827  1.0494
 9305TIP3   OH227878   1.877   5.534   4.381 -0.3636 -0.7525 -0.0591
 9305TIP3    H127879   1.922   5.542   4.297 -0.0615  0.5320  0.2038
 9305TIP3    H227880   1.898   5.615   4.427 -2.9684 -0.0322  0.0384
 9306TIP3   OH227881   4.366   5.783   3.625  0.4115 -0.1232 -0.2276
 9306TIP3    H127882   4.272   5.785   3.643 -0.2032 -1.1103 -2.9738
 9306TIP3    H227883   4.393   5.693   3.645  0.4795 -0.2309 -0.8052
 9307TIP3   OH227884   4.525   0.075   3.209  0.3398  0.0675  0.3877
 9307TIP3    H127885   4.443   0.074   3.260  1.1417  0.7704  1.7578
 9307TIP3    H227886   4.589   0.032   3.266  0.6981 -1.6103 -1.1739
 9308TIP3   OH227887   3.725   0.481   0.462 -0.1267  0.5813 -0.3108
 9308TIP3    H127888   3.742   0.406   0.405 -0.5807 -0.0450  0.3643
 9308TIP3    H227889   3.633   0.503   0.445 -0.5350 -0.1773  0.8137
 9309TIP3   OH227890   6.481   3.864   3.374  0.1562  0.1009 -0.1696
 9309TIP3    H127891   6.410   3.802   3.387 -0.2756  0.6617  0.1812
 9309TIP3    H227892   6.443   3.933   3.320  0.1113  0.9421  0.9083
 9310TIP3   OH227893   4.091   5.230   1.233 -0.0305  0.0013 -0.4873
 9310TIP3    H127894   4.001   5.256   1.254  0.1692 -0.3264  0.8139
 9310TIP3    H227895   4.135   5.312   1.210 -0.1952  0.4219  0.6446
 9311TIP3   OH227896   7.020   0.696   3.846 -0.3330  0.0523 -0.0002
 9311TIP3    H127897   7.018   0.778   3.895 -2.5281  0.0949 -0.0964
 9311TIP3    H227898   7.082   0.712   3.775  0.5929  0.9953  0.9832
 9312TIP3   OH227899   0.713   5.555   4.453 -0.0770  0.2751 -0.3562
 9312TIP3    H127900   0.657   5.594   4.520  0.6365  0.4631  0.1415
 9312TIP3    H227901   0.652   5.519   4.389 -0.7703  1.4238 -0.3826
 9313TIP3   OH227902   2.787   2.049   1.598 -1.0318 -0.3612 -0.1033
 9313TIP3    H127903   2.745   2.130   1.625 -0.9446 -0.9653  2.0719
 9313TIP3    H227904   2.720   1.982   1.610 -1.2255 -0.5939 -2.2375
 9314TIP3   OH227905   0.009   3.360   2.438  0.4437  0.0981 -0.2229
 9314TIP3    H127906   0.092   3.315   2.425 -0.4669 -2.0443  0.8377
 9314TIP3    H227907  -0.053   3.291   2.460 -1.7999  1.5378 -1.5471
 9315TIP3   OH227908   1.765   4.990   4.885  0.1179 -0.0508  0.5897
 9315TIP3    H127909   1.806   5.076   4.879 -2.6884  1.3101 -0.9037
 9315TIP3    H227910   1.769   4.969   4.979  3.2757  0.3529  0.6340
 9316TIP3   OH227911   4.294   2.595   1.351 -0.2136 -0.4156 -0.4298
 9316TIP3    H127912   4.337   2.598   1.437  0.8116 -2.4522 -0.7943
 9316TIP3    H227913   4.206   2.629   1.367  0.1144 -0.2952  1.3263
 9317TIP3   OH227914   0.071   2.474   5.500  0.0034  0.4830 -0.0945
 9317TIP3    H127915   0.003   2.408   5.510  0.2198 -0.0385 -1.7524
 9317TIP3    H227916   0.134   2.455   5.570 -0.3688 -0.5436 -0.0285
 9318TIP3   OH227917   6.640   0.101   0.707  0.1434 -0.5098 -0.2128
 9318TIP3    H127918   6.706   0.065   0.648 -1.0624 -1.8803 -0.7903
 9318TIP3    H227919   6.556   0.076   0.668 -0.7078 -0.1723  1.3099
 9319TIP3   OH227920   0.658   2.171   5.428 -0.1621  0.3462  0.5250
 9319TIP3    H127921   0.572   2.127   5.424  0.4516 -0.9690  1.1051
 9319TIP3    H227922   0.714   2.119   5.370  0.6926  0.1072  1.5394
 9320TIP3   OH227923  -0.009   5.491   5.290  0.2044 -0.2031 -0.2565
 9320TIP3    H127924  -0.002   5.399   5.263  0.0350 -0.2600 -0.1121
 9320TIP3    H227925   0.064   5.535   5.246 -0.4605 -0.1591 -1.3378
 9321TIP3   OH227926   3.795   3.775   4.509 -0.1585 -0.1807 -0.0469
 9321TIP3    H127927   3.786   3.838   4.581 -0.0445 -0.2469  0.0259
 9321TIP3    H227928   3.730   3.708   4.528  1.5193 -1.5223  1.3788
 9322TIP3   OH227929   0.361   3.041   2.021 -0.6283 -0.3196 -0.0350
 9322TIP3    H127930   0.379   2.993   1.939  0.4994  0.5814 -0.3312
 9322TIP3    H227931   0.361   3.133   1.996 -0.9920 -0.0626  0.8637
 9323TIP3   OH227932   4.000   5.475   5.560  0.2459  0.5112  0.8046
 9323TIP3    H127933   4.048   5.394   5.542 -1.8556 -0.8023  0.7588
 9323TIP3    H227934   3.982   5.513   5.474 -1.3385 -0.6193  0.5770
 9324TIP3   OH227935   0.551   5.582   0.185 -0.2141  0.1942  0.2648
 9324TIP3    H127936   0.565   5.651   0.120 -0.3194 -0.6306 -0.6605
 9324TIP3    H227937   0.458   5.589   0.208 -0.5732 -0.5301 -0.8990
 9325TIP3   OH227938   2.174   3.605   4.084  0.6096 -0.0354  0.4021
 9325TIP3    H127939   2.225   3.635   4.159 -0.8486  0.5379  1.2013
 9325TIP3    H227940   2.235   3.608   4.010  2.2017 -1.0346  1.6279
 9326TIP3   OH227941   5.734   5.619   0.797  0.0913  0.6990  0.0242
 9326TIP3    H127942   5.788   5.698   0.795  0.2236  0.6024 -0.2136
 9326TIP3    H227943   5.647   5.647   0.769  0.6098  0.3866 -2.0816
 9327TIP3   OH227944   4.840   2.833   4.295 -0.0119  0.4207 -0.5032
 9327TIP3    H127945   4.751   2.866   4.292  0.2112  1.0655 -0.2531
 9327TIP3    H227946   4.875   2.866   4.378  0.3523 -0.1064 -0.4370
 9328TIP3   OH227947   5.617   6.250   3.561  0.1625 -0.2851  0.4819
 9328TIP3    H127948   5.631   6.248   3.466 -1.0367  0.4323  0.2669
 9328TIP3    H227949   5.666   6.327   3.590  0.3142 -0.3517  0.4023
 9329TIP3   OH227950   6.210   1.433   3.786  0.4532  0.5170  0.3920
 9329TIP3    H127951   6.260   1.496   3.734  0.4337  1.2167  1.2165
 9329TIP3    H227952   6.119   1.448   3.759  0.3803  1.2906  1.0566
 9330TIP3   OH227953   3.217   3.431   2.237  0.0954 -0.0337 -0.0688
 9330TIP3    H127954   3.179   3.498   2.295  0.4432  1.9345 -1.9713
 9330TIP3    H227955   3.148   3.414   2.172  0.3919 -0.7506 -0.2010
 9331TIP3   OH227956   3.401   5.761   5.159  0.6098 -0.1762 -0.3931
 9331TIP3    H127957   3.356   5.677   5.171  0.9115 -0.2079  0.5818
 9331TIP3    H227958   3.481   5.753   5.210  1.0131  0.4345 -0.9132
 9332TIP3   OH227959   6.279   4.373   3.915  0.0751  0.1052 -0.4171
 9332TIP3    H127960   6.204   4.327   3.878 -0.3091  1.5364 -1.5171
 9332TIP3    H227961   6.351   4.311   3.908 -0.9709 -1.2987  0.6499
 9333TIP3   OH227962   1.200   2.313   4.593  0.2727 -0.1341 -0.5559
 9333TIP3    H127963   1.274   2.259   4.567  1.4314 -0.3741  2.7271
 9333TIP3    H227964   1.234   2.403   4.593  0.2993 -0.1404  0.0696
 9334TIP3   OH227965   0.516   2.302   4.085  0.0648  0.3693 -0.5025
 9334TIP3    H127966   0.422   2.293   4.075  0.1922 -0.0994 -1.3813
 9334TIP3    H227967   0.543   2.220   4.128  0.0421  0.6099 -0.0268
 9335TIP3   OH227968   5.975   1.007   2.324  0.0788  0.0804 -0.8583
 9335TIP3    H127969   5.978   1.101   2.306  0.5885  0.0237 -1.0901
 9335TIP3    H227970   5.885   0.990   2.351  0.3806  0.9481  0.8692
 9336TIP3   OH227971   0.403   6.577   0.065 -0.0793 -0.3110  0.5912
 9336TIP3    H127972   0.485   6.625   0.078 -0.6468  0.8078  0.1628
 9336TIP3    H227973   0.385   6.586  -0.029 -0.4801 -0.8969  0.6096
 9337TIP3   OH227974   3.783   1.810   2.544  0.0042  0.3595 -0.4223
 9337TIP3    H127975   3.798   1.897   2.506  3.2185 -0.5537 -1.5248
 9337TIP3    H227976   3.834   1.750   2.489  0.1363 -1.8571  1.9381
 9338TIP3   OH227977   2.557   4.633   4.887  0.4358  0.3110 -0.1049
 9338TIP3    H127978   2.501   4.670   4.955  0.9588  1.0893 -0.0842
 9338TIP3    H227979   2.644   4.668   4.905  0.4021  1.3464 -1.7430
 9339TIP3   OH227980   0.582   2.046   0.800  0.5675  0.2886  0.3994
 9339TIP3    H127981   0.617   2.133   0.817  1.8748  0.3820 -2.2923
 9339TIP3    H227982   0.490   2.060   0.780  0.1122  0.6703  2.5202
 9340TIP3   OH227983   6.662   3.855   4.835 -0.1255  0.7017  0.1017
 9340TIP3    H127984   6.738   3.817   4.792 -0.2329  1.7725 -1.0980
 9340TIP3    H227985   6.618   3.782   4.877  1.0751 -0.0669  0.0576
 9341TIP3   OH227986   5.520   4.775   4.910 -0.1019 -0.0010 -0.0618
 9341TIP3    H127987   5.584   4.773   4.981 -1.4866 -0.5275  1.2393
 9341TIP3    H227988   5.528   4.863   4.873 -0.3167  0.8033  1.7082
 9342TIP3   OH227989   4.558   0.240   4.218  0.2032  0.0645  0.2727
 9342TIP3    H127990   4.585   0.323   4.256 -0.1588 -0.0109  0.7053
 9342TIP3    H227991   4.466   0.230   4.243 -0.0431  0.0063 -0.6220
 9343TIP3   OH227992   1.993   5.692   3.648 -0.5038  0.1203 -0.0137
 9343TIP3    H127993   2.073   5.653   3.683 -0.7742  0.1476  0.6485
 9343TIP3    H227994   1.933   5.696   3.723 -1.3846 -0.5662 -0.6627
 9344TIP3   OH227995   3.643   1.179   0.576 -0.0731  0.4910 -0.2878
 9344TIP3    H127996   3.559   1.204   0.537 -0.6278  0.4680  0.8194
 9344TIP3    H227997   3.699   1.256   0.564 -0.8141  1.1660  0.4494
 9345TIP3   OH227998   7.175   3.205   2.747 -0.4826 -0.0243 -0.5127
 9345TIP3    H127999   7.163   3.168   2.659 -0.0729 -0.1677 -0.5110
 9345TIP3    H228000   7.270   3.205   2.760 -0.5877 -1.0847  0.3926
 9346TIP3   OH228001   2.926   2.406   2.125 -0.3489  0.2437  0.4929
 9346TIP3    H128002   2.882   2.343   2.183 -0.2301 -0.7075 -0.4242
 9346TIP3    H228003   3.000   2.357   2.089 -1.1195  0.3973 -1.3987
 9347TIP3   OH228004   5.325   5.993   0.277 -0.1287  0.3549 -0.3679
 9347TIP3    H128005   5.244   6.013   0.323 -0.6493 -0.6551 -0.8295
 9347TIP3    H228006   5.300   5.932   0.208  0.7806  1.1764 -1.4596
 9348TIP3   OH228007   2.278   4.883   1.736 -0.1166  0.1431 -0.4509
 9348TIP3    H128008   2.364   4.897   1.775  0.0654 -1.3522 -0.2324
 9348TIP3    H228009   2.245   4.970   1.717  1.6137  0.7400 -0.8961
 9349TIP3   OH228010   1.849   0.334   5.711  0.2619 -0.1721  0.0307
 9349TIP3    H128011   1.829   0.291   5.795 -1.2393  1.4707  0.5790
 9349TIP3    H228012   1.900   0.411   5.735  1.8558 -0.9100 -0.8319
 9350TIP3   OH228013   6.741   1.302   3.816  0.0007 -0.3523  0.1511
 9350TIP3    H128014   6.722   1.315   3.723 -0.8747 -0.0831  0.3600
 9350TIP3    H228015   6.836   1.311   3.823 -0.1427  2.1433 -0.3301
 9351TIP3   OH228016   1.638   5.425   4.460 -0.4275 -0.2519  0.7425
 9351TIP3    H128017   1.620   5.493   4.525  0.6329  1.6076 -0.8310
 9351TIP3    H228018   1.723   5.448   4.423 -1.3023 -0.8062 -1.8307
 9352TIP3   OH228019   4.188   1.018   2.502 -0.1844 -0.0414  0.4025
 9352TIP3    H128020   4.207   0.925   2.489 -0.6865 -0.1591  0.4709
 9352TIP3    H228021   4.249   1.046   2.571 -1.1373 -0.7334  1.5773
 9353TIP3   OH228022   4.522   4.657   1.176 -0.2911 -0.1956 -0.0904
 9353TIP3    H128023   4.526   4.694   1.264 -2.1527 -0.7806  0.2758
 9353TIP3    H228024   4.489   4.728   1.121 -0.2095 -0.1721 -0.1093
 9354TIP3   OH228025   2.543   5.596   5.593  0.4401  0.2135 -0.7531
 9354TIP3    H128026   2.510   5.665   5.536 -0.2470  1.3661  0.9455
 9354TIP3    H228027   2.600   5.641   5.656  0.1206 -0.7632  0.2816
 9355TIP3   OH228028   4.602   3.962   1.667  0.0889  0.2261 -0.4038
 9355TIP3    H128029   4.666   4.010   1.614  1.3382 -0.8704  0.0491
 9355TIP3    H228030   4.646   3.948   1.751 -1.1014  0.2240  0.2430
 9356TIP3   OH228031   3.416   6.755   2.250 -0.0453 -0.3552  0.4631
 9356TIP3    H128032   3.379   6.841   2.231 -0.2879 -0.8035 -1.2111
 9356TIP3    H228033   3.342   6.703   2.283 -0.4154 -0.5467 -0.6204
 9357TIP3   OH228034   7.069   4.886   2.793  0.0353  0.0913 -0.0174
 9357TIP3    H128035   7.154   4.860   2.829  0.9858  2.4210 -0.3603
 9357TIP3    H228036   7.038   4.809   2.747  2.9485 -0.2847 -1.6093
 9358TIP3   OH228037   3.337   5.540   5.633 -0.1928 -0.2111 -0.2492
 9358TIP3    H128038   3.315   5.556   5.541 -0.3031 -0.1956 -0.2201
 9358TIP3    H228039   3.262   5.490   5.667  0.8230 -2.1959 -0.7542
 9359TIP3   OH228040   6.381   0.224   2.729 -0.2714 -0.0573 -0.0239
 9359TIP3    H128041   6.455   0.282   2.711 -0.6320  0.2184 -0.6334
 9359TIP3    H228042   6.413   0.166   2.798  0.0137  1.0383  0.7974
 9360TIP3   OH228043   2.689   4.579   3.717  0.3134 -0.3735  0.0829
 9360TIP3    H128044   2.710   4.538   3.800  0.6420  1.3380  0.8865
 9360TIP3    H228045   2.762   4.639   3.700  0.1792 -0.5645 -1.3670
 9361TIP3   OH228046   6.244   5.931   3.531 -0.2062  0.1762  0.2772
 9361TIP3    H128047   6.180   5.960   3.596 -0.0291  1.7469 -0.1993
 9361TIP3    H228048   6.323   5.982   3.552 -0.7973  2.4487 -2.4530
 9362TIP3   OH228049   1.673   4.753   0.597 -0.0108  0.1355 -0.1617
 9362TIP3    H128050   1.685   4.820   0.665  0.6411  0.8479 -0.9570
 9362TIP3    H228051   1.619   4.796   0.531 -0.8955 -0.6585  0.0459
 9363TIP3   OH228052   3.545   1.967   0.893  0.0091  0.4864 -0.1152
 9363TIP3    H128053   3.458   1.999   0.918  0.0141 -0.8744  1.9833
 9363TIP3    H228054   3.603   2.002   0.961  0.8818  0.2953 -0.7513
 9364TIP3   OH228055   2.599   6.664   3.744 -0.5923  0.0379 -0.1546
 9364TIP3    H128056   2.515   6.705   3.723  0.6431  1.2515 -3.4235
 9364TIP3    H228057   2.608   6.594   3.680 -0.0654 -1.6417  1.6604
 9365TIP3   OH228058   0.189   0.284   2.885 -0.5004 -0.2833  0.7477
 9365TIP3    H128059   0.097   0.305   2.903 -0.2401  1.8669 -0.0274
 9365TIP3    H228060   0.239   0.343   2.942  0.3197  0.9981 -1.1422
 9366TIP3   OH228061   1.263   2.258   5.606  0.5018  0.1675 -0.0928
 9366TIP3    H128062   1.184   2.218   5.571 -0.3395 -0.5543  2.4139
 9366TIP3    H228063   1.250   2.352   5.594 -0.1257 -0.0157 -0.8828
 9367TIP3   OH228064   5.858   6.519   1.753  0.2308 -0.5805 -0.4421
 9367TIP3    H128065   5.799   6.518   1.677  0.9358 -0.3660 -1.0021
 9367TIP3    H228066   5.807   6.477   1.823 -1.4541  1.6063 -0.2486
 9368TIP3   OH228067   5.792   0.571   3.797  0.5408  0.0454 -0.2286
 9368TIP3    H128068   5.842   0.584   3.716  0.4447 -0.5215 -0.3819
 9368TIP3    H228069   5.846   0.513   3.850 -0.2374 -1.0995 -0.6633
 9369TIP3   OH228070   1.026   2.999   1.690 -0.0317  0.3964  0.6421
 9369TIP3    H128071   0.991   2.922   1.645 -0.1134  0.2780  0.9056
 9369TIP3    H228072   1.104   2.967   1.734  2.1867  1.2886 -2.3569
 9370TIP3   OH228073   1.803   5.875   2.556  0.1378 -0.4647  0.0086
 9370TIP3    H128074   1.782   5.953   2.607  1.6059 -1.1553  1.7848
 9370TIP3    H228075   1.747   5.807   2.593  1.7533 -1.1501  1.3671
 9371TIP3   OH228076   6.829   4.237   1.300  0.0244  0.2323 -0.1449
 9371TIP3    H128077   6.831   4.325   1.262  0.6562  0.5536  0.5953
 9371TIP3    H228078   6.844   4.178   1.226 -2.4796  0.5884 -1.0162
 9372TIP3   OH228079   1.878   3.132   1.166 -0.0228 -0.3758 -0.0216
 9372TIP3    H128080   1.883   3.040   1.194 -1.3848 -0.8263 -1.1489
 9372TIP3    H228081   1.800   3.166   1.210  0.3255  0.1629  0.1815
 9373TIP3   OH228082   0.380   3.661   2.945 -0.1697 -0.1360 -0.0964
 9373TIP3    H128083   0.367   3.634   3.036 -2.1369 -1.4439 -0.7152
 9373TIP3    H228084   0.437   3.593   2.908  0.1679  0.0950 -0.0116
 9374TIP3   OH228085   2.414   0.962   2.271 -0.6085 -0.0539  0.0374
 9374TIP3    H128086   2.387   0.927   2.355  0.1693  0.2318  0.4124
 9374TIP3    H228087   2.386   1.053   2.272  0.9404  0.4349  0.7073
 9375TIP3   OH228088   0.094   0.165   2.163  0.1767  0.0665  0.0364
 9375TIP3    H128089   0.115   0.095   2.100  1.7035  0.6660 -0.1781
 9375TIP3    H228090   0.133   0.244   2.125  1.0802  0.4536  1.6834
 9376TIP3   OH228091   5.945   1.647   1.133  0.1639  0.9184 -0.1234
 9376TIP3    H128092   6.009   1.614   1.070  1.1258  0.8013  0.8675
 9376TIP3    H228093   5.922   1.571   1.186 -2.0322  0.5949 -1.4174
 9377TIP3   OH228094   5.332   5.084   5.635 -0.1227  0.1429 -0.1717
 9377TIP3    H128095   5.423   5.108   5.615 -0.7870  1.2650 -2.1273
 9377TIP3    H228096   5.304   5.031   5.561 -0.8264 -0.9529  0.8422
 9378TIP3   OH228097   4.486   5.198   5.569  0.5224  0.1111 -0.4348
 9378TIP3    H128098   4.414   5.149   5.610  1.7720 -0.9621  0.5525
 9378TIP3    H228099   4.488   5.166   5.479 -0.8517  0.9007 -0.7888
 9379TIP3   OH228100   3.103   4.149   3.659 -0.6651 -0.5600  0.0352
 9379TIP3    H128101   3.140   4.168   3.745  2.0348 -2.1599 -0.6465
 9379TIP3    H228102   3.059   4.230   3.633  2.1760  1.5133  1.1128
 9380TIP3   OH228103   4.942   4.687   2.632  0.1455  0.0817 -0.2847
 9380TIP3    H128104   4.897   4.640   2.562 -0.0912  2.6233 -1.9704
 9380TIP3    H228105   5.033   4.659   2.626  0.1799  0.4509 -1.8374
 9381TIP3   OH228106   5.603   1.633   2.437 -0.5996  0.0654  0.0607
 9381TIP3    H128107   5.538   1.577   2.478 -1.4842  0.2800 -1.0062
 9381TIP3    H228108   5.603   1.713   2.490 -1.4247  0.1767 -0.1016
 9382TIP3   OH228109   1.227   6.756   3.052  0.6476 -0.7775  0.6481
 9382TIP3    H128110   1.266   6.818   2.991 -0.7745 -0.7972 -0.3454
 9382TIP3    H228111   1.298   6.695   3.074  1.2202 -0.7584 -0.9833
 9383TIP3   OH228112   0.085   6.145   0.420 -0.1182 -0.1294  0.2396
 9383TIP3    H128113   0.020   6.166   0.487 -0.0574 -0.5832  0.4425
 9383TIP3    H228114   0.164   6.124   0.469  1.1525  3.3553 -0.0199
 9384TIP3   OH228115   2.649   2.487   0.873 -0.1179 -0.2791 -0.1591
 9384TIP3    H128116   2.685   2.571   0.846 -0.5797  0.5189  1.5354
 9384TIP3    H228117   2.645   2.435   0.793  3.0060  0.2340 -0.7592
 9385TIP3   OH228118   4.649   6.568   2.164  0.0749  0.9864 -0.3736
 9385TIP3    H128119   4.681   6.646   2.208 -0.9828  0.8711  0.6521
 9385TIP3    H228120   4.554   6.569   2.179 -0.0355 -0.1570 -0.8838
 9386TIP3   OH228121   0.393   1.485   3.897  0.4126 -0.1956  0.0628
 9386TIP3    H128122   0.325   1.541   3.862  1.0921 -0.4861 -1.8385
 9386TIP3    H228123   0.465   1.544   3.918 -0.2123  0.0592  1.6988
 9387TIP3   OH228124   4.097   2.468   3.234 -0.1962 -0.0282 -0.9813
 9387TIP3    H128125   4.131   2.529   3.299 -0.5357  0.4462 -1.2431
 9387TIP3    H228126   4.165   2.401   3.226 -1.1190 -1.4338  1.6181
 9388TIP3   OH228127   6.967   4.900   2.126  0.1935  0.2876 -0.7269
 9388TIP3    H128128   7.019   4.978   2.111  0.3875  0.4404  0.6134
 9388TIP3    H228129   6.900   4.927   2.189 -1.9726  0.2684 -2.8643
 9389TIP3   OH228130   5.278   3.604   0.552  0.6998  0.4761 -0.7918
 9389TIP3    H128131   5.312   3.603   0.463 -0.4201  0.5318 -1.2297
 9389TIP3    H228132   5.234   3.689   0.561  0.1416  0.1610 -0.4480
 9390TIP3   OH228133   6.244   3.399   3.387 -0.2273  0.6937  0.0415
 9390TIP3    H128134   6.183   3.371   3.455  1.8346 -1.7840  1.0123
 9390TIP3    H228135   6.229   3.338   3.315  1.4566 -0.3711  0.5409
 9391TIP3   OH228136   5.105   1.484   4.704  0.2255  0.0621  0.4028
 9391TIP3    H128137   5.041   1.451   4.641  0.6445 -0.6234  0.3221
 9391TIP3    H228138   5.105   1.419   4.774  2.3583 -1.1108 -0.5973
 9392TIP3   OH228139   6.541   5.542   4.883  0.0540  0.3702 -0.3932
 9392TIP3    H128140   6.627   5.547   4.841 -1.5692 -2.0315 -4.5733
 9392TIP3    H228141   6.524   5.449   4.893 -1.4082  0.8227  2.0190
 9393TIP3   OH228142   2.288   5.593   2.884  0.1107  0.2992 -0.1929
 9393TIP3    H128143   2.308   5.533   2.812  1.3011 -1.9021  1.8467
 9393TIP3    H228144   2.228   5.544   2.940 -0.7029  1.9317  0.4184
 9394TIP3   OH228145   5.867   6.046   4.440  0.3007  0.4005 -0.0328
 9394TIP3    H128146   5.931   6.110   4.408  1.6471  0.2483  2.0962
 9394TIP3    H228147   5.783   6.076   4.405  1.2194  1.9663 -1.0178
 9395TIP3   OH228148   0.181   1.643   0.644  0.0220 -0.2250  0.5857
 9395TIP3    H128149   0.218   1.573   0.590 -0.0738 -0.2565  0.5606
 9395TIP3    H228150   0.183   1.608   0.733 -1.1765 -0.7583  0.4219
 9396TIP3   OH228151   2.838   0.355   4.123 -0.4293 -0.4713  1.1198
 9396TIP3    H128152   2.867   0.266   4.144 -0.1634 -0.8751 -0.7350
 9396TIP3    H228153   2.900   0.385   4.057 -1.9042  0.1539 -0.0440
 9397TIP3   OH228154   3.620   6.788   4.468  0.0103 -0.1350  0.0735
 9397TIP3    H128155   3.675   6.832   4.534  0.3148 -2.0678  1.1815
 9397TIP3    H228156   3.663   6.704   4.453 -0.7606 -0.2560 -1.6954
 9398TIP3   OH228157   3.554   0.687   0.140 -0.1173  0.3689  0.2552
 9398TIP3    H128158   3.628   0.636   0.107 -0.0860  1.6977 -1.9933
 9398TIP3    H228159   3.594   0.763   0.183 -0.0322  1.7058 -1.9825
 9399TIP3   OH228160   2.604   6.309   3.771  0.0981 -0.0817  0.6098
 9399TIP3    H128161   2.641   6.276   3.689 -0.6187  2.1974 -0.7175
 9399TIP3    H228162   2.509   6.309   3.757 -0.0179  0.6143  1.3182
 9400TIP3   OH228163   1.036   0.747   2.741 -0.0821 -0.4539 -0.2564
 9400TIP3    H128164   1.016   0.663   2.783 -0.2961 -0.7334 -0.9179
 9400TIP3    H228165   1.105   0.727   2.678 -0.3512 -0.1894 -0.6371
 9401TIP3   OH228166   6.282   2.603   1.086  0.2896  0.3203 -0.1087
 9401TIP3    H128167   6.214   2.648   1.135  0.2910 -1.0127  1.1906
 9401TIP3    H228168   6.299   2.659   1.010 -2.0522  0.8257 -0.3304
 9402TIP3   OH228169   6.904   2.379   4.377  0.5431  0.1135  0.1714
 9402TIP3    H128170   6.851   2.299   4.374  0.8675 -0.2244  2.2614
 9402TIP3    H228171   6.966   2.369   4.304  0.2865 -1.3107  0.1158
 9403TIP3   OH228172   5.436   1.481   3.808  0.1496  0.1043 -0.0753
 9403TIP3    H128173   5.406   1.398   3.847  0.0237  0.2787  0.1973
 9403TIP3    H228174   5.394   1.484   3.722 -1.3567  0.7880  0.6593
 9404TIP3   OH228175   6.224   5.651   3.548  0.4706 -0.1831 -0.0431
 9404TIP3    H128176   6.129   5.644   3.545  0.3685  1.0933 -1.1136
 9404TIP3    H228177   6.243   5.732   3.500  2.0272  0.2212  1.1936
 9405TIP3   OH228178   3.089   3.391   0.286 -0.2408  0.2789 -0.6375
 9405TIP3    H128179   3.140   3.471   0.276 -0.3939  0.5291  0.3868
 9405TIP3    H228180   3.104   3.365   0.377 -0.1463 -0.8949 -0.9727
 9406TIP3   OH228181   5.073   0.242   0.919  0.5892  0.1024 -0.1037
 9406TIP3    H128182   5.028   0.270   0.840  3.0217  0.6748 -1.3784
 9406TIP3    H228183   5.003   0.227   0.983 -1.3315  1.1797 -1.8563
 9407TIP3   OH228184   2.211   1.291   3.576 -0.2942  0.4029 -0.1169
 9407TIP3    H128185   2.150   1.309   3.647 -0.2405  0.3675 -0.0616
 9407TIP3    H228186   2.262   1.372   3.566 -0.2199  0.3668 -0.0339
 9408TIP3   OH228187   2.935   3.335   5.058 -0.1293 -0.6474  0.8024
 9408TIP3    H128188   2.847   3.371   5.047  0.9184  1.7234 -0.5769
 9408TIP3    H228189   2.932   3.250   5.015 -1.5690 -0.3265  0.2156
 9409TIP3   OH228190   2.374   2.033   0.887  0.1143  0.8760 -0.4245
 9409TIP3    H128191   2.452   1.994   0.927 -0.5530  0.6930  0.7534
 9409TIP3    H228192   2.347   2.101   0.948 -0.6036  0.9967 -0.8647
 9410TIP3   OH228193   1.861   4.582   4.541 -0.0824 -0.3777  0.0365
 9410TIP3    H128194   1.931   4.522   4.517 -0.7745 -0.6102 -1.5128
 9410TIP3    H228195   1.835   4.555   4.629  0.5921 -1.4184 -0.0777
 9411TIP3   OH228196   6.586   5.196   0.549 -0.5424  0.6151 -0.6868
 9411TIP3    H128197   6.588   5.152   0.464 -0.5777 -0.5094 -0.1114
 9411TIP3    H228198   6.494   5.220   0.561 -1.0198 -1.4147  0.1123
 9412TIP3   OH228199   5.007   4.065   3.377 -0.1787  0.2869 -0.2646
 9412TIP3    H128200   5.073   4.104   3.435 -0.6628 -0.7105  1.0068
 9412TIP3    H228201   5.020   3.971   3.386 -0.6234  0.0967 -1.4049
 9413TIP3   OH228202   3.743   2.177   3.195 -0.9537 -0.0657 -0.2751
 9413TIP3    H128203   3.661   2.225   3.207 -1.3836 -0.7866 -0.2850
 9413TIP3    H228204   3.716   2.087   3.177 -0.1448 -0.5855  0.9681
 9414TIP3   OH228205   4.862   2.915   4.546  0.3061  0.3412  0.2487
 9414TIP3    H128206   4.894   2.989   4.598 -0.3163  3.8354 -3.6953
 9414TIP3    H228207   4.770   2.936   4.528  0.2202 -1.1258 -1.3695
 9415TIP3   OH228208   4.123   6.386   3.989 -0.2408 -0.4426 -0.0525
 9415TIP3    H128209   4.079   6.447   3.930  1.1812  0.4787 -0.1939
 9415TIP3    H228210   4.188   6.438   4.035  1.4541 -1.9148 -0.6240
 9416TIP3   OH228211   2.275   2.958   3.169 -0.6907  0.1331  0.2144
 9416TIP3    H128212   2.344   2.983   3.231 -2.1544  2.8779  0.9338
 9416TIP3    H228213   2.320   2.908   3.101  1.9293  1.4089  0.8685
 9417TIP3   OH228214   3.921   6.687   2.352  0.3730 -0.4172  0.2333
 9417TIP3    H128215   3.827   6.697   2.337  0.2855 -0.2348  0.8657
 9417TIP3    H228216   3.949   6.624   2.285 -0.4107 -1.3609  0.7610
 9418TIP3   OH228217   2.980   6.189   0.393  0.3824  0.1419  0.3524
 9418TIP3    H128218   2.929   6.175   0.473  0.0846 -1.6219 -0.0844
 9418TIP3    H228219   3.033   6.109   0.385  0.2427  0.1858 -1.3092
 9419TIP3   OH228220   1.054   1.005   5.873 -0.0098 -0.0882 -0.1743
 9419TIP3    H128221   0.972   0.961   5.895 -0.7501  1.5037  0.3452
 9419TIP3    H228222   1.070   0.980   5.782 -1.0644 -0.4192 -0.2841
 9420TIP3   OH228223   3.447   5.182   3.197 -0.7274  0.0012  0.5163
 9420TIP3    H128224   3.424   5.113   3.258 -0.6604 -1.0521 -0.6041
 9420TIP3    H228225   3.379   5.178   3.129 -0.3361  0.5671  0.0778
 9421TIP3   OH228226   5.439   2.477   1.696 -0.1494  0.2602 -0.2758
 9421TIP3    H128227   5.425   2.529   1.776 -1.6670  0.4757 -0.6435
 9421TIP3    H228228   5.469   2.392   1.728  1.2064  0.9523  0.3988
 9422TIP3   OH228229   3.275   3.169   4.062 -0.2978 -1.3742 -0.5654
 9422TIP3    H128230   3.295   3.078   4.041  2.0119 -0.8025 -1.1421
 9422TIP3    H228231   3.281   3.174   4.158  0.7493 -1.6024 -0.6088
 9423TIP3   OH228232   2.123   5.252   3.151  0.2842 -0.3196 -0.4257
 9423TIP3    H128233   2.142   5.327   3.207  1.2002  0.6566 -1.9493
 9423TIP3    H228234   2.204   5.201   3.150 -0.5170 -1.6915  1.0578
 9424TIP3   OH228235   1.636   2.249   2.723  0.2481  0.0795 -0.0125
 9424TIP3    H128236   1.694   2.263   2.648 -0.8142 -1.4130 -1.2056
 9424TIP3    H228237   1.622   2.337   2.760 -0.2700  1.1184 -2.4428
 9425TIP3   OH228238   2.637   2.600   1.623  0.9234  0.1485  0.5966
 9425TIP3    H128239   2.620   2.694   1.626  0.9419  0.1306  1.2627
 9425TIP3    H228240   2.732   2.592   1.623  0.9294  0.1403  0.0170
 9426TIP3   OH228241   2.411   0.936   0.001 -0.1327 -0.0858 -0.0403
 9426TIP3    H128242   2.476   1.000   0.029  0.9977 -1.5909  0.8851
 9426TIP3    H228243   2.335   0.953   0.057  0.2630  0.2481  0.4044
 9427TIP3   OH228244   4.205   3.020   3.257  0.7559  0.0358 -0.2672
 9427TIP3    H128245   4.250   2.936   3.248  0.2784 -0.1026 -1.6222
 9427TIP3    H228246   4.129   3.013   3.199  0.4917  1.2516 -0.0915
 9428TIP3   OH228247   2.009   1.100   3.127 -0.4709  0.1029  0.5913
 9428TIP3    H128248   1.947   1.040   3.170 -0.2673  0.6238  1.6379
 9428TIP3    H228249   2.074   1.120   3.194  1.2995 -1.0035 -0.6720
 9429TIP3   OH228250   3.075   2.038   5.415 -0.1059 -0.0921 -0.5030
 9429TIP3    H128251   3.168   2.059   5.420 -0.0300 -0.2560 -1.1203
 9429TIP3    H228252   3.063   1.967   5.479 -0.1543  1.0697  0.8119
 9430TIP3   OH228253   1.321   0.439   1.108  0.5423 -0.1103  0.6479
 9430TIP3    H128254   1.354   0.353   1.085 -1.4277 -1.3378  2.0542
 9430TIP3    H228255   1.233   0.442   1.072  1.0722  1.9716 -0.6782
 9431TIP3   OH228256   4.482   3.718   3.415  0.0170 -0.2154  0.0871
 9431TIP3    H128257   4.388   3.712   3.431  0.3703 -1.3258  2.2213
 9431TIP3    H228258   4.519   3.748   3.499  1.3744  3.0376 -1.4902
 9432TIP3   OH228259   5.982   6.362   0.115  0.4038  0.3885  0.7927
 9432TIP3    H128260   5.994   6.455   0.094  1.2528  0.0572 -0.3247
 9432TIP3    H228261   6.036   6.349   0.193 -0.4598  1.0252  1.5107
 9433TIP3   OH228262   2.293   2.331   5.112 -0.2715 -0.0438 -0.2042
 9433TIP3    H128263   2.332   2.244   5.119 -0.6595 -0.3576 -1.5393
 9433TIP3    H228264   2.327   2.366   5.030 -0.6900  0.7689 -0.0404
 9434TIP3   OH228265   2.410   3.068   1.427 -0.1707 -0.2488  0.2157
 9434TIP3    H128266   2.405   3.151   1.475  0.7462  0.1939 -0.4276
 9434TIP3    H228267   2.489   3.026   1.460  0.2447 -0.1266 -0.6120
 9435TIP3   OH228268   5.106   2.196   3.657  0.1087 -0.1198  0.0488
 9435TIP3    H128269   5.040   2.228   3.595 -0.4218  0.4957  0.9029
 9435TIP3    H228270   5.055   2.172   3.735  0.9914  1.7475  1.2823
 9436TIP3   OH228271   2.560  -0.011   5.006  0.0150  0.1587 -0.3965
 9436TIP3    H128272   2.544  -0.049   5.092 -1.6562  0.0497 -0.7092
 9436TIP3    H228273   2.601   0.074   5.024 -0.5175  0.2348  0.5256
 9437TIP3   OH228274   2.177   2.943   1.946  0.7531  0.3571 -0.4797
 9437TIP3    H128275   2.141   3.019   1.900  0.4189  0.3788 -0.1874
 9437TIP3    H228276   2.200   2.975   2.033 -1.1288 -0.2660  0.3136
 9438TIP3   OH228277   3.766   0.847   5.088  0.1416  0.1033  0.5496
 9438TIP3    H128278   3.829   0.860   5.158  0.3576  0.5310  0.2858
 9438TIP3    H228279   3.770   0.928   5.037  0.4376 -0.4399 -0.3099
 9439TIP3   OH228280   0.637   5.275   4.546  0.1177  0.4179 -0.2977
 9439TIP3    H128281   0.701   5.280   4.617 -1.0942 -1.0405  0.9725
 9439TIP3    H228282   0.668   5.338   4.481  0.3494  3.1499  2.2642
 9440TIP3   OH228283   5.099   4.532   0.200  1.1182  0.1894  0.3722
 9440TIP3    H128284   5.069   4.597   0.136  0.5381 -0.7209 -0.3234
 9440TIP3    H228285   5.188   4.559   0.223  0.7037  1.5020  0.4940
 9441TIP3   OH228286   1.272   4.077   2.526  0.2198  0.8260 -0.4490
 9441TIP3    H128287   1.185   4.096   2.560 -0.0210  1.2136 -1.2579
 9441TIP3    H228288   1.324   4.054   2.603 -0.7060  0.1693 -0.0122
 9442TIP3   OH228289   1.305   1.646   1.992  0.5154  0.1766 -1.3202
 9442TIP3    H128290   1.212   1.653   2.011  0.2795 -1.0203 -1.9213
 9442TIP3    H228291   1.348   1.697   2.061 -0.2555 -3.5821  2.3121
 9443TIP3   OH228292   0.340   2.168   1.625  0.0832  0.5111 -0.3503
 9443TIP3    H128293   0.272   2.183   1.560 -0.3090 -0.1954 -0.1065
 9443TIP3    H228294   0.293   2.155   1.707  0.4612 -0.7997 -0.3264
 9444TIP3   OH228295   6.647   6.097   0.316 -0.5764 -0.0753  0.0465
 9444TIP3    H128296   6.555   6.123   0.310 -0.7676 -0.6454  0.4686
 9444TIP3    H228297   6.692   6.156   0.255 -1.4252 -0.7371 -1.2731
 9445TIP3   OH228298   0.469   6.613   3.811  0.0297 -0.1556 -0.7738
 9445TIP3    H128299   0.544   6.554   3.814  1.7758  1.9120 -0.9844
 9445TIP3    H228300   0.399   6.564   3.854  1.9135 -1.6317  0.8495
 9446TIP3   OH228301   4.400   6.044   1.454  0.3859 -0.0330 -0.0637
 9446TIP3    H128302   4.473   6.106   1.456  0.8360 -0.5683  0.2000
 9446TIP3    H228303   4.415   5.986   1.529 -1.5675  1.2657  1.4520
 9447TIP3   OH228304   5.610   3.829   2.440  0.1959 -0.0495 -0.0361
 9447TIP3    H128305   5.698   3.803   2.467 -0.0451 -1.0775 -0.1874
 9447TIP3    H228306   5.562   3.839   2.522  0.0112 -1.1598  0.0039
 9448TIP3   OH228307   5.304   2.716   2.353  0.0329  0.2492  0.4904
 9448TIP3    H128308   5.391   2.709   2.313 -0.7089 -0.4202 -1.0901
 9448TIP3    H228309   5.244   2.727   2.278 -1.2368  0.8258  1.5494
 9449TIP3   OH228310   4.145   4.834   3.439  0.8099 -0.4353  0.0590
 9449TIP3    H128311   4.231   4.792   3.446  0.0703 -2.0785 -0.1663
 9449TIP3    H228312   4.152   4.890   3.362  1.7354 -0.3806  0.1691
 9450TIP3   OH228313   0.707   3.515   4.403  0.0619  0.7999  0.1128
 9450TIP3    H128314   0.680   3.487   4.491 -0.7205 -1.0374 -0.6667
 9450TIP3    H228315   0.659   3.458   4.343  1.4646  1.2103 -1.4949
 9451TIP3   OH228316   2.657   1.576   5.453  0.1998  0.2593  0.0638
 9451TIP3    H128317   2.707   1.497   5.473 -0.0245 -0.3551 -1.6266
 9451TIP3    H228318   2.660   1.628   5.533  0.6434 -1.3054  1.0924
 9452TIP3   OH228319   3.475   1.297   4.534  0.0966  0.1444  0.2353
 9452TIP3    H128320   3.447   1.335   4.450  0.7775  1.4967  0.6068
 9452TIP3    H228321   3.568   1.281   4.523  0.9216  3.2320  1.7206
 9453TIP3   OH228322   7.000   1.050   4.353  0.6317 -0.0640  0.1725
 9453TIP3    H128323   7.063   1.083   4.289  0.4727 -1.5248 -0.7988
 9453TIP3    H228324   6.915   1.064   4.311 -0.3638  5.6472  3.0490
 9454TIP3   OH228325   5.908   5.823   4.827  0.4686  0.1986 -0.0094
 9454TIP3    H128326   5.952   5.739   4.813  0.3041  0.1399 -0.1804
 9454TIP3    H228327   5.816   5.804   4.810  0.2601  0.1299  1.1099
 9455TIP3   OH228328   0.502   4.769   2.125 -0.2417 -0.3926  0.5083
 9455TIP3    H128329   0.480   4.677   2.139  2.7089 -1.0826  1.3229
 9455TIP3    H228330   0.574   4.786   2.185  0.9102  1.7671 -1.3273
 9456TIP3   OH228331   0.514   2.713   2.945  0.2674  0.5492 -0.0987
 9456TIP3    H128332   0.422   2.687   2.943  0.6638 -1.0111  0.6955
 9456TIP3    H228333   0.545   2.693   2.856 -0.2637  1.5815 -0.5364
 9457TIP3   OH228334   3.893   2.300   2.983  0.3770 -0.1076 -0.0823
 9457TIP3    H128335   3.987   2.284   2.972  0.1696 -1.4444 -0.0514
 9457TIP3    H228336   3.870   2.252   3.063 -0.1276  1.1197  0.5303
 9458TIP3   OH228337   0.422   1.819   1.281 -0.4254 -0.1296  0.5415
 9458TIP3    H128338   0.403   1.884   1.214 -0.7347  0.3628  1.0924
 9458TIP3    H228339   0.487   1.861   1.338 -1.0054 -0.0860  1.1919
 9459TIP3   OH228340   1.939   4.798   5.378  0.4770  0.3605  0.0621
 9459TIP3    H128341   1.915   4.763   5.464  2.2101  0.7836  0.7738
 9459TIP3    H228342   1.886   4.877   5.369  0.1014  0.1786  0.6440
 9460TIP3   OH228343   5.895   4.787   5.635 -0.3702 -0.0650 -0.9742
 9460TIP3    H128344   5.922   4.771   5.544  0.1163  3.5379 -1.5919
 9460TIP3    H228345   5.840   4.864   5.631 -2.1521 -1.0620  1.6269
 9461TIP3   OH228346   4.807   5.222   3.711 -0.4464  0.0420 -0.2635
 9461TIP3    H128347   4.739   5.164   3.745 -0.0737 -0.6518 -0.7009
 9461TIP3    H228348   4.770   5.256   3.629 -0.2410 -0.3993 -0.5434
 9462TIP3   OH228349   3.133   0.437   5.567  0.0930 -0.2907 -0.2379
 9462TIP3    H128350   3.041   0.440   5.593  0.2902 -1.7965  0.7492
 9462TIP3    H228351   3.171   0.366   5.619  1.5571 -0.4485 -1.4338
 9463TIP3   OH228352   0.950   6.075   3.498  0.3285 -0.3034  0.0686
 9463TIP3    H128353   0.969   6.160   3.537  0.6005  0.0742 -0.8560
 9463TIP3    H228354   0.864   6.051   3.534  0.2807  0.3253  0.3950
 9464TIP3   OH228355   0.298   4.890   4.902 -0.0354  0.2357 -0.2001
 9464TIP3    H128356   0.323   4.869   4.812 -1.2069  0.3071 -0.5618
 9464TIP3    H228357   0.227   4.828   4.923  0.0984  0.3395  0.6073
 9465TIP3   OH228358   2.389   1.915   3.782 -0.1839 -0.4264 -0.7312
 9465TIP3    H128359   2.412   1.823   3.765 -1.7325 -1.0080  0.0897
 9465TIP3    H228360   2.473   1.961   3.783  0.7542 -2.0575  0.1182
 9466TIP3   OH228361   1.911   3.855   0.716  0.2130 -0.6956 -0.2766
 9466TIP3    H128362   1.906   3.812   0.631 -0.3605 -0.2964 -0.4522
 9466TIP3    H228363   1.945   3.943   0.696  0.9313 -0.8969  0.0195
 9467TIP3   OH228364   0.753   1.198   3.294  0.4439  0.0435 -0.5340
 9467TIP3    H128365   0.728   1.106   3.291  2.2539 -0.4988 -0.1190
 9467TIP3    H228366   0.732   1.226   3.383 -1.0907  0.3652 -0.9653
 9468TIP3   OH228367   6.547   1.470   0.504  0.2292  0.2098  0.1746
 9468TIP3    H128368   6.464   1.512   0.478 -1.1488 -2.9760 -1.1346
 9468TIP3    H228369   6.524   1.416   0.579  0.4987 -2.3495 -1.4698
 9469TIP3   OH228370   6.489   2.398   5.262 -0.1000  0.2872 -0.0735
 9469TIP3    H128371   6.394   2.396   5.246 -0.2519  1.9376  0.4619
 9469TIP3    H228372   6.527   2.374   5.178 -0.9883 -1.4040 -0.0296
 9470TIP3   OH228373   4.309   0.688   3.431  0.0214 -0.1436  0.5784
 9470TIP3    H128374   4.288   0.730   3.514  0.8564 -2.3453  2.0053
 9470TIP3    H228375   4.229   0.641   3.407 -0.6003  1.4031 -0.5208
 9471TIP3   OH228376   5.341   1.422   0.234  0.2211 -0.7174  0.6770
 9471TIP3    H128377   5.323   1.331   0.257 -0.7651 -0.5541  0.5883
 9471TIP3    H228378   5.289   1.438   0.155 -0.0355  0.0680  0.9917
 9472TIP3   OH228379   5.129   0.709   1.571  0.1002 -0.0396  0.4064
 9472TIP3    H128380   5.043   0.672   1.591  0.9164 -1.1023  2.1462
 9472TIP3    H228381   5.154   0.757   1.650  1.2858 -0.0979  0.0935
 9473TIP3   OH228382   4.696   5.838   0.057  0.5045  0.2389  0.3628
 9473TIP3    H128383   4.611   5.810   0.089  0.8533  1.7001  2.8925
 9473TIP3    H228384   4.676   5.905  -0.009 -0.3291  0.5067  0.8694
 9474TIP3   OH228385   2.168   0.209   3.272  0.0233 -0.0635  0.1553
 9474TIP3    H128386   2.193   0.168   3.190  1.1577  1.9503 -0.5981
 9474TIP3    H228387   2.077   0.185   3.285 -0.6063  0.6497 -2.4107
 9475TIP3   OH228388   2.373   5.246   0.740 -0.1035 -0.7350 -0.3219
 9475TIP3    H128389   2.278   5.241   0.748 -0.3596  2.2936 -0.4906
 9475TIP3    H228390   2.402   5.300   0.814  1.5153 -1.6533 -0.2286
 9476TIP3   OH228391   5.855   2.822   3.336  0.1926  0.5323 -0.3255
 9476TIP3    H128392   5.924   2.763   3.365 -0.4512  0.2539  0.7131
 9476TIP3    H228393   5.814   2.776   3.262 -0.9917 -0.8775  1.1351
 9477TIP3   OH228394   5.786   5.065   5.575 -1.0099  0.0450  0.2892
 9477TIP3    H128395   5.877   5.094   5.569 -0.9728 -0.1185  0.0147
 9477TIP3    H228396   5.744   5.128   5.634 -1.3583  1.7841 -1.6942
 9478TIP3   OH228397   2.822   3.415   2.470  0.5997 -0.2297 -0.2428
 9478TIP3    H128398   2.898   3.361   2.448  1.3993  1.1167 -0.9415
 9478TIP3    H228399   2.833   3.434   2.563 -0.0959 -1.8362  0.2031
 9479TIP3   OH228400   2.779   6.717   1.456 -0.0367 -0.0766  0.4839
 9479TIP3    H128401   2.833   6.772   1.513  0.0676 -0.7123  1.0059
 9479TIP3    H228402   2.705   6.690   1.510  0.1042 -0.7543  0.3544
 9480TIP3   OH228403   4.191   4.420   5.383 -0.1605  0.1156 -0.3394
 9480TIP3    H128404   4.114   4.418   5.440  0.1384 -1.0542  0.0504
 9480TIP3    H228405   4.250   4.484   5.424 -0.7034  0.6476 -0.3681
 9481TIP3   OH228406   4.167   2.485   4.208  0.3549  0.1009 -0.2720
 9481TIP3    H128407   4.213   2.569   4.212  3.0428 -1.2918  0.3671
 9481TIP3    H228408   4.131   2.473   4.296  0.7292  0.2030 -0.1014
 9482TIP3   OH228409   6.507   0.463   0.365  0.2765 -0.6425 -0.7029
 9482TIP3    H128410   6.442   0.429   0.426 -0.1176  1.7219  0.2701
 9482TIP3    H228411   6.567   0.514   0.420  1.2282 -0.3269 -1.9944
 9483TIP3   OH228412   1.158   4.740   2.299 -0.4697  0.4107 -0.1383
 9483TIP3    H128413   1.225   4.745   2.367 -1.8090  0.2474  1.2367
 9483TIP3    H228414   1.178   4.658   2.253  0.0301  0.1573  0.5121
 9484TIP3   OH228415   3.277   4.593   3.016  0.4334  0.4592 -0.0631
 9484TIP3    H128416   3.361   4.546   3.010  0.3480  0.2765  0.1606
 9484TIP3    H228417   3.222   4.551   2.951  0.7684  1.1120 -0.7791
 9485TIP3   OH228418   0.949   0.709   3.177 -0.0860  0.1348  0.0042
 9485TIP3    H128419   1.035   0.719   3.136 -0.2204  1.1080 -0.0594
 9485TIP3    H228420   0.931   0.795   3.214 -0.7550 -0.2487  0.5650
 9486TIP3   OH228421   5.134   4.169   5.565 -0.0240 -0.4184  0.0598
 9486TIP3    H128422   5.202   4.123   5.614  1.1146 -2.3164 -3.0040
 9486TIP3    H228423   5.150   4.262   5.585  0.4387 -1.0262  2.9898
 9487TIP3   OH228424   1.424   1.969   2.401 -0.3202 -0.0211 -0.1301
 9487TIP3    H128425   1.403   1.883   2.437 -0.4061  0.5119  1.1787
 9487TIP3    H228426   1.394   2.030   2.468 -0.9428  1.0699 -1.3675
 9488TIP3   OH228427   1.722   1.183   0.072 -0.0982 -0.5222  0.6728
 9488TIP3    H128428   1.674   1.144   0.145  0.5458 -0.1645  1.3024
 9488TIP3    H228429   1.814   1.177   0.098  0.0076  2.3252  1.3008
 9489TIP3   OH228430   3.415   4.183   1.994 -0.2893  0.1052 -0.1659
 9489TIP3    H128431   3.434   4.136   2.075  2.3096  0.9857 -0.1641
 9489TIP3    H228432   3.374   4.265   2.024  1.1784  0.6816  0.3442
 9490TIP3   OH228433   3.483   2.638   2.534 -0.6109 -0.0714  0.6549
 9490TIP3    H128434   3.557   2.655   2.592 -1.2589 -0.4994  1.6530
 9490TIP3    H228435   3.424   2.713   2.548  0.3119  1.1158 -1.3546
 9491TIP3   OH228436   6.053   2.116   4.186  0.1766 -0.2365  0.1941
 9491TIP3    H128437   6.088   2.035   4.150  3.2041  1.3083 -0.7432
 9491TIP3    H228438   6.114   2.140   4.256 -0.6817  1.1925  0.5034
 9492TIP3   OH228439   4.420   5.429   1.117  0.0060 -0.0202  0.2798
 9492TIP3    H128440   4.480   5.502   1.106  1.2048 -0.9548  0.3856
 9492TIP3    H228441   4.407   5.394   1.029  0.0329 -0.1417  0.3233
 9493TIP3   OH228442   4.969   5.640   4.084  0.6544  0.0253 -0.0785
 9493TIP3    H128443   4.943   5.553   4.054  1.4358 -0.8121  1.5331
 9493TIP3    H228444   4.905   5.663   4.151  1.1604  0.1424  0.3713
 9494TIP3   OH228445   4.435   0.793   0.900 -0.2008  0.6602 -0.0416
 9494TIP3    H128446   4.415   0.719   0.957  1.0768 -1.4188 -2.1271
 9494TIP3    H228447   4.515   0.768   0.854 -0.9704  2.3272 -2.5123
 9495TIP3   OH228448   0.966   5.299   3.545  0.4424  0.3767  0.2829
 9495TIP3    H128449   1.010   5.374   3.586  1.7238 -0.5598  0.6876
 9495TIP3    H228450   0.878   5.331   3.525  0.7463  1.7813  1.0494
 9496TIP3   OH228451   0.287   6.044   3.631 -0.3998  0.2524 -0.1763
 9496TIP3    H128452   0.310   6.112   3.567  0.9196 -0.9921 -1.0863
 9496TIP3    H228453   0.323   5.963   3.595 -1.4960 -0.8740  1.1216
 9497TIP3   OH228454   6.046   5.880   1.237  0.0187  0.4540 -0.1724
 9497TIP3    H128455   6.029   5.862   1.329 -0.4828  2.7210  0.2457
 9497TIP3    H228456   5.982   5.827   1.189  0.2947 -0.7486  0.7485
 9498TIP3   OH228457   6.700   6.710   4.609  0.1677  0.4327  0.3761
 9498TIP3    H128458   6.735   6.745   4.691  0.8578  0.5403  0.0389
 9498TIP3    H228459   6.696   6.786   4.551  0.8893  0.1107 -0.0972
 9499TIP3   OH228460   1.981   2.239   0.076 -0.1775 -0.4570 -0.0344
 9499TIP3    H128461   1.992   2.191   0.158  1.0337  0.1474  0.1843
 9499TIP3    H228462   1.952   2.326   0.103 -2.1549 -0.9644 -0.4152
 9500TIP3   OH228463   3.256   3.911   2.019 -0.1304 -0.0165  0.7193
 9500TIP3    H128464   3.323   3.861   2.067  0.3505 -1.8367 -1.6422
 9500TIP3    H228465   3.184   3.920   2.081  1.2180 -0.4816  2.4215
 9501TIP3   OH228466   6.553   3.206   1.999  0.4325  0.2799  0.1837
 9501TIP3    H128467   6.541   3.299   2.019 -0.5832  0.1527  0.1775
 9501TIP3    H228468   6.637   3.203   1.952  0.7372  1.1184  0.6519
 9502TIP3   OH228469   0.854   2.691   1.340  0.0460 -0.0857  0.1224
 9502TIP3    H128470   0.932   2.667   1.390 -0.7340  1.6105  2.3720
 9502TIP3    H228471   0.796   2.616   1.348  1.1097 -1.0506 -0.9139
 9503TIP3   OH228472   3.552   6.477   1.134 -0.3295  0.2988 -0.4910
 9503TIP3    H128473   3.641   6.444   1.146  0.1452  0.9828 -1.9562
 9503TIP3    H228474   3.496   6.408   1.169  0.7687 -0.0056  0.7478
 9504TIP3   OH228475   0.455   4.245   0.548  0.4088  0.4365  0.2430
 9504TIP3    H128476   0.370   4.202   0.556 -0.2522  1.3621 -1.3961
 9504TIP3    H228477   0.474   4.278   0.636 -1.3457  0.9808  0.4495
 9505TIP3   OH228478   1.490   0.385   1.410  0.0804  0.6014 -0.2698
 9505TIP3    H128479   1.488   0.357   1.502  0.9043  0.1970 -0.3649
 9505TIP3    H228480   1.560   0.333   1.371 -0.3319  0.7043 -1.1580
 9506TIP3   OH228481   5.688   4.834   3.076 -0.0385  0.0747 -0.1051
 9506TIP3    H128482   5.723   4.808   3.161  2.8052  0.6062 -0.9891
 9506TIP3    H228483   5.691   4.754   3.023  0.2871  0.2117 -0.3001
 9507TIP3   OH228484   2.094   6.206   4.468  0.5662  0.1432 -0.6002
 9507TIP3    H128485   2.139   6.227   4.386 -1.0467 -0.6721 -1.7498
 9507TIP3    H228486   2.016   6.262   4.468 -0.5023 -1.2809 -0.6424
 9508TIP3   OH228487   2.881   5.847   4.602  0.5234  0.2898  0.4435
 9508TIP3    H128488   2.862   5.754   4.619  2.0601  0.2655  2.5060
 9508TIP3    H228489   2.972   5.847   4.571  0.0030  1.0120 -1.1578
 9509TIP3   OH228490   2.466   3.843   4.658  0.2146  0.1731  0.1971
 9509TIP3    H128491   2.550   3.882   4.679  0.1114 -0.1062  1.1797
 9509TIP3    H228492   2.431   3.813   4.743 -1.4815  1.4981  0.0321
 9510TIP3   OH228493   3.987   5.672   3.168 -0.2108 -0.0613  0.3097
 9510TIP3    H128494   3.998   5.678   3.263  1.1124  0.5111  0.1397
 9510TIP3    H228495   3.897   5.642   3.156 -0.7627  0.9323  1.7186
 9511TIP3   OH228496   1.408   4.219   0.394  0.4620  0.6497  0.4227
 9511TIP3    H128497   1.455   4.243   0.473  1.3996  0.0266  0.0628
 9511TIP3    H228498   1.459   4.148   0.356  1.2345  2.3105 -1.8682
 9512TIP3   OH228499   3.109   1.061   0.801 -0.0393 -0.1761 -0.0383
 9512TIP3    H128500   3.120   0.989   0.739  1.8149 -1.2933  1.4662
 9512TIP3    H228501   3.041   1.030   0.861  0.6684 -0.6435  0.5341
 9513TIP3   OH228502   5.671   3.959   3.951 -0.2600 -0.5171 -0.2847
 9513TIP3    H128503   5.663   3.983   4.044 -0.8954  1.1287 -0.7403
 9513TIP3    H228504   5.596   3.901   3.935 -0.7517  0.0302 -0.0108
 9514TIP3   OH228505   3.565   2.286   1.045  0.2964  0.5052 -0.0273
 9514TIP3    H128506   3.627   2.254   1.110 -1.1390  0.8381  1.5683
 9514TIP3    H228507   3.479   2.273   1.085 -0.6054  1.2378 -1.6364
 9515TIP3   OH228508   5.400   1.234   4.564 -0.3129 -0.6772 -0.0739
 9515TIP3    H128509   5.419   1.327   4.569  2.0266 -1.1592  1.8416
 9515TIP3    H228510   5.361   1.222   4.477 -1.0953  2.0958 -0.1927
 9516TIP3   OH228511   4.336   3.799   4.371  0.0281 -0.5831 -0.0408
 9516TIP3    H128512   4.241   3.802   4.358  0.1010 -0.6615 -0.6363
 9516TIP3    H228513   4.348   3.810   4.465 -0.4085  2.7073 -0.2774
 9517TIP3   OH228514   7.012   1.569   2.006 -1.0681 -0.0531 -0.2707
 9517TIP3    H128515   6.971   1.506   1.947  1.3111 -2.1402  0.1456
 9517TIP3    H228516   7.042   1.639   1.948  0.0300 -1.4160 -1.4282
 9518TIP3   OH228517   2.301   5.830   4.985 -0.3338 -0.0938 -0.8348
 9518TIP3    H128518   2.277   5.920   4.964  1.3627  0.3727 -0.8826
 9518TIP3    H228519   2.234   5.802   5.047 -0.0293  1.7416  0.4097
 9519TIP3   OH228520   5.589   5.276   4.631 -0.2584 -0.5343  0.3895
 9519TIP3    H128521   5.620   5.274   4.540  1.3704 -2.1711  0.9160
 9519TIP3    H228522   5.574   5.185   4.653 -0.3156 -0.1850  1.8658
 9520TIP3   OH228523   2.726   4.227   0.907  0.3025  0.4230 -0.1229
 9520TIP3    H128524   2.763   4.247   0.822 -0.6770 -1.0573 -0.9454
 9520TIP3    H228525   2.656   4.164   0.889 -0.1286  0.2950  1.7380
 9521TIP3   OH228526   0.509   2.863   1.136 -0.4483 -0.1577  0.2485
 9521TIP3    H128527   0.549   2.919   1.202 -3.7838  0.8826  1.6128
 9521TIP3    H228528   0.455   2.922   1.084 -0.3239 -1.4505 -1.4402
 9522TIP3   OH228529   1.853   0.597   2.041 -0.2933 -0.1896 -0.0125
 9522TIP3    H128530   1.765   0.624   2.063  0.4792  2.9221 -0.3557
 9522TIP3    H228531   1.870   0.635   1.955  1.6845  0.1092  0.4535
 9523TIP3   OH228532   3.775   1.210   2.016  0.4945 -0.2298  0.4317
 9523TIP3    H128533   3.687   1.245   2.032  0.9167  1.2141 -0.1898
 9523TIP3    H228534   3.832   1.268   2.067  1.3661  1.0322 -1.8334
 9524TIP3   OH228535   4.938   4.756   2.255  0.1659  0.0921  0.6596
 9524TIP3    H128536   5.016   4.734   2.305  0.5727  0.4642  0.2041
 9524TIP3    H228537   4.942   4.851   2.245 -0.4080  0.1268  0.7277
 9525TIP3   OH228538   4.986   4.730   4.964 -0.0410 -0.0172 -0.7814
 9525TIP3    H128539   5.056   4.792   4.985 -1.2019  0.2571  3.2795
 9525TIP3    H228540   4.911   4.785   4.944 -0.7446  0.0446  1.6219
 9526TIP3   OH228541   3.442   6.332   3.230  0.3117 -0.3468  0.4416
 9526TIP3    H128542   3.351   6.352   3.210 -0.1126 -2.6857 -0.2453
 9526TIP3    H228543   3.491   6.405   3.193 -1.2757  1.1062  1.0780
 9527TIP3   OH228544   3.008   1.540   3.421 -0.2169 -0.1115 -0.6066
 9527TIP3    H128545   2.950   1.466   3.403 -1.9859  1.1899 -0.5028
 9527TIP3    H228546   2.960   1.592   3.485  1.1537  0.9533 -0.4136
 9528TIP3   OH228547   0.469   2.304   2.007 -0.2270  0.4949 -0.3381
 9528TIP3    H128548   0.466   2.285   2.100 -0.3115 -2.0224 -0.7876
 9528TIP3    H228549   0.384   2.274   1.973 -0.0339  0.9750 -1.3009
 9529TIP3   OH228550   1.759   0.051   2.282  0.4815  0.3490  0.7257
 9529TIP3    H128551   1.744   0.098   2.200  2.3918  0.4986  0.4130
 9529TIP3    H228552   1.680   0.065   2.333  0.0413  1.9044 -0.3209
 9530TIP3   OH228553   7.104   3.796   4.189 -0.3496 -0.3762 -0.2344
 9530TIP3    H128554   7.041   3.732   4.221 -0.3119 -0.4031 -0.2145
 9530TIP3    H228555   7.165   3.745   4.136 -0.4700 -0.3174 -0.4326
 9531TIP3   OH228556   1.608   1.543   2.856 -0.0625 -0.3923  0.2510
 9531TIP3    H128557   1.573   1.555   2.767 -0.1922 -1.5047  0.1379
 9531TIP3    H228558   1.674   1.475   2.847  0.8011  0.3480  0.8089
 9532TIP3   OH228559   3.980   2.412   1.323  0.8063  0.1478  0.2810
 9532TIP3    H128560   3.983   2.348   1.251 -3.9817 -1.0733  0.8433
 9532TIP3    H228561   4.044   2.379   1.386  0.7456 -2.3367 -0.8114
 9533TIP3   OH228562   2.140   4.942   3.962  0.0742  0.2673  0.3243
 9533TIP3    H128563   2.142   5.025   3.915 -0.7670  0.2527  0.2489
 9533TIP3    H228564   2.155   4.876   3.894  3.0914  0.4355  0.7102
 9534TIP3   OH228565   1.860   3.781   2.372 -0.2019  0.3360 -0.0284
 9534TIP3    H128566   1.826   3.746   2.290  2.6775 -1.5993 -0.5490
 9534TIP3    H228567   1.802   3.747   2.439 -0.5464 -1.0881 -1.0018
 9535TIP3   OH228568   5.260   5.335   5.798 -0.3442 -0.9032 -0.1201
 9535TIP3    H128569   5.253   5.416   5.748  0.4650 -0.2119  0.8598
 9535TIP3    H228570   5.266   5.266   5.731  2.2678  0.1184 -1.0354
 9536TIP3   OH228571   2.357   3.287   2.205 -0.3687 -0.6360 -0.0491
 9536TIP3    H128572   2.282   3.345   2.195 -0.1861 -0.4576 -0.4470
 9536TIP3    H228573   2.415   3.332   2.266 -0.5199 -0.7085  0.1491
 9537TIP3   OH228574   2.423   1.779   4.067 -0.2489  0.2164 -0.2955
 9537TIP3    H128575   2.482   1.851   4.087 -1.1825  0.8099  0.4285
 9537TIP3    H228576   2.335   1.818   4.072 -0.6787 -0.3942 -2.3263
 9538TIP3   OH228577   6.828   6.413   1.518  0.3139 -0.0962 -0.5446
 9538TIP3    H128578   6.858   6.503   1.529 -2.1881  0.8588 -0.9044
 9538TIP3    H228579   6.736   6.421   1.490 -0.0616 -2.7585 -0.3555
 9539TIP3   OH228580   0.895   3.635   1.875 -0.0440 -0.7526 -0.4813
 9539TIP3    H128581   0.947   3.703   1.918 -1.1411  0.0832 -0.4395
 9539TIP3    H228582   0.942   3.554   1.893  2.0137  0.1126 -1.6248
 9540TIP3   OH228583   6.083   0.459   4.686 -0.2471 -0.0379  0.9064
 9540TIP3    H128584   6.117   0.548   4.677 -1.0684  0.0879 -1.6865
 9540TIP3    H228585   5.992   0.470   4.715 -0.3596  0.0062  0.5519
 9541TIP3   OH228586   7.155   0.181   5.217  0.5291 -0.2540 -0.1084
 9541TIP3    H128587   7.244   0.210   5.197  0.0292  1.3462 -0.1025
 9541TIP3    H228588   7.109   0.260   5.243 -1.2550 -0.8380 -1.3324
 9542TIP3   OH228589   6.633   4.152   1.454  0.2006 -0.3818  0.5332
 9542TIP3    H128590   6.650   4.194   1.538 -0.7373 -1.5557  1.3343
 9542TIP3    H228591   6.713   4.168   1.403  0.5024  0.9545  1.3702
 9543TIP3   OH228592   0.467   1.996   3.856  0.1994  0.3924 -0.1579
 9543TIP3    H128593   0.488   1.964   3.944  0.6558 -0.6871 -0.6434
 9543TIP3    H228594   0.455   1.917   3.804  0.9940  1.0085 -1.3172
 9544TIP3   OH228595   1.236   4.878   5.471 -0.1950 -0.1775  0.2119
 9544TIP3    H128596   1.257   4.812   5.406  1.5764  0.1078  0.4470
 9544TIP3    H228597   1.160   4.843   5.517  0.8993 -2.2405  0.5629
 9545TIP3   OH228598   5.826   6.536   2.627  0.2841 -0.3350  0.8556
 9545TIP3    H128599   5.808   6.557   2.718  0.7157 -0.9696  1.1020
 9545TIP3    H228600   5.877   6.610   2.594  1.0659 -0.5851  1.4586
 9546TIP3   OH228601   2.592   5.437   0.131 -0.5361 -0.3264  0.6583
 9546TIP3    H128602   2.653   5.509   0.148  0.6912 -0.9304 -0.9313
 9546TIP3    H228603   2.543   5.465   0.053  1.4013 -1.9906 -1.2852
 9547TIP3   OH228604   5.550   2.724   3.544 -0.7011  0.1211 -0.3095
 9547TIP3    H128605   5.547   2.653   3.480  0.1057 -0.3320  0.1316
 9547TIP3    H228606   5.623   2.700   3.602 -1.1466  0.7309  0.5242
 9548TIP3   OH228607   7.141   0.670   1.397  0.6764  0.3883  0.2118
 9548TIP3    H128608   7.166   0.632   1.482  0.0800  0.5603  0.4673
 9548TIP3    H228609   7.104   0.756   1.419  2.6284  1.4583 -0.3963
 9549TIP3   OH228610   3.195   1.674   1.819  0.4499 -0.1263 -0.2133
 9549TIP3    H128611   3.192   1.704   1.728 -0.3257 -1.5189 -0.6747
 9549TIP3    H228612   3.114   1.624   1.830 -0.9396  2.3643  2.1203
 9550TIP3   OH228613   6.322   2.800   2.761  0.3978  0.4384  0.3229
 9550TIP3    H128614   6.309   2.871   2.824 -1.1194  0.3075  0.2109
 9550TIP3    H228615   6.320   2.721   2.814  0.8389  0.4138  0.3035
 9551TIP3   OH228616   0.424   1.022   3.021 -0.2308 -0.4712 -0.5790
 9551TIP3    H128617   0.491   0.982   2.966  0.7841 -1.4630  1.2975
 9551TIP3    H228618   0.458   1.110   3.040  0.0560 -0.6129 -0.4411
 9552TIP3   OH228619   5.794   6.477   1.459  0.5399  0.1841 -0.3193
 9552TIP3    H128620   5.728   6.473   1.389  1.1025  1.1034 -0.9273
 9552TIP3    H228621   5.835   6.390   1.459 -0.6813 -0.4154  0.0986
 9553TIP3   OH228622   0.958   5.166   0.698 -0.2514 -0.1898  0.1838
 9553TIP3    H128623   1.026   5.234   0.699 -1.7223  1.3758 -0.8062
 9553TIP3    H228624   0.876   5.214   0.684 -1.7006 -1.9371  2.1457
 9554TIP3   OH228625   1.293   3.711   0.669 -0.4240 -0.3544  0.3632
 9554TIP3    H128626   1.315   3.691   0.759 -1.0250  0.2143  0.6441
 9554TIP3    H228627   1.198   3.696   0.663 -0.2062 -1.6063 -0.5066
 9555TIP3   OH228628   2.515   1.076   1.714  0.1543 -0.4238  0.3192
 9555TIP3    H128629   2.558   1.056   1.797  0.8387 -3.1025 -0.5788
 9555TIP3    H228630   2.587   1.089   1.652 -0.3637 -0.0222 -0.2108
 9556TIP3   OH228631   0.534   1.515   4.972  0.1357 -0.8232  0.2619
 9556TIP3    H128632   0.508   1.606   4.962  3.1819  0.1679  0.3162
 9556TIP3    H228633   0.617   1.518   5.020  0.5694 -3.5844 -0.1023
 9557TIP3   OH228634   1.070   0.495   3.368  0.1039  0.2989  0.4131
 9557TIP3    H128635   1.070   0.587   3.343  0.7916  0.2560  0.2058
 9557TIP3    H228636   1.163   0.475   3.383 -0.0651 -0.2950  0.6914
 9558TIP3   OH228637   0.284   5.041   3.148  0.1337 -0.1166  0.5032
 9558TIP3    H128638   0.245   5.101   3.085  1.1938  1.5458  1.3668
 9558TIP3    H228639   0.216   4.975   3.163 -0.4752 -0.0618 -1.6555
 9559TIP3   OH228640   2.845   6.769   5.091 -0.7877  0.1548  0.1031
 9559TIP3    H128641   2.794   6.850   5.089 -0.9933  0.0409  0.5257
 9559TIP3    H228642   2.792   6.707   5.041 -0.7337  0.2227 -0.0389
 9560TIP3   OH228643   0.421   0.146   1.233  0.3004 -0.5537 -0.1444
 9560TIP3    H128644   0.397   0.058   1.201 -0.1937 -0.2662 -0.5801
 9560TIP3    H228645   0.480   0.129   1.306  0.6559 -1.2441 -0.5788
 9561TIP3   OH228646   2.582   4.759   4.134  0.0764 -0.0512 -0.2200
 9561TIP3    H128647   2.556   4.833   4.189  0.6467  0.6791 -0.9029
 9561TIP3    H228648   2.501   4.709   4.121 -0.6495  1.2085 -0.8669
 9562TIP3   OH228649   3.335   2.538   3.894 -0.0042 -0.2538  0.6444
 9562TIP3    H128650   3.273   2.492   3.837 -0.4221  0.2418  0.6869
 9562TIP3    H228651   3.407   2.564   3.836 -1.8476  3.0300 -0.4538
 9563TIP3   OH228652   0.498   3.021   0.367 -1.0972  0.6590  0.1779
 9563TIP3    H128653   0.533   3.054   0.450 -0.4355  1.5263 -0.4271
 9563TIP3    H228654   0.409   2.993   0.388 -0.1040 -1.6427  1.7814
 9564TIP3   OH228655   3.104   2.331   4.645  0.9119  0.1305  0.1806
 9564TIP3    H128656   3.138   2.354   4.559  0.9901  0.5772  0.3329
 9564TIP3    H228657   3.151   2.251   4.668  1.1881  0.2346 -0.0121
 9565TIP3   OH228658   5.337   5.558   3.244 -0.1944  0.1366  0.2215
 9565TIP3    H128659   5.299   5.480   3.206  1.6673 -0.4558 -0.5279
 9565TIP3    H228660   5.323   5.627   3.179 -0.5683  0.0927  0.2548
 9566TIP3   OH228661   6.071   0.630   0.367  0.0573  0.2194 -0.2638
 9566TIP3    H128662   6.083   0.580   0.448  2.5655  1.5234  0.2940
 9566TIP3    H228663   6.056   0.720   0.397 -0.1972  0.5089 -1.2404
 9567TIP3   OH228664   3.270   5.327   2.686  0.5511 -0.4961 -0.2739
 9567TIP3    H128665   3.176   5.314   2.675  0.3997  0.6666 -0.4740
 9567TIP3    H228666   3.307   5.311   2.600  0.3495  0.4341 -0.5514
 9568TIP3   OH228667   3.887   0.150   5.808 -0.1326  0.5986 -0.1540
 9568TIP3    H128668   3.946   0.210   5.762 -0.5121  1.8465  0.9484
 9568TIP3    H228669   3.803   0.161   5.763  0.2499 -0.6452 -1.2540
 9569TIP3   OH228670   0.631   1.009   0.264 -0.4261 -0.7841  0.3807
 9569TIP3    H128671   0.647   1.014   0.358 -1.4590  2.0726  0.5200
 9569TIP3    H228672   0.549   0.961   0.255 -0.7831 -0.3125  1.0456
 9570TIP3   OH228673   1.816   4.282   4.227 -0.5088 -0.6133  0.4788
 9570TIP3    H128674   1.767   4.363   4.219 -0.4156 -0.5650  0.4024
 9570TIP3    H228675   1.835   4.255   4.137  0.4600 -0.1158  0.5178
 9571TIP3   OH228676   2.812   3.823   4.342 -0.1806 -0.4258 -0.4437
 9571TIP3    H128677   2.906   3.820   4.324  0.1209  0.0441  0.9728
 9571TIP3    H228678   2.802   3.775   4.424 -1.4354 -2.0291 -1.4712
 9572TIP3   OH228679   1.215   0.193   3.669 -0.0805 -0.1528  0.5434
 9572TIP3    H128680   1.183   0.224   3.584  1.0382 -0.9125 -0.1858
 9572TIP3    H228681   1.300   0.236   3.679  0.5157 -1.2725  0.5143
 9573TIP3   OH228682   5.127   1.348   0.540  0.5683  0.6375 -0.2085
 9573TIP3    H128683   5.044   1.308   0.513  0.0999  0.5119  1.3562
 9573TIP3    H228684   5.140   1.419   0.478 -0.8691  0.8565 -0.2886
 9574TIP3   OH228685   6.013   1.842   4.770 -0.2111  0.1193  0.4781
 9574TIP3    H128686   6.054   1.891   4.699 -0.0586 -0.0286  0.4625
 9574TIP3    H228687   5.920   1.860   4.761 -0.0347  1.6780  1.4340
 9575TIP3   OH228688   0.987   3.274   3.736 -0.2616 -0.3200  0.8238
 9575TIP3    H128689   0.973   3.226   3.654  1.3630  1.3680 -0.5417
 9575TIP3    H228690   1.058   3.226   3.780 -0.3424 -0.5717  0.6825
 9576TIP3   OH228691   6.184   3.068   1.818 -0.1026 -0.4492  0.4976
 9576TIP3    H128692   6.250   3.083   1.885  0.2028  0.9367 -0.0783
 9576TIP3    H228693   6.234   3.056   1.737 -0.4911 -1.3355  0.3821
 9577TIP3   OH228694   1.925   4.359   1.051 -0.1871 -0.2578  0.3367
 9577TIP3    H128695   1.867   4.284   1.036  0.6459 -0.6495 -1.1962
 9577TIP3    H228696   1.981   4.332   1.124 -0.1208 -0.9939  0.0222
 9578TIP3   OH228697   5.742   1.462   1.572  0.1294 -0.3196  0.2223
 9578TIP3    H128698   5.828   1.428   1.599  0.3271  0.6856  0.9257
 9578TIP3    H228699   5.699   1.387   1.531  1.3330 -0.8520 -0.1266
 9579TIP3   OH228700   5.952   1.405   5.663  0.4177  0.1344  0.2206
 9579TIP3    H128701   5.886   1.455   5.614  0.2178  0.4631  0.8170
 9579TIP3    H228702   5.969   1.328   5.609  0.1922  0.4867 -0.3625
 9580TIP3   OH228703   6.127   2.059   4.954  0.0386 -0.1720  0.4396
 9580TIP3    H128704   6.213   2.033   4.921  0.4716  0.8549  0.7292
 9580TIP3    H228705   6.065   2.009   4.900  0.7490  0.9647 -1.5349
 9581TIP3   OH228706   1.291   2.766   1.057 -0.2184 -0.1352  0.0741
 9581TIP3    H128707   1.242   2.807   0.986 -1.2233  0.0881  0.8738
 9581TIP3    H228708   1.227   2.710   1.101 -0.0101  0.8400  1.6862
 9582TIP3   OH228709   2.696   1.445   1.760 -0.4666 -0.0685  0.4430
 9582TIP3    H128710   2.661   1.522   1.715  0.9017  0.7515  0.7202
 9582TIP3    H228711   2.622   1.412   1.811 -0.8767  1.5181  0.9310
 9583TIP3   OH228712   2.790   4.419   5.427  0.5323 -0.4001  0.4896
 9583TIP3    H128713   2.851   4.447   5.359  1.1045 -0.2531  1.0526
 9583TIP3    H228714   2.743   4.499   5.451  0.7168 -0.3337  0.6416
 9584TIP3   OH228715   5.502   3.834   0.452 -0.7287  0.7774  0.6856
 9584TIP3    H128716   5.596   3.841   0.432 -0.1463  0.2323  2.8849
 9584TIP3    H228717   5.480   3.744   0.428 -0.7400  0.9547  0.0144
 9585TIP3   OH228718   4.561   4.978   3.660 -0.3503 -0.1795  0.3427
 9585TIP3    H128719   4.500   5.006   3.592  0.1859 -0.6180 -0.3225
 9585TIP3    H228720   4.646   4.977   3.618 -0.2402 -2.0669  0.5451
 9586TIP3   OH228721   4.444   1.085   5.698  0.0072  0.2996 -0.4483
 9586TIP3    H128722   4.376   1.151   5.713  0.1189 -0.1028  2.3336
 9586TIP3    H228723   4.408   1.005   5.737  0.6340 -0.8512 -2.1447
 9587TIP3   OH228724   0.711   4.106   3.111  0.8721  0.0398  0.2441
 9587TIP3    H128725   0.722   4.062   3.195  2.1228  0.6639  0.4345
 9587TIP3    H228726   0.794   4.152   3.097  0.8798 -0.4121 -1.5432
 9588TIP3   OH228727   2.067   0.021   3.615 -0.4866  0.3540  0.3109
 9588TIP3    H128728   2.021   0.099   3.587 -0.9581 -0.0675 -0.1109
 9588TIP3    H228729   2.124  -0.003   3.542  0.7162  1.0860  0.9703
 9589TIP3   OH228730   4.017   3.233   2.894 -0.0735 -0.1157 -0.1137
 9589TIP3    H128731   3.996   3.155   2.843  2.8476 -2.1743  1.5011
 9589TIP3    H228732   4.002   3.306   2.834  1.0787 -2.2236 -3.2043
 9590TIP3   OH228733   5.005   2.606   2.012  0.1005  0.1833  0.1561
 9590TIP3    H128734   5.080   2.548   2.002 -0.7682 -1.3020  1.6384
 9590TIP3    H228735   5.035   2.673   2.074  0.4773  0.1382  0.0266
 9591TIP3   OH228736   3.102   3.005   1.495  0.4586 -0.3581 -0.2376
 9591TIP3    H128737   3.035   3.031   1.559  1.7224 -0.0393  0.9980
 9591TIP3    H228738   3.052   2.982   1.416 -0.9838  2.2799 -0.2105
 9592TIP3   OH228739   4.427   5.542   3.723 -0.0827 -0.3386 -0.1965
 9592TIP3    H128740   4.429   5.493   3.805  0.0755  0.6719  0.4262
 9592TIP3    H228741   4.468   5.484   3.659  1.1538 -0.5661  0.7607
 9593TIP3   OH228742   0.496   3.528   3.660  0.1130 -0.1720  0.2329
 9593TIP3    H128743   0.428   3.526   3.727  0.9022  0.9505  1.0979
 9593TIP3    H228744   0.574   3.492   3.702  0.7803  1.1020  0.1519
 9594TIP3   OH228745   5.304   2.011   4.511 -0.4598  0.3697 -0.0257
 9594TIP3    H128746   5.236   2.036   4.574 -1.2067 -0.4202 -0.4961
 9594TIP3    H228747   5.376   1.978   4.565 -1.5279 -1.3534  0.4081
 9595TIP3   OH228748   1.951   0.523   2.556  0.0207 -0.1303 -0.1146
 9595TIP3    H128749   1.937   0.508   2.463  1.3363  0.8413 -0.4953
 9595TIP3    H228750   1.914   0.610   2.573  0.4248 -0.0011  0.1142
 9596TIP3   OH228751   4.565   5.476   0.783  0.2747 -0.0467 -0.0010
 9596TIP3    H128752   4.477   5.439   0.786  0.1031  0.3415 -0.1193
 9596TIP3    H228753   4.583   5.489   0.689  0.1407  0.6036  0.0568
 9597TIP3   OH228754   4.408   0.280   3.812 -0.0655  0.2986 -0.6174
 9597TIP3    H128755   4.417   0.234   3.896  1.5511 -0.2520 -1.0652
 9597TIP3    H228756   4.342   0.229   3.765  1.0724 -1.0841 -0.7625
 9598TIP3   OH228757   3.469   5.570   4.833  0.4029 -0.5189 -0.1041
 9598TIP3    H128758   3.511   5.547   4.750 -0.7911 -1.6761 -0.4232
 9598TIP3    H228759   3.538   5.557   4.898  1.4257  0.6352 -0.9097
 9599TIP3   OH228760   1.661   1.839   2.525  0.2148  0.5634 -0.0787
 9599TIP3    H128761   1.608   1.914   2.500 -1.9342 -0.9158 -0.2526
 9599TIP3    H228762   1.699   1.863   2.610  1.7203  2.7916 -1.2707
 9600TIP3   OH228763   6.188   2.604   3.576  0.9200  0.6391 -0.5669
 9600TIP3    H128764   6.189   2.683   3.629 -0.1027 -0.0492  0.5500
 9600TIP3    H228765   6.149   2.537   3.633  1.2479 -0.5334 -1.6539
 9601TIP3   OH228766   4.154   2.327   2.451 -0.8216 -0.4526  0.1662
 9601TIP3    H128767   4.123   2.288   2.533  1.3055  0.1623  1.3435
 9601TIP3    H228768   4.108   2.411   2.447 -0.7793 -0.3879  0.8480
 9602TIP3   OH228769   6.467   5.510   5.679  0.4611 -0.2701  0.0851
 9602TIP3    H128770   6.515   5.541   5.603  0.2207 -0.0359  0.0292
 9602TIP3    H228771   6.459   5.586   5.736  2.2599 -0.8452  1.2166
 9603TIP3   OH228772   5.821   0.153   1.409  0.3948  0.1759  0.7314
 9603TIP3    H128773   5.891   0.204   1.367 -0.2198  0.2175 -0.2640
 9603TIP3    H228774   5.780   0.105   1.338 -0.2175 -0.3081  1.3967
 9604TIP3   OH228775   4.459   2.810   2.120  0.1360  0.1550  0.1327
 9604TIP3    H128776   4.549   2.786   2.143  0.0120 -1.4552 -0.9268
 9604TIP3    H228777   4.461   2.823   2.025 -0.8689 -0.5860 -0.0084
 9605TIP3   OH228778   2.653   1.278   2.915 -0.1885 -0.0961 -0.1779
 9605TIP3    H128779   2.580   1.240   2.964  0.7092 -1.6915 -0.0171
 9605TIP3    H228780   2.624   1.367   2.895 -1.5450 -0.1886  1.1794
 9606TIP3   OH228781   6.000   2.699   0.995  1.1213 -0.0421  0.4894
 9606TIP3    H128782   5.942   2.624   1.007 -0.0242  0.7328  0.0823
 9606TIP3    H228783   5.958   2.750   0.925  2.4438  0.4280  0.0086
 9607TIP3   OH228784   3.757   4.264   0.718 -0.0538 -0.0648  0.4304
 9607TIP3    H128785   3.763   4.308   0.802 -1.6928  1.7401 -0.3182
 9607TIP3    H228786   3.679   4.209   0.725 -0.0676 -0.0819  0.1579
 9608TIP3   OH228787   6.757   2.591   4.328 -0.0155  0.0967 -0.0962
 9608TIP3    H128788   6.802   2.520   4.374 -0.4038  1.2089  2.1571
 9608TIP3    H228789   6.667   2.560   4.317 -0.0601  0.0172  0.4428
 9609TIP3   OH228790   1.912   3.267   3.170 -0.0083 -0.9703  0.0223
 9609TIP3    H128791   1.818   3.252   3.175 -0.1311 -0.0250  0.8128
 9609TIP3    H228792   1.941   3.275   3.261  0.1926  2.3509 -0.2172
 9610TIP3   OH228793   2.303   4.950   5.352 -0.6861  0.0339  0.0096
 9610TIP3    H128794   2.398   4.957   5.357 -0.1807 -2.8153 -2.7577
 9610TIP3    H228795   2.277   4.921   5.440  0.7805  1.7837  1.1062
 9611TIP3   OH228796   4.123   3.052   3.575 -0.1702 -0.3882 -0.2426
 9611TIP3    H128797   4.153   3.101   3.652 -0.4342  0.2856 -0.5614
 9611TIP3    H228798   4.030   3.037   3.592 -0.2889 -0.0095 -0.5435
 9612TIP3   OH228799   1.590   0.167   3.444  0.1966 -0.3186 -0.5518
 9612TIP3    H128800   1.597   0.207   3.530 -0.2040  0.1442 -0.7264
 9612TIP3    H228801   1.619   0.234   3.383  1.7521 -1.0861 -0.7062
 9613TIP3   OH228802   7.069   2.980   0.449 -0.0002  0.0407 -0.0637
 9613TIP3    H128803   7.085   2.998   0.542  0.1531 -0.3517 -0.0129
 9613TIP3    H228804   6.992   2.923   0.449 -0.1688  0.2681 -0.1938
 9614TIP3   OH228805   5.000   2.275   1.911 -0.1859  0.1475 -0.0709
 9614TIP3    H128806   4.980   2.261   1.819 -0.3194  0.1646 -0.0452
 9614TIP3    H228807   5.095   2.273   1.916 -0.1815  0.0722 -0.1967
 9615TIP3   OH228808   5.051   5.695   5.005  0.1250  0.1824  0.0668
 9615TIP3    H128809   5.055   5.630   4.936  0.7191  0.2500  0.0332
 9615TIP3    H228810   5.119   5.669   5.067  1.6713  1.8162 -0.8677
 9616TIP3   OH228811   7.017   4.294   1.739  0.2904  0.3588  0.1314
 9616TIP3    H128812   7.112   4.307   1.748  0.1406  1.5986  0.1546
 9616TIP3    H228813   6.990   4.253   1.821  0.5480  1.6764  0.9021
 9617TIP3   OH228814   3.543   5.559   0.726  0.0564 -0.2917 -0.0929
 9617TIP3    H128815   3.627   5.577   0.770  1.1698 -2.3162 -1.2377
 9617TIP3    H228816   3.503   5.489   0.778 -0.1263 -0.4828 -0.4871
 9618TIP3   OH228817   2.089   0.286   2.383  0.1534  0.4694  0.6422
 9618TIP3    H128818   2.037   0.214   2.348 -0.3967 -1.1070  4.1875
 9618TIP3    H228819   2.176   0.273   2.348 -0.3993 -0.7353 -0.3420
 9619TIP3   OH228820   2.831   2.141   1.081 -0.0774 -0.2203 -0.0748
 9619TIP3    H128821   2.897   2.094   1.030  0.3105  0.1448  0.0745
 9619TIP3    H228822   2.871   2.152   1.167  0.5352  1.7390 -0.5355
 9620TIP3   OH228823   0.460   6.611   0.987  0.2585 -0.0350 -0.6897
 9620TIP3    H128824   0.483   6.644   0.900 -0.9787 -0.0445 -1.0329
 9620TIP3    H228825   0.544   6.607   1.034  0.7204  1.5778 -1.3198
 9621TIP3   OH228826   0.751   4.070   5.352  0.3954  0.5779  0.3005
 9621TIP3    H128827   0.810   4.077   5.277  0.0622  0.1752 -0.0074
 9621TIP3    H228828   0.749   4.158   5.390  0.3586  0.8535 -0.3298
 9622TIP3   OH228829   4.338   2.662   3.601 -0.2650 -0.1217 -0.0486
 9622TIP3    H128830   4.319   2.728   3.668  1.2411  0.1473  0.1283
 9622TIP3    H228831   4.418   2.692   3.559  0.0076 -1.4282 -0.5020
 9623TIP3   OH228832   4.438   6.153   1.165  0.5601  0.3722  0.0328
 9623TIP3    H128833   4.425   6.151   1.070  1.0869  0.7883 -0.0513
 9623TIP3    H228834   4.360   6.109   1.201  0.2079  0.4926 -0.5718
 9624TIP3   OH228835   3.108   2.920   2.246  0.3262 -0.4148  0.4645
 9624TIP3    H128836   3.039   2.929   2.312 -1.2653  0.3503 -1.2261
 9624TIP3    H228837   3.065   2.880   2.171  1.1884  1.8010 -1.3336
 9625TIP3   OH228838   1.272   1.116   0.571  0.5005 -0.1188  0.2275
 9625TIP3    H128839   1.202   1.054   0.547  1.7716 -1.2634 -0.6386
 9625TIP3    H228840   1.226   1.199   0.584 -1.0013 -0.7692 -0.6192
 9626TIP3   OH228841   4.215   5.004   1.166 -0.4658  0.4174 -0.1592
 9626TIP3    H128842   4.161   5.080   1.189 -0.1370  0.5581  0.1520
 9626TIP3    H228843   4.214   4.950   1.245  0.3400  0.7117  0.0684
 9627TIP3   OH228844   4.774   5.424   4.155  0.4610  0.3725 -0.6971
 9627TIP3    H128845   4.748   5.504   4.202  0.4576 -0.8726  1.5799
 9627TIP3    H228846   4.721   5.355   4.195  1.4853 -0.9865 -1.6100
 9628TIP3   OH228847   1.315   2.837   4.211 -0.0473 -0.6810  0.1625
 9628TIP3    H128848   1.337   2.766   4.151  0.9902 -1.1002  1.0054
 9628TIP3    H228849   1.341   2.805   4.297 -0.7260  0.2384  0.7309
 9629TIP3   OH228850   1.254   5.441   1.086 -0.3397  0.4889 -0.4324
 9629TIP3    H128851   1.265   5.395   1.003  1.2895  0.4403 -0.2086
 9629TIP3    H228852   1.338   5.484   1.102 -0.9536  1.3390  0.7007
 9630TIP3   OH228853   0.216   5.192   1.252  0.0069  0.6138  0.1945
 9630TIP3    H128854   0.271   5.255   1.205 -2.1992  0.2687 -3.1852
 9630TIP3    H228855   0.249   5.106   1.224 -0.6649  0.3671  0.1569
 9631TIP3   OH228856   2.243   0.010   0.232  0.1817 -0.2904 -0.1057
 9631TIP3    H128857   2.332  -0.021   0.250  0.1912 -0.1672  0.0643
 9631TIP3    H228858   2.228   0.077   0.298 -0.7992 -1.7208  1.2102
 9632TIP3   OH228859   5.785   1.652   5.162 -0.0973  0.0232  0.2542
 9632TIP3    H128860   5.690   1.645   5.170 -0.1393  0.1447 -0.1438
 9632TIP3    H228861   5.816   1.561   5.161 -0.2256 -0.0187  0.1574
 9633TIP3   OH228862   3.116   4.145   4.089 -0.2783  0.3325 -0.5679
 9633TIP3    H128863   3.076   4.138   4.176 -0.6750 -2.2236 -0.8924
 9633TIP3    H228864   3.208   4.121   4.103 -0.9327 -2.9731 -1.1963
 9634TIP3   OH228865   7.118   6.049   0.221  0.0931 -1.1191 -0.4871
 9634TIP3    H128866   7.154   6.095   0.298 -1.4071  1.7068 -1.3259
 9634TIP3    H228867   7.089   5.965   0.255  1.1907 -0.7279  1.6150
 9635TIP3   OH228868   5.976   2.925   2.239  0.2672  0.4430  0.1385
 9635TIP3    H128869   5.925   2.996   2.202 -0.4444 -1.3443 -2.5680
 9635TIP3    H228870   5.914   2.875   2.292  0.0872  0.2579 -0.2497
 9636TIP3   OH228871   2.941   0.724   0.203  0.7732 -0.4099  0.3560
 9636TIP3    H128872   2.970   0.807   0.165  1.8469 -1.7110 -1.8703
 9636TIP3    H228873   2.854   0.744   0.239  0.6235  1.4598 -0.8857
 9637TIP3   OH228874   6.023   3.626   0.831  0.2892 -0.0278 -0.1251
 9637TIP3    H128875   6.035   3.700   0.772  1.5887 -0.5683 -0.5864
 9637TIP3    H228876   6.099   3.628   0.889  0.5295 -1.1897 -0.3672
 9638TIP3   OH228877   2.285   1.243   5.072 -0.1757 -0.0034 -0.1279
 9638TIP3    H128878   2.258   1.332   5.049  1.8424  0.4861 -0.8618
 9638TIP3    H228879   2.230   1.186   5.018 -1.0899  0.8105 -0.0733
 9639TIP3   OH228880   2.638   0.813   5.091  0.5280  0.4094 -0.5058
 9639TIP3    H128881   2.683   0.879   5.039  0.3690  1.3104  0.4571
 9639TIP3    H228882   2.609   0.860   5.170  0.9664 -0.9534  0.5071
 9640TIP3   OH228883   5.145   3.925   1.238 -0.3403 -0.5052 -0.2827
 9640TIP3    H128884   5.145   3.928   1.143  1.6825 -1.3541 -0.3575
 9640TIP3    H228885   5.058   3.891   1.261  0.0326 -2.8464 -1.9604
 9641TIP3   OH228886   2.637   5.759   0.424 -0.0429  0.1911  0.3429
 9641TIP3    H128887   2.662   5.739   0.334  1.8185 -1.1067  1.0882
 9641TIP3    H228888   2.631   5.674   0.467  1.3744  0.8536  1.9784
 9642TIP3   OH228889   3.365   6.434   4.613  0.0041 -0.7041  0.7419
 9642TIP3    H128890   3.319   6.353   4.636 -1.7845  0.4484  1.3831
 9642TIP3    H228891   3.452   6.404   4.584 -1.6273 -3.1399 -2.2707
 9643TIP3   OH228892   0.006   3.384   3.624 -0.5543 -1.1470  0.3679
 9643TIP3    H128893   0.086   3.333   3.617 -0.5672 -1.1597  0.3122
 9643TIP3    H228894   0.022   3.463   3.571 -1.0737 -1.7832 -0.7752
 9644TIP3   OH228895   5.559   0.870   2.635  0.2250 -0.0963 -0.2469
 9644TIP3    H128896   5.465   0.875   2.651  0.1123  1.3814 -1.1336
 9644TIP3    H228897   5.599   0.899   2.717 -0.1762  1.4529 -0.5605
 9645TIP3   OH228898   1.944   3.425   4.094  0.1278  0.0180  0.2519
 9645TIP3    H128899   1.929   3.484   4.168 -0.3785  0.0920  0.0928
 9645TIP3    H228900   2.013   3.468   4.043 -0.7233  0.8486 -0.2453
 9646TIP3   OH228901   4.364   2.761   5.577  0.6368 -0.5709  0.8528
 9646TIP3    H128902   4.345   2.853   5.558  1.4647 -0.0621  2.3442
 9646TIP3    H228903   4.437   2.739   5.519 -1.2696 -1.1599 -1.5099
 9647TIP3   OH228904   6.450   3.125   5.713  0.4775 -0.6511 -0.4988
 9647TIP3    H128905   6.474   3.171   5.793 -1.5303 -1.6454  0.7370
 9647TIP3    H228906   6.533   3.112   5.667  1.4891  1.2974  0.6331
 9648TIP3   OH228907   6.869   2.565   5.002 -0.5004  0.5934  0.6295
 9648TIP3    H128908   6.790   2.582   5.054  0.3430 -0.0479  2.2184
 9648TIP3    H228909   6.929   2.635   5.027 -0.2569  0.5816  0.0873
 9649TIP3   OH228910   0.064   3.639   3.463 -0.0979 -0.1814 -0.2534
 9649TIP3    H128911   0.048   3.579   3.390 -0.2368 -1.2179  0.5981
 9649TIP3    H228912   0.159   3.644   3.469 -0.0659  0.9184 -1.2836
 9650TIP3   OH228913   1.453   3.897   4.354 -0.1413  0.1766  0.2640
 9650TIP3    H128914   1.418   3.979   4.318  2.4243  2.2352  2.1035
 9650TIP3    H228915   1.539   3.888   4.313  0.0629 -1.0382  0.9282
 9651TIP3   OH228916   3.372   5.287   4.663 -0.5103  0.7519  0.2058
 9651TIP3    H128917   3.392   5.302   4.755 -0.7374  0.3469  0.3235
 9651TIP3    H228918   3.313   5.359   4.639 -0.9375  0.5137  0.5398
 9652TIP3   OH228919   6.968   2.879   2.810  0.2305  0.3372 -0.2172
 9652TIP3    H128920   6.912   2.955   2.794 -0.3483 -0.1865 -0.7801
 9652TIP3    H228921   6.969   2.869   2.905 -1.2715 -0.0790 -0.2107
 9653TIP3   OH228922   0.643   2.970   5.396 -0.1729  0.3480 -0.6108
 9653TIP3    H128923   0.564   3.004   5.354 -1.1697  0.3482  1.1630
 9653TIP3    H228924   0.642   2.876   5.374 -1.3397  0.1056  0.3296
 9654TIP3   OH228925   2.654   5.405   4.873 -1.1713  0.0626 -0.0227
 9654TIP3    H128926   2.631   5.340   4.939 -0.6939 -0.1887 -0.0997
 9654TIP3    H228927   2.632   5.489   4.914  0.7770  0.0434  1.1856
 9655TIP3   OH228928   3.973   1.519   3.615 -0.1696 -0.4418  0.0068
 9655TIP3    H128929   3.966   1.491   3.706 -0.4980  0.0172  0.1279
 9655TIP3    H228930   4.027   1.597   3.618 -1.3030  0.3684 -0.0131
 9656TIP3   OH228931   0.072   3.627   2.477 -0.4636 -0.4224  0.3252
 9656TIP3    H128932   0.163   3.615   2.503 -0.2170 -1.7738 -1.0017
 9656TIP3    H228933   0.040   3.538   2.462 -1.2922  0.1347 -1.5012
 9657TIP3   OH228934   3.887   5.135   4.909  0.2584 -0.0330 -0.2999
 9657TIP3    H128935   3.949   5.192   4.864 -2.0450  2.5748 -0.4458
 9657TIP3    H228936   3.801   5.160   4.875 -1.0831 -2.1226  1.2561
 9658TIP3   OH228937   6.388   0.951   3.400 -0.4366  0.1699 -0.1144
 9658TIP3    H128938   6.422   1.010   3.468 -0.4745  0.7316 -0.5743
 9658TIP3    H228939   6.462   0.893   3.380  0.0304  0.9043 -0.5776
 9659TIP3   OH228940   0.497   6.820   5.310  0.5202 -0.6671 -0.1021
 9659TIP3    H128941   0.444   6.748   5.276 -0.8141  0.3412 -0.2646
 9659TIP3    H228942   0.546   6.782   5.383  0.4392 -1.9100 -0.6706
 9660TIP3   OH228943   6.326   1.298   4.754 -0.0542 -0.1544  0.3250
 9660TIP3    H128944   6.417   1.310   4.726  0.0542 -0.2775  0.6217
 9660TIP3    H228945   6.322   1.335   4.842 -0.8793  2.0575 -0.5793
 9661TIP3   OH228946   1.035   0.284   2.900  0.3174 -0.2536  0.5062
 9661TIP3    H128947   1.043   0.255   2.809 -0.6463  1.5613 -0.1945
 9661TIP3    H228948   1.058   0.207   2.952 -0.0699 -1.6142 -1.2671
 9662TIP3   OH228949   5.683   0.129   0.372  0.2172 -0.5706  0.1689
 9662TIP3    H128950   5.658   0.063   0.307  1.0327 -0.8323  0.1115
 9662TIP3    H228951   5.637   0.208   0.344 -0.1353 -0.9057 -0.2232
 9663TIP3   OH228952   1.533   5.378   2.198 -0.4316 -0.1704  0.4413
 9663TIP3    H128953   1.490   5.338   2.273 -1.7871  0.3618 -0.0181
 9663TIP3    H228954   1.586   5.308   2.160  1.2806 -0.1293  2.5793
 9664TIP3   OH228955   3.191   4.192   0.888 -0.3648  0.4062  0.0640
 9664TIP3    H128956   3.125   4.258   0.871 -1.5656 -0.8347 -0.2117
 9664TIP3    H228957   3.210   4.153   0.802 -1.0578 -0.8718  0.4674
 9665TIP3   OH228958   3.608   5.611   5.370  0.0746 -0.3440 -0.3922
 9665TIP3    H128959   3.663   5.668   5.424  0.1695 -0.8104  0.0085
 9665TIP3    H228960   3.657   5.530   5.362 -1.6606 -1.8123  2.2574
 9666TIP3   OH228961   3.569   4.951   2.980  0.3042  0.3380  0.2172
 9666TIP3    H128962   3.546   5.041   2.957 -1.5603 -0.2029 -0.1741
 9666TIP3    H228963   3.497   4.922   3.037  0.0292 -1.4060 -0.9437
 9667TIP3   OH228964   6.416   1.875   4.190  0.4094  0.4987  0.6550
 9667TIP3    H128965   6.333   1.834   4.165  2.0751 -1.1425 -2.8201
 9667TIP3    H228966   6.405   1.967   4.168 -0.3696  0.2215 -0.1518
 9668TIP3   OH228967   3.953   2.323   5.036 -0.5889 -0.2430 -0.2651
 9668TIP3    H128968   3.917   2.282   4.957  1.0176 -0.6653 -0.8140
 9668TIP3    H228969   4.021   2.262   5.066 -0.3807  0.4745  0.7944
 9669TIP3   OH228970   4.467   5.480   2.443 -0.0563 -0.9345  0.7124
 9669TIP3    H128971   4.396   5.416   2.436 -0.0525 -0.7713 -1.6951
 9669TIP3    H228972   4.428   5.563   2.414  0.9559 -0.7219 -0.1018
 9670TIP3   OH228973   3.697   5.837   1.775 -0.2462  0.2298  0.2851
 9670TIP3    H128974   3.767   5.797   1.723 -0.3526 -0.0407  0.3446
 9670TIP3    H228975   3.638   5.764   1.795 -0.6930  0.5022 -0.0053
 9671TIP3   OH228976   5.063   2.202   2.524 -0.0219 -0.2382 -0.0684
 9671TIP3    H128977   5.082   2.290   2.492 -2.4585  0.4774  0.2161
 9671TIP3    H228978   4.977   2.181   2.486 -0.0951 -1.9319  0.9408
 9672TIP3   OH228979   2.109   5.492   2.141 -0.2433  0.3958  0.0999
 9672TIP3    H128980   2.100   5.574   2.190 -1.4148  0.0902  0.4079
 9672TIP3    H228981   2.198   5.496   2.106 -0.0546  1.5039  0.6459
 9673TIP3   OH228982   3.996   5.851   2.948  0.9834 -0.7410 -0.3033
 9673TIP3    H128983   4.019   5.766   2.985  0.2895 -0.9874 -0.4224
 9673TIP3    H228984   3.991   5.909   3.023  2.3926 -0.5816 -0.3179
 9674TIP3   OH228985   4.525   5.549   4.460 -0.0714 -0.0806 -0.5637
 9674TIP3    H128986   4.597   5.599   4.420  1.2916 -0.8869  0.7737
 9674TIP3    H228987   4.568   5.476   4.503 -1.6925 -0.4547  0.4895
 9675TIP3   OH228988   0.488   5.349   2.727  0.4420  0.4956  0.1642
 9675TIP3    H128989   0.583   5.361   2.734  0.4447  2.0920 -1.7324
 9675TIP3    H228990   0.454   5.378   2.811  1.5587  0.9727  0.4783
 9676TIP3   OH228991   6.030   2.781   1.702 -0.1747 -0.1079 -0.4608
 9676TIP3    H128992   5.985   2.851   1.750  2.3272  1.7506 -0.6304
 9676TIP3    H228993   6.118   2.778   1.740  0.0818 -2.6736 -1.0261
 9677TIP3   OH228994   2.418   6.553   4.728  0.4716 -0.0596 -0.1729
 9677TIP3    H128995   2.493   6.498   4.707 -0.1202 -1.2670  0.7161
 9677TIP3    H228996   2.342   6.502   4.702 -0.1397 -0.1835  1.6890
 9678TIP3   OH228997   4.057   1.752   3.334  0.2787 -0.1783 -0.3938
 9678TIP3    H128998   4.093   1.670   3.301 -0.9318 -0.1543 -1.8537
 9678TIP3    H228999   3.962   1.739   3.332  0.0827  1.1144 -0.2567
 9679TIP3   OH229000   5.287   1.159   4.340  0.4856 -0.2110  0.1702
 9679TIP3    H129001   5.288   1.219   4.266 -0.2785 -1.4413 -0.8865
 9679TIP3    H229002   5.206   1.108   4.329  1.6534 -2.2065  0.3428
 9680TIP3   OH229003   6.211   0.574   2.664  0.6335  0.4010  0.0937
 9680TIP3    H129004   6.168   0.498   2.626 -0.7561  1.4318 -0.4742
 9680TIP3    H229005   6.303   0.564   2.641  0.2425 -0.3809 -1.1869
 9681TIP3   OH229006   5.815   4.462   4.771  0.4116  0.4493  0.5341
 9681TIP3    H129007   5.761   4.540   4.765 -0.1529  0.1561  1.4692
 9681TIP3    H229008   5.902   4.490   4.746  0.0593  1.2025  0.1352
 9682TIP3   OH229009   4.231   0.575   1.639  0.0594 -0.3308 -0.5824
 9682TIP3    H129010   4.280   0.615   1.567 -1.8436 -0.2217 -1.9131
 9682TIP3    H229011   4.199   0.492   1.603 -1.0085 -0.2373  0.0829
 9683TIP3   OH229012   4.803   6.579   4.640 -0.5848  0.4591  0.2006
 9683TIP3    H129013   4.802   6.536   4.726 -1.6040 -0.4487 -0.2405
 9683TIP3    H229014   4.894   6.602   4.625 -0.5379  1.6197  2.0056
 9684TIP3   OH229015   1.393   5.584   5.294 -0.2007 -0.4482 -0.3598
 9684TIP3    H129016   1.392   5.532   5.374  0.6540 -0.2834 -0.2232
 9684TIP3    H229017   1.390   5.520   5.223  0.2429 -0.6593 -0.1914
 9685TIP3   OH229018   7.115   3.970   1.641  0.0466 -0.3885 -0.9090
 9685TIP3    H129019   7.064   3.950   1.719  0.7261  1.0363 -0.0502
 9685TIP3    H229020   7.080   4.054   1.610  1.5786  0.4458 -0.4963
 9686TIP3   OH229021   6.322   3.515   3.093  0.0422  0.4456  0.4022
 9686TIP3    H129022   6.361   3.537   3.008 -0.4051 -0.6116 -0.0965
 9686TIP3    H229023   6.331   3.420   3.100 -0.7964  0.3979  1.0969
 9687TIP3   OH229024   0.035   0.412   4.944  0.0067  0.6831 -0.5131
 9687TIP3    H129025   0.042   0.475   4.873  0.0434  0.4989 -0.6734
 9687TIP3    H229026   0.095   0.342   4.921 -1.6741 -0.5206 -1.4905
 9688TIP3   OH229027   1.782   2.330   5.216 -0.2250  0.3613 -0.5973
 9688TIP3    H129028   1.785   2.375   5.301 -1.9373 -0.3084 -0.1371
 9688TIP3    H229029   1.809   2.396   5.153  1.3148  0.8147  0.4802
 9689TIP3   OH229030   0.228   1.224   4.352 -0.2025 -0.4884 -0.1076
 9689TIP3    H129031   0.228   1.319   4.361  0.1226 -0.2514 -2.0455
 9689TIP3    H229032   0.310   1.204   4.306 -0.7314 -1.5847 -0.6247
 9690TIP3   OH229033   3.297   5.166   0.604  0.0538 -0.3281 -0.2432
 9690TIP3    H129034   3.210   5.184   0.570  0.0530 -1.1647 -0.7127
 9690TIP3    H229035   3.345   5.248   0.592 -0.3117 -0.2318 -1.1469
 9691TIP3   OH229036   1.505   3.519   5.684 -0.0610  0.0272 -0.2665
 9691TIP3    H129037   1.537   3.597   5.638  1.9638 -0.6447 -0.0692
 9691TIP3    H229038   1.519   3.447   5.622  0.7161 -0.5766  0.5941
 9692TIP3   OH229039   1.855   1.697   5.809 -0.3084 -0.0136  0.5551
 9692TIP3    H129040   1.847   1.730   5.898  1.5746 -0.2063  0.8411
 9692TIP3    H229041   1.854   1.776   5.754 -0.6261  0.1644  0.8113
 9693TIP3   OH229042   3.167   2.282   2.096 -0.1441 -0.2257  0.1328
 9693TIP3    H129043   3.236   2.288   2.029  1.2847 -0.2047  1.5453
 9693TIP3    H229044   3.179   2.195   2.134 -0.9004 -0.2163  0.4072
 9694TIP3   OH229045   5.718   4.605   2.902  0.2280 -0.0882 -0.1318
 9694TIP3    H129046   5.671   4.549   2.841 -2.4075 -0.0460  1.6969
 9694TIP3    H229047   5.690   4.575   2.989  1.4810  1.7701  0.9936
 9695TIP3   OH229048   0.999   2.003   1.357  0.1095  0.4681 -0.4236
 9695TIP3    H129049   0.922   2.049   1.391  0.2979  2.0552 -1.9878
 9695TIP3    H229050   1.050   1.981   1.434 -0.3508  2.2930  0.4514
 9696TIP3   OH229051   3.373   5.318   4.089 -0.4404  0.1653 -0.0422
 9696TIP3    H129052   3.355   5.376   4.163 -0.5861 -1.5087  1.2886
 9696TIP3    H229053   3.332   5.235   4.113 -3.1591  0.3297 -3.3107
 9697TIP3   OH229054   0.266   1.086   0.201  0.6070  0.2891 -0.0168
 9697TIP3    H129055   0.274   1.170   0.246 -1.8042 -0.3308  1.7928
 9697TIP3    H229056   0.277   1.020   0.270 -0.7525 -0.7642 -0.7522
 9698TIP3   OH229057   5.456   0.343   0.102 -0.0474 -0.8383  0.1380
 9698TIP3    H129058   5.369   0.383   0.104  0.7758  1.2536 -1.3478
 9698TIP3    H229059   5.500   0.378   0.180  0.4276  0.6681 -0.7668
 9699TIP3   OH229060   4.116   1.691   0.658 -0.0773 -0.1696 -0.0518
 9699TIP3    H129061   4.084   1.641   0.733  0.2118  0.5936  0.5967
 9699TIP3    H229062   4.203   1.656   0.641 -0.5786 -1.1122 -0.7601
 9700TIP3   OH229063   3.867   5.354   3.840 -0.0630 -0.2720 -0.3320
 9700TIP3    H129064   3.807   5.401   3.898  0.9071 -1.4972  1.7912
 9700TIP3    H229065   3.949   5.404   3.846 -0.3651  0.4612 -1.9144
 9701TIP3   OH229066   5.805   3.142   3.532  0.2735 -0.1328  0.0485
 9701TIP3    H129067   5.742   3.071   3.545 -0.5505  0.1385 -2.1298
 9701TIP3    H229068   5.755   3.213   3.492  1.7392  0.4464 -0.8568
 9702TIP3   OH229069   3.679   3.462   4.851  0.2106 -0.3602  0.2158
 9702TIP3    H129070   3.590   3.475   4.883 -0.3340 -0.2029 -1.2738
 9702TIP3    H229071   3.710   3.384   4.897 -0.1314  0.4397  1.8539
 9703TIP3   OH229072   6.310   0.133   4.237 -0.2144  0.2540 -0.4496
 9703TIP3    H129073   6.292   0.219   4.199  1.8269  0.3403 -1.3558
 9703TIP3    H229074   6.261   0.072   4.182 -0.6352  0.7196 -0.6018
 9704TIP3   OH229075   4.081   2.956   0.828  0.4383 -0.3068  0.5522
 9704TIP3    H129076   4.002   2.917   0.792  0.1626  0.9825 -0.3200
 9704TIP3    H229077   4.080   3.046   0.796  1.6382  0.0878  1.5275
 9705TIP3   OH229078   7.194   6.364   4.841 -0.4436 -0.1723  0.1696
 9705TIP3    H129079   7.232   6.321   4.765 -0.2388 -1.7751  1.1254
 9705TIP3    H229080   7.114   6.404   4.810  0.6742  1.0163 -1.3259
 9706TIP3   OH229081   4.818   3.468   4.509 -0.2070  0.3477  0.2065
 9706TIP3    H129082   4.879   3.503   4.444 -0.8261  0.0279 -0.5662
 9706TIP3    H229083   4.854   3.382   4.531 -0.0560  0.4098  0.2026
 9707TIP3   OH229084   6.747   5.557   5.567 -0.3509  0.6746 -0.7873
 9707TIP3    H129085   6.694   5.606   5.505 -1.4281  1.0141  0.3704
 9707TIP3    H229086   6.835   5.558   5.529 -1.1677 -0.0758 -2.8411
 9708TIP3   OH229087   6.831   4.401   4.511 -0.3721  0.3918  0.3325
 9708TIP3    H129088   6.921   4.427   4.489  0.1502 -0.9294  0.8150
 9708TIP3    H229089   6.795   4.368   4.429 -1.0748  2.6064 -0.3135
 9709TIP3   OH229090   2.002   0.887   0.177  0.2005 -0.4414 -0.1422
 9709TIP3    H129091   1.918   0.916   0.211 -0.5011  0.1145 -2.1736
 9709TIP3    H229092   2.064   0.954   0.205 -0.1777 -0.4344  0.6967
 9710TIP3   OH229093   4.909   6.387   2.457  0.1156  0.1764 -0.0961
 9710TIP3    H129094   5.000   6.387   2.427  0.1351  1.5265 -0.0859
 9710TIP3    H229095   4.898   6.472   2.499 -1.5385  0.5791 -1.2830
 9711TIP3   OH229096   0.770   1.629   1.116  0.0897 -0.2472 -0.4148
 9711TIP3    H129097   0.695   1.574   1.138  0.4165 -1.3721 -1.9717
 9711TIP3    H229098   0.733   1.706   1.075 -0.4100  1.0422  2.2623
 9712TIP3   OH229099   1.180   5.323   2.000 -0.5571  0.0914  0.1591
 9712TIP3    H129100   1.236   5.379   1.946 -0.3319 -0.8783 -0.6279
 9712TIP3    H229101   1.183   5.237   1.958 -3.2486  0.1675 -0.3555
 9713TIP3   OH229102   4.375   3.543   1.856  0.4128  0.5278  0.1361
 9713TIP3    H129103   4.453   3.488   1.860 -0.1254 -0.1741  2.3689
 9713TIP3    H229104   4.405   3.629   1.886 -0.1304 -0.4747  4.1139
 9714TIP3   OH229105   2.813   6.512   2.646 -0.4001 -0.4569 -0.1799
 9714TIP3    H129106   2.815   6.449   2.573  0.5381 -1.5240  0.7276
 9714TIP3    H229107   2.904   6.527   2.668 -0.5757  1.6728 -0.6887
 9715TIP3   OH229108   0.853   5.524   1.879  0.4772 -0.2441  0.9814
 9715TIP3    H129109   0.899   5.443   1.855  2.7980  1.1742  0.3314
 9715TIP3    H229110   0.774   5.523   1.825  1.8493 -0.7885 -1.1415
 9716TIP3   OH229111   3.766   3.233   4.358  0.5671 -0.0211  0.6850
 9716TIP3    H129112   3.827   3.300   4.327  0.3219  0.3085  0.9094
 9716TIP3    H229113   3.811   3.193   4.433  0.6871 -0.0709  0.5880
 9717TIP3   OH229114   1.693   1.719   0.818  0.2051 -0.3901  0.3468
 9717TIP3    H129115   1.693   1.804   0.862 -3.5725 -0.2913  0.4110
 9717TIP3    H229116   1.678   1.739   0.726  0.3363 -0.9589  0.1953
 9718TIP3   OH229117   5.389   5.965   1.798  0.3616  0.0087  0.6450
 9718TIP3    H129118   5.369   5.925   1.882  0.2247 -1.6833 -0.1540
 9718TIP3    H229119   5.476   6.004   1.810  0.5874 -0.7012  1.4036
 9719TIP3   OH229120   0.689   4.356   5.461  0.1708 -0.1689  0.3134
 9719TIP3    H129121   0.607   4.406   5.462 -0.0082 -0.3979 -1.0646
 9719TIP3    H229122   0.699   4.324   5.551 -0.9970  0.2616  0.6117
 9720TIP3   OH229123   6.680   5.319   5.191 -0.2819 -0.3109  0.0021
 9720TIP3    H129124   6.744   5.377   5.150 -0.5125  0.7611  1.1063
 9720TIP3    H229125   6.653   5.260   5.121 -0.2591  1.0979 -1.2419
 9721TIP3   OH229126   1.579   6.056   4.378 -0.4300  0.1009 -0.5366
 9721TIP3    H129127   1.535   6.016   4.454  0.1251  1.1385  0.3642
 9721TIP3    H229128   1.556   6.000   4.305 -2.7572  0.2594  0.0041
 9722TIP3   OH229129   6.098   1.168   2.688  0.2791  0.0506 -0.0001
 9722TIP3    H129130   6.158   1.237   2.715  0.4592  0.4353 -1.2977
 9722TIP3    H229131   6.102   1.103   2.758  2.2043  0.0640 -0.0610
 9723TIP3   OH229132   1.578   1.543   0.503 -0.7674  0.0809 -0.2613
 9723TIP3    H129133   1.603   1.631   0.531 -0.2920 -0.5559  1.4535
 9723TIP3    H229134   1.514   1.514   0.568  0.3335 -1.4532  0.2126
 9724TIP3   OH229135   5.908   6.313   4.078 -0.3276 -0.1283  0.6923
 9724TIP3    H129136   5.927   6.353   3.993  2.1751 -1.0617  0.7410
 9724TIP3    H229137   5.907   6.387   4.139 -1.0116  0.4166  0.0456
 9725TIP3   OH229138   5.875   6.634   5.052  0.2366 -1.1624 -0.2493
 9725TIP3    H129139   5.885   6.541   5.031 -0.2065 -0.7739 -2.3148
 9725TIP3    H229140   5.780   6.647   5.061  0.1933 -0.6271 -1.4055
 9726TIP3   OH229141   3.872   5.458   4.970  0.1153 -0.0592 -0.0070
 9726TIP3    H129142   3.962   5.474   4.998  0.3263 -0.3356 -0.5037
 9726TIP3    H229143   3.878   5.451   4.874 -0.1384 -1.8382  0.0689
 9727TIP3   OH229144   0.360   6.594   5.187 -0.2218 -0.1310  0.0444
 9727TIP3    H129145   0.283   6.576   5.133 -1.3364 -0.5955  1.7237
 9727TIP3    H229146   0.386   6.509   5.221 -0.1475  0.2668  1.0150
 9728TIP3   OH229147   0.184   5.492   2.866  0.0342 -0.1519  0.2483
 9728TIP3    H129148   0.182   5.585   2.892 -0.4791  0.0972 -0.6287
 9728TIP3    H229149   0.117   5.486   2.798  1.1767 -0.8230 -0.8478
 9729TIP3   OH229150   1.019   3.798   2.071  0.1035 -0.4224 -0.1097
 9729TIP3    H129151   1.006   3.890   2.048 -1.8231 -0.7924 -0.6898
 9729TIP3    H229152   0.997   3.793   2.164  1.5937 -0.0744  0.2845
 9730TIP3   OH229153   1.455   5.733   4.863 -0.4708  0.0166 -0.1083
 9730TIP3    H129154   1.457   5.800   4.931  0.1168  0.9207 -1.0008
 9730TIP3    H229155   1.371   5.746   4.818 -0.2949  0.2468 -0.3711
 9731TIP3   OH229156   5.300   3.778   2.901  0.6244  0.0084 -0.2885
 9731TIP3    H129157   5.267   3.703   2.949 -0.3088  0.2314 -0.5581
 9731TIP3    H229158   5.308   3.847   2.967  0.1032  0.0813 -0.2919
 9732TIP3   OH229159   3.792   5.845   1.410 -0.1988 -0.1888 -0.3208
 9732TIP3    H129160   3.720   5.788   1.437 -0.1491  0.3150  0.9227
 9732TIP3    H229161   3.752   5.931   1.398  0.0653 -0.0624 -0.3018
 9733TIP3   OH229162   6.019   1.463   2.530 -0.1562 -0.4510 -0.0872
 9733TIP3    H129163   6.006   1.452   2.624 -1.6315  2.1195  0.0962
 9733TIP3    H229164   6.105   1.503   2.522 -0.2295 -0.2301  0.2095
 9734TIP3   OH229165   6.156   1.576   2.995  0.1331 -0.6645  0.7036
 9734TIP3    H129166   6.190   1.489   3.015 -0.6516 -0.5881  2.5750
 9734TIP3    H229167   6.227   1.619   2.948  0.3628 -2.4430 -0.6507
 9735TIP3   OH229168   4.111   3.453   4.246  0.3084 -0.5297  0.2660
 9735TIP3    H129169   4.100   3.360   4.225 -1.0918 -0.3514  0.1097
 9735TIP3    H229170   4.032   3.477   4.294  1.3575  0.2248  1.6891
 9736TIP3   OH229171   5.983   5.624   0.063  0.0801 -0.1181  0.2231
 9736TIP3    H129172   5.913   5.627   0.129 -1.0713  0.5115 -0.9801
 9736TIP3    H229173   5.994   5.715   0.035  0.5839 -0.3665 -0.4158
 9737TIP3   OH229174   7.140   5.730   4.653 -0.0914 -0.6489 -0.0672
 9737TIP3    H129175   7.159   5.788   4.727  2.3874 -0.8721 -0.4562
 9737TIP3    H229176   7.109   5.649   4.694 -1.8322  0.2668  0.5443
 9738TIP3   OH229177   1.156   3.204   2.363  0.6541  0.1642 -0.3604
 9738TIP3    H129178   1.248   3.184   2.382  0.4783 -0.5563 -0.2348
 9738TIP3    H229179   1.118   3.120   2.338  0.1785  0.5724 -1.0445
 9739TIP3   OH229180   3.049   6.340   3.662 -0.4185 -0.1525 -0.0161
 9739TIP3    H129181   3.015   6.323   3.574 -1.6839  0.8195  0.2594
 9739TIP3    H229182   2.972   6.359   3.715  0.4627  0.9726  0.9244
 9740TIP3   OH229183   4.012   5.048   5.566  0.0153 -0.0991  0.2882
 9740TIP3    H129184   4.075   5.010   5.506 -0.7928 -0.9490 -0.0324
 9740TIP3    H229185   3.939   5.075   5.511 -0.1336  0.4170  0.7220
 9741TIP3   OH229186   4.672   3.391   4.853 -0.1234 -0.1726 -0.3768
 9741TIP3    H129187   4.758   3.392   4.811 -0.0184 -2.0369 -0.3241
 9741TIP3    H229188   4.610   3.382   4.780 -0.0296 -1.9476 -0.2991
 9742TIP3   OH229189   1.386   5.043   3.239  0.4097  0.4490 -0.3994
 9742TIP3    H129190   1.372   5.020   3.331  0.0471  1.4901 -0.1707
 9742TIP3    H229191   1.450   5.114   3.242  1.8534 -0.7852 -1.1000
 9743TIP3   OH229192   1.689   0.203   3.715  0.1741  0.2329  0.3039
 9743TIP3    H129193   1.693   0.236   3.805 -1.7181  1.7626 -0.0746
 9743TIP3    H229194   1.734   0.119   3.718  2.7481  1.5257  2.0169
 9744TIP3   OH229195   3.899   0.666   0.342  0.3566  0.5273 -0.5889
 9744TIP3    H129196   3.863   0.637   0.259  0.5436 -0.4190 -0.3580
 9744TIP3    H229197   3.842   0.626   0.408  1.7147 -0.9188 -0.2182
 9745TIP3   OH229198   1.025   1.067   3.215 -0.2602  0.0494 -0.3074
 9745TIP3    H129199   1.091   1.130   3.244  0.1471 -1.0093  1.1830
 9745TIP3    H229200   0.941   1.110   3.233 -0.0171 -0.3604  2.1397
 9746TIP3   OH229201   3.190   4.761   4.149 -0.1839 -0.1723  0.1271
 9746TIP3    H129202   3.263   4.760   4.211  1.4282 -1.4145 -1.6852
 9746TIP3    H229203   3.155   4.672   4.152  0.2281 -0.3881 -1.0718
 9747TIP3   OH229204   5.773   1.602   4.466  0.1122 -0.0498  0.4723
 9747TIP3    H129205   5.838   1.666   4.437  1.0768 -0.9941  0.4615
 9747TIP3    H229206   5.694   1.625   4.418  0.4556  1.0672  0.4004
 9748TIP3   OH229207   5.702   4.522   1.511 -0.4134 -0.4646  0.5523
 9748TIP3    H129208   5.724   4.615   1.514 -1.0514 -0.3195  0.9993
 9748TIP3    H229209   5.700   4.500   1.418  0.1949 -0.1469  0.4633
 9749TIP3   OH229210   4.162   2.854   2.906 -0.1105  0.0479  0.2654
 9749TIP3    H129211   4.236   2.872   2.847  0.6577  0.7110  1.3917
 9749TIP3    H229212   4.188   2.775   2.954 -1.4920 -1.5329 -1.4527
   7.20399   6.79200   5.88202   0.00000   0.00000  -2.40133   0.00000  -2.40133  -3.39599
