;;
;; Generated by CHARMM-GUI FF-Converter
;;
;; Correspondance:
;; jul316@lehigh.edu or wonpil@lehigh.edu
;;
;; GROMACS topology file for PROA
;;


[ moleculetype ]
; name	nrexcl
PROA	     3

[ atoms ]
; nr	type	resnr	residu	atom	cgnr	charge	mass
     1        NH3      1      GLY      N      1    -0.300000    14.0070   ; qtot -0.300
     2         HC      1      GLY    HT1      2     0.330000     1.0080   ; qtot  0.030
     3         HC      1      GLY    HT2      3     0.330000     1.0080   ; qtot  0.360
     4         HC      1      GLY    HT3      4     0.330000     1.0080   ; qtot  0.690
     5        CT2      1      GLY     CA      5     0.130000    12.0110   ; qtot  0.820
     6        HB2      1      GLY    HA1      6     0.090000     1.0080   ; qtot  0.910
     7        HB2      1      GLY    HA2      7     0.090000     1.0080   ; qtot  1.000
     8          C      1      GLY      C      8     0.510000    12.0110   ; qtot  1.510
     9          O      1      GLY      O      9    -0.510000    15.9994   ; qtot  1.000
    10          N      2      PRO      N     10    -0.290000    14.0070   ; qtot  0.710
    11        CP3      2      PRO     CD     11     0.000000    12.0110   ; qtot  0.710
    12        HA2      2      PRO    HD1     12     0.090000     1.0080   ; qtot  0.800
    13        HA2      2      PRO    HD2     13     0.090000     1.0080   ; qtot  0.890
    14        CP1      2      PRO     CA     14     0.020000    12.0110   ; qtot  0.910
    15        HB1      2      PRO     HA     15     0.090000     1.0080   ; qtot  1.000
    16        CP2      2      PRO     CB     16    -0.180000    12.0110   ; qtot  0.820
    17        HA2      2      PRO    HB1     17     0.090000     1.0080   ; qtot  0.910
    18        HA2      2      PRO    HB2     18     0.090000     1.0080   ; qtot  1.000
    19        CP2      2      PRO     CG     19    -0.180000    12.0110   ; qtot  0.820
    20        HA2      2      PRO    HG1     20     0.090000     1.0080   ; qtot  0.910
    21        HA2      2      PRO    HG2     21     0.090000     1.0080   ; qtot  1.000
    22          C      2      PRO      C     22     0.510000    12.0110   ; qtot  1.510
    23          O      2      PRO      O     23    -0.510000    15.9994   ; qtot  1.000
    24        NH1      3      GLY      N     24    -0.470000    14.0070   ; qtot  0.530
    25          H      3      GLY     HN     25     0.310000     1.0080   ; qtot  0.840
    26        CT2      3      GLY     CA     26    -0.020000    12.0110   ; qtot  0.820
    27        HB2      3      GLY    HA1     27     0.090000     1.0080   ; qtot  0.910
    28        HB2      3      GLY    HA2     28     0.090000     1.0080   ; qtot  1.000
    29          C      3      GLY      C     29     0.510000    12.0110   ; qtot  1.510
    30          O      3      GLY      O     30    -0.510000    15.9994   ; qtot  1.000
    31        NH1      4      ASP      N     31    -0.470000    14.0070   ; qtot  0.530
    32          H      4      ASP     HN     32     0.310000     1.0080   ; qtot  0.840
    33        CT1      4      ASP     CA     33     0.070000    12.0110   ; qtot  0.910
    34        HB1      4      ASP     HA     34     0.090000     1.0080   ; qtot  1.000
    35       CT2A      4      ASP     CB     35    -0.280000    12.0110   ; qtot  0.720
    36        HA2      4      ASP    HB1     36     0.090000     1.0080   ; qtot  0.810
    37        HA2      4      ASP    HB2     37     0.090000     1.0080   ; qtot  0.900
    38         CC      4      ASP     CG     38     0.620000    12.0110   ; qtot  1.520
    39         OC      4      ASP    OD1     39    -0.760000    15.9994   ; qtot  0.760
    40         OC      4      ASP    OD2     40    -0.760000    15.9994   ; qtot -0.000
    41          C      4      ASP      C     41     0.510000    12.0110   ; qtot  0.510
    42          O      4      ASP      O     42    -0.510000    15.9994   ; qtot -0.000
    43          N      5      PRO      N     43    -0.290000    14.0070   ; qtot -0.290
    44        CP3      5      PRO     CD     44     0.000000    12.0110   ; qtot -0.290
    45        HA2      5      PRO    HD1     45     0.090000     1.0080   ; qtot -0.200
    46        HA2      5      PRO    HD2     46     0.090000     1.0080   ; qtot -0.110
    47        CP1      5      PRO     CA     47     0.020000    12.0110   ; qtot -0.090
    48        HB1      5      PRO     HA     48     0.090000     1.0080   ; qtot -0.000
    49        CP2      5      PRO     CB     49    -0.180000    12.0110   ; qtot -0.180
    50        HA2      5      PRO    HB1     50     0.090000     1.0080   ; qtot -0.090
    51        HA2      5      PRO    HB2     51     0.090000     1.0080   ; qtot -0.000
    52        CP2      5      PRO     CG     52    -0.180000    12.0110   ; qtot -0.180
    53        HA2      5      PRO    HG1     53     0.090000     1.0080   ; qtot -0.090
    54        HA2      5      PRO    HG2     54     0.090000     1.0080   ; qtot -0.000
    55          C      5      PRO      C     55     0.510000    12.0110   ; qtot  0.510
    56          O      5      PRO      O     56    -0.510000    15.9994   ; qtot -0.000
    57        NH1      6      GLY      N     57    -0.470000    14.0070   ; qtot -0.470
    58          H      6      GLY     HN     58     0.310000     1.0080   ; qtot -0.160
    59        CT2      6      GLY     CA     59    -0.020000    12.0110   ; qtot -0.180
    60        HB2      6      GLY    HA1     60     0.090000     1.0080   ; qtot -0.090
    61        HB2      6      GLY    HA2     61     0.090000     1.0080   ; qtot -0.000
    62          C      6      GLY      C     62     0.510000    12.0110   ; qtot  0.510
    63          O      6      GLY      O     63    -0.510000    15.9994   ; qtot -0.000
    64        NH1      7      SER      N     64    -0.470000    14.0070   ; qtot -0.470
    65          H      7      SER     HN     65     0.310000     1.0080   ; qtot -0.160
    66        CT1      7      SER     CA     66     0.070000    12.0110   ; qtot -0.090
    67        HB1      7      SER     HA     67     0.090000     1.0080   ; qtot -0.000
    68        CT2      7      SER     CB     68     0.050000    12.0110   ; qtot  0.050
    69        HA2      7      SER    HB1     69     0.090000     1.0080   ; qtot  0.140
    70        HA2      7      SER    HB2     70     0.090000     1.0080   ; qtot  0.230
    71        OH1      7      SER     OG     71    -0.660000    15.9994   ; qtot -0.430
    72          H      7      SER    HG1     72     0.430000     1.0080   ; qtot -0.000
    73          C      7      SER      C     73     0.510000    12.0110   ; qtot  0.510
    74          O      7      SER      O     74    -0.510000    15.9994   ; qtot -0.000
    75        NH1      8      ASP      N     75    -0.470000    14.0070   ; qtot -0.470
    76          H      8      ASP     HN     76     0.310000     1.0080   ; qtot -0.160
    77        CT1      8      ASP     CA     77     0.070000    12.0110   ; qtot -0.090
    78        HB1      8      ASP     HA     78     0.090000     1.0080   ; qtot -0.000
    79       CT2A      8      ASP     CB     79    -0.280000    12.0110   ; qtot -0.280
    80        HA2      8      ASP    HB1     80     0.090000     1.0080   ; qtot -0.190
    81        HA2      8      ASP    HB2     81     0.090000     1.0080   ; qtot -0.100
    82         CC      8      ASP     CG     82     0.620000    12.0110   ; qtot  0.520
    83         OC      8      ASP    OD1     83    -0.760000    15.9994   ; qtot -0.240
    84         OC      8      ASP    OD2     84    -0.760000    15.9994   ; qtot -1.000
    85          C      8      ASP      C     85     0.510000    12.0110   ; qtot -0.490
    86          O      8      ASP      O     86    -0.510000    15.9994   ; qtot -1.000
    87        NH1      9      GLY      N     87    -0.470000    14.0070   ; qtot -1.470
    88          H      9      GLY     HN     88     0.310000     1.0080   ; qtot -1.160
    89        CT2      9      GLY     CA     89    -0.020000    12.0110   ; qtot -1.180
    90        HB2      9      GLY    HA1     90     0.090000     1.0080   ; qtot -1.090
    91        HB2      9      GLY    HA2     91     0.090000     1.0080   ; qtot -1.000
    92          C      9      GLY      C     92     0.510000    12.0110   ; qtot -0.490
    93          O      9      GLY      O     93    -0.510000    15.9994   ; qtot -1.000
    94        NH1     10      SER      N     94    -0.470000    14.0070   ; qtot -1.470
    95          H     10      SER     HN     95     0.310000     1.0080   ; qtot -1.160
    96        CT1     10      SER     CA     96     0.070000    12.0110   ; qtot -1.090
    97        HB1     10      SER     HA     97     0.090000     1.0080   ; qtot -1.000
    98        CT2     10      SER     CB     98     0.050000    12.0110   ; qtot -0.950
    99        HA2     10      SER    HB1     99     0.090000     1.0080   ; qtot -0.860
   100        HA2     10      SER    HB2    100     0.090000     1.0080   ; qtot -0.770
   101        OH1     10      SER     OG    101    -0.660000    15.9994   ; qtot -1.430
   102          H     10      SER    HG1    102     0.430000     1.0080   ; qtot -1.000
   103          C     10      SER      C    103     0.510000    12.0110   ; qtot -0.490
   104          O     10      SER      O    104    -0.510000    15.9994   ; qtot -1.000
   105        NH1     11      GLY      N    105    -0.470000    14.0070   ; qtot -1.470
   106          H     11      GLY     HN    106     0.310000     1.0080   ; qtot -1.160
   107        CT2     11      GLY     CA    107    -0.020000    12.0110   ; qtot -1.180
   108        HB2     11      GLY    HA1    108     0.090000     1.0080   ; qtot -1.090
   109        HB2     11      GLY    HA2    109     0.090000     1.0080   ; qtot -1.000
   110          C     11      GLY      C    110     0.510000    12.0110   ; qtot -0.490
   111          O     11      GLY      O    111    -0.510000    15.9994   ; qtot -1.000
   112          N     12      PRO      N    112    -0.290000    14.0070   ; qtot -1.290
   113        CP3     12      PRO     CD    113     0.000000    12.0110   ; qtot -1.290
   114        HA2     12      PRO    HD1    114     0.090000     1.0080   ; qtot -1.200
   115        HA2     12      PRO    HD2    115     0.090000     1.0080   ; qtot -1.110
   116        CP1     12      PRO     CA    116     0.020000    12.0110   ; qtot -1.090
   117        HB1     12      PRO     HA    117     0.090000     1.0080   ; qtot -1.000
   118        CP2     12      PRO     CB    118    -0.180000    12.0110   ; qtot -1.180
   119        HA2     12      PRO    HB1    119     0.090000     1.0080   ; qtot -1.090
   120        HA2     12      PRO    HB2    120     0.090000     1.0080   ; qtot -1.000
   121        CP2     12      PRO     CG    121    -0.180000    12.0110   ; qtot -1.180
   122        HA2     12      PRO    HG1    122     0.090000     1.0080   ; qtot -1.090
   123        HA2     12      PRO    HG2    123     0.090000     1.0080   ; qtot -1.000
   124          C     12      PRO      C    124     0.510000    12.0110   ; qtot -0.490
   125          O     12      PRO      O    125    -0.510000    15.9994   ; qtot -1.000
   126        NH1     13      GLY      N    126    -0.470000    14.0070   ; qtot -1.470
   127          H     13      GLY     HN    127     0.310000     1.0080   ; qtot -1.160
   128        CT2     13      GLY     CA    128    -0.020000    12.0110   ; qtot -1.180
   129        HB2     13      GLY    HA1    129     0.090000     1.0080   ; qtot -1.090
   130        HB2     13      GLY    HA2    130     0.090000     1.0080   ; qtot -1.000
   131          C     13      GLY      C    131     0.510000    12.0110   ; qtot -0.490
   132          O     13      GLY      O    132    -0.510000    15.9994   ; qtot -1.000
   133        NH1     14      ASP      N    133    -0.470000    14.0070   ; qtot -1.470
   134          H     14      ASP     HN    134     0.310000     1.0080   ; qtot -1.160
   135        CT1     14      ASP     CA    135     0.070000    12.0110   ; qtot -1.090
   136        HB1     14      ASP     HA    136     0.090000     1.0080   ; qtot -1.000
   137       CT2A     14      ASP     CB    137    -0.280000    12.0110   ; qtot -1.280
   138        HA2     14      ASP    HB1    138     0.090000     1.0080   ; qtot -1.190
   139        HA2     14      ASP    HB2    139     0.090000     1.0080   ; qtot -1.100
   140         CC     14      ASP     CG    140     0.620000    12.0110   ; qtot -0.480
   141         OC     14      ASP    OD1    141    -0.760000    15.9994   ; qtot -1.240
   142         OC     14      ASP    OD2    142    -0.760000    15.9994   ; qtot -2.000
   143          C     14      ASP      C    143     0.510000    12.0110   ; qtot -1.490
   144          O     14      ASP      O    144    -0.510000    15.9994   ; qtot -2.000
   145          N     15      PRO      N    145    -0.290000    14.0070   ; qtot -2.290
   146        CP3     15      PRO     CD    146     0.000000    12.0110   ; qtot -2.290
   147        HA2     15      PRO    HD1    147     0.090000     1.0080   ; qtot -2.200
   148        HA2     15      PRO    HD2    148     0.090000     1.0080   ; qtot -2.110
   149        CP1     15      PRO     CA    149     0.020000    12.0110   ; qtot -2.090
   150        HB1     15      PRO     HA    150     0.090000     1.0080   ; qtot -2.000
   151        CP2     15      PRO     CB    151    -0.180000    12.0110   ; qtot -2.180
   152        HA2     15      PRO    HB1    152     0.090000     1.0080   ; qtot -2.090
   153        HA2     15      PRO    HB2    153     0.090000     1.0080   ; qtot -2.000
   154        CP2     15      PRO     CG    154    -0.180000    12.0110   ; qtot -2.180
   155        HA2     15      PRO    HG1    155     0.090000     1.0080   ; qtot -2.090
   156        HA2     15      PRO    HG2    156     0.090000     1.0080   ; qtot -2.000
   157         CC     15      PRO      C    157     0.340000    12.0110   ; qtot -1.660
   158         OC     15      PRO    OT1    158    -0.670000    15.9994   ; qtot -2.330
   159         OC     15      PRO    OT2    159    -0.670000    15.9994   ; qtot -3.000

[ bonds ]
; ai	aj	funct	b0	Kb
    2     1     1
    3     1     1
    4     1     1
    1     5     1
    5     6     1
    5     7     1
    8     5     1
    9     8     1
    8    10     1
   10    11     1
   10    14     1
   12    11     1
   13    11     1
   19    11     1
   15    14     1
   14    16     1
   22    14     1
   17    16     1
   18    16     1
   16    19     1
   20    19     1
   21    19     1
   23    22     1
   22    24     1
   24    25     1
   24    26     1
   26    27     1
   26    28     1
   29    26     1
   30    29     1
   29    31     1
   31    32     1
   31    33     1
   33    34     1
   35    33     1
   41    33     1
   35    36     1
   35    37     1
   38    35     1
   38    39     1
   40    38     1
   42    41     1
   41    43     1
   43    44     1
   43    47     1
   45    44     1
   46    44     1
   52    44     1
   48    47     1
   47    49     1
   55    47     1
   50    49     1
   51    49     1
   49    52     1
   53    52     1
   54    52     1
   56    55     1
   55    57     1
   57    58     1
   57    59     1
   59    60     1
   59    61     1
   62    59     1
   63    62     1
   62    64     1
   64    65     1
   64    66     1
   66    67     1
   68    66     1
   73    66     1
   68    69     1
   68    70     1
   71    68     1
   71    72     1
   74    73     1
   73    75     1
   75    76     1
   75    77     1
   77    78     1
   79    77     1
   85    77     1
   79    80     1
   79    81     1
   82    79     1
   82    83     1
   84    82     1
   86    85     1
   85    87     1
   87    88     1
   87    89     1
   89    90     1
   89    91     1
   92    89     1
   93    92     1
   92    94     1
   94    95     1
   94    96     1
   96    97     1
   98    96     1
  103    96     1
   98    99     1
   98   100     1
  101    98     1
  101   102     1
  104   103     1
  103   105     1
  105   106     1
  105   107     1
  107   108     1
  107   109     1
  110   107     1
  111   110     1
  110   112     1
  112   113     1
  112   116     1
  114   113     1
  115   113     1
  121   113     1
  117   116     1
  116   118     1
  124   116     1
  119   118     1
  120   118     1
  118   121     1
  122   121     1
  123   121     1
  125   124     1
  124   126     1
  126   127     1
  126   128     1
  128   129     1
  128   130     1
  131   128     1
  132   131     1
  131   133     1
  133   134     1
  133   135     1
  135   136     1
  137   135     1
  143   135     1
  137   138     1
  137   139     1
  140   137     1
  140   141     1
  142   140     1
  144   143     1
  143   145     1
  145   146     1
  145   149     1
  147   146     1
  148   146     1
  154   146     1
  150   149     1
  149   151     1
  157   149     1
  152   151     1
  153   151     1
  151   154     1
  155   154     1
  156   154     1
  157   158     1
  157   159     1

[ pairs ]
; ai	aj	funct	c6	c12 or
; ai	aj	funct	fudgeQQ	q1	q2	c6	c12
    1     9     1
    1    10     1
    2     6     1
    2     7     1
    2     8     1
    3     6     1
    3     7     1
    3     8     1
    4     6     1
    4     7     1
    4     8     1
    5    11     1
    5    14     1
    6     9     1
    6    10     1
    7     9     1
    7    10     1
    8    12     1
    8    13     1
    8    15     1
    8    16     1
    8    19     1
    8    22     1
    9    11     1
    9    14     1
   10    17     1
   10    18     1
   10    20     1
   10    21     1
   10    23     1
   10    24     1
   11    15     1
   11    17     1
   11    18     1
   11    22     1
   12    14     1
   12    16     1
   12    20     1
   12    21     1
   13    14     1
   13    16     1
   13    20     1
   13    21     1
   14    20     1
   14    21     1
   14    25     1
   14    26     1
   15    17     1
   15    18     1
   15    19     1
   15    23     1
   15    24     1
   16    23     1
   16    24     1
   17    20     1
   17    21     1
   17    22     1
   18    20     1
   18    21     1
   18    22     1
   19    22     1
   22    27     1
   22    28     1
   22    29     1
   23    25     1
   23    26     1
   24    30     1
   24    31     1
   25    27     1
   25    28     1
   25    29     1
   26    32     1
   26    33     1
   27    30     1
   27    31     1
   28    30     1
   28    31     1
   29    34     1
   29    35     1
   29    41     1
   30    32     1
   30    33     1
   31    36     1
   31    37     1
   31    38     1
   31    42     1
   31    43     1
   32    34     1
   32    35     1
   32    41     1
   33    39     1
   33    40     1
   33    44     1
   33    47     1
   34    36     1
   34    37     1
   34    38     1
   34    42     1
   34    43     1
   35    42     1
   35    43     1
   36    39     1
   36    40     1
   36    41     1
   37    39     1
   37    40     1
   37    41     1
   38    41     1
   41    45     1
   41    46     1
   41    48     1
   41    49     1
   41    52     1
   41    55     1
   42    44     1
   42    47     1
   43    50     1
   43    51     1
   43    53     1
   43    54     1
   43    56     1
   43    57     1
   44    48     1
   44    50     1
   44    51     1
   44    55     1
   45    47     1
   45    49     1
   45    53     1
   45    54     1
   46    47     1
   46    49     1
   46    53     1
   46    54     1
   47    53     1
   47    54     1
   47    58     1
   47    59     1
   48    50     1
   48    51     1
   48    52     1
   48    56     1
   48    57     1
   49    56     1
   49    57     1
   50    53     1
   50    54     1
   50    55     1
   51    53     1
   51    54     1
   51    55     1
   52    55     1
   55    60     1
   55    61     1
   55    62     1
   56    58     1
   56    59     1
   57    63     1
   57    64     1
   58    60     1
   58    61     1
   58    62     1
   59    65     1
   59    66     1
   60    63     1
   60    64     1
   61    63     1
   61    64     1
   62    67     1
   62    68     1
   62    73     1
   63    65     1
   63    66     1
   64    69     1
   64    70     1
   64    71     1
   64    74     1
   64    75     1
   65    67     1
   65    68     1
   65    73     1
   66    72     1
   66    76     1
   66    77     1
   67    69     1
   67    70     1
   67    71     1
   67    74     1
   67    75     1
   68    74     1
   68    75     1
   69    72     1
   69    73     1
   70    72     1
   70    73     1
   71    73     1
   73    78     1
   73    79     1
   73    85     1
   74    76     1
   74    77     1
   75    80     1
   75    81     1
   75    82     1
   75    86     1
   75    87     1
   76    78     1
   76    79     1
   76    85     1
   77    83     1
   77    84     1
   77    88     1
   77    89     1
   78    80     1
   78    81     1
   78    82     1
   78    86     1
   78    87     1
   79    86     1
   79    87     1
   80    83     1
   80    84     1
   80    85     1
   81    83     1
   81    84     1
   81    85     1
   82    85     1
   85    90     1
   85    91     1
   85    92     1
   86    88     1
   86    89     1
   87    93     1
   87    94     1
   88    90     1
   88    91     1
   88    92     1
   89    95     1
   89    96     1
   90    93     1
   90    94     1
   91    93     1
   91    94     1
   92    97     1
   92    98     1
   92   103     1
   93    95     1
   93    96     1
   94    99     1
   94   100     1
   94   101     1
   94   104     1
   94   105     1
   95    97     1
   95    98     1
   95   103     1
   96   102     1
   96   106     1
   96   107     1
   97    99     1
   97   100     1
   97   101     1
   97   104     1
   97   105     1
   98   104     1
   98   105     1
   99   102     1
   99   103     1
  100   102     1
  100   103     1
  101   103     1
  103   108     1
  103   109     1
  103   110     1
  104   106     1
  104   107     1
  105   111     1
  105   112     1
  106   108     1
  106   109     1
  106   110     1
  107   113     1
  107   116     1
  108   111     1
  108   112     1
  109   111     1
  109   112     1
  110   114     1
  110   115     1
  110   117     1
  110   118     1
  110   121     1
  110   124     1
  111   113     1
  111   116     1
  112   119     1
  112   120     1
  112   122     1
  112   123     1
  112   125     1
  112   126     1
  113   117     1
  113   119     1
  113   120     1
  113   124     1
  114   116     1
  114   118     1
  114   122     1
  114   123     1
  115   116     1
  115   118     1
  115   122     1
  115   123     1
  116   122     1
  116   123     1
  116   127     1
  116   128     1
  117   119     1
  117   120     1
  117   121     1
  117   125     1
  117   126     1
  118   125     1
  118   126     1
  119   122     1
  119   123     1
  119   124     1
  120   122     1
  120   123     1
  120   124     1
  121   124     1
  124   129     1
  124   130     1
  124   131     1
  125   127     1
  125   128     1
  126   132     1
  126   133     1
  127   129     1
  127   130     1
  127   131     1
  128   134     1
  128   135     1
  129   132     1
  129   133     1
  130   132     1
  130   133     1
  131   136     1
  131   137     1
  131   143     1
  132   134     1
  132   135     1
  133   138     1
  133   139     1
  133   140     1
  133   144     1
  133   145     1
  134   136     1
  134   137     1
  134   143     1
  135   141     1
  135   142     1
  135   146     1
  135   149     1
  136   138     1
  136   139     1
  136   140     1
  136   144     1
  136   145     1
  137   144     1
  137   145     1
  138   141     1
  138   142     1
  138   143     1
  139   141     1
  139   142     1
  139   143     1
  140   143     1
  143   147     1
  143   148     1
  143   150     1
  143   151     1
  143   154     1
  143   157     1
  144   146     1
  144   149     1
  145   152     1
  145   153     1
  145   155     1
  145   156     1
  145   158     1
  145   159     1
  146   150     1
  146   152     1
  146   153     1
  146   157     1
  147   149     1
  147   151     1
  147   155     1
  147   156     1
  148   149     1
  148   151     1
  148   155     1
  148   156     1
  149   155     1
  149   156     1
  150   152     1
  150   153     1
  150   154     1
  150   158     1
  150   159     1
  151   158     1
  151   159     1
  152   155     1
  152   156     1
  152   157     1
  153   155     1
  153   156     1
  153   157     1
  154   157     1

[ angles ] 
; ai	aj	ak	funct	th0	cth	S0	Kub
    2     1     3     5
    2     1     4     5
    2     1     5     5
    3     1     4     5
    3     1     5     5
    4     1     5     5
    1     5     6     5
    1     5     7     5
    1     5     8     5
    6     5     7     5
    6     5     8     5
    7     5     8     5
    5     8     9     5
    5     8    10     5
    9     8    10     5
    8    10    11     5
    8    10    14     5
   11    10    14     5
   10    11    12     5
   10    11    13     5
   10    11    19     5
   12    11    13     5
   12    11    19     5
   13    11    19     5
   10    14    15     5
   10    14    16     5
   10    14    22     5
   15    14    16     5
   15    14    22     5
   16    14    22     5
   14    16    17     5
   14    16    18     5
   14    16    19     5
   17    16    18     5
   17    16    19     5
   18    16    19     5
   11    19    16     5
   11    19    20     5
   11    19    21     5
   16    19    20     5
   16    19    21     5
   20    19    21     5
   14    22    23     5
   14    22    24     5
   23    22    24     5
   22    24    25     5
   22    24    26     5
   25    24    26     5
   24    26    27     5
   24    26    28     5
   24    26    29     5
   27    26    28     5
   27    26    29     5
   28    26    29     5
   26    29    30     5
   26    29    31     5
   30    29    31     5
   29    31    32     5
   29    31    33     5
   32    31    33     5
   31    33    34     5
   31    33    35     5
   31    33    41     5
   34    33    35     5
   34    33    41     5
   35    33    41     5
   33    35    36     5
   33    35    37     5
   33    35    38     5
   36    35    37     5
   36    35    38     5
   37    35    38     5
   35    38    39     5
   35    38    40     5
   39    38    40     5
   33    41    42     5
   33    41    43     5
   42    41    43     5
   41    43    44     5
   41    43    47     5
   44    43    47     5
   43    44    45     5
   43    44    46     5
   43    44    52     5
   45    44    46     5
   45    44    52     5
   46    44    52     5
   43    47    48     5
   43    47    49     5
   43    47    55     5
   48    47    49     5
   48    47    55     5
   49    47    55     5
   47    49    50     5
   47    49    51     5
   47    49    52     5
   50    49    51     5
   50    49    52     5
   51    49    52     5
   44    52    49     5
   44    52    53     5
   44    52    54     5
   49    52    53     5
   49    52    54     5
   53    52    54     5
   47    55    56     5
   47    55    57     5
   56    55    57     5
   55    57    58     5
   55    57    59     5
   58    57    59     5
   57    59    60     5
   57    59    61     5
   57    59    62     5
   60    59    61     5
   60    59    62     5
   61    59    62     5
   59    62    63     5
   59    62    64     5
   63    62    64     5
   62    64    65     5
   62    64    66     5
   65    64    66     5
   64    66    67     5
   64    66    68     5
   64    66    73     5
   67    66    68     5
   67    66    73     5
   68    66    73     5
   66    68    69     5
   66    68    70     5
   66    68    71     5
   69    68    70     5
   69    68    71     5
   70    68    71     5
   68    71    72     5
   66    73    74     5
   66    73    75     5
   74    73    75     5
   73    75    76     5
   73    75    77     5
   76    75    77     5
   75    77    78     5
   75    77    79     5
   75    77    85     5
   78    77    79     5
   78    77    85     5
   79    77    85     5
   77    79    80     5
   77    79    81     5
   77    79    82     5
   80    79    81     5
   80    79    82     5
   81    79    82     5
   79    82    83     5
   79    82    84     5
   83    82    84     5
   77    85    86     5
   77    85    87     5
   86    85    87     5
   85    87    88     5
   85    87    89     5
   88    87    89     5
   87    89    90     5
   87    89    91     5
   87    89    92     5
   90    89    91     5
   90    89    92     5
   91    89    92     5
   89    92    93     5
   89    92    94     5
   93    92    94     5
   92    94    95     5
   92    94    96     5
   95    94    96     5
   94    96    97     5
   94    96    98     5
   94    96   103     5
   97    96    98     5
   97    96   103     5
   98    96   103     5
   96    98    99     5
   96    98   100     5
   96    98   101     5
   99    98   100     5
   99    98   101     5
  100    98   101     5
   98   101   102     5
   96   103   104     5
   96   103   105     5
  104   103   105     5
  103   105   106     5
  103   105   107     5
  106   105   107     5
  105   107   108     5
  105   107   109     5
  105   107   110     5
  108   107   109     5
  108   107   110     5
  109   107   110     5
  107   110   111     5
  107   110   112     5
  111   110   112     5
  110   112   113     5
  110   112   116     5
  113   112   116     5
  112   113   114     5
  112   113   115     5
  112   113   121     5
  114   113   115     5
  114   113   121     5
  115   113   121     5
  112   116   117     5
  112   116   118     5
  112   116   124     5
  117   116   118     5
  117   116   124     5
  118   116   124     5
  116   118   119     5
  116   118   120     5
  116   118   121     5
  119   118   120     5
  119   118   121     5
  120   118   121     5
  113   121   118     5
  113   121   122     5
  113   121   123     5
  118   121   122     5
  118   121   123     5
  122   121   123     5
  116   124   125     5
  116   124   126     5
  125   124   126     5
  124   126   127     5
  124   126   128     5
  127   126   128     5
  126   128   129     5
  126   128   130     5
  126   128   131     5
  129   128   130     5
  129   128   131     5
  130   128   131     5
  128   131   132     5
  128   131   133     5
  132   131   133     5
  131   133   134     5
  131   133   135     5
  134   133   135     5
  133   135   136     5
  133   135   137     5
  133   135   143     5
  136   135   137     5
  136   135   143     5
  137   135   143     5
  135   137   138     5
  135   137   139     5
  135   137   140     5
  138   137   139     5
  138   137   140     5
  139   137   140     5
  137   140   141     5
  137   140   142     5
  141   140   142     5
  135   143   144     5
  135   143   145     5
  144   143   145     5
  143   145   146     5
  143   145   149     5
  146   145   149     5
  145   146   147     5
  145   146   148     5
  145   146   154     5
  147   146   148     5
  147   146   154     5
  148   146   154     5
  145   149   150     5
  145   149   151     5
  145   149   157     5
  150   149   151     5
  150   149   157     5
  151   149   157     5
  149   151   152     5
  149   151   153     5
  149   151   154     5
  152   151   153     5
  152   151   154     5
  153   151   154     5
  146   154   151     5
  146   154   155     5
  146   154   156     5
  151   154   155     5
  151   154   156     5
  155   154   156     5
  149   157   158     5
  149   157   159     5
  158   157   159     5

[ dihedrals ]
; ai	aj	ak	al	funct	phi0	cp	mult
    2     1     5     6     9
    2     1     5     7     9
    2     1     5     8     9
    3     1     5     6     9
    3     1     5     7     9
    3     1     5     8     9
    4     1     5     6     9
    4     1     5     7     9
    4     1     5     8     9
    1     5     8     9     9
    1     5     8    10     9
    6     5     8     9     9
    6     5     8    10     9
    7     5     8     9     9
    7     5     8    10     9
    5     8    10    11     9
    5     8    10    14     9
    9     8    10    11     9
    9     8    10    14     9
    8    10    11    12     9
    8    10    11    13     9
    8    10    11    19     9
   14    10    11    19     9
    8    10    14    15     9
    8    10    14    16     9
    8    10    14    22     9
   11    10    14    15     9
   11    10    14    16     9
   11    10    14    22     9
   12    11    10    14     9
   13    11    10    14     9
   10    11    19    16     9
   10    11    19    20     9
   10    11    19    21     9
   12    11    19    16     9
   12    11    19    20     9
   12    11    19    21     9
   13    11    19    16     9
   13    11    19    20     9
   13    11    19    21     9
   10    14    16    17     9
   10    14    16    18     9
   10    14    16    19     9
   15    14    16    17     9
   15    14    16    18     9
   15    14    16    19     9
   10    14    22    23     9
   10    14    22    24     9
   15    14    22    23     9
   15    14    22    24     9
   16    14    22    23     9
   16    14    22    24     9
   17    16    14    22     9
   18    16    14    22     9
   19    16    14    22     9
   14    16    19    20     9
   14    16    19    21     9
   17    16    19    20     9
   17    16    19    21     9
   18    16    19    20     9
   18    16    19    21     9
   11    19    16    14     9
   11    19    16    17     9
   11    19    16    18     9
   14    22    24    25     9
   14    22    24    26     9
   23    22    24    25     9
   23    22    24    26     9
   22    24    26    27     9
   22    24    26    28     9
   22    24    26    29     9
   25    24    26    27     9
   25    24    26    28     9
   25    24    26    29     9
   24    26    29    30     9
   24    26    29    31     9
   27    26    29    30     9
   27    26    29    31     9
   28    26    29    30     9
   28    26    29    31     9
   26    29    31    32     9
   26    29    31    33     9
   30    29    31    32     9
   30    29    31    33     9
   29    31    33    34     9
   29    31    33    35     9
   29    31    33    41     9
   32    31    33    34     9
   32    31    33    35     9
   32    31    33    41     9
   31    33    35    36     9
   31    33    35    37     9
   31    33    35    38     9
   34    33    35    36     9
   34    33    35    37     9
   34    33    35    38     9
   31    33    41    42     9
   31    33    41    43     9
   34    33    41    42     9
   34    33    41    43     9
   35    33    41    42     9
   35    33    41    43     9
   36    35    33    41     9
   37    35    33    41     9
   38    35    33    41     9
   33    35    38    39     9
   33    35    38    40     9
   36    35    38    39     9
   36    35    38    40     9
   37    35    38    39     9
   37    35    38    40     9
   33    41    43    44     9
   33    41    43    47     9
   42    41    43    44     9
   42    41    43    47     9
   41    43    44    45     9
   41    43    44    46     9
   41    43    44    52     9
   47    43    44    52     9
   41    43    47    48     9
   41    43    47    49     9
   41    43    47    55     9
   44    43    47    48     9
   44    43    47    49     9
   44    43    47    55     9
   45    44    43    47     9
   46    44    43    47     9
   43    44    52    49     9
   43    44    52    53     9
   43    44    52    54     9
   45    44    52    49     9
   45    44    52    53     9
   45    44    52    54     9
   46    44    52    49     9
   46    44    52    53     9
   46    44    52    54     9
   43    47    49    50     9
   43    47    49    51     9
   43    47    49    52     9
   48    47    49    50     9
   48    47    49    51     9
   48    47    49    52     9
   43    47    55    56     9
   43    47    55    57     9
   48    47    55    56     9
   48    47    55    57     9
   49    47    55    56     9
   49    47    55    57     9
   50    49    47    55     9
   51    49    47    55     9
   52    49    47    55     9
   47    49    52    53     9
   47    49    52    54     9
   50    49    52    53     9
   50    49    52    54     9
   51    49    52    53     9
   51    49    52    54     9
   44    52    49    47     9
   44    52    49    50     9
   44    52    49    51     9
   47    55    57    58     9
   47    55    57    59     9
   56    55    57    58     9
   56    55    57    59     9
   55    57    59    60     9
   55    57    59    61     9
   55    57    59    62     9
   58    57    59    60     9
   58    57    59    61     9
   58    57    59    62     9
   57    59    62    63     9
   57    59    62    64     9
   60    59    62    63     9
   60    59    62    64     9
   61    59    62    63     9
   61    59    62    64     9
   59    62    64    65     9
   59    62    64    66     9
   63    62    64    65     9
   63    62    64    66     9
   62    64    66    67     9
   62    64    66    68     9
   62    64    66    73     9
   65    64    66    67     9
   65    64    66    68     9
   65    64    66    73     9
   64    66    68    69     9
   64    66    68    70     9
   64    66    68    71     9
   67    66    68    69     9
   67    66    68    70     9
   67    66    68    71     9
   64    66    73    74     9
   64    66    73    75     9
   67    66    73    74     9
   67    66    73    75     9
   68    66    73    74     9
   68    66    73    75     9
   69    68    66    73     9
   70    68    66    73     9
   71    68    66    73     9
   66    68    71    72     9
   69    68    71    72     9
   70    68    71    72     9
   66    73    75    76     9
   66    73    75    77     9
   74    73    75    76     9
   74    73    75    77     9
   73    75    77    78     9
   73    75    77    79     9
   73    75    77    85     9
   76    75    77    78     9
   76    75    77    79     9
   76    75    77    85     9
   75    77    79    80     9
   75    77    79    81     9
   75    77    79    82     9
   78    77    79    80     9
   78    77    79    81     9
   78    77    79    82     9
   75    77    85    86     9
   75    77    85    87     9
   78    77    85    86     9
   78    77    85    87     9
   79    77    85    86     9
   79    77    85    87     9
   80    79    77    85     9
   81    79    77    85     9
   82    79    77    85     9
   77    79    82    83     9
   77    79    82    84     9
   80    79    82    83     9
   80    79    82    84     9
   81    79    82    83     9
   81    79    82    84     9
   77    85    87    88     9
   77    85    87    89     9
   86    85    87    88     9
   86    85    87    89     9
   85    87    89    90     9
   85    87    89    91     9
   85    87    89    92     9
   88    87    89    90     9
   88    87    89    91     9
   88    87    89    92     9
   87    89    92    93     9
   87    89    92    94     9
   90    89    92    93     9
   90    89    92    94     9
   91    89    92    93     9
   91    89    92    94     9
   89    92    94    95     9
   89    92    94    96     9
   93    92    94    95     9
   93    92    94    96     9
   92    94    96    97     9
   92    94    96    98     9
   92    94    96   103     9
   95    94    96    97     9
   95    94    96    98     9
   95    94    96   103     9
   94    96    98    99     9
   94    96    98   100     9
   94    96    98   101     9
   97    96    98    99     9
   97    96    98   100     9
   97    96    98   101     9
   94    96   103   104     9
   94    96   103   105     9
   97    96   103   104     9
   97    96   103   105     9
   98    96   103   104     9
   98    96   103   105     9
   99    98    96   103     9
  100    98    96   103     9
  101    98    96   103     9
   96    98   101   102     9
   99    98   101   102     9
  100    98   101   102     9
   96   103   105   106     9
   96   103   105   107     9
  104   103   105   106     9
  104   103   105   107     9
  103   105   107   108     9
  103   105   107   109     9
  103   105   107   110     9
  106   105   107   108     9
  106   105   107   109     9
  106   105   107   110     9
  105   107   110   111     9
  105   107   110   112     9
  108   107   110   111     9
  108   107   110   112     9
  109   107   110   111     9
  109   107   110   112     9
  107   110   112   113     9
  107   110   112   116     9
  111   110   112   113     9
  111   110   112   116     9
  110   112   113   114     9
  110   112   113   115     9
  110   112   113   121     9
  116   112   113   121     9
  110   112   116   117     9
  110   112   116   118     9
  110   112   116   124     9
  113   112   116   117     9
  113   112   116   118     9
  113   112   116   124     9
  114   113   112   116     9
  115   113   112   116     9
  112   113   121   118     9
  112   113   121   122     9
  112   113   121   123     9
  114   113   121   118     9
  114   113   121   122     9
  114   113   121   123     9
  115   113   121   118     9
  115   113   121   122     9
  115   113   121   123     9
  112   116   118   119     9
  112   116   118   120     9
  112   116   118   121     9
  117   116   118   119     9
  117   116   118   120     9
  117   116   118   121     9
  112   116   124   125     9
  112   116   124   126     9
  117   116   124   125     9
  117   116   124   126     9
  118   116   124   125     9
  118   116   124   126     9
  119   118   116   124     9
  120   118   116   124     9
  121   118   116   124     9
  116   118   121   122     9
  116   118   121   123     9
  119   118   121   122     9
  119   118   121   123     9
  120   118   121   122     9
  120   118   121   123     9
  113   121   118   116     9
  113   121   118   119     9
  113   121   118   120     9
  116   124   126   127     9
  116   124   126   128     9
  125   124   126   127     9
  125   124   126   128     9
  124   126   128   129     9
  124   126   128   130     9
  124   126   128   131     9
  127   126   128   129     9
  127   126   128   130     9
  127   126   128   131     9
  126   128   131   132     9
  126   128   131   133     9
  129   128   131   132     9
  129   128   131   133     9
  130   128   131   132     9
  130   128   131   133     9
  128   131   133   134     9
  128   131   133   135     9
  132   131   133   134     9
  132   131   133   135     9
  131   133   135   136     9
  131   133   135   137     9
  131   133   135   143     9
  134   133   135   136     9
  134   133   135   137     9
  134   133   135   143     9
  133   135   137   138     9
  133   135   137   139     9
  133   135   137   140     9
  136   135   137   138     9
  136   135   137   139     9
  136   135   137   140     9
  133   135   143   144     9
  133   135   143   145     9
  136   135   143   144     9
  136   135   143   145     9
  137   135   143   144     9
  137   135   143   145     9
  138   137   135   143     9
  139   137   135   143     9
  140   137   135   143     9
  135   137   140   141     9
  135   137   140   142     9
  138   137   140   141     9
  138   137   140   142     9
  139   137   140   141     9
  139   137   140   142     9
  135   143   145   146     9
  135   143   145   149     9
  144   143   145   146     9
  144   143   145   149     9
  143   145   146   147     9
  143   145   146   148     9
  143   145   146   154     9
  149   145   146   154     9
  143   145   149   150     9
  143   145   149   151     9
  143   145   149   157     9
  146   145   149   150     9
  146   145   149   151     9
  146   145   149   157     9
  147   146   145   149     9
  148   146   145   149     9
  145   146   154   151     9
  145   146   154   155     9
  145   146   154   156     9
  147   146   154   151     9
  147   146   154   155     9
  147   146   154   156     9
  148   146   154   151     9
  148   146   154   155     9
  148   146   154   156     9
  145   149   151   152     9
  145   149   151   153     9
  145   149   151   154     9
  150   149   151   152     9
  150   149   151   153     9
  150   149   151   154     9
  145   149   157   158     9
  145   149   157   159     9
  150   149   157   158     9
  150   149   157   159     9
  151   149   157   158     9
  151   149   157   159     9
  152   151   149   157     9
  153   151   149   157     9
  154   151   149   157     9
  149   151   154   155     9
  149   151   154   156     9
  152   151   154   155     9
  152   151   154   156     9
  153   151   154   155     9
  153   151   154   156     9
  146   154   151   149     9
  146   154   151   152     9
  146   154   151   153     9

[ dihedrals ]
; ai	aj	ak	al	funct	q0	cq
    8     5    10     9     2
   10     8    14    11     2
   22    14    24    23     2
   24    22    26    25     2
   29    26    31    30     2
   31    29    33    32     2
   38    35    40    39     2
   41    33    43    42     2
   43    41    47    44     2
   55    47    57    56     2
   57    55    59    58     2
   62    59    64    63     2
   64    62    66    65     2
   73    66    75    74     2
   75    73    77    76     2
   82    79    84    83     2
   85    77    87    86     2
   87    85    89    88     2
   92    89    94    93     2
   94    92    96    95     2
  103    96   105   104     2
  105   103   107   106     2
  110   107   112   111     2
  112   110   116   113     2
  124   116   126   125     2
  126   124   128   127     2
  131   128   133   132     2
  133   131   135   134     2
  140   137   142   141     2
  143   135   145   144     2
  145   143   149   146     2
  157   149   159   158     2

[ cmap ] 
; ai	aj	ak	al	am	funct
    8    10    14    22    24     1
   22    24    26    29    31     1
   29    31    33    41    43     1
   41    43    47    55    57     1
   55    57    59    62    64     1
   62    64    66    73    75     1
   73    75    77    85    87     1
   85    87    89    92    94     1
   92    94    96   103   105     1
  103   105   107   110   112     1
  110   112   116   124   126     1
  124   126   128   131   133     1
  131   133   135   143   145     1

#ifdef POSRES
[ position_restraints ]
    1     1    POSRES_FC_BB    POSRES_FC_BB    POSRES_FC_BB   
    5     1    POSRES_FC_BB    POSRES_FC_BB    POSRES_FC_BB   
    8     1    POSRES_FC_BB    POSRES_FC_BB    POSRES_FC_BB   
    9     1    POSRES_FC_BB    POSRES_FC_BB    POSRES_FC_BB   
   10     1    POSRES_FC_BB    POSRES_FC_BB    POSRES_FC_BB   
   11     1    POSRES_FC_SC    POSRES_FC_SC    POSRES_FC_SC   
   14     1    POSRES_FC_BB    POSRES_FC_BB    POSRES_FC_BB   
   16     1    POSRES_FC_SC    POSRES_FC_SC    POSRES_FC_SC   
   19     1    POSRES_FC_SC    POSRES_FC_SC    POSRES_FC_SC   
   22     1    POSRES_FC_BB    POSRES_FC_BB    POSRES_FC_BB   
   23     1    POSRES_FC_BB    POSRES_FC_BB    POSRES_FC_BB   
   24     1    POSRES_FC_BB    POSRES_FC_BB    POSRES_FC_BB   
   26     1    POSRES_FC_BB    POSRES_FC_BB    POSRES_FC_BB   
   29     1    POSRES_FC_BB    POSRES_FC_BB    POSRES_FC_BB   
   30     1    POSRES_FC_BB    POSRES_FC_BB    POSRES_FC_BB   
   31     1    POSRES_FC_BB    POSRES_FC_BB    POSRES_FC_BB   
   33     1    POSRES_FC_BB    POSRES_FC_BB    POSRES_FC_BB   
   35     1    POSRES_FC_SC    POSRES_FC_SC    POSRES_FC_SC   
   38     1    POSRES_FC_SC    POSRES_FC_SC    POSRES_FC_SC   
   39     1    POSRES_FC_SC    POSRES_FC_SC    POSRES_FC_SC   
   40     1    POSRES_FC_SC    POSRES_FC_SC    POSRES_FC_SC   
   41     1    POSRES_FC_BB    POSRES_FC_BB    POSRES_FC_BB   
   42     1    POSRES_FC_BB    POSRES_FC_BB    POSRES_FC_BB   
   43     1    POSRES_FC_BB    POSRES_FC_BB    POSRES_FC_BB   
   44     1    POSRES_FC_SC    POSRES_FC_SC    POSRES_FC_SC   
   47     1    POSRES_FC_BB    POSRES_FC_BB    POSRES_FC_BB   
   49     1    POSRES_FC_SC    POSRES_FC_SC    POSRES_FC_SC   
   52     1    POSRES_FC_SC    POSRES_FC_SC    POSRES_FC_SC   
   55     1    POSRES_FC_BB    POSRES_FC_BB    POSRES_FC_BB   
   56     1    POSRES_FC_BB    POSRES_FC_BB    POSRES_FC_BB   
   57     1    POSRES_FC_BB    POSRES_FC_BB    POSRES_FC_BB   
   59     1    POSRES_FC_BB    POSRES_FC_BB    POSRES_FC_BB   
   62     1    POSRES_FC_BB    POSRES_FC_BB    POSRES_FC_BB   
   63     1    POSRES_FC_BB    POSRES_FC_BB    POSRES_FC_BB   
   64     1    POSRES_FC_BB    POSRES_FC_BB    POSRES_FC_BB   
   66     1    POSRES_FC_BB    POSRES_FC_BB    POSRES_FC_BB   
   68     1    POSRES_FC_SC    POSRES_FC_SC    POSRES_FC_SC   
   71     1    POSRES_FC_SC    POSRES_FC_SC    POSRES_FC_SC   
   73     1    POSRES_FC_BB    POSRES_FC_BB    POSRES_FC_BB   
   74     1    POSRES_FC_BB    POSRES_FC_BB    POSRES_FC_BB   
   75     1    POSRES_FC_BB    POSRES_FC_BB    POSRES_FC_BB   
   77     1    POSRES_FC_BB    POSRES_FC_BB    POSRES_FC_BB   
   79     1    POSRES_FC_SC    POSRES_FC_SC    POSRES_FC_SC   
   82     1    POSRES_FC_SC    POSRES_FC_SC    POSRES_FC_SC   
   83     1    POSRES_FC_SC    POSRES_FC_SC    POSRES_FC_SC   
   84     1    POSRES_FC_SC    POSRES_FC_SC    POSRES_FC_SC   
   85     1    POSRES_FC_BB    POSRES_FC_BB    POSRES_FC_BB   
   86     1    POSRES_FC_BB    POSRES_FC_BB    POSRES_FC_BB   
   87     1    POSRES_FC_BB    POSRES_FC_BB    POSRES_FC_BB   
   89     1    POSRES_FC_BB    POSRES_FC_BB    POSRES_FC_BB   
   92     1    POSRES_FC_BB    POSRES_FC_BB    POSRES_FC_BB   
   93     1    POSRES_FC_BB    POSRES_FC_BB    POSRES_FC_BB   
   94     1    POSRES_FC_BB    POSRES_FC_BB    POSRES_FC_BB   
   96     1    POSRES_FC_BB    POSRES_FC_BB    POSRES_FC_BB   
   98     1    POSRES_FC_SC    POSRES_FC_SC    POSRES_FC_SC   
  101     1    POSRES_FC_SC    POSRES_FC_SC    POSRES_FC_SC   
  103     1    POSRES_FC_BB    POSRES_FC_BB    POSRES_FC_BB   
  104     1    POSRES_FC_BB    POSRES_FC_BB    POSRES_FC_BB   
  105     1    POSRES_FC_BB    POSRES_FC_BB    POSRES_FC_BB   
  107     1    POSRES_FC_BB    POSRES_FC_BB    POSRES_FC_BB   
  110     1    POSRES_FC_BB    POSRES_FC_BB    POSRES_FC_BB   
  111     1    POSRES_FC_BB    POSRES_FC_BB    POSRES_FC_BB   
  112     1    POSRES_FC_BB    POSRES_FC_BB    POSRES_FC_BB   
  113     1    POSRES_FC_SC    POSRES_FC_SC    POSRES_FC_SC   
  116     1    POSRES_FC_BB    POSRES_FC_BB    POSRES_FC_BB   
  118     1    POSRES_FC_SC    POSRES_FC_SC    POSRES_FC_SC   
  121     1    POSRES_FC_SC    POSRES_FC_SC    POSRES_FC_SC   
  124     1    POSRES_FC_BB    POSRES_FC_BB    POSRES_FC_BB   
  125     1    POSRES_FC_BB    POSRES_FC_BB    POSRES_FC_BB   
  126     1    POSRES_FC_BB    POSRES_FC_BB    POSRES_FC_BB   
  128     1    POSRES_FC_BB    POSRES_FC_BB    POSRES_FC_BB   
  131     1    POSRES_FC_BB    POSRES_FC_BB    POSRES_FC_BB   
  132     1    POSRES_FC_BB    POSRES_FC_BB    POSRES_FC_BB   
  133     1    POSRES_FC_BB    POSRES_FC_BB    POSRES_FC_BB   
  135     1    POSRES_FC_BB    POSRES_FC_BB    POSRES_FC_BB   
  137     1    POSRES_FC_SC    POSRES_FC_SC    POSRES_FC_SC   
  140     1    POSRES_FC_SC    POSRES_FC_SC    POSRES_FC_SC   
  141     1    POSRES_FC_SC    POSRES_FC_SC    POSRES_FC_SC   
  142     1    POSRES_FC_SC    POSRES_FC_SC    POSRES_FC_SC   
  143     1    POSRES_FC_BB    POSRES_FC_BB    POSRES_FC_BB   
  144     1    POSRES_FC_BB    POSRES_FC_BB    POSRES_FC_BB   
  145     1    POSRES_FC_BB    POSRES_FC_BB    POSRES_FC_BB   
  146     1    POSRES_FC_SC    POSRES_FC_SC    POSRES_FC_SC   
  149     1    POSRES_FC_BB    POSRES_FC_BB    POSRES_FC_BB   
  151     1    POSRES_FC_SC    POSRES_FC_SC    POSRES_FC_SC   
  154     1    POSRES_FC_SC    POSRES_FC_SC    POSRES_FC_SC   
  157     1    POSRES_FC_BB    POSRES_FC_BB    POSRES_FC_BB   
  158     1    POSRES_FC_SC    POSRES_FC_SC    POSRES_FC_SC   
  159     1    POSRES_FC_SC    POSRES_FC_SC    POSRES_FC_SC   
#endif
