Title t= 199.00000 step= 99500
44389
    1GLY      N    1   6.340   3.708   1.033
    1GLY    HT1    2   6.293   3.619   1.061
    1GLY    HT2    3   6.421   3.727   1.096
    1GLY    HT3    4   6.380   3.688   0.939
    1GLY     CA    5   6.239   3.814   1.047
    1GLY    HA1    6   6.155   3.767   0.997
    1GLY    HA2    7   6.283   3.906   1.011
    1GLY      C    8   6.183   3.851   1.182
    1GLY      O    9   6.238   3.800   1.281
    2PRO      N   10   6.081   3.937   1.186
    2PRO     CD   11   6.051   4.029   1.077
    2PRO    HD1   12   6.006   3.970   0.994
    2PRO    HD2   13   6.146   4.077   1.045
    2PRO     CA   14   6.008   3.971   1.306
    2PRO     HA   15   6.072   4.024   1.375
    2PRO     CB   16   5.892   4.062   1.254
    2PRO    HB1   17   5.875   4.133   1.338
    2PRO    HB2   18   5.800   4.003   1.232
    2PRO     CG   19   5.946   4.129   1.125
    2PRO    HG1   20   5.853   4.131   1.064
    2PRO    HG2   21   5.996   4.226   1.145
    2PRO      C   22   5.960   3.849   1.387
    2PRO      O   23   5.881   3.770   1.337
    3GLY      N   24   5.993   3.850   1.518
    3GLY     HN   25   6.051   3.921   1.556
    3GLY     CA   26   5.955   3.740   1.607
    3GLY    HA1   27   5.848   3.746   1.622
    3GLY    HA2   28   6.004   3.764   1.701
    3GLY      C   29   5.986   3.598   1.565
    3GLY      O   30   6.059   3.564   1.470
    4ASP      N   31   5.939   3.502   1.649
    4ASP     HN   32   5.875   3.526   1.722
    4ASP     CA   33   5.930   3.357   1.611
    4ASP     HA   34   6.035   3.332   1.596
    4ASP     CB   35   5.855   3.280   1.729
    4ASP    HB1   36   5.850   3.169   1.721
    4ASP    HB2   37   5.750   3.316   1.715
    4ASP     CG   38   5.913   3.323   1.864
    4ASP    OD1   39   6.032   3.320   1.891
    4ASP    OD2   40   5.820   3.347   1.945
    4ASP      C   41   5.858   3.325   1.480
    4ASP      O   42   5.769   3.400   1.448
    5PRO      N   43   5.896   3.217   1.414
    5PRO     CD   44   6.029   3.152   1.423
    5PRO    HD1   45   6.034   3.099   1.520
    5PRO    HD2   46   6.113   3.225   1.431
    5PRO     CA   47   5.817   3.166   1.304
    5PRO     HA   48   5.834   3.233   1.221
    5PRO     CB   49   5.877   3.027   1.273
    5PRO    HB1   50   5.870   2.975   1.175
    5PRO    HB2   51   5.838   2.953   1.346
    5PRO     CG   52   6.028   3.057   1.301
    5PRO    HG1   53   6.081   2.963   1.326
    5PRO    HG2   54   6.075   3.100   1.210
    5PRO      C   55   5.667   3.151   1.318
    5PRO      O   56   5.624   3.108   1.424
    6GLY      N   57   5.592   3.179   1.212
    6GLY     HN   58   5.636   3.249   1.156
    6GLY     CA   59   5.448   3.144   1.202
    6GLY    HA1   60   5.428   3.061   1.268
    6GLY    HA2   61   5.427   3.141   1.096
    6GLY      C   62   5.365   3.254   1.252
    6GLY      O   63   5.413   3.324   1.342
    7SER      N   64   5.238   3.269   1.196
    7SER     HN   65   5.208   3.213   1.119
    7SER     CA   66   5.150   3.374   1.243
    7SER     HA   67   5.197   3.439   1.315
    7SER     CB   68   5.104   3.468   1.128
    7SER    HB1   69   5.055   3.556   1.175
    7SER    HB2   70   5.037   3.413   1.057
    7SER     OG   71   5.219   3.514   1.064
    7SER    HG1   72   5.232   3.609   1.074
    7SER      C   73   5.018   3.331   1.319
    7SER      O   74   4.962   3.226   1.286
    8GLY      N   75   4.968   3.419   1.408
    8GLY     HN   76   5.011   3.508   1.418
    8GLY     CA   77   4.845   3.412   1.483
    8GLY    HA1   78   4.833   3.508   1.531
    8GLY    HA2   79   4.857   3.326   1.547
    8GLY      C   80   4.714   3.396   1.415
    8GLY      O   81   4.695   3.447   1.305
    9ASN      N   82   4.620   3.322   1.477
    9ASN     HN   83   4.634   3.285   1.568
    9ASN     CA   84   4.486   3.319   1.424
    9ASN     HA   85   4.470   3.400   1.354
    9ASN     CB   86   4.440   3.168   1.382
    9ASN    HB1   87   4.445   3.114   1.480
    9ASN    HB2   88   4.512   3.135   1.304
    9ASN     CG   89   4.300   3.164   1.342
    9ASN    OD1   90   4.247   3.273   1.321
    9ASN    ND2   91   4.228   3.049   1.329
    9ASN   HD21   92   4.148   3.048   1.270
    9ASN   HD22   93   4.275   2.962   1.347
    9ASN      C   94   4.401   3.365   1.543
    9ASN      O   95   4.390   3.286   1.630
   10PRO      N   96   4.335   3.480   1.541
   10PRO     CD   97   4.350   3.584   1.439
   10PRO    HD1   98   4.278   3.564   1.357
   10PRO    HD2   99   4.457   3.603   1.416
   10PRO     CA  100   4.261   3.529   1.662
   10PRO     HA  101   4.340   3.549   1.734
   10PRO     CB  102   4.212   3.668   1.623
   10PRO    HB1  103   4.202   3.733   1.713
   10PRO    HB2  104   4.108   3.662   1.583
   10PRO     CG  105   4.307   3.712   1.510
   10PRO    HG1  106   4.262   3.782   1.436
   10PRO    HG2  107   4.393   3.765   1.556
   10PRO      C  108   4.153   3.445   1.721
   10PRO      O  109   4.080   3.382   1.643
   11GLY      N  110   4.131   3.440   1.852
   11GLY     HN  111   4.197   3.487   1.910
   11GLY     CA  112   4.020   3.369   1.914
   11GLY    HA1  113   4.060   3.323   2.003
   11GLY    HA2  114   3.984   3.292   1.846
   11GLY      C  115   3.904   3.456   1.949
   11GLY      O  116   3.898   3.574   1.913
   12SER      N  117   3.803   3.389   2.016
   12SER     HN  118   3.813   3.291   2.025
   12SER     CA  119   3.687   3.465   2.070
   12SER     HA  120   3.711   3.570   2.069
   12SER     CB  121   3.557   3.447   1.984
   12SER    HB1  122   3.568   3.494   1.884
   12SER    HB2  123   3.465   3.490   2.030
   12SER     OG  124   3.531   3.300   1.972
   12SER    HG1  125   3.599   3.270   1.910
   12SER      C  126   3.656   3.423   2.207
   12SER      O  127   3.577   3.484   2.284
   13GLY      N  128   3.715   3.308   2.253
   13GLY     HN  129   3.771   3.249   2.195
   13GLY     CA  130   3.687   3.235   2.377
   13GLY    HA1  131   3.730   3.297   2.455
   13GLY    HA2  132   3.724   3.140   2.343
   13GLY      C  133   3.543   3.206   2.426
   13GLY      O  134   3.446   3.203   2.352
   14ASP      N  135   3.529   3.180   2.555
   14ASP     HN  136   3.610   3.177   2.613
   14ASP     CA  137   3.414   3.132   2.626
   14ASP     HA  138   3.380   3.049   2.566
   14ASP     CB  139   3.455   3.093   2.765
   14ASP    HB1  140   3.373   3.072   2.836
   14ASP    HB2  141   3.503   3.183   2.808
   14ASP     CG  142   3.540   2.973   2.760
   14ASP    OD1  143   3.624   2.967   2.853
   14ASP    OD2  144   3.520   2.883   2.678
   14ASP      C  145   3.292   3.226   2.630
   14ASP      O  146   3.311   3.348   2.638
   15PRO      N  147   3.170   3.175   2.638
   15PRO     CD  148   3.142   3.038   2.595
   15PRO    HD1  149   3.172   2.967   2.676
   15PRO    HD2  150   3.184   3.009   2.497
   15PRO     CA  151   3.048   3.245   2.681
   15PRO     HA  152   3.032   3.328   2.613
   15PRO     CB  153   2.938   3.135   2.678
   15PRO    HB1  154   2.846   3.186   2.645
   15PRO    HB2  155   2.920   3.092   2.779
   15PRO     CG  156   2.990   3.037   2.568
   15PRO    HG1  157   2.949   2.934   2.573
   15PRO    HG2  158   2.973   3.080   2.467
   15PRO      C  159   3.056   3.289   2.826
   15PRO    OT1  160   3.124   3.213   2.903
   15PRO    OT2  161   3.008   3.397   2.856
   16SOD    SOD  162   4.917   4.365   0.944
   17SOD    SOD  163   1.005   3.000   1.319
   18SOD    SOD  164   2.587   5.971   3.173
   19SOD    SOD  165   7.429   5.048   5.211
   20SOD    SOD  166   3.064   2.193   2.413
   21SOD    SOD  167   6.323   1.146   6.261
   22SOD    SOD  168   4.612   4.984   4.692
   23SOD    SOD  169   0.237   7.621   3.661
   24SOD    SOD  170   0.469   6.759   1.573
   25SOD    SOD  171   5.775   6.655   5.594
   26SOD    SOD  172   2.160   4.245   4.524
   27SOD    SOD  173   0.728   3.521   5.076
   28SOD    SOD  174   8.030   1.983   4.591
   29SOD    SOD  175   5.612   2.792   6.469
   30SOD    SOD  176   7.890   6.962   5.307
   31SOD    SOD  177   2.483   2.691   1.497
   32SOD    SOD  178   6.074   1.548   4.722
   33SOD    SOD  179   6.492   5.115   2.280
   34SOD    SOD  180   4.273   1.650   0.247
   35SOD    SOD  181   6.666   4.726   0.952
   36SOD    SOD  182   1.798   3.599   0.549
   37SOD    SOD  183   7.900   4.177   4.780
   38SOD    SOD  184   6.631   1.838   5.802
   39SOD    SOD  185   2.807   3.357   3.452
   40SOD    SOD  186   3.983   4.220   6.711
   41SOD    SOD  187   6.556   1.590   1.551
   42SOD    SOD  188   6.642   5.744   3.937
   43SOD    SOD  189   6.646   2.734   5.306
   44SOD    SOD  190   0.541   1.607   6.664
   45SOD    SOD  191   3.034   2.946   0.133
   46SOD    SOD  192   2.826   4.035   5.236
   47SOD    SOD  193   4.298   6.557   3.375
   48SOD    SOD  194   3.409   0.168   3.220
   49SOD    SOD  195   7.330   1.125   2.735
   50SOD    SOD  196   4.079   3.795   5.380
   51SOD    SOD  197   5.441   3.796   0.058
   52SOD    SOD  198   4.410   5.301   6.247
   53SOD    SOD  199   4.753   0.807   0.222
   54SOD    SOD  200   0.792   4.933   2.938
   55SOD    SOD  201   0.773   6.139   3.472
   56SOD    SOD  202   1.834   3.169   4.993
   57SOD    SOD  203   7.546   0.291   5.521
   58SOD    SOD  204   7.443   6.777   1.676
   59SOD    SOD  205   2.389   4.703   3.218
   60CLA    CLA  206   1.333   7.381   2.621
   61CLA    CLA  207   5.465   0.418   3.966
   62CLA    CLA  208   1.620   1.130   6.206
   63CLA    CLA  209   2.510   1.707   0.350
   64CLA    CLA  210   1.050   6.548   0.326
   65CLA    CLA  211   7.901   4.893   6.059
   66CLA    CLA  212   7.924   2.847   6.757
   67CLA    CLA  213   6.637   0.122   4.706
   68CLA    CLA  214   3.911   3.578   4.316
   69CLA    CLA  215   2.662   4.811   1.413
   70CLA    CLA  216   8.296   1.977   3.635
   71CLA    CLA  217   5.840   0.437   5.057
   72CLA    CLA  218   1.558   3.466   0.591
   73CLA    CLA  219   0.490   4.394   3.930
   74CLA    CLA  220   6.967   5.662   5.558
   75CLA    CLA  221   1.731   6.836   5.937
   76CLA    CLA  222   0.886   6.107   6.051
   77CLA    CLA  223   6.566   6.967   1.747
   78CLA    CLA  224   2.922   1.434   5.311
   79CLA    CLA  225   4.721   4.071   2.153
   80CLA    CLA  226   7.725   0.450   0.467
   81CLA    CLA  227   4.192   2.050   4.143
   82CLA    CLA  228   1.735   2.711   4.921
   83CLA    CLA  229   7.582   6.303   5.861
   84CLA    CLA  230   7.332   4.914   5.008
   85CLA    CLA  231   5.311   3.999   0.894
   86CLA    CLA  232   7.029   7.434   3.188
   87CLA    CLA  233   2.755   5.026   0.710
   88CLA    CLA  234   8.034   5.262   3.213
   89CLA    CLA  235   3.453   0.313   3.963
   90CLA    CLA  236   4.959   5.808   2.556
   91CLA    CLA  237   5.605   5.471   0.896
   92CLA    CLA  238   0.153   1.382   2.156
   93CLA    CLA  239   6.521   5.224   2.795
   94CLA    CLA  240   3.345   4.692   4.632
   95CLA    CLA  241   1.987   5.328   4.372
   96CLA    CLA  242   2.573   6.653   3.248
   97CLA    CLA  243   0.604   1.397   3.597
   98CLA    CLA  244   6.878   5.639   3.972
   99CLA    CLA  245   2.538   4.498   4.806
  100CLA    CLA  246   4.986   6.988   5.394
  101CLA    CLA  247   6.129   1.259   5.149
  102TIP3   OH2  248   5.292   7.795   3.302
  102TIP3    H1  249   5.340   7.712   3.299
  102TIP3    H2  250   5.352   7.859   3.262
  103TIP3   OH2  251   3.471   2.965   4.863
  103TIP3    H1  252   3.463   2.885   4.813
  103TIP3    H2  253   3.493   3.032   4.799
  104TIP3   OH2  254   0.507   3.791   0.050
  104TIP3    H1  255   0.462   3.875   0.044
  104TIP3    H2  256   0.437   3.726   0.052
  105TIP3   OH2  257   3.189   2.754   4.642
  105TIP3    H1  258   3.239   2.675   4.665
  105TIP3    H2  259   3.102   2.721   4.618
  106TIP3   OH2  260   6.485   3.322   1.829
  106TIP3    H1  261   6.522   3.408   1.850
  106TIP3    H2  262   6.428   3.339   1.754
  107TIP3   OH2  263   5.501   1.173   5.293
  107TIP3    H1  264   5.541   1.105   5.239
  107TIP3    H2  265   5.569   1.240   5.301
  108TIP3   OH2  266   5.756   1.315   4.532
  108TIP3    H1  267   5.834   1.305   4.478
  108TIP3    H2  268   5.742   1.229   4.571
  109TIP3   OH2  269   3.622   2.008   1.024
  109TIP3    H1  270   3.527   2.003   1.021
  109TIP3    H2  271   3.651   1.917   1.029
  110TIP3   OH2  272   0.487   0.002   2.562
  110TIP3    H1  273   0.444  -0.002   2.648
  110TIP3    H2  274   0.416   0.002   2.499
  111TIP3   OH2  275   2.500   3.418   1.562
  111TIP3    H1  276   2.525   3.453   1.647
  111TIP3    H2  277   2.578   3.430   1.507
  112TIP3   OH2  278   0.134   7.597   2.368
  112TIP3    H1  279   0.120   7.584   2.461
  112TIP3    H2  280   0.222   7.635   2.361
  113TIP3   OH2  281   2.395   2.796   1.054
  113TIP3    H1  282   2.473   2.741   1.046
  113TIP3    H2  283   2.354   2.793   0.968
  114TIP3   OH2  284   4.930   0.673   0.921
  114TIP3    H1  285   4.909   0.702   1.009
  114TIP3    H2  286   5.013   0.716   0.900
  115TIP3   OH2  287   0.619   1.956   6.198
  115TIP3    H1  288   0.539   1.945   6.147
  115TIP3    H2  289   0.683   1.992   6.136
  116TIP3   OH2  290   6.439   5.519   5.400
  116TIP3    H1  291   6.527   5.495   5.430
  116TIP3    H2  292   6.415   5.594   5.455
  117TIP3   OH2  293   2.921   6.861   2.610
  117TIP3    H1  294   2.863   6.787   2.592
  117TIP3    H2  295   2.984   6.861   2.537
  118TIP3   OH2  296   4.725   0.536   3.382
  118TIP3    H1  297   4.665   0.608   3.360
  118TIP3    H2  298   4.713   0.524   3.476
  119TIP3   OH2  299   4.583   0.519   5.345
  119TIP3    H1  300   4.615   0.486   5.261
  119TIP3    H2  301   4.652   0.577   5.377
  120TIP3   OH2  302   4.169   3.513   3.164
  120TIP3    H1  303   4.087   3.465   3.178
  120TIP3    H2  304   4.141   3.604   3.149
  121TIP3   OH2  305   1.793   6.071   0.719
  121TIP3    H1  306   1.828   6.102   0.636
  121TIP3    H2  307   1.752   5.987   0.699
  122TIP3   OH2  308   2.957   0.620   0.710
  122TIP3    H1  309   2.865   0.602   0.687
  122TIP3    H2  310   2.994   0.660   0.632
  123TIP3   OH2  311   1.716   7.128   1.522
  123TIP3    H1  312   1.780   7.171   1.465
  123TIP3    H2  313   1.672   7.064   1.466
  124TIP3   OH2  314   0.224   4.412   0.028
  124TIP3    H1  315   0.153   4.349   0.034
  124TIP3    H2  316   0.206   4.462  -0.051
  125TIP3   OH2  317   1.288   5.101   3.141
  125TIP3    H1  318   1.234   5.179   3.129
  125TIP3    H2  319   1.240   5.032   3.096
  126TIP3   OH2  320   7.061   6.720   6.131
  126TIP3    H1  321   6.978   6.762   6.107
  126TIP3    H2  322   7.121   6.792   6.147
  127TIP3   OH2  323   7.425   4.654   2.321
  127TIP3    H1  324   7.465   4.740   2.315
  127TIP3    H2  325   7.332   4.672   2.338
  128TIP3   OH2  326   0.571   7.258   3.217
  128TIP3    H1  327   0.628   7.298   3.282
  128TIP3    H2  328   0.605   7.289   3.133
  129TIP3   OH2  329   5.265   2.287   0.896
  129TIP3    H1  330   5.349   2.247   0.920
  129TIP3    H2  331   5.257   2.362   0.955
  130TIP3   OH2  332   7.440   7.076   0.058
  130TIP3    H1  333   7.508   7.085   0.125
  130TIP3    H2  334   7.481   7.023  -0.011
  131TIP3   OH2  335   3.438   4.682   0.217
  131TIP3    H1  336   3.364   4.639   0.174
  131TIP3    H2  337   3.399   4.732   0.289
  132TIP3   OH2  338   1.327   5.162   0.875
  132TIP3    H1  339   1.256   5.104   0.900
  132TIP3    H2  340   1.372   5.183   0.958
  133TIP3   OH2  341   1.243   5.496   1.487
  133TIP3    H1  342   1.295   5.438   1.431
  133TIP3    H2  343   1.272   5.584   1.462
  134TIP3   OH2  344   5.427   3.379   2.758
  134TIP3    H1  345   5.343   3.342   2.729
  134TIP3    H2  346   5.427   3.365   2.853
  135TIP3   OH2  347   3.214   3.434   4.329
  135TIP3    H1  348   3.232   3.345   4.361
  135TIP3    H2  349   3.228   3.490   4.406
  136TIP3   OH2  350   0.706   5.412   0.372
  136TIP3    H1  351   0.628   5.372   0.332
  136TIP3    H2  352   0.764   5.338   0.391
  137TIP3   OH2  353   8.121   5.894   0.191
  137TIP3    H1  354   8.056   5.962   0.208
  137TIP3    H2  355   8.129   5.847   0.275
  138TIP3   OH2  356   5.748   0.812   5.754
  138TIP3    H1  357   5.774   0.875   5.686
  138TIP3    H2  358   5.768   0.857   5.836
  139TIP3   OH2  359   5.529   4.936   3.392
  139TIP3    H1  360   5.471   4.922   3.317
  139TIP3    H2  361   5.471   4.946   3.467
  140TIP3   OH2  362   0.637   3.541   0.585
  140TIP3    H1  363   0.606   3.490   0.510
  140TIP3    H2  364   0.576   3.520   0.656
  141TIP3   OH2  365   2.590   3.260   4.978
  141TIP3    H1  366   2.605   3.230   4.888
  141TIP3    H2  367   2.660   3.219   5.028
  142TIP3   OH2  368   0.926   4.939   4.089
  142TIP3    H1  369   0.944   5.033   4.091
  142TIP3    H2  370   1.010   4.900   4.066
  143TIP3   OH2  371   7.111   1.636   4.383
  143TIP3    H1  372   7.051   1.709   4.399
  143TIP3    H2  373   7.070   1.587   4.311
  144TIP3   OH2  374   3.319   0.419   4.235
  144TIP3    H1  375   3.310   0.513   4.222
  144TIP3    H2  376   3.315   0.382   4.147
  145TIP3   OH2  377   6.755   3.566   0.835
  145TIP3    H1  378   6.836   3.592   0.791
  145TIP3    H2  379   6.746   3.473   0.816
  146TIP3   OH2  380   5.723   7.226   3.368
  146TIP3    H1  381   5.688   7.137   3.365
  146TIP3    H2  382   5.708   7.260   3.280
  147TIP3   OH2  383   7.546   1.442   6.710
  147TIP3    H1  384   7.624   1.496   6.705
  147TIP3    H2  385   7.504   1.453   6.624
  148TIP3   OH2  386   1.033   3.144   2.052
  148TIP3    H1  387   0.948   3.186   2.038
  148TIP3    H2  388   1.030   3.112   2.142
  149TIP3   OH2  389   1.956   7.310   0.563
  149TIP3    H1  390   1.964   7.404   0.581
  149TIP3    H2  391   1.958   7.269   0.650
  150TIP3   OH2  392   1.163   2.689   3.593
  150TIP3    H1  393   1.089   2.727   3.546
  150TIP3    H2  394   1.142   2.704   3.686
  151TIP3   OH2  395   6.857   2.761   1.226
  151TIP3    H1  396   6.812   2.747   1.143
  151TIP3    H2  397   6.866   2.674   1.265
  152TIP3   OH2  398   0.174   2.136   3.083
  152TIP3    H1  399   0.130   2.105   3.162
  152TIP3    H2  400   0.223   2.061   3.051
  153TIP3   OH2  401   2.623   5.752   4.532
  153TIP3    H1  402   2.651   5.757   4.440
  153TIP3    H2  403   2.527   5.758   4.528
  154TIP3   OH2  404   4.093   7.000   5.474
  154TIP3    H1  405   4.085   7.063   5.402
  154TIP3    H2  406   4.186   6.979   5.477
  155TIP3   OH2  407   2.694   4.646   3.567
  155TIP3    H1  408   2.733   4.707   3.504
  155TIP3    H2  409   2.624   4.696   3.609
  156TIP3   OH2  410   4.542   4.227   1.123
  156TIP3    H1  411   4.593   4.149   1.101
  156TIP3    H2  412   4.467   4.224   1.063
  157TIP3   OH2  413   6.506   5.203   3.122
  157TIP3    H1  414   6.555   5.123   3.141
  157TIP3    H2  415   6.541   5.233   3.038
  158TIP3   OH2  416   7.600   5.553   5.533
  158TIP3    H1  417   7.583   5.570   5.440
  158TIP3    H2  418   7.517   5.572   5.577
  159TIP3   OH2  419   6.820   2.196   0.135
  159TIP3    H1  420   6.756   2.138   0.176
  159TIP3    H2  421   6.779   2.283   0.139
  160TIP3   OH2  422   4.759   4.867   0.263
  160TIP3    H1  423   4.852   4.847   0.254
  160TIP3    H2  424   4.725   4.865   0.174
  161TIP3   OH2  425   7.456   5.859   6.594
  161TIP3    H1  426   7.376   5.891   6.636
  161TIP3    H2  427   7.443   5.765   6.585
  162TIP3   OH2  428   8.259   6.551   0.516
  162TIP3    H1  429   8.338   6.498   0.527
  162TIP3    H2  430   8.211   6.507   0.446
  163TIP3   OH2  431   7.007   6.845   3.594
  163TIP3    H1  432   7.045   6.796   3.520
  163TIP3    H2  433   6.959   6.917   3.553
  164TIP3   OH2  434   1.706   4.455   2.618
  164TIP3    H1  435   1.689   4.412   2.701
  164TIP3    H2  436   1.801   4.460   2.611
  165TIP3   OH2  437   7.757   5.169   1.880
  165TIP3    H1  438   7.671   5.174   1.838
  165TIP3    H2  439   7.737   5.162   1.974
  166TIP3   OH2  440   2.461   0.478   3.794
  166TIP3    H1  441   2.411   0.449   3.870
  166TIP3    H2  442   2.521   0.544   3.828
  167TIP3   OH2  443   4.280   3.192   3.705
  167TIP3    H1  444   4.266   3.194   3.610
  167TIP3    H2  445   4.313   3.280   3.726
  168TIP3   OH2  446   3.772   1.554   2.719
  168TIP3    H1  447   3.847   1.519   2.767
  168TIP3    H2  448   3.754   1.487   2.652
  169TIP3   OH2  449   6.152   6.891   1.404
  169TIP3    H1  450   6.229   6.869   1.456
  169TIP3    H2  451   6.139   6.817   1.345
  170TIP3   OH2  452   3.466   3.350   3.605
  170TIP3    H1  453   3.438   3.264   3.638
  170TIP3    H2  454   3.451   3.410   3.677
  171TIP3   OH2  455   3.998   7.680   5.789
  171TIP3    H1  456   3.909   7.663   5.759
  171TIP3    H2  457   4.045   7.709   5.710
  172TIP3   OH2  458   4.804   1.512   4.098
  172TIP3    H1  459   4.768   1.454   4.031
  172TIP3    H2  460   4.858   1.574   4.050
  173TIP3   OH2  461   0.783   5.823   5.993
  173TIP3    H1  462   0.804   5.823   5.900
  173TIP3    H2  463   0.785   5.915   6.019
  174TIP3   OH2  464   5.786   1.865   6.031
  174TIP3    H1  465   5.802   1.871   6.126
  174TIP3    H2  466   5.691   1.858   6.023
  175TIP3   OH2  467   0.239   0.222   4.097
  175TIP3    H1  468   0.320   0.248   4.139
  175TIP3    H2  469   0.266   0.160   4.028
  176TIP3   OH2  470   1.572   4.742   6.613
  176TIP3    H1  471   1.621   4.742   6.531
  176TIP3    H2  472   1.588   4.828   6.651
  177TIP3   OH2  473   2.615   1.377   4.610
  177TIP3    H1  474   2.557   1.316   4.656
  177TIP3    H2  475   2.640   1.330   4.531
  178TIP3   OH2  476   7.065   2.685   0.612
  178TIP3    H1  477   7.107   2.751   0.557
  178TIP3    H2  478   7.003   2.641   0.553
  179TIP3   OH2  479   5.663   6.837   0.773
  179TIP3    H1  480   5.583   6.883   0.796
  179TIP3    H2  481   5.726   6.864   0.839
  180TIP3   OH2  482   3.415   1.153   0.106
  180TIP3    H1  483   3.388   1.140   0.015
  180TIP3    H2  484   3.332   1.158   0.155
  181TIP3   OH2  485   3.689   7.615   0.259
  181TIP3    H1  486   3.766   7.649   0.213
  181TIP3    H2  487   3.627   7.688   0.259
  182TIP3   OH2  488   4.556   1.162   0.845
  182TIP3    H1  489   4.610   1.088   0.817
  182TIP3    H2  490   4.618   1.230   0.869
  183TIP3   OH2  491   0.278   2.022   0.418
  183TIP3    H1  492   0.355   1.966   0.408
  183TIP3    H2  493   0.312   2.103   0.457
  184TIP3   OH2  494   4.096   4.825   2.054
  184TIP3    H1  495   4.182   4.798   2.085
  184TIP3    H2  496   4.071   4.897   2.113
  185TIP3   OH2  497   4.030   0.978   3.586
  185TIP3    H1  498   4.085   0.906   3.616
  185TIP3    H2  499   3.942   0.940   3.581
  186TIP3   OH2  500   4.217   5.244   1.841
  186TIP3    H1  501   4.244   5.328   1.876
  186TIP3    H2  502   4.274   5.230   1.765
  187TIP3   OH2  503   3.541   1.993   2.395
  187TIP3    H1  504   3.637   1.985   2.391
  187TIP3    H2  505   3.513   1.991   2.303
  188TIP3   OH2  506   4.571   3.314   6.033
  188TIP3    H1  507   4.633   3.314   5.960
  188TIP3    H2  508   4.537   3.224   6.036
  189TIP3   OH2  509   3.149   5.458   4.301
  189TIP3    H1  510   3.149   5.369   4.264
  189TIP3    H2  511   3.058   5.471   4.330
  190TIP3   OH2  512   4.466   5.909   6.560
  190TIP3    H1  513   4.557   5.910   6.591
  190TIP3    H2  514   4.458   5.988   6.507
  191TIP3   OH2  515   3.000   6.764   0.095
  191TIP3    H1  516   3.086   6.755   0.135
  191TIP3    H2  517   2.947   6.695   0.135
  192TIP3   OH2  518   0.319   4.955   2.672
  192TIP3    H1  519   0.247   5.009   2.640
  192TIP3    H2  520   0.309   4.956   2.768
  193TIP3   OH2  521   4.837   5.535   4.623
  193TIP3    H1  522   4.910   5.484   4.659
  193TIP3    H2  523   4.803   5.584   4.698
  194TIP3   OH2  524   6.250   4.861   2.758
  194TIP3    H1  525   6.345   4.860   2.768
  194TIP3    H2  526   6.220   4.786   2.810
  195TIP3   OH2  527   8.236   3.361   0.243
  195TIP3    H1  528   8.266   3.439   0.196
  195TIP3    H2  529   8.172   3.320   0.185
  196TIP3   OH2  530   5.341   4.953   2.573
  196TIP3    H1  531   5.396   4.961   2.651
  196TIP3    H2  532   5.259   4.915   2.605
  197TIP3   OH2  533   6.885   1.515   2.427
  197TIP3    H1  534   6.869   1.487   2.517
  197TIP3    H2  535   6.831   1.457   2.374
  198TIP3   OH2  536   6.414   1.363   3.260
  198TIP3    H1  537   6.470   1.425   3.305
  198TIP3    H2  538   6.474   1.309   3.208
  199TIP3   OH2  539   7.793   5.568   0.426
  199TIP3    H1  540   7.859   5.532   0.485
  199TIP3    H2  541   7.812   5.661   0.421
  200TIP3   OH2  542   7.431   1.831   1.094
  200TIP3    H1  543   7.394   1.906   1.140
  200TIP3    H2  544   7.437   1.762   1.161
  201TIP3   OH2  545   6.219   5.976   1.469
  201TIP3    H1  546   6.223   5.881   1.477
  201TIP3    H2  547   6.224   5.993   1.375
  202TIP3   OH2  548   5.685   2.112   6.202
  202TIP3    H1  549   5.726   2.033   6.236
  202TIP3    H2  550   5.600   2.116   6.245
  203TIP3   OH2  551   7.031   4.852   3.843
  203TIP3    H1  552   7.050   4.894   3.926
  203TIP3    H2  553   7.050   4.759   3.858
  204TIP3   OH2  554   7.602   6.411   4.997
  204TIP3    H1  555   7.618   6.437   5.088
  204TIP3    H2  556   7.633   6.484   4.945
  205TIP3   OH2  557   2.401   6.434   2.271
  205TIP3    H1  558   2.323   6.482   2.245
  205TIP3    H2  559   2.439   6.402   2.190
  206TIP3   OH2  560   2.173   0.139   6.049
  206TIP3    H1  561   2.244   0.199   6.072
  206TIP3    H2  562   2.113   0.142   6.124
  207TIP3   OH2  563   4.331   0.230   0.298
  207TIP3    H1  564   4.276   0.308   0.300
  207TIP3    H2  565   4.351   0.217   0.205
  208TIP3   OH2  566   7.125   6.766   0.753
  208TIP3    H1  567   7.103   6.683   0.795
  208TIP3    H2  568   7.048   6.822   0.767
  209TIP3   OH2  569   0.850   3.789   3.800
  209TIP3    H1  570   0.939   3.824   3.794
  209TIP3    H2  571   0.828   3.794   3.893
  210TIP3   OH2  572   0.877   0.787   6.018
  210TIP3    H1  573   0.828   0.740   6.085
  210TIP3    H2  574   0.905   0.719   5.957
  211TIP3   OH2  575   5.969   0.467   2.735
  211TIP3    H1  576   5.965   0.556   2.702
  211TIP3    H2  577   5.951   0.475   2.829
  212TIP3   OH2  578   4.388   5.315   4.004
  212TIP3    H1  579   4.437   5.349   3.929
  212TIP3    H2  580   4.455   5.303   4.072
  213TIP3   OH2  581   5.038   0.216   2.297
  213TIP3    H1  582   5.114   0.194   2.243
  213TIP3    H2  583   5.035   0.312   2.296
  214TIP3   OH2  584   3.452   6.113   0.706
  214TIP3    H1  585   3.477   6.156   0.625
  214TIP3    H2  586   3.442   6.185   0.769
  215TIP3   OH2  587   0.490   1.330   0.244
  215TIP3    H1  588   0.543   1.314   0.166
  215TIP3    H2  589   0.548   1.310   0.317
  216TIP3   OH2  590   5.818   2.659   2.789
  216TIP3    H1  591   5.863   2.588   2.836
  216TIP3    H2  592   5.887   2.706   2.743
  217TIP3   OH2  593   0.211   6.905   2.876
  217TIP3    H1  594   0.282   6.918   2.940
  217TIP3    H2  595   0.180   6.816   2.893
  218TIP3   OH2  596   2.131   0.914   0.370
  218TIP3    H1  597   2.102   0.995   0.328
  218TIP3    H2  598   2.224   0.908   0.348
  219TIP3   OH2  599   1.506   7.377   2.131
  219TIP3    H1  600   1.425   7.327   2.122
  219TIP3    H2  601   1.532   7.363   2.222
  220TIP3   OH2  602   7.501   2.787   3.355
  220TIP3    H1  603   7.494   2.870   3.308
  220TIP3    H2  604   7.477   2.808   3.445
  221TIP3   OH2  605   2.237   3.763   3.540
  221TIP3    H1  606   2.316   3.800   3.501
  221TIP3    H2  607   2.242   3.788   3.633
  222TIP3   OH2  608   2.071   2.508   1.099
  222TIP3    H1  609   1.981   2.507   1.133
  222TIP3    H2  610   2.117   2.445   1.154
  223TIP3   OH2  611   5.544   3.718   5.080
  223TIP3    H1  612   5.570   3.736   5.170
  223TIP3    H2  613   5.487   3.791   5.056
  224TIP3   OH2  614   2.702   5.107   2.036
  224TIP3    H1  615   2.650   5.074   1.962
  224TIP3    H2  616   2.784   5.135   1.997
  225TIP3   OH2  617   2.472   4.611   5.155
  225TIP3    H1  618   2.502   4.521   5.163
  225TIP3    H2  619   2.478   4.631   5.062
  226TIP3   OH2  620   4.996   3.070   0.184
  226TIP3    H1  621   5.074   3.035   0.227
  226TIP3    H2  622   4.923   3.039   0.237
  227TIP3   OH2  623   0.800   7.035   6.114
  227TIP3    H1  624   0.873   6.976   6.131
  227TIP3    H2  625   0.837   7.123   6.122
  228TIP3   OH2  626   0.299   3.492   0.255
  228TIP3    H1  627   0.373   3.542   0.289
  228TIP3    H2  628   0.264   3.546   0.184
  229TIP3   OH2  629   1.697   0.502  -0.046
  229TIP3    H1  630   1.752   0.577  -0.024
  229TIP3    H2  631   1.748   0.426  -0.017
  230TIP3   OH2  632   0.533   5.874   3.186
  230TIP3    H1  633   0.472   5.834   3.249
  230TIP3    H2  634   0.477   5.902   3.114
  231TIP3   OH2  635   3.930   4.943   5.335
  231TIP3    H1  636   3.854   4.892   5.309
  231TIP3    H2  637   4.005   4.888   5.313
  232TIP3   OH2  638   3.504   2.331   5.261
  232TIP3    H1  639   3.519   2.284   5.178
  232TIP3    H2  640   3.585   2.379   5.276
  233TIP3   OH2  641   1.795   3.855   1.971
  233TIP3    H1  642   1.881   3.875   1.933
  233TIP3    H2  643   1.813   3.829   2.061
  234TIP3   OH2  644   1.092   6.078   6.629
  234TIP3    H1  645   1.028   6.109   6.565
  234TIP3    H2  646   1.081   6.137   6.704
  235TIP3   OH2  647   1.161   4.947   4.311
  235TIP3    H1  648   1.148   4.855   4.334
  235TIP3    H2  649   1.201   4.945   4.224
  236TIP3   OH2  650   5.447   1.720   5.461
  236TIP3    H1  651   5.412   1.777   5.393
  236TIP3    H2  652   5.542   1.725   5.451
  237TIP3   OH2  653   3.994   7.239   4.240
  237TIP3    H1  654   4.043   7.251   4.159
  237TIP3    H2  655   3.941   7.319   4.247
  238TIP3   OH2  656   7.595   3.182   5.435
  238TIP3    H1  657   7.676   3.217   5.398
  238TIP3    H2  658   7.557   3.128   5.366
  239TIP3   OH2  659   0.542   5.595   2.274
  239TIP3    H1  660   0.452   5.628   2.282
  239TIP3    H2  661   0.597   5.673   2.276
  240TIP3   OH2  662   7.897   0.771   0.282
  240TIP3    H1  663   7.962   0.725   0.336
  240TIP3    H2  664   7.823   0.711   0.279
  241TIP3   OH2  665   6.598   6.456   6.450
  241TIP3    H1  666   6.623   6.441   6.359
  241TIP3    H2  667   6.575   6.549   6.454
  242TIP3   OH2  668   2.632   6.635   2.837
  242TIP3    H1  669   2.554   6.674   2.874
  242TIP3    H2  670   2.680   6.600   2.912
  243TIP3   OH2  671   1.741   2.120   0.883
  243TIP3    H1  672   1.740   2.186   0.814
  243TIP3    H2  673   1.672   2.059   0.859
  244TIP3   OH2  674   1.001   1.906   2.330
  244TIP3    H1  675   1.059   1.902   2.255
  244TIP3    H2  676   0.921   1.947   2.296
  245TIP3   OH2  677   6.052   4.444   1.283
  245TIP3    H1  678   6.054   4.540   1.277
  245TIP3    H2  679   5.959   4.422   1.289
  246TIP3   OH2  680   2.832   1.103   1.393
  246TIP3    H1  681   2.763   1.064   1.446
  246TIP3    H2  682   2.809   1.196   1.388
  247TIP3   OH2  683   7.253   4.518   4.839
  247TIP3    H1  684   7.255   4.607   4.804
  247TIP3    H2  685   7.186   4.473   4.788
  248TIP3   OH2  686   6.168   6.981   0.674
  248TIP3    H1  687   6.091   7.005   0.726
  248TIP3    H2  688   6.132   6.953   0.590
  249TIP3   OH2  689   6.002   2.037   3.937
  249TIP3    H1  690   6.005   1.945   3.961
  249TIP3    H2  691   6.017   2.038   3.843
  250TIP3   OH2  692   0.214   0.296   3.652
  250TIP3    H1  693   0.171   0.243   3.719
  250TIP3    H2  694   0.302   0.309   3.685
  251TIP3   OH2  695   7.290   0.229   4.733
  251TIP3    H1  696   7.366   0.190   4.690
  251TIP3    H2  697   7.267   0.167   4.802
  252TIP3   OH2  698   2.442   2.518   6.787
  252TIP3    H1  699   2.524   2.514   6.736
  252TIP3    H2  700   2.402   2.432   6.774
  253TIP3   OH2  701   6.681   2.616   3.167
  253TIP3    H1  702   6.749   2.550   3.151
  253TIP3    H2  703   6.699   2.685   3.104
  254TIP3   OH2  704   3.354   7.437   3.900
  254TIP3    H1  705   3.297   7.471   3.831
  254TIP3    H2  706   3.387   7.355   3.864
  255TIP3   OH2  707   7.863   2.718   6.394
  255TIP3    H1  708   7.954   2.696   6.374
  255TIP3    H2  709   7.868   2.807   6.430
  256TIP3   OH2  710   7.332   4.346   3.593
  256TIP3    H1  711   7.283   4.426   3.612
  256TIP3    H2  712   7.275   4.275   3.625
  257TIP3   OH2  713   6.023   2.319   6.473
  257TIP3    H1  714   5.947   2.365   6.508
  257TIP3    H2  715   6.054   2.265   6.545
  258TIP3   OH2  716   6.733   7.501   1.756
  258TIP3    H1  717   6.747   7.485   1.850
  258TIP3    H2  718   6.648   7.460   1.738
  259TIP3   OH2  719   5.063   1.685   4.179
  259TIP3    H1  720   5.061   1.620   4.109
  259TIP3    H2  721   5.038   1.636   4.258
  260TIP3   OH2  722   4.219   3.576   3.502
  260TIP3    H1  723   4.147   3.513   3.499
  260TIP3    H2  724   4.287   3.538   3.446
  261TIP3   OH2  725   1.717   1.314   2.720
  261TIP3    H1  726   1.688   1.228   2.750
  261TIP3    H2  727   1.797   1.332   2.769
  262TIP3   OH2  728   7.826   6.547   2.898
  262TIP3    H1  729   7.846   6.460   2.863
  262TIP3    H2  730   7.789   6.529   2.985
  263TIP3   OH2  731   6.730   4.823   3.962
  263TIP3    H1  732   6.755   4.905   4.004
  263TIP3    H2  733   6.768   4.755   4.017
  264TIP3   OH2  734   3.864   7.598   1.236
  264TIP3    H1  735   3.878   7.549   1.155
  264TIP3    H2  736   3.942   7.652   1.246
  265TIP3   OH2  737   3.224   6.082   3.719
  265TIP3    H1  738   3.311   6.078   3.680
  265TIP3    H2  739   3.197   5.991   3.729
  266TIP3   OH2  740   0.688   6.914   0.337
  266TIP3    H1  741   0.642   6.884   0.259
  266TIP3    H2  742   0.620   6.920   0.404
  267TIP3   OH2  743   1.861   6.873   2.523
  267TIP3    H1  744   1.807   6.853   2.446
  267TIP3    H2  745   1.951   6.860   2.492
  268TIP3   OH2  746   0.662   4.804   2.514
  268TIP3    H1  747   0.580   4.791   2.467
  268TIP3    H2  748   0.707   4.873   2.466
  269TIP3   OH2  749   0.680   3.338   5.917
  269TIP3    H1  750   0.673   3.249   5.883
  269TIP3    H2  751   0.597   3.380   5.894
  270TIP3   OH2  752   1.783   5.621   4.874
  270TIP3    H1  753   1.847   5.666   4.929
  270TIP3    H2  754   1.782   5.531   4.907
  271TIP3   OH2  755   2.048   2.416   4.456
  271TIP3    H1  756   2.037   2.373   4.372
  271TIP3    H2  757   1.985   2.373   4.514
  272TIP3   OH2  758   7.945  -0.023   6.248
  272TIP3    H1  759   7.944   0.070   6.272
  272TIP3    H2  760   8.024  -0.033   6.195
  273TIP3   OH2  761   0.368   0.363   3.075
  273TIP3    H1  762   0.406   0.394   3.157
  273TIP3    H2  763   0.275   0.354   3.094
  274TIP3   OH2  764   2.502   7.625   5.964
  274TIP3    H1  765   2.548   7.708   5.951
  274TIP3    H2  766   2.533   7.570   5.892
  275TIP3   OH2  767   2.899   4.424   5.673
  275TIP3    H1  768   2.812   4.452   5.701
  275TIP3    H2  769   2.894   4.420   5.578
  276TIP3   OH2  770   1.712   6.411   2.486
  276TIP3    H1  771   1.699   6.316   2.492
  276TIP3    H2  772   1.640   6.441   2.430
  277TIP3   OH2  773   5.008   0.917   5.664
  277TIP3    H1  774   5.081   0.867   5.626
  277TIP3    H2  775   4.947   0.930   5.592
  278TIP3   OH2  776   0.496   5.598   1.554
  278TIP3    H1  777   0.474   5.529   1.616
  278TIP3    H2  778   0.440   5.671   1.579
  279TIP3   OH2  779   1.226   3.955   6.148
  279TIP3    H1  780   1.197   3.877   6.196
  279TIP3    H2  781   1.262   4.013   6.215
  280TIP3   OH2  782   7.933   7.331   4.926
  280TIP3    H1  783   7.848   7.361   4.960
  280TIP3    H2  784   7.923   7.335   4.831
  281TIP3   OH2  785   0.234   2.631   3.640
  281TIP3    H1  786   0.296   2.559   3.632
  281TIP3    H2  787   0.232   2.671   3.553
  282TIP3   OH2  788   0.697   0.222   5.758
  282TIP3    H1  789   0.772   0.162   5.752
  282TIP3    H2  790   0.702   0.256   5.847
  283TIP3   OH2  791   5.572   3.783   5.345
  283TIP3    H1  792   5.520   3.838   5.403
  283TIP3    H2  793   5.662   3.811   5.360
  284TIP3   OH2  794   7.906   4.240   4.561
  284TIP3    H1  795   7.923   4.185   4.485
  284TIP3    H2  796   7.882   4.325   4.524
  285TIP3   OH2  797   3.553   0.161   1.240
  285TIP3    H1  798   3.544   0.164   1.335
  285TIP3    H2  799   3.574   0.070   1.221
  286TIP3   OH2  800   1.372   3.177   5.596
  286TIP3    H1  801   1.284   3.154   5.568
  286TIP3    H2  802   1.371   3.273   5.601
  287TIP3   OH2  803   2.728   7.357   5.093
  287TIP3    H1  804   2.673   7.286   5.058
  287TIP3    H2  805   2.788   7.314   5.154
  288TIP3   OH2  806   1.890   3.886   0.230
  288TIP3    H1  807   1.868   3.918   0.142
  288TIP3    H2  808   1.935   3.959   0.271
  289TIP3   OH2  809   0.711   0.541   3.367
  289TIP3    H1  810   0.659   0.585   3.435
  289TIP3    H2  811   0.788   0.596   3.357
  290TIP3   OH2  812   8.024   3.976   4.806
  290TIP3    H1  813   8.072   3.980   4.889
  290TIP3    H2  814   7.955   3.912   4.821
  291TIP3   OH2  815   4.965   6.343   2.640
  291TIP3    H1  816   4.965   6.273   2.575
  291TIP3    H2  817   5.042   6.324   2.695
  292TIP3   OH2  818   0.632   7.662   3.495
  292TIP3    H1  819   0.668   7.707   3.418
  292TIP3    H2  820   0.592   7.731   3.547
  293TIP3   OH2  821   1.532   5.239   2.642
  293TIP3    H1  822   1.495   5.244   2.554
  293TIP3    H2  823   1.627   5.233   2.628
  294TIP3   OH2  824   7.609   5.399   5.807
  294TIP3    H1  825   7.619   5.398   5.712
  294TIP3    H2  826   7.690   5.361   5.840
  295TIP3   OH2  827   1.903   6.300   2.197
  295TIP3    H1  828   1.902   6.365   2.267
  295TIP3    H2  829   1.871   6.219   2.238
  296TIP3   OH2  830   0.527   4.819   4.426
  296TIP3    H1  831   0.593   4.877   4.388
  296TIP3    H2  832   0.535   4.831   4.521
  297TIP3   OH2  833   3.748   0.899   1.556
  297TIP3    H1  834   3.741   0.805   1.537
  297TIP3    H2  835   3.825   0.928   1.508
  298TIP3   OH2  836   4.889   3.361   0.363
  298TIP3    H1  837   4.834   3.288   0.392
  298TIP3    H2  838   4.836   3.439   0.379
  299TIP3   OH2  839   3.382   2.214   4.465
  299TIP3    H1  840   3.412   2.213   4.556
  299TIP3    H2  841   3.442   2.156   4.419
  300TIP3   OH2  842   0.214   2.224   2.051
  300TIP3    H1  843   0.261   2.152   2.010
  300TIP3    H2  844   0.169   2.185   2.126
  301TIP3   OH2  845   1.580   2.229   5.338
  301TIP3    H1  846   1.550   2.153   5.388
  301TIP3    H2  847   1.554   2.304   5.391
  302TIP3   OH2  848   7.552   3.336   3.039
  302TIP3    H1  849   7.527   3.255   2.995
  302TIP3    H2  850   7.592   3.389   2.971
  303TIP3   OH2  851   7.695   4.051   4.766
  303TIP3    H1  852   7.657   3.987   4.706
  303TIP3    H2  853   7.642   4.130   4.754
  304TIP3   OH2  854   3.505   4.029   5.790
  304TIP3    H1  855   3.534   4.104   5.738
  304TIP3    H2  856   3.570   3.961   5.772
  305TIP3   OH2  857   2.193   6.102   0.463
  305TIP3    H1  858   2.146   6.060   0.535
  305TIP3    H2  859   2.270   6.048   0.449
  306TIP3   OH2  860   2.591   4.040   0.765
  306TIP3    H1  861   2.682   4.033   0.795
  306TIP3    H2  862   2.547   4.091   0.833
  307TIP3   OH2  863   3.887   1.432   1.293
  307TIP3    H1  864   3.862   1.390   1.376
  307TIP3    H2  865   3.902   1.359   1.233
  308TIP3   OH2  866   5.677   7.351   1.326
  308TIP3    H1  867   5.673   7.398   1.242
  308TIP3    H2  868   5.749   7.289   1.315
  309TIP3   OH2  869   3.369   6.277   6.457
  309TIP3    H1  870   3.459   6.266   6.487
  309TIP3    H2  871   3.320   6.302   6.536
  310TIP3   OH2  872   6.030   2.406   1.693
  310TIP3    H1  873   6.073   2.485   1.658
  310TIP3    H2  874   5.942   2.436   1.716
  311TIP3   OH2  875   6.467   6.344   0.868
  311TIP3    H1  876   6.502   6.287   0.936
  311TIP3    H2  877   6.375   6.358   0.893
  312TIP3   OH2  878   4.437   7.474   3.879
  312TIP3    H1  879   4.378   7.506   3.947
  312TIP3    H2  880   4.445   7.548   3.818
  313TIP3   OH2  881   6.639   6.362   4.304
  313TIP3    H1  882   6.681   6.329   4.383
  313TIP3    H2  883   6.546   6.366   4.326
  314TIP3   OH2  884   1.225   6.677   3.839
  314TIP3    H1  885   1.279   6.607   3.801
  314TIP3    H2  886   1.263   6.692   3.926
  315TIP3   OH2  887   2.131   0.929   3.636
  315TIP3    H1  888   2.077   0.990   3.585
  315TIP3    H2  889   2.081   0.913   3.716
  316TIP3   OH2  890   2.970   0.850   1.221
  316TIP3    H1  891   3.009   0.922   1.171
  316TIP3    H2  892   2.921   0.799   1.156
  317TIP3   OH2  893   2.138   6.579   2.606
  317TIP3    H1  894   2.226   6.605   2.582
  317TIP3    H2  895   2.083   6.606   2.532
  318TIP3   OH2  896   0.115   3.490   1.593
  318TIP3    H1  897   0.202   3.472   1.630
  318TIP3    H2  898   0.054   3.474   1.665
  319TIP3   OH2  899   7.006   1.951   4.080
  319TIP3    H1  900   6.995   1.864   4.043
  319TIP3    H2  901   6.917   1.982   4.097
  320TIP3   OH2  902   7.934   0.079   5.437
  320TIP3    H1  903   7.871   0.096   5.508
  320TIP3    H2  904   7.961  -0.012   5.451
  321TIP3   OH2  905   2.759   0.317   6.733
  321TIP3    H1  906   2.837   0.262   6.730
  321TIP3    H2  907   2.692   0.266   6.687
  322TIP3   OH2  908   4.434   1.223   4.786
  322TIP3    H1  909   4.409   1.160   4.852
  322TIP3    H2  910   4.383   1.199   4.708
  323TIP3   OH2  911   0.029   4.115   3.877
  323TIP3    H1  912   0.125   4.123   3.875
  323TIP3    H2  913   0.003   4.121   3.785
  324TIP3   OH2  914   6.834   5.410   3.776
  324TIP3    H1  915   6.815   5.495   3.815
  324TIP3    H2  916   6.888   5.365   3.841
  325TIP3   OH2  917   4.221   5.599   3.406
  325TIP3    H1  918   4.285   5.543   3.450
  325TIP3    H2  919   4.270   5.640   3.335
  326TIP3   OH2  920   7.948   3.059   2.328
  326TIP3    H1  921   7.865   3.095   2.298
  326TIP3    H2  922   7.925   2.989   2.389
  327TIP3   OH2  923   2.820   4.612   4.570
  327TIP3    H1  924   2.844   4.676   4.503
  327TIP3    H2  925   2.815   4.663   4.651
  328TIP3   OH2  926   2.841   1.555   3.809
  328TIP3    H1  927   2.910   1.612   3.842
  328TIP3    H2  928   2.789   1.533   3.886
  329TIP3   OH2  929   1.257   4.808   0.924
  329TIP3    H1  930   1.209   4.876   0.972
  329TIP3    H2  931   1.230   4.820   0.833
  330TIP3   OH2  932   2.418   1.493   4.347
  330TIP3    H1  933   2.419   1.517   4.440
  330TIP3    H2  934   2.359   1.557   4.307
  331TIP3   OH2  935   4.760   2.780   1.090
  331TIP3    H1  936   4.696   2.720   1.128
  331TIP3    H2  937   4.727   2.867   1.113
  332TIP3   OH2  938   0.632   4.359   1.325
  332TIP3    H1  939   0.591   4.411   1.393
  332TIP3    H2  940   0.677   4.289   1.372
  333TIP3   OH2  941   6.584   7.390   3.265
  333TIP3    H1  942   6.562   7.309   3.312
  333TIP3    H2  943   6.620   7.359   3.182
  334TIP3   OH2  944   2.432   2.076   4.101
  334TIP3    H1  945   2.353   2.129   4.095
  334TIP3    H2  946   2.451   2.050   4.011
  335TIP3   OH2  947   1.640   7.033   5.690
  335TIP3    H1  948   1.629   6.963   5.625
  335TIP3    H2  949   1.659   6.987   5.771
  336TIP3   OH2  950   7.976   7.347   5.584
  336TIP3    H1  951   8.028   7.275   5.549
  336TIP3    H2  952   7.953   7.320   5.673
  337TIP3   OH2  953   2.220   4.364   3.172
  337TIP3    H1  954   2.255   4.277   3.152
  337TIP3    H2  955   2.190   4.358   3.262
  338TIP3   OH2  956   6.244   2.552   2.204
  338TIP3    H1  957   6.204   2.576   2.287
  338TIP3    H2  958   6.171   2.536   2.145
  339TIP3   OH2  959   5.245   5.468   2.693
  339TIP3    H1  960   5.256   5.489   2.786
  339TIP3    H2  961   5.320   5.413   2.672
  340TIP3   OH2  962   7.962   1.670   2.103
  340TIP3    H1  963   7.887   1.623   2.067
  340TIP3    H2  964   8.030   1.604   2.114
  341TIP3   OH2  965   3.364   5.196   2.956
  341TIP3    H1  966   3.301   5.264   2.934
  341TIP3    H2  967   3.311   5.119   2.976
  342TIP3   OH2  968   7.067   7.268   2.183
  342TIP3    H1  969   7.157   7.239   2.201
  342TIP3    H2  970   7.024   7.267   2.269
  343TIP3   OH2  971   2.866   3.156   3.571
  343TIP3    H1  972   2.818   3.074   3.579
  343TIP3    H2  973   2.954   3.130   3.542
  344TIP3   OH2  974   6.433   6.294   0.192
  344TIP3    H1  975   6.339   6.308   0.206
  344TIP3    H2  976   6.438   6.231   0.120
  345TIP3   OH2  977   6.073   4.292   5.301
  345TIP3    H1  978   6.152   4.343   5.283
  345TIP3    H2  979   6.017   4.306   5.225
  346TIP3   OH2  980   6.183   1.028   6.425
  346TIP3    H1  981   6.099   1.052   6.387
  346TIP3    H2  982   6.194   1.086   6.500
  347TIP3   OH2  983   7.234   3.554   0.792
  347TIP3    H1  984   7.242   3.521   0.702
  347TIP3    H2  985   7.318   3.531   0.832
  348TIP3   OH2  986   1.449   5.204   6.689
  348TIP3    H1  987   1.382   5.198   6.757
  348TIP3    H2  988   1.495   5.286   6.708
  349TIP3   OH2  989   1.795   3.837   2.263
  349TIP3    H1  990   1.753   3.863   2.345
  349TIP3    H2  991   1.731   3.779   2.221
  350TIP3   OH2  992   7.614   5.219   2.376
  350TIP3    H1  993   7.661   5.229   2.458
  350TIP3    H2  994   7.528   5.258   2.393
  351TIP3   OH2  995   2.427   0.298   0.230
  351TIP3    H1  996   2.333   0.278   0.229
  351TIP3    H2  997   2.468   0.217   0.200
  352TIP3   OH2  998   7.923   6.848   1.296
  352TIP3    H1  999   7.877   6.931   1.298
  352TIP3    H2 1000   8.007   6.868   1.254
  353TIP3   OH2 1001   7.435   3.959   0.701
  353TIP3    H1 1002   7.360   3.912   0.663
  353TIP3    H2 1003   7.503   3.952   0.634
  354TIP3   OH2 1004   3.546   0.323   2.403
  354TIP3    H1 1005   3.451   0.325   2.407
  354TIP3    H2 1006   3.573   0.275   2.481
  355TIP3   OH2 1007   2.562   0.734   0.973
  355TIP3    H1 1008   2.548   0.822   0.937
  355TIP3    H2 1009   2.474   0.699   0.987
  356TIP3   OH2 1010   6.979   2.445   3.306
  356TIP3    H1 1011   6.973   2.453   3.211
  356TIP3    H2 1012   6.937   2.524   3.339
  357TIP3   OH2 1013   4.148   1.537   4.910
  357TIP3    H1 1014   4.139   1.518   4.817
  357TIP3    H2 1015   4.138   1.452   4.953
  358TIP3   OH2 1016   5.414   1.226   5.953
  358TIP3    H1 1017   5.323   1.200   5.936
  358TIP3    H2 1018   5.466   1.171   5.894
  359TIP3   OH2 1019   1.913   4.463   0.619
  359TIP3    H1 1020   1.996   4.497   0.653
  359TIP3    H2 1021   1.908   4.496   0.529
  360TIP3   OH2 1022   6.509   1.855   3.145
  360TIP3    H1 1023   6.482   1.763   3.155
  360TIP3    H2 1024   6.549   1.877   3.229
  361TIP3   OH2 1025   2.616   7.466   1.094
  361TIP3    H1 1026   2.618   7.560   1.116
  361TIP3    H2 1027   2.562   7.427   1.163
  362TIP3   OH2 1028   1.238   0.265   1.196
  362TIP3    H1 1029   1.216   0.172   1.191
  362TIP3    H2 1030   1.312   0.269   1.256
  363TIP3   OH2 1031   0.612   6.489   2.083
  363TIP3    H1 1032   0.596   6.574   2.124
  363TIP3    H2 1033   0.685   6.504   2.023
  364TIP3   OH2 1034   7.203   2.769   5.169
  364TIP3    H1 1035   7.232   2.698   5.226
  364TIP3    H2 1036   7.206   2.848   5.223
  365TIP3   OH2 1037   0.708   3.875   1.536
  365TIP3    H1 1038   0.620   3.876   1.574
  365TIP3    H2 1039   0.734   3.782   1.539
  366TIP3   OH2 1040   2.422   5.603   3.324
  366TIP3    H1 1041   2.330   5.632   3.327
  366TIP3    H2 1042   2.422   5.529   3.264
  367TIP3   OH2 1043   2.374   0.156   2.766
  367TIP3    H1 1044   2.334   0.222   2.823
  367TIP3    H2 1045   2.357   0.073   2.810
  368TIP3   OH2 1046   5.890   2.775   2.453
  368TIP3    H1 1047   5.888   2.864   2.418
  368TIP3    H2 1048   5.799   2.746   2.453
  369TIP3   OH2 1049   7.638   3.114   5.074
  369TIP3    H1 1050   7.698   3.137   5.003
  369TIP3    H2 1051   7.610   3.024   5.053
  370TIP3   OH2 1052   0.396   0.714   2.107
  370TIP3    H1 1053   0.468   0.775   2.120
  370TIP3    H2 1054   0.317   0.766   2.124
  371TIP3   OH2 1055   3.973   7.025   0.736
  371TIP3    H1 1056   4.062   7.059   0.743
  371TIP3    H2 1057   3.924   7.072   0.804
  372TIP3   OH2 1058   0.281   1.169   2.943
  372TIP3    H1 1059   0.205   1.222   2.920
  372TIP3    H2 1060   0.245   1.097   2.995
  373TIP3   OH2 1061   5.393   3.199   3.293
  373TIP3    H1 1062   5.450   3.275   3.304
  373TIP3    H2 1063   5.338   3.198   3.371
  374TIP3   OH2 1064   3.497   4.163   4.742
  374TIP3    H1 1065   3.578   4.200   4.778
  374TIP3    H2 1066   3.429   4.225   4.767
  375TIP3   OH2 1067   6.870   3.195   5.515
  375TIP3    H1 1068   6.923   3.229   5.587
  375TIP3    H2 1069   6.847   3.106   5.541
  376TIP3   OH2 1070   5.862   1.938   0.068
  376TIP3    H1 1071   5.856   1.965  -0.024
  376TIP3    H2 1072   5.785   1.975   0.110
  377TIP3   OH2 1073   7.664   1.092   2.397
  377TIP3    H1 1074   7.707   1.173   2.368
  377TIP3    H2 1075   7.734   1.026   2.396
  378TIP3   OH2 1076   3.945   5.589   0.986
  378TIP3    H1 1077   3.880   5.557   0.923
  378TIP3    H2 1078   3.909   5.672   1.017
  379TIP3   OH2 1079   7.054   1.700   0.166
  379TIP3    H1 1080   7.077   1.607   0.176
  379TIP3    H2 1081   7.133   1.740   0.130
  380TIP3   OH2 1082   1.738   6.286   3.649
  380TIP3    H1 1083   1.793   6.359   3.620
  380TIP3    H2 1084   1.795   6.233   3.704
  381TIP3   OH2 1085   7.233   1.284   1.545
  381TIP3    H1 1086   7.226   1.233   1.626
  381TIP3    H2 1087   7.204   1.224   1.477
  382TIP3   OH2 1088   3.790   4.935   0.978
  382TIP3    H1 1089   3.746   5.004   1.027
  382TIP3    H2 1090   3.802   4.972   0.890
  383TIP3   OH2 1091   0.694   0.083   3.420
  383TIP3    H1 1092   0.747   0.161   3.405
  383TIP3    H2 1093   0.755   0.018   3.455
  384TIP3   OH2 1094   0.179   5.142   3.479
  384TIP3    H1 1095   0.117   5.181   3.416
  384TIP3    H2 1096   0.205   5.059   3.439
  385TIP3   OH2 1097   1.900   5.186   1.619
  385TIP3    H1 1098   1.958   5.238   1.674
  385TIP3    H2 1099   1.953   5.113   1.589
  386TIP3   OH2 1100   8.171   0.948   5.024
  386TIP3    H1 1101   8.132   1.030   4.995
  386TIP3    H2 1102   8.263   0.969   5.041
  387TIP3   OH2 1103   6.419   6.251   5.870
  387TIP3    H1 1104   6.378   6.334   5.844
  387TIP3    H2 1105   6.452   6.214   5.788
  388TIP3   OH2 1106   1.408   7.030   2.974
  388TIP3    H1 1107   1.410   6.938   3.001
  388TIP3    H2 1108   1.452   7.077   3.045
  389TIP3   OH2 1109   1.647   2.299   5.722
  389TIP3    H1 1110   1.637   2.350   5.642
  389TIP3    H2 1111   1.687   2.360   5.784
  390TIP3   OH2 1112   7.744   7.369   3.404
  390TIP3    H1 1113   7.763   7.428   3.331
  390TIP3    H2 1114   7.658   7.332   3.383
  391TIP3   OH2 1115   4.687   6.038   0.366
  391TIP3    H1 1116   4.645   6.016   0.449
  391TIP3    H2 1117   4.735   6.120   0.385
  392TIP3   OH2 1118   0.821   5.446   0.629
  392TIP3    H1 1119   0.773   5.493   0.561
  392TIP3    H2 1120   0.754   5.399   0.678
  393TIP3   OH2 1121   7.239   7.499   3.418
  393TIP3    H1 1122   7.310   7.530   3.361
  393TIP3    H2 1123   7.179   7.453   3.359
  394TIP3   OH2 1124   2.115  -0.011   6.688
  394TIP3    H1 1125   2.071   0.072   6.669
  394TIP3    H2 1126   2.188   0.012   6.745
  395TIP3   OH2 1127   4.402   5.928   4.597
  395TIP3    H1 1128   4.393   5.838   4.631
  395TIP3    H2 1129   4.495   5.948   4.608
  396TIP3   OH2 1130   6.591   4.678   6.495
  396TIP3    H1 1131   6.564   4.601   6.545
  396TIP3    H2 1132   6.621   4.741   6.561
  397TIP3   OH2 1133   8.297   6.759   2.989
  397TIP3    H1 1134   8.297   6.827   3.056
  397TIP3    H2 1135   8.205   6.737   2.977
  398TIP3   OH2 1136   5.164   6.902   5.128
  398TIP3    H1 1137   5.126   6.891   5.215
  398TIP3    H2 1138   5.128   6.984   5.096
  399TIP3   OH2 1139   0.881   1.731   2.009
  399TIP3    H1 1140   0.852   1.772   1.927
  399TIP3    H2 1141   0.960   1.779   2.033
  400TIP3   OH2 1142   7.768   6.874   0.033
  400TIP3    H1 1143   7.686   6.825   0.031
  400TIP3    H2 1144   7.831   6.817  -0.011
  401TIP3   OH2 1145   1.019   2.374   4.005
  401TIP3    H1 1146   1.064   2.458   4.014
  401TIP3    H2 1147   0.930   2.392   4.034
  402TIP3   OH2 1148   4.733   5.994   1.666
  402TIP3    H1 1149   4.760   6.065   1.608
  402TIP3    H2 1150   4.776   5.917   1.630
  403TIP3   OH2 1151   0.084   5.312   2.239
  403TIP3    H1 1152   0.067   5.219   2.225
  403TIP3    H2 1153   0.053   5.329   2.328
  404TIP3   OH2 1154   1.888   5.828   3.564
  404TIP3    H1 1155   1.850   5.759   3.509
  404TIP3    H2 1156   1.941   5.781   3.629
  405TIP3   OH2 1157   1.837   2.343   5.307
  405TIP3    H1 1158   1.745   2.321   5.322
  405TIP3    H2 1159   1.867   2.279   5.242
  406TIP3   OH2 1160   6.914   0.661   0.575
  406TIP3    H1 1161   6.875   0.608   0.645
  406TIP3    H2 1162   6.842   0.674   0.512
  407TIP3   OH2 1163   1.079   7.387   3.079
  407TIP3    H1 1164   1.112   7.339   3.004
  407TIP3    H2 1165   1.156   7.408   3.131
  408TIP3   OH2 1166   1.429   5.859   1.723
  408TIP3    H1 1167   1.521   5.862   1.747
  408TIP3    H2 1168   1.384   5.902   1.796
  409TIP3   OH2 1169   2.517   0.916   5.623
  409TIP3    H1 1170   2.512   0.825   5.651
  409TIP3    H2 1171   2.443   0.927   5.563
  410TIP3   OH2 1172   5.910   3.214   5.659
  410TIP3    H1 1173   5.957   3.247   5.582
  410TIP3    H2 1174   5.926   3.279   5.727
  411TIP3   OH2 1175   4.991   1.227   4.163
  411TIP3    H1 1176   4.932   1.218   4.238
  411TIP3    H2 1177   5.056   1.293   4.192
  412TIP3   OH2 1178   1.394   2.381   6.360
  412TIP3    H1 1179   1.310   2.364   6.402
  412TIP3    H2 1180   1.458   2.377   6.432
  413TIP3   OH2 1181   0.763   2.793   2.881
  413TIP3    H1 1182   0.832   2.728   2.898
  413TIP3    H2 1183   0.731   2.816   2.968
  414TIP3   OH2 1184   5.610   1.488   6.311
  414TIP3    H1 1185   5.540   1.463   6.250
  414TIP3    H2 1186   5.564   1.520   6.388
  415TIP3   OH2 1187   3.839   6.557   2.419
  415TIP3    H1 1188   3.933   6.563   2.433
  415TIP3    H2 1189   3.804   6.641   2.448
  416TIP3   OH2 1190   2.358   3.492   0.885
  416TIP3    H1 1191   2.320   3.493   0.797
  416TIP3    H2 1192   2.447   3.458   0.872
  417TIP3   OH2 1193   4.104   5.001   0.684
  417TIP3    H1 1194   4.197   5.010   0.704
  417TIP3    H2 1195   4.064   5.082   0.717
  418TIP3   OH2 1196   3.430   3.076   5.805
  418TIP3    H1 1197   3.380   3.033   5.736
  418TIP3    H2 1198   3.386   3.160   5.818
  419TIP3   OH2 1199   0.193   6.630   6.054
  419TIP3    H1 1200   0.257   6.700   6.057
  419TIP3    H2 1201   0.242   6.551   6.078
  420TIP3   OH2 1202   5.106   1.904   2.595
  420TIP3    H1 1203   5.139   1.994   2.587
  420TIP3    H2 1204   5.014   1.915   2.620
  421TIP3   OH2 1205   3.961   2.317   1.369
  421TIP3    H1 1206   3.936   2.248   1.431
  421TIP3    H2 1207   3.973   2.271   1.286
  422TIP3   OH2 1208   2.879   2.280   2.829
  422TIP3    H1 1209   2.870   2.302   2.921
  422TIP3    H2 1210   2.931   2.351   2.792
  423TIP3   OH2 1211   4.307   6.756   6.592
  423TIP3    H1 1212   4.261   6.733   6.511
  423TIP3    H2 1213   4.244   6.810   6.641
  424TIP3   OH2 1214   8.144   3.025   5.004
  424TIP3    H1 1215   8.187   2.997   5.085
  424TIP3    H2 1216   8.057   2.986   5.009
  425TIP3   OH2 1217   3.615   7.492   4.497
  425TIP3    H1 1218   3.616   7.447   4.413
  425TIP3    H2 1219   3.529   7.535   4.500
  426TIP3   OH2 1220   8.207   5.023   0.399
  426TIP3    H1 1221   8.134   5.081   0.421
  426TIP3    H2 1222   8.198   5.007   0.305
  427TIP3   OH2 1223   1.688   3.639   4.878
  427TIP3    H1 1224   1.640   3.694   4.940
  427TIP3    H2 1225   1.772   3.683   4.867
  428TIP3   OH2 1226   2.542   2.767   3.554
  428TIP3    H1 1227   2.549   2.677   3.523
  428TIP3    H2 1228   2.463   2.800   3.513
  429TIP3   OH2 1229   5.191   7.429   2.345
  429TIP3    H1 1230   5.203   7.339   2.317
  429TIP3    H2 1231   5.244   7.480   2.284
  430TIP3   OH2 1232   3.163   3.036   4.249
  430TIP3    H1 1233   3.230   3.030   4.181
  430TIP3    H2 1234   3.196   2.984   4.321
  431TIP3   OH2 1235   5.046   0.142   0.847
  431TIP3    H1 1236   5.118   0.128   0.909
  431TIP3    H2 1237   4.984   0.072   0.865
  432TIP3   OH2 1238   0.503   6.535   4.557
  432TIP3    H1 1239   0.486   6.576   4.472
  432TIP3    H2 1240   0.417   6.531   4.599
  433TIP3   OH2 1241   2.307   2.638   4.786
  433TIP3    H1 1242   2.323   2.544   4.774
  433TIP3    H2 1243   2.225   2.643   4.834
  434TIP3   OH2 1244   5.009   2.910   2.719
  434TIP3    H1 1245   4.949   2.896   2.646
  434TIP3    H2 1246   5.030   3.004   2.715
  435TIP3   OH2 1247   5.912   5.182   4.726
  435TIP3    H1 1248   5.887   5.272   4.703
  435TIP3    H2 1249   5.878   5.171   4.815
  436TIP3   OH2 1250   6.206   5.438   4.478
  436TIP3    H1 1251   6.301   5.437   4.469
  436TIP3    H2 1252   6.178   5.512   4.424
  437TIP3   OH2 1253   2.037   6.011   1.929
  437TIP3    H1 1254   2.095   6.018   1.852
  437TIP3    H2 1255   2.028   5.917   1.944
  438TIP3   OH2 1256   1.216   3.262   6.293
  438TIP3    H1 1257   1.305   3.291   6.274
  438TIP3    H2 1258   1.225   3.169   6.315
  439TIP3   OH2 1259   1.642   7.729   5.750
  439TIP3    H1 1260   1.698   7.716   5.826
  439TIP3    H2 1261   1.669   7.813   5.714
  440TIP3   OH2 1262   4.250   1.676   0.483
  440TIP3    H1 1263   4.164   1.700   0.518
  440TIP3    H2 1264   4.295   1.632   0.555
  441TIP3   OH2 1265   2.786   0.554   0.263
  441TIP3    H1 1266   2.727   0.604   0.319
  441TIP3    H2 1267   2.853   0.521   0.322
  442TIP3   OH2 1268   2.525   6.228   1.771
  442TIP3    H1 1269   2.561   6.307   1.733
  442TIP3    H2 1270   2.574   6.157   1.730
  443TIP3   OH2 1271   0.883   0.933   2.984
  443TIP3    H1 1272   0.856   0.947   3.075
  443TIP3    H2 1273   0.976   0.957   2.983
  444TIP3   OH2 1274   2.432   4.284   2.462
  444TIP3    H1 1275   2.523   4.289   2.491
  444TIP3    H2 1276   2.422   4.194   2.430
  445TIP3   OH2 1277   6.888   5.323   3.317
  445TIP3    H1 1278   6.909   5.350   3.228
  445TIP3    H2 1279   6.924   5.235   3.324
  446TIP3   OH2 1280   1.498   1.211   5.213
  446TIP3    H1 1281   1.462   1.299   5.200
  446TIP3    H2 1282   1.501   1.200   5.308
  447TIP3   OH2 1283   7.475   7.045   5.421
  447TIP3    H1 1284   7.402   6.984   5.435
  447TIP3    H2 1285   7.432   7.130   5.410
  448TIP3   OH2 1286   2.509   4.060   5.514
  448TIP3    H1 1287   2.415   4.063   5.496
  448TIP3    H2 1288   2.537   4.152   5.514
  449TIP3   OH2 1289   5.593   7.782   3.450
  449TIP3    H1 1290   5.548   7.698   3.439
  449TIP3    H2 1291   5.523   7.847   3.452
  450TIP3   OH2 1292   6.451   3.852   3.758
  450TIP3    H1 1293   6.468   3.825   3.849
  450TIP3    H2 1294   6.433   3.946   3.764
  451TIP3   OH2 1295   6.989   3.000   2.862
  451TIP3    H1 1296   7.074   2.978   2.824
  451TIP3    H2 1297   6.928   2.996   2.789
  452TIP3   OH2 1298   2.976   4.468   1.685
  452TIP3    H1 1299   2.921   4.545   1.696
  452TIP3    H2 1300   2.964   4.418   1.766
  453TIP3   OH2 1301   7.130   7.389   6.338
  453TIP3    H1 1302   7.158   7.419   6.252
  453TIP3    H2 1303   7.116   7.469   6.389
  454TIP3   OH2 1304   8.144   7.230   4.151
  454TIP3    H1 1305   8.153   7.137   4.174
  454TIP3    H2 1306   8.197   7.239   4.072
  455TIP3   OH2 1307   1.009   3.322   2.575
  455TIP3    H1 1308   1.064   3.395   2.549
  455TIP3    H2 1309   1.056   3.244   2.544
  456TIP3   OH2 1310   5.422   4.485   4.607
  456TIP3    H1 1311   5.483   4.417   4.635
  456TIP3    H2 1312   5.478   4.556   4.577
  457TIP3   OH2 1313   4.114   2.058   0.235
  457TIP3    H1 1314   4.038   2.100   0.274
  457TIP3    H2 1315   4.081   2.019   0.154
  458TIP3   OH2 1316   2.768   7.077   6.665
  458TIP3    H1 1317   2.828   7.002   6.674
  458TIP3    H2 1318   2.758   7.087   6.570
  459TIP3   OH2 1319   1.778   7.074   0.545
  459TIP3    H1 1320   1.825   7.119   0.475
  459TIP3    H2 1321   1.744   6.995   0.504
  460TIP3   OH2 1322   6.879   5.523   6.356
  460TIP3    H1 1323   6.831   5.451   6.397
  460TIP3    H2 1324   6.811   5.587   6.333
  461TIP3   OH2 1325   0.309   0.492   5.880
  461TIP3    H1 1326   0.363   0.557   5.837
  461TIP3    H2 1327   0.258   0.452   5.810
  462TIP3   OH2 1328   0.897   0.719   4.757
  462TIP3    H1 1329   0.991   0.703   4.758
  462TIP3    H2 1330   0.883   0.783   4.827
  463TIP3   OH2 1331   5.071   3.262   4.228
  463TIP3    H1 1332   5.010   3.293   4.294
  463TIP3    H2 1333   5.113   3.342   4.195
  464TIP3   OH2 1334   3.925   4.868   1.854
  464TIP3    H1 1335   3.973   4.841   1.932
  464TIP3    H2 1336   3.837   4.885   1.885
  465TIP3   OH2 1337   2.219   0.159   1.640
  465TIP3    H1 1338   2.272   0.125   1.712
  465TIP3    H2 1339   2.131   0.127   1.659
  466TIP3   OH2 1340   0.186   3.640   5.628
  466TIP3    H1 1341   0.202   3.617   5.720
  466TIP3    H2 1342   0.231   3.724   5.617
  467TIP3   OH2 1343   3.174   4.000   6.239
  467TIP3    H1 1344   3.249   3.944   6.261
  467TIP3    H2 1345   3.142   4.030   6.324
  468TIP3   OH2 1346   5.827   6.974   3.116
  468TIP3    H1 1347   5.900   6.933   3.162
  468TIP3    H2 1348   5.834   6.941   3.026
  469TIP3   OH2 1349   3.411   3.976   4.559
  469TIP3    H1 1350   3.346   4.044   4.542
  469TIP3    H2 1351   3.461   4.009   4.634
  470TIP3   OH2 1352   2.929   1.442   3.259
  470TIP3    H1 1353   2.962   1.412   3.343
  470TIP3    H2 1354   2.838   1.415   3.258
  471TIP3   OH2 1355   4.151   7.516   1.384
  471TIP3    H1 1356   4.181   7.445   1.327
  471TIP3    H2 1357   4.149   7.593   1.328
  472TIP3   OH2 1358   3.972   4.342   1.329
  472TIP3    H1 1359   4.011   4.429   1.326
  472TIP3    H2 1360   3.898   4.346   1.268
  473TIP3   OH2 1361   4.287   1.143   4.574
  473TIP3    H1 1362   4.220   1.170   4.511
  473TIP3    H2 1363   4.246   1.074   4.625
  474TIP3   OH2 1364   7.928   4.702   0.900
  474TIP3    H1 1365   8.009   4.694   0.849
  474TIP3    H2 1366   7.915   4.615   0.937
  475TIP3   OH2 1367   7.905   0.633   2.249
  475TIP3    H1 1368   7.837   0.609   2.187
  475TIP3    H2 1369   7.950   0.550   2.269
  476TIP3   OH2 1370   2.902   2.134   2.259
  476TIP3    H1 1371   2.807   2.151   2.257
  476TIP3    H2 1372   2.938   2.197   2.196
  477TIP3   OH2 1373   3.553   5.032   5.333
  477TIP3    H1 1374   3.606   5.111   5.332
  477TIP3    H2 1375   3.559   5.000   5.423
  478TIP3   OH2 1376   1.430   5.941   4.269
  478TIP3    H1 1377   1.446   5.941   4.174
  478TIP3    H2 1378   1.471   5.860   4.300
  479TIP3   OH2 1379   5.308   0.966   0.793
  479TIP3    H1 1380   5.270   0.888   0.834
  479TIP3    H2 1381   5.263   0.974   0.709
  480TIP3   OH2 1382   7.049   1.275   3.401
  480TIP3    H1 1383   7.007   1.224   3.470
  480TIP3    H2 1384   7.018   1.364   3.416
  481TIP3   OH2 1385   4.514   3.391   5.572
  481TIP3    H1 1386   4.438   3.338   5.593
  481TIP3    H2 1387   4.494   3.429   5.486
  482TIP3   OH2 1388   3.934   5.378   1.376
  482TIP3    H1 1389   4.015   5.332   1.352
  482TIP3    H2 1390   3.864   5.323   1.340
  483TIP3   OH2 1391   2.619   4.194   4.608
  483TIP3    H1 1392   2.649   4.256   4.542
  483TIP3    H2 1393   2.546   4.239   4.651
  484TIP3   OH2 1394   7.942   6.085   0.219
  484TIP3    H1 1395   7.900   6.114   0.138
  484TIP3    H2 1396   7.872   6.084   0.284
  485TIP3   OH2 1397   1.701   6.125   1.428
  485TIP3    H1 1398   1.633   6.100   1.366
  485TIP3    H2 1399   1.768   6.168   1.375
  486TIP3   OH2 1400   3.962   4.509   4.586
  486TIP3    H1 1401   4.012   4.431   4.562
  486TIP3    H2 1402   3.991   4.531   4.674
  487TIP3   OH2 1403   1.922   3.679   3.218
  487TIP3    H1 1404   1.953   3.601   3.172
  487TIP3    H2 1405   1.940   3.752   3.158
  488TIP3   OH2 1406   6.948   6.352   1.661
  488TIP3    H1 1407   6.959   6.303   1.742
  488TIP3    H2 1408   6.856   6.337   1.636
  489TIP3   OH2 1409   0.941   6.005   3.374
  489TIP3    H1 1410   0.974   5.917   3.391
  489TIP3    H2 1411   0.993   6.037   3.300
  490TIP3   OH2 1412   4.988   6.142   2.449
  490TIP3    H1 1413   4.980   6.051   2.477
  490TIP3    H2 1414   4.914   6.155   2.390
  491TIP3   OH2 1415   6.810   3.574   1.113
  491TIP3    H1 1416   6.782   3.580   1.022
  491TIP3    H2 1417   6.871   3.647   1.124
  492TIP3   OH2 1418   7.206   5.223   5.234
  492TIP3    H1 1419   7.208   5.232   5.329
  492TIP3    H2 1420   7.281   5.275   5.203
  493TIP3   OH2 1421   1.909   3.759   6.610
  493TIP3    H1 1422   1.841   3.709   6.653
  493TIP3    H2 1423   1.894   3.745   6.516
  494TIP3   OH2 1424   7.358   6.455   6.041
  494TIP3    H1 1425   7.427   6.460   6.108
  494TIP3    H2 1426   7.397   6.403   5.970
  495TIP3   OH2 1427   2.096   6.164   0.786
  495TIP3    H1 1428   2.189   6.145   0.774
  495TIP3    H2 1429   2.051   6.089   0.745
  496TIP3   OH2 1430   0.937   4.308   4.323
  496TIP3    H1 1431   0.939   4.264   4.238
  496TIP3    H2 1432   0.893   4.246   4.382
  497TIP3   OH2 1433   5.194   0.721   5.947
  497TIP3    H1 1434   5.139   0.798   5.959
  497TIP3    H2 1435   5.272   0.753   5.903
  498TIP3   OH2 1436   6.748   4.098   1.994
  498TIP3    H1 1437   6.678   4.046   1.954
  498TIP3    H2 1438   6.717   4.118   2.082
  499TIP3   OH2 1439   2.438   4.895   2.280
  499TIP3    H1 1440   2.485   4.897   2.196
  499TIP3    H2 1441   2.499   4.851   2.339
  500TIP3   OH2 1442   4.204   7.409   1.800
  500TIP3    H1 1443   4.268   7.369   1.741
  500TIP3    H2 1444   4.219   7.503   1.792
  501TIP3   OH2 1445   7.338   2.028   1.268
  501TIP3    H1 1446   7.322   2.117   1.236
  501TIP3    H2 1447   7.361   2.040   1.360
  502TIP3   OH2 1448   7.312   7.584   0.886
  502TIP3    H1 1449   7.347   7.550   0.968
  502TIP3    H2 1450   7.218   7.568   0.891
  503TIP3   OH2 1451   1.772   1.619   5.349
  503TIP3    H1 1452   1.827   1.654   5.278
  503TIP3    H2 1453   1.835   1.584   5.412
  504TIP3   OH2 1454   7.083   0.286   5.975
  504TIP3    H1 1455   7.128   0.357   6.019
  504TIP3    H2 1456   7.032   0.242   6.044
  505TIP3   OH2 1457   0.344   0.785   4.126
  505TIP3    H1 1458   0.398   0.834   4.064
  505TIP3    H2 1459   0.367   0.693   4.111
  506TIP3   OH2 1460   8.145   1.526   3.998
  506TIP3    H1 1461   8.172   1.609   3.958
  506TIP3    H2 1462   8.089   1.485   3.933
  507TIP3   OH2 1463   0.962   7.420   3.580
  507TIP3    H1 1464   0.996   7.371   3.656
  507TIP3    H2 1465   0.911   7.491   3.618
  508TIP3   OH2 1466   6.250   2.308   6.330
  508TIP3    H1 1467   6.278   2.237   6.386
  508TIP3    H2 1468   6.161   2.328   6.358
  509TIP3   OH2 1469   1.732   0.635   3.531
  509TIP3    H1 1470   1.806   0.688   3.504
  509TIP3    H2 1471   1.752   0.547   3.501
  510TIP3   OH2 1472   8.196   0.165   4.709
  510TIP3    H1 1473   8.208   0.229   4.639
  510TIP3    H2 1474   8.274   0.110   4.706
  511TIP3   OH2 1475   6.079   7.637   2.268
  511TIP3    H1 1476   6.090   7.551   2.308
  511TIP3    H2 1477   5.992   7.665   2.295
  512TIP3   OH2 1478   2.786   3.559   0.438
  512TIP3    H1 1479   2.720   3.544   0.505
  512TIP3    H2 1480   2.850   3.489   0.451
  513TIP3   OH2 1481   7.310   5.973   4.496
  513TIP3    H1 1482   7.349   5.890   4.468
  513TIP3    H2 1483   7.262   5.952   4.576
  514TIP3   OH2 1484   3.951   2.262   5.031
  514TIP3    H1 1485   3.986   2.179   4.997
  514TIP3    H2 1486   4.011   2.329   4.998
  515TIP3   OH2 1487   0.717   0.302   2.894
  515TIP3    H1 1488   0.681   0.217   2.919
  515TIP3    H2 1489   0.774   0.327   2.967
  516TIP3   OH2 1490   3.335   5.965   4.107
  516TIP3    H1 1491   3.270   6.035   4.106
  516TIP3    H2 1492   3.336   5.936   4.198
  517TIP3   OH2 1493   4.661   4.312   3.397
  517TIP3    H1 1494   4.648   4.260   3.476
  517TIP3    H2 1495   4.608   4.267   3.330
  518TIP3   OH2 1496   4.915   0.676   4.004
  518TIP3    H1 1497   4.949   0.757   4.041
  518TIP3    H2 1498   4.945   0.608   4.064
  519TIP3   OH2 1499   0.518   3.482   1.518
  519TIP3    H1 1500   0.447   3.537   1.486
  519TIP3    H2 1501   0.597   3.524   1.484
  520TIP3   OH2 1502   7.830   3.884   0.581
  520TIP3    H1 1503   7.883   3.814   0.542
  520TIP3    H2 1504   7.739   3.855   0.568
  521TIP3   OH2 1505   1.142   1.070   0.210
  521TIP3    H1 1506   1.130   1.029   0.296
  521TIP3    H2 1507   1.067   1.039   0.158
  522TIP3   OH2 1508   3.959   6.065   3.328
  522TIP3    H1 1509   3.987   6.017   3.250
  522TIP3    H2 1510   4.006   6.023   3.400
  523TIP3   OH2 1511   3.200   0.222   1.962
  523TIP3    H1 1512   3.267   0.285   1.937
  523TIP3    H2 1513   3.135   0.274   2.009
  524TIP3   OH2 1514   5.009   4.776   2.475
  524TIP3    H1 1515   5.092   4.813   2.445
  524TIP3    H2 1516   5.009   4.686   2.441
  525TIP3   OH2 1517   1.996   0.077   4.986
  525TIP3    H1 1518   1.990   0.151   4.925
  525TIP3    H2 1519   2.090   0.056   4.989
  526TIP3   OH2 1520   7.001   0.261   5.503
  526TIP3    H1 1521   7.037   0.245   5.590
  526TIP3    H2 1522   6.987   0.356   5.500
  527TIP3   OH2 1523   8.088   1.396   2.861
  527TIP3    H1 1524   8.129   1.446   2.792
  527TIP3    H2 1525   8.071   1.310   2.822
  528TIP3   OH2 1526   3.280   4.043   5.195
  528TIP3    H1 1527   3.369   4.032   5.161
  528TIP3    H2 1528   3.236   3.960   5.173
  529TIP3   OH2 1529   1.017   5.961   4.306
  529TIP3    H1 1530   0.936   5.910   4.304
  529TIP3    H2 1531   1.087   5.895   4.307
  530TIP3   OH2 1532   2.202   0.248   5.059
  530TIP3    H1 1533   2.236   0.333   5.034
  530TIP3    H2 1534   2.228   0.189   4.988
  531TIP3   OH2 1535   5.497   1.646   4.304
  531TIP3    H1 1536   5.457   1.727   4.274
  531TIP3    H2 1537   5.588   1.652   4.276
  532TIP3   OH2 1538   7.184   4.087   3.350
  532TIP3    H1 1539   7.128   4.157   3.384
  532TIP3    H2 1540   7.250   4.074   3.419
  533TIP3   OH2 1541   6.733   5.498   5.464
  533TIP3    H1 1542   6.805   5.550   5.498
  533TIP3    H2 1543   6.770   5.452   5.389
  534TIP3   OH2 1544   6.832   2.792   5.888
  534TIP3    H1 1545   6.906   2.735   5.865
  534TIP3    H2 1546   6.861   2.839   5.966
  535TIP3   OH2 1547   7.972   3.563   2.713
  535TIP3    H1 1548   7.888   3.549   2.757
  535TIP3    H2 1549   8.026   3.608   2.777
  536TIP3   OH2 1550   1.098   4.452   5.962
  536TIP3    H1 1551   1.018   4.486   6.002
  536TIP3    H2 1552   1.119   4.514   5.892
  537TIP3   OH2 1553   4.285   5.488   1.683
  537TIP3    H1 1554   4.230   5.510   1.758
  537TIP3    H2 1555   4.229   5.506   1.607
  538TIP3   OH2 1556   1.392   6.778   5.219
  538TIP3    H1 1557   1.309   6.757   5.262
  538TIP3    H2 1558   1.366   6.808   5.132
  539TIP3   OH2 1559   4.571   6.737   0.053
  539TIP3    H1 1560   4.549   6.789   0.130
  539TIP3    H2 1561   4.640   6.787   0.009
  540TIP3   OH2 1562   2.679   2.401   6.105
  540TIP3    H1 1563   2.691   2.324   6.049
  540TIP3    H2 1564   2.601   2.444   6.070
  541TIP3   OH2 1565   2.527   7.296   0.532
  541TIP3    H1 1566   2.510   7.325   0.622
  541TIP3    H2 1567   2.442   7.304   0.489
  542TIP3   OH2 1568   5.971   5.974   4.150
  542TIP3    H1 1569   5.953   5.881   4.137
  542TIP3    H2 1570   5.923   6.018   4.080
  543TIP3   OH2 1571   4.129   1.981   3.028
  543TIP3    H1 1572   4.168   1.896   3.007
  543TIP3    H2 1573   4.203   2.037   3.051
  544TIP3   OH2 1574   6.644   5.499   6.090
  544TIP3    H1 1575   6.561   5.468   6.124
  544TIP3    H2 1576   6.637   5.595   6.091
  545TIP3   OH2 1577   3.049   5.004   3.771
  545TIP3    H1 1578   3.110   5.070   3.805
  545TIP3    H2 1579   2.963   5.033   3.801
  546TIP3   OH2 1580   0.385   2.065   4.260
  546TIP3    H1 1581   0.335   2.041   4.338
  546TIP3    H2 1582   0.454   2.123   4.292
  547TIP3   OH2 1583   6.551   6.320   2.321
  547TIP3    H1 1584   6.488   6.329   2.393
  547TIP3    H2 1585   6.521   6.244   2.272
  548TIP3   OH2 1586   1.889   1.111   1.043
  548TIP3    H1 1587   1.977   1.097   1.078
  548TIP3    H2 1588   1.830   1.090   1.115
  549TIP3   OH2 1589   2.006   2.646   3.634
  549TIP3    H1 1590   2.069   2.689   3.692
  549TIP3    H2 1591   1.949   2.717   3.604
  550TIP3   OH2 1592   5.213   6.405   4.482
  550TIP3    H1 1593   5.274   6.477   4.464
  550TIP3    H2 1594   5.127   6.444   4.472
  551TIP3   OH2 1595   0.961   4.350   1.429
  551TIP3    H1 1596   0.930   4.437   1.403
  551TIP3    H2 1597   1.047   4.341   1.388
  552TIP3   OH2 1598   8.267   2.512   1.930
  552TIP3    H1 1599   8.294   2.560   2.009
  552TIP3    H2 1600   8.254   2.581   1.864
  553TIP3   OH2 1601   7.549   0.886   1.786
  553TIP3    H1 1602   7.576   0.938   1.710
  553TIP3    H2 1603   7.492   0.945   1.836
  554TIP3   OH2 1604   3.463   5.070   0.542
  554TIP3    H1 1605   3.517   4.997   0.513
  554TIP3    H2 1606   3.379   5.031   0.566
  555TIP3   OH2 1607   6.015   0.847   3.915
  555TIP3    H1 1608   5.963   0.802   3.848
  555TIP3    H2 1609   6.038   0.778   3.977
  556TIP3   OH2 1610   3.725   1.232   0.448
  556TIP3    H1 1611   3.719   1.216   0.542
  556TIP3    H2 1612   3.803   1.286   0.437
  557TIP3   OH2 1613   2.566   6.539   6.340
  557TIP3    H1 1614   2.490   6.496   6.379
  557TIP3    H2 1615   2.531   6.616   6.296
  558TIP3   OH2 1616   7.427   3.511   1.793
  558TIP3    H1 1617   7.496   3.534   1.855
  558TIP3    H2 1618   7.351   3.493   1.848
  559TIP3   OH2 1619   2.978   6.087   4.548
  559TIP3    H1 1620   2.890   6.048   4.541
  559TIP3    H2 1621   3.035   6.013   4.570
  560TIP3   OH2 1622   1.418   7.562   4.438
  560TIP3    H1 1623   1.417   7.565   4.342
  560TIP3    H2 1624   1.350   7.625   4.464
  561TIP3   OH2 1625   2.304   5.504   6.356
  561TIP3    H1 1626   2.345   5.585   6.386
  561TIP3    H2 1627   2.325   5.499   6.263
  562TIP3   OH2 1628   2.099   0.847   2.868
  562TIP3    H1 1629   2.109   0.869   2.961
  562TIP3    H2 1630   2.168   0.896   2.824
  563TIP3   OH2 1631   6.258   0.446   5.199
  563TIP3    H1 1632   6.202   0.392   5.143
  563TIP3    H2 1633   6.216   0.532   5.199
  564TIP3   OH2 1634   7.722   3.394   3.311
  564TIP3    H1 1635   7.686   3.402   3.222
  564TIP3    H2 1636   7.683   3.467   3.359
  565TIP3   OH2 1637   5.559   4.995   1.395
  565TIP3    H1 1638   5.573   5.072   1.339
  565TIP3    H2 1639   5.564   4.921   1.335
  566TIP3   OH2 1640   5.217   4.569   1.668
  566TIP3    H1 1641   5.246   4.515   1.594
  566TIP3    H2 1642   5.140   4.615   1.635
  567TIP3   OH2 1643  -0.054   2.573   4.461
  567TIP3    H1 1644   0.037   2.549   4.479
  567TIP3    H2 1645  -0.048   2.644   4.398
  568TIP3   OH2 1646   2.978   5.412   1.328
  568TIP3    H1 1647   3.032   5.334   1.316
  568TIP3    H2 1648   2.949   5.435   1.240
  569TIP3   OH2 1649   5.496   0.097   2.468
  569TIP3    H1 1650   5.531   0.147   2.542
  569TIP3    H2 1651   5.460   0.163   2.409
  570TIP3   OH2 1652   7.933   1.336   0.223
  570TIP3    H1 1653   7.927   1.362   0.315
  570TIP3    H2 1654   7.964   1.415   0.178
  571TIP3   OH2 1655   0.448   6.196   2.826
  571TIP3    H1 1656   0.463   6.279   2.872
  571TIP3    H2 1657   0.408   6.139   2.891
  572TIP3   OH2 1658   0.865   2.166   3.606
  572TIP3    H1 1659   0.887   2.094   3.664
  572TIP3    H2 1660   0.811   2.126   3.538
  573TIP3   OH2 1661   4.559   1.592   3.718
  573TIP3    H1 1662   4.549   1.580   3.624
  573TIP3    H2 1663   4.523   1.679   3.736
  574TIP3   OH2 1664   2.104   5.641   3.588
  574TIP3    H1 1665   2.065   5.554   3.604
  574TIP3    H2 1666   2.186   5.640   3.638
  575TIP3   OH2 1667   6.460   0.801   4.852
  575TIP3    H1 1668   6.513   0.878   4.875
  575TIP3    H2 1669   6.502   0.728   4.897
  576TIP3   OH2 1670   4.240   7.678   1.882
  576TIP3    H1 1671   4.230   7.772   1.875
  576TIP3    H2 1672   4.328   7.665   1.918
  577TIP3   OH2 1673   1.156   0.725   1.036
  577TIP3    H1 1674   1.230   0.779   1.010
  577TIP3    H2 1675   1.120   0.769   1.113
  578TIP3   OH2 1676   6.210   6.767   2.717
  578TIP3    H1 1677   6.237   6.803   2.802
  578TIP3    H2 1678   6.263   6.814   2.653
  579TIP3   OH2 1679   2.037   2.483   2.439
  579TIP3    H1 1680   2.059   2.574   2.455
  579TIP3    H2 1681   2.014   2.479   2.346
  580TIP3   OH2 1682   5.364   0.242   1.232
  580TIP3    H1 1683   5.453   0.234   1.266
  580TIP3    H2 1684   5.338   0.332   1.254
  581TIP3   OH2 1685   2.189   1.750   4.543
  581TIP3    H1 1686   2.195   1.656   4.561
  581TIP3    H2 1687   2.274   1.785   4.571
  582TIP3   OH2 1688   1.238   4.115   2.349
  582TIP3    H1 1689   1.191   4.041   2.388
  582TIP3    H2 1690   1.171   4.161   2.298
  583TIP3   OH2 1691   5.488   4.493   4.091
  583TIP3    H1 1692   5.460   4.560   4.029
  583TIP3    H2 1693   5.559   4.447   4.046
  584TIP3   OH2 1694   1.962   2.168   5.137
  584TIP3    H1 1695   2.032   2.232   5.120
  584TIP3    H2 1696   1.916   2.161   5.053
  585TIP3   OH2 1697   2.935   5.181   4.302
  585TIP3    H1 1698   2.856   5.128   4.299
  585TIP3    H2 1699   2.904   5.270   4.318
  586TIP3   OH2 1700   6.461   1.670   1.750
  586TIP3    H1 1701   6.379   1.719   1.742
  586TIP3    H2 1702   6.473   1.659   1.845
  587TIP3   OH2 1703   3.556   6.230   5.855
  587TIP3    H1 1704   3.618   6.222   5.783
  587TIP3    H2 1705   3.580   6.160   5.916
  588TIP3   OH2 1706   6.908   4.816   5.780
  588TIP3    H1 1707   6.955   4.767   5.848
  588TIP3    H2 1708   6.889   4.900   5.820
  589TIP3   OH2 1709   5.497   4.488   6.482
  589TIP3    H1 1710   5.543   4.405   6.496
  589TIP3    H2 1711   5.556   4.538   6.424
  590TIP3   OH2 1712   6.695   5.479   0.140
  590TIP3    H1 1713   6.660   5.491   0.052
  590TIP3    H2 1714   6.632   5.523   0.197
  591TIP3   OH2 1715   7.955   2.975   4.692
  591TIP3    H1 1716   8.045   2.998   4.670
  591TIP3    H2 1717   7.905   2.993   4.613
  592TIP3   OH2 1718   5.687   0.163   0.177
  592TIP3    H1 1719   5.646   0.154   0.090
  592TIP3    H2 1720   5.765   0.217   0.161
  593TIP3   OH2 1721   6.094   1.450   3.776
  593TIP3    H1 1722   6.000   1.456   3.793
  593TIP3    H2 1723   6.100   1.430   3.682
  594TIP3   OH2 1724   2.468   3.550   5.646
  594TIP3    H1 1725   2.454   3.498   5.725
  594TIP3    H2 1726   2.446   3.640   5.672
  595TIP3   OH2 1727   6.151   1.722   1.356
  595TIP3    H1 1728   6.115   1.704   1.443
  595TIP3    H2 1729   6.220   1.657   1.344
  596TIP3   OH2 1730   6.999   5.473   0.040
  596TIP3    H1 1731   6.912   5.484   0.079
  596TIP3    H2 1732   7.029   5.388   0.073
  597TIP3   OH2 1733   5.244   0.186   2.119
  597TIP3    H1 1734   5.169   0.224   2.073
  597TIP3    H2 1735   5.260   0.103   2.075
  598TIP3   OH2 1736   6.728   0.576   5.470
  598TIP3    H1 1737   6.817   0.569   5.436
  598TIP3    H2 1738   6.677   0.513   5.418
  599TIP3   OH2 1739   2.397   4.910   5.338
  599TIP3    H1 1740   2.415   4.922   5.245
  599TIP3    H2 1741   2.347   4.828   5.343
  600TIP3   OH2 1742   4.756   4.075   2.645
  600TIP3    H1 1743   4.675   4.063   2.693
  600TIP3    H2 1744   4.742   4.030   2.561
  601TIP3   OH2 1745   4.802   2.800   4.419
  601TIP3    H1 1746   4.867   2.826   4.484
  601TIP3    H2 1747   4.785   2.879   4.368
  602TIP3   OH2 1748   3.452   2.739   6.487
  602TIP3    H1 1749   3.454   2.730   6.582
  602TIP3    H2 1750   3.476   2.653   6.454
  603TIP3   OH2 1751   7.247   5.210   5.554
  603TIP3    H1 1752   7.202   5.289   5.583
  603TIP3    H2 1753   7.243   5.151   5.628
  604TIP3   OH2 1754   1.696   2.623   1.728
  604TIP3    H1 1755   1.619   2.634   1.784
  604TIP3    H2 1756   1.740   2.708   1.730
  605TIP3   OH2 1757   7.538   5.362   1.558
  605TIP3    H1 1758   7.551   5.399   1.470
  605TIP3    H2 1759   7.593   5.417   1.615
  606TIP3   OH2 1760   1.584   6.125   3.033
  606TIP3    H1 1761   1.545   6.113   3.120
  606TIP3    H2 1762   1.646   6.197   3.044
  607TIP3   OH2 1763   3.734   5.897   3.348
  607TIP3    H1 1764   3.773   5.982   3.366
  607TIP3    H2 1765   3.809   5.838   3.341
  608TIP3   OH2 1766   7.770   7.140   5.354
  608TIP3    H1 1767   7.783   7.226   5.395
  608TIP3    H2 1768   7.675   7.130   5.350
  609TIP3   OH2 1769   0.400   2.335   6.532
  609TIP3    H1 1770   0.473   2.314   6.473
  609TIP3    H2 1771   0.435   2.403   6.590
  610TIP3   OH2 1772   7.489   1.290   5.709
  610TIP3    H1 1773   7.454   1.357   5.767
  610TIP3    H2 1774   7.527   1.225   5.768
  611TIP3   OH2 1775   0.132   7.457   4.150
  611TIP3    H1 1776   0.164   7.464   4.239
  611TIP3    H2 1777   0.083   7.538   4.136
  612TIP3   OH2 1778   3.290   7.639   2.620
  612TIP3    H1 1779   3.251   7.726   2.617
  612TIP3    H2 1780   3.312   7.625   2.712
  613TIP3   OH2 1781   0.070   1.270   4.535
  613TIP3    H1 1782   0.028   1.354   4.554
  613TIP3    H2 1783   0.000   1.205   4.545
  614TIP3   OH2 1784   3.918   3.199   1.200
  614TIP3    H1 1785   3.884   3.126   1.252
  614TIP3    H2 1786   3.937   3.268   1.264
  615TIP3   OH2 1787   3.233   4.266   0.688
  615TIP3    H1 1788   3.156   4.251   0.633
  615TIP3    H2 1789   3.273   4.345   0.653
  616TIP3   OH2 1790   8.189   2.644   5.745
  616TIP3    H1 1791   8.159   2.578   5.807
  616TIP3    H2 1792   8.108   2.675   5.703
  617TIP3   OH2 1793   7.199   0.584   3.824
  617TIP3    H1 1794   7.213   0.679   3.822
  617TIP3    H2 1795   7.132   0.570   3.756
  618TIP3   OH2 1796   6.005   4.968   3.035
  618TIP3    H1 1797   5.917   4.980   3.071
  618TIP3    H2 1798   6.063   5.010   3.098
  619TIP3   OH2 1799   6.475   0.660   1.379
  619TIP3    H1 1800   6.498   0.662   1.287
  619TIP3    H2 1801   6.381   0.642   1.380
  620TIP3   OH2 1802   2.249   2.418   6.325
  620TIP3    H1 1803   2.217   2.464   6.247
  620TIP3    H2 1804   2.186   2.440   6.394
  621TIP3   OH2 1805   5.212   4.484   1.938
  621TIP3    H1 1806   5.212   4.518   1.849
  621TIP3    H2 1807   5.282   4.419   1.939
  622TIP3   OH2 1808   6.732   5.755   5.171
  622TIP3    H1 1809   6.744   5.794   5.258
  622TIP3    H2 1810   6.671   5.814   5.126
  623TIP3   OH2 1811   0.287   5.940   6.575
  623TIP3    H1 1812   0.194   5.953   6.555
  623TIP3    H2 1813   0.326   6.027   6.566
  624TIP3   OH2 1814   5.696   3.066   6.053
  624TIP3    H1 1815   5.735   2.984   6.020
  624TIP3    H2 1816   5.763   3.132   6.038
  625TIP3   OH2 1817   0.884   6.462   2.004
  625TIP3    H1 1818   0.858   6.388   2.059
  625TIP3    H2 1819   0.905   6.423   1.919
  626TIP3   OH2 1820   5.731   1.416   0.391
  626TIP3    H1 1821   5.672   1.464   0.332
  626TIP3    H2 1822   5.763   1.482   0.452
  627TIP3   OH2 1823   0.992   0.654   4.106
  627TIP3    H1 1824   0.991   0.591   4.179
  627TIP3    H2 1825   1.080   0.691   4.108
  628TIP3   OH2 1826   2.776   5.486   5.756
  628TIP3    H1 1827   2.868   5.511   5.758
  628TIP3    H2 1828   2.746   5.509   5.668
  629TIP3   OH2 1829   2.392   5.230   6.348
  629TIP3    H1 1830   2.377   5.323   6.363
  629TIP3    H2 1831   2.429   5.226   6.260
  630TIP3   OH2 1832   3.435   7.090   6.205
  630TIP3    H1 1833   3.397   7.035   6.273
  630TIP3    H2 1834   3.529   7.076   6.212
  631TIP3   OH2 1835   2.317   0.473   6.712
  631TIP3    H1 1836   2.350   0.543   6.656
  631TIP3    H2 1837   2.337   0.501   6.801
  632TIP3   OH2 1838   5.462   4.689   5.664
  632TIP3    H1 1839   5.521   4.657   5.595
  632TIP3    H2 1840   5.404   4.614   5.682
  633TIP3   OH2 1841   1.394   6.185   5.457
  633TIP3    H1 1842   1.442   6.241   5.396
  633TIP3    H2 1843   1.314   6.234   5.477
  634TIP3   OH2 1844   3.215   3.807   2.713
  634TIP3    H1 1845   3.226   3.794   2.807
  634TIP3    H2 1846   3.188   3.722   2.680
  635TIP3   OH2 1847   1.949   4.026   0.886
  635TIP3    H1 1848   2.034   4.010   0.929
  635TIP3    H2 1849   1.970   4.082   0.812
  636TIP3   OH2 1850   1.563   2.304   6.545
  636TIP3    H1 1851   1.527   2.329   6.630
  636TIP3    H2 1852   1.616   2.226   6.563
  637TIP3   OH2 1853   1.135   7.774   3.242
  637TIP3    H1 1854   1.146   7.838   3.312
  637TIP3    H2 1855   1.080   7.818   3.177
  638TIP3   OH2 1856   2.394   3.133   3.828
  638TIP3    H1 1857   2.435   3.109   3.745
  638TIP3    H2 1858   2.305   3.099   3.821
  639TIP3   OH2 1859   6.602   2.035   0.267
  639TIP3    H1 1860   6.512   2.002   0.275
  639TIP3    H2 1861   6.654   1.959   0.243
  640TIP3   OH2 1862   7.105   4.243   6.302
  640TIP3    H1 1863   7.069   4.326   6.271
  640TIP3    H2 1864   7.028   4.188   6.318
  641TIP3   OH2 1865   6.141   7.295   2.085
  641TIP3    H1 1866   6.198   7.353   2.135
  641TIP3    H2 1867   6.082   7.355   2.039
  642TIP3   OH2 1868   5.006   1.743   5.539
  642TIP3    H1 1869   5.089   1.790   5.540
  642TIP3    H2 1870   5.022   1.664   5.590
  643TIP3   OH2 1871   6.835   5.907   5.380
  643TIP3    H1 1872   6.880   5.840   5.431
  643TIP3    H2 1873   6.905   5.953   5.333
  644TIP3   OH2 1874   1.222   0.043   0.302
  644TIP3    H1 1875   1.279  -0.007   0.245
  644TIP3    H2 1876   1.133   0.025   0.269
  645TIP3   OH2 1877   5.255   7.714   0.840
  645TIP3    H1 1878   5.279   7.690   0.930
  645TIP3    H2 1879   5.174   7.764   0.850
  646TIP3   OH2 1880   3.262   7.673   2.223
  646TIP3    H1 1881   3.353   7.701   2.220
  646TIP3    H2 1882   3.260   7.603   2.288
  647TIP3   OH2 1883   1.139   7.283   3.407
  647TIP3    H1 1884   1.105   7.201   3.373
  647TIP3    H2 1885   1.061   7.338   3.417
  648TIP3   OH2 1886   7.392   1.976   6.508
  648TIP3    H1 1887   7.408   2.053   6.564
  648TIP3    H2 1888   7.297   1.974   6.498
  649TIP3   OH2 1889   5.284   3.503   3.534
  649TIP3    H1 1890   5.198   3.540   3.552
  649TIP3    H2 1891   5.277   3.467   3.446
  650TIP3   OH2 1892   4.702   5.005   1.744
  650TIP3    H1 1893   4.647   4.976   1.817
  650TIP3    H2 1894   4.724   5.096   1.766
  651TIP3   OH2 1895   0.490   1.605   6.145
  651TIP3    H1 1896   0.491   1.683   6.089
  651TIP3    H2 1897   0.582   1.586   6.161
  652TIP3   OH2 1898   6.853  -0.051   4.093
  652TIP3    H1 1899   6.781  -0.046   4.155
  652TIP3    H2 1900   6.812  -0.039   4.007
  653TIP3   OH2 1901   3.798   4.515   1.190
  653TIP3    H1 1902   3.847   4.594   1.169
  653TIP3    H2 1903   3.753   4.535   1.272
  654TIP3   OH2 1904   5.580   0.809   5.245
  654TIP3    H1 1905   5.523   0.828   5.320
  654TIP3    H2 1906   5.652   0.872   5.253
  655TIP3   OH2 1907   2.697   0.968   5.858
  655TIP3    H1 1908   2.645   0.968   5.777
  655TIP3    H2 1909   2.767   1.032   5.841
  656TIP3   OH2 1910   1.563   4.399   6.347
  656TIP3    H1 1911   1.608   4.333   6.294
  656TIP3    H2 1912   1.472   4.398   6.316
  657TIP3   OH2 1913   3.591   0.379   0.509
  657TIP3    H1 1914   3.542   0.434   0.570
  657TIP3    H2 1915   3.562   0.290   0.529
  658TIP3   OH2 1916   6.135   0.091   2.856
  658TIP3    H1 1917   6.179   0.011   2.884
  658TIP3    H2 1918   6.118   0.139   2.937
  659TIP3   OH2 1919   8.128   5.123   2.945
  659TIP3    H1 1920   8.177   5.202   2.924
  659TIP3    H2 1921   8.094   5.138   3.033
  660TIP3   OH2 1922   6.167   3.510   1.102
  660TIP3    H1 1923   6.185   3.416   1.098
  660TIP3    H2 1924   6.079   3.516   1.139
  661TIP3   OH2 1925   7.586   2.072   0.507
  661TIP3    H1 1926   7.677   2.092   0.528
  661TIP3    H2 1927   7.535   2.139   0.552
  662TIP3   OH2 1928   2.915   3.828   5.169
  662TIP3    H1 1929   2.996   3.782   5.194
  662TIP3    H2 1930   2.867   3.765   5.116
  663TIP3   OH2 1931   6.936   2.487   6.370
  663TIP3    H1 1932   6.993   2.548   6.418
  663TIP3    H2 1933   6.970   2.488   6.281
  664TIP3   OH2 1934   0.623   6.012   1.714
  664TIP3    H1 1935   0.541   6.046   1.678
  664TIP3    H2 1936   0.663   5.966   1.640
  665TIP3   OH2 1937   7.992   2.103   0.151
  665TIP3    H1 1938   7.903   2.116   0.121
  665TIP3    H2 1939   8.028   2.036   0.093
  666TIP3   OH2 1940   0.303   3.270   4.679
  666TIP3    H1 1941   0.321   3.321   4.600
  666TIP3    H2 1942   0.311   3.333   4.751
  667TIP3   OH2 1943   5.095   5.029   1.182
  667TIP3    H1 1944   5.013   5.078   1.182
  667TIP3    H2 1945   5.156   5.084   1.232
  668TIP3   OH2 1946   6.536   0.575   5.874
  668TIP3    H1 1947   6.593   0.511   5.918
  668TIP3    H2 1948   6.464   0.523   5.838
  669TIP3   OH2 1949   5.167   2.723   4.867
  669TIP3    H1 1950   5.220   2.656   4.825
  669TIP3    H2 1951   5.124   2.678   4.940
  670TIP3   OH2 1952   6.808   3.866   1.317
  670TIP3    H1 1953   6.780   3.952   1.349
  670TIP3    H2 1954   6.841   3.821   1.395
  671TIP3   OH2 1955   1.089   4.420   0.635
  671TIP3    H1 1956   1.169   4.385   0.673
  671TIP3    H2 1957   1.020   4.363   0.668
  672TIP3   OH2 1958   3.523   5.993   6.579
  672TIP3    H1 1959   3.572   6.074   6.564
  672TIP3    H2 1960   3.450   5.998   6.518
  673TIP3   OH2 1961   2.309   3.245   6.343
  673TIP3    H1 1962   2.359   3.175   6.383
  673TIP3    H2 1963   2.227   3.248   6.393
  674TIP3   OH2 1964   2.293   2.095   0.246
  674TIP3    H1 1965   2.356   2.128   0.311
  674TIP3    H2 1966   2.227   2.050   0.299
  675TIP3   OH2 1967   1.162   4.394   5.053
  675TIP3    H1 1968   1.241   4.435   5.087
  675TIP3    H2 1969   1.172   4.302   5.075
  676TIP3   OH2 1970   5.223   6.682   5.475
  676TIP3    H1 1971   5.251   6.592   5.458
  676TIP3    H2 1972   5.134   6.686   5.441
  677TIP3   OH2 1973   6.408   7.380   1.675
  677TIP3    H1 1974   6.366   7.437   1.610
  677TIP3    H2 1975   6.483   7.343   1.628
  678TIP3   OH2 1976   0.639   2.122   3.424
  678TIP3    H1 1977   0.571   2.189   3.430
  678TIP3    H2 1978   0.592   2.040   3.408
  679TIP3   OH2 1979   5.156   1.231   5.847
  679TIP3    H1 1980   5.077   1.276   5.879
  679TIP3    H2 1981   5.174   1.272   5.762
  680TIP3   OH2 1982   5.269   0.487   2.602
  680TIP3    H1 1983   5.279   0.393   2.617
  680TIP3    H2 1984   5.194   0.513   2.656
  681TIP3   OH2 1985   2.834   7.466   2.842
  681TIP3    H1 1986   2.767   7.521   2.803
  681TIP3    H2 1987   2.791   7.424   2.916
  682TIP3   OH2 1988   3.706   6.638   2.751
  682TIP3    H1 1989   3.633   6.581   2.775
  682TIP3    H2 1990   3.676   6.685   2.673
  683TIP3   OH2 1991   0.206   2.591   0.650
  683TIP3    H1 1992   0.228   2.540   0.728
  683TIP3    H2 1993   0.282   2.649   0.637
  684TIP3   OH2 1994   4.391   4.778   6.583
  684TIP3    H1 1995   4.389   4.817   6.496
  684TIP3    H2 1996   4.300   4.759   6.604
  685TIP3   OH2 1997   2.331   5.711   2.484
  685TIP3    H1 1998   2.409   5.660   2.501
  685TIP3    H2 1999   2.288   5.667   2.411
  686TIP3   OH2 2000   5.924   1.829   3.392
  686TIP3    H1 2001   5.935   1.738   3.366
  686TIP3    H2 2002   5.981   1.878   3.332
  687TIP3   OH2 2003   3.318   6.904   6.685
  687TIP3    H1 2004   3.276   6.969   6.741
  687TIP3    H2 2005   3.360   6.843   6.746
  688TIP3   OH2 2006   2.838   1.115   2.629
  688TIP3    H1 2007   2.875   1.086   2.545
  688TIP3    H2 2008   2.870   1.205   2.638
  689TIP3   OH2 2009   5.213   2.178   3.947
  689TIP3    H1 2010   5.244   2.223   4.026
  689TIP3    H2 2011   5.248   2.089   3.955
  690TIP3   OH2 2012   0.957   1.414   6.029
  690TIP3    H1 2013   1.004   1.452   6.103
  690TIP3    H2 2014   0.998   1.329   6.015
  691TIP3   OH2 2015   1.093   1.246   2.063
  691TIP3    H1 2016   1.103   1.271   2.155
  691TIP3    H2 2017   1.107   1.327   2.014
  692TIP3   OH2 2018   8.128   4.871   0.187
  692TIP3    H1 2019   8.072   4.845   0.259
  692TIP3    H2 2020   8.073   4.926   0.131
  693TIP3   OH2 2021   1.854   7.478   0.841
  693TIP3    H1 2022   1.840   7.516   0.928
  693TIP3    H2 2023   1.855   7.383   0.856
  694TIP3   OH2 2024   2.691   3.280   0.077
  694TIP3    H1 2025   2.724   3.336   0.007
  694TIP3    H2 2026   2.745   3.303   0.153
  695TIP3   OH2 2027   4.990   0.999   6.377
  695TIP3    H1 2028   4.952   0.934   6.319
  695TIP3    H2 2029   5.080   1.010   6.346
  696TIP3   OH2 2030   3.871   3.632   5.898
  696TIP3    H1 2031   3.898   3.552   5.943
  696TIP3    H2 2032   3.785   3.611   5.861
  697TIP3   OH2 2033   7.068   7.013   2.885
  697TIP3    H1 2034   7.043   7.105   2.898
  697TIP3    H2 2035   7.018   6.986   2.808
  698TIP3   OH2 2036   2.128   2.402   3.686
  698TIP3    H1 2037   2.082   2.417   3.768
  698TIP3    H2 2038   2.094   2.469   3.627
  699TIP3   OH2 2039   6.639   6.490   1.090
  699TIP3    H1 2040   6.712   6.551   1.099
  699TIP3    H2 2041   6.653   6.424   1.157
  700TIP3   OH2 2042   1.405   7.788   2.338
  700TIP3    H1 2043   1.365   7.747   2.414
  700TIP3    H2 2044   1.427   7.877   2.367
  701TIP3   OH2 2045   2.159   3.547   4.979
  701TIP3    H1 2046   2.251   3.526   4.995
  701TIP3    H2 2047   2.110   3.473   5.015
  702TIP3   OH2 2048   6.263   6.216   5.278
  702TIP3    H1 2049   6.295   6.127   5.293
  702TIP3    H2 2050   6.171   6.213   5.305
  703TIP3   OH2 2051   2.366   5.350   5.867
  703TIP3    H1 2052   2.316   5.275   5.836
  703TIP3    H2 2053   2.299   5.416   5.887
  704TIP3   OH2 2054   4.179   2.153   5.977
  704TIP3    H1 2055   4.267   2.152   5.940
  704TIP3    H2 2056   4.192   2.171   6.070
  705TIP3   OH2 2057   2.026   6.539   5.943
  705TIP3    H1 2058   2.064   6.529   6.030
  705TIP3    H2 2059   2.091   6.590   5.894
  706TIP3   OH2 2060   2.994   3.969   0.567
  706TIP3    H1 2061   2.920   3.917   0.599
  706TIP3    H2 2062   3.071   3.925   0.603
  707TIP3   OH2 2063   6.049   3.571   0.220
  707TIP3    H1 2064   5.999   3.647   0.251
  707TIP3    H2 2065   6.087   3.534   0.300
  708TIP3   OH2 2066   4.328   3.194   5.224
  708TIP3    H1 2067   4.393   3.139   5.182
  708TIP3    H2 2068   4.244   3.160   5.193
  709TIP3   OH2 2069   2.730   6.757   4.637
  709TIP3    H1 2070   2.811   6.710   4.618
  709TIP3    H2 2071   2.736   6.837   4.584
  710TIP3   OH2 2072   6.624   3.370   2.154
  710TIP3    H1 2073   6.642   3.289   2.107
  710TIP3    H2 2074   6.604   3.434   2.086
  711TIP3   OH2 2075   7.203   4.538   6.227
  711TIP3    H1 2076   7.249   4.523   6.144
  711TIP3    H2 2077   7.111   4.519   6.208
  712TIP3   OH2 2078   7.170   3.079   6.352
  712TIP3    H1 2079   7.197   3.159   6.398
  712TIP3    H2 2080   7.084   3.058   6.388
  713TIP3   OH2 2081   7.745   0.694   2.474
  713TIP3    H1 2082   7.822   0.728   2.520
  713TIP3    H2 2083   7.780   0.657   2.393
  714TIP3   OH2 2084   0.154   1.476   4.025
  714TIP3    H1 2085   0.175   1.562   3.988
  714TIP3    H2 2086   0.193   1.413   3.964
  715TIP3   OH2 2087   4.719   7.077   1.204
  715TIP3    H1 2088   4.693   6.987   1.187
  715TIP3    H2 2089   4.638   7.120   1.234
  716TIP3   OH2 2090   4.581   2.927   0.561
  716TIP3    H1 2091   4.571   2.862   0.631
  716TIP3    H2 2092   4.535   2.890   0.486
  717TIP3   OH2 2093   1.555   1.148   2.007
  717TIP3    H1 2094   1.556   1.156   1.911
  717TIP3    H2 2095   1.645   1.126   2.031
  718TIP3   OH2 2096   7.254   7.683   5.383
  718TIP3    H1 2097   7.214   7.608   5.428
  718TIP3    H2 2098   7.328   7.707   5.439
  719TIP3   OH2 2099   4.264   7.109   5.747
  719TIP3    H1 2100   4.172   7.130   5.761
  719TIP3    H2 2101   4.294   7.173   5.683
  720TIP3   OH2 2102   3.656   1.197   4.207
  720TIP3    H1 2103   3.714   1.215   4.133
  720TIP3    H2 2104   3.591   1.267   4.205
  721TIP3   OH2 2105   1.175   7.142   2.206
  721TIP3    H1 2106   1.224   7.105   2.279
  721TIP3    H2 2107   1.119   7.071   2.175
  722TIP3   OH2 2108   5.105   0.509   4.176
  722TIP3    H1 2109   5.133   0.431   4.128
  722TIP3    H2 2110   5.101   0.481   4.267
  723TIP3   OH2 2111   1.766   2.225   2.649
  723TIP3    H1 2112   1.770   2.300   2.708
  723TIP3    H2 2113   1.699   2.249   2.585
  724TIP3   OH2 2114   3.217   2.402   5.701
  724TIP3    H1 2115   3.299   2.406   5.652
  724TIP3    H2 2116   3.164   2.337   5.654
  725TIP3   OH2 2117   7.853   5.208   4.132
  725TIP3    H1 2118   7.799   5.274   4.088
  725TIP3    H2 2119   7.912   5.176   4.064
  726TIP3   OH2 2120   3.383   3.273   4.762
  726TIP3    H1 2121   3.432   3.210   4.709
  726TIP3    H2 2122   3.444   3.298   4.831
  727TIP3   OH2 2123   4.948   2.140   2.391
  727TIP3    H1 2124   5.034   2.141   2.433
  727TIP3    H2 2125   4.947   2.058   2.340
  728TIP3   OH2 2126   6.842   6.765   1.013
  728TIP3    H1 2127   6.785   6.835   1.045
  728TIP3    H2 2128   6.866   6.793   0.924
  729TIP3   OH2 2129   1.818   2.053   6.449
  729TIP3    H1 2130   1.741   2.081   6.497
  729TIP3    H2 2131   1.892   2.089   6.498
  730TIP3   OH2 2132   0.216   4.333   5.532
  730TIP3    H1 2133   0.223   4.265   5.466
  730TIP3    H2 2134   0.129   4.370   5.519
  731TIP3   OH2 2135   2.537   3.108   6.077
  731TIP3    H1 2136   2.446   3.137   6.072
  731TIP3    H2 2137   2.569   3.146   6.160
  732TIP3   OH2 2138   6.027   6.824   3.288
  732TIP3    H1 2139   6.026   6.789   3.199
  732TIP3    H2 2140   6.059   6.751   3.342
  733TIP3   OH2 2141   1.749   7.393   4.264
  733TIP3    H1 2142   1.828   7.352   4.299
  733TIP3    H2 2143   1.714   7.443   4.338
  734TIP3   OH2 2144   0.724   2.080   1.155
  734TIP3    H1 2145   0.801   2.118   1.197
  734TIP3    H2 2146   0.668   2.155   1.135
  735TIP3   OH2 2147   2.771   0.974   5.271
  735TIP3    H1 2148   2.696   0.926   5.239
  735TIP3    H2 2149   2.781   1.047   5.209
  736TIP3   OH2 2150   4.685   6.395   5.740
  736TIP3    H1 2151   4.727   6.393   5.826
  736TIP3    H2 2152   4.750   6.357   5.681
  737TIP3   OH2 2153   2.501   6.280   6.642
  737TIP3    H1 2154   2.551   6.292   6.561
  737TIP3    H2 2155   2.520   6.190   6.669
  738TIP3   OH2 2156   7.813   0.508   5.158
  738TIP3    H1 2157   7.821   0.526   5.065
  738TIP3    H2 2158   7.728   0.466   5.168
  739TIP3   OH2 2159   0.850   3.356   0.848
  739TIP3    H1 2160   0.807   3.441   0.852
  739TIP3    H2 2161   0.825   3.320   0.763
  740TIP3   OH2 2162   5.660   6.694   1.815
  740TIP3    H1 2163   5.717   6.696   1.738
  740TIP3    H2 2164   5.719   6.696   1.890
  741TIP3   OH2 2165   6.119   2.704   0.103
  741TIP3    H1 2166   6.090   2.615   0.123
  741TIP3    H2 2167   6.072   2.727   0.023
  742TIP3   OH2 2168   3.264   6.426   5.522
  742TIP3    H1 2169   3.333   6.490   5.537
  742TIP3    H2 2170   3.268   6.407   5.428
  743TIP3   OH2 2171   3.454   6.987   5.077
  743TIP3    H1 2172   3.383   6.930   5.047
  743TIP3    H2 2173   3.480   6.951   5.161
  744TIP3   OH2 2174   5.899   5.596   1.700
  744TIP3    H1 2175   5.855   5.608   1.785
  744TIP3    H2 2176   5.978   5.649   1.707
  745TIP3   OH2 2177   1.601   2.034   6.610
  745TIP3    H1 2178   1.629   1.949   6.644
  745TIP3    H2 2179   1.508   2.038   6.631
  746TIP3   OH2 2180   0.420   6.250   1.001
  746TIP3    H1 2181   0.395   6.163   0.971
  746TIP3    H2 2182   0.505   6.266   0.960
  747TIP3   OH2 2183   1.688   0.974   1.176
  747TIP3    H1 2184   1.710   0.902   1.117
  747TIP3    H2 2185   1.675   0.932   1.261
  748TIP3   OH2 2186   6.507   4.142   0.712
  748TIP3    H1 2187   6.584   4.189   0.680
  748TIP3    H2 2188   6.503   4.163   0.805
  749TIP3   OH2 2189   6.342   0.832   1.574
  749TIP3    H1 2190   6.308   0.804   1.659
  749TIP3    H2 2191   6.368   0.750   1.531
  750TIP3   OH2 2192   2.932   3.688   4.729
  750TIP3    H1 2193   2.927   3.616   4.792
  750TIP3    H2 2194   3.018   3.727   4.743
  751TIP3   OH2 2195   6.501   4.482   6.651
  751TIP3    H1 2196   6.524   4.468   6.743
  751TIP3    H2 2197   6.547   4.412   6.604
  752TIP3   OH2 2198   4.066   1.133   6.091
  752TIP3    H1 2199   4.150   1.088   6.093
  752TIP3    H2 2200   4.049   1.149   5.998
  753TIP3   OH2 2201   3.557   1.164   6.315
  753TIP3    H1 2202   3.573   1.190   6.405
  753TIP3    H2 2203   3.645   1.157   6.276
  754TIP3   OH2 2204   0.800   7.357   0.517
  754TIP3    H1 2205   0.873   7.300   0.493
  754TIP3    H2 2206   0.741   7.302   0.568
  755TIP3   OH2 2207   7.752   2.349   4.787
  755TIP3    H1 2208   7.679   2.288   4.800
  755TIP3    H2 2209   7.721   2.411   4.721
  756TIP3   OH2 2210   2.380   2.143   3.379
  756TIP3    H1 2211   2.388   2.144   3.474
  756TIP3    H2 2212   2.384   2.235   3.353
  757TIP3   OH2 2213   6.879   3.635   4.207
  757TIP3    H1 2214   6.895   3.607   4.117
  757TIP3    H2 2215   6.792   3.601   4.228
  758TIP3   OH2 2216   4.480   4.129   4.269
  758TIP3    H1 2217   4.396   4.172   4.254
  758TIP3    H2 2218   4.482   4.115   4.364
  759TIP3   OH2 2219   4.283   4.621   6.352
  759TIP3    H1 2220   4.265   4.573   6.432
  759TIP3    H2 2221   4.199   4.662   6.329
  760TIP3   OH2 2222   7.957   3.629   4.341
  760TIP3    H1 2223   7.956   3.536   4.318
  760TIP3    H2 2224   7.917   3.632   4.428
  761TIP3   OH2 2225   5.138   3.899   5.098
  761TIP3    H1 2226   5.051   3.897   5.058
  761TIP3    H2 2227   5.125   3.861   5.185
  762TIP3   OH2 2228   0.349   2.047   1.017
  762TIP3    H1 2229   0.392   2.042   0.931
  762TIP3    H2 2230   0.268   1.997   1.005
  763TIP3   OH2 2231   6.187   3.984   1.926
  763TIP3    H1 2232   6.141   3.901   1.938
  763TIP3    H2 2233   6.117   4.049   1.917
  764TIP3   OH2 2234   2.066   4.412   0.071
  764TIP3    H1 2235   2.029   4.343   0.014
  764TIP3    H2 2236   2.133   4.453   0.017
  765TIP3   OH2 2237   6.478   1.503   2.529
  765TIP3    H1 2238   6.406   1.545   2.480
  765TIP3    H2 2239   6.455   1.515   2.621
  766TIP3   OH2 2240   1.938   5.739   5.794
  766TIP3    H1 2241   1.915   5.657   5.837
  766TIP3    H2 2242   1.864   5.757   5.736
  767TIP3   OH2 2243   1.411   7.271   3.376
  767TIP3    H1 2244   1.318   7.271   3.397
  767TIP3    H2 2245   1.452   7.221   3.446
  768TIP3   OH2 2246   6.600   4.969   3.299
  768TIP3    H1 2247   6.687   4.974   3.337
  768TIP3    H2 2248   6.608   4.904   3.229
  769TIP3   OH2 2249   3.744   4.923   4.067
  769TIP3    H1 2250   3.807   4.956   4.003
  769TIP3    H2 2251   3.798   4.888   4.138
  770TIP3   OH2 2252   3.925   4.069   3.937
  770TIP3    H1 2253   3.976   3.998   3.975
  770TIP3    H2 2254   3.977   4.148   3.955
  771TIP3   OH2 2255   5.215   0.976   2.212
  771TIP3    H1 2256   5.190   1.068   2.213
  771TIP3    H2 2257   5.286   0.969   2.276
  772TIP3   OH2 2258   5.393   1.823   2.498
  772TIP3    H1 2259   5.425   1.911   2.519
  772TIP3    H2 2260   5.309   1.816   2.543
  773TIP3   OH2 2261   6.558   1.506  -0.046
  773TIP3    H1 2262   6.600   1.521  -0.131
  773TIP3    H2 2263   6.628   1.523   0.018
  774TIP3   OH2 2264   3.789   2.877   0.330
  774TIP3    H1 2265   3.749   2.912   0.251
  774TIP3    H2 2266   3.853   2.813   0.298
  775TIP3   OH2 2267   6.053   6.991   3.657
  775TIP3    H1 2268   6.097   7.051   3.717
  775TIP3    H2 2269   5.981   7.043   3.620
  776TIP3   OH2 2270   6.516   3.242   0.359
  776TIP3    H1 2271   6.607   3.260   0.336
  776TIP3    H2 2272   6.465   3.304   0.307
  777TIP3   OH2 2273   6.018   1.057   4.698
  777TIP3    H1 2274   5.981   0.990   4.756
  777TIP3    H2 2275   5.999   1.140   4.742
  778TIP3   OH2 2276   0.301   3.564   0.946
  778TIP3    H1 2277   0.226   3.506   0.933
  778TIP3    H2 2278   0.316   3.562   1.041
  779TIP3   OH2 2279   5.262   5.870   0.606
  779TIP3    H1 2280   5.282   5.857   0.699
  779TIP3    H2 2281   5.218   5.789   0.580
  780TIP3   OH2 2282   0.165   2.232   2.530
  780TIP3    H1 2283   0.136   2.146   2.559
  780TIP3    H2 2284   0.086   2.284   2.526
  781TIP3   OH2 2285   1.675   1.385   1.414
  781TIP3    H1 2286   1.602   1.402   1.473
  781TIP3    H2 2287   1.684   1.290   1.413
  782TIP3   OH2 2288   3.619   7.239   1.754
  782TIP3    H1 2289   3.621   7.236   1.659
  782TIP3    H2 2290   3.630   7.331   1.776
  783TIP3   OH2 2291   6.773   5.500   1.019
  783TIP3    H1 2292   6.709   5.482   0.950
  783TIP3    H2 2293   6.856   5.467   0.985
  784TIP3   OH2 2294   1.029   3.848   0.327
  784TIP3    H1 2295   1.055   3.772   0.275
  784TIP3    H2 2296   1.112   3.886   0.357
  785TIP3   OH2 2297   4.096   5.280   3.480
  785TIP3    H1 2298   4.027   5.343   3.463
  785TIP3    H2 2299   4.061   5.224   3.550
  786TIP3   OH2 2300   4.408   0.036   1.982
  786TIP3    H1 2301   4.366  -0.044   2.015
  786TIP3    H2 2302   4.454   0.008   1.903
  787TIP3   OH2 2303   6.618   5.966   2.505
  787TIP3    H1 2304   6.681   6.024   2.461
  787TIP3    H2 2305   6.649   5.963   2.596
  788TIP3   OH2 2306   2.244   5.295   5.204
  788TIP3    H1 2307   2.279   5.276   5.291
  788TIP3    H2 2308   2.306   5.359   5.167
  789TIP3   OH2 2309   0.443   2.712   0.582
  789TIP3    H1 2310   0.424   2.792   0.631
  789TIP3    H2 2311   0.460   2.742   0.493
  790TIP3   OH2 2312   6.001   5.602   1.184
  790TIP3    H1 2313   5.911   5.610   1.154
  790TIP3    H2 2314   5.998   5.536   1.254
  791TIP3   OH2 2315   7.417   6.479   2.162
  791TIP3    H1 2316   7.466   6.488   2.081
  791TIP3    H2 2317   7.377   6.565   2.176
  792TIP3   OH2 2318   0.605   1.627   3.357
  792TIP3    H1 2319   0.603   1.551   3.414
  792TIP3    H2 2320   0.587   1.701   3.414
  793TIP3   OH2 2321   0.139   5.102   6.415
  793TIP3    H1 2322   0.128   5.086   6.509
  793TIP3    H2 2323   0.157   5.015   6.379
  794TIP3   OH2 2324   1.286   3.488   3.901
  794TIP3    H1 2325   1.312   3.502   3.992
  794TIP3    H2 2326   1.367   3.458   3.858
  795TIP3   OH2 2327   6.992   6.604   2.017
  795TIP3    H1 2328   7.034   6.528   2.056
  795TIP3    H2 2329   7.063   6.650   1.973
  796TIP3   OH2 2330   6.229   1.641   3.946
  796TIP3    H1 2331   6.202   1.577   3.881
  796TIP3    H2 2332   6.314   1.673   3.915
  797TIP3   OH2 2333   6.164   6.491   4.314
  797TIP3    H1 2334   6.122   6.497   4.229
  797TIP3    H2 2335   6.170   6.581   4.345
  798TIP3   OH2 2336   0.593   1.254   2.196
  798TIP3    H1 2337   0.671   1.236   2.144
  798TIP3    H2 2338   0.623   1.250   2.287
  799TIP3   OH2 2339   3.631   4.181   6.013
  799TIP3    H1 2340   3.672   4.113   5.960
  799TIP3    H2 2341   3.538   4.172   5.995
  800TIP3   OH2 2342   1.708   5.870   2.942
  800TIP3    H1 2343   1.650   5.939   2.975
  800TIP3    H2 2344   1.776   5.917   2.894
  801TIP3   OH2 2345   3.321   5.590   4.888
  801TIP3    H1 2346   3.357   5.501   4.886
  801TIP3    H2 2347   3.241   5.586   4.837
  802TIP3   OH2 2348   1.769   5.661   3.377
  802TIP3    H1 2349   1.821   5.663   3.296
  802TIP3    H2 2350   1.739   5.570   3.384
  803TIP3   OH2 2351   3.538   6.973   3.341
  803TIP3    H1 2352   3.609   7.002   3.398
  803TIP3    H2 2353   3.579   6.916   3.277
  804TIP3   OH2 2354   2.164   6.634   2.282
  804TIP3    H1 2355   2.075   6.600   2.289
  804TIP3    H2 2356   2.179   6.643   2.188
  805TIP3   OH2 2357   5.605   1.848   1.565
  805TIP3    H1 2358   5.686   1.816   1.526
  805TIP3    H2 2359   5.632   1.909   1.633
  806TIP3   OH2 2360   2.562   4.344   5.530
  806TIP3    H1 2361   2.567   4.330   5.625
  806TIP3    H2 2362   2.500   4.417   5.520
  807TIP3   OH2 2363   5.944   3.850   6.451
  807TIP3    H1 2364   6.037   3.870   6.439
  807TIP3    H2 2365   5.926   3.781   6.386
  808TIP3   OH2 2366   4.768   7.187   2.710
  808TIP3    H1 2367   4.857   7.155   2.730
  808TIP3    H2 2368   4.783   7.269   2.663
  809TIP3   OH2 2369   4.006   1.456   2.030
  809TIP3    H1 2370   3.991   1.550   2.029
  809TIP3    H2 2371   3.922   1.419   2.001
  810TIP3   OH2 2372   7.515   3.791   5.750
  810TIP3    H1 2373   7.551   3.804   5.662
  810TIP3    H2 2374   7.519   3.877   5.790
  811TIP3   OH2 2375   3.957   3.505   2.434
  811TIP3    H1 2376   3.922   3.567   2.498
  811TIP3    H2 2377   4.014   3.448   2.486
  812TIP3   OH2 2378   8.226   0.074   2.254
  812TIP3    H1 2379   8.265   0.133   2.318
  812TIP3    H2 2380   8.247  -0.014   2.285
  813TIP3   OH2 2381   3.124   2.417   3.159
  813TIP3    H1 2382   3.142   2.367   3.239
  813TIP3    H2 2383   3.211   2.434   3.122
  814TIP3   OH2 2384   8.127   3.720   5.498
  814TIP3    H1 2385   8.144   3.701   5.590
  814TIP3    H2 2386   8.043   3.677   5.479
  815TIP3   OH2 2387   2.293   7.097   2.810
  815TIP3    H1 2388   2.263   7.007   2.823
  815TIP3    H2 2389   2.380   7.100   2.850
  816TIP3   OH2 2390   0.524   1.669   3.747
  816TIP3    H1 2391   0.550   1.608   3.678
  816TIP3    H2 2392   0.589   1.656   3.816
  817TIP3   OH2 2393   7.012   7.714   1.172
  817TIP3    H1 2394   6.994   7.659   1.096
  817TIP3    H2 2395   7.048   7.795   1.136
  818TIP3   OH2 2396   5.567   2.555   2.469
  818TIP3    H1 2397   5.629   2.517   2.531
  818TIP3    H2 2398   5.558   2.646   2.497
  819TIP3   OH2 2399   3.196   3.097   3.218
  819TIP3    H1 2400   3.124   3.037   3.201
  819TIP3    H2 2401   3.166   3.181   3.184
  820TIP3   OH2 2402   5.750   0.017   3.346
  820TIP3    H1 2403   5.802   0.096   3.359
  820TIP3    H2 2404   5.667   0.035   3.389
  821TIP3   OH2 2405   7.248   3.615   4.819
  821TIP3    H1 2406   7.238   3.571   4.734
  821TIP3    H2 2407   7.316   3.565   4.864
  822TIP3   OH2 2408   8.088   0.987   2.828
  822TIP3    H1 2409   8.133   1.052   2.773
  822TIP3    H2 2410   8.080   1.029   2.913
  823TIP3   OH2 2411   7.166   6.344   2.362
  823TIP3    H1 2412   7.232   6.282   2.393
  823TIP3    H2 2413   7.085   6.318   2.404
  824TIP3   OH2 2414   1.070   6.991   5.871
  824TIP3    H1 2415   1.084   6.944   5.789
  824TIP3    H2 2416   1.035   7.076   5.845
  825TIP3   OH2 2417   5.557   2.494   4.653
  825TIP3    H1 2418   5.463   2.498   4.671
  825TIP3    H2 2419   5.563   2.479   4.558
  826TIP3   OH2 2420   0.956   4.920   2.793
  826TIP3    H1 2421   1.035   4.867   2.779
  826TIP3    H2 2422   0.961   4.988   2.726
  827TIP3   OH2 2423   0.663   6.079   4.391
  827TIP3    H1 2424   0.756   6.081   4.367
  827TIP3    H2 2425   0.658   6.129   4.472
  828TIP3   OH2 2426   4.162   6.659   4.965
  828TIP3    H1 2427   4.193   6.573   4.935
  828TIP3    H2 2428   4.110   6.692   4.891
  829TIP3   OH2 2429   6.962   7.714   5.704
  829TIP3    H1 2430   7.055   7.696   5.716
  829TIP3    H2 2431   6.943   7.781   5.770
  830TIP3   OH2 2432   0.440   1.736   6.511
  830TIP3    H1 2433   0.475   1.743   6.422
  830TIP3    H2 2434   0.427   1.826   6.540
  831TIP3   OH2 2435   2.891   1.848   5.809
  831TIP3    H1 2436   2.968   1.798   5.837
  831TIP3    H2 2437   2.898   1.931   5.856
  832TIP3   OH2 2438   2.782   4.638   4.978
  832TIP3    H1 2439   2.848   4.652   4.910
  832TIP3    H2 2440   2.714   4.586   4.934
  833TIP3   OH2 2441   0.311   1.122   4.832
  833TIP3    H1 2442   0.324   1.201   4.779
  833TIP3    H2 2443   0.351   1.142   4.916
  834TIP3   OH2 2444   4.763   3.108   5.654
  834TIP3    H1 2445   4.750   3.022   5.694
  834TIP3    H2 2446   4.679   3.127   5.612
  835TIP3   OH2 2447   0.402   5.380   1.793
  835TIP3    H1 2448   0.326   5.325   1.813
  835TIP3    H2 2449   0.453   5.381   1.874
  836TIP3   OH2 2450   2.654   7.610   4.747
  836TIP3    H1 2451   2.733   7.664   4.755
  836TIP3    H2 2452   2.686   7.521   4.741
  837TIP3   OH2 2453   2.442   0.476   4.401
  837TIP3    H1 2454   2.396   0.406   4.355
  837TIP3    H2 2455   2.391   0.555   4.381
  838TIP3   OH2 2456   6.184   5.306   1.522
  838TIP3    H1 2457   6.195   5.232   1.582
  838TIP3    H2 2458   6.261   5.305   1.466
  839TIP3   OH2 2459   2.670   7.582   4.118
  839TIP3    H1 2460   2.704   7.612   4.203
  839TIP3    H2 2461   2.723   7.629   4.054
  840TIP3   OH2 2462   5.050   2.719   0.893
  840TIP3    H1 2463   5.056   2.718   0.988
  840TIP3    H2 2464   5.140   2.711   0.862
  841TIP3   OH2 2465   3.097   6.482   6.378
  841TIP3    H1 2466   3.135   6.413   6.432
  841TIP3    H2 2467   3.102   6.560   6.432
  842TIP3   OH2 2468   5.957   4.783   0.185
  842TIP3    H1 2469   6.038   4.781   0.134
  842TIP3    H2 2470   5.913   4.863   0.156
  843TIP3   OH2 2471   7.009   6.144   3.819
  843TIP3    H1 2472   7.078   6.114   3.759
  843TIP3    H2 2473   6.930   6.148   3.766
  844TIP3   OH2 2474   0.341   4.788   4.217
  844TIP3    H1 2475   0.399   4.832   4.155
  844TIP3    H2 2476   0.391   4.786   4.299
  845TIP3   OH2 2477   7.106   6.453   6.184
  845TIP3    H1 2478   7.197   6.441   6.156
  845TIP3    H2 2479   7.084   6.541   6.155
  846TIP3   OH2 2480   0.215   1.023   1.899
  846TIP3    H1 2481   0.294   1.048   1.948
  846TIP3    H2 2482   0.150   1.003   1.966
  847TIP3   OH2 2483   3.262   7.379   2.911
  847TIP3    H1 2484   3.221   7.464   2.930
  847TIP3    H2 2485   3.199   7.315   2.945
  848TIP3   OH2 2486   2.719   7.731   5.759
  848TIP3    H1 2487   2.806   7.766   5.739
  848TIP3    H2 2488   2.673   7.734   5.676
  849TIP3   OH2 2489   3.306   0.816   0.113
  849TIP3    H1 2490   3.388   0.844   0.154
  849TIP3    H2 2491   3.312   0.850   0.023
  850TIP3   OH2 2492   6.159   1.266   3.235
  850TIP3    H1 2493   6.152   1.227   3.322
  850TIP3    H2 2494   6.236   1.323   3.240
  851TIP3   OH2 2495   1.251   3.996   0.397
  851TIP3    H1 2496   1.271   4.069   0.338
  851TIP3    H2 2497   1.335   3.974   0.438
  852TIP3   OH2 2498   7.394   3.272   6.395
  852TIP3    H1 2499   7.376   3.272   6.301
  852TIP3    H2 2500   7.474   3.324   6.404
  853TIP3   OH2 2501   2.839   6.062   5.573
  853TIP3    H1 2502   2.906   6.058   5.505
  853TIP3    H2 2503   2.789   6.141   5.553
  854TIP3   OH2 2504   2.229   2.181   3.948
  854TIP3    H1 2505   2.213   2.274   3.929
  854TIP3    H2 2506   2.141   2.144   3.958
  855TIP3   OH2 2507   5.418   6.210   6.084
  855TIP3    H1 2508   5.390   6.297   6.054
  855TIP3    H2 2509   5.442   6.224   6.176
  856TIP3   OH2 2510   5.544   7.597   4.005
  856TIP3    H1 2511   5.571   7.512   3.970
  856TIP3    H2 2512   5.486   7.633   3.938
  857TIP3   OH2 2513   5.578   3.023   0.829
  857TIP3    H1 2514   5.617   2.992   0.747
  857TIP3    H2 2515   5.598   3.117   0.831
  858TIP3   OH2 2516   5.555   3.311   2.318
  858TIP3    H1 2517   5.637   3.342   2.356
  858TIP3    H2 2518   5.569   3.319   2.224
  859TIP3   OH2 2519   6.782   1.473   1.955
  859TIP3    H1 2520   6.877   1.464   1.952
  859TIP3    H2 2521   6.754   1.414   2.025
  860TIP3   OH2 2522   5.371   6.891   0.368
  860TIP3    H1 2523   5.314   6.824   0.406
  860TIP3    H2 2524   5.434   6.912   0.437
  861TIP3   OH2 2525   4.117   2.467   4.963
  861TIP3    H1 2526   4.139   2.556   4.992
  861TIP3    H2 2527   4.183   2.446   4.898
  862TIP3   OH2 2528   5.917   0.944   3.614
  862TIP3    H1 2529   5.858   0.871   3.633
  862TIP3    H2 2530   5.870   1.022   3.643
  863TIP3   OH2 2531   0.563   3.133   0.753
  863TIP3    H1 2532   0.568   3.193   0.679
  863TIP3    H2 2533   0.550   3.190   0.829
  864TIP3   OH2 2534   6.488   3.996   6.382
  864TIP3    H1 2535   6.558   3.960   6.328
  864TIP3    H2 2536   6.531   4.019   6.465
  865TIP3   OH2 2537   5.271   2.975   4.909
  865TIP3    H1 2538   5.249   2.883   4.894
  865TIP3    H2 2539   5.261   2.987   5.003
  866TIP3   OH2 2540   0.201   2.910   1.470
  866TIP3    H1 2541   0.164   2.974   1.530
  866TIP3    H2 2542   0.265   2.863   1.524
  867TIP3   OH2 2543   0.200   3.345   2.397
  867TIP3    H1 2544   0.115   3.373   2.363
  867TIP3    H2 2545   0.229   3.417   2.453
  868TIP3   OH2 2546   1.461   4.801   3.159
  868TIP3    H1 2547   1.379   4.785   3.206
  868TIP3    H2 2548   1.457   4.744   3.083
  869TIP3   OH2 2549   6.993   4.785   2.621
  869TIP3    H1 2550   6.940   4.856   2.657
  869TIP3    H2 2551   6.930   4.723   2.586
  870TIP3   OH2 2552   7.983   2.781   4.115
  870TIP3    H1 2553   8.025   2.713   4.062
  870TIP3    H2 2554   8.056   2.825   4.158
  871TIP3   OH2 2555   4.011   0.587   4.890
  871TIP3    H1 2556   4.092   0.599   4.940
  871TIP3    H2 2557   4.033   0.521   4.824
  872TIP3   OH2 2558   6.142   5.207   1.951
  872TIP3    H1 2559   6.146   5.300   1.930
  872TIP3    H2 2560   6.111   5.165   1.871
  873TIP3   OH2 2561   5.319   2.230   5.139
  873TIP3    H1 2562   5.257   2.184   5.083
  873TIP3    H2 2563   5.367   2.288   5.080
  874TIP3   OH2 2564   4.592   2.212   2.734
  874TIP3    H1 2565   4.680   2.237   2.706
  874TIP3    H2 2566   4.552   2.293   2.766
  875TIP3   OH2 2567   7.455   6.782   3.299
  875TIP3    H1 2568   7.549   6.800   3.302
  875TIP3    H2 2569   7.419   6.828   3.374
  876TIP3   OH2 2570   4.060   3.149   3.174
  876TIP3    H1 2571   3.972   3.125   3.145
  876TIP3    H2 2572   4.118   3.119   3.104
  877TIP3   OH2 2573   3.205   3.858   4.376
  877TIP3    H1 2574   3.198   3.784   4.315
  877TIP3    H2 2575   3.285   3.841   4.426
  878TIP3   OH2 2576   2.789   4.919   2.215
  878TIP3    H1 2577   2.783   4.848   2.151
  878TIP3    H2 2578   2.765   4.997   2.167
  879TIP3   OH2 2579   3.922   2.221   1.764
  879TIP3    H1 2580   4.012   2.251   1.762
  879TIP3    H2 2581   3.870   2.296   1.734
  880TIP3   OH2 2582   2.067   3.124   1.151
  880TIP3    H1 2583   2.058   3.152   1.060
  880TIP3    H2 2584   1.990   3.070   1.167
  881TIP3   OH2 2585   5.093   1.403   0.819
  881TIP3    H1 2586   5.087   1.375   0.728
  881TIP3    H2 2587   5.048   1.333   0.868
  882TIP3   OH2 2588   0.310   1.069   4.375
  882TIP3    H1 2589   0.253   1.036   4.444
  882TIP3    H2 2590   0.399   1.046   4.404
  883TIP3   OH2 2591   4.095   1.503   5.935
  883TIP3    H1 2592   4.166   1.495   5.999
  883TIP3    H2 2593   4.022   1.456   5.974
  884TIP3   OH2 2594   2.654   4.066   5.060
  884TIP3    H1 2595   2.585   4.123   5.027
  884TIP3    H2 2596   2.609   3.984   5.081
  885TIP3   OH2 2597   1.357   6.716   4.067
  885TIP3    H1 2598   1.424   6.701   4.133
  885TIP3    H2 2599   1.276   6.726   4.116
  886TIP3   OH2 2600   2.256   4.464   0.251
  886TIP3    H1 2601   2.173   4.481   0.207
  886TIP3    H2 2602   2.280   4.547   0.291
  887TIP3   OH2 2603   7.353   7.243   1.662
  887TIP3    H1 2604   7.294   7.313   1.687
  887TIP3    H2 2605   7.397   7.275   1.583
  888TIP3   OH2 2606   6.907   4.123   2.761
  888TIP3    H1 2607   6.853   4.160   2.831
  888TIP3    H2 2608   6.996   4.149   2.784
  889TIP3   OH2 2609   2.334   7.763   2.046
  889TIP3    H1 2610   2.259   7.787   1.992
  889TIP3    H2 2611   2.384   7.702   1.992
  890TIP3   OH2 2612   3.388   2.016   4.039
  890TIP3    H1 2613   3.344   2.062   4.111
  890TIP3    H2 2614   3.367   2.068   3.962
  891TIP3   OH2 2615   7.107   6.888   0.086
  891TIP3    H1 2616   7.189   6.889   0.037
  891TIP3    H2 2617   7.069   6.803   0.067
  892TIP3   OH2 2618   7.204   3.481   3.972
  892TIP3    H1 2619   7.191   3.457   4.064
  892TIP3    H2 2620   7.270   3.419   3.940
  893TIP3   OH2 2621   1.036   2.106   3.869
  893TIP3    H1 2622   1.016   2.184   3.920
  893TIP3    H2 2623   1.013   2.033   3.927
  894TIP3   OH2 2624   0.728   4.628   1.773
  894TIP3    H1 2625   0.665   4.559   1.794
  894TIP3    H2 2626   0.700   4.703   1.825
  895TIP3   OH2 2627   0.257   6.150   0.435
  895TIP3    H1 2628   0.351   6.143   0.451
  895TIP3    H2 2629   0.232   6.232   0.478
  896TIP3   OH2 2630   5.466   3.208   6.475
  896TIP3    H1 2631   5.476   3.273   6.405
  896TIP3    H2 2632   5.378   3.224   6.509
  897TIP3   OH2 2633   2.529   2.505   4.592
  897TIP3    H1 2634   2.596   2.573   4.596
  897TIP3    H2 2635   2.531   2.465   4.679
  898TIP3   OH2 2636   0.606   4.684   0.226
  898TIP3    H1 2637   0.521   4.641   0.239
  898TIP3    H2 2638   0.607   4.708   0.134
  899TIP3   OH2 2639   6.600   0.447   2.439
  899TIP3    H1 2640   6.609   0.452   2.534
  899TIP3    H2 2641   6.627   0.357   2.418
  900TIP3   OH2 2642   4.312   0.517   5.265
  900TIP3    H1 2643   4.397   0.521   5.310
  900TIP3    H2 2644   4.252   0.563   5.324
  901TIP3   OH2 2645   3.410   2.788   2.262
  901TIP3    H1 2646   3.386   2.872   2.225
  901TIP3    H2 2647   3.483   2.807   2.320
  902TIP3   OH2 2648   7.632   3.649   4.154
  902TIP3    H1 2649   7.704   3.677   4.098
  902TIP3    H2 2650   7.667   3.574   4.202
  903TIP3   OH2 2651   6.245   4.468   0.639
  903TIP3    H1 2652   6.202   4.502   0.717
  903TIP3    H2 2653   6.296   4.393   0.670
  904TIP3   OH2 2654   0.422   0.936   3.289
  904TIP3    H1 2655   0.383   1.024   3.286
  904TIP3    H2 2656   0.493   0.944   3.352
  905TIP3   OH2 2657   2.234   6.635   3.570
  905TIP3    H1 2658   2.233   6.729   3.584
  905TIP3    H2 2659   2.200   6.597   3.651
  906TIP3   OH2 2660   4.156   3.246   5.938
  906TIP3    H1 2661   4.161   3.151   5.941
  906TIP3    H2 2662   4.209   3.275   6.012
  907TIP3   OH2 2663   4.614   3.827   5.416
  907TIP3    H1 2664   4.645   3.758   5.475
  907TIP3    H2 2665   4.550   3.876   5.467
  908TIP3   OH2 2666   8.027   2.780   2.203
  908TIP3    H1 2667   7.940   2.740   2.213
  908TIP3    H2 2668   8.022   2.828   2.120
  909TIP3   OH2 2669   5.664   2.850   1.042
  909TIP3    H1 2670   5.758   2.854   1.027
  909TIP3    H2 2671   5.625   2.896   0.967
  910TIP3   OH2 2672   1.510   1.393   1.621
  910TIP3    H1 2673   1.471   1.462   1.568
  910TIP3    H2 2674   1.549   1.439   1.695
  911TIP3   OH2 2675   5.719   1.462   4.940
  911TIP3    H1 2676   5.747   1.516   4.867
  911TIP3    H2 2677   5.623   1.466   4.938
  912TIP3   OH2 2678   2.113   0.921   3.139
  912TIP3    H1 2679   2.190   0.920   3.194
  912TIP3    H2 2680   2.069   1.003   3.159
  913TIP3   OH2 2681   0.963   2.736   0.971
  913TIP3    H1 2682   0.881   2.729   0.924
  913TIP3    H2 2683   1.025   2.683   0.920
  914TIP3   OH2 2684   6.438   1.565   3.610
  914TIP3    H1 2685   6.355   1.599   3.576
  914TIP3    H2 2686   6.505   1.623   3.574
  915TIP3   OH2 2687   7.338   5.444   6.164
  915TIP3    H1 2688   7.431   5.460   6.146
  915TIP3    H2 2689   7.299   5.428   6.079
  916TIP3   OH2 2690   5.485   5.997   3.377
  916TIP3    H1 2691   5.532   6.078   3.362
  916TIP3    H2 2692   5.449   5.974   3.291
  917TIP3   OH2 2693   5.095   2.984   3.301
  917TIP3    H1 2694   5.151   3.020   3.369
  917TIP3    H2 2695   5.102   3.045   3.228
  918TIP3   OH2 2696   1.556   4.946   3.687
  918TIP3    H1 2697   1.488   4.938   3.620
  918TIP3    H2 2698   1.514   4.995   3.758
  919TIP3   OH2 2699   3.943   3.405   6.048
  919TIP3    H1 2700   3.985   3.441   6.127
  919TIP3    H2 2701   4.009   3.348   6.010
  920TIP3   OH2 2702   4.228   3.819   5.010
  920TIP3    H1 2703   4.285   3.749   5.043
  920TIP3    H2 2704   4.140   3.792   5.036
  921TIP3   OH2 2705   0.720   1.259   6.190
  921TIP3    H1 2706   0.765   1.176   6.205
  921TIP3    H2 2707   0.653   1.238   6.124
  922TIP3   OH2 2708   2.032   2.715   0.922
  922TIP3    H1 2709   2.101   2.709   0.856
  922TIP3    H2 2710   2.053   2.646   0.985
  923TIP3   OH2 2711   7.367   2.096   5.027
  923TIP3    H1 2712   7.278   2.083   5.059
  923TIP3    H2 2713   7.366   2.184   4.989
  924TIP3   OH2 2714   0.576   0.061   2.958
  924TIP3    H1 2715   0.509   0.021   2.902
  924TIP3    H2 2716   0.530   0.078   3.040
  925TIP3   OH2 2717   4.255   6.631   5.459
  925TIP3    H1 2718   4.346   6.659   5.471
  925TIP3    H2 2719   4.260   6.536   5.456
  926TIP3   OH2 2720   1.437   7.741   6.738
  926TIP3    H1 2721   1.418   7.830   6.707
  926TIP3    H2 2722   1.371   7.686   6.696
  927TIP3   OH2 2723   5.904   2.707   5.184
  927TIP3    H1 2724   5.830   2.694   5.243
  927TIP3    H2 2725   5.925   2.800   5.194
  928TIP3   OH2 2726   8.141   5.769   4.072
  928TIP3    H1 2727   8.188   5.852   4.068
  928TIP3    H2 2728   8.062   5.782   4.020
  929TIP3   OH2 2729   3.473   4.713   2.297
  929TIP3    H1 2730   3.462   4.639   2.356
  929TIP3    H2 2731   3.406   4.700   2.230
  930TIP3   OH2 2732   0.531   5.655   6.340
  930TIP3    H1 2733   0.449   5.614   6.365
  930TIP3    H2 2734   0.538   5.731   6.397
  931TIP3   OH2 2735   0.621   0.162   3.769
  931TIP3    H1 2736   0.695   0.112   3.736
  931TIP3    H2 2737   0.544   0.121   3.730
  932TIP3   OH2 2738   2.360   5.891   6.119
  932TIP3    H1 2739   2.339   5.902   6.026
  932TIP3    H2 2740   2.370   5.796   6.131
  933TIP3   OH2 2741   3.244   2.396   2.151
  933TIP3    H1 2742   3.270   2.385   2.243
  933TIP3    H2 2743   3.313   2.352   2.101
  934TIP3   OH2 2744   3.766   0.145   4.180
  934TIP3    H1 2745   3.707   0.201   4.231
  934TIP3    H2 2746   3.845   0.138   4.234
  935TIP3   OH2 2747   7.029   7.161   4.744
  935TIP3    H1 2748   7.104   7.201   4.789
  935TIP3    H2 2749   6.958   7.223   4.758
  936TIP3   OH2 2750   5.401   1.315   4.038
  936TIP3    H1 2751   5.347   1.309   3.960
  936TIP3    H2 2752   5.366   1.248   4.097
  937TIP3   OH2 2753   3.854   2.564   2.740
  937TIP3    H1 2754   3.762   2.589   2.730
  937TIP3    H2 2755   3.903   2.646   2.730
  938TIP3   OH2 2756   4.114   0.374   4.726
  938TIP3    H1 2757   4.066   0.292   4.734
  938TIP3    H2 2758   4.200   0.355   4.764
  939TIP3   OH2 2759   5.856   3.475   2.852
  939TIP3    H1 2760   5.872   3.426   2.932
  939TIP3    H2 2761   5.914   3.435   2.787
  940TIP3   OH2 2762   4.750   5.850   3.191
  940TIP3    H1 2763   4.815   5.817   3.253
  940TIP3    H2 2764   4.801   5.885   3.118
  941TIP3   OH2 2765   1.142   7.737   5.640
  941TIP3    H1 2766   1.165   7.810   5.583
  941TIP3    H2 2767   1.185   7.756   5.723
  942TIP3   OH2 2768   7.555   4.049   2.508
  942TIP3    H1 2769   7.634   4.022   2.461
  942TIP3    H2 2770   7.589   4.095   2.585
  943TIP3   OH2 2771   1.932   5.533   5.959
  943TIP3    H1 2772   1.968   5.446   5.973
  943TIP3    H2 2773   1.879   5.551   6.037
  944TIP3   OH2 2774   2.235   0.569   4.608
  944TIP3    H1 2775   2.283   0.635   4.659
  944TIP3    H2 2776   2.238   0.601   4.518
  945TIP3   OH2 2777   6.308   0.675   0.246
  945TIP3    H1 2778   6.232   0.729   0.222
  945TIP3    H2 2779   6.362   0.672   0.167
  946TIP3   OH2 2780   6.845   1.760   2.729
  946TIP3    H1 2781   6.770   1.795   2.776
  946TIP3    H2 2782   6.825   1.667   2.718
  947TIP3   OH2 2783   6.870   3.523   6.501
  947TIP3    H1 2784   6.933   3.583   6.540
  947TIP3    H2 2785   6.919   3.479   6.431
  948TIP3   OH2 2786   1.737   7.086   3.373
  948TIP3    H1 2787   1.822   7.094   3.329
  948TIP3    H2 2788   1.730   7.166   3.425
  949TIP3   OH2 2789   4.486   4.120   4.866
  949TIP3    H1 2790   4.514   4.211   4.870
  949TIP3    H2 2791   4.563   4.070   4.894
  950TIP3   OH2 2792   2.975   5.502   2.878
  950TIP3    H1 2793   2.913   5.465   2.942
  950TIP3    H2 2794   2.972   5.596   2.896
  951TIP3   OH2 2795   0.178   0.364   5.684
  951TIP3    H1 2796   0.105   0.333   5.737
  951TIP3    H2 2797   0.212   0.286   5.641
  952TIP3   OH2 2798   5.103   7.474   1.858
  952TIP3    H1 2799   5.080   7.402   1.918
  952TIP3    H2 2800   5.020   7.515   1.836
  953TIP3   OH2 2801   3.368   2.890   6.282
  953TIP3    H1 2802   3.274   2.877   6.273
  953TIP3    H2 2803   3.392   2.840   6.361
  954TIP3   OH2 2804   1.736   5.013   6.445
  954TIP3    H1 2805   1.702   5.100   6.424
  954TIP3    H2 2806   1.722   5.005   6.540
  955TIP3   OH2 2807   1.591   0.658   5.059
  955TIP3    H1 2808   1.586   0.736   5.115
  955TIP3    H2 2809   1.569   0.585   5.116
  956TIP3   OH2 2810   8.240   1.675   6.023
  956TIP3    H1 2811   8.192   1.629   6.092
  956TIP3    H2 2812   8.246   1.766   6.054
  957TIP3   OH2 2813   1.439   0.300   0.269
  957TIP3    H1 2814   1.369   0.312   0.333
  957TIP3    H2 2815   1.502   0.243   0.312
  958TIP3   OH2 2816   2.636   6.721   3.564
  958TIP3    H1 2817   2.599   6.712   3.476
  958TIP3    H2 2818   2.709   6.782   3.553
  959TIP3   OH2 2819   7.088   6.878   5.238
  959TIP3    H1 2820   7.113   6.813   5.173
  959TIP3    H2 2821   7.022   6.834   5.292
  960TIP3   OH2 2822   0.831   2.205   5.245
  960TIP3    H1 2823   0.775   2.163   5.310
  960TIP3    H2 2824   0.914   2.219   5.290
  961TIP3   OH2 2825   3.860   7.224   5.476
  961TIP3    H1 2826   3.838   7.269   5.394
  961TIP3    H2 2827   3.956   7.220   5.476
  962TIP3   OH2 2828   2.846   6.871   3.490
  962TIP3    H1 2829   2.890   6.811   3.431
  962TIP3    H2 2830   2.914   6.898   3.552
  963TIP3   OH2 2831   7.236   2.971   5.770
  963TIP3    H1 2832   7.288   3.052   5.763
  963TIP3    H2 2833   7.248   2.943   5.861
  964TIP3   OH2 2834   6.250   3.308   5.906
  964TIP3    H1 2835   6.319   3.356   5.950
  964TIP3    H2 2836   6.284   3.218   5.899
  965TIP3   OH2 2837   7.603   3.088   0.344
  965TIP3    H1 2838   7.580   2.995   0.343
  965TIP3    H2 2839   7.696   3.090   0.363
  966TIP3   OH2 2840   8.184   4.902   5.263
  966TIP3    H1 2841   8.128   4.834   5.226
  966TIP3    H2 2842   8.235   4.934   5.189
  967TIP3   OH2 2843   3.235   4.949   0.651
  967TIP3    H1 2844   3.193   4.879   0.700
  967TIP3    H2 2845   3.176   5.024   0.659
  968TIP3   OH2 2846   3.652   1.392   3.406
  968TIP3    H1 2847   3.696   1.440   3.476
  968TIP3    H2 2848   3.683   1.302   3.416
  969TIP3   OH2 2849   6.830   3.991   4.762
  969TIP3    H1 2850   6.751   4.023   4.806
  969TIP3    H2 2851   6.833   4.039   4.679
  970TIP3   OH2 2852   5.634   0.233   5.454
  970TIP3    H1 2853   5.590   0.169   5.398
  970TIP3    H2 2854   5.598   0.216   5.541
  971TIP3   OH2 2855   5.757   6.561   0.751
  971TIP3    H1 2856   5.706   6.641   0.740
  971TIP3    H2 2857   5.698   6.500   0.796
  972TIP3   OH2 2858   2.453   5.694   2.881
  972TIP3    H1 2859   2.362   5.714   2.902
  972TIP3    H2 2860   2.495   5.780   2.875
  973TIP3   OH2 2861   7.612   4.469   5.884
  973TIP3    H1 2862   7.668   4.399   5.919
  973TIP3    H2 2863   7.631   4.545   5.939
  974TIP3   OH2 2864   0.325   0.949   0.923
  974TIP3    H1 2865   0.239   0.928   0.960
  974TIP3    H2 2866   0.387   0.910   0.984
  975TIP3   OH2 2867   2.047   4.685   6.537
  975TIP3    H1 2868   1.994   4.606   6.530
  975TIP3    H2 2869   2.021   4.738   6.461
  976TIP3   OH2 2870   5.438   2.871   3.946
  976TIP3    H1 2871   5.353   2.908   3.921
  976TIP3    H2 2872   5.472   2.933   4.011
  977TIP3   OH2 2873   1.733   3.136   4.665
  977TIP3    H1 2874   1.767   3.051   4.692
  977TIP3    H2 2875   1.711   3.179   4.748
  978TIP3   OH2 2876   3.782   5.957   1.294
  978TIP3    H1 2877   3.778   5.883   1.233
  978TIP3    H2 2878   3.802   5.916   1.379
  979TIP3   OH2 2879   3.031   5.152   0.752
  979TIP3    H1 2880   3.029   5.167   0.657
  979TIP3    H2 2881   2.941   5.129   0.774
  980TIP3   OH2 2882   5.756   6.303   6.421
  980TIP3    H1 2883   5.824   6.261   6.474
  980TIP3    H2 2884   5.778   6.396   6.424
  981TIP3   OH2 2885   0.785   0.283   5.119
  981TIP3    H1 2886   0.755   0.193   5.131
  981TIP3    H2 2887   0.778   0.299   5.025
  982TIP3   OH2 2888   6.251   2.515   4.435
  982TIP3    H1 2889   6.280   2.489   4.348
  982TIP3    H2 2890   6.330   2.542   4.480
  983TIP3   OH2 2891   4.629   5.241   3.584
  983TIP3    H1 2892   4.612   5.149   3.606
  983TIP3    H2 2893   4.542   5.277   3.568
  984TIP3   OH2 2894   7.351   3.787   5.355
  984TIP3    H1 2895   7.347   3.772   5.260
  984TIP3    H2 2896   7.315   3.707   5.393
  985TIP3   OH2 2897   2.219   4.225   0.382
  985TIP3    H1 2898   2.255   4.245   0.295
  985TIP3    H2 2899   2.250   4.297   0.437
  986TIP3   OH2 2900   2.931   3.031   0.307
  986TIP3    H1 2901   2.860   3.091   0.285
  986TIP3    H2 2902   2.924   3.019   0.402
  987TIP3   OH2 2903   6.972   6.326   5.946
  987TIP3    H1 2904   7.040   6.378   5.991
  987TIP3    H2 2905   6.890   6.362   5.980
  988TIP3   OH2 2906   1.016   2.102   3.304
  988TIP3    H1 2907   0.928   2.135   3.287
  988TIP3    H2 2908   1.039   2.137   3.390
  989TIP3   OH2 2909   0.816   1.222   2.855
  989TIP3    H1 2910   0.893   1.201   2.803
  989TIP3    H2 2911   0.842   1.203   2.945
  990TIP3   OH2 2912   3.161   2.841   6.635
  990TIP3    H1 2913   3.129   2.902   6.702
  990TIP3    H2 2914   3.224   2.786   6.682
  991TIP3   OH2 2915   6.163   0.360   4.307
  991TIP3    H1 2916   6.194   0.352   4.397
  991TIP3    H2 2917   6.124   0.447   4.303
  992TIP3   OH2 2918   7.519   3.710   2.700
  992TIP3    H1 2919   7.434   3.668   2.685
  992TIP3    H2 2920   7.524   3.780   2.634
  993TIP3   OH2 2921   0.129   4.461   2.933
  993TIP3    H1 2922   0.192   4.390   2.949
  993TIP3    H2 2923   0.079   4.431   2.857
  994TIP3   OH2 2924   7.697   3.560   6.100
  994TIP3    H1 2925   7.621   3.595   6.055
  994TIP3    H2 2926   7.696   3.466   6.079
  995TIP3   OH2 2927   3.756   7.208   2.736
  995TIP3    H1 2928   3.742   7.298   2.705
  995TIP3    H2 2929   3.672   7.165   2.722
  996TIP3   OH2 2930   1.531   3.214   4.482
  996TIP3    H1 2931   1.603   3.184   4.538
  996TIP3    H2 2932   1.477   3.268   4.539
  997TIP3   OH2 2933   8.261   5.226   2.509
  997TIP3    H1 2934   8.319   5.215   2.585
  997TIP3    H2 2935   8.299   5.171   2.441
  998TIP3   OH2 2936   8.286   5.336   1.827
  998TIP3    H1 2937   8.296   5.368   1.737
  998TIP3    H2 2938   8.238   5.405   1.872
  999TIP3   OH2 2939   5.637   4.443   5.771
  999TIP3    H1 2940   5.643   4.478   5.682
  999TIP3    H2 2941   5.569   4.376   5.765
 1000TIP3   OH2 2942   7.872   4.650   4.771
 1000TIP3    H1 2943   7.854   4.736   4.808
 1000TIP3    H2 2944   7.944   4.616   4.825
 1001TIP3   OH2 2945   7.630   0.972   5.034
 1001TIP3    H1 2946   7.702   0.910   5.044
 1001TIP3    H2 2947   7.624   1.017   5.118
 1002TIP3   OH2 2948   3.018   1.724   5.240
 1002TIP3    H1 2949   3.111   1.706   5.232
 1002TIP3    H2 2950   2.977   1.638   5.250
 1003TIP3   OH2 2951   7.320   5.436   5.883
 1003TIP3    H1 2952   7.408   5.404   5.900
 1003TIP3    H2 2953   7.268   5.357   5.867
 1004TIP3   OH2 2954   3.202   6.797   2.218
 1004TIP3    H1 2955   3.189   6.702   2.215
 1004TIP3    H2 2956   3.130   6.829   2.272
 1005TIP3   OH2 2957   1.527   1.927   6.149
 1005TIP3    H1 2958   1.462   1.990   6.178
 1005TIP3    H2 2959   1.532   1.862   6.219
 1006TIP3   OH2 2960   1.001   2.063   0.811
 1006TIP3    H1 2961   0.931   1.999   0.820
 1006TIP3    H2 2962   0.957   2.148   0.820
 1007TIP3   OH2 2963   6.431   7.360   2.315
 1007TIP3    H1 2964   6.466   7.324   2.396
 1007TIP3    H2 2965   6.454   7.295   2.248
 1008TIP3   OH2 2966   7.329   3.487   3.351
 1008TIP3    H1 2967   7.330   3.552   3.281
 1008TIP3    H2 2968   7.417   3.490   3.389
 1009TIP3   OH2 2969   2.392   5.846   6.695
 1009TIP3    H1 2970   2.373   5.839   6.601
 1009TIP3    H2 2971   2.453   5.919   6.702
 1010TIP3   OH2 2972   6.388   5.747   4.357
 1010TIP3    H1 2973   6.438   5.824   4.385
 1010TIP3    H2 2974   6.331   5.780   4.288
 1011TIP3   OH2 2975   6.212   0.530   4.858
 1011TIP3    H1 2976   6.285   0.513   4.799
 1011TIP3    H2 2977   6.185   0.443   4.889
 1012TIP3   OH2 2978   2.687   0.351   2.482
 1012TIP3    H1 2979   2.631   0.278   2.507
 1012TIP3    H2 2980   2.775   0.313   2.477
 1013TIP3   OH2 2981   2.998   3.299   5.854
 1013TIP3    H1 2982   2.947   3.331   5.779
 1013TIP3    H2 2983   2.941   3.315   5.930
 1014TIP3   OH2 2984   6.430   6.757   3.102
 1014TIP3    H1 2985   6.506   6.698   3.107
 1014TIP3    H2 2986   6.356   6.700   3.085
 1015TIP3   OH2 2987   3.212   0.356   6.563
 1015TIP3    H1 2988   3.174   0.271   6.584
 1015TIP3    H2 2989   3.255   0.385   6.644
 1016TIP3   OH2 2990   4.284   6.325   2.728
 1016TIP3    H1 2991   4.196   6.312   2.762
 1016TIP3    H2 2992   4.290   6.265   2.654
 1017TIP3   OH2 2993   2.410   5.500   1.758
 1017TIP3    H1 2994   2.371   5.471   1.675
 1017TIP3    H2 2995   2.484   5.554   1.732
 1018TIP3   OH2 2996   0.624   3.181   6.713
 1018TIP3    H1 2997   0.592   3.106   6.664
 1018TIP3    H2 2998   0.615   3.155   6.805
 1019TIP3   OH2 2999   5.140   2.021   1.531
 1019TIP3    H1 3000   5.176   1.933   1.541
 1019TIP3    H2 3001   5.079   2.014   1.458
 1020TIP3   OH2 3002   2.495   0.249   0.628
 1020TIP3    H1 3003   2.511   0.202   0.709
 1020TIP3    H2 3004   2.577   0.239   0.578
 1021TIP3   OH2 3005   6.684   1.495   3.313
 1021TIP3    H1 3006   6.776   1.518   3.318
 1021TIP3    H2 3007   6.642   1.546   3.382
 1022TIP3   OH2 3008   1.795   7.593   2.122
 1022TIP3    H1 3009   1.755   7.569   2.206
 1022TIP3    H2 3010   1.728   7.574   2.057
 1023TIP3   OH2 3011   0.472   7.094   5.485
 1023TIP3    H1 3012   0.394   7.039   5.495
 1023TIP3    H2 3013   0.452   7.173   5.535
 1024TIP3   OH2 3014   7.773   3.204   2.138
 1024TIP3    H1 3015   7.766   3.117   2.100
 1024TIP3    H2 3016   7.741   3.263   2.069
 1025TIP3   OH2 3017   0.685   2.719   2.395
 1025TIP3    H1 3018   0.657   2.628   2.389
 1025TIP3    H2 3019   0.742   2.732   2.319
 1026TIP3   OH2 3020   2.915   5.682   0.419
 1026TIP3    H1 3021   2.955   5.734   0.350
 1026TIP3    H2 3022   2.923   5.736   0.498
 1027TIP3   OH2 3023   3.520   1.286   3.882
 1027TIP3    H1 3024   3.527   1.380   3.900
 1027TIP3    H2 3025   3.598   1.265   3.831
 1028TIP3   OH2 3026   2.978   0.446   4.968
 1028TIP3    H1 3027   3.001   0.401   5.049
 1028TIP3    H2 3028   3.046   0.418   4.906
 1029TIP3   OH2 3029   6.139   1.143   3.468
 1029TIP3    H1 3030   6.072   1.081   3.497
 1029TIP3    H2 3031   6.211   1.088   3.437
 1030TIP3   OH2 3032   6.189   3.018   3.668
 1030TIP3    H1 3033   6.249   2.987   3.600
 1030TIP3    H2 3034   6.195   3.113   3.664
 1031TIP3   OH2 3035   1.434   6.613   1.724
 1031TIP3    H1 3036   1.344   6.581   1.723
 1031TIP3    H2 3037   1.483   6.546   1.772
 1032TIP3   OH2 3038   0.541   3.056   3.562
 1032TIP3    H1 3039   0.625   3.010   3.563
 1032TIP3    H2 3040   0.564   3.149   3.553
 1033TIP3   OH2 3041   4.588   1.926   2.928
 1033TIP3    H1 3042   4.493   1.912   2.930
 1033TIP3    H2 3043   4.606   1.973   3.010
 1034TIP3   OH2 3044   6.057   7.646   6.581
 1034TIP3    H1 3045   6.135   7.652   6.636
 1034TIP3    H2 3046   5.995   7.595   6.633
 1035TIP3   OH2 3047   4.863   2.096   1.406
 1035TIP3    H1 3048   4.844   2.088   1.313
 1035TIP3    H2 3049   4.778   2.111   1.447
 1036TIP3   OH2 3050   7.550   3.065   2.920
 1036TIP3    H1 3051   7.547   3.007   2.844
 1036TIP3    H2 3052   7.459   3.073   2.947
 1037TIP3   OH2 3053   0.253   7.726   3.430
 1037TIP3    H1 3054   0.211   7.777   3.361
 1037TIP3    H2 3055   0.281   7.646   3.386
 1038TIP3   OH2 3056   4.446   2.524   0.842
 1038TIP3    H1 3057   4.353   2.508   0.825
 1038TIP3    H2 3058   4.479   2.559   0.759
 1039TIP3   OH2 3059   1.371   5.237   6.009
 1039TIP3    H1 3060   1.390   5.167   6.072
 1039TIP3    H2 3061   1.443   5.299   6.021
 1040TIP3   OH2 3062   1.190   2.568   5.350
 1040TIP3    H1 3063   1.270   2.528   5.315
 1040TIP3    H2 3064   1.222   2.639   5.407
 1041TIP3   OH2 3065   0.140   1.488   0.511
 1041TIP3    H1 3066   0.163   1.397   0.531
 1041TIP3    H2 3067   0.187   1.540   0.576
 1042TIP3   OH2 3068   7.349   5.669   4.416
 1042TIP3    H1 3069   7.308   5.647   4.333
 1042TIP3    H2 3070   7.440   5.638   4.407
 1043TIP3   OH2 3071   4.207   2.603   2.444
 1043TIP3    H1 3072   4.131   2.658   2.423
 1043TIP3    H2 3073   4.181   2.515   2.418
 1044TIP3   OH2 3074   2.463   2.773   3.813
 1044TIP3    H1 3075   2.371   2.748   3.804
 1044TIP3    H2 3076   2.494   2.783   3.723
 1045TIP3   OH2 3077   2.780   3.396   4.357
 1045TIP3    H1 3078   2.833   3.390   4.437
 1045TIP3    H2 3079   2.829   3.348   4.291
 1046TIP3   OH2 3080   2.822   3.541   2.662
 1046TIP3    H1 3081   2.895   3.529   2.722
 1046TIP3    H2 3082   2.762   3.470   2.683
 1047TIP3   OH2 3083   4.153   1.230   1.293
 1047TIP3    H1 3084   4.181   1.299   1.352
 1047TIP3    H2 3085   4.098   1.173   1.347
 1048TIP3   OH2 3086   6.262   4.103   3.340
 1048TIP3    H1 3087   6.249   4.081   3.432
 1048TIP3    H2 3088   6.264   4.018   3.295
 1049TIP3   OH2 3089   3.528   2.044   6.441
 1049TIP3    H1 3090   3.489   1.978   6.384
 1049TIP3    H2 3091   3.529   2.003   6.528
 1050TIP3   OH2 3092   4.434   3.370   3.956
 1050TIP3    H1 3093   4.364   3.309   3.979
 1050TIP3    H2 3094   4.409   3.403   3.869
 1051TIP3   OH2 3095   1.647   5.845   6.718
 1051TIP3    H1 3096   1.617   5.920   6.666
 1051TIP3    H2 3097   1.574   5.783   6.715
 1052TIP3   OH2 3098   5.854   4.348   5.052
 1052TIP3    H1 3099   5.768   4.333   5.091
 1052TIP3    H2 3100   5.891   4.260   5.044
 1053TIP3   OH2 3101   1.083   3.844   4.198
 1053TIP3    H1 3102   1.139   3.767   4.188
 1053TIP3    H2 3103   1.027   3.822   4.272
 1054TIP3   OH2 3104   5.501   7.683   2.680
 1054TIP3    H1 3105   5.407   7.691   2.667
 1054TIP3    H2 3106   5.532   7.632   2.605
 1055TIP3   OH2 3107   7.103   1.158   4.781
 1055TIP3    H1 3108   7.157   1.210   4.841
 1055TIP3    H2 3109   7.099   1.072   4.822
 1056TIP3   OH2 3110   2.927   0.419   0.440
 1056TIP3    H1 3111   3.000   0.366   0.472
 1056TIP3    H2 3112   2.860   0.412   0.509
 1057TIP3   OH2 3113   1.600   7.185   5.904
 1057TIP3    H1 3114   1.689   7.219   5.893
 1057TIP3    H2 3115   1.586   7.130   5.828
 1058TIP3   OH2 3116   3.543   2.005   6.713
 1058TIP3    H1 3117   3.485   2.011   6.789
 1058TIP3    H2 3118   3.587   2.090   6.710
 1059TIP3   OH2 3119   5.673   4.183   2.360
 1059TIP3    H1 3120   5.708   4.156   2.445
 1059TIP3    H2 3121   5.690   4.108   2.303
 1060TIP3   OH2 3122   0.270   2.413   6.250
 1060TIP3    H1 3123   0.318   2.485   6.292
 1060TIP3    H2 3124   0.306   2.409   6.161
 1061TIP3   OH2 3125   0.878   4.234  -0.020
 1061TIP3    H1 3126   0.941   4.185   0.033
 1061TIP3    H2 3127   0.801   4.243   0.036
 1062TIP3   OH2 3128   3.436   1.840   6.309
 1062TIP3    H1 3129   3.343   1.849   6.286
 1062TIP3    H2 3130   3.466   1.766   6.256
 1063TIP3   OH2 3131   6.031   3.830   0.459
 1063TIP3    H1 3132   5.947   3.796   0.427
 1063TIP3    H2 3133   6.027   3.924   0.441
 1064TIP3   OH2 3134   6.948   3.547   0.231
 1064TIP3    H1 3135   6.903   3.625   0.198
 1064TIP3    H2 3136   6.909   3.531   0.317
 1065TIP3   OH2 3137   6.446   6.074   1.607
 1065TIP3    H1 3138   6.386   6.025   1.552
 1065TIP3    H2 3139   6.494   6.131   1.547
 1066TIP3   OH2 3140   3.623   2.447   1.448
 1066TIP3    H1 3141   3.577   2.381   1.396
 1066TIP3    H2 3142   3.573   2.451   1.530
 1067TIP3   OH2 3143   1.358   0.303   2.183
 1067TIP3    H1 3144   1.331   0.225   2.232
 1067TIP3    H2 3145   1.279   0.330   2.135
 1068TIP3   OH2 3146   7.784   6.727   4.089
 1068TIP3    H1 3147   7.773   6.720   3.994
 1068TIP3    H2 3148   7.879   6.731   4.102
 1069TIP3   OH2 3149   6.952   7.244   2.953
 1069TIP3    H1 3150   6.970   7.314   3.016
 1069TIP3    H2 3151   6.874   7.200   2.988
 1070TIP3   OH2 3152   4.905   1.607   4.689
 1070TIP3    H1 3153   4.959   1.625   4.766
 1070TIP3    H2 3154   4.830   1.559   4.723
 1071TIP3   OH2 3155   6.882   5.913   1.932
 1071TIP3    H1 3156   6.931   5.832   1.916
 1071TIP3    H2 3157   6.899   5.966   1.854
 1072TIP3   OH2 3158   8.131   1.715   3.532
 1072TIP3    H1 3159   8.124   1.808   3.555
 1072TIP3    H2 3160   8.200   1.681   3.590
 1073TIP3   OH2 3161   4.038   2.583   6.097
 1073TIP3    H1 3162   4.016   2.652   6.160
 1073TIP3    H2 3163   3.954   2.557   6.059
 1074TIP3   OH2 3164   3.377   7.370   3.167
 1074TIP3    H1 3165   3.374   7.274   3.174
 1074TIP3    H2 3166   3.287   7.395   3.150
 1075TIP3   OH2 3167   4.782   4.908   2.584
 1075TIP3    H1 3168   4.711   4.860   2.540
 1075TIP3    H2 3169   4.862   4.863   2.556
 1076TIP3   OH2 3170   0.643   6.320   0.866
 1076TIP3    H1 3171   0.712   6.320   0.933
 1076TIP3    H2 3172   0.676   6.379   0.798
 1077TIP3   OH2 3173   6.212   4.794   6.614
 1077TIP3    H1 3174   6.290   4.811   6.668
 1077TIP3    H2 3175   6.211   4.699   6.602
 1078TIP3   OH2 3176   3.460   2.072   3.577
 1078TIP3    H1 3177   3.486   2.161   3.552
 1078TIP3    H2 3178   3.462   2.023   3.496
 1079TIP3   OH2 3179   4.385   6.721   3.546
 1079TIP3    H1 3180   4.480   6.725   3.539
 1079TIP3    H2 3181   4.365   6.765   3.628
 1080TIP3   OH2 3182   0.477   0.917   5.662
 1080TIP3    H1 3183   0.414   0.961   5.606
 1080TIP3    H2 3184   0.557   0.914   5.610
 1081TIP3   OH2 3185   1.826   0.924   4.689
 1081TIP3    H1 3186   1.796   1.009   4.659
 1081TIP3    H2 3187   1.867   0.941   4.774
 1082TIP3   OH2 3188   0.679   7.850   2.421
 1082TIP3    H1 3189   0.720   7.904   2.489
 1082TIP3    H2 3190   0.735   7.772   2.416
 1083TIP3   OH2 3191   1.679   2.521   3.178
 1083TIP3    H1 3192   1.762   2.568   3.169
 1083TIP3    H2 3193   1.668   2.475   3.095
 1084TIP3   OH2 3194   5.935   1.471   2.466
 1084TIP3    H1 3195   5.961   1.397   2.521
 1084TIP3    H2 3196   5.896   1.534   2.526
 1085TIP3   OH2 3197   0.594   4.278   4.805
 1085TIP3    H1 3198   0.610   4.288   4.899
 1085TIP3    H2 3199   0.576   4.367   4.775
 1086TIP3   OH2 3200   4.004   7.609   4.394
 1086TIP3    H1 3201   3.990   7.604   4.489
 1086TIP3    H2 3202   4.080   7.554   4.378
 1087TIP3   OH2 3203   1.035   4.171   5.951
 1087TIP3    H1 3204   1.023   4.161   6.045
 1087TIP3    H2 3205   1.085   4.252   5.941
 1088TIP3   OH2 3206   1.317   7.287   0.802
 1088TIP3    H1 3207   1.288   7.378   0.798
 1088TIP3    H2 3208   1.412   7.292   0.792
 1089TIP3   OH2 3209   6.037   7.130   1.480
 1089TIP3    H1 3210   6.061   7.051   1.432
 1089TIP3    H2 3211   6.029   7.102   1.571
 1090TIP3   OH2 3212   1.653   6.983   0.199
 1090TIP3    H1 3213   1.655   6.983   0.103
 1090TIP3    H2 3214   1.622   7.071   0.222
 1091TIP3   OH2 3215   7.377   1.381   5.488
 1091TIP3    H1 3216   7.434   1.344   5.556
 1091TIP3    H2 3217   7.288   1.372   5.523
 1092TIP3   OH2 3218   0.461   3.609   4.023
 1092TIP3    H1 3219   0.403   3.645   4.089
 1092TIP3    H2 3220   0.445   3.662   3.945
 1093TIP3   OH2 3221   3.917   1.419   2.282
 1093TIP3    H1 3222   3.944   1.432   2.191
 1093TIP3    H2 3223   3.894   1.507   2.313
 1094TIP3   OH2 3224   1.363   0.077   2.746
 1094TIP3    H1 3225   1.300   0.135   2.788
 1094TIP3    H2 3226   1.396   0.022   2.817
 1095TIP3   OH2 3227   0.417   3.457   2.211
 1095TIP3    H1 3228   0.377   3.376   2.243
 1095TIP3    H2 3229   0.406   3.454   2.116
 1096TIP3   OH2 3230   1.623   1.844   4.315
 1096TIP3    H1 3231   1.571   1.764   4.320
 1096TIP3    H2 3232   1.714   1.813   4.309
 1097TIP3   OH2 3233   0.241   6.360   1.704
 1097TIP3    H1 3234   0.331   6.390   1.712
 1097TIP3    H2 3235   0.247   6.278   1.655
 1098TIP3   OH2 3236   8.186   7.752   1.055
 1098TIP3    H1 3237   8.189   7.693   1.131
 1098TIP3    H2 3238   8.140   7.703   0.988
 1099TIP3   OH2 3239   5.929   5.832   0.243
 1099TIP3    H1 3240   5.836   5.809   0.238
 1099TIP3    H2 3241   5.974   5.747   0.241
 1100TIP3   OH2 3242   0.925   5.624   6.414
 1100TIP3    H1 3243   0.961   5.666   6.493
 1100TIP3    H2 3244   0.907   5.696   6.354
 1101TIP3   OH2 3245   3.077   4.937   5.387
 1101TIP3    H1 3246   3.012   4.868   5.401
 1101TIP3    H2 3247   3.088   4.978   5.473
 1102TIP3   OH2 3248   8.129   1.008   6.009
 1102TIP3    H1 3249   8.037   0.982   6.021
 1102TIP3    H2 3250   8.169   0.993   6.094
 1103TIP3   OH2 3251   5.428   3.752   3.651
 1103TIP3    H1 3252   5.343   3.727   3.615
 1103TIP3    H2 3253   5.487   3.680   3.626
 1104TIP3   OH2 3254   6.638   4.334   3.455
 1104TIP3    H1 3255   6.543   4.335   3.467
 1104TIP3    H2 3256   6.667   4.260   3.509
 1105TIP3   OH2 3257   2.449   1.670   3.836
 1105TIP3    H1 3258   2.527   1.705   3.878
 1105TIP3    H2 3259   2.478   1.590   3.792
 1106TIP3   OH2 3260   6.004   6.624   0.846
 1106TIP3    H1 3261   6.061   6.549   0.833
 1106TIP3    H2 3262   5.917   6.593   0.823
 1107TIP3   OH2 3263   6.716   3.481   2.617
 1107TIP3    H1 3264   6.621   3.489   2.625
 1107TIP3    H2 3265   6.730   3.445   2.529
 1108TIP3   OH2 3266   3.063   4.750   1.976
 1108TIP3    H1 3267   3.099   4.738   2.064
 1108TIP3    H2 3268   3.055   4.844   1.966
 1109TIP3   OH2 3269   1.029   6.432   3.898
 1109TIP3    H1 3270   1.059   6.479   3.976
 1109TIP3    H2 3271   1.109   6.410   3.851
 1110TIP3   OH2 3272   5.162   4.643   0.046
 1110TIP3    H1 3273   5.254   4.647   0.019
 1110TIP3    H2 3274   5.124   4.724   0.012
 1111TIP3   OH2 3275   7.576   7.082   0.317
 1111TIP3    H1 3276   7.532   7.139   0.380
 1111TIP3    H2 3277   7.511   7.016   0.294
 1112TIP3   OH2 3278   5.806   0.936   0.463
 1112TIP3    H1 3279   5.873   0.997   0.495
 1112TIP3    H2 3280   5.854   0.875   0.407
 1113TIP3   OH2 3281   7.639   5.151   1.360
 1113TIP3    H1 3282   7.646   5.062   1.327
 1113TIP3    H2 3283   7.547   5.173   1.352
 1114TIP3   OH2 3284   4.422   3.695   6.752
 1114TIP3    H1 3285   4.511   3.675   6.782
 1114TIP3    H2 3286   4.432   3.709   6.658
 1115TIP3   OH2 3287   2.615   5.643   1.660
 1115TIP3    H1 3288   2.711   5.638   1.668
 1115TIP3    H2 3289   2.595   5.598   1.578
 1116TIP3   OH2 3290   8.280   4.312   4.054
 1116TIP3    H1 3291   8.323   4.387   4.012
 1116TIP3    H2 3292   8.281   4.243   3.987
 1117TIP3   OH2 3293   6.717   0.442   4.576
 1117TIP3    H1 3294   6.783   0.445   4.507
 1117TIP3    H2 3295   6.697   0.349   4.587
 1118TIP3   OH2 3296   6.359   3.061   5.138
 1118TIP3    H1 3297   6.427   3.125   5.120
 1118TIP3    H2 3298   6.396   3.005   5.205
 1119TIP3   OH2 3299   6.567   2.774   2.006
 1119TIP3    H1 3300   6.492   2.833   2.004
 1119TIP3    H2 3301   6.635   2.819   1.955
 1120TIP3   OH2 3302   6.709   7.421   6.596
 1120TIP3    H1 3303   6.760   7.365   6.654
 1120TIP3    H2 3304   6.638   7.364   6.566
 1121TIP3   OH2 3305   4.690   5.288   0.873
 1121TIP3    H1 3306   4.631   5.216   0.852
 1121TIP3    H2 3307   4.633   5.360   0.900
 1122TIP3   OH2 3308   4.892   1.369   2.424
 1122TIP3    H1 3309   4.965   1.319   2.460
 1122TIP3    H2 3310   4.821   1.355   2.486
 1123TIP3   OH2 3311   5.383   3.821   6.320
 1123TIP3    H1 3312   5.455   3.852   6.265
 1123TIP3    H2 3313   5.408   3.846   6.409
 1124TIP3   OH2 3314   2.690   6.394   3.933
 1124TIP3    H1 3315   2.608   6.375   3.887
 1124TIP3    H2 3316   2.677   6.482   3.969
 1125TIP3   OH2 3317   5.307   7.284   6.119
 1125TIP3    H1 3318   5.305   7.324   6.206
 1125TIP3    H2 3319   5.376   7.330   6.072
 1126TIP3   OH2 3320   3.810   6.550   4.395
 1126TIP3    H1 3321   3.890   6.566   4.445
 1126TIP3    H2 3322   3.746   6.521   4.460
 1127TIP3   OH2 3323   0.033   6.145   2.114
 1127TIP3    H1 3324   0.007   6.228   2.153
 1127TIP3    H2 3325  -0.049   6.106   2.083
 1128TIP3   OH2 3326   7.361   7.706   2.854
 1128TIP3    H1 3327   7.378   7.657   2.934
 1128TIP3    H2 3328   7.301   7.651   2.804
 1129TIP3   OH2 3329   7.148   6.758   4.416
 1129TIP3    H1 3330   7.062   6.726   4.388
 1129TIP3    H2 3331   7.201   6.679   4.423
 1130TIP3   OH2 3332   4.207   1.455   2.800
 1130TIP3    H1 3333   4.127   1.403   2.810
 1130TIP3    H2 3334   4.212   1.474   2.706
 1131TIP3   OH2 3335   6.893   3.393   5.296
 1131TIP3    H1 3336   6.866   3.345   5.375
 1131TIP3    H2 3337   6.883   3.485   5.321
 1132TIP3   OH2 3338   4.607   5.648   0.522
 1132TIP3    H1 3339   4.684   5.600   0.492
 1132TIP3    H2 3340   4.616   5.651   0.617
 1133TIP3   OH2 3341   8.271   1.008   0.714
 1133TIP3    H1 3342   8.278   0.914   0.728
 1133TIP3    H2 3343   8.285   1.047   0.800
 1134TIP3   OH2 3344   0.209   1.286   0.314
 1134TIP3    H1 3345   0.293   1.301   0.270
 1134TIP3    H2 3346   0.148   1.345   0.270
 1135TIP3   OH2 3347   7.990   2.328   5.667
 1135TIP3    H1 3348   7.994   2.385   5.744
 1135TIP3    H2 3349   8.012   2.241   5.701
 1136TIP3   OH2 3350   7.916   7.544   5.416
 1136TIP3    H1 3351   7.921   7.488   5.494
 1136TIP3    H2 3352   8.001   7.533   5.373
 1137TIP3   OH2 3353   2.954   0.621   1.924
 1137TIP3    H1 3354   2.890   0.671   1.975
 1137TIP3    H2 3355   3.039   0.645   1.961
 1138TIP3   OH2 3356   2.048   3.538   6.445
 1138TIP3    H1 3357   2.072   3.446   6.459
 1138TIP3    H2 3358   1.956   3.542   6.472
 1139TIP3   OH2 3359   4.180   6.473   0.792
 1139TIP3    H1 3360   4.252   6.427   0.748
 1139TIP3    H2 3361   4.162   6.549   0.736
 1140TIP3   OH2 3362   0.792   7.603   2.666
 1140TIP3    H1 3363   0.882   7.573   2.679
 1140TIP3    H2 3364   0.787   7.620   2.572
 1141TIP3   OH2 3365   5.024   4.869   5.225
 1141TIP3    H1 3366   4.929   4.864   5.226
 1141TIP3    H2 3367   5.053   4.779   5.210
 1142TIP3   OH2 3368   7.400   0.875   4.856
 1142TIP3    H1 3369   7.361   0.819   4.923
 1142TIP3    H2 3370   7.487   0.896   4.891
 1143TIP3   OH2 3371   4.221   5.203   0.447
 1143TIP3    H1 3372   4.268   5.253   0.380
 1143TIP3    H2 3373   4.142   5.171   0.403
 1144TIP3   OH2 3374   4.864   1.351   6.618
 1144TIP3    H1 3375   4.830   1.273   6.575
 1144TIP3    H2 3376   4.869   1.417   6.549
 1145TIP3   OH2 3377   3.147   6.279   1.915
 1145TIP3    H1 3378   3.214   6.338   1.881
 1145TIP3    H2 3379   3.099   6.249   1.838
 1146TIP3   OH2 3380   4.641   3.007   5.314
 1146TIP3    H1 3381   4.700   2.941   5.351
 1146TIP3    H2 3382   4.625   3.068   5.387
 1147TIP3   OH2 3383   2.462   2.564   1.677
 1147TIP3    H1 3384   2.387   2.548   1.734
 1147TIP3    H2 3385   2.537   2.568   1.737
 1148TIP3   OH2 3386   5.237   6.054   6.333
 1148TIP3    H1 3387   5.318   6.101   6.352
 1148TIP3    H2 3388   5.169   6.102   6.381
 1149TIP3   OH2 3389   3.450   3.889   5.018
 1149TIP3    H1 3390   3.393   3.813   5.006
 1149TIP3    H2 3391   3.499   3.896   4.936
 1150TIP3   OH2 3392   6.030   0.890   1.735
 1150TIP3    H1 3393   6.124   0.880   1.744
 1150TIP3    H2 3394   6.007   0.960   1.796
 1151TIP3   OH2 3395   4.856   5.497   4.353
 1151TIP3    H1 3396   4.839   5.516   4.446
 1151TIP3    H2 3397   4.787   5.543   4.306
 1152TIP3   OH2 3398   8.264   4.312   6.093
 1152TIP3    H1 3399   8.259   4.217   6.083
 1152TIP3    H2 3400   8.175   4.343   6.074
 1153TIP3   OH2 3401   4.213   5.344   3.789
 1153TIP3    H1 3402   4.261   5.335   3.872
 1153TIP3    H2 3403   4.269   5.398   3.734
 1154TIP3   OH2 3404   0.934   5.551   0.274
 1154TIP3    H1 3405   0.971   5.482   0.328
 1154TIP3    H2 3406   0.841   5.553   0.298
 1155TIP3   OH2 3407   4.734   0.012   0.910
 1155TIP3    H1 3408   4.781  -0.030   0.839
 1155TIP3    H2 3409   4.797   0.018   0.981
 1156TIP3   OH2 3410   2.003   3.694   2.396
 1156TIP3    H1 3411   1.937   3.647   2.448
 1156TIP3    H2 3412   1.954   3.734   2.325
 1157TIP3   OH2 3413   7.807   2.139   5.118
 1157TIP3    H1 3414   7.806   2.119   5.212
 1157TIP3    H2 3415   7.729   2.096   5.083
 1158TIP3   OH2 3416   8.180   3.767   0.727
 1158TIP3    H1 3417   8.110   3.744   0.667
 1158TIP3    H2 3418   8.222   3.684   0.750
 1159TIP3   OH2 3419   3.736   2.602   6.178
 1159TIP3    H1 3420   3.706   2.632   6.092
 1159TIP3    H2 3421   3.680   2.649   6.240
 1160TIP3   OH2 3422   5.557   0.448   5.229
 1160TIP3    H1 3423   5.546   0.538   5.197
 1160TIP3    H2 3424   5.623   0.455   5.297
 1161TIP3   OH2 3425   7.095   1.864   4.619
 1161TIP3    H1 3426   7.012   1.840   4.578
 1161TIP3    H2 3427   7.134   1.780   4.643
 1162TIP3   OH2 3428   5.035   5.640   0.924
 1162TIP3    H1 3429   5.053   5.547   0.938
 1162TIP3    H2 3430   5.105   5.685   0.970
 1163TIP3   OH2 3431   5.645   4.053   4.890
 1163TIP3    H1 3432   5.704   3.992   4.844
 1163TIP3    H2 3433   5.686   4.066   4.975
 1164TIP3   OH2 3434   5.902   5.235   0.445
 1164TIP3    H1 3435   5.841   5.308   0.440
 1164TIP3    H2 3436   5.955   5.253   0.522
 1165TIP3   OH2 3437   6.612   7.820   3.107
 1165TIP3    H1 3438   6.529   7.780   3.080
 1165TIP3    H2 3439   6.677   7.753   3.087
 1166TIP3   OH2 3440   5.249   3.452   5.421
 1166TIP3    H1 3441   5.318   3.389   5.400
 1166TIP3    H2 3442   5.168   3.401   5.413
 1167TIP3   OH2 3443   4.182   5.600   5.685
 1167TIP3    H1 3444   4.108   5.598   5.624
 1167TIP3    H2 3445   4.165   5.529   5.747
 1168TIP3   OH2 3446   4.618   3.861   0.403
 1168TIP3    H1 3447   4.670   3.869   0.323
 1168TIP3    H2 3448   4.528   3.880   0.375
 1169TIP3   OH2 3449   6.655   5.536   5.035
 1169TIP3    H1 3450   6.649   5.578   4.949
 1169TIP3    H2 3451   6.685   5.606   5.093
 1170TIP3   OH2 3452   7.160   2.312   0.474
 1170TIP3    H1 3453   7.126   2.225   0.454
 1170TIP3    H2 3454   7.184   2.349   0.389
 1171TIP3   OH2 3455   1.527   2.719   1.929
 1171TIP3    H1 3456   1.464   2.777   1.972
 1171TIP3    H2 3457   1.605   2.724   1.983
 1172TIP3   OH2 3458   2.120   0.568   2.764
 1172TIP3    H1 3459   2.127   0.645   2.820
 1172TIP3    H2 3460   2.030   0.537   2.777
 1173TIP3   OH2 3461   5.148   3.550   3.836
 1173TIP3    H1 3462   5.197   3.627   3.809
 1173TIP3    H2 3463   5.065   3.556   3.788
 1174TIP3   OH2 3464   0.931   0.016   0.234
 1174TIP3    H1 3465   0.932   0.052   0.323
 1174TIP3    H2 3466   0.839   0.002   0.215
 1175TIP3   OH2 3467   5.424   1.455   3.214
 1175TIP3    H1 3468   5.383   1.537   3.186
 1175TIP3    H2 3469   5.428   1.462   3.310
 1176TIP3   OH2 3470   0.451   0.546   1.713
 1176TIP3    H1 3471   0.496   0.626   1.738
 1176TIP3    H2 3472   0.360   0.559   1.740
 1177TIP3   OH2 3473   5.700   5.038   6.026
 1177TIP3    H1 3474   5.721   5.081   5.943
 1177TIP3    H2 3475   5.777   4.984   6.045
 1178TIP3   OH2 3476   2.595   7.608   2.780
 1178TIP3    H1 3477   2.587   7.700   2.756
 1178TIP3    H2 3478   2.537   7.562   2.719
 1179TIP3   OH2 3479   3.845   2.267   4.262
 1179TIP3    H1 3480   3.834   2.334   4.329
 1179TIP3    H2 3481   3.900   2.308   4.195
 1180TIP3   OH2 3482   6.574   6.013   4.623
 1180TIP3    H1 3483   6.495   5.960   4.632
 1180TIP3    H2 3484   6.622   5.998   4.704
 1181TIP3   OH2 3485   7.713   5.529   4.831
 1181TIP3    H1 3486   7.622   5.556   4.819
 1181TIP3    H2 3487   7.713   5.436   4.811
 1182TIP3   OH2 3488   3.419   2.105   2.140
 1182TIP3    H1 3489   3.486   2.167   2.168
 1182TIP3    H2 3490   3.461   2.054   2.071
 1183TIP3   OH2 3491   4.573   3.227   6.432
 1183TIP3    H1 3492   4.504   3.240   6.367
 1183TIP3    H2 3493   4.651   3.204   6.381
 1184TIP3   OH2 3494   0.428   7.660   1.030
 1184TIP3    H1 3495   0.496   7.611   1.076
 1184TIP3    H2 3496   0.473   7.700   0.956
 1185TIP3   OH2 3497   2.312   0.119   3.247
 1185TIP3    H1 3498   2.346   0.205   3.222
 1185TIP3    H2 3499   2.264   0.134   3.328
 1186TIP3   OH2 3500   2.058   7.410   2.647
 1186TIP3    H1 3501   1.993   7.350   2.686
 1186TIP3    H2 3502   2.081   7.469   2.718
 1187TIP3   OH2 3503   5.990   1.144   0.543
 1187TIP3    H1 3504   6.035   1.153   0.459
 1187TIP3    H2 3505   6.052   1.098   0.599
 1188TIP3   OH2 3506   4.526   0.172   2.196
 1188TIP3    H1 3507   4.486   0.111   2.133
 1188TIP3    H2 3508   4.612   0.134   2.215
 1189TIP3   OH2 3509   6.779   2.569   1.991
 1189TIP3    H1 3510   6.734   2.648   1.964
 1189TIP3    H2 3511   6.802   2.525   1.909
 1190TIP3   OH2 3512   4.817   6.938   4.443
 1190TIP3    H1 3513   4.838   6.890   4.363
 1190TIP3    H2 3514   4.860   6.889   4.512
 1191TIP3   OH2 3515   1.768   4.198   4.212
 1191TIP3    H1 3516   1.784   4.227   4.123
 1191TIP3    H2 3517   1.714   4.119   4.202
 1192TIP3   OH2 3518   0.500   0.450   0.059
 1192TIP3    H1 3519   0.466   0.398   0.132
 1192TIP3    H2 3520   0.493   0.541   0.088
 1193TIP3   OH2 3521   4.816   0.376   4.152
 1193TIP3    H1 3522   4.815   0.291   4.195
 1193TIP3    H2 3523   4.860   0.360   4.068
 1194TIP3   OH2 3524   3.445   5.459   5.425
 1194TIP3    H1 3525   3.389   5.411   5.363
 1194TIP3    H2 3526   3.389   5.529   5.458
 1195TIP3   OH2 3527   4.999   1.583   4.431
 1195TIP3    H1 3528   4.958   1.590   4.517
 1195TIP3    H2 3529   5.086   1.546   4.449
 1196TIP3   OH2 3530   1.484   0.278   4.018
 1196TIP3    H1 3531   1.416   0.299   3.955
 1196TIP3    H2 3532   1.481   0.182   4.025
 1197TIP3   OH2 3533   0.824   6.500   5.654
 1197TIP3    H1 3534   0.897   6.561   5.641
 1197TIP3    H2 3535   0.748   6.556   5.671
 1198TIP3   OH2 3536   8.227   4.353   2.684
 1198TIP3    H1 3537   8.156   4.313   2.634
 1198TIP3    H2 3538   8.263   4.420   2.626
 1199TIP3   OH2 3539   6.767   2.987   5.680
 1199TIP3    H1 3540   6.818   2.930   5.738
 1199TIP3    H2 3541   6.711   2.927   5.630
 1200TIP3   OH2 3542   6.259   6.965   4.449
 1200TIP3    H1 3543   6.215   6.884   4.474
 1200TIP3    H2 3544   6.257   6.964   4.353
 1201TIP3   OH2 3545   6.082   2.722   1.619
 1201TIP3    H1 3546   6.043   2.808   1.634
 1201TIP3    H2 3547   6.112   2.694   1.706
 1202TIP3   OH2 3548   0.213   5.051   0.125
 1202TIP3    H1 3549   0.165   5.098   0.193
 1202TIP3    H2 3550   0.189   4.959   0.138
 1203TIP3   OH2 3551   3.135   3.509   0.577
 1203TIP3    H1 3552   3.113   3.512   0.670
 1203TIP3    H2 3553   3.153   3.600   0.554
 1204TIP3   OH2 3554   5.117   3.054   0.742
 1204TIP3    H1 3555   5.112   3.135   0.693
 1204TIP3    H2 3556   5.028   3.041   0.776
 1205TIP3   OH2 3557   2.024   0.409   3.288
 1205TIP3    H1 3558   2.094   0.471   3.307
 1205TIP3    H2 3559   1.981   0.395   3.372
 1206TIP3   OH2 3560   0.356   4.926   3.657
 1206TIP3    H1 3561   0.284   4.865   3.673
 1206TIP3    H2 3562   0.331   5.005   3.706
 1207TIP3   OH2 3563   4.100   7.448   5.318
 1207TIP3    H1 3564   4.162   7.421   5.387
 1207TIP3    H2 3565   4.155   7.459   5.240
 1208TIP3   OH2 3566   2.360   6.004   5.195
 1208TIP3    H1 3567   2.308   5.973   5.269
 1208TIP3    H2 3568   2.427   5.937   5.183
 1209TIP3   OH2 3569   7.371   7.034   2.664
 1209TIP3    H1 3570   7.455   7.074   2.640
 1209TIP3    H2 3571   7.376   6.945   2.631
 1210TIP3   OH2 3572   1.734   2.925   0.521
 1210TIP3    H1 3573   1.708   2.969   0.440
 1210TIP3    H2 3574   1.658   2.871   0.544
 1211TIP3   OH2 3575   3.146   3.868   3.043
 1211TIP3    H1 3576   3.056   3.867   3.011
 1211TIP3    H2 3577   3.159   3.781   3.081
 1212TIP3   OH2 3578   1.138   5.597   2.963
 1212TIP3    H1 3579   1.066   5.649   2.999
 1212TIP3    H2 3580   1.191   5.660   2.914
 1213TIP3   OH2 3581   4.104   6.594   1.482
 1213TIP3    H1 3582   4.087   6.687   1.499
 1213TIP3    H2 3583   4.091   6.551   1.566
 1214TIP3   OH2 3584   7.491   4.072   5.777
 1214TIP3    H1 3585   7.579   4.050   5.809
 1214TIP3    H2 3586   7.450   4.119   5.850
 1215TIP3   OH2 3587   1.616   3.550   3.475
 1215TIP3    H1 3588   1.606   3.594   3.390
 1215TIP3    H2 3589   1.633   3.459   3.453
 1216TIP3   OH2 3590   2.530   2.882   1.350
 1216TIP3    H1 3591   2.451   2.931   1.326
 1216TIP3    H2 3592   2.563   2.847   1.267
 1217TIP3   OH2 3593   6.182   0.035   4.102
 1217TIP3    H1 3594   6.175   0.105   4.036
 1217TIP3    H2 3595   6.151   0.076   4.182
 1218TIP3   OH2 3596   4.413   2.075   4.381
 1218TIP3    H1 3597   4.440   1.985   4.400
 1218TIP3    H2 3598   4.347   2.066   4.313
 1219TIP3   OH2 3599   3.817   1.924   5.910
 1219TIP3    H1 3600   3.892   1.899   5.856
 1219TIP3    H2 3601   3.806   1.851   5.971
 1220TIP3   OH2 3602   6.927   0.581   6.176
 1220TIP3    H1 3603   6.875   0.652   6.214
 1220TIP3    H2 3604   6.967   0.538   6.252
 1221TIP3   OH2 3605   1.267   4.283   6.628
 1221TIP3    H1 3606   1.307   4.354   6.677
 1221TIP3    H2 3607   1.339   4.222   6.612
 1222TIP3   OH2 3608   8.221   2.238   5.379
 1222TIP3    H1 3609   8.131   2.208   5.365
 1222TIP3    H2 3610   8.271   2.157   5.391
 1223TIP3   OH2 3611   5.816   5.338   1.122
 1223TIP3    H1 3612   5.800   5.250   1.154
 1223TIP3    H2 3613   5.754   5.350   1.051
 1224TIP3   OH2 3614   1.541   1.276   0.721
 1224TIP3    H1 3615   1.607   1.337   0.753
 1224TIP3    H2 3616   1.590   1.209   0.673
 1225TIP3   OH2 3617   8.057   7.015   3.880
 1225TIP3    H1 3618   7.983   7.016   3.941
 1225TIP3    H2 3619   8.072   6.922   3.862
 1226TIP3   OH2 3620   3.588   5.735   5.766
 1226TIP3    H1 3621   3.549   5.739   5.679
 1226TIP3    H2 3622   3.638   5.653   5.766
 1227TIP3   OH2 3623   6.542   6.574   2.188
 1227TIP3    H1 3624   6.552   6.498   2.245
 1227TIP3    H2 3625   6.448   6.590   2.185
 1228TIP3   OH2 3626   2.526   6.390   5.841
 1228TIP3    H1 3627   2.523   6.314   5.783
 1228TIP3    H2 3628   2.517   6.465   5.783
 1229TIP3   OH2 3629   6.427   1.071   1.031
 1229TIP3    H1 3630   6.466   1.052   1.116
 1229TIP3    H2 3631   6.334   1.050   1.043
 1230TIP3   OH2 3632   0.290   1.917   4.026
 1230TIP3    H1 3633   0.234   1.981   3.984
 1230TIP3    H2 3634   0.333   1.966   4.096
 1231TIP3   OH2 3635   4.502   5.314   1.231
 1231TIP3    H1 3636   4.456   5.250   1.178
 1231TIP3    H2 3637   4.557   5.262   1.290
 1232TIP3   OH2 3638   3.529   1.449   0.362
 1232TIP3    H1 3639   3.585   1.382   0.401
 1232TIP3    H2 3640   3.507   1.507   0.435
 1233TIP3   OH2 3641   0.371   3.000   5.947
 1233TIP3    H1 3642   0.440   2.948   5.989
 1233TIP3    H2 3643   0.371   2.971   5.856
 1234TIP3   OH2 3644   6.679   6.710   0.168
 1234TIP3    H1 3645   6.756   6.764   0.186
 1234TIP3    H2 3646   6.605   6.767   0.185
 1235TIP3   OH2 3647   5.447   2.068   3.266
 1235TIP3    H1 3648   5.420   2.003   3.330
 1235TIP3    H2 3649   5.383   2.139   3.274
 1236TIP3   OH2 3650   3.630   0.546   0.995
 1236TIP3    H1 3651   3.549   0.594   1.010
 1236TIP3    H2 3652   3.671   0.589   0.921
 1237TIP3   OH2 3653   3.411   3.959   2.982
 1237TIP3    H1 3654   3.441   3.877   3.021
 1237TIP3    H2 3655   3.320   3.966   3.011
 1238TIP3   OH2 3656   4.388   4.896   4.648
 1238TIP3    H1 3657   4.307   4.945   4.633
 1238TIP3    H2 3658   4.371   4.809   4.610
 1239TIP3   OH2 3659   1.333   2.238   2.390
 1239TIP3    H1 3660   1.245   2.273   2.402
 1239TIP3    H2 3661   1.383   2.312   2.354
 1240TIP3   OH2 3662   5.576   4.044   1.076
 1240TIP3    H1 3663   5.491   4.003   1.056
 1240TIP3    H2 3664   5.621   4.047   0.992
 1241TIP3   OH2 3665   2.269   1.098   2.890
 1241TIP3    H1 3666   2.281   1.170   2.951
 1241TIP3    H2 3667   2.190   1.119   2.841
 1242TIP3   OH2 3668   0.364   5.580   4.874
 1242TIP3    H1 3669   0.365   5.503   4.931
 1242TIP3    H2 3670   0.372   5.545   4.786
 1243TIP3   OH2 3671   2.620   2.251   3.628
 1243TIP3    H1 3672   2.602   2.186   3.695
 1243TIP3    H2 3673   2.547   2.313   3.635
 1244TIP3   OH2 3674   0.381   6.081   6.340
 1244TIP3    H1 3675   0.456   6.099   6.283
 1244TIP3    H2 3676   0.334   6.010   6.296
 1245TIP3   OH2 3677   5.983   4.582   1.639
 1245TIP3    H1 3678   5.932   4.647   1.686
 1245TIP3    H2 3679   5.930   4.502   1.645
 1246TIP3   OH2 3680   5.574   1.685   0.297
 1246TIP3    H1 3681   5.595   1.630   0.222
 1246TIP3    H2 3682   5.480   1.702   0.290
 1247TIP3   OH2 3683   6.238   5.894   4.143
 1247TIP3    H1 3684   6.202   5.827   4.085
 1247TIP3    H2 3685   6.162   5.948   4.167
 1248TIP3   OH2 3686   3.673   2.058   1.731
 1248TIP3    H1 3687   3.698   1.966   1.735
 1248TIP3    H2 3688   3.589   2.058   1.685
 1249TIP3   OH2 3689   7.080   1.268   4.241
 1249TIP3    H1 3690   7.082   1.254   4.336
 1249TIP3    H2 3691   6.987   1.278   4.220
 1250TIP3   OH2 3692   4.378   7.619   6.063
 1250TIP3    H1 3693   4.425   7.585   6.140
 1250TIP3    H2 3694   4.285   7.609   6.087
 1251TIP3   OH2 3695   6.299   5.979   5.793
 1251TIP3    H1 3696   6.283   5.976   5.699
 1251TIP3    H2 3697   6.330   6.068   5.810
 1252TIP3   OH2 3698   7.682   6.766   3.127
 1252TIP3    H1 3699   7.637   6.787   3.045
 1252TIP3    H2 3700   7.665   6.673   3.142
 1253TIP3   OH2 3701   0.379   2.663   6.278
 1253TIP3    H1 3702   0.328   2.696   6.203
 1253TIP3    H2 3703   0.358   2.723   6.350
 1254TIP3   OH2 3704   5.156   6.050   4.947
 1254TIP3    H1 3705   5.160   6.131   4.897
 1254TIP3    H2 3706   5.078   6.059   5.002
 1255TIP3   OH2 3707   1.487   4.282   2.304
 1255TIP3    H1 3708   1.421   4.343   2.337
 1255TIP3    H2 3709   1.453   4.195   2.327
 1256TIP3   OH2 3710   6.165   6.853   6.529
 1256TIP3    H1 3711   6.205   6.801   6.459
 1256TIP3    H2 3712   6.090   6.895   6.487
 1257TIP3   OH2 3713   4.285   7.035   3.393
 1257TIP3    H1 3714   4.227   7.019   3.468
 1257TIP3    H2 3715   4.283   6.953   3.344
 1258TIP3   OH2 3716   1.149   4.007   0.709
 1258TIP3    H1 3717   1.149   3.970   0.621
 1258TIP3    H2 3718   1.238   4.039   0.722
 1259TIP3   OH2 3719   3.260   0.660   4.769
 1259TIP3    H1 3720   3.253   0.755   4.760
 1259TIP3    H2 3721   3.350   0.645   4.799
 1260TIP3   OH2 3722   1.396   5.335   4.211
 1260TIP3    H1 3723   1.376   5.346   4.304
 1260TIP3    H2 3724   1.492   5.340   4.207
 1261TIP3   OH2 3725   1.588   5.455   6.706
 1261TIP3    H1 3726   1.676   5.458   6.668
 1261TIP3    H2 3727   1.543   5.531   6.668
 1262TIP3   OH2 3728   7.855   6.154   0.629
 1262TIP3    H1 3729   7.936   6.105   0.612
 1262TIP3    H2 3730   7.806   6.098   0.690
 1263TIP3   OH2 3731   1.992   0.650   4.750
 1263TIP3    H1 3732   2.073   0.601   4.742
 1263TIP3    H2 3733   2.010   0.714   4.819
 1264TIP3   OH2 3734   7.178   4.781   1.387
 1264TIP3    H1 3735   7.269   4.772   1.416
 1264TIP3    H2 3736   7.126   4.756   1.464
 1265TIP3   OH2 3737   4.735   3.095   6.255
 1265TIP3    H1 3738   4.746   3.002   6.272
 1265TIP3    H2 3739   4.747   3.103   6.160
 1266TIP3   OH2 3740   7.994   2.865   2.678
 1266TIP3    H1 3741   8.042   2.873   2.596
 1266TIP3    H2 3742   8.051   2.812   2.733
 1267TIP3   OH2 3743   6.646   4.615   4.545
 1267TIP3    H1 3744   6.633   4.645   4.455
 1267TIP3    H2 3745   6.559   4.619   4.584
 1268TIP3   OH2 3746   0.548   4.331   5.477
 1268TIP3    H1 3747   0.513   4.332   5.565
 1268TIP3    H2 3748   0.592   4.416   5.468
 1269TIP3   OH2 3749   1.529   5.307   1.800
 1269TIP3    H1 3750   1.549   5.281   1.710
 1269TIP3    H2 3751   1.595   5.263   1.854
 1270TIP3   OH2 3752   3.859   1.960   2.720
 1270TIP3    H1 3753   3.782   1.904   2.713
 1270TIP3    H2 3754   3.831   2.034   2.774
 1271TIP3   OH2 3755   7.946   2.618   0.236
 1271TIP3    H1 3756   7.877   2.579   0.290
 1271TIP3    H2 3757   7.932   2.581   0.149
 1272TIP3   OH2 3758   5.166   0.963   4.902
 1272TIP3    H1 3759   5.077   0.956   4.937
 1272TIP3    H2 3760   5.223   0.946   4.977
 1273TIP3   OH2 3761   3.652   1.779   2.655
 1273TIP3    H1 3762   3.621   1.778   2.565
 1273TIP3    H2 3763   3.685   1.691   2.670
 1274TIP3   OH2 3764   6.843   6.534   0.715
 1274TIP3    H1 3765   6.864   6.610   0.660
 1274TIP3    H2 3766   6.911   6.534   0.782
 1275TIP3   OH2 3767   8.107   4.409   1.915
 1275TIP3    H1 3768   8.033   4.396   1.856
 1275TIP3    H2 3769   8.166   4.335   1.897
 1276TIP3   OH2 3770   2.105   1.941   5.243
 1276TIP3    H1 3771   2.073   2.030   5.233
 1276TIP3    H2 3772   2.171   1.932   5.174
 1277TIP3   OH2 3773   2.860   7.561   0.049
 1277TIP3    H1 3774   2.851   7.466   0.058
 1277TIP3    H2 3775   2.830   7.595   0.133
 1278TIP3   OH2 3776   3.637   5.628   1.325
 1278TIP3    H1 3777   3.725   5.647   1.294
 1278TIP3    H2 3778   3.647   5.550   1.380
 1279TIP3   OH2 3779   1.839   3.922   4.050
 1279TIP3    H1 3780   1.911   3.951   4.105
 1279TIP3    H2 3781   1.871   3.933   3.961
 1280TIP3   OH2 3782   7.852   6.072   3.086
 1280TIP3    H1 3783   7.928   6.015   3.071
 1280TIP3    H2 3784   7.816   6.042   3.169
 1281TIP3   OH2 3785   3.076   1.490   1.714
 1281TIP3    H1 3786   3.147   1.453   1.661
 1281TIP3    H2 3787   3.020   1.535   1.651
 1282TIP3   OH2 3788   4.475   4.334   1.380
 1282TIP3    H1 3789   4.430   4.416   1.360
 1282TIP3    H2 3790   4.508   4.303   1.296
 1283TIP3   OH2 3791   5.748   2.061   1.703
 1283TIP3    H1 3792   5.835   2.024   1.716
 1283TIP3    H2 3793   5.764   2.152   1.676
 1284TIP3   OH2 3794   0.724   2.702   2.061
 1284TIP3    H1 3795   0.797   2.674   2.117
 1284TIP3    H2 3796   0.666   2.626   2.058
 1285TIP3   OH2 3797   6.343   6.565   0.722
 1285TIP3    H1 3798   6.426   6.533   0.685
 1285TIP3    H2 3799   6.276   6.527   0.666
 1286TIP3   OH2 3800   3.223   0.820   2.165
 1286TIP3    H1 3801   3.292   0.883   2.184
 1286TIP3    H2 3802   3.173   0.813   2.247
 1287TIP3   OH2 3803   5.177   5.109   3.512
 1287TIP3    H1 3804   5.110   5.167   3.550
 1287TIP3    H2 3805   5.179   5.132   3.419
 1288TIP3   OH2 3806   2.751   4.367   0.816
 1288TIP3    H1 3807   2.733   4.301   0.883
 1288TIP3    H2 3808   2.838   4.401   0.838
 1289TIP3   OH2 3809   3.134   4.100   3.196
 1289TIP3    H1 3810   3.131   4.073   3.288
 1289TIP3    H2 3811   3.151   4.019   3.149
 1290TIP3   OH2 3812   1.706   0.141   5.277
 1290TIP3    H1 3813   1.736   0.062   5.321
 1290TIP3    H2 3814   1.694   0.205   5.347
 1291TIP3   OH2 3815   6.941   0.868   2.174
 1291TIP3    H1 3816   7.011   0.817   2.214
 1291TIP3    H2 3817   6.869   0.863   2.236
 1292TIP3   OH2 3818   3.106   0.659   6.537
 1292TIP3    H1 3819   3.170   0.600   6.577
 1292TIP3    H2 3820   3.054   0.603   6.479
 1293TIP3   OH2 3821   4.543   2.721   5.757
 1293TIP3    H1 3822   4.524   2.654   5.692
 1293TIP3    H2 3823   4.471   2.784   5.749
 1294TIP3   OH2 3824   3.370   1.601   1.179
 1294TIP3    H1 3825   3.424   1.525   1.201
 1294TIP3    H2 3826   3.280   1.571   1.192
 1295TIP3   OH2 3827   3.999   4.676   3.814
 1295TIP3    H1 3828   3.918   4.627   3.811
 1295TIP3    H2 3829   4.038   4.665   3.727
 1296TIP3   OH2 3830   0.583   4.920   5.253
 1296TIP3    H1 3831   0.541   4.971   5.321
 1296TIP3    H2 3832   0.677   4.937   5.265
 1297TIP3   OH2 3833   6.800   6.114   2.104
 1297TIP3    H1 3834   6.815   6.048   2.036
 1297TIP3    H2 3835   6.711   6.097   2.134
 1298TIP3   OH2 3836   6.008   4.965   3.945
 1298TIP3    H1 3837   5.943   4.905   3.983
 1298TIP3    H2 3838   6.084   4.909   3.927
 1299TIP3   OH2 3839   1.947   5.267   6.012
 1299TIP3    H1 3840   1.967   5.292   6.102
 1299TIP3    H2 3841   1.915   5.177   6.018
 1300TIP3   OH2 3842   0.781   6.642   0.194
 1300TIP3    H1 3843   0.745   6.675   0.277
 1300TIP3    H2 3844   0.866   6.606   0.218
 1301TIP3   OH2 3845   7.612   1.835   6.034
 1301TIP3    H1 3846   7.637   1.745   6.053
 1301TIP3    H2 3847   7.653   1.886   6.104
 1302TIP3   OH2 3848   0.491   6.813   5.372
 1302TIP3    H1 3849   0.427   6.843   5.436
 1302TIP3    H2 3850   0.556   6.882   5.368
 1303TIP3   OH2 3851   6.433   5.197   4.140
 1303TIP3    H1 3852   6.426   5.102   4.127
 1303TIP3    H2 3853   6.487   5.227   4.067
 1304TIP3   OH2 3854   2.595   0.333   3.041
 1304TIP3    H1 3855   2.520   0.341   3.099
 1304TIP3    H2 3856   2.562   0.356   2.955
 1305TIP3   OH2 3857   3.888   5.711   4.266
 1305TIP3    H1 3858   3.807   5.737   4.223
 1305TIP3    H2 3859   3.870   5.623   4.300
 1306TIP3   OH2 3860   6.357   5.794   5.992
 1306TIP3    H1 3861   6.321   5.858   5.931
 1306TIP3    H2 3862   6.423   5.844   6.041
 1307TIP3   OH2 3863   2.715   3.471   3.270
 1307TIP3    H1 3864   2.633   3.508   3.301
 1307TIP3    H2 3865   2.732   3.515   3.187
 1308TIP3   OH2 3866   7.779   1.460   1.727
 1308TIP3    H1 3867   7.772   1.430   1.637
 1308TIP3    H2 3868   7.843   1.531   1.724
 1309TIP3   OH2 3869   1.714   2.247   3.668
 1309TIP3    H1 3870   1.693   2.288   3.584
 1309TIP3    H2 3871   1.654   2.287   3.730
 1310TIP3   OH2 3872   3.828   5.517   2.456
 1310TIP3    H1 3873   3.860   5.608   2.460
 1310TIP3    H2 3874   3.796   5.499   2.544
 1311TIP3   OH2 3875   7.307   1.533   2.072
 1311TIP3    H1 3876   7.299   1.488   1.987
 1311TIP3    H2 3877   7.370   1.481   2.121
 1312TIP3   OH2 3878   4.139   4.583   1.401
 1312TIP3    H1 3879   4.217   4.600   1.349
 1312TIP3    H2 3880   4.126   4.663   1.451
 1313TIP3   OH2 3881   8.115   1.662   2.766
 1313TIP3    H1 3882   8.041   1.713   2.732
 1313TIP3    H2 3883   8.126   1.693   2.856
 1314TIP3   OH2 3884   0.631   5.302   0.801
 1314TIP3    H1 3885   0.628   5.351   0.883
 1314TIP3    H2 3886   0.552   5.330   0.754
 1315TIP3   OH2 3887   4.765   0.974   0.786
 1315TIP3    H1 3888   4.838   1.002   0.731
 1315TIP3    H2 3889   4.796   0.988   0.875
 1316TIP3   OH2 3890   1.536   5.729   1.170
 1316TIP3    H1 3891   1.465   5.737   1.107
 1316TIP3    H2 3892   1.612   5.702   1.118
 1317TIP3   OH2 3893   8.148   6.764   3.870
 1317TIP3    H1 3894   8.242   6.773   3.855
 1317TIP3    H2 3895   8.140   6.696   3.937
 1318TIP3   OH2 3896   0.566   1.980   5.161
 1318TIP3    H1 3897   0.557   2.074   5.178
 1318TIP3    H2 3898   0.659   1.968   5.141
 1319TIP3   OH2 3899   6.054   0.153   6.187
 1319TIP3    H1 3900   6.006   0.129   6.108
 1319TIP3    H2 3901   6.022   0.091   6.254
 1320TIP3   OH2 3902   2.451   3.415   0.399
 1320TIP3    H1 3903   2.500   3.497   0.391
 1320TIP3    H2 3904   2.393   3.415   0.323
 1321TIP3   OH2 3905   3.879   7.057   2.511
 1321TIP3    H1 3906   3.841   7.078   2.596
 1321TIP3    H2 3907   3.948   6.993   2.530
 1322TIP3   OH2 3908   7.569   3.697   5.000
 1322TIP3    H1 3909   7.553   3.621   5.055
 1322TIP3    H2 3910   7.653   3.731   5.030
 1323TIP3   OH2 3911   2.048   5.387   3.645
 1323TIP3    H1 3912   2.091   5.321   3.590
 1323TIP3    H2 3913   1.961   5.351   3.663
 1324TIP3   OH2 3914   2.289   7.124   1.577
 1324TIP3    H1 3915   2.317   7.163   1.660
 1324TIP3    H2 3916   2.243   7.044   1.604
 1325TIP3   OH2 3917   7.021   7.788   0.842
 1325TIP3    H1 3918   7.047   7.789   0.749
 1325TIP3    H2 3919   7.015   7.695   0.863
 1326TIP3   OH2 3920   6.931   1.580   3.335
 1326TIP3    H1 3921   6.948   1.648   3.400
 1326TIP3    H2 3922   7.005   1.585   3.275
 1327TIP3   OH2 3923   2.004   5.933   4.608
 1327TIP3    H1 3924   2.067   5.969   4.671
 1327TIP3    H2 3925   2.016   5.986   4.529
 1328TIP3   OH2 3926   5.059   0.528   4.849
 1328TIP3    H1 3927   5.122   0.476   4.799
 1328TIP3    H2 3928   4.977   0.479   4.843
 1329TIP3   OH2 3929   4.035   5.094   1.379
 1329TIP3    H1 3930   3.956   5.040   1.388
 1329TIP3    H2 3931   4.053   5.124   1.468
 1330TIP3   OH2 3932   5.126   4.827   6.029
 1330TIP3    H1 3933   5.221   4.834   6.019
 1330TIP3    H2 3934   5.101   4.755   5.971
 1331TIP3   OH2 3935   1.338   4.070   2.633
 1331TIP3    H1 3936   1.271   4.107   2.576
 1331TIP3    H2 3937   1.293   4.049   2.714
 1332TIP3   OH2 3938   1.725   5.320   0.698
 1332TIP3    H1 3939   1.754   5.278   0.779
 1332TIP3    H2 3940   1.638   5.284   0.682
 1333TIP3   OH2 3941   0.803   0.158   1.553
 1333TIP3    H1 3942   0.766   0.095   1.615
 1333TIP3    H2 3943   0.765   0.242   1.579
 1334TIP3   OH2 3944   2.270   1.476   3.476
 1334TIP3    H1 3945   2.234   1.415   3.541
 1334TIP3    H2 3946   2.232   1.560   3.500
 1335TIP3   OH2 3947   5.727   3.478   6.558
 1335TIP3    H1 3948   5.669   3.424   6.611
 1335TIP3    H2 3949   5.774   3.416   6.502
 1336TIP3   OH2 3950   4.281   2.700   4.245
 1336TIP3    H1 3951   4.249   2.639   4.179
 1336TIP3    H2 3952   4.252   2.786   4.214
 1337TIP3   OH2 3953   3.206   7.722   5.829
 1337TIP3    H1 3954   3.290   7.758   5.858
 1337TIP3    H2 3955   3.228   7.664   5.757
 1338TIP3   OH2 3956   4.425   4.962   4.271
 1338TIP3    H1 3957   4.463   5.046   4.244
 1338TIP3    H2 3958   4.359   4.984   4.336
 1339TIP3   OH2 3959   4.265   2.064   5.676
 1339TIP3    H1 3960   4.265   2.066   5.772
 1339TIP3    H2 3961   4.278   2.155   5.649
 1340TIP3   OH2 3962   1.826   5.051   2.477
 1340TIP3    H1 3963   1.814   4.978   2.417
 1340TIP3    H2 3964   1.772   5.121   2.440
 1341TIP3   OH2 3965   7.336   6.892   0.271
 1341TIP3    H1 3966   7.340   6.828   0.342
 1341TIP3    H2 3967   7.248   6.880   0.234
 1342TIP3   OH2 3968   5.105   7.699   4.784
 1342TIP3    H1 3969   5.070   7.663   4.865
 1342TIP3    H2 3970   5.162   7.771   4.813
 1343TIP3   OH2 3971   1.675   6.537   4.861
 1343TIP3    H1 3972   1.752   6.509   4.909
 1343TIP3    H2 3973   1.633   6.601   4.918
 1344TIP3   OH2 3974   0.706   5.917   1.460
 1344TIP3    H1 3975   0.761   5.854   1.414
 1344TIP3    H2 3976   0.706   5.995   1.404
 1345TIP3   OH2 3977   7.835   6.569   6.581
 1345TIP3    H1 3978   7.816   6.663   6.575
 1345TIP3    H2 3979   7.851   6.553   6.674
 1346TIP3   OH2 3980   1.069   5.652   1.117
 1346TIP3    H1 3981   1.096   5.742   1.137
 1346TIP3    H2 3982   1.150   5.601   1.123
 1347TIP3   OH2 3983   7.578   6.469   4.019
 1347TIP3    H1 3984   7.483   6.472   4.030
 1347TIP3    H2 3985   7.613   6.524   4.090
 1348TIP3   OH2 3986   4.913   3.917   1.896
 1348TIP3    H1 3987   4.861   3.893   1.972
 1348TIP3    H2 3988   4.942   4.006   1.913
 1349TIP3   OH2 3989   1.820   3.666   1.608
 1349TIP3    H1 3990   1.782   3.747   1.641
 1349TIP3    H2 3991   1.902   3.693   1.566
 1350TIP3   OH2 3992   3.933   1.340   5.224
 1350TIP3    H1 3993   3.895   1.414   5.176
 1350TIP3    H2 3994   3.878   1.331   5.301
 1351TIP3   OH2 3995   4.165   3.275   3.429
 1351TIP3    H1 3996   4.239   3.269   3.368
 1351TIP3    H2 3997   4.090   3.243   3.379
 1352TIP3   OH2 3998   5.876   4.056   2.984
 1352TIP3    H1 3999   5.841   4.146   2.979
 1352TIP3    H2 4000   5.799   4.000   2.977
 1353TIP3   OH2 4001   8.027   2.982   0.977
 1353TIP3    H1 4002   8.005   2.920   1.047
 1353TIP3    H2 4003   8.103   2.944   0.933
 1354TIP3   OH2 4004   4.619   5.335   0.061
 1354TIP3    H1 4005   4.711   5.331   0.086
 1354TIP3    H2 4006   4.596   5.428   0.069
 1355TIP3   OH2 4007   7.386   6.375   5.639
 1355TIP3    H1 4008   7.437   6.381   5.720
 1355TIP3    H2 4009   7.307   6.328   5.664
 1356TIP3   OH2 4010   3.458   3.935   6.555
 1356TIP3    H1 4011   3.414   3.933   6.470
 1356TIP3    H2 4012   3.517   4.010   6.550
 1357TIP3   OH2 4013   0.678   3.071   5.801
 1357TIP3    H1 4014   0.745   3.003   5.795
 1357TIP3    H2 4015   0.595   3.026   5.787
 1358TIP3   OH2 4016   8.040   0.684   3.896
 1358TIP3    H1 4017   8.072   0.760   3.944
 1358TIP3    H2 4018   8.115   0.624   3.893
 1359TIP3   OH2 4019   6.913   5.426   5.214
 1359TIP3    H1 4020   6.851   5.373   5.163
 1359TIP3    H2 4021   6.975   5.363   5.249
 1360TIP3   OH2 4022   6.411   2.656   1.150
 1360TIP3    H1 4023   6.407   2.741   1.108
 1360TIP3    H2 4024   6.320   2.633   1.167
 1361TIP3   OH2 4025   2.998   2.296   2.074
 1361TIP3    H1 4026   3.079   2.330   2.111
 1361TIP3    H2 4027   2.972   2.361   2.008
 1362TIP3   OH2 4028   4.779   0.590   0.111
 1362TIP3    H1 4029   4.691   0.577   0.075
 1362TIP3    H2 4030   4.833   0.524   0.067
 1363TIP3   OH2 4031   4.601   5.292   6.094
 1363TIP3    H1 4032   4.672   5.348   6.062
 1363TIP3    H2 4033   4.587   5.229   6.024
 1364TIP3   OH2 4034   5.469   5.874   3.617
 1364TIP3    H1 4035   5.462   5.933   3.542
 1364TIP3    H2 4036   5.486   5.788   3.578
 1365TIP3   OH2 4037   6.073   2.911   1.816
 1365TIP3    H1 4038   6.115   2.862   1.886
 1365TIP3    H2 4039   6.121   2.994   1.812
 1366TIP3   OH2 4040   0.986   3.057   2.445
 1366TIP3    H1 4041   0.902   3.067   2.401
 1366TIP3    H2 4042   0.968   3.002   2.521
 1367TIP3   OH2 4043   1.823   2.158   0.125
 1367TIP3    H1 4044   1.849   2.091   0.062
 1367TIP3    H2 4045   1.787   2.108   0.199
 1368TIP3   OH2 4046   6.951   7.149   0.670
 1368TIP3    H1 4047   6.939   7.138   0.576
 1368TIP3    H2 4048   6.956   7.244   0.683
 1369TIP3   OH2 4049   0.572   2.493   3.828
 1369TIP3    H1 4050   0.489   2.519   3.868
 1369TIP3    H2 4051   0.617   2.444   3.897
 1370TIP3   OH2 4052   4.967   1.686   2.937
 1370TIP3    H1 4053   4.933   1.622   3.001
 1370TIP3    H2 4054   4.905   1.682   2.864
 1371TIP3   OH2 4055   1.282   4.684   3.668
 1371TIP3    H1 4056   1.288   4.645   3.755
 1371TIP3    H2 4057   1.214   4.634   3.623
 1372TIP3   OH2 4058   8.230   4.900   3.883
 1372TIP3    H1 4059   8.183   4.817   3.890
 1372TIP3    H2 4060   8.223   4.925   3.791
 1373TIP3   OH2 4061   3.763   0.566   1.546
 1373TIP3    H1 4062   3.789   0.510   1.473
 1373TIP3    H2 4063   3.827   0.547   1.615
 1374TIP3   OH2 4064   5.005   7.631   1.560
 1374TIP3    H1 4065   4.978   7.629   1.652
 1374TIP3    H2 4066   4.999   7.540   1.531
 1375TIP3   OH2 4067   2.202   5.666   0.983
 1375TIP3    H1 4068   2.226   5.584   0.939
 1375TIP3    H2 4069   2.213   5.647   1.076
 1376TIP3   OH2 4070   3.490   3.612   5.257
 1376TIP3    H1 4071   3.564   3.650   5.306
 1376TIP3    H2 4072   3.531   3.562   5.187
 1377TIP3   OH2 4073   6.415   2.885   0.984
 1377TIP3    H1 4074   6.477   2.951   1.015
 1377TIP3    H2 4075   6.386   2.917   0.899
 1378TIP3   OH2 4076   5.877   1.616   5.465
 1378TIP3    H1 4077   5.943   1.686   5.462
 1378TIP3    H2 4078   5.880   1.577   5.378
 1379TIP3   OH2 4079   0.334   1.603   0.736
 1379TIP3    H1 4080   0.355   1.696   0.737
 1379TIP3    H2 4081   0.315   1.582   0.828
 1380TIP3   OH2 4082   0.159   5.691   3.611
 1380TIP3    H1 4083   0.235   5.657   3.660
 1380TIP3    H2 4084   0.084   5.670   3.666
 1381TIP3   OH2 4085   1.825   7.337   5.853
 1381TIP3    H1 4086   1.877   7.414   5.829
 1381TIP3    H2 4087   1.874   7.296   5.924
 1382TIP3   OH2 4088   3.217   4.049   3.913
 1382TIP3    H1 4089   3.202   4.092   3.998
 1382TIP3    H2 4090   3.265   3.969   3.935
 1383TIP3   OH2 4091   5.951   3.894   3.980
 1383TIP3    H1 4092   5.947   3.840   4.059
 1383TIP3    H2 4093   5.943   3.832   3.908
 1384TIP3   OH2 4094   6.095   0.813   0.131
 1384TIP3    H1 4095   6.098   0.737   0.073
 1384TIP3    H2 4096   6.036   0.787   0.201
 1385TIP3   OH2 4097   6.984   1.385   4.905
 1385TIP3    H1 4098   7.045   1.327   4.859
 1385TIP3    H2 4099   6.959   1.335   4.983
 1386TIP3   OH2 4100   3.086   2.218   0.305
 1386TIP3    H1 4101   3.004   2.227   0.353
 1386TIP3    H2 4102   3.139   2.294   0.332
 1387TIP3   OH2 4103   1.856   0.844   0.173
 1387TIP3    H1 4104   1.794   0.883   0.234
 1387TIP3    H2 4105   1.917   0.795   0.229
 1388TIP3   OH2 4106   2.535   2.263   1.924
 1388TIP3    H1 4107   2.615   2.276   1.873
 1388TIP3    H2 4108   2.545   2.321   1.999
 1389TIP3   OH2 4109   6.288   2.440   4.951
 1389TIP3    H1 4110   6.346   2.429   5.026
 1389TIP3    H2 4111   6.337   2.407   4.876
 1390TIP3   OH2 4112   5.094   2.285   1.455
 1390TIP3    H1 4113   5.152   2.210   1.464
 1390TIP3    H2 4114   5.016   2.249   1.411
 1391TIP3   OH2 4115   5.076   2.354   0.034
 1391TIP3    H1 4116   5.061   2.445   0.061
 1391TIP3    H2 4117   5.068   2.304   0.115
 1392TIP3   OH2 4118   1.511   7.612   1.980
 1392TIP3    H1 4119   1.493   7.527   2.020
 1392TIP3    H2 4120   1.482   7.602   1.889
 1393TIP3   OH2 4121   5.986   0.175   3.346
 1393TIP3    H1 4122   6.028   0.191   3.262
 1393TIP3    H2 4123   6.058   0.183   3.410
 1394TIP3   OH2 4124   3.717   0.951   2.423
 1394TIP3    H1 4125   3.730   0.861   2.393
 1394TIP3    H2 4126   3.754   1.005   2.353
 1395TIP3   OH2 4127   4.111   4.349   0.015
 1395TIP3    H1 4128   4.151   4.352   0.102
 1395TIP3    H2 4129   4.019   4.367   0.031
 1396TIP3   OH2 4130   3.057   4.588   2.275
 1396TIP3    H1 4131   3.099   4.674   2.279
 1396TIP3    H2 4132   3.107   4.539   2.210
 1397TIP3   OH2 4133   3.808   6.367   5.463
 1397TIP3    H1 4134   3.831   6.329   5.548
 1397TIP3    H2 4135   3.815   6.461   5.477
 1398TIP3   OH2 4136   2.252   1.232   3.335
 1398TIP3    H1 4137   2.232   1.322   3.361
 1398TIP3    H2 4138   2.167   1.187   3.336
 1399TIP3   OH2 4139   4.432   2.835   6.328
 1399TIP3    H1 4140   4.464   2.749   6.356
 1399TIP3    H2 4141   4.441   2.833   6.232
 1400TIP3   OH2 4142   0.208   2.289   4.318
 1400TIP3    H1 4143   0.248   2.346   4.384
 1400TIP3    H2 4144   0.161   2.349   4.260
 1401TIP3   OH2 4145   6.727   0.454   2.201
 1401TIP3    H1 4146   6.769   0.371   2.178
 1401TIP3    H2 4147   6.715   0.449   2.296
 1402TIP3   OH2 4148   7.819   5.509   1.980
 1402TIP3    H1 4149   7.755   5.472   2.040
 1402TIP3    H2 4150   7.828   5.600   2.008
 1403TIP3   OH2 4151   8.112   4.673   5.978
 1403TIP3    H1 4152   8.042   4.738   5.973
 1403TIP3    H2 4153   8.161   4.697   6.057
 1404TIP3   OH2 4154   4.341   0.880   6.595
 1404TIP3    H1 4155   4.382   0.806   6.640
 1404TIP3    H2 4156   4.382   0.882   6.509
 1405TIP3   OH2 4157   6.038   6.852   1.007
 1405TIP3    H1 4158   6.018   6.762   0.982
 1405TIP3    H2 4159   6.006   6.905   0.935
 1406TIP3   OH2 4160   4.117   4.229   6.515
 1406TIP3    H1 4161   4.056   4.240   6.442
 1406TIP3    H2 4162   4.175   4.158   6.487
 1407TIP3   OH2 4163   4.655   2.978   3.774
 1407TIP3    H1 4164   4.739   2.934   3.786
 1407TIP3    H2 4165   4.607   2.961   3.855
 1408TIP3   OH2 4166   7.843   6.043   4.598
 1408TIP3    H1 4167   7.891   6.104   4.541
 1408TIP3    H2 4168   7.805   6.099   4.666
 1409TIP3   OH2 4169   6.457   5.284   1.440
 1409TIP3    H1 4170   6.449   5.282   1.345
 1409TIP3    H2 4171   6.507   5.364   1.459
 1410TIP3   OH2 4172   6.099   2.924   6.167
 1410TIP3    H1 4173   6.084   2.892   6.078
 1410TIP3    H2 4174   6.183   2.971   6.162
 1411TIP3   OH2 4175   2.425   0.166   1.055
 1411TIP3    H1 4176   2.395   0.234   0.994
 1411TIP3    H2 4177   2.366   0.175   1.131
 1412TIP3   OH2 4178   2.859   5.610   0.024
 1412TIP3    H1 4179   2.772   5.571   0.012
 1412TIP3    H2 4180   2.872   5.610   0.119
 1413TIP3   OH2 4181   0.616   4.813   2.876
 1413TIP3    H1 4182   0.545   4.876   2.890
 1413TIP3    H2 4183   0.596   4.771   2.792
 1414TIP3   OH2 4184   6.209   5.891   0.908
 1414TIP3    H1 4185   6.206   5.850   0.822
 1414TIP3    H2 4186   6.117   5.903   0.932
 1415TIP3   OH2 4187   5.427   3.892   4.629
 1415TIP3    H1 4188   5.495   3.945   4.587
 1415TIP3    H2 4189   5.458   3.881   4.719
 1416TIP3   OH2 4190   0.879   1.742   2.522
 1416TIP3    H1 4191   0.898   1.817   2.466
 1416TIP3    H2 4192   0.963   1.721   2.563
 1417TIP3   OH2 4193   2.985   7.543   6.770
 1417TIP3    H1 4194   2.917   7.480   6.747
 1417TIP3    H2 4195   3.023   7.569   6.686
 1418TIP3   OH2 4196   0.889   0.032   5.720
 1418TIP3    H1 4197   0.936   0.010   5.639
 1418TIP3    H2 4198   0.907  -0.042   5.779
 1419TIP3   OH2 4199   8.053   3.728   2.255
 1419TIP3    H1 4200   8.130   3.683   2.289
 1419TIP3    H2 4201   8.060   3.817   2.289
 1420TIP3   OH2 4202   5.677   4.478   2.913
 1420TIP3    H1 4203   5.641   4.393   2.887
 1420TIP3    H2 4204   5.630   4.542   2.859
 1421TIP3   OH2 4205   2.272   2.423   0.612
 1421TIP3    H1 4206   2.229   2.470   0.684
 1421TIP3    H2 4207   2.244   2.332   0.623
 1422TIP3   OH2 4208   1.221   6.382   1.197
 1422TIP3    H1 4209   1.244   6.289   1.200
 1422TIP3    H2 4210   1.160   6.389   1.124
 1423TIP3   OH2 4211   2.745   6.936   1.439
 1423TIP3    H1 4212   2.812   7.005   1.443
 1423TIP3    H2 4213   2.774   6.871   1.503
 1424TIP3   OH2 4214   0.797   1.428   5.642
 1424TIP3    H1 4215   0.879   1.450   5.687
 1424TIP3    H2 4216   0.823   1.413   5.551
 1425TIP3   OH2 4217   3.325   1.455   0.890
 1425TIP3    H1 4218   3.256   1.397   0.923
 1425TIP3    H2 4219   3.303   1.541   0.925
 1426TIP3   OH2 4220   6.261   2.663   3.894
 1426TIP3    H1 4221   6.231   2.600   3.959
 1426TIP3    H2 4222   6.196   2.733   3.896
 1427TIP3   OH2 4223   0.592   2.339   1.492
 1427TIP3    H1 4224   0.597   2.245   1.477
 1427TIP3    H2 4225   0.560   2.348   1.582
 1428TIP3   OH2 4226   1.870   0.974   5.482
 1428TIP3    H1 4227   1.924   0.904   5.521
 1428TIP3    H2 4228   1.907   1.055   5.516
 1429TIP3   OH2 4229   8.238   2.256   4.821
 1429TIP3    H1 4230   8.207   2.181   4.871
 1429TIP3    H2 4231   8.165   2.317   4.821
 1430TIP3   OH2 4232   2.193   3.658   1.099
 1430TIP3    H1 4233   2.251   3.625   1.030
 1430TIP3    H2 4234   2.176   3.583   1.155
 1431TIP3   OH2 4235   8.308   3.545   0.829
 1431TIP3    H1 4236   8.286   3.452   0.818
 1431TIP3    H2 4237   8.293   3.563   0.921
 1432TIP3   OH2 4238   5.141   0.148   5.611
 1432TIP3    H1 4239   5.106   0.171   5.525
 1432TIP3    H2 4240   5.234   0.170   5.605
 1433TIP3   OH2 4241   5.899   1.802   1.478
 1433TIP3    H1 4242   5.921   1.760   1.561
 1433TIP3    H2 4243   5.962   1.874   1.469
 1434TIP3   OH2 4244   3.490   6.476   2.839
 1434TIP3    H1 4245   3.451   6.466   2.752
 1434TIP3    H2 4246   3.428   6.531   2.887
 1435TIP3   OH2 4247   2.179   1.230   4.799
 1435TIP3    H1 4248   2.137   1.310   4.829
 1435TIP3    H2 4249   2.127   1.202   4.724
 1436TIP3   OH2 4250   0.652   0.471   1.958
 1436TIP3    H1 4251   0.734   0.423   1.946
 1436TIP3    H2 4252   0.587   0.419   1.911
 1437TIP3   OH2 4253   5.228   3.399   6.496
 1437TIP3    H1 4254   5.272   3.392   6.411
 1437TIP3    H2 4255   5.219   3.493   6.511
 1438TIP3   OH2 4256   0.589   6.265   4.573
 1438TIP3    H1 4257   0.650   6.238   4.642
 1438TIP3    H2 4258   0.587   6.360   4.578
 1439TIP3   OH2 4259   1.655   4.168   3.815
 1439TIP3    H1 4260   1.684   4.127   3.734
 1439TIP3    H2 4261   1.562   4.143   3.823
 1440TIP3   OH2 4262   5.502   4.377   1.358
 1440TIP3    H1 4263   5.488   4.283   1.370
 1440TIP3    H2 4264   5.458   4.417   1.432
 1441TIP3   OH2 4265   5.413   0.081   0.280
 1441TIP3    H1 4266   5.349   0.106   0.214
 1441TIP3    H2 4267   5.494   0.126   0.254
 1442TIP3   OH2 4268   5.716   1.996   1.129
 1442TIP3    H1 4269   5.741   2.057   1.060
 1442TIP3    H2 4270   5.776   1.922   1.118
 1443TIP3   OH2 4271   7.310   6.608   6.549
 1443TIP3    H1 4272   7.292   6.697   6.519
 1443TIP3    H2 4273   7.233   6.558   6.525
 1444TIP3   OH2 4274   1.553   6.400   0.041
 1444TIP3    H1 4275   1.528   6.340  -0.029
 1444TIP3    H2 4276   1.470   6.429   0.079
 1445TIP3   OH2 4277   8.075   6.539   3.142
 1445TIP3    H1 4278   8.111   6.485   3.072
 1445TIP3    H2 4279   8.009   6.484   3.184
 1446TIP3   OH2 4280   7.551   4.873   0.298
 1446TIP3    H1 4281   7.502   4.831   0.227
 1446TIP3    H2 4282   7.484   4.913   0.353
 1447TIP3   OH2 4283   4.918   7.107   6.354
 1447TIP3    H1 4284   4.987   7.108   6.288
 1447TIP3    H2 4285   4.860   7.179   6.329
 1448TIP3   OH2 4286   6.519   6.095   2.177
 1448TIP3    H1 4287   6.545   6.003   2.174
 1448TIP3    H2 4288   6.428   6.094   2.147
 1449TIP3   OH2 4289   2.021   3.972   1.856
 1449TIP3    H1 4290   2.048   4.057   1.891
 1449TIP3    H2 4291   2.093   3.945   1.800
 1450TIP3   OH2 4292   2.367   3.879   2.096
 1450TIP3    H1 4293   2.392   3.969   2.078
 1450TIP3    H2 4294   2.284   3.886   2.142
 1451TIP3   OH2 4295   1.252   0.327   3.833
 1451TIP3    H1 4296   1.201   0.327   3.915
 1451TIP3    H2 4297   1.205   0.266   3.776
 1452TIP3   OH2 4298   1.587   1.004   6.497
 1452TIP3    H1 4299   1.598   1.010   6.402
 1452TIP3    H2 4300   1.668   1.042   6.532
 1453TIP3   OH2 4301   2.421   4.295   0.128
 1453TIP3    H1 4302   2.386   4.367   0.179
 1453TIP3    H2 4303   2.344   4.247   0.098
 1454TIP3   OH2 4304   4.118   0.616   0.476
 1454TIP3    H1 4305   4.139   0.687   0.415
 1454TIP3    H2 4306   4.177   0.629   0.550
 1455TIP3   OH2 4307   6.068   2.923   0.264
 1455TIP3    H1 4308   6.057   2.843   0.213
 1455TIP3    H2 4309   6.136   2.902   0.328
 1456TIP3   OH2 4310   1.812   2.397   1.665
 1456TIP3    H1 4311   1.766   2.473   1.702
 1456TIP3    H2 4312   1.759   2.372   1.589
 1457TIP3   OH2 4313   1.639   1.915   5.091
 1457TIP3    H1 4314   1.593   1.999   5.097
 1457TIP3    H2 4315   1.731   1.938   5.085
 1458TIP3   OH2 4316   7.920   3.447   2.451
 1458TIP3    H1 4317   7.918   3.453   2.547
 1458TIP3    H2 4318   7.828   3.446   2.425
 1459TIP3   OH2 4319   8.033   6.487   0.357
 1459TIP3    H1 4320   7.943   6.460   0.336
 1459TIP3    H2 4321   8.045   6.569   0.308
 1460TIP3   OH2 4322   1.424   5.321   2.394
 1460TIP3    H1 4323   1.460   5.407   2.416
 1460TIP3    H2 4324   1.475   5.293   2.318
 1461TIP3   OH2 4325   3.765   3.588   1.103
 1461TIP3    H1 4326   3.681   3.635   1.100
 1461TIP3    H2 4327   3.784   3.567   1.011
 1462TIP3   OH2 4328   5.682   5.387   3.134
 1462TIP3    H1 4329   5.762   5.345   3.166
 1462TIP3    H2 4330   5.710   5.433   3.054
 1463TIP3   OH2 4331   5.567   4.846   6.317
 1463TIP3    H1 4332   5.657   4.867   6.342
 1463TIP3    H2 4333   5.517   4.924   6.339
 1464TIP3   OH2 4334   6.415   4.516   2.651
 1464TIP3    H1 4335   6.376   4.556   2.729
 1464TIP3    H2 4336   6.509   4.514   2.670
 1465TIP3   OH2 4337   7.984   1.768   4.597
 1465TIP3    H1 4338   7.960   1.766   4.504
 1465TIP3    H2 4339   7.928   1.703   4.638
 1466TIP3   OH2 4340   1.053   3.753   5.644
 1466TIP3    H1 4341   1.107   3.770   5.722
 1466TIP3    H2 4342   1.040   3.658   5.644
 1467TIP3   OH2 4343   1.382   0.202   1.667
 1467TIP3    H1 4344   1.356   0.118   1.705
 1467TIP3    H2 4345   1.476   0.209   1.684
 1468TIP3   OH2 4346   7.648   5.858   5.645
 1468TIP3    H1 4347   7.650   5.905   5.561
 1468TIP3    H2 4348   7.609   5.921   5.706
 1469TIP3   OH2 4349   6.275   0.299   5.662
 1469TIP3    H1 4350   6.215   0.356   5.614
 1469TIP3    H2 4351   6.286   0.222   5.606
 1470TIP3   OH2 4352   4.579   4.936   1.491
 1470TIP3    H1 4353   4.589   4.947   1.586
 1470TIP3    H2 4354   4.517   4.864   1.481
 1471TIP3   OH2 4355   8.146   1.507   0.708
 1471TIP3    H1 4356   8.157   1.416   0.682
 1471TIP3    H2 4357   8.113   1.503   0.798
 1472TIP3   OH2 4358   2.525   4.945   0.282
 1472TIP3    H1 4359   2.480   5.028   0.263
 1472TIP3    H2 4360   2.617   4.963   0.261
 1473TIP3   OH2 4361   5.107   7.407   0.802
 1473TIP3    H1 4362   5.098   7.387   0.895
 1473TIP3    H2 4363   5.045   7.479   0.786
 1474TIP3   OH2 4364   6.231   7.463   5.620
 1474TIP3    H1 4365   6.269   7.494   5.703
 1474TIP3    H2 4366   6.272   7.378   5.606
 1475TIP3   OH2 4367   4.818   0.880   2.133
 1475TIP3    H1 4368   4.909   0.861   2.109
 1475TIP3    H2 4369   4.820   0.972   2.161
 1476TIP3   OH2 4370   3.038   0.246   4.318
 1476TIP3    H1 4371   3.041   0.217   4.409
 1476TIP3    H2 4372   3.062   0.169   4.266
 1477TIP3   OH2 4373   5.719   0.669   4.631
 1477TIP3    H1 4374   5.801   0.624   4.650
 1477TIP3    H2 4375   5.672   0.610   4.572
 1478TIP3   OH2 4376   1.389   0.625   0.537
 1478TIP3    H1 4377   1.351   0.629   0.625
 1478TIP3    H2 4378   1.483   0.614   0.552
 1479TIP3   OH2 4379   6.849   5.420   0.352
 1479TIP3    H1 4380   6.815   5.424   0.262
 1479TIP3    H2 4381   6.819   5.335   0.384
 1480TIP3   OH2 4382   5.872   3.291   3.058
 1480TIP3    H1 4383   5.897   3.303   3.150
 1480TIP3    H2 4384   5.819   3.211   3.059
 1481TIP3   OH2 4385   4.320   2.530   6.035
 1481TIP3    H1 4386   4.240   2.509   6.084
 1481TIP3    H2 4387   4.295   2.523   5.943
 1482TIP3   OH2 4388   1.989   0.524   4.032
 1482TIP3    H1 4389   1.943   0.450   3.994
 1482TIP3    H2 4390   1.935   0.551   4.106
 1483TIP3   OH2 4391   2.614   4.166   1.694
 1483TIP3    H1 4392   2.699   4.194   1.728
 1483TIP3    H2 4393   2.630   4.080   1.656
 1484TIP3   OH2 4394   7.183   7.608   2.189
 1484TIP3    H1 4395   7.102   7.608   2.239
 1484TIP3    H2 4396   7.245   7.559   2.244
 1485TIP3   OH2 4397   6.110   7.455   6.372
 1485TIP3    H1 4398   6.073   7.533   6.413
 1485TIP3    H2 4399   6.077   7.457   6.282
 1486TIP3   OH2 4400   0.811   2.233   4.205
 1486TIP3    H1 4401   0.904   2.215   4.223
 1486TIP3    H2 4402   0.785   2.164   4.144
 1487TIP3   OH2 4403   3.858   4.389   0.967
 1487TIP3    H1 4404   3.823   4.309   0.928
 1487TIP3    H2 4405   3.810   4.399   1.049
 1488TIP3   OH2 4406   5.876   6.053   5.778
 1488TIP3    H1 4407   5.933   6.080   5.850
 1488TIP3    H2 4408   5.798   6.018   5.822
 1489TIP3   OH2 4409   5.644   2.044   0.428
 1489TIP3    H1 4410   5.733   2.013   0.411
 1489TIP3    H2 4411   5.654   2.109   0.497
 1490TIP3   OH2 4412   0.332   7.500   2.123
 1490TIP3    H1 4413   0.428   7.497   2.127
 1490TIP3    H2 4414   0.304   7.486   2.213
 1491TIP3   OH2 4415   7.737   7.788   0.322
 1491TIP3    H1 4416   7.715   7.878   0.347
 1491TIP3    H2 4417   7.812   7.797   0.263
 1492TIP3   OH2 4418   4.139   5.669   2.093
 1492TIP3    H1 4419   4.079   5.641   2.162
 1492TIP3    H2 4420   4.174   5.753   2.124
 1493TIP3   OH2 4421   7.259   5.665   1.666
 1493TIP3    H1 4422   7.217   5.643   1.750
 1493TIP3    H2 4423   7.242   5.589   1.611
 1494TIP3   OH2 4424   0.695   4.250   6.019
 1494TIP3    H1 4425   0.788   4.243   6.042
 1494TIP3    H2 4426   0.679   4.344   6.016
 1495TIP3   OH2 4427   0.144   1.675   6.313
 1495TIP3    H1 4428   0.172   1.763   6.288
 1495TIP3    H2 4429   0.211   1.644   6.373
 1496TIP3   OH2 4430   3.721   1.181   4.516
 1496TIP3    H1 4431   3.778   1.111   4.548
 1496TIP3    H2 4432   3.729   1.176   4.421
 1497TIP3   OH2 4433   1.279   1.882   2.688
 1497TIP3    H1 4434   1.246   1.940   2.619
 1497TIP3    H2 4435   1.301   1.941   2.761
 1498TIP3   OH2 4436   3.192   5.854   1.532
 1498TIP3    H1 4437   3.226   5.927   1.481
 1498TIP3    H2 4438   3.134   5.807   1.472
 1499TIP3   OH2 4439   7.315   5.725   6.215
 1499TIP3    H1 4440   7.305   5.701   6.307
 1499TIP3    H2 4441   7.287   5.646   6.167
 1500TIP3   OH2 4442   3.517   2.666   0.198
 1500TIP3    H1 4443   3.513   2.713   0.281
 1500TIP3    H2 4444   3.611   2.655   0.182
 1501TIP3   OH2 4445   0.939   6.355   0.097
 1501TIP3    H1 4446   0.975   6.410   0.167
 1501TIP3    H2 4447   0.920   6.415   0.026
 1502TIP3   OH2 4448   0.534   4.187   1.643
 1502TIP3    H1 4449   0.460   4.199   1.584
 1502TIP3    H2 4450   0.527   4.096   1.672
 1503TIP3   OH2 4451   5.302   1.324   5.183
 1503TIP3    H1 4452   5.384   1.277   5.199
 1503TIP3    H2 4453   5.329   1.408   5.147
 1504TIP3   OH2 4454   1.968   7.679   1.626
 1504TIP3    H1 4455   1.979   7.747   1.694
 1504TIP3    H2 4456   1.957   7.728   1.545
 1505TIP3   OH2 4457   6.963   6.188   5.289
 1505TIP3    H1 4458   7.017   6.267   5.290
 1505TIP3    H2 4459   7.019   6.120   5.328
 1506TIP3   OH2 4460   2.172   6.344   1.220
 1506TIP3    H1 4461   2.204   6.272   1.273
 1506TIP3    H2 4462   2.242   6.361   1.157
 1507TIP3   OH2 4463   5.494   6.666   2.840
 1507TIP3    H1 4464   5.517   6.693   2.929
 1507TIP3    H2 4465   5.548   6.588   2.824
 1508TIP3   OH2 4466   2.819   1.851   2.262
 1508TIP3    H1 4467   2.823   1.766   2.218
 1508TIP3    H2 4468   2.842   1.915   2.195
 1509TIP3   OH2 4469   2.327   5.275   4.686
 1509TIP3    H1 4470   2.342   5.241   4.774
 1509TIP3    H2 4471   2.255   5.338   4.697
 1510TIP3   OH2 4472   8.002   1.749   1.294
 1510TIP3    H1 4473   8.037   1.837   1.311
 1510TIP3    H2 4474   8.000   1.742   1.199
 1511TIP3   OH2 4475   1.912   0.929   0.804
 1511TIP3    H1 4476   1.905   0.989   0.729
 1511TIP3    H2 4477   1.914   0.987   0.881
 1512TIP3   OH2 4478   5.544   2.170   0.937
 1512TIP3    H1 4479   5.624   2.197   0.983
 1512TIP3    H2 4480   5.568   2.176   0.844
 1513TIP3   OH2 4481   1.443   1.824   4.919
 1513TIP3    H1 4482   1.517   1.854   4.971
 1513TIP3    H2 4483   1.479   1.813   4.831
 1514TIP3   OH2 4484   8.086   4.645   4.514
 1514TIP3    H1 4485   8.111   4.614   4.427
 1514TIP3    H2 4486   8.169   4.664   4.558
 1515TIP3   OH2 4487   0.214   3.109   0.596
 1515TIP3    H1 4488   0.214   3.167   0.673
 1515TIP3    H2 4489   0.136   3.135   0.547
 1516TIP3   OH2 4490   2.281   0.347   2.978
 1516TIP3    H1 4491   2.284   0.441   3.000
 1516TIP3    H2 4492   2.208   0.339   2.918
 1517TIP3   OH2 4493   3.383   4.969   4.810
 1517TIP3    H1 4494   3.372   4.890   4.756
 1517TIP3    H2 4495   3.429   5.030   4.753
 1518TIP3   OH2 4496   1.844   6.392   5.797
 1518TIP3    H1 4497   1.880   6.350   5.719
 1518TIP3    H2 4498   1.919   6.433   5.839
 1519TIP3   OH2 4499   3.131   5.412   6.342
 1519TIP3    H1 4500   3.097   5.483   6.397
 1519TIP3    H2 4501   3.162   5.456   6.263
 1520TIP3   OH2 4502   5.098   4.797   4.691
 1520TIP3    H1 4503   5.158   4.737   4.734
 1520TIP3    H2 4504   5.045   4.740   4.633
 1521TIP3   OH2 4505   5.322   0.991   2.694
 1521TIP3    H1 4506   5.406   1.025   2.665
 1521TIP3    H2 4507   5.308   0.913   2.641
 1522TIP3   OH2 4508   5.604   3.941   6.157
 1522TIP3    H1 4509   5.600   3.899   6.071
 1522TIP3    H2 4510   5.687   3.989   6.156
 1523TIP3   OH2 4511   7.488   4.247   4.741
 1523TIP3    H1 4512   7.406   4.197   4.736
 1523TIP3    H2 4513   7.468   4.318   4.802
 1524TIP3   OH2 4514   4.798   0.136   5.528
 1524TIP3    H1 4515   4.786   0.051   5.571
 1524TIP3    H2 4516   4.824   0.195   5.599
 1525TIP3   OH2 4517   1.233   2.610   0.530
 1525TIP3    H1 4518   1.315   2.569   0.557
 1525TIP3    H2 4519   1.177   2.604   0.607
 1526TIP3   OH2 4520   6.780   7.501   3.718
 1526TIP3    H1 4521   6.693   7.481   3.684
 1526TIP3    H2 4522   6.800   7.430   3.779
 1527TIP3   OH2 4523   5.817   0.392   2.515
 1527TIP3    H1 4524   5.746   0.438   2.559
 1527TIP3    H2 4525   5.893   0.405   2.572
 1528TIP3   OH2 4526   0.831   2.560   5.055
 1528TIP3    H1 4527   0.875   2.643   5.040
 1528TIP3    H2 4528   0.851   2.539   5.147
 1529TIP3   OH2 4529   4.650   3.632   5.623
 1529TIP3    H1 4530   4.697   3.635   5.707
 1529TIP3    H2 4531   4.591   3.557   5.631
 1530TIP3   OH2 4532   8.214   7.007   0.300
 1530TIP3    H1 4533   8.176   6.924   0.272
 1530TIP3    H2 4534   8.142   7.054   0.341
 1531TIP3   OH2 4535   3.832   6.213   1.189
 1531TIP3    H1 4536   3.845   6.205   1.094
 1531TIP3    H2 4537   3.815   6.124   1.218
 1532TIP3   OH2 4538   5.224   5.201   3.257
 1532TIP3    H1 4539   5.147   5.196   3.201
 1532TIP3    H2 4540   5.257   5.290   3.244
 1533TIP3   OH2 4541   3.971   2.109   5.588
 1533TIP3    H1 4542   4.046   2.051   5.585
 1533TIP3    H2 4543   3.903   2.062   5.539
 1534TIP3   OH2 4544   2.147   2.182   0.623
 1534TIP3    H1 4545   2.189   2.098   0.644
 1534TIP3    H2 4546   2.092   2.164   0.547
 1535TIP3   OH2 4547   4.365   2.290   1.605
 1535TIP3    H1 4548   4.407   2.358   1.551
 1535TIP3    H2 4549   4.359   2.214   1.547
 1536TIP3   OH2 4550   2.071   2.846   4.681
 1536TIP3    H1 4551   2.165   2.861   4.682
 1536TIP3    H2 4552   2.058   2.769   4.737
 1537TIP3   OH2 4553   0.249   7.095   1.348
 1537TIP3    H1 4554   0.329   7.136   1.315
 1537TIP3    H2 4555   0.244   7.123   1.440
 1538TIP3   OH2 4556   5.099   3.289   0.516
 1538TIP3    H1 4557   5.042   3.299   0.440
 1538TIP3    H2 4558   5.041   3.303   0.591
 1539TIP3   OH2 4559   4.232   4.476   6.581
 1539TIP3    H1 4560   4.311   4.448   6.628
 1539TIP3    H2 4561   4.189   4.394   6.557
 1540TIP3   OH2 4562   8.228   3.114   2.646
 1540TIP3    H1 4563   8.210   3.199   2.607
 1540TIP3    H2 4564   8.198   3.050   2.581
 1541TIP3   OH2 4565   4.947   7.034   1.072
 1541TIP3    H1 4566   4.901   7.058   0.991
 1541TIP3    H2 4567   4.884   7.055   1.142
 1542TIP3   OH2 4568   2.552   1.247   5.217
 1542TIP3    H1 4569   2.465   1.241   5.178
 1542TIP3    H2 4570   2.592   1.323   5.175
 1543TIP3   OH2 4571   7.452   2.049   3.090
 1543TIP3    H1 4572   7.389   2.056   3.019
 1543TIP3    H2 4573   7.510   2.125   3.078
 1544TIP3   OH2 4574   0.094   6.538   3.138
 1544TIP3    H1 4575   0.070   6.613   3.084
 1544TIP3    H2 4576   0.020   6.526   3.197
 1545TIP3   OH2 4577   7.962   3.943   5.203
 1545TIP3    H1 4578   7.956   3.995   5.283
 1545TIP3    H2 4579   8.038   3.886   5.217
 1546TIP3   OH2 4580   4.775   7.006   1.665
 1546TIP3    H1 4581   4.728   7.082   1.630
 1546TIP3    H2 4582   4.838   7.042   1.727
 1547TIP3   OH2 4583   6.759   2.981   2.699
 1547TIP3    H1 4584   6.702   3.058   2.697
 1547TIP3    H2 4585   6.768   2.955   2.607
 1548TIP3   OH2 4586   0.368   6.516   0.061
 1548TIP3    H1 4587   0.339   6.447   0.121
 1548TIP3    H2 4588   0.429   6.472   0.002
 1549TIP3   OH2 4589   3.975   7.639   4.664
 1549TIP3    H1 4590   3.916   7.579   4.710
 1549TIP3    H2 4591   3.936   7.726   4.679
 1550TIP3   OH2 4592   3.634   2.933   5.602
 1550TIP3    H1 4593   3.567   2.939   5.533
 1550TIP3    H2 4594   3.713   2.970   5.562
 1551TIP3   OH2 4595   3.728   7.617   5.803
 1551TIP3    H1 4596   3.694   7.529   5.787
 1551TIP3    H2 4597   3.680   7.673   5.742
 1552TIP3   OH2 4598   1.930   2.915   6.118
 1552TIP3    H1 4599   1.916   3.007   6.095
 1552TIP3    H2 4600   1.862   2.867   6.071
 1553TIP3   OH2 4601   5.849   5.579   0.724
 1553TIP3    H1 4602   5.782   5.529   0.771
 1553TIP3    H2 4603   5.823   5.670   0.733
 1554TIP3   OH2 4604   5.601   5.174   2.419
 1554TIP3    H1 4605   5.599   5.118   2.341
 1554TIP3    H2 4606   5.650   5.122   2.483
 1555TIP3   OH2 4607   1.150   7.053   4.693
 1555TIP3    H1 4608   1.122   7.117   4.758
 1555TIP3    H2 4609   1.092   7.068   4.618
 1556TIP3   OH2 4610   7.988   4.860   2.460
 1556TIP3    H1 4611   7.928   4.910   2.516
 1556TIP3    H2 4612   8.073   4.904   2.470
 1557TIP3   OH2 4613   2.038   4.245   0.756
 1557TIP3    H1 4614   2.127   4.241   0.721
 1557TIP3    H2 4615   1.987   4.291   0.689
 1558TIP3   OH2 4616   4.676   3.338   5.790
 1558TIP3    H1 4617   4.607   3.331   5.724
 1558TIP3    H2 4618   4.745   3.279   5.759
 1559TIP3   OH2 4619   2.398   6.168   1.406
 1559TIP3    H1 4620   2.397   6.094   1.466
 1559TIP3    H2 4621   2.458   6.142   1.337
 1560TIP3   OH2 4622   7.072   4.674   1.640
 1560TIP3    H1 4623   6.980   4.684   1.667
 1560TIP3    H2 4624   7.109   4.615   1.705
 1561TIP3   OH2 4625   5.390   1.857   6.584
 1561TIP3    H1 4626   5.297   1.877   6.588
 1561TIP3    H2 4627   5.406   1.801   6.660
 1562TIP3   OH2 4628   5.677   4.557   4.551
 1562TIP3    H1 4629   5.722   4.522   4.474
 1562TIP3    H2 4630   5.740   4.548   4.622
 1563TIP3   OH2 4631   5.648   2.976   0.581
 1563TIP3    H1 4632   5.704   3.011   0.512
 1563TIP3    H2 4633   5.560   3.004   0.557
 1564TIP3   OH2 4634   7.339   3.143   0.563
 1564TIP3    H1 4635   7.418   3.187   0.594
 1564TIP3    H2 4636   7.321   3.077   0.630
 1565TIP3   OH2 4637   2.218   5.367   6.581
 1565TIP3    H1 4638   2.228   5.389   6.489
 1565TIP3    H2 4639   2.304   5.384   6.620
 1566TIP3   OH2 4640   3.906   7.328   6.247
 1566TIP3    H1 4641   3.903   7.412   6.202
 1566TIP3    H2 4642   3.912   7.350   6.340
 1567TIP3   OH2 4643   4.492   6.155   5.402
 1567TIP3    H1 4644   4.505   6.093   5.474
 1567TIP3    H2 4645   4.398   6.173   5.404
 1568TIP3   OH2 4646   0.325   0.072   2.027
 1568TIP3    H1 4647   0.336   0.120   2.109
 1568TIP3    H2 4648   0.413   0.042   2.005
 1569TIP3   OH2 4649   0.435   5.788   5.259
 1569TIP3    H1 4650   0.453   5.860   5.320
 1569TIP3    H2 4651   0.466   5.820   5.174
 1570TIP3   OH2 4652   0.857   6.095   1.775
 1570TIP3    H1 4653   0.869   6.086   1.870
 1570TIP3    H2 4654   0.768   6.063   1.759
 1571TIP3   OH2 4655   7.303   5.984   0.191
 1571TIP3    H1 4656   7.353   5.993   0.110
 1571TIP3    H2 4657   7.278   5.892   0.194
 1572TIP3   OH2 4658   7.826   6.851   4.400
 1572TIP3    H1 4659   7.749   6.909   4.401
 1572TIP3    H2 4660   7.852   6.846   4.308
 1573TIP3   OH2 4661   2.098   4.472   2.162
 1573TIP3    H1 4662   2.180   4.423   2.159
 1573TIP3    H2 4663   2.125   4.564   2.160
 1574TIP3   OH2 4664   2.211   7.652   4.165
 1574TIP3    H1 4665   2.145   7.588   4.137
 1574TIP3    H2 4666   2.190   7.731   4.115
 1575TIP3   OH2 4667   4.124   2.961   4.478
 1575TIP3    H1 4668   4.195   2.943   4.540
 1575TIP3    H2 4669   4.165   3.013   4.409
 1576TIP3   OH2 4670   0.595   3.355   3.585
 1576TIP3    H1 4671   0.548   3.335   3.666
 1576TIP3    H2 4672   0.650   3.430   3.607
 1577TIP3   OH2 4673   0.602   7.483   2.139
 1577TIP3    H1 4674   0.605   7.487   2.043
 1577TIP3    H2 4675   0.693   7.470   2.165
 1578TIP3   OH2 4676   0.621   5.438   4.179
 1578TIP3    H1 4677   0.569   5.511   4.213
 1578TIP3    H2 4678   0.658   5.470   4.097
 1579TIP3   OH2 4679   2.582   7.514   6.198
 1579TIP3    H1 4680   2.664   7.473   6.172
 1579TIP3    H2 4681   2.534   7.526   6.116
 1580TIP3   OH2 4682   1.682   4.928   0.267
 1580TIP3    H1 4683   1.669   5.023   0.257
 1580TIP3    H2 4684   1.714   4.900   0.181
 1581TIP3   OH2 4685   8.275   0.820   3.595
 1581TIP3    H1 4686   8.207   0.766   3.556
 1581TIP3    H2 4687   8.256   0.909   3.565
 1582TIP3   OH2 4688   4.190   1.639   2.501
 1582TIP3    H1 4689   4.156   1.718   2.542
 1582TIP3    H2 4690   4.238   1.671   2.425
 1583TIP3   OH2 4691   3.634   7.539   3.666
 1583TIP3    H1 4692   3.618   7.622   3.621
 1583TIP3    H2 4693   3.575   7.477   3.624
 1584TIP3   OH2 4694   3.906   5.866   1.053
 1584TIP3    H1 4695   3.968   5.875   1.126
 1584TIP3    H2 4696   3.891   5.956   1.024
 1585TIP3   OH2 4697   1.912   5.136   3.321
 1585TIP3    H1 4698   1.865   5.123   3.238
 1585TIP3    H2 4699   1.865   5.081   3.384
 1586TIP3   OH2 4700   1.318   2.111   0.901
 1586TIP3    H1 4701   1.236   2.065   0.881
 1586TIP3    H2 4702   1.293   2.178   0.965
 1587TIP3   OH2 4703   3.732   4.721   1.680
 1587TIP3    H1 4704   3.787   4.797   1.658
 1587TIP3    H2 4705   3.725   4.724   1.776
 1588TIP3   OH2 4706   7.550   6.169   4.603
 1588TIP3    H1 4707   7.532   6.081   4.569
 1588TIP3    H2 4708   7.528   6.164   4.696
 1589TIP3   OH2 4709   5.153   3.016   2.394
 1589TIP3    H1 4710   5.182   3.092   2.444
 1589TIP3    H2 4711   5.058   3.014   2.405
 1590TIP3   OH2 4712   5.079   6.998   3.153
 1590TIP3    H1 4713   5.138   7.007   3.228
 1590TIP3    H2 4714   4.996   7.034   3.183
 1591TIP3   OH2 4715   1.577   1.445   1.093
 1591TIP3    H1 4716   1.607   1.412   1.178
 1591TIP3    H2 4717   1.641   1.413   1.030
 1592TIP3   OH2 4718   2.008   1.630   1.706
 1592TIP3    H1 4719   2.040   1.658   1.621
 1592TIP3    H2 4720   2.011   1.534   1.703
 1593TIP3   OH2 4721   3.350   3.177   5.076
 1593TIP3    H1 4722   3.410   3.146   5.009
 1593TIP3    H2 4723   3.266   3.188   5.031
 1594TIP3   OH2 4724   5.826   0.813   2.426
 1594TIP3    H1 4725   5.796   0.771   2.507
 1594TIP3    H2 4726   5.830   0.742   2.362
 1595TIP3   OH2 4727   1.005   1.944   1.537
 1595TIP3    H1 4728   1.089   1.973   1.502
 1595TIP3    H2 4729   0.974   1.878   1.475
 1596TIP3   OH2 4730   7.383   2.604   2.880
 1596TIP3    H1 4731   7.398   2.529   2.822
 1596TIP3    H2 4732   7.462   2.657   2.872
 1597TIP3   OH2 4733   3.862   4.396   6.600
 1597TIP3    H1 4734   3.778   4.419   6.638
 1597TIP3    H2 4735   3.860   4.433   6.511
 1598TIP3   OH2 4736   2.143   2.724   5.402
 1598TIP3    H1 4737   2.189   2.673   5.469
 1598TIP3    H2 4738   2.122   2.660   5.333
 1599TIP3   OH2 4739   4.081   5.893   1.289
 1599TIP3    H1 4740   4.046   5.976   1.322
 1599TIP3    H2 4741   4.094   5.839   1.367
 1600TIP3   OH2 4742   0.514   7.558   2.645
 1600TIP3    H1 4743   0.598   7.528   2.682
 1600TIP3    H2 4744   0.532   7.647   2.614
 1601TIP3   OH2 4745   4.598   0.854   1.971
 1601TIP3    H1 4746   4.679   0.849   2.021
 1601TIP3    H2 4747   4.540   0.909   2.024
 1602TIP3   OH2 4748   5.629   5.652   6.414
 1602TIP3    H1 4749   5.672   5.573   6.446
 1602TIP3    H2 4750   5.679   5.676   6.336
 1603TIP3   OH2 4751   4.965   0.314   0.642
 1603TIP3    H1 4752   4.980   0.272   0.726
 1603TIP3    H2 4753   4.964   0.241   0.579
 1604TIP3   OH2 4754   8.044   4.408   5.968
 1604TIP3    H1 4755   8.068   4.499   5.951
 1604TIP3    H2 4756   8.012   4.375   5.883
 1605TIP3   OH2 4757   3.849   5.044   3.441
 1605TIP3    H1 4758   3.832   5.136   3.426
 1605TIP3    H2 4759   3.789   4.998   3.383
 1606TIP3   OH2 4760   5.943   5.909   0.952
 1606TIP3    H1 4761   5.929   5.982   1.012
 1606TIP3    H2 4762   5.903   5.834   0.995
 1607TIP3   OH2 4763   5.327   2.241   0.358
 1607TIP3    H1 4764   5.249   2.295   0.340
 1607TIP3    H2 4765   5.382   2.296   0.413
 1608TIP3   OH2 4766   2.968   4.271   0.589
 1608TIP3    H1 4767   2.895   4.322   0.556
 1608TIP3    H2 4768   2.949   4.181   0.561
 1609TIP3   OH2 4769   6.004   7.518   4.446
 1609TIP3    H1 4770   5.996   7.437   4.396
 1609TIP3    H2 4771   6.089   7.554   4.421
 1610TIP3   OH2 4772   5.841   6.750   2.020
 1610TIP3    H1 4773   5.911   6.800   2.063
 1610TIP3    H2 4774   5.835   6.669   2.071
 1611TIP3   OH2 4775   7.628   5.686   5.849
 1611TIP3    H1 4776   7.628   5.713   5.757
 1611TIP3    H2 4777   7.587   5.600   5.849
 1612TIP3   OH2 4778   2.481   3.459   2.528
 1612TIP3    H1 4779   2.488   3.531   2.591
 1612TIP3    H2 4780   2.394   3.469   2.491
 1613TIP3   OH2 4781   4.084   4.772   5.835
 1613TIP3    H1 4782   4.037   4.853   5.816
 1613TIP3    H2 4783   4.075   4.719   5.756
 1614TIP3   OH2 4784   1.674   7.496   4.766
 1614TIP3    H1 4785   1.639   7.421   4.813
 1614TIP3    H2 4786   1.638   7.572   4.812
 1615TIP3   OH2 4787   6.744   1.053   2.041
 1615TIP3    H1 4788   6.741   1.065   1.946
 1615TIP3    H2 4789   6.815   0.990   2.055
 1616TIP3   OH2 4790   5.220   5.855   4.322
 1616TIP3    H1 4791   5.303   5.820   4.353
 1616TIP3    H2 4792   5.157   5.784   4.337
 1617TIP3   OH2 4793   3.260   7.604   6.328
 1617TIP3    H1 4794   3.290   7.525   6.284
 1617TIP3    H2 4795   3.336   7.663   6.326
 1618TIP3   OH2 4796   4.985   6.974   0.779
 1618TIP3    H1 4797   5.031   7.053   0.751
 1618TIP3    H2 4798   5.054   6.910   0.795
 1619TIP3   OH2 4799   2.071   0.264   2.812
 1619TIP3    H1 4800   1.979   0.287   2.830
 1619TIP3    H2 4801   2.071   0.169   2.810
 1620TIP3   OH2 4802   2.130   0.427   2.190
 1620TIP3    H1 4803   2.181   0.372   2.250
 1620TIP3    H2 4804   2.043   0.389   2.190
 1621TIP3   OH2 4805   4.650   1.123   2.818
 1621TIP3    H1 4806   4.564   1.103   2.780
 1621TIP3    H2 4807   4.688   1.037   2.836
 1622TIP3   OH2 4808   1.645   0.119   0.287
 1622TIP3    H1 4809   1.671   0.081   0.204
 1622TIP3    H2 4810   1.603   0.048   0.334
 1623TIP3   OH2 4811   0.471   2.519   5.475
 1623TIP3    H1 4812   0.539   2.586   5.470
 1623TIP3    H2 4813   0.421   2.529   5.394
 1624TIP3   OH2 4814   7.343   3.222   1.930
 1624TIP3    H1 4815   7.371   3.155   1.992
 1624TIP3    H2 4816   7.344   3.303   1.981
 1625TIP3   OH2 4817   3.296   3.635   2.944
 1625TIP3    H1 4818   3.299   3.545   2.913
 1625TIP3    H2 4819   3.251   3.630   3.028
 1626TIP3   OH2 4820   7.573   1.472   3.551
 1626TIP3    H1 4821   7.515   1.533   3.506
 1626TIP3    H2 4822   7.661   1.496   3.522
 1627TIP3   OH2 4823   7.157   1.970   3.384
 1627TIP3    H1 4824   7.106   1.924   3.451
 1627TIP3    H2 4825   7.147   2.063   3.406
 1628TIP3   OH2 4826   6.401   4.586   3.673
 1628TIP3    H1 4827   6.474   4.609   3.616
 1628TIP3    H2 4828   6.413   4.640   3.751
 1629TIP3   OH2 4829   8.158   2.184   3.918
 1629TIP3    H1 4830   8.088   2.162   3.857
 1629TIP3    H2 4831   8.116   2.242   3.982
 1630TIP3   OH2 4832   0.564   6.003   2.080
 1630TIP3    H1 4833   0.529   5.958   2.003
 1630TIP3    H2 4834   0.511   6.083   2.087
 1631TIP3   OH2 4835   6.834   2.610   4.061
 1631TIP3    H1 4836   6.777   2.682   4.088
 1631TIP3    H2 4837   6.921   2.650   4.055
 1632TIP3   OH2 4838   4.790   1.859   4.046
 1632TIP3    H1 4839   4.860   1.841   3.983
 1632TIP3    H2 4840   4.823   1.826   4.129
 1633TIP3   OH2 4841   1.470   3.886   0.588
 1633TIP3    H1 4842   1.554   3.931   0.597
 1633TIP3    H2 4843   1.471   3.820   0.657
 1634TIP3   OH2 4844   5.983   1.867   5.412
 1634TIP3    H1 4845   5.936   1.943   5.378
 1634TIP3    H2 4846   6.052   1.851   5.349
 1635TIP3   OH2 4847   1.230   3.555   6.004
 1635TIP3    H1 4848   1.211   3.480   5.948
 1635TIP3    H2 4849   1.160   3.617   5.987
 1636TIP3   OH2 4850   5.349   6.957   0.652
 1636TIP3    H1 4851   5.434   6.998   0.635
 1636TIP3    H2 4852   5.299   7.025   0.697
 1637TIP3   OH2 4853   1.131   4.421   3.202
 1637TIP3    H1 4854   1.187   4.350   3.171
 1637TIP3    H2 4855   1.190   4.494   3.218
 1638TIP3   OH2 4856   6.134   2.672   2.394
 1638TIP3    H1 4857   6.176   2.756   2.371
 1638TIP3    H2 4858   6.040   2.689   2.384
 1639TIP3   OH2 4859   0.159   1.312   3.311
 1639TIP3    H1 4860   0.095   1.313   3.382
 1639TIP3    H2 4861   0.107   1.324   3.232
 1640TIP3   OH2 4862   1.274   4.537   3.901
 1640TIP3    H1 4863   1.226   4.538   3.983
 1640TIP3    H2 4864   1.304   4.446   3.892
 1641TIP3   OH2 4865   4.645   3.293   4.890
 1641TIP3    H1 4866   4.672   3.385   4.893
 1641TIP3    H2 4867   4.661   3.261   4.979
 1642TIP3   OH2 4868   2.615   2.809   6.544
 1642TIP3    H1 4869   2.564   2.868   6.488
 1642TIP3    H2 4870   2.563   2.729   6.548
 1643TIP3   OH2 4871   1.879   7.159   0.801
 1643TIP3    H1 4872   1.831   7.110   0.868
 1643TIP3    H2 4873   1.861   7.113   0.720
 1644TIP3   OH2 4874   6.209   1.353   6.170
 1644TIP3    H1 4875   6.128   1.336   6.122
 1644TIP3    H2 4876   6.270   1.386   6.104
 1645TIP3   OH2 4877   7.626   6.392   1.769
 1645TIP3    H1 4878   7.615   6.455   1.841
 1645TIP3    H2 4879   7.548   6.403   1.715
 1646TIP3   OH2 4880   7.675   5.049   4.626
 1646TIP3    H1 4881   7.680   4.957   4.599
 1646TIP3    H2 4882   7.696   5.098   4.547
 1647TIP3   OH2 4883   5.803   2.558   3.922
 1647TIP3    H1 4884   5.825   2.488   3.860
 1647TIP3    H2 4885   5.713   2.538   3.948
 1648TIP3   OH2 4886   1.946   2.769   1.258
 1648TIP3    H1 4887   1.973   2.682   1.285
 1648TIP3    H2 4888   1.951   2.767   1.162
 1649TIP3   OH2 4889   5.535   1.756   4.853
 1649TIP3    H1 4890   5.482   1.835   4.863
 1649TIP3    H2 4891   5.503   1.715   4.773
 1650TIP3   OH2 4892   1.241   7.550   3.341
 1650TIP3    H1 4893   1.200   7.617   3.286
 1650TIP3    H2 4894   1.168   7.497   3.373
 1651TIP3   OH2 4895   0.834   1.248   4.544
 1651TIP3    H1 4896   0.755   1.302   4.551
 1651TIP3    H2 4897   0.849   1.239   4.450
 1652TIP3   OH2 4898   6.225   3.479   1.884
 1652TIP3    H1 4899   6.138   3.448   1.909
 1652TIP3    H2 4900   6.280   3.457   1.959
 1653TIP3   OH2 4901   4.347   6.711   1.750
 1653TIP3    H1 4902   4.423   6.694   1.806
 1653TIP3    H2 4903   4.313   6.624   1.728
 1654TIP3   OH2 4904   2.221   7.099   1.317
 1654TIP3    H1 4905   2.237   7.107   1.411
 1654TIP3    H2 4906   2.294   7.145   1.276
 1655TIP3   OH2 4907   4.652   3.320   3.130
 1655TIP3    H1 4908   4.631   3.406   3.093
 1655TIP3    H2 4909   4.582   3.304   3.193
 1656TIP3   OH2 4910   3.709   3.363   3.944
 1656TIP3    H1 4911   3.625   3.390   3.908
 1656TIP3    H2 4912   3.758   3.444   3.957
 1657TIP3   OH2 4913   0.125   6.451   1.950
 1657TIP3    H1 4914   0.033   6.424   1.943
 1657TIP3    H2 4915   0.164   6.427   1.866
 1658TIP3   OH2 4916   6.284   6.613   1.262
 1658TIP3    H1 4917   6.361   6.609   1.318
 1658TIP3    H2 4918   6.318   6.597   1.174
 1659TIP3   OH2 4919   7.787   5.012   0.224
 1659TIP3    H1 4920   7.698   4.981   0.243
 1659TIP3    H2 4921   7.794   5.008   0.128
 1660TIP3   OH2 4922   0.292   7.062   5.929
 1660TIP3    H1 4923   0.358   6.995   5.910
 1660TIP3    H2 4924   0.312   7.090   6.018
 1661TIP3   OH2 4925   5.922   2.635   2.179
 1661TIP3    H1 4926   5.827   2.636   2.196
 1661TIP3    H2 4927   5.939   2.545   2.150
 1662TIP3   OH2 4928   1.757   5.665   1.033
 1662TIP3    H1 4929   1.826   5.665   0.967
 1662TIP3    H2 4930   1.786   5.729   1.099
 1663TIP3   OH2 4931   2.917   1.943   0.059
 1663TIP3    H1 4932   2.971   1.868   0.033
 1663TIP3    H2 4933   2.881   1.919   0.145
 1664TIP3   OH2 4934   0.126   7.416   0.960
 1664TIP3    H1 4935   0.132   7.420   0.864
 1664TIP3    H2 4936   0.146   7.505   0.989
 1665TIP3   OH2 4937   5.517   7.753   1.137
 1665TIP3    H1 4938   5.439   7.808   1.130
 1665TIP3    H2 4939   5.569   7.795   1.205
 1666TIP3   OH2 4940   3.556   5.114   4.049
 1666TIP3    H1 4941   3.613   5.042   4.075
 1666TIP3    H2 4942   3.565   5.179   4.119
 1667TIP3   OH2 4943   1.275   2.006   1.488
 1667TIP3    H1 4944   1.300   1.917   1.462
 1667TIP3    H2 4945   1.353   2.042   1.529
 1668TIP3   OH2 4946   1.240   7.441   1.479
 1668TIP3    H1 4947   1.248   7.405   1.568
 1668TIP3    H2 4948   1.308   7.508   1.474
 1669TIP3   OH2 4949   1.497   3.182   0.092
 1669TIP3    H1 4950   1.510   3.241   0.166
 1669TIP3    H2 4951   1.491   3.240   0.016
 1670TIP3   OH2 4952   8.115   7.162   3.511
 1670TIP3    H1 4953   8.186   7.130   3.566
 1670TIP3    H2 4954   8.130   7.121   3.426
 1671TIP3   OH2 4955   2.650   0.700   0.443
 1671TIP3    H1 4956   2.710   0.755   0.492
 1671TIP3    H2 4957   2.591   0.762   0.399
 1672TIP3   OH2 4958   1.196   1.929   0.666
 1672TIP3    H1 4959   1.126   1.970   0.716
 1672TIP3    H2 4960   1.209   1.844   0.708
 1673TIP3   OH2 4961   3.395   3.134   6.531
 1673TIP3    H1 4962   3.442   3.067   6.581
 1673TIP3    H2 4963   3.425   3.122   6.441
 1674TIP3   OH2 4964   8.021   6.433   6.440
 1674TIP3    H1 4965   8.053   6.489   6.369
 1674TIP3    H2 4966   7.956   6.486   6.485
 1675TIP3   OH2 4967   4.442   7.431   3.181
 1675TIP3    H1 4968   4.382   7.458   3.251
 1675TIP3    H2 4969   4.524   7.410   3.227
 1676TIP3   OH2 4970   3.080   3.673   1.047
 1676TIP3    H1 4971   3.075   3.614   1.122
 1676TIP3    H2 4972   2.991   3.676   1.012
 1677TIP3   OH2 4973   4.986   2.009   4.734
 1677TIP3    H1 4974   5.063   1.968   4.693
 1677TIP3    H2 4975   4.911   1.963   4.696
 1678TIP3   OH2 4976   7.940   7.513   4.009
 1678TIP3    H1 4977   7.987   7.431   3.999
 1678TIP3    H2 4978   7.851   7.494   3.978
 1679TIP3   OH2 4979   2.824   7.264   6.388
 1679TIP3    H1 4980   2.765   7.190   6.377
 1679TIP3    H2 4981   2.777   7.324   6.446
 1680TIP3   OH2 4982   7.334   0.921   2.313
 1680TIP3    H1 4983   7.408   0.861   2.308
 1680TIP3    H2 4984   7.256   0.866   2.302
 1681TIP3   OH2 4985   1.177   4.184   3.578
 1681TIP3    H1 4986   1.159   4.124   3.506
 1681TIP3    H2 4987   1.094   4.192   3.624
 1682TIP3   OH2 4988   0.157   4.947   0.956
 1682TIP3    H1 4989   0.214   4.957   0.880
 1682TIP3    H2 4990   0.094   5.019   0.949
 1683TIP3   OH2 4991   7.114   0.716   0.163
 1683TIP3    H1 4992   7.157   0.746   0.083
 1683TIP3    H2 4993   7.059   0.789   0.190
 1684TIP3   OH2 4994   2.738   2.636   5.833
 1684TIP3    H1 4995   2.781   2.720   5.819
 1684TIP3    H2 4996   2.754   2.616   5.925
 1685TIP3   OH2 4997   1.303   5.329   0.158
 1685TIP3    H1 4998   1.367   5.391   0.122
 1685TIP3    H2 4999   1.266   5.284   0.082
 1686TIP3   OH2 5000   4.827   6.095   0.862
 1686TIP3    H1 5001   4.819   6.093   0.958
 1686TIP3    H2 5002   4.853   6.006   0.839
 1687TIP3   OH2 5003   2.079   2.671   5.708
 1687TIP3    H1 5004   2.167   2.652   5.675
 1687TIP3    H2 5005   2.037   2.585   5.713
 1688TIP3   OH2 5006   8.169   4.432   0.738
 1688TIP3    H1 5007   8.206   4.428   0.827
 1688TIP3    H2 5008   8.173   4.524   0.714
 1689TIP3   OH2 5009   1.756   6.342   3.002
 1689TIP3    H1 5010   1.785   6.317   2.914
 1689TIP3    H2 5011   1.701   6.419   2.988
 1690TIP3   OH2 5012   8.207   1.918   4.447
 1690TIP3    H1 5013   8.263   1.940   4.373
 1690TIP3    H2 5014   8.238   1.831   4.475
 1691TIP3   OH2 5015   7.897   2.507   6.167
 1691TIP3    H1 5016   7.834   2.562   6.121
 1691TIP3    H2 5017   7.974   2.562   6.178
 1692TIP3   OH2 5018   0.222   5.645   5.810
 1692TIP3    H1 5019   0.180   5.567   5.774
 1692TIP3    H2 5020   0.302   5.656   5.759
 1693TIP3   OH2 5021   3.782   0.393   5.064
 1693TIP3    H1 5022   3.741   0.416   4.981
 1693TIP3    H2 5023   3.836   0.316   5.045
 1694TIP3   OH2 5024   2.889   0.451   6.444
 1694TIP3    H1 5025   2.927   0.458   6.532
 1694TIP3    H2 5026   2.914   0.364   6.414
 1695TIP3   OH2 5027   1.955   3.337   3.955
 1695TIP3    H1 5028   2.034   3.294   3.924
 1695TIP3    H2 5029   1.941   3.301   4.043
 1696TIP3   OH2 5030   1.441   2.042   0.558
 1696TIP3    H1 5031   1.404   1.996   0.483
 1696TIP3    H2 5032   1.380   2.026   0.630
 1697TIP3   OH2 5033   2.495   7.767   1.718
 1697TIP3    H1 5034   2.548   7.821   1.777
 1697TIP3    H2 5035   2.459   7.828   1.654
 1698TIP3   OH2 5036   7.912   3.470   1.013
 1698TIP3    H1 5037   7.973   3.397   1.014
 1698TIP3    H2 5038   7.900   3.492   1.106
 1699TIP3   OH2 5039   6.763   1.567   1.674
 1699TIP3    H1 5040   6.821   1.644   1.669
 1699TIP3    H2 5041   6.752   1.552   1.768
 1700TIP3   OH2 5042   1.582   1.576   5.870
 1700TIP3    H1 5043   1.618   1.665   5.866
 1700TIP3    H2 5044   1.628   1.529   5.801
 1701TIP3   OH2 5045   1.406   0.490   3.352
 1701TIP3    H1 5046   1.342   0.537   3.406
 1701TIP3    H2 5047   1.358   0.468   3.272
 1702TIP3   OH2 5048   0.621   4.368   4.195
 1702TIP3    H1 5049   0.700   4.317   4.182
 1702TIP3    H2 5050   0.571   4.356   4.114
 1703TIP3   OH2 5051   2.216   7.471   0.694
 1703TIP3    H1 5052   2.230   7.551   0.745
 1703TIP3    H2 5053   2.236   7.497   0.604
 1704TIP3   OH2 5054   7.022   1.395   3.911
 1704TIP3    H1 5055   7.093   1.413   3.850
 1704TIP3    H2 5056   7.066   1.367   3.992
 1705TIP3   OH2 5057   3.652   5.119   1.579
 1705TIP3    H1 5058   3.724   5.064   1.548
 1705TIP3    H2 5059   3.575   5.084   1.535
 1706TIP3   OH2 5060   4.239   1.507   2.180
 1706TIP3    H1 5061   4.173   1.476   2.118
 1706TIP3    H2 5062   4.256   1.597   2.154
 1707TIP3   OH2 5063   7.760   7.092   2.746
 1707TIP3    H1 5064   7.820   7.084   2.820
 1707TIP3    H2 5065   7.788   7.025   2.684
 1708TIP3   OH2 5066   7.937   0.746   4.746
 1708TIP3    H1 5067   8.014   0.722   4.797
 1708TIP3    H2 5068   7.868   0.689   4.778
 1709TIP3   OH2 5069   1.057   2.022   3.031
 1709TIP3    H1 5070   1.008   1.943   3.053
 1709TIP3    H2 5071   1.055   2.075   3.111
 1710TIP3   OH2 5072   7.512   6.474   0.244
 1710TIP3    H1 5073   7.421   6.454   0.222
 1710TIP3    H2 5074   7.551   6.389   0.264
 1711TIP3   OH2 5075   1.479   2.852   0.790
 1711TIP3    H1 5076   1.565   2.815   0.809
 1711TIP3    H2 5077   1.469   2.842   0.695
 1712TIP3   OH2 5078   2.792   1.835   1.704
 1712TIP3    H1 5079   2.762   1.923   1.684
 1712TIP3    H2 5080   2.785   1.828   1.800
 1713TIP3   OH2 5081   6.240   4.020   2.485
 1713TIP3    H1 5082   6.157   4.005   2.439
 1713TIP3    H2 5083   6.244   4.115   2.494
 1714TIP3   OH2 5084   4.668   7.757   5.119
 1714TIP3    H1 5085   4.674   7.714   5.034
 1714TIP3    H2 5086   4.594   7.818   5.111
 1715TIP3   OH2 5087   7.801   4.099   1.993
 1715TIP3    H1 5088   7.760   4.119   2.077
 1715TIP3    H2 5089   7.893   4.124   2.005
 1716TIP3   OH2 5090   8.138   4.809   6.590
 1716TIP3    H1 5091   8.137   4.839   6.681
 1716TIP3    H2 5092   8.117   4.887   6.539
 1717TIP3   OH2 5093   1.308   7.799   2.083
 1717TIP3    H1 5094   1.325   7.805   2.177
 1717TIP3    H2 5095   1.379   7.744   2.050
 1718TIP3   OH2 5096   6.831   2.340   2.110
 1718TIP3    H1 5097   6.764   2.314   2.173
 1718TIP3    H2 5098   6.804   2.427   2.081
 1719TIP3   OH2 5099   1.612   1.868   1.620
 1719TIP3    H1 5100   1.655   1.888   1.537
 1719TIP3    H2 5101   1.680   1.826   1.673
 1720TIP3   OH2 5102   1.690   3.001   4.941
 1720TIP3    H1 5103   1.695   2.905   4.943
 1720TIP3    H2 5104   1.600   3.020   4.917
 1721TIP3   OH2 5105   3.725   0.527   4.363
 1721TIP3    H1 5106   3.697   0.568   4.445
 1721TIP3    H2 5107   3.804   0.478   4.386
 1722TIP3   OH2 5108   0.536   3.618   2.793
 1722TIP3    H1 5109   0.579   3.623   2.878
 1722TIP3    H2 5110   0.522   3.525   2.778
 1723TIP3   OH2 5111   2.682   3.623   6.403
 1723TIP3    H1 5112   2.607   3.632   6.344
 1723TIP3    H2 5113   2.648   3.574   6.478
 1724TIP3   OH2 5114   8.078   4.496   3.864
 1724TIP3    H1 5115   8.111   4.524   3.950
 1724TIP3    H2 5116   7.990   4.465   3.881
 1725TIP3   OH2 5117   6.164   3.654   3.743
 1725TIP3    H1 5118   6.175   3.611   3.827
 1725TIP3    H2 5119   6.100   3.723   3.759
 1726TIP3   OH2 5120   3.914   1.914   3.503
 1726TIP3    H1 5121   3.873   1.850   3.444
 1726TIP3    H2 5122   3.869   1.902   3.586
 1727TIP3   OH2 5123   6.556   0.663   0.789
 1727TIP3    H1 5124   6.583   0.754   0.803
 1727TIP3    H2 5125   6.473   0.670   0.741
 1728TIP3   OH2 5126   1.082   0.862   3.400
 1728TIP3    H1 5127   1.025   0.928   3.360
 1728TIP3    H2 5128   1.054   0.859   3.492
 1729TIP3   OH2 5129   0.069   3.068   3.952
 1729TIP3    H1 5130   0.007   3.106   3.890
 1729TIP3    H2 5131   0.118   3.003   3.900
 1730TIP3   OH2 5132   1.265   1.193   2.883
 1730TIP3    H1 5133   1.271   1.150   2.968
 1730TIP3    H2 5134   1.314   1.275   2.894
 1731TIP3   OH2 5135   0.765   6.627   4.234
 1731TIP3    H1 5136   0.693   6.601   4.177
 1731TIP3    H2 5137   0.765   6.723   4.232
 1732TIP3   OH2 5138   4.939   5.109   2.429
 1732TIP3    H1 5139   4.881   5.185   2.423
 1732TIP3    H2 5140   4.888   5.043   2.476
 1733TIP3   OH2 5141   1.578   1.391   4.393
 1733TIP3    H1 5142   1.617   1.323   4.338
 1733TIP3    H2 5143   1.517   1.344   4.449
 1734TIP3   OH2 5144   1.697   1.182   2.436
 1734TIP3    H1 5145   1.735   1.133   2.509
 1734TIP3    H2 5146   1.702   1.274   2.462
 1735TIP3   OH2 5147   7.534   3.545   0.074
 1735TIP3    H1 5148   7.626   3.549   0.102
 1735TIP3    H2 5149   7.519   3.452   0.055
 1736TIP3   OH2 5150   6.608   7.442   0.622
 1736TIP3    H1 5151   6.528   7.496   0.625
 1736TIP3    H2 5152   6.676   7.503   0.594
 1737TIP3   OH2 5153   4.667   6.309   1.676
 1737TIP3    H1 5154   4.721   6.343   1.605
 1737TIP3    H2 5155   4.578   6.309   1.641
 1738TIP3   OH2 5156   4.943   7.029   4.956
 1738TIP3    H1 5157   4.948   7.111   5.004
 1738TIP3    H2 5158   4.869   7.041   4.897
 1739TIP3   OH2 5159   4.210   2.706   3.377
 1739TIP3    H1 5160   4.121   2.742   3.378
 1739TIP3    H2 5161   4.245   2.730   3.292
 1740TIP3   OH2 5162   0.903   2.154   1.346
 1740TIP3    H1 5163   0.981   2.195   1.384
 1740TIP3    H2 5164   0.882   2.082   1.406
 1741TIP3   OH2 5165   5.377   0.845   3.498
 1741TIP3    H1 5166   5.361   0.920   3.440
 1741TIP3    H2 5167   5.306   0.849   3.562
 1742TIP3   OH2 5168   7.386   5.061   6.279
 1742TIP3    H1 5169   7.474   5.023   6.276
 1742TIP3    H2 5170   7.395   5.139   6.334
 1743TIP3   OH2 5171   2.607   5.316   4.156
 1743TIP3    H1 5172   2.583   5.354   4.241
 1743TIP3    H2 5173   2.616   5.391   4.097
 1744TIP3   OH2 5174   7.814   7.744   0.996
 1744TIP3    H1 5175   7.879   7.684   1.032
 1744TIP3    H2 5176   7.859   7.828   0.991
 1745TIP3   OH2 5177   5.036   6.179   3.123
 1745TIP3    H1 5178   5.054   6.249   3.061
 1745TIP3    H2 5179   4.950   6.146   3.097
 1746TIP3   OH2 5180   6.955   6.765   5.474
 1746TIP3    H1 5181   7.004   6.708   5.533
 1746TIP3    H2 5182   6.906   6.822   5.532
 1747TIP3   OH2 5183   3.313   0.859   1.039
 1747TIP3    H1 5184   3.311   0.765   1.024
 1747TIP3    H2 5185   3.321   0.868   1.134
 1748TIP3   OH2 5186   6.863   0.555   3.930
 1748TIP3    H1 5187   6.855   0.487   3.863
 1748TIP3    H2 5188   6.944   0.601   3.909
 1749TIP3   OH2 5189   7.610   0.991   3.435
 1749TIP3    H1 5190   7.525   1.007   3.476
 1749TIP3    H2 5191   7.669   1.056   3.473
 1750TIP3   OH2 5192   2.249   6.216   6.318
 1750TIP3    H1 5193   2.269   6.303   6.352
 1750TIP3    H2 5194   2.154   6.206   6.331
 1751TIP3   OH2 5195   8.298   0.611   2.486
 1751TIP3    H1 5196   8.393   0.606   2.493
 1751TIP3    H2 5197   8.281   0.698   2.449
 1752TIP3   OH2 5198   4.208   0.744   3.190
 1752TIP3    H1 5199   4.221   0.815   3.252
 1752TIP3    H2 5200   4.259   0.769   3.113
 1753TIP3   OH2 5201   1.424   4.206   4.636
 1753TIP3    H1 5202   1.440   4.136   4.573
 1753TIP3    H2 5203   1.452   4.286   4.591
 1754TIP3   OH2 5204   3.284  -0.001   4.579
 1754TIP3    H1 5205   3.298   0.094   4.582
 1754TIP3    H2 5206   3.331  -0.030   4.501
 1755TIP3   OH2 5207   4.565   1.389   2.683
 1755TIP3    H1 5208   4.650   1.345   2.683
 1755TIP3    H2 5209   4.502   1.319   2.699
 1756TIP3   OH2 5210   1.111   3.791   1.794
 1756TIP3    H1 5211   1.108   3.697   1.777
 1756TIP3    H2 5212   1.193   3.820   1.755
 1757TIP3   OH2 5213   5.141   5.321   0.229
 1757TIP3    H1 5214   5.228   5.281   0.223
 1757TIP3    H2 5215   5.111   5.299   0.317
 1758TIP3   OH2 5216   5.519   3.308   3.945
 1758TIP3    H1 5217   5.478   3.393   3.962
 1758TIP3    H2 5218   5.518   3.299   3.850
 1759TIP3   OH2 5219   1.376   3.939   5.619
 1759TIP3    H1 5220   1.419   3.978   5.543
 1759TIP3    H2 5221   1.282   3.949   5.601
 1760TIP3   OH2 5222   0.441   6.245   2.125
 1760TIP3    H1 5223   0.411   6.241   2.215
 1760TIP3    H2 5224   0.504   6.318   2.124
 1761TIP3   OH2 5225   5.962   3.127   5.994
 1761TIP3    H1 5226   6.038   3.079   5.959
 1761TIP3    H2 5227   5.968   3.213   5.953
 1762TIP3   OH2 5228   0.426   3.300   3.805
 1762TIP3    H1 5229   0.421   3.360   3.879
 1762TIP3    H2 5230   0.414   3.213   3.844
 1763TIP3   OH2 5231   5.757   0.937   4.516
 1763TIP3    H1 5232   5.735   0.856   4.561
 1763TIP3    H2 5233   5.820   0.980   4.573
 1764TIP3   OH2 5234   6.314   7.779   1.757
 1764TIP3    H1 5235   6.257   7.706   1.782
 1764TIP3    H2 5236   6.382   7.780   1.824
 1765TIP3   OH2 5237   0.114   0.839   5.445
 1765TIP3    H1 5238   0.037   0.821   5.499
 1765TIP3    H2 5239   0.175   0.768   5.465
 1766TIP3   OH2 5240   4.354   4.897   3.414
 1766TIP3    H1 5241   4.406   4.940   3.346
 1766TIP3    H2 5242   4.362   4.803   3.394
 1767TIP3   OH2 5243   3.198   5.090   4.962
 1767TIP3    H1 5244   3.158   5.029   5.024
 1767TIP3    H2 5245   3.255   5.035   4.908
 1768TIP3   OH2 5246   5.319   1.338   6.324
 1768TIP3    H1 5247   5.380   1.374   6.260
 1768TIP3    H2 5248   5.264   1.413   6.349
 1769TIP3   OH2 5249   4.802   3.647   0.243
 1769TIP3    H1 5250   4.888   3.640   0.284
 1769TIP3    H2 5251   4.740   3.623   0.312
 1770TIP3   OH2 5252   1.143   0.322   6.576
 1770TIP3    H1 5253   1.143   0.417   6.585
 1770TIP3    H2 5254   1.143   0.289   6.666
 1771TIP3   OH2 5255   2.521   4.631   3.950
 1771TIP3    H1 5256   2.548   4.631   4.042
 1771TIP3    H2 5257   2.432   4.595   3.951
 1772TIP3   OH2 5258   5.213   5.244   2.045
 1772TIP3    H1 5259   5.138   5.275   1.994
 1772TIP3    H2 5260   5.183   5.247   2.136
 1773TIP3   OH2 5261   4.215   0.887   1.239
 1773TIP3    H1 5262   4.264   0.818   1.194
 1773TIP3    H2 5263   4.257   0.893   1.325
 1774TIP3   OH2 5264   5.177   7.616   5.436
 1774TIP3    H1 5265   5.266   7.583   5.431
 1774TIP3    H2 5266   5.123   7.539   5.455
 1775TIP3   OH2 5267   7.731   2.596   3.503
 1775TIP3    H1 5268   7.740   2.518   3.447
 1775TIP3    H2 5269   7.752   2.669   3.445
 1776TIP3   OH2 5270   0.839   4.996   0.585
 1776TIP3    H1 5271   0.925   5.035   0.568
 1776TIP3    H2 5272   0.786   5.018   0.509
 1777TIP3   OH2 5273   4.648   4.248   0.116
 1777TIP3    H1 5274   4.614   4.242   0.205
 1777TIP3    H2 5275   4.714   4.317   0.119
 1778TIP3   OH2 5276   5.021   0.674   6.709
 1778TIP3    H1 5277   5.081   0.680   6.783
 1778TIP3    H2 5278   4.988   0.763   6.698
 1779TIP3   OH2 5279   4.729   1.229   3.080
 1779TIP3    H1 5280   4.716   1.232   2.985
 1779TIP3    H2 5281   4.647   1.195   3.115
 1780TIP3   OH2 5282   2.032   4.224   2.653
 1780TIP3    H1 5283   2.044   4.191   2.564
 1780TIP3    H2 5284   2.005   4.315   2.641
 1781TIP3   OH2 5285   4.374   2.450   5.110
 1781TIP3    H1 5286   4.431   2.527   5.106
 1781TIP3    H2 5287   4.293   2.481   5.151
 1782TIP3   OH2 5288   5.181   4.965   6.546
 1782TIP3    H1 5289   5.192   4.946   6.453
 1782TIP3    H2 5290   5.259   5.015   6.571
 1783TIP3   OH2 5291   2.231   0.380   3.947
 1783TIP3    H1 5292   2.174   0.457   3.946
 1783TIP3    H2 5293   2.187   0.317   3.890
 1784TIP3   OH2 5294   1.124   3.808   3.940
 1784TIP3    H1 5295   1.104   3.839   4.028
 1784TIP3    H2 5296   1.212   3.771   3.947
 1785TIP3   OH2 5297   4.934   3.052   4.103
 1785TIP3    H1 5298   4.993   3.108   4.153
 1785TIP3    H2 5299   4.969   3.053   4.014
 1786TIP3   OH2 5300   3.590   3.503   0.653
 1786TIP3    H1 5301   3.638   3.533   0.731
 1786TIP3    H2 5302   3.508   3.554   0.655
 1787TIP3   OH2 5303   2.593   6.953   2.092
 1787TIP3    H1 5304   2.515   6.985   2.046
 1787TIP3    H2 5305   2.650   7.030   2.098
 1788TIP3   OH2 5306   2.102   1.645   2.423
 1788TIP3    H1 5307   2.175   1.607   2.471
 1788TIP3    H2 5308   2.032   1.652   2.488
 1789TIP3   OH2 5309   7.402   7.836   0.901
 1789TIP3    H1 5310   7.496   7.853   0.892
 1789TIP3    H2 5311   7.392   7.745   0.873
 1790TIP3   OH2 5312   2.318   5.923   3.438
 1790TIP3    H1 5313   2.273   5.844   3.407
 1790TIP3    H2 5314   2.250   5.990   3.440
 1791TIP3   OH2 5315   7.649   1.246   6.522
 1791TIP3    H1 5316   7.565   1.212   6.491
 1791TIP3    H2 5317   7.694   1.275   6.443
 1792TIP3   OH2 5318   7.004   2.119   1.170
 1792TIP3    H1 5319   7.033   2.150   1.084
 1792TIP3    H2 5320   6.981   2.027   1.156
 1793TIP3   OH2 5321   7.387   2.821   3.635
 1793TIP3    H1 5322   7.326   2.889   3.607
 1793TIP3    H2 5323   7.339   2.739   3.620
 1794TIP3   OH2 5324   0.647   0.415   6.207
 1794TIP3    H1 5325   0.656   0.433   6.301
 1794TIP3    H2 5326   0.552   0.418   6.192
 1795TIP3   OH2 5327   6.368   4.199   2.155
 1795TIP3    H1 5328   6.326   4.119   2.124
 1795TIP3    H2 5329   6.435   4.169   2.217
 1796TIP3   OH2 5330   3.301   1.738   3.848
 1796TIP3    H1 5331   3.336   1.824   3.824
 1796TIP3    H2 5332   3.356   1.709   3.921
 1797TIP3   OH2 5333   1.281   0.198   3.353
 1797TIP3    H1 5334   1.317   0.276   3.395
 1797TIP3    H2 5335   1.350   0.167   3.295
 1798TIP3   OH2 5336   4.069   5.835   0.403
 1798TIP3    H1 5337   4.083   5.875   0.489
 1798TIP3    H2 5338   4.157   5.814   0.372
 1799TIP3   OH2 5339   7.702   7.350   5.890
 1799TIP3    H1 5340   7.715   7.395   5.807
 1799TIP3    H2 5341   7.719   7.258   5.871
 1800TIP3   OH2 5342   7.979   4.358   6.663
 1800TIP3    H1 5343   7.936   4.299   6.601
 1800TIP3    H2 5344   8.033   4.415   6.609
 1801TIP3   OH2 5345   6.397   7.200   4.055
 1801TIP3    H1 5346   6.488   7.171   4.068
 1801TIP3    H2 5347   6.347   7.152   4.122
 1802TIP3   OH2 5348   4.089   7.044   6.457
 1802TIP3    H1 5349   4.006   7.063   6.413
 1802TIP3    H2 5350   4.132   6.979   6.401
 1803TIP3   OH2 5351   7.056   5.497   0.870
 1803TIP3    H1 5352   7.112   5.427   0.902
 1803TIP3    H2 5353   6.997   5.455   0.807
 1804TIP3   OH2 5354   5.837   3.710   6.248
 1804TIP3    H1 5355   5.843   3.617   6.223
 1804TIP3    H2 5356   5.872   3.757   6.172
 1805TIP3   OH2 5357   4.981   3.210   5.944
 1805TIP3    H1 5358   5.023   3.144   5.888
 1805TIP3    H2 5359   4.913   3.162   5.991
 1806TIP3   OH2 5360   7.423   3.103   1.699
 1806TIP3    H1 5361   7.413   3.141   1.787
 1806TIP3    H2 5362   7.389   3.014   1.707
 1807TIP3   OH2 5363   6.523   4.484   1.346
 1807TIP3    H1 5364   6.464   4.435   1.403
 1807TIP3    H2 5365   6.529   4.571   1.386
 1808TIP3   OH2 5366   0.410   0.256   1.743
 1808TIP3    H1 5367   0.370   0.253   1.830
 1808TIP3    H2 5368   0.475   0.325   1.749
 1809TIP3   OH2 5369   3.969   7.158   1.109
 1809TIP3    H1 5370   4.050   7.114   1.084
 1809TIP3    H2 5371   3.904   7.126   1.045
 1810TIP3   OH2 5372   0.661   4.688   2.162
 1810TIP3    H1 5373   0.669   4.777   2.196
 1810TIP3    H2 5374   0.622   4.699   2.075
 1811TIP3   OH2 5375   4.385   0.530   1.754
 1811TIP3    H1 5376   4.415   0.474   1.825
 1811TIP3    H2 5377   4.298   0.496   1.732
 1812TIP3   OH2 5378   1.176   3.943   2.829
 1812TIP3    H1 5379   1.118   3.998   2.882
 1812TIP3    H2 5380   1.141   3.855   2.840
 1813TIP3   OH2 5381   5.040   2.541   5.087
 1813TIP3    H1 5382   5.060   2.492   5.167
 1813TIP3    H2 5383   4.987   2.480   5.034
 1814TIP3   OH2 5384   3.941   0.869   2.966
 1814TIP3    H1 5385   3.997   0.834   2.895
 1814TIP3    H2 5386   3.947   0.803   3.035
 1815TIP3   OH2 5387   7.804   5.234   6.289
 1815TIP3    H1 5388   7.787   5.170   6.219
 1815TIP3    H2 5389   7.819   5.316   6.243
 1816TIP3   OH2 5390   7.930   1.140   3.827
 1816TIP3    H1 5391   8.011   1.139   3.878
 1816TIP3    H2 5392   7.883   1.217   3.857
 1817TIP3   OH2 5393   5.676   1.769   3.984
 1817TIP3    H1 5394   5.696   1.773   4.078
 1817TIP3    H2 5395   5.658   1.676   3.968
 1818TIP3   OH2 5396   4.839   2.146   3.358
 1818TIP3    H1 5397   4.861   2.054   3.370
 1818TIP3    H2 5398   4.782   2.167   3.431
 1819TIP3   OH2 5399   1.533   0.461   5.252
 1819TIP3    H1 5400   1.470   0.505   5.309
 1819TIP3    H2 5401   1.480   0.400   5.200
 1820TIP3   OH2 5402   6.887   0.824   5.422
 1820TIP3    H1 5403   6.928   0.740   5.444
 1820TIP3    H2 5404   6.853   0.857   5.505
 1821TIP3   OH2 5405   5.193   4.577   6.218
 1821TIP3    H1 5406   5.264   4.580   6.153
 1821TIP3    H2 5407   5.217   4.503   6.274
 1822TIP3   OH2 5408   1.906   4.361   6.149
 1822TIP3    H1 5409   1.919   4.321   6.234
 1822TIP3    H2 5410   1.823   4.325   6.118
 1823TIP3   OH2 5411   1.550   2.412   2.711
 1823TIP3    H1 5412   1.462   2.386   2.685
 1823TIP3    H2 5413   1.559   2.502   2.681
 1824TIP3   OH2 5414   2.787   5.533   3.227
 1824TIP3    H1 5415   2.742   5.521   3.311
 1824TIP3    H2 5416   2.816   5.624   3.228
 1825TIP3   OH2 5417   0.616   6.508   2.579
 1825TIP3    H1 5418   0.676   6.581   2.568
 1825TIP3    H2 5419   0.653   6.438   2.526
 1826TIP3   OH2 5420   1.560   4.931   3.381
 1826TIP3    H1 5421   1.538   4.934   3.288
 1826TIP3    H2 5422   1.561   4.838   3.403
 1827TIP3   OH2 5423   7.204   3.104   4.270
 1827TIP3    H1 5424   7.270   3.035   4.271
 1827TIP3    H2 5425   7.173   3.106   4.180
 1828TIP3   OH2 5426   2.628   5.455   6.307
 1828TIP3    H1 5427   2.715   5.495   6.314
 1828TIP3    H2 5428   2.602   5.440   6.398
 1829TIP3   OH2 5429   2.187   3.592   6.687
 1829TIP3    H1 5430   2.218   3.674   6.724
 1829TIP3    H2 5431   2.119   3.618   6.625
 1830TIP3   OH2 5432   5.120   7.496   0.238
 1830TIP3    H1 5433   5.181   7.423   0.225
 1830TIP3    H2 5434   5.148   7.562   0.175
 1831TIP3   OH2 5435   5.173   4.619   2.177
 1831TIP3    H1 5436   5.208   4.579   2.257
 1831TIP3    H2 5437   5.201   4.561   2.107
 1832TIP3   OH2 5438   8.199   1.869   0.229
 1832TIP3    H1 5439   8.262   1.815   0.276
 1832TIP3    H2 5440   8.209   1.957   0.266
 1833TIP3   OH2 5441   0.191   0.570   1.371
 1833TIP3    H1 5442   0.245   0.597   1.297
 1833TIP3    H2 5443   0.221   0.624   1.444
 1834TIP3   OH2 5444   3.084   5.365   4.610
 1834TIP3    H1 5445   3.005   5.420   4.602
 1834TIP3    H2 5446   3.125   5.395   4.691
 1835TIP3   OH2 5447   6.530   1.769   4.776
 1835TIP3    H1 5448   6.463   1.830   4.746
 1835TIP3    H2 5449   6.534   1.703   4.708
 1836TIP3   OH2 5450   2.917   7.122   5.738
 1836TIP3    H1 5451   2.986   7.103   5.800
 1836TIP3    H2 5452   2.876   7.037   5.720
 1837TIP3   OH2 5453   0.985   2.202   5.684
 1837TIP3    H1 5454   1.071   2.196   5.641
 1837TIP3    H2 5455   1.002   2.253   5.763
 1838TIP3   OH2 5456   6.449   0.310   5.853
 1838TIP3    H1 5457   6.383   0.303   5.921
 1838TIP3    H2 5458   6.400   0.309   5.771
 1839TIP3   OH2 5459   3.161   5.961   0.069
 1839TIP3    H1 5460   3.253   5.965   0.096
 1839TIP3    H2 5461   3.163   5.978  -0.025
 1840TIP3   OH2 5462   5.671   1.428   5.423
 1840TIP3    H1 5463   5.707   1.399   5.340
 1840TIP3    H2 5464   5.726   1.502   5.449
 1841TIP3   OH2 5465   7.854   3.178   3.415
 1841TIP3    H1 5466   7.823   3.119   3.346
 1841TIP3    H2 5467   7.818   3.263   3.393
 1842TIP3   OH2 5468   3.391   4.944   2.427
 1842TIP3    H1 5469   3.467   4.886   2.431
 1842TIP3    H2 5470   3.426   5.030   2.403
 1843TIP3   OH2 5471   4.944   1.543   2.228
 1843TIP3    H1 5472   4.921   1.495   2.308
 1843TIP3    H2 5473   5.012   1.605   2.256
 1844TIP3   OH2 5474   7.070   3.630   6.636
 1844TIP3    H1 5475   7.151   3.591   6.671
 1844TIP3    H2 5476   7.030   3.674   6.711
 1845TIP3   OH2 5477   5.460   5.613   3.513
 1845TIP3    H1 5478   5.505   5.616   3.430
 1845TIP3    H2 5479   5.515   5.559   3.569
 1846TIP3   OH2 5480   3.144   1.889   4.135
 1846TIP3    H1 5481   3.152   1.984   4.142
 1846TIP3    H2 5482   3.231   1.856   4.155
 1847TIP3   OH2 5483   3.931   7.562   2.924
 1847TIP3    H1 5484   3.901   7.572   2.833
 1847TIP3    H2 5485   3.931   7.468   2.940
 1848TIP3   OH2 5486   7.248   5.397   4.861
 1848TIP3    H1 5487   7.281   5.408   4.772
 1848TIP3    H2 5488   7.207   5.311   4.861
 1849TIP3   OH2 5489   6.046   4.339   2.756
 1849TIP3    H1 5490   6.017   4.261   2.710
 1849TIP3    H2 5491   5.994   4.410   2.719
 1850TIP3   OH2 5492   1.013   0.052   5.446
 1850TIP3    H1 5493   1.101   0.068   5.411
 1850TIP3    H2 5494   0.954   0.082   5.377
 1851TIP3   OH2 5495   5.147   2.245   2.990
 1851TIP3    H1 5496   5.184   2.269   2.905
 1851TIP3    H2 5497   5.099   2.323   3.018
 1852TIP3   OH2 5498   2.026   1.299   0.507
 1852TIP3    H1 5499   2.121   1.316   0.508
 1852TIP3    H2 5500   1.992   1.361   0.443
 1853TIP3   OH2 5501   1.349   5.836   0.963
 1853TIP3    H1 5502   1.358   5.917   0.912
 1853TIP3    H2 5503   1.366   5.766   0.899
 1854TIP3   OH2 5504   6.827   5.203   1.121
 1854TIP3    H1 5505   6.780   5.215   1.039
 1854TIP3    H2 5506   6.769   5.150   1.175
 1855TIP3   OH2 5507   7.109   7.751   3.408
 1855TIP3    H1 5508   7.161   7.673   3.386
 1855TIP3    H2 5509   7.170   7.809   3.453
 1856TIP3   OH2 5510   2.432   0.933   6.566
 1856TIP3    H1 5511   2.427   0.850   6.517
 1856TIP3    H2 5512   2.344   0.944   6.602
 1857TIP3   OH2 5513   5.383   0.890   5.414
 1857TIP3    H1 5514   5.336   0.853   5.488
 1857TIP3    H2 5515   5.323   0.954   5.376
 1858TIP3   OH2 5516   0.257   3.253   0.822
 1858TIP3    H1 5517   0.336   3.262   0.875
 1858TIP3    H2 5518   0.185   3.279   0.880
 1859TIP3   OH2 5519   0.299   7.743   5.799
 1859TIP3    H1 5520   0.253   7.713   5.721
 1859TIP3    H2 5521   0.391   7.750   5.772
 1860TIP3   OH2 5522   4.981   1.934   0.367
 1860TIP3    H1 5523   4.987   2.029   0.353
 1860TIP3    H2 5524   5.069   1.908   0.395
 1861TIP3   OH2 5525   2.154   4.841   4.227
 1861TIP3    H1 5526   2.227   4.873   4.279
 1861TIP3    H2 5527   2.078   4.889   4.258
 1862TIP3   OH2 5528   6.745   0.975   5.641
 1862TIP3    H1 5529   6.671   1.035   5.651
 1862TIP3    H2 5530   6.708   0.889   5.659
 1863TIP3   OH2 5531   7.350   2.816   4.506
 1863TIP3    H1 5532   7.262   2.827   4.541
 1863TIP3    H2 5533   7.377   2.729   4.536
 1864TIP3   OH2 5534   3.103   4.477   5.853
 1864TIP3    H1 5535   3.019   4.443   5.824
 1864TIP3    H2 5536   3.111   4.562   5.809
 1865TIP3   OH2 5537   2.224   7.221   2.556
 1865TIP3    H1 5538   2.192   7.306   2.586
 1865TIP3    H2 5539   2.251   7.176   2.636
 1866TIP3   OH2 5540   0.697   5.527   4.953
 1866TIP3    H1 5541   0.691   5.441   4.913
 1866TIP3    H2 5542   0.681   5.512   5.046
 1867TIP3   OH2 5543   4.796   3.687   3.867
 1867TIP3    H1 5544   4.795   3.623   3.795
 1867TIP3    H2 5545   4.726   3.659   3.925
 1868TIP3   OH2 5546   6.817   3.481   0.469
 1868TIP3    H1 5547   6.762   3.426   0.413
 1868TIP3    H2 5548   6.847   3.423   0.538
 1869TIP3   OH2 5549   0.664   3.526   3.315
 1869TIP3    H1 5550   0.737   3.551   3.371
 1869TIP3    H2 5551   0.587   3.536   3.371
 1870TIP3   OH2 5552   0.785   0.292   6.010
 1870TIP3    H1 5553   0.872   0.303   6.047
 1870TIP3    H2 5554   0.727   0.334   6.073
 1871TIP3   OH2 5555   0.138   0.042   0.137
 1871TIP3    H1 5556   0.196   0.080   0.203
 1871TIP3    H2 5557   0.188  -0.030   0.100
 1872TIP3   OH2 5558   5.836   7.758   2.355
 1872TIP3    H1 5559   5.769   7.719   2.299
 1872TIP3    H2 5560   5.859   7.840   2.311
 1873TIP3   OH2 5561   2.618   4.786   2.693
 1873TIP3    H1 5562   2.566   4.864   2.710
 1873TIP3    H2 5563   2.565   4.734   2.633
 1874TIP3   OH2 5564   7.377   6.486   1.663
 1874TIP3    H1 5565   7.284   6.464   1.672
 1874TIP3    H2 5566   7.384   6.526   1.576
 1875TIP3   OH2 5567   2.867   5.186   2.626
 1875TIP3    H1 5568   2.858   5.243   2.703
 1875TIP3    H2 5569   2.779   5.184   2.588
 1876TIP3   OH2 5570   7.165   2.586   0.167
 1876TIP3    H1 5571   7.081   2.590   0.122
 1876TIP3    H2 5572   7.211   2.513   0.125
 1877TIP3   OH2 5573   8.077   5.583   4.407
 1877TIP3    H1 5574   8.129   5.504   4.390
 1877TIP3    H2 5575   8.130   5.654   4.371
 1878TIP3   OH2 5576   6.300   5.885   6.397
 1878TIP3    H1 5577   6.261   5.970   6.377
 1878TIP3    H2 5578   6.346   5.897   6.479
 1879TIP3   OH2 5579   2.461   7.794   4.846
 1879TIP3    H1 5580   2.400   7.759   4.911
 1879TIP3    H2 5581   2.520   7.721   4.827
 1880TIP3   OH2 5582   0.318   4.864   4.817
 1880TIP3    H1 5583   0.312   4.847   4.911
 1880TIP3    H2 5584   0.346   4.955   4.810
 1881TIP3   OH2 5585   0.220   5.757   2.853
 1881TIP3    H1 5586   0.237   5.681   2.797
 1881TIP3    H2 5587   0.194   5.826   2.792
 1882TIP3   OH2 5588   1.340   3.242   2.322
 1882TIP3    H1 5589   1.333   3.283   2.235
 1882TIP3    H2 5590   1.344   3.315   2.383
 1883TIP3   OH2 5591   5.134   1.144   4.434
 1883TIP3    H1 5592   5.186   1.063   4.439
 1883TIP3    H2 5593   5.044   1.115   4.448
 1884TIP3   OH2 5594   7.768   5.792   1.677
 1884TIP3    H1 5595   7.858   5.763   1.664
 1884TIP3    H2 5596   7.757   5.866   1.617
 1885TIP3   OH2 5597   6.286   6.330   1.678
 1885TIP3    H1 5598   6.304   6.238   1.658
 1885TIP3    H2 5599   6.372   6.367   1.699
 1886TIP3   OH2 5600   8.357   2.936   4.841
 1886TIP3    H1 5601   8.335   2.844   4.857
 1886TIP3    H2 5602   8.291   2.985   4.890
 1887TIP3   OH2 5603   4.376   2.071   2.763
 1887TIP3    H1 5604   4.310   2.137   2.787
 1887TIP3    H2 5605   4.459   2.119   2.762
 1888TIP3   OH2 5606   0.566   2.776   1.029
 1888TIP3    H1 5607   0.506   2.705   1.053
 1888TIP3    H2 5608   0.624   2.737   0.963
 1889TIP3   OH2 5609   0.330   0.428   2.018
 1889TIP3    H1 5610   0.346   0.521   2.036
 1889TIP3    H2 5611   0.263   0.403   2.080
 1890TIP3   OH2 5612   4.721   3.963   0.145
 1890TIP3    H1 5613   4.815   3.971   0.128
 1890TIP3    H2 5614   4.687   4.051   0.129
 1891TIP3   OH2 5615   3.835   4.159   2.304
 1891TIP3    H1 5616   3.832   4.077   2.353
 1891TIP3    H2 5617   3.929   4.173   2.287
 1892TIP3   OH2 5618   8.044   4.580   3.245
 1892TIP3    H1 5619   8.118   4.520   3.235
 1892TIP3    H2 5620   8.055   4.644   3.174
 1893TIP3   OH2 5621   7.317   1.352   5.224
 1893TIP3    H1 5622   7.341   1.374   5.314
 1893TIP3    H2 5623   7.229   1.315   5.231
 1894TIP3   OH2 5624   0.977   0.591   4.508
 1894TIP3    H1 5625   0.927   0.628   4.581
 1894TIP3    H2 5626   0.975   0.496   4.524
 1895TIP3   OH2 5627   4.783   2.844   2.563
 1895TIP3    H1 5628   4.784   2.938   2.577
 1895TIP3    H2 5629   4.725   2.831   2.488
 1896TIP3   OH2 5630   1.820   4.831   3.271
 1896TIP3    H1 5631   1.824   4.861   3.362
 1896TIP3    H2 5632   1.881   4.757   3.268
 1897TIP3   OH2 5633   2.034   4.523   5.954
 1897TIP3    H1 5634   1.973   4.473   6.007
 1897TIP3    H2 5635   2.046   4.605   6.002
 1898TIP3   OH2 5636   3.333   7.726   4.689
 1898TIP3    H1 5637   3.339   7.649   4.745
 1898TIP3    H2 5638   3.267   7.781   4.731
 1899TIP3   OH2 5639   5.043   6.867   6.724
 1899TIP3    H1 5640   5.063   6.786   6.771
 1899TIP3    H2 5641   5.047   6.935   6.791
 1900TIP3   OH2 5642   6.018   1.322   4.828
 1900TIP3    H1 5643   6.063   1.282   4.902
 1900TIP3    H2 5644   5.934   1.352   4.864
 1901TIP3   OH2 5645   4.229   5.879   4.386
 1901TIP3    H1 5646   4.174   5.957   4.380
 1901TIP3    H2 5647   4.289   5.897   4.459
 1902TIP3   OH2 5648   3.755   3.140   6.058
 1902TIP3    H1 5649   3.790   3.051   6.048
 1902TIP3    H2 5650   3.794   3.172   6.139
 1903TIP3   OH2 5651   4.834   1.194   4.415
 1903TIP3    H1 5652   4.857   1.205   4.507
 1903TIP3    H2 5653   4.752   1.242   4.405
 1904TIP3   OH2 5654   4.867   1.357   5.809
 1904TIP3    H1 5655   4.850   1.283   5.751
 1904TIP3    H2 5656   4.784   1.371   5.854
 1905TIP3   OH2 5657   5.246   3.457   0.254
 1905TIP3    H1 5658   5.216   3.384   0.200
 1905TIP3    H2 5659   5.186   3.458   0.329
 1906TIP3   OH2 5660   3.009   0.610   1.351
 1906TIP3    H1 5661   2.993   0.683   1.291
 1906TIP3    H2 5662   3.012   0.533   1.295
 1907TIP3   OH2 5663   7.652   7.263   4.878
 1907TIP3    H1 5664   7.630   7.351   4.909
 1907TIP3    H2 5665   7.609   7.256   4.793
 1908TIP3   OH2 5666   5.855   6.838   5.722
 1908TIP3    H1 5667   5.945   6.835   5.692
 1908TIP3    H2 5668   5.857   6.893   5.800
 1909TIP3   OH2 5669   6.942   2.939   6.119
 1909TIP3    H1 5670   6.971   3.009   6.060
 1909TIP3    H2 5671   7.018   2.922   6.174
 1910TIP3   OH2 5672   6.884   4.457   1.259
 1910TIP3    H1 5673   6.835   4.394   1.313
 1910TIP3    H2 5674   6.973   4.422   1.258
 1911TIP3   OH2 5675   0.414   5.443   6.166
 1911TIP3    H1 5676   0.327   5.457   6.128
 1911TIP3    H2 5677   0.441   5.529   6.197
 1912TIP3   OH2 5678   8.213   6.601   1.103
 1912TIP3    H1 5679   8.218   6.560   1.189
 1912TIP3    H2 5680   8.293   6.572   1.058
 1913TIP3   OH2 5681   4.961   6.678   5.366
 1913TIP3    H1 5682   4.944   6.674   5.272
 1913TIP3    H2 5683   4.973   6.772   5.384
 1914TIP3   OH2 5684   0.456   5.134   3.276
 1914TIP3    H1 5685   0.540   5.147   3.320
 1914TIP3    H2 5686   0.413   5.219   3.281
 1915TIP3   OH2 5687   6.840   6.944   4.345
 1915TIP3    H1 5688   6.786   7.013   4.307
 1915TIP3    H2 5689   6.906   6.990   4.396
 1916TIP3   OH2 5690   4.618   4.762   2.429
 1916TIP3    H1 5691   4.540   4.813   2.405
 1916TIP3    H2 5692   4.639   4.712   2.349
 1917TIP3   OH2 5693   7.575   5.552   4.539
 1917TIP3    H1 5694   7.669   5.549   4.521
 1917TIP3    H2 5695   7.566   5.620   4.606
 1918TIP3   OH2 5696   5.669   5.529   0.013
 1918TIP3    H1 5697   5.641   5.476  -0.061
 1918TIP3    H2 5698   5.732   5.475   0.060
 1919TIP3   OH2 5699   0.294   2.763   6.552
 1919TIP3    H1 5700   0.384   2.758   6.585
 1919TIP3    H2 5701   0.273   2.857   6.555
 1920TIP3   OH2 5702   5.521   5.611   3.253
 1920TIP3    H1 5703   5.564   5.532   3.219
 1920TIP3    H2 5704   5.558   5.683   3.202
 1921TIP3   OH2 5705   0.356   5.542   3.775
 1921TIP3    H1 5706   0.355   5.546   3.870
 1921TIP3    H2 5707   0.298   5.469   3.753
 1922TIP3   OH2 5708   3.155   4.140   4.158
 1922TIP3    H1 5709   3.087   4.191   4.113
 1922TIP3    H2 5710   3.107   4.095   4.228
 1923TIP3   OH2 5711   2.389   5.387   3.917
 1923TIP3    H1 5712   2.304   5.342   3.912
 1923TIP3    H2 5713   2.367   5.480   3.922
 1924TIP3   OH2 5714   4.827   5.327   2.191
 1924TIP3    H1 5715   4.915   5.309   2.224
 1924TIP3    H2 5716   4.803   5.410   2.232
 1925TIP3   OH2 5717   3.169   6.731   1.386
 1925TIP3    H1 5718   3.177   6.772   1.300
 1925TIP3    H2 5719   3.180   6.804   1.448
 1926TIP3   OH2 5720   1.220   5.451   0.415
 1926TIP3    H1 5721   1.297   5.507   0.425
 1926TIP3    H2 5722   1.235   5.405   0.332
 1927TIP3   OH2 5723   0.326   3.992   5.199
 1927TIP3    H1 5724   0.294   4.052   5.265
 1927TIP3    H2 5725   0.344   4.047   5.123
 1928TIP3   OH2 5726   4.133   5.202   6.606
 1928TIP3    H1 5727   4.145   5.137   6.536
 1928TIP3    H2 5728   4.119   5.149   6.684
 1929TIP3   OH2 5729   5.954   4.599   3.002
 1929TIP3    H1 5730   5.983   4.553   3.081
 1929TIP3    H2 5731   5.879   4.548   2.970
 1930TIP3   OH2 5732   5.807   7.461   5.642
 1930TIP3    H1 5733   5.875   7.479   5.577
 1930TIP3    H2 5734   5.798   7.366   5.641
 1931TIP3   OH2 5735   8.236   1.501   0.323
 1931TIP3    H1 5736   8.177   1.569   0.355
 1931TIP3    H2 5737   8.306   1.497   0.387
 1932TIP3   OH2 5738   1.117   5.016   1.328
 1932TIP3    H1 5739   1.029   5.003   1.292
 1932TIP3    H2 5740   1.107   5.002   1.422
 1933TIP3   OH2 5741   1.540   2.123   1.315
 1933TIP3    H1 5742   1.514   2.030   1.309
 1933TIP3    H2 5743   1.535   2.154   1.224
 1934TIP3   OH2 5744   5.993   6.822   4.341
 1934TIP3    H1 5745   5.950   6.906   4.328
 1934TIP3    H2 5746   5.927   6.769   4.387
 1935TIP3   OH2 5747   6.809   0.748   0.982
 1935TIP3    H1 5748   6.859   0.827   0.962
 1935TIP3    H2 5749   6.841   0.683   0.919
 1936TIP3   OH2 5750   3.723   4.766   5.787
 1936TIP3    H1 5751   3.741   4.802   5.874
 1936TIP3    H2 5752   3.658   4.698   5.802
 1937TIP3   OH2 5753   7.022   4.733   1.167
 1937TIP3    H1 5754   7.048   4.754   1.256
 1937TIP3    H2 5755   7.073   4.656   1.144
 1938TIP3   OH2 5756   4.961   1.731   0.554
 1938TIP3    H1 5757   4.966   1.804   0.491
 1938TIP3    H2 5758   5.048   1.693   0.554
 1939TIP3   OH2 5759   0.788   3.606   0.275
 1939TIP3    H1 5760   0.825   3.624   0.361
 1939TIP3    H2 5761   0.717   3.544   0.291
 1940TIP3   OH2 5762   4.258   0.580   4.522
 1940TIP3    H1 5763   4.275   0.558   4.614
 1940TIP3    H2 5764   4.231   0.497   4.482
 1941TIP3   OH2 5765   2.965   6.376   4.043
 1941TIP3    H1 5766   2.872   6.364   4.025
 1941TIP3    H2 5767   3.009   6.324   3.976
 1942TIP3   OH2 5768   1.151   5.306   2.475
 1942TIP3    H1 5769   1.155   5.298   2.570
 1942TIP3    H2 5770   1.242   5.305   2.447
 1943TIP3   OH2 5771   7.072   6.139   4.472
 1943TIP3    H1 5772   7.132   6.097   4.410
 1943TIP3    H2 5773   7.108   6.227   4.483
 1944TIP3   OH2 5774   3.842   3.632   2.628
 1944TIP3    H1 5775   3.769   3.572   2.617
 1944TIP3    H2 5776   3.803   3.713   2.660
 1945TIP3   OH2 5777   0.179   7.620   1.124
 1945TIP3    H1 5778   0.269   7.642   1.102
 1945TIP3    H2 5779   0.175   7.626   1.220
 1946TIP3   OH2 5780   0.792   1.185   2.023
 1946TIP3    H1 5781   0.865   1.220   1.972
 1946TIP3    H2 5782   0.834   1.132   2.091
 1947TIP3   OH2 5783   0.798   4.306   6.773
 1947TIP3    H1 5784   0.839   4.342   6.694
 1947TIP3    H2 5785   0.733   4.372   6.798
 1948TIP3   OH2 5786   2.130   1.671   0.657
 1948TIP3    H1 5787   2.116   1.579   0.678
 1948TIP3    H2 5788   2.181   1.670   0.576
 1949TIP3   OH2 5789   0.494   0.314   5.188
 1949TIP3    H1 5790   0.457   0.361   5.114
 1949TIP3    H2 5791   0.589   0.326   5.179
 1950TIP3   OH2 5792   5.680   6.225   5.619
 1950TIP3    H1 5793   5.698   6.319   5.621
 1950TIP3    H2 5794   5.763   6.185   5.644
 1951TIP3   OH2 5795   8.135   1.475   5.362
 1951TIP3    H1 5796   8.084   1.534   5.417
 1951TIP3    H2 5797   8.072   1.408   5.335
 1952TIP3   OH2 5798   5.918   7.343   5.290
 1952TIP3    H1 5799   5.992   7.282   5.293
 1952TIP3    H2 5800   5.936   7.406   5.360
 1953TIP3   OH2 5801   7.783   7.495   2.982
 1953TIP3    H1 5802   7.736   7.413   3.001
 1953TIP3    H2 5803   7.788   7.497   2.887
 1954TIP3   OH2 5804   7.292   3.538   5.484
 1954TIP3    H1 5805   7.378   3.499   5.503
 1954TIP3    H2 5806   7.257   3.485   5.412
 1955TIP3   OH2 5807   0.199   1.580   5.926
 1955TIP3    H1 5808   0.213   1.530   6.006
 1955TIP3    H2 5809   0.114   1.623   5.940
 1956TIP3   OH2 5810   3.201   0.687   1.529
 1956TIP3    H1 5811   3.168   0.678   1.619
 1956TIP3    H2 5812   3.125   0.668   1.474
 1957TIP3   OH2 5813   5.563   7.519   5.750
 1957TIP3    H1 5814   5.633   7.500   5.687
 1957TIP3    H2 5815   5.491   7.463   5.723
 1958TIP3   OH2 5816   2.664   2.218   6.385
 1958TIP3    H1 5817   2.598   2.273   6.427
 1958TIP3    H2 5818   2.628   2.199   6.298
 1959TIP3   OH2 5819   1.526   4.885   4.592
 1959TIP3    H1 5820   1.527   4.918   4.682
 1959TIP3    H2 5821   1.559   4.959   4.540
 1960TIP3   OH2 5822   4.956   1.988   0.754
 1960TIP3    H1 5823   4.954   2.047   0.829
 1960TIP3    H2 5824   5.047   1.957   0.750
 1961TIP3   OH2 5825   7.084   0.122   1.992
 1961TIP3    H1 5826   7.150   0.060   2.023
 1961TIP3    H2 5827   7.118   0.208   2.015
 1962TIP3   OH2 5828   7.627   1.949   5.010
 1962TIP3    H1 5829   7.539   1.985   5.009
 1962TIP3    H2 5830   7.631   1.895   4.931
 1963TIP3   OH2 5831   4.427   6.937   3.143
 1963TIP3    H1 5832   4.438   6.868   3.078
 1963TIP3    H2 5833   4.334   6.960   3.139
 1964TIP3   OH2 5834   7.977   1.702   4.329
 1964TIP3    H1 5835   7.892   1.689   4.287
 1964TIP3    H2 5836   8.031   1.630   4.298
 1965TIP3   OH2 5837   3.878   3.930   6.224
 1965TIP3    H1 5838   3.961   3.883   6.213
 1965TIP3    H2 5839   3.837   3.889   6.300
 1966TIP3   OH2 5840   3.081   2.873   6.389
 1966TIP3    H1 5841   3.040   2.795   6.352
 1966TIP3    H2 5842   3.128   2.842   6.466
 1967TIP3   OH2 5843   5.622   3.546   4.404
 1967TIP3    H1 5844   5.610   3.478   4.469
 1967TIP3    H2 5845   5.682   3.508   4.340
 1968TIP3   OH2 5846   8.202   0.673   4.261
 1968TIP3    H1 5847   8.274   0.733   4.283
 1968TIP3    H2 5848   8.166   0.708   4.179
 1969TIP3   OH2 5849   7.356   6.669   3.061
 1969TIP3    H1 5850   7.264   6.692   3.051
 1969TIP3    H2 5851   7.387   6.724   3.133
 1970TIP3   OH2 5852   6.905   6.934   2.687
 1970TIP3    H1 5853   6.853   6.861   2.721
 1970TIP3    H2 5854   6.940   6.901   2.604
 1971TIP3   OH2 5855   0.508   1.170   2.698
 1971TIP3    H1 5856   0.569   1.124   2.756
 1971TIP3    H2 5857   0.457   1.100   2.657
 1972TIP3   OH2 5858   7.179   4.933   6.129
 1972TIP3    H1 5859   7.244   4.981   6.182
 1972TIP3    H2 5860   7.120   5.001   6.097
 1973TIP3   OH2 5861   4.483   5.560   5.850
 1973TIP3    H1 5862   4.562   5.513   5.825
 1973TIP3    H2 5863   4.411   5.507   5.815
 1974TIP3   OH2 5864   4.129   7.037   3.937
 1974TIP3    H1 5865   4.033   7.031   3.933
 1974TIP3    H2 5866   4.153   6.990   4.016
 1975TIP3   OH2 5867   1.693   7.355   3.878
 1975TIP3    H1 5868   1.768   7.396   3.920
 1975TIP3    H2 5869   1.723   7.268   3.854
 1976TIP3   OH2 5870   5.145   3.824   5.354
 1976TIP3    H1 5871   5.137   3.729   5.363
 1976TIP3    H2 5872   5.231   3.845   5.392
 1977TIP3   OH2 5873   3.079   5.857   0.863
 1977TIP3    H1 5874   3.085   5.870   0.958
 1977TIP3    H2 5875   3.105   5.941   0.825
 1978TIP3   OH2 5876   4.660   1.109   6.709
 1978TIP3    H1 5877   4.572   1.146   6.701
 1978TIP3    H2 5878   4.688   1.096   6.618
 1979TIP3   OH2 5879   6.586   4.687   1.610
 1979TIP3    H1 5880   6.658   4.729   1.562
 1979TIP3    H2 5881   6.610   4.595   1.614
 1980TIP3   OH2 5882   4.863   1.212   4.684
 1980TIP3    H1 5883   4.832   1.286   4.735
 1980TIP3    H2 5884   4.834   1.135   4.732
 1981TIP3   OH2 5885   5.550   4.001   0.163
 1981TIP3    H1 5886   5.531   4.089   0.131
 1981TIP3    H2 5887   5.561   4.012   0.258
 1982TIP3   OH2 5888   1.951   4.219   5.161
 1982TIP3    H1 5889   1.862   4.184   5.164
 1982TIP3    H2 5890   1.943   4.310   5.191
 1983TIP3   OH2 5891   2.764   2.663   3.730
 1983TIP3    H1 5892   2.761   2.650   3.825
 1983TIP3    H2 5893   2.682   2.707   3.709
 1984TIP3   OH2 5894   6.671   2.690   5.541
 1984TIP3    H1 5895   6.746   2.633   5.559
 1984TIP3    H2 5896   6.596   2.645   5.581
 1985TIP3   OH2 5897   2.699   6.642   5.460
 1985TIP3    H1 5898   2.715   6.551   5.432
 1985TIP3    H2 5899   2.775   6.664   5.513
 1986TIP3   OH2 5900   1.095   6.100   3.166
 1986TIP3    H1 5901   1.136   6.030   3.115
 1986TIP3    H2 5902   1.152   6.176   3.154
 1987TIP3   OH2 5903   1.786   5.487   0.242
 1987TIP3    H1 5904   1.825   5.407   0.208
 1987TIP3    H2 5905   1.755   5.464   0.329
 1988TIP3   OH2 5906   5.418   5.930   1.374
 1988TIP3    H1 5907   5.400   5.867   1.444
 1988TIP3    H2 5908   5.337   5.931   1.323
 1989TIP3   OH2 5909   3.126   5.413   5.451
 1989TIP3    H1 5910   3.132   5.333   5.504
 1989TIP3    H2 5911   3.032   5.429   5.443
 1990TIP3   OH2 5912   4.787   7.806   2.238
 1990TIP3    H1 5913   4.804   7.716   2.263
 1990TIP3    H2 5914   4.850   7.858   2.289
 1991TIP3   OH2 5915   5.140   6.271   6.179
 1991TIP3    H1 5916   5.125   6.309   6.093
 1991TIP3    H2 5917   5.179   6.185   6.162
 1992TIP3   OH2 5918   6.298   2.078   0.774
 1992TIP3    H1 5919   6.262   1.994   0.803
 1992TIP3    H2 5920   6.222   2.126   0.739
 1993TIP3   OH2 5921   5.630   4.025   3.825
 1993TIP3    H1 5922   5.692   4.032   3.751
 1993TIP3    H2 5923   5.654   3.943   3.868
 1994TIP3   OH2 5924   1.795   2.878   4.653
 1994TIP3    H1 5925   1.889   2.864   4.638
 1994TIP3    H2 5926   1.769   2.806   4.711
 1995TIP3   OH2 5927   7.785   2.472   3.966
 1995TIP3    H1 5928   7.770   2.530   3.892
 1995TIP3    H2 5929   7.751   2.387   3.938
 1996TIP3   OH2 5930   2.024   5.432   2.447
 1996TIP3    H1 5931   2.003   5.477   2.529
 1996TIP3    H2 5932   2.086   5.490   2.403
 1997TIP3   OH2 5933   7.958   5.936   2.788
 1997TIP3    H1 5934   7.885   5.882   2.760
 1997TIP3    H2 5935   7.999   5.886   2.859
 1998TIP3   OH2 5936   5.342   5.432   1.475
 1998TIP3    H1 5937   5.413   5.490   1.506
 1998TIP3    H2 5938   5.351   5.353   1.528
 1999TIP3   OH2 5939   7.661   6.232   3.903
 1999TIP3    H1 5940   7.584   6.180   3.926
 1999TIP3    H2 5941   7.674   6.290   3.977
 2000TIP3   OH2 5942   3.040   7.653   5.501
 2000TIP3    H1 5943   3.008   7.709   5.572
 2000TIP3    H2 5944   3.079   7.577   5.545
 2001TIP3   OH2 5945   0.905   4.787   0.333
 2001TIP3    H1 5946   0.877   4.695   0.328
 2001TIP3    H2 5947   0.943   4.796   0.420
 2002TIP3   OH2 5948   5.214   2.567   0.374
 2002TIP3    H1 5949   5.188   2.541   0.463
 2002TIP3    H2 5950   5.131   2.590   0.331
 2003TIP3   OH2 5951   0.356   5.440   1.215
 2003TIP3    H1 5952   0.435   5.444   1.269
 2003TIP3    H2 5953   0.291   5.398   1.270
 2004TIP3   OH2 5954   5.270   2.522   4.331
 2004TIP3    H1 5955   5.283   2.590   4.264
 2004TIP3    H2 5956   5.177   2.525   4.351
 2005TIP3   OH2 5957   2.649   4.052   6.509
 2005TIP3    H1 5958   2.646   4.091   6.421
 2005TIP3    H2 5959   2.666   4.126   6.567
 2006TIP3   OH2 5960   5.171   1.958   3.656
 2006TIP3    H1 5961   5.252   1.951   3.705
 2006TIP3    H2 5962   5.194   1.928   3.568
 2007TIP3   OH2 5963   6.067   2.732   0.569
 2007TIP3    H1 5964   6.008   2.692   0.506
 2007TIP3    H2 5965   6.120   2.659   0.602
 2008TIP3   OH2 5966   7.279   7.026   4.693
 2008TIP3    H1 5967   7.287   7.056   4.784
 2008TIP3    H2 5968   7.262   6.932   4.700
 2009TIP3   OH2 5969   8.033   5.233   0.099
 2009TIP3    H1 5970   8.004   5.273   0.017
 2009TIP3    H2 5971   7.954   5.231   0.153
 2010TIP3   OH2 5972   2.048   5.901   0.014
 2010TIP3    H1 5973   1.988   5.976   0.014
 2010TIP3    H2 5974   1.997   5.829   0.052
 2011TIP3   OH2 5975   7.619   7.426   4.430
 2011TIP3    H1 5976   7.691   7.483   4.402
 2011TIP3    H2 5977   7.555   7.431   4.359
 2012TIP3   OH2 5978   5.751   6.911   1.403
 2012TIP3    H1 5979   5.695   6.925   1.479
 2012TIP3    H2 5980   5.787   6.997   1.384
 2013TIP3   OH2 5981   1.753   1.430   5.702
 2013TIP3    H1 5982   1.816   1.480   5.753
 2013TIP3    H2 5983   1.797   1.414   5.618
 2014TIP3   OH2 5984   3.444   1.693   3.452
 2014TIP3    H1 5985   3.493   1.686   3.370
 2014TIP3    H2 5986   3.416   1.604   3.472
 2015TIP3   OH2 5987   6.487   7.218   5.011
 2015TIP3    H1 5988   6.489   7.226   5.107
 2015TIP3    H2 5989   6.566   7.168   4.990
 2016TIP3   OH2 5990   2.529   1.413   1.099
 2016TIP3    H1 5991   2.446   1.438   1.139
 2016TIP3    H2 5992   2.568   1.496   1.070
 2017TIP3   OH2 5993   5.280   5.492   3.260
 2017TIP3    H1 5994   5.360   5.543   3.258
 2017TIP3    H2 5995   5.228   5.531   3.330
 2018TIP3   OH2 5996   0.823   7.647   2.071
 2018TIP3    H1 5997   0.728   7.651   2.082
 2018TIP3    H2 5998   0.853   7.736   2.093
 2019TIP3   OH2 5999   8.002   1.681   0.310
 2019TIP3    H1 6000   8.053   1.756   0.278
 2019TIP3    H2 6001   7.911   1.704   0.289
 2020TIP3   OH2 6002   3.939   2.050   0.770
 2020TIP3    H1 6003   3.890   2.007   0.700
 2020TIP3    H2 6004   4.030   2.030   0.751
 2021TIP3   OH2 6005   6.326   4.179   6.564
 2021TIP3    H1 6006   6.383   4.114   6.523
 2021TIP3    H2 6007   6.237   4.147   6.547
 2022TIP3   OH2 6008   3.078   5.410  -0.047
 2022TIP3    H1 6009   3.011   5.344  -0.062
 2022TIP3    H2 6010   3.033   5.494  -0.056
 2023TIP3   OH2 6011   4.614   4.000   0.998
 2023TIP3    H1 6012   4.558   3.944   1.051
 2023TIP3    H2 6013   4.661   3.939   0.940
 2024TIP3   OH2 6014   1.620   6.078   2.046
 2024TIP3    H1 6015   1.679   6.113   2.113
 2024TIP3    H2 6016   1.679   6.047   1.976
 2025TIP3   OH2 6017   4.173   2.511   1.111
 2025TIP3    H1 6018   4.110   2.480   1.046
 2025TIP3    H2 6019   4.252   2.461   1.093
 2026TIP3   OH2 6020   5.168   2.319   5.741
 2026TIP3    H1 6021   5.263   2.331   5.733
 2026TIP3    H2 6022   5.151   2.325   5.835
 2027TIP3   OH2 6023   2.207   3.804   1.657
 2027TIP3    H1 6024   2.256   3.884   1.673
 2027TIP3    H2 6025   2.254   3.761   1.586
 2028TIP3   OH2 6026   5.979   5.275   5.144
 2028TIP3    H1 6027   5.918   5.268   5.070
 2028TIP3    H2 6028   6.041   5.343   5.117
 2029TIP3   OH2 6029   0.287   0.107   0.345
 2029TIP3    H1 6030   0.320   0.019   0.362
 2029TIP3    H2 6031   0.282   0.148   0.431
 2030TIP3   OH2 6032   0.566   5.139   4.606
 2030TIP3    H1 6033   0.495   5.127   4.544
 2030TIP3    H2 6034   0.621   5.207   4.566
 2031TIP3   OH2 6035   7.168   0.795   5.627
 2031TIP3    H1 6036   7.182   0.888   5.609
 2031TIP3    H2 6037   7.256   0.757   5.626
 2032TIP3   OH2 6038   1.423   5.256   1.165
 2032TIP3    H1 6039   1.452   5.168   1.188
 2032TIP3    H2 6040   1.502   5.299   1.132
 2033TIP3   OH2 6041   7.259   7.582   5.096
 2033TIP3    H1 6042   7.286   7.491   5.111
 2033TIP3    H2 6043   7.259   7.622   5.183
 2034TIP3   OH2 6044   0.615   7.307   2.936
 2034TIP3    H1 6045   0.702   7.270   2.921
 2034TIP3    H2 6046   0.556   7.245   2.893
 2035TIP3   OH2 6047   2.091   3.491   2.078
 2035TIP3    H1 6048   2.007   3.528   2.105
 2035TIP3    H2 6049   2.091   3.498   1.982
 2036TIP3   OH2 6050   0.354   2.311   4.982
 2036TIP3    H1 6051   0.282   2.316   5.046
 2036TIP3    H2 6052   0.427   2.274   5.031
 2037TIP3   OH2 6053   3.093   2.583   4.392
 2037TIP3    H1 6054   3.090   2.591   4.296
 2037TIP3    H2 6055   3.183   2.555   4.411
 2038TIP3   OH2 6056   0.153   0.086   2.663
 2038TIP3    H1 6057   0.120   0.141   2.734
 2038TIP3    H2 6058   0.104   0.004   2.671
 2039TIP3   OH2 6059   3.725   1.696   6.090
 2039TIP3    H1 6060   3.634   1.699   6.119
 2039TIP3    H2 6061   3.765   1.629   6.145
 2040TIP3   OH2 6062   8.006   3.348   4.319
 2040TIP3    H1 6063   8.038   3.328   4.231
 2040TIP3    H2 6064   8.079   3.326   4.377
 2041TIP3   OH2 6065   4.597   6.053   4.392
 2041TIP3    H1 6066   4.666   6.028   4.454
 2041TIP3    H2 6067   4.588   5.977   4.335
 2042TIP3   OH2 6068   5.272   3.821   0.447
 2042TIP3    H1 6069   5.312   3.844   0.530
 2042TIP3    H2 6070   5.345   3.790   0.393
 2043TIP3   OH2 6071   4.245   6.981   1.841
 2043TIP3    H1 6072   4.267   6.892   1.813
 2043TIP3    H2 6073   4.330   7.022   1.860
 2044TIP3   OH2 6074   2.561   7.299   4.174
 2044TIP3    H1 6075   2.561   7.386   4.135
 2044TIP3    H2 6076   2.640   7.297   4.229
 2045TIP3   OH2 6077   5.546   4.315   3.148
 2045TIP3    H1 6078   5.519   4.407   3.154
 2045TIP3    H2 6079   5.518   4.288   3.060
 2046TIP3   OH2 6080   6.185   0.728   2.565
 2046TIP3    H1 6081   6.150   0.666   2.502
 2046TIP3    H2 6082   6.132   0.714   2.644
 2047TIP3   OH2 6083   7.405   2.269   0.596
 2047TIP3    H1 6084   7.445   2.348   0.632
 2047TIP3    H2 6085   7.324   2.299   0.556
 2048TIP3   OH2 6086   0.739   0.707   2.977
 2048TIP3    H1 6087   0.788   0.789   2.976
 2048TIP3    H2 6088   0.805   0.639   2.963
 2049TIP3   OH2 6089   1.329   2.721   5.548
 2049TIP3    H1 6090   1.281   2.804   5.539
 2049TIP3    H2 6091   1.367   2.725   5.636
 2050TIP3   OH2 6092   6.849   4.124   1.727
 2050TIP3    H1 6093   6.769   4.123   1.674
 2050TIP3    H2 6094   6.821   4.162   1.811
 2051TIP3   OH2 6095   3.630   0.210   3.165
 2051TIP3    H1 6096   3.664   0.280   3.222
 2051TIP3    H2 6097   3.700   0.197   3.100
 2052TIP3   OH2 6098   1.429   3.244   1.234
 2052TIP3    H1 6099   1.437   3.333   1.200
 2052TIP3    H2 6100   1.451   3.252   1.327
 2053TIP3   OH2 6101   1.499   0.066   5.033
 2053TIP3    H1 6102   1.571   0.094   5.089
 2053TIP3    H2 6103   1.462  -0.011   5.078
 2054TIP3   OH2 6104   1.613   1.178   1.750
 2054TIP3    H1 6105   1.556   1.249   1.721
 2054TIP3    H2 6106   1.696   1.195   1.706
 2055TIP3   OH2 6107   1.094   3.497   4.543
 2055TIP3    H1 6108   1.059   3.464   4.460
 2055TIP3    H2 6109   1.140   3.577   4.518
 2056TIP3   OH2 6110   4.918   0.119   1.349
 2056TIP3    H1 6111   4.965   0.185   1.401
 2056TIP3    H2 6112   4.985   0.056   1.323
 2057TIP3   OH2 6113   6.929   3.275   4.174
 2057TIP3    H1 6114   7.017   3.281   4.214
 2057TIP3    H2 6115   6.945   3.235   4.089
 2058TIP3   OH2 6116   8.165   6.225   0.824
 2058TIP3    H1 6117   8.154   6.291   0.893
 2058TIP3    H2 6118   8.131   6.268   0.745
 2059TIP3   OH2 6119   7.646   0.909   0.271
 2059TIP3    H1 6120   7.738   0.886   0.283
 2059TIP3    H2 6121   7.626   0.884   0.181
 2060TIP3   OH2 6122   2.964   7.485   5.848
 2060TIP3    H1 6123   2.960   7.575   5.881
 2060TIP3    H2 6124   2.940   7.431   5.923
 2061TIP3   OH2 6125   5.719   0.977   5.968
 2061TIP3    H1 6126   5.757   1.054   6.010
 2061TIP3    H2 6127   5.657   1.012   5.905
 2062TIP3   OH2 6128   2.037   7.069   5.390
 2062TIP3    H1 6129   2.013   7.155   5.425
 2062TIP3    H2 6130   2.082   7.089   5.308
 2063TIP3   OH2 6131   5.035   0.147   5.356
 2063TIP3    H1 6132   4.965   0.082   5.348
 2063TIP3    H2 6133   5.090   0.133   5.279
 2064TIP3   OH2 6134   6.053   2.980   4.910
 2064TIP3    H1 6135   6.025   2.889   4.913
 2064TIP3    H2 6136   6.075   2.996   4.818
 2065TIP3   OH2 6137   0.507   5.133   2.603
 2065TIP3    H1 6138   0.502   5.119   2.508
 2065TIP3    H2 6139   0.461   5.059   2.641
 2066TIP3   OH2 6140   3.531   0.682   2.416
 2066TIP3    H1 6141   3.606   0.633   2.449
 2066TIP3    H2 6142   3.527   0.659   2.323
 2067TIP3   OH2 6143   3.378   1.615   2.096
 2067TIP3    H1 6144   3.285   1.627   2.114
 2067TIP3    H2 6145   3.394   1.664   2.016
 2068TIP3   OH2 6146   0.255   4.374   3.677
 2068TIP3    H1 6147   0.307   4.389   3.757
 2068TIP3    H2 6148   0.170   4.413   3.695
 2069TIP3   OH2 6149   4.646   6.256   4.789
 2069TIP3    H1 6150   4.566   6.296   4.753
 2069TIP3    H2 6151   4.656   6.297   4.875
 2070TIP3   OH2 6152   1.707   2.988   3.773
 2070TIP3    H1 6153   1.641   3.021   3.834
 2070TIP3    H2 6154   1.780   2.960   3.828
 2071TIP3   OH2 6155   0.298   6.956   1.889
 2071TIP3    H1 6156   0.313   6.910   1.972
 2071TIP3    H2 6157   0.369   7.020   1.884
 2072TIP3   OH2 6158   5.299   4.852   3.615
 2072TIP3    H1 6159   5.247   4.932   3.609
 2072TIP3    H2 6160   5.293   4.825   3.706
 2073TIP3   OH2 6161   2.618   7.073   6.331
 2073TIP3    H1 6162   2.524   7.083   6.315
 2073TIP3    H2 6163   2.657   7.076   6.243
 2074TIP3   OH2 6164   6.230   0.498   5.848
 2074TIP3    H1 6165   6.196   0.572   5.898
 2074TIP3    H2 6166   6.153   0.455   5.812
 2075TIP3   OH2 6167   7.657   1.948   4.248
 2075TIP3    H1 6168   7.629   1.882   4.185
 2075TIP3    H2 6169   7.664   2.028   4.197
 2076TIP3   OH2 6170   6.908   5.597   2.464
 2076TIP3    H1 6171   6.833   5.618   2.521
 2076TIP3    H2 6172   6.869   5.581   2.378
 2077TIP3   OH2 6173   6.615   3.993   1.677
 2077TIP3    H1 6174   6.580   3.998   1.765
 2077TIP3    H2 6175   6.601   3.902   1.650
 2078TIP3   OH2 6176   0.642   0.599   4.554
 2078TIP3    H1 6177   0.635   0.619   4.460
 2078TIP3    H2 6178   0.683   0.677   4.591
 2079TIP3   OH2 6179   4.394   2.937   1.753
 2079TIP3    H1 6180   4.477   2.984   1.758
 2079TIP3    H2 6181   4.417   2.846   1.766
 2080TIP3   OH2 6182   7.947   4.684   2.776
 2080TIP3    H1 6183   7.886   4.713   2.844
 2080TIP3    H2 6184   7.989   4.607   2.812
 2081TIP3   OH2 6185   8.215   5.768   5.421
 2081TIP3    H1 6186   8.263   5.792   5.341
 2081TIP3    H2 6187   8.123   5.769   5.394
 2082TIP3   OH2 6188   2.218   3.979   5.736
 2082TIP3    H1 6189   2.166   3.969   5.816
 2082TIP3    H2 6190   2.308   3.960   5.763
 2083TIP3   OH2 6191   6.890   4.341   2.027
 2083TIP3    H1 6192   6.801   4.306   2.018
 2083TIP3    H2 6193   6.945   4.277   1.983
 2084TIP3   OH2 6194   7.145   1.277   2.761
 2084TIP3    H1 6195   7.103   1.363   2.758
 2084TIP3    H2 6196   7.073   1.215   2.766
 2085TIP3   OH2 6197   0.553   7.405   6.716
 2085TIP3    H1 6198   0.485   7.399   6.650
 2085TIP3    H2 6199   0.510   7.447   6.791
 2086TIP3   OH2 6200   2.642   0.663   6.701
 2086TIP3    H1 6201   2.681   0.722   6.637
 2086TIP3    H2 6202   2.603   0.593   6.649
 2087TIP3   OH2 6203   6.209   2.908   5.580
 2087TIP3    H1 6204   6.157   2.828   5.583
 2087TIP3    H2 6205   6.203   2.937   5.488
 2088TIP3   OH2 6206   0.587   3.996   0.332
 2088TIP3    H1 6207   0.647   4.012   0.404
 2088TIP3    H2 6208   0.515   4.057   0.346
 2089TIP3   OH2 6209   7.986   0.373   3.298
 2089TIP3    H1 6210   7.959   0.385   3.390
 2089TIP3    H2 6211   8.002   0.461   3.266
 2090TIP3   OH2 6212   6.020   6.487   1.924
 2090TIP3    H1 6213   5.976   6.411   1.885
 2090TIP3    H2 6214   6.024   6.467   2.017
 2091TIP3   OH2 6215   2.854   5.691   2.056
 2091TIP3    H1 6216   2.939   5.651   2.078
 2091TIP3    H2 6217   2.855   5.776   2.101
 2092TIP3   OH2 6218   7.544   3.444   5.497
 2092TIP3    H1 6219   7.631   3.480   5.511
 2092TIP3    H2 6220   7.559   3.353   5.472
 2093TIP3   OH2 6221   5.259   5.176   2.909
 2093TIP3    H1 6222   5.196   5.172   2.836
 2093TIP3    H2 6223   5.228   5.249   2.963
 2094TIP3   OH2 6224   6.569   0.742   4.400
 2094TIP3    H1 6225   6.516   0.783   4.468
 2094TIP3    H2 6226   6.639   0.698   4.448
 2095TIP3   OH2 6227   3.748   4.263   4.812
 2095TIP3    H1 6228   3.827   4.212   4.829
 2095TIP3    H2 6229   3.760   4.343   4.862
 2096TIP3   OH2 6230   4.219   4.978   5.137
 2096TIP3    H1 6231   4.153   4.910   5.121
 2096TIP3    H2 6232   4.247   5.005   5.050
 2097TIP3   OH2 6233   2.713   5.906   4.735
 2097TIP3    H1 6234   2.688   5.852   4.661
 2097TIP3    H2 6235   2.705   5.996   4.704
 2098TIP3   OH2 6236   0.695   2.794   4.764
 2098TIP3    H1 6237   0.714   2.723   4.703
 2098TIP3    H2 6238   0.641   2.855   4.712
 2099TIP3   OH2 6239   5.589   0.838   4.115
 2099TIP3    H1 6240   5.513   0.855   4.059
 2099TIP3    H2 6241   5.642   0.776   4.066
 2100TIP3   OH2 6242   2.257   2.971   5.372
 2100TIP3    H1 6243   2.340   2.939   5.338
 2100TIP3    H2 6244   2.211   2.893   5.402
 2101TIP3   OH2 6245   0.916   3.105   0.621
 2101TIP3    H1 6246   1.001   3.069   0.645
 2101TIP3    H2 6247   0.853   3.049   0.668
 2102TIP3   OH2 6248   0.579   0.006   2.036
 2102TIP3    H1 6249   0.595  -0.069   2.093
 2102TIP3    H2 6250   0.613   0.081   2.084
 2103TIP3   OH2 6251   3.488   0.533   0.692
 2103TIP3    H1 6252   3.575   0.574   0.694
 2103TIP3    H2 6253   3.437   0.590   0.634
 2104TIP3   OH2 6254   1.270   6.108   2.390
 2104TIP3    H1 6255   1.331   6.170   2.348
 2104TIP3    H2 6256   1.315   6.024   2.384
 2105TIP3   OH2 6257   2.326   5.106   0.558
 2105TIP3    H1 6258   2.386   5.134   0.626
 2105TIP3    H2 6259   2.346   5.162   0.483
 2106TIP3   OH2 6260   0.970   2.600   2.186
 2106TIP3    H1 6261   1.007   2.630   2.269
 2106TIP3    H2 6262   0.964   2.505   2.195
 2107TIP3   OH2 6263   4.846   2.328   3.598
 2107TIP3    H1 6264   4.785   2.297   3.666
 2107TIP3    H2 6265   4.930   2.289   3.623
 2108TIP3   OH2 6266   1.997   3.998   4.918
 2108TIP3    H1 6267   1.934   4.031   4.982
 2108TIP3    H2 6268   2.070   4.059   4.923
 2109TIP3   OH2 6269   1.838   3.506   1.255
 2109TIP3    H1 6270   1.827   3.599   1.269
 2109TIP3    H2 6271   1.932   3.495   1.241
 2110TIP3   OH2 6272   4.329   2.465   3.208
 2110TIP3    H1 6273   4.311   2.555   3.182
 2110TIP3    H2 6274   4.246   2.432   3.242
 2111TIP3   OH2 6275   5.132   7.069   0.398
 2111TIP3    H1 6276   5.225   7.091   0.409
 2111TIP3    H2 6277   5.108   7.110   0.315
 2112TIP3   OH2 6278   6.814   3.343   0.699
 2112TIP3    H1 6279   6.740   3.303   0.745
 2112TIP3    H2 6280   6.874   3.270   0.681
 2113TIP3   OH2 6281   1.837   4.736   6.788
 2113TIP3    H1 6282   1.886   4.817   6.801
 2113TIP3    H2 6283   1.791   4.749   6.705
 2114TIP3   OH2 6284   3.976   7.251   1.743
 2114TIP3    H1 6285   4.046   7.313   1.761
 2114TIP3    H2 6286   3.896   7.303   1.749
 2115TIP3   OH2 6287   7.066   5.583   6.792
 2115TIP3    H1 6288   7.098   5.503   6.752
 2115TIP3    H2 6289   7.078   5.651   6.725
 2116TIP3   OH2 6290   4.874   5.349   5.246
 2116TIP3    H1 6291   4.879   5.276   5.308
 2116TIP3    H2 6292   4.784   5.380   5.253
 2117TIP3   OH2 6293   2.784   5.758   5.669
 2117TIP3    H1 6294   2.709   5.708   5.635
 2117TIP3    H2 6295   2.826   5.795   5.591
 2118TIP3   OH2 6296   5.049   3.708   6.321
 2118TIP3    H1 6297   5.113   3.692   6.251
 2118TIP3    H2 6298   5.062   3.800   6.345
 2119TIP3   OH2 6299   8.200   2.665   1.725
 2119TIP3    H1 6300   8.164   2.742   1.681
 2119TIP3    H2 6301   8.262   2.627   1.663
 2120TIP3   OH2 6302   1.096   7.472   5.026
 2120TIP3    H1 6303   1.155   7.423   5.083
 2120TIP3    H2 6304   1.154   7.508   4.958
 2121TIP3   OH2 6305   0.928   7.099   0.751
 2121TIP3    H1 6306   0.968   7.186   0.755
 2121TIP3    H2 6307   0.871   7.095   0.828
 2122TIP3   OH2 6308   3.576   7.523   4.185
 2122TIP3    H1 6309   3.554   7.524   4.092
 2122TIP3    H2 6310   3.544   7.608   4.218
 2123TIP3   OH2 6311   7.882   7.350   4.654
 2123TIP3    H1 6312   7.864   7.279   4.592
 2123TIP3    H2 6313   7.904   7.425   4.600
 2124TIP3   OH2 6314   1.049   3.696   2.901
 2124TIP3    H1 6315   1.042   3.742   2.985
 2124TIP3    H2 6316   0.983   3.627   2.906
 2125TIP3   OH2 6317   1.590   1.675   0.956
 2125TIP3    H1 6318   1.581   1.595   1.008
 2125TIP3    H2 6319   1.620   1.741   1.018
 2126TIP3   OH2 6320   3.655   6.288   6.145
 2126TIP3    H1 6321   3.618   6.359   6.093
 2126TIP3    H2 6322   3.745   6.280   6.114
 2127TIP3   OH2 6323   1.149   6.862   6.504
 2127TIP3    H1 6324   1.220   6.870   6.569
 2127TIP3    H2 6325   1.158   6.774   6.470
 2128TIP3   OH2 6326   3.552   1.207   2.383
 2128TIP3    H1 6327   3.643   1.198   2.354
 2128TIP3    H2 6328   3.558   1.220   2.477
 2129TIP3   OH2 6329   8.345   7.412   5.410
 2129TIP3    H1 6330   8.326   7.441   5.499
 2129TIP3    H2 6331   8.262   7.422   5.364
 2130TIP3   OH2 6332   3.452   6.215   2.980
 2130TIP3    H1 6333   3.463   6.140   2.921
 2130TIP3    H2 6334   3.470   6.291   2.924
 2131TIP3   OH2 6335   5.360   2.016   1.062
 2131TIP3    H1 6336   5.382   1.975   1.145
 2131TIP3    H2 6337   5.444   2.044   1.026
 2132TIP3   OH2 6338   5.799   4.581   2.041
 2132TIP3    H1 6339   5.777   4.668   2.007
 2132TIP3    H2 6340   5.894   4.577   2.040
 2133TIP3   OH2 6341   1.629   6.258   6.326
 2133TIP3    H1 6342   1.567   6.324   6.294
 2133TIP3    H2 6343   1.689   6.244   6.253
 2134TIP3   OH2 6344   7.865   4.435   1.041
 2134TIP3    H1 6345   7.802   4.480   1.097
 2134TIP3    H2 6346   7.828   4.347   1.029
 2135TIP3   OH2 6347   0.025   2.108   0.379
 2135TIP3    H1 6348   0.107   2.061   0.393
 2135TIP3    H2 6349   0.048   2.200   0.386
 2136TIP3   OH2 6350   7.417   0.097   2.040
 2136TIP3    H1 6351   7.452   0.104   1.951
 2136TIP3    H2 6352   7.495   0.085   2.095
 2137TIP3   OH2 6353   3.634   2.316   0.637
 2137TIP3    H1 6354   3.638   2.350   0.726
 2137TIP3    H2 6355   3.620   2.394   0.582
 2138TIP3   OH2 6356   0.966   2.697   1.677
 2138TIP3    H1 6357   0.879   2.661   1.659
 2138TIP3    H2 6358   1.004   2.635   1.740
 2139TIP3   OH2 6359   0.300   1.086   5.901
 2139TIP3    H1 6360   0.356   1.160   5.923
 2139TIP3    H2 6361   0.214   1.124   5.888
 2140TIP3   OH2 6362   0.806   6.939   2.212
 2140TIP3    H1 6363   0.890   6.909   2.178
 2140TIP3    H2 6364   0.826   6.976   2.298
 2141TIP3   OH2 6365   0.592   4.668   5.108
 2141TIP3    H1 6366   0.636   4.749   5.082
 2141TIP3    H2 6367   0.550   4.690   5.191
 2142TIP3   OH2 6368   2.443   3.484   5.073
 2142TIP3    H1 6369   2.396   3.443   5.147
 2142TIP3    H2 6370   2.515   3.424   5.054
 2143TIP3   OH2 6371   7.964   1.004   5.684
 2143TIP3    H1 6372   7.944   1.097   5.676
 2143TIP3    H2 6373   7.954   0.985   5.777
 2144TIP3   OH2 6374   4.638   7.420   6.724
 2144TIP3    H1 6375   4.614   7.434   6.632
 2144TIP3    H2 6376   4.555   7.401   6.768
 2145TIP3   OH2 6377   5.945   5.042   1.476
 2145TIP3    H1 6378   5.988   4.996   1.548
 2145TIP3    H2 6379   5.917   5.125   1.514
 2146TIP3   OH2 6380   3.263   7.122   2.024
 2146TIP3    H1 6381   3.296   7.212   2.027
 2146TIP3    H2 6382   3.235   7.103   2.113
 2147TIP3   OH2 6383   2.686   7.627   4.410
 2147TIP3    H1 6384   2.739   7.698   4.447
 2147TIP3    H2 6385   2.727   7.547   4.443
 2148TIP3   OH2 6386   5.831   6.152   1.031
 2148TIP3    H1 6387   5.872   6.236   1.053
 2148TIP3    H2 6388   5.789   6.124   1.112
 2149TIP3   OH2 6389   4.300   3.225   5.509
 2149TIP3    H1 6390   4.321   3.207   5.418
 2149TIP3    H2 6391   4.205   3.234   5.511
 2150TIP3   OH2 6392   2.414   3.773   2.373
 2150TIP3    H1 6393   2.381   3.694   2.415
 2150TIP3    H2 6394   2.427   3.748   2.281
 2151TIP3   OH2 6395   4.726   7.340   4.649
 2151TIP3    H1 6396   4.652   7.393   4.679
 2151TIP3    H2 6397   4.731   7.356   4.555
 2152TIP3   OH2 6398   0.381   6.083   3.963
 2152TIP3    H1 6399   0.316   6.075   3.893
 2152TIP3    H2 6400   0.368   6.171   3.998
 2153TIP3   OH2 6401   2.180   6.778   6.756
 2153TIP3    H1 6402   2.176   6.686   6.784
 2153TIP3    H2 6403   2.094   6.813   6.780
 2154TIP3   OH2 6404   0.897   1.490   1.857
 2154TIP3    H1 6405   0.896   1.538   1.940
 2154TIP3    H2 6406   0.939   1.549   1.795
 2155TIP3   OH2 6407   1.830   7.664   3.583
 2155TIP3    H1 6408   1.743   7.688   3.616
 2155TIP3    H2 6409   1.875   7.627   3.658
 2156TIP3   OH2 6410   5.835   0.010   1.363
 2156TIP3    H1 6411   5.772  -0.062   1.367
 2156TIP3    H2 6412   5.889  -0.001   1.441
 2157TIP3   OH2 6413   7.400   4.991   6.596
 2157TIP3    H1 6414   7.476   5.038   6.560
 2157TIP3    H2 6415   7.415   4.900   6.572
 2158TIP3   OH2 6416   1.295   4.650   6.633
 2158TIP3    H1 6417   1.279   4.743   6.653
 2158TIP3    H2 6418   1.390   4.641   6.638
 2159TIP3   OH2 6419   6.204   1.244   2.243
 2159TIP3    H1 6420   6.281   1.191   2.263
 2159TIP3    H2 6421   6.222   1.283   2.158
 2160TIP3   OH2 6422   1.090   7.649   2.359
 2160TIP3    H1 6423   1.122   7.572   2.312
 2160TIP3    H2 6424   1.111   7.632   2.451
 2161TIP3   OH2 6425   3.387   6.370   3.544
 2161TIP3    H1 6426   3.298   6.386   3.575
 2161TIP3    H2 6427   3.378   6.360   3.449
 2162TIP3   OH2 6428   1.359   3.406   5.204
 2162TIP3    H1 6429   1.401   3.330   5.164
 2162TIP3    H2 6430   1.430   3.451   5.250
 2163TIP3   OH2 6431   6.337   3.387   5.152
 2163TIP3    H1 6432   6.382   3.353   5.075
 2163TIP3    H2 6433   6.244   3.384   5.129
 2164TIP3   OH2 6434   7.822   2.230   0.560
 2164TIP3    H1 6435   7.807   2.312   0.607
 2164TIP3    H2 6436   7.907   2.198   0.592
 2165TIP3   OH2 6437   1.840   2.570   5.511
 2165TIP3    H1 6438   1.781   2.646   5.517
 2165TIP3    H2 6439   1.845   2.552   5.417
 2166TIP3   OH2 6440   4.509   7.658   3.042
 2166TIP3    H1 6441   4.485   7.582   3.096
 2166TIP3    H2 6442   4.430   7.712   3.040
 2167TIP3   OH2 6443   0.593   2.563   2.831
 2167TIP3    H1 6444   0.643   2.644   2.831
 2167TIP3    H2 6445   0.541   2.567   2.751
 2168TIP3   OH2 6446   5.733   7.291   3.663
 2168TIP3    H1 6447   5.709   7.309   3.572
 2168TIP3    H2 6448   5.828   7.297   3.665
 2169TIP3   OH2 6449   7.903   3.705   1.264
 2169TIP3    H1 6450   7.883   3.790   1.303
 2169TIP3    H2 6451   7.971   3.723   1.199
 2170TIP3   OH2 6452   5.612   7.713   1.975
 2170TIP3    H1 6453   5.700   7.749   1.987
 2170TIP3    H2 6454   5.580   7.752   1.894
 2171TIP3   OH2 6455   3.884   0.779   5.981
 2171TIP3    H1 6456   3.922   0.741   6.061
 2171TIP3    H2 6457   3.922   0.728   5.910
 2172TIP3   OH2 6458   1.921   1.145   1.337
 2172TIP3    H1 6459   2.009   1.113   1.321
 2172TIP3    H2 6460   1.926   1.239   1.317
 2173TIP3   OH2 6461   5.196   2.460   0.655
 2173TIP3    H1 6462   5.199   2.375   0.699
 2173TIP3    H2 6463   5.260   2.513   0.703
 2174TIP3   OH2 6464   7.717   2.258   5.883
 2174TIP3    H1 6465   7.700   2.308   5.803
 2174TIP3    H2 6466   7.639   2.273   5.937
 2175TIP3   OH2 6467   3.479   2.752   4.702
 2175TIP3    H1 6468   3.495   2.754   4.607
 2175TIP3    H2 6469   3.426   2.674   4.715
 2176TIP3   OH2 6470   7.871   5.339   1.717
 2176TIP3    H1 6471   7.849   5.261   1.768
 2176TIP3    H2 6472   7.857   5.412   1.777
 2177TIP3   OH2 6473   6.146   0.237   1.092
 2177TIP3    H1 6474   6.075   0.229   1.155
 2177TIP3    H2 6475   6.196   0.313   1.121
 2178TIP3   OH2 6476   4.118   2.306   2.024
 2178TIP3    H1 6477   4.140   2.335   1.935
 2178TIP3    H2 6478   4.024   2.325   2.032
 2179TIP3   OH2 6479   5.412   2.988   1.998
 2179TIP3    H1 6480   5.443   2.990   1.907
 2179TIP3    H2 6481   5.391   3.079   2.018
 2180TIP3   OH2 6482   7.145   7.070   6.659
 2180TIP3    H1 6483   7.234   7.101   6.641
 2180TIP3    H2 6484   7.156   6.980   6.688
 2181TIP3   OH2 6485   4.571   2.244   1.402
 2181TIP3    H1 6486   4.552   2.192   1.324
 2181TIP3    H2 6487   4.560   2.183   1.475
 2182TIP3   OH2 6488   4.774   3.024   5.995
 2182TIP3    H1 6489   4.678   3.031   5.998
 2182TIP3    H2 6490   4.791   2.949   5.940
 2183TIP3   OH2 6491   0.117   5.598   3.055
 2183TIP3    H1 6492   0.071   5.670   3.099
 2183TIP3    H2 6493   0.166   5.641   2.985
 2184TIP3   OH2 6494   4.074   7.709   6.359
 2184TIP3    H1 6495   4.020   7.697   6.281
 2184TIP3    H2 6496   4.021   7.764   6.417
 2185TIP3   OH2 6497   0.382   1.713   5.751
 2185TIP3    H1 6498   0.351   1.655   5.820
 2185TIP3    H2 6499   0.302   1.751   5.714
 2186TIP3   OH2 6500   5.842   4.974   5.025
 2186TIP3    H1 6501   5.860   5.067   5.041
 2186TIP3    H2 6502   5.750   4.972   5.002
 2187TIP3   OH2 6503   5.281   2.634   4.010
 2187TIP3    H1 6504   5.346   2.686   3.962
 2187TIP3    H2 6505   5.229   2.699   4.057
 2188TIP3   OH2 6506   1.975   0.413   3.577
 2188TIP3    H1 6507   2.053   0.454   3.616
 2188TIP3    H2 6508   1.912   0.408   3.649
 2189TIP3   OH2 6509   5.218   0.401   1.660
 2189TIP3    H1 6510   5.228   0.460   1.734
 2189TIP3    H2 6511   5.303   0.359   1.650
 2190TIP3   OH2 6512   4.551   1.423   6.344
 2190TIP3    H1 6513   4.490   1.495   6.333
 2190TIP3    H2 6514   4.630   1.451   6.297
 2191TIP3   OH2 6515   6.235   7.001   4.157
 2191TIP3    H1 6516   6.310   6.943   4.143
 2191TIP3    H2 6517   6.179   6.987   4.080
 2192TIP3   OH2 6518   3.071   7.574   2.847
 2192TIP3    H1 6519   2.986   7.529   2.847
 2192TIP3    H2 6520   3.059   7.646   2.785
 2193TIP3   OH2 6521   4.694   7.641   3.667
 2193TIP3    H1 6522   4.738   7.723   3.687
 2193TIP3    H2 6523   4.673   7.603   3.752
 2194TIP3   OH2 6524   8.162   3.942   4.225
 2194TIP3    H1 6525   8.075   3.955   4.263
 2194TIP3    H2 6526   8.152   3.966   4.133
 2195TIP3   OH2 6527   5.412   2.026   4.762
 2195TIP3    H1 6528   5.347   1.993   4.699
 2195TIP3    H2 6529   5.486   2.052   4.708
 2196TIP3   OH2 6530   6.396   6.754   1.954
 2196TIP3    H1 6531   6.445   6.828   1.918
 2196TIP3    H2 6532   6.434   6.677   1.912
 2197TIP3   OH2 6533   7.227   2.577   3.592
 2197TIP3    H1 6534   7.153   2.624   3.631
 2197TIP3    H2 6535   7.214   2.486   3.619
 2198TIP3   OH2 6536   2.566   5.262   3.150
 2198TIP3    H1 6537   2.534   5.352   3.161
 2198TIP3    H2 6538   2.603   5.239   3.235
 2199TIP3   OH2 6539   2.866   2.372   3.083
 2199TIP3    H1 6540   2.960   2.376   3.100
 2199TIP3    H2 6541   2.830   2.323   3.157
 2200TIP3   OH2 6542   6.282   4.601   2.399
 2200TIP3    H1 6543   6.189   4.584   2.416
 2200TIP3    H2 6544   6.327   4.567   2.477
 2201TIP3   OH2 6545   6.475   4.881   2.255
 2201TIP3    H1 6546   6.402   4.834   2.215
 2201TIP3    H2 6547   6.553   4.842   2.215
 2202TIP3   OH2 6548   7.603   1.080   5.287
 2202TIP3    H1 6549   7.634   1.092   5.377
 2202TIP3    H2 6550   7.508   1.069   5.296
 2203TIP3   OH2 6551   5.284   7.105   1.779
 2203TIP3    H1 6552   5.274   7.042   1.850
 2203TIP3    H2 6553   5.242   7.064   1.704
 2204TIP3   OH2 6554   7.961   6.775   1.556
 2204TIP3    H1 6555   8.036   6.832   1.573
 2204TIP3    H2 6556   7.938   6.793   1.465
 2205TIP3   OH2 6557   2.282   7.028   0.059
 2205TIP3    H1 6558   2.317   6.943   0.034
 2205TIP3    H2 6559   2.192   7.028   0.027
 2206TIP3   OH2 6560   1.501   4.789   5.532
 2206TIP3    H1 6561   1.462   4.872   5.556
 2206TIP3    H2 6562   1.503   4.789   5.436
 2207TIP3   OH2 6563   5.759   0.053   6.238
 2207TIP3    H1 6564   5.825   0.044   6.307
 2207TIP3    H2 6565   5.676   0.060   6.286
 2208TIP3   OH2 6566   4.698   1.639   2.107
 2208TIP3    H1 6567   4.658   1.556   2.082
 2208TIP3    H2 6568   4.781   1.615   2.148
 2209TIP3   OH2 6569   3.102   6.775   5.108
 2209TIP3    H1 6570   3.132   6.843   5.168
 2209TIP3    H2 6571   3.179   6.718   5.097
 2210TIP3   OH2 6572   6.597   6.556   3.916
 2210TIP3    H1 6573   6.621   6.647   3.901
 2210TIP3    H2 6574   6.557   6.555   4.003
 2211TIP3   OH2 6575   4.903   3.831   4.912
 2211TIP3    H1 6576   4.854   3.771   4.855
 2211TIP3    H2 6577   4.972   3.866   4.856
 2212TIP3   OH2 6578   7.263   0.957   1.025
 2212TIP3    H1 6579   7.322   0.906   0.970
 2212TIP3    H2 6580   7.273   1.047   0.994
 2213TIP3   OH2 6581   3.960   0.110   1.433
 2213TIP3    H1 6582   3.898   0.059   1.486
 2213TIP3    H2 6583   4.044   0.100   1.478
 2214TIP3   OH2 6584   3.900   4.360   0.370
 2214TIP3    H1 6585   3.908   4.387   0.278
 2214TIP3    H2 6586   3.924   4.439   0.419
 2215TIP3   OH2 6587   0.875   5.426   5.656
 2215TIP3    H1 6588   0.946   5.467   5.706
 2215TIP3    H2 6589   0.881   5.333   5.679
 2216TIP3   OH2 6590   1.407   5.799   3.672
 2216TIP3    H1 6591   1.482   5.852   3.701
 2216TIP3    H2 6592   1.359   5.779   3.753
 2217TIP3   OH2 6593   6.946   0.155   6.196
 2217TIP3    H1 6594   6.915   0.178   6.284
 2217TIP3    H2 6595   6.867   0.127   6.150
 2218TIP3   OH2 6596   2.120   2.295   3.285
 2218TIP3    H1 6597   2.183   2.364   3.266
 2218TIP3    H2 6598   2.062   2.294   3.210
 2219TIP3   OH2 6599   6.021   6.926   1.708
 2219TIP3    H1 6600   6.048   6.925   1.799
 2219TIP3    H2 6601   6.081   6.866   1.664
 2220TIP3   OH2 6602   4.460   2.779   6.069
 2220TIP3    H1 6603   4.551   2.758   6.050
 2220TIP3    H2 6604   4.415   2.695   6.068
 2221TIP3   OH2 6605   5.815   5.490   4.394
 2221TIP3    H1 6606   5.745   5.495   4.329
 2221TIP3    H2 6607   5.830   5.396   4.405
 2222TIP3   OH2 6608   3.340   5.816   1.019
 2222TIP3    H1 6609   3.403   5.881   0.987
 2222TIP3    H2 6610   3.378   5.783   1.100
 2223TIP3   OH2 6611   6.428   2.619   4.218
 2223TIP3    H1 6612   6.360   2.686   4.225
 2223TIP3    H2 6613   6.505   2.666   4.185
 2224TIP3   OH2 6614   0.134   3.155   5.544
 2224TIP3    H1 6615   0.226   3.137   5.523
 2224TIP3    H2 6616   0.105   3.079   5.593
 2225TIP3   OH2 6617   2.974   4.091   6.061
 2225TIP3    H1 6618   3.053   4.079   6.114
 2225TIP3    H2 6619   3.001   4.149   5.990
 2226TIP3   OH2 6620   4.806   2.603   1.312
 2226TIP3    H1 6621   4.838   2.593   1.401
 2226TIP3    H2 6622   4.883   2.627   1.261
 2227TIP3   OH2 6623   0.904   7.706   0.906
 2227TIP3    H1 6624   0.912   7.792   0.867
 2227TIP3    H2 6625   0.987   7.693   0.953
 2228TIP3   OH2 6626   4.028   3.961   0.633
 2228TIP3    H1 6627   4.123   3.968   0.621
 2228TIP3    H2 6628   3.994   4.047   0.611
 2229TIP3   OH2 6629   1.063   7.162   5.093
 2229TIP3    H1 6630   1.053   7.176   4.999
 2229TIP3    H2 6631   1.135   7.220   5.118
 2230TIP3   OH2 6632   5.522   6.827   3.867
 2230TIP3    H1 6633   5.529   6.896   3.801
 2230TIP3    H2 6634   5.511   6.874   3.950
 2231TIP3   OH2 6635   1.975   1.024   0.546
 2231TIP3    H1 6636   1.989   1.118   0.535
 2231TIP3    H2 6637   2.048   0.982   0.502
 2232TIP3   OH2 6638   1.427   2.023   5.497
 2232TIP3    H1 6639   1.429   2.005   5.403
 2232TIP3    H2 6640   1.394   1.941   5.535
 2233TIP3   OH2 6641   6.243   5.662   2.505
 2233TIP3    H1 6642   6.318   5.688   2.451
 2233TIP3    H2 6643   6.196   5.743   2.523
 2234TIP3   OH2 6644   2.575   7.705   5.530
 2234TIP3    H1 6645   2.495   7.737   5.572
 2234TIP3    H2 6646   2.546   7.629   5.478
 2235TIP3   OH2 6647   0.961   1.623   3.051
 2235TIP3    H1 6648   0.871   1.604   3.077
 2235TIP3    H2 6649   0.994   1.542   3.014
 2236TIP3   OH2 6650   6.125   0.436   3.387
 2236TIP3    H1 6651   6.168   0.354   3.412
 2236TIP3    H2 6652   6.193   0.502   3.395
 2237TIP3   OH2 6653   2.755   6.389   3.132
 2237TIP3    H1 6654   2.829   6.379   3.192
 2237TIP3    H2 6655   2.710   6.468   3.163
 2238TIP3   OH2 6656   4.071   2.116   4.425
 2238TIP3    H1 6657   4.126   2.191   4.448
 2238TIP3    H2 6658   4.112   2.080   4.346
 2239TIP3   OH2 6659   1.513   6.729   4.558
 2239TIP3    H1 6660   1.438   6.737   4.500
 2239TIP3    H2 6661   1.566   6.660   4.518
 2240TIP3   OH2 6662   3.444   1.436   3.591
 2240TIP3    H1 6663   3.356   1.461   3.618
 2240TIP3    H2 6664   3.453   1.345   3.620
 2241TIP3   OH2 6665   0.437   5.010   2.033
 2241TIP3    H1 6666   0.448   5.086   2.091
 2241TIP3    H2 6667   0.465   5.042   1.947
 2242TIP3   OH2 6668  -0.048   7.089   2.907
 2242TIP3    H1 6669  -0.006   7.153   2.965
 2242TIP3    H2 6670   0.019   7.022   2.893
 2243TIP3   OH2 6671   7.311   5.938   2.326
 2243TIP3    H1 6672   7.331   5.977   2.410
 2243TIP3    H2 6673   7.377   5.870   2.314
 2244TIP3   OH2 6674   6.221   0.112   5.220
 2244TIP3    H1 6675   6.255   0.069   5.141
 2244TIP3    H2 6676   6.294   0.165   5.252
 2245TIP3   OH2 6677   4.602   3.589   4.947
 2245TIP3    H1 6678   4.580   3.656   5.011
 2245TIP3    H2 6679   4.666   3.631   4.889
 2246TIP3   OH2 6680   4.983   0.519   6.435
 2246TIP3    H1 6681   4.993   0.555   6.523
 2246TIP3    H2 6682   4.947   0.431   6.450
 2247TIP3   OH2 6683   1.438   3.288   0.351
 2247TIP3    H1 6684   1.406   3.369   0.311
 2247TIP3    H2 6685   1.491   3.317   0.425
 2248TIP3   OH2 6686   1.831   2.314   0.419
 2248TIP3    H1 6687   1.871   2.304   0.332
 2248TIP3    H2 6688   1.868   2.396   0.453
 2249TIP3   OH2 6689   4.702   4.623   2.209
 2249TIP3    H1 6690   4.780   4.572   2.190
 2249TIP3    H2 6691   4.674   4.657   2.124
 2250TIP3   OH2 6692   1.951   1.532   1.134
 2250TIP3    H1 6693   2.038   1.502   1.106
 2250TIP3    H2 6694   1.943   1.619   1.095
 2251TIP3   OH2 6695   2.028   3.029   2.747
 2251TIP3    H1 6696   2.113   3.009   2.786
 2251TIP3    H2 6697   1.966   2.972   2.793
 2252TIP3   OH2 6698   4.396   0.270   5.127
 2252TIP3    H1 6699   4.393   0.196   5.188
 2252TIP3    H2 6700   4.360   0.343   5.176
 2253TIP3   OH2 6701   7.723   3.994   5.881
 2253TIP3    H1 6702   7.768   4.022   5.960
 2253TIP3    H2 6703   7.787   3.939   5.835
 2254TIP3   OH2 6704   7.734   1.721   0.276
 2254TIP3    H1 6705   7.691   1.650   0.324
 2254TIP3    H2 6706   7.719   1.701   0.184
 2255TIP3   OH2 6707   3.780   3.133   3.077
 2255TIP3    H1 6708   3.748   3.125   3.166
 2255TIP3    H2 6709   3.715   3.087   3.024
 2256TIP3   OH2 6710   4.926   4.826  -0.063
 2256TIP3    H1 6711   4.881   4.896  -0.016
 2256TIP3    H2 6712   4.866   4.801  -0.133
 2257TIP3   OH2 6713   5.130   2.334   4.588
 2257TIP3    H1 6714   5.092   2.410   4.544
 2257TIP3    H2 6715   5.081   2.259   4.553
 2258TIP3   OH2 6716   4.007   5.167   3.731
 2258TIP3    H1 6717   4.077   5.224   3.762
 2258TIP3    H2 6718   3.927   5.207   3.766
 2259TIP3   OH2 6719   1.302   3.458   4.231
 2259TIP3    H1 6720   1.391   3.436   4.204
 2259TIP3    H2 6721   1.313   3.527   4.296
 2260TIP3   OH2 6722   0.570   4.116   6.530
 2260TIP3    H1 6723   0.580   4.210   6.515
 2260TIP3    H2 6724   0.658   4.080   6.517
 2261TIP3   OH2 6725   4.703   5.664   4.826
 2261TIP3    H1 6726   4.635   5.726   4.853
 2261TIP3    H2 6727   4.680   5.582   4.870
 2262TIP3   OH2 6728   2.935   7.166   0.492
 2262TIP3    H1 6729   2.853   7.155   0.444
 2262TIP3    H2 6730   2.908   7.197   0.579
 2263TIP3   OH2 6731   1.167   1.242   5.544
 2263TIP3    H1 6732   1.163   1.195   5.461
 2263TIP3    H2 6733   1.191   1.174   5.608
 2264TIP3   OH2 6734   2.461   3.327   4.523
 2264TIP3    H1 6735   2.431   3.363   4.440
 2264TIP3    H2 6736   2.442   3.233   4.517
 2265TIP3   OH2 6737   7.659   7.706   0.777
 2265TIP3    H1 6738   7.670   7.715   0.872
 2265TIP3    H2 6739   7.729   7.645   0.751
 2266TIP3   OH2 6740   5.937   5.717   4.040
 2266TIP3    H1 6741   5.849   5.681   4.025
 2266TIP3    H2 6742   5.980   5.711   3.954
 2267TIP3   OH2 6743   6.213   1.960   5.872
 2267TIP3    H1 6744   6.167   1.957   5.956
 2267TIP3    H2 6745   6.151   1.923   5.809
 2268TIP3   OH2 6746   2.191   7.395   3.450
 2268TIP3    H1 6747   2.122   7.460   3.440
 2268TIP3    H2 6748   2.168   7.326   3.387
 2269TIP3   OH2 6749   4.280   0.409   1.237
 2269TIP3    H1 6750   4.264   0.470   1.165
 2269TIP3    H2 6751   4.342   0.454   1.294
 2270TIP3   OH2 6752   8.131   7.545   5.251
 2270TIP3    H1 6753   8.137   7.641   5.260
 2270TIP3    H2 6754   8.100   7.531   5.162
 2271TIP3   OH2 6755   0.846   7.068   4.542
 2271TIP3    H1 6756   0.852   6.999   4.608
 2271TIP3    H2 6757   0.807   7.142   4.589
 2272TIP3   OH2 6758   5.000   0.014   2.819
 2272TIP3    H1 6759   4.989   0.097   2.772
 2272TIP3    H2 6760   5.021  -0.049   2.750
 2273TIP3   OH2 6761   3.930   4.630   2.250
 2273TIP3    H1 6762   3.908   4.648   2.341
 2273TIP3    H2 6763   3.993   4.699   2.227
 2274TIP3   OH2 6764   6.868   5.791   3.063
 2274TIP3    H1 6765   6.773   5.784   3.069
 2274TIP3    H2 6766   6.898   5.793   3.153
 2275TIP3   OH2 6767   3.157   1.576   3.224
 2275TIP3    H1 6768   3.224   1.521   3.265
 2275TIP3    H2 6769   3.075   1.527   3.236
 2276TIP3   OH2 6770   3.044   7.196   2.363
 2276TIP3    H1 6771   3.009   7.108   2.354
 2276TIP3    H2 6772   2.967   7.253   2.356
 2277TIP3   OH2 6773   3.696   2.947   0.020
 2277TIP3    H1 6774   3.756   3.016   0.048
 2277TIP3    H2 6775   3.610   2.988   0.019
 2278TIP3   OH2 6776   3.032   4.945   0.388
 2278TIP3    H1 6777   3.018   4.890   0.465
 2278TIP3    H2 6778   3.037   5.034   0.423
 2279TIP3   OH2 6779   6.659   2.211   2.318
 2279TIP3    H1 6780   6.634   2.245   2.404
 2279TIP3    H2 6781   6.674   2.117   2.334
 2280TIP3   OH2 6782   2.365   5.692   5.630
 2280TIP3    H1 6783   2.454   5.662   5.609
 2280TIP3    H2 6784   2.339   5.745   5.555
 2281TIP3   OH2 6785   1.273   6.692   4.408
 2281TIP3    H1 6786   1.289   6.603   4.379
 2281TIP3    H2 6787   1.198   6.722   4.355
 2282TIP3   OH2 6788   2.778   7.081   0.207
 2282TIP3    H1 6789   2.754   7.012   0.146
 2282TIP3    H2 6790   2.723   7.065   0.284
 2283TIP3   OH2 6791   1.934   1.411   5.465
 2283TIP3    H1 6792   1.954   1.347   5.397
 2283TIP3    H2 6793   2.012   1.414   5.520
 2284TIP3   OH2 6794   2.886   2.193   3.377
 2284TIP3    H1 6795   2.825   2.141   3.429
 2284TIP3    H2 6796   2.968   2.188   3.425
 2285TIP3   OH2 6797   6.710   1.312   4.816
 2285TIP3    H1 6798   6.790   1.334   4.863
 2285TIP3    H2 6799   6.642   1.363   4.860
 2286TIP3   OH2 6800   3.677   2.234   6.311
 2286TIP3    H1 6801   3.721   2.227   6.226
 2286TIP3    H2 6802   3.610   2.166   6.310
 2287TIP3   OH2 6803   2.807   0.739   2.114
 2287TIP3    H1 6804   2.861   0.684   2.171
 2287TIP3    H2 6805   2.780   0.812   2.170
 2288TIP3   OH2 6806   6.374   4.895   3.806
 2288TIP3    H1 6807   6.310   4.829   3.781
 2288TIP3    H2 6808   6.447   4.882   3.746
 2289TIP3   OH2 6809   7.596   4.903   5.280
 2289TIP3    H1 6810   7.544   4.873   5.354
 2289TIP3    H2 6811   7.630   4.822   5.241
 2290TIP3   OH2 6812   6.892   5.497   1.760
 2290TIP3    H1 6813   6.914   5.585   1.731
 2290TIP3    H2 6814   6.874   5.449   1.680
 2291TIP3   OH2 6815   4.612   7.318   1.930
 2291TIP3    H1 6816   4.602   7.388   1.864
 2291TIP3    H2 6817   4.660   7.360   2.002
 2292TIP3   OH2 6818   1.613   0.413   3.150
 2292TIP3    H1 6819   1.649   0.419   3.062
 2292TIP3    H2 6820   1.519   0.425   3.140
 2293TIP3   OH2 6821   0.321   2.205   0.624
 2293TIP3    H1 6822   0.369   2.163   0.696
 2293TIP3    H2 6823   0.351   2.296   0.625
 2294TIP3   OH2 6824   7.438   5.045   2.568
 2294TIP3    H1 6825   7.373   5.045   2.498
 2294TIP3    H2 6826   7.387   5.029   2.648
 2295TIP3   OH2 6827   5.491   3.018   2.837
 2295TIP3    H1 6828   5.434   2.944   2.817
 2295TIP3    H2 6829   5.557   2.982   2.897
 2296TIP3   OH2 6830   1.433   1.167   2.259
 2296TIP3    H1 6831   1.525   1.185   2.274
 2296TIP3    H2 6832   1.427   1.146   2.166
 2297TIP3   OH2 6833   5.922   3.702   0.752
 2297TIP3    H1 6834   5.963   3.619   0.730
 2297TIP3    H2 6835   5.869   3.684   0.829
 2298TIP3   OH2 6836   7.869   1.772   5.889
 2298TIP3    H1 6837   7.872   1.697   5.830
 2298TIP3    H2 6838   7.775   1.790   5.901
 2299TIP3   OH2 6839   0.145   4.988   3.163
 2299TIP3    H1 6840   0.075   4.939   3.205
 2299TIP3    H2 6841   0.226   4.955   3.203
 2300TIP3   OH2 6842   1.630   3.321   3.752
 2300TIP3    H1 6843   1.605   3.264   3.826
 2300TIP3    H2 6844   1.713   3.360   3.779
 2301TIP3   OH2 6845   1.591   0.545   0.229
 2301TIP3    H1 6846   1.540   0.465   0.241
 2301TIP3    H2 6847   1.590   0.560   0.135
 2302TIP3   OH2 6848   2.189   2.406   0.884
 2302TIP3    H1 6849   2.137   2.431   0.959
 2302TIP3    H2 6850   2.204   2.312   0.895
 2303TIP3   OH2 6851   3.820   4.289   1.581
 2303TIP3    H1 6852   3.868   4.301   1.499
 2303TIP3    H2 6853   3.777   4.204   1.571
 2304TIP3   OH2 6854   7.275   1.137   3.232
 2304TIP3    H1 6855   7.218   1.164   3.303
 2304TIP3    H2 6856   7.356   1.187   3.246
 2305TIP3   OH2 6857   7.089   6.645   4.089
 2305TIP3    H1 6858   7.084   6.717   4.025
 2305TIP3    H2 6859   7.002   6.644   4.130
 2306TIP3   OH2 6860   6.555   7.453   2.033
 2306TIP3    H1 6861   6.486   7.508   2.069
 2306TIP3    H2 6862   6.517   7.365   2.030
 2307TIP3   OH2 6863   7.841   7.107   0.205
 2307TIP3    H1 6864   7.790   7.104   0.286
 2307TIP3    H2 6865   7.800   7.040   0.150
 2308TIP3   OH2 6866   5.859   5.415   0.197
 2308TIP3    H1 6867   5.944   5.455   0.180
 2308TIP3    H2 6868   5.841   5.433   0.289
 2309TIP3   OH2 6869   5.844   6.680   4.559
 2309TIP3    H1 6870   5.772   6.737   4.587
 2309TIP3    H2 6871   5.838   6.603   4.616
 2310TIP3   OH2 6872   3.135   3.189   5.336
 2310TIP3    H1 6873   3.135   3.114   5.277
 2310TIP3    H2 6874   3.213   3.239   5.313
 2311TIP3   OH2 6875   2.342   3.590   2.127
 2311TIP3    H1 6876   2.250   3.573   2.148
 2311TIP3    H2 6877   2.347   3.685   2.116
 2312TIP3   OH2 6878   5.290   3.784   6.760
 2312TIP3    H1 6879   5.236   3.732   6.701
 2312TIP3    H2 6880   5.228   3.824   6.821
 2313TIP3   OH2 6881   3.194   1.581   2.929
 2313TIP3    H1 6882   3.263   1.644   2.906
 2313TIP3    H2 6883   3.189   1.586   3.024
 2314TIP3   OH2 6884   0.487   5.630   4.294
 2314TIP3    H1 6885   0.401   5.609   4.331
 2314TIP3    H2 6886   0.510   5.715   4.333
 2315TIP3   OH2 6887   4.132   5.594   6.771
 2315TIP3    H1 6888   4.038   5.589   6.755
 2315TIP3    H2 6889   4.159   5.676   6.729
 2316TIP3   OH2 6890   6.324   5.312   2.296
 2316TIP3    H1 6891   6.328   5.382   2.231
 2316TIP3    H2 6892   6.320   5.358   2.380
 2317TIP3   OH2 6893   5.018   4.579   5.238
 2317TIP3    H1 6894   5.100   4.531   5.237
 2317TIP3    H2 6895   4.953   4.516   5.268
 2318TIP3   OH2 6896   2.449   3.531   3.352
 2318TIP3    H1 6897   2.436   3.624   3.372
 2318TIP3    H2 6898   2.476   3.492   3.435
 2319TIP3   OH2 6899   1.355   1.098   6.003
 2319TIP3    H1 6900   1.444   1.110   6.035
 2319TIP3    H2 6901   1.325   1.186   5.982
 2320TIP3   OH2 6902   7.599   5.252   4.850
 2320TIP3    H1 6903   7.646   5.212   4.777
 2320TIP3    H2 6904   7.507   5.249   4.824
 2321TIP3   OH2 6905   7.774   0.370   6.390
 2321TIP3    H1 6906   7.815   0.417   6.317
 2321TIP3    H2 6907   7.815   0.407   6.468
 2322TIP3   OH2 6908   4.536   5.759   5.640
 2322TIP3    H1 6909   4.462   5.818   5.650
 2322TIP3    H2 6910   4.555   5.730   5.729
 2323TIP3   OH2 6911   4.876   1.283   6.206
 2323TIP3    H1 6912   4.834   1.364   6.179
 2323TIP3    H2 6913   4.970   1.300   6.195
 2324TIP3   OH2 6914   6.707   0.121   3.756
 2324TIP3    H1 6915   6.642   0.123   3.826
 2324TIP3    H2 6916   6.718   0.028   3.736
 2325TIP3   OH2 6917   2.779   0.781   4.393
 2325TIP3    H1 6918   2.806   0.832   4.316
 2325TIP3    H2 6919   2.751   0.696   4.357
 2326TIP3   OH2 6920   7.741   7.334   4.194
 2326TIP3    H1 6921   7.754   7.427   4.207
 2326TIP3    H2 6922   7.646   7.322   4.198
 2327TIP3   OH2 6923   6.492   2.457   2.100
 2327TIP3    H1 6924   6.411   2.479   2.146
 2327TIP3    H2 6925   6.538   2.541   2.091
 2328TIP3   OH2 6926   1.130   0.132   3.692
 2328TIP3    H1 6927   1.090   0.093   3.614
 2328TIP3    H2 6928   1.132   0.060   3.756
 2329TIP3   OH2 6929   7.502   2.274   6.065
 2329TIP3    H1 6930   7.467   2.196   6.109
 2329TIP3    H2 6931   7.566   2.309   6.126
 2330TIP3   OH2 6932   7.589   3.181   0.660
 2330TIP3    H1 6933   7.593   3.092   0.695
 2330TIP3    H2 6934   7.643   3.179   0.581
 2331TIP3   OH2 6935   8.022   2.408   4.719
 2331TIP3    H1 6936   7.935   2.394   4.758
 2331TIP3    H2 6937   8.044   2.498   4.741
 2332TIP3   OH2 6938   8.260   4.805   1.733
 2332TIP3    H1 6939   8.276   4.711   1.731
 2332TIP3    H2 6940   8.279   4.835   1.644
 2333TIP3   OH2 6941   0.699   2.726   3.194
 2333TIP3    H1 6942   0.761   2.654   3.188
 2333TIP3    H2 6943   0.630   2.694   3.252
 2334TIP3   OH2 6944   6.222   1.650   5.657
 2334TIP3    H1 6945   6.171   1.571   5.678
 2334TIP3    H2 6946   6.157   1.719   5.649
 2335TIP3   OH2 6947   3.899   3.785   3.662
 2335TIP3    H1 6948   3.881   3.878   3.655
 2335TIP3    H2 6949   3.934   3.760   3.576
 2336TIP3   OH2 6950   8.231   4.729   2.754
 2336TIP3    H1 6951   8.141   4.725   2.723
 2336TIP3    H2 6952   8.225   4.759   2.844
 2337TIP3   OH2 6953   1.897   6.701   5.681
 2337TIP3    H1 6954   1.907   6.664   5.769
 2337TIP3    H2 6955   1.832   6.770   5.691
 2338TIP3   OH2 6956   2.470   5.431   2.913
 2338TIP3    H1 6957   2.447   5.385   2.833
 2338TIP3    H2 6958   2.453   5.524   2.894
 2339TIP3   OH2 6959   5.250   5.954   4.595
 2339TIP3    H1 6960   5.282   6.025   4.539
 2339TIP3    H2 6961   5.162   5.936   4.562
 2340TIP3   OH2 6962   7.750   4.431   3.852
 2340TIP3    H1 6963   7.685   4.502   3.851
 2340TIP3    H2 6964   7.740   4.391   3.938
 2341TIP3   OH2 6965   6.110   1.335   1.291
 2341TIP3    H1 6966   6.060   1.279   1.232
 2341TIP3    H2 6967   6.082   1.424   1.269
 2342TIP3   OH2 6968   2.241   3.453   3.197
 2342TIP3    H1 6969   2.315   3.490   3.244
 2342TIP3    H2 6970   2.168   3.459   3.260
 2343TIP3   OH2 6971   2.603   1.510   0.585
 2343TIP3    H1 6972   2.532   1.475   0.639
 2343TIP3    H2 6973   2.564   1.585   0.540
 2344TIP3   OH2 6974   2.966   0.740   1.684
 2344TIP3    H1 6975   2.878   0.747   1.649
 2344TIP3    H2 6976   2.955   0.698   1.770
 2345TIP3   OH2 6977   3.113   3.173   1.419
 2345TIP3    H1 6978   3.033   3.121   1.421
 2345TIP3    H2 6979   3.165   3.135   1.347
 2346TIP3   OH2 6980   0.976   6.129   3.912
 2346TIP3    H1 6981   0.964   6.158   3.822
 2346TIP3    H2 6982   0.965   6.034   3.909
 2347TIP3   OH2 6983   2.257   6.568   3.031
 2347TIP3    H1 6984   2.321   6.629   2.996
 2347TIP3    H2 6985   2.199   6.548   2.958
 2348TIP3   OH2 6986   1.787   4.828   1.485
 2348TIP3    H1 6987   1.771   4.742   1.525
 2348TIP3    H2 6988   1.861   4.863   1.534
 2349TIP3   OH2 6989   0.884   5.054   6.761
 2349TIP3    H1 6990   0.819   5.029   6.827
 2349TIP3    H2 6991   0.832   5.081   6.685
 2350TIP3   OH2 6992   6.237   6.985   3.130
 2350TIP3    H1 6993   6.206   7.011   3.217
 2350TIP3    H2 6994   6.290   6.908   3.146
 2351TIP3   OH2 6995   0.714   6.601   3.554
 2351TIP3    H1 6996   0.759   6.674   3.512
 2351TIP3    H2 6997   0.739   6.606   3.646
 2352TIP3   OH2 6998   5.232   0.186   6.344
 2352TIP3    H1 6999   5.274   0.219   6.423
 2352TIP3    H2 7000   5.296   0.126   6.306
 2353TIP3   OH2 7001   1.028   0.504   2.477
 2353TIP3    H1 7002   0.979   0.462   2.406
 2353TIP3    H2 7003   1.015   0.446   2.552
 2354TIP3   OH2 7004   7.223   5.831   5.539
 2354TIP3    H1 7005   7.134   5.799   5.549
 2354TIP3    H2 7006   7.261   5.826   5.627
 2355TIP3   OH2 7007   6.708   1.713   1.029
 2355TIP3    H1 7008   6.737   1.648   0.965
 2355TIP3    H2 7009   6.670   1.661   1.100
 2356TIP3   OH2 7010   8.097   3.192   0.113
 2356TIP3    H1 7011   8.032   3.182   0.183
 2356TIP3    H2 7012   8.141   3.107   0.110
 2357TIP3   OH2 7013   5.044   5.850   4.073
 2357TIP3    H1 7014   5.035   5.755   4.071
 2357TIP3    H2 7015   5.138   5.866   4.062
 2358TIP3   OH2 7016   5.802   4.836   4.080
 2358TIP3    H1 7017   5.717   4.855   4.041
 2358TIP3    H2 7018   5.788   4.847   4.174
 2359TIP3   OH2 7019   4.072   4.367   3.631
 2359TIP3    H1 7020   4.101   4.457   3.615
 2359TIP3    H2 7021   3.977   4.369   3.615
 2360TIP3   OH2 7022   1.052   4.412   6.280
 2360TIP3    H1 7023   0.989   4.341   6.290
 2360TIP3    H2 7024   1.039   4.443   6.191
 2361TIP3   OH2 7025   3.978   1.887   2.163
 2361TIP3    H1 7026   3.994   1.928   2.078
 2361TIP3    H2 7027   3.979   1.959   2.226
 2362TIP3   OH2 7028   2.863   0.426   4.004
 2362TIP3    H1 7029   2.898   0.365   4.070
 2362TIP3    H2 7030   2.796   0.375   3.958
 2363TIP3   OH2 7031   1.544   0.492   2.067
 2363TIP3    H1 7032   1.485   0.454   2.132
 2363TIP3    H2 7033   1.532   0.586   2.075
 2364TIP3   OH2 7034   1.526   5.281   5.434
 2364TIP3    H1 7035   1.592   5.323   5.378
 2364TIP3    H2 7036   1.465   5.352   5.456
 2365TIP3   OH2 7037   7.336   3.977   1.078
 2365TIP3    H1 7038   7.391   3.937   1.011
 2365TIP3    H2 7039   7.254   3.997   1.033
 2366TIP3   OH2 7040   5.613   4.435   1.624
 2366TIP3    H1 7041   5.586   4.355   1.670
 2366TIP3    H2 7042   5.551   4.502   1.653
 2367TIP3   OH2 7043   7.366   0.400   2.810
 2367TIP3    H1 7044   7.427   0.366   2.876
 2367TIP3    H2 7045   7.421   0.425   2.736
 2368TIP3   OH2 7046   4.620   2.883   1.472
 2368TIP3    H1 7047   4.703   2.846   1.501
 2368TIP3    H2 7048   4.586   2.929   1.549
 2369TIP3   OH2 7049   1.084   6.176   4.164
 2369TIP3    H1 7050   1.042   6.166   4.079
 2369TIP3    H2 7051   1.047   6.106   4.218
 2370TIP3   OH2 7052   2.606   6.382   4.215
 2370TIP3    H1 7053   2.649   6.412   4.295
 2370TIP3    H2 7054   2.569   6.462   4.177
 2371TIP3   OH2 7055   3.308   6.556   1.114
 2371TIP3    H1 7056   3.286   6.553   1.020
 2371TIP3    H2 7057   3.261   6.482   1.152
 2372TIP3   OH2 7058   0.231   2.654   4.099
 2372TIP3    H1 7059   0.229   2.692   4.187
 2372TIP3    H2 7060   0.165   2.584   4.101
 2373TIP3   OH2 7061   6.962   4.780   3.115
 2373TIP3    H1 7062   6.933   4.753   3.202
 2373TIP3    H2 7063   7.035   4.723   3.094
 2374TIP3   OH2 7064   7.155   5.345   6.651
 2374TIP3    H1 7065   7.148   5.349   6.555
 2374TIP3    H2 7066   7.247   5.328   6.668
 2375TIP3   OH2 7067   2.948   2.173   4.060
 2375TIP3    H1 7068   2.925   2.166   4.153
 2375TIP3    H2 7069   2.864   2.186   4.016
 2376TIP3   OH2 7070   0.478   6.931   0.726
 2376TIP3    H1 7071   0.459   7.020   0.697
 2376TIP3    H2 7072   0.397   6.901   0.767
 2377TIP3   OH2 7073   4.465   2.935   2.559
 2377TIP3    H1 7074   4.395   2.985   2.601
 2377TIP3    H2 7075   4.482   2.863   2.620
 2378TIP3   OH2 7076   7.450   2.247   5.434
 2378TIP3    H1 7077   7.478   2.158   5.413
 2378TIP3    H2 7078   7.444   2.292   5.349
 2379TIP3   OH2 7079   1.836   2.908   0.996
 2379TIP3    H1 7080   1.929   2.903   0.973
 2379TIP3    H2 7081   1.800   2.971   0.933
 2380TIP3   OH2 7082   2.526   2.904   5.265
 2380TIP3    H1 7083   2.558   2.991   5.243
 2380TIP3    H2 7084   2.526   2.857   5.182
 2381TIP3   OH2 7085   4.877   5.034   5.008
 2381TIP3    H1 7086   4.912   4.964   5.064
 2381TIP3    H2 7087   4.800   5.065   5.054
 2382TIP3   OH2 7088   3.837   4.923   0.659
 2382TIP3    H1 7089   3.929   4.947   0.649
 2382TIP3    H2 7090   3.839   4.838   0.704
 2383TIP3   OH2 7091   3.448   0.381   5.131
 2383TIP3    H1 7092   3.430   0.302   5.080
 2383TIP3    H2 7093   3.432   0.355   5.222
 2384TIP3   OH2 7094   0.521   2.423   6.086
 2384TIP3    H1 7095   0.459   2.426   6.013
 2384TIP3    H2 7096   0.605   2.448   6.048
 2385TIP3   OH2 7097   5.929   0.062   1.845
 2385TIP3    H1 7098   5.975   0.068   1.761
 2385TIP3    H2 7099   5.912   0.152   1.870
 2386TIP3   OH2 7100   3.110   0.504   0.905
 2386TIP3    H1 7101   3.055   0.553   0.844
 2386TIP3    H2 7102   3.048   0.461   0.964
 2387TIP3   OH2 7103   5.248   4.201   1.448
 2387TIP3    H1 7104   5.309   4.131   1.468
 2387TIP3    H2 7105   5.274   4.231   1.361
 2388TIP3   OH2 7106   4.856   4.501   1.370
 2388TIP3    H1 7107   4.795   4.574   1.380
 2388TIP3    H2 7108   4.895   4.490   1.457
 2389TIP3   OH2 7109   6.894   6.916   0.778
 2389TIP3    H1 7110   6.925   7.006   0.784
 2389TIP3    H2 7111   6.818   6.920   0.720
 2390TIP3   OH2 7112   5.324   3.589   3.128
 2390TIP3    H1 7113   5.289   3.521   3.185
 2390TIP3    H2 7114   5.253   3.652   3.118
 2391TIP3   OH2 7115   7.227   5.904   4.851
 2391TIP3    H1 7116   7.255   5.875   4.938
 2391TIP3    H2 7117   7.200   5.995   4.864
 2392TIP3   OH2 7118   3.413   6.519   6.277
 2392TIP3    H1 7119   3.395   6.428   6.302
 2392TIP3    H2 7120   3.459   6.556   6.352
 2393TIP3   OH2 7121   7.528   4.635   5.543
 2393TIP3    H1 7122   7.486   4.686   5.613
 2393TIP3    H2 7123   7.457   4.589   5.500
 2394TIP3   OH2 7124   4.733   0.451   5.046
 2394TIP3    H1 7125   4.803   0.432   5.110
 2394TIP3    H2 7126   4.770   0.425   4.962
 2395TIP3   OH2 7127   2.268   4.085   3.988
 2395TIP3    H1 7128   2.201   4.127   3.933
 2395TIP3    H2 7129   2.351   4.116   3.953
 2396TIP3   OH2 7130   1.494   0.088   3.209
 2396TIP3    H1 7131   1.569   0.073   3.151
 2396TIP3    H2 7132   1.520   0.049   3.292
 2397TIP3   OH2 7133   0.892   6.294   1.433
 2397TIP3    H1 7134   0.963   6.350   1.402
 2397TIP3    H2 7135   0.820   6.354   1.449
 2398TIP3   OH2 7136   1.072   6.893   2.108
 2398TIP3    H1 7137   1.091   6.915   2.017
 2398TIP3    H2 7138   1.094   6.800   2.116
 2399TIP3   OH2 7139   7.837   4.007   2.446
 2399TIP3    H1 7140   7.844   4.009   2.351
 2399TIP3    H2 7141   7.884   3.927   2.472
 2400TIP3   OH2 7142   6.609   3.211   0.844
 2400TIP3    H1 7143   6.645   3.123   0.850
 2400TIP3    H2 7144   6.530   3.202   0.791
 2401TIP3   OH2 7145   7.946   5.164   0.941
 2401TIP3    H1 7146   7.916   5.123   0.859
 2401TIP3    H2 7147   8.017   5.108   0.971
 2402TIP3   OH2 7148   3.186   4.689   1.723
 2402TIP3    H1 7149   3.263   4.662   1.774
 2402TIP3    H2 7150   3.118   4.706   1.788
 2403TIP3   OH2 7151   8.170   1.204   3.932
 2403TIP3    H1 7152   8.233   1.217   4.003
 2403TIP3    H2 7153   8.169   1.288   3.886
 2404TIP3   OH2 7154   7.183   3.148   5.472
 2404TIP3    H1 7155   7.244   3.179   5.539
 2404TIP3    H2 7156   7.133   3.078   5.516
 2405TIP3   OH2 7157   7.486   3.005   2.002
 2405TIP3    H1 7158   7.542   2.966   1.935
 2405TIP3    H2 7159   7.454   2.930   2.053
 2406TIP3   OH2 7160   1.644   4.838   1.257
 2406TIP3    H1 7161   1.683   4.848   1.344
 2406TIP3    H2 7162   1.553   4.816   1.274
 2407TIP3   OH2 7163   7.964   3.071   6.186
 2407TIP3    H1 7164   8.002   3.156   6.162
 2407TIP3    H2 7165   7.982   3.062   6.280
 2408TIP3   OH2 7166   4.649   6.317   2.738
 2408TIP3    H1 7167   4.636   6.367   2.658
 2408TIP3    H2 7168   4.744   6.323   2.755
 2409TIP3   OH2 7169   0.773   7.705   5.853
 2409TIP3    H1 7170   0.709   7.663   5.911
 2409TIP3    H2 7171   0.829   7.756   5.912
 2410TIP3   OH2 7172   1.310   6.364   3.404
 2410TIP3    H1 7173   1.266   6.404   3.329
 2410TIP3    H2 7174   1.404   6.373   3.384
 2411TIP3   OH2 7175   5.518   6.309   3.591
 2411TIP3    H1 7176   5.582   6.284   3.658
 2411TIP3    H2 7177   5.522   6.404   3.588
 2412TIP3   OH2 7178   7.241   3.707   6.393
 2412TIP3    H1 7179   7.197   3.792   6.400
 2412TIP3    H2 7180   7.207   3.656   6.466
 2413TIP3   OH2 7181   2.887   1.184   4.416
 2413TIP3    H1 7182   2.821   1.126   4.452
 2413TIP3    H2 7183   2.916   1.237   4.490
 2414TIP3   OH2 7184   3.678   5.289   3.492
 2414TIP3    H1 7185   3.701   5.233   3.566
 2414TIP3    H2 7186   3.599   5.249   3.456
 2415TIP3   OH2 7187   0.214   5.248   1.412
 2415TIP3    H1 7188   0.304   5.222   1.432
 2415TIP3    H2 7189   0.173   5.168   1.377
 2416TIP3   OH2 7190   3.968   2.355   2.584
 2416TIP3    H1 7191   3.935   2.421   2.645
 2416TIP3    H2 7192   4.034   2.307   2.634
 2417TIP3   OH2 7193   3.272   5.622   4.504
 2417TIP3    H1 7194   3.357   5.634   4.463
 2417TIP3    H2 7195   3.242   5.537   4.472
 2418TIP3   OH2 7196   4.275   0.718   0.971
 2418TIP3    H1 7197   4.348   0.657   0.971
 2418TIP3    H2 7198   4.312   0.802   0.998
 2419TIP3   OH2 7199   7.854   1.534   2.894
 2419TIP3    H1 7200   7.939   1.492   2.881
 2419TIP3    H2 7201   7.830   1.565   2.806
 2420TIP3   OH2 7202   7.031   5.243   3.877
 2420TIP3    H1 7203   7.061   5.196   3.800
 2420TIP3    H2 7204   7.036   5.179   3.948
 2421TIP3   OH2 7205   4.106   3.648   2.794
 2421TIP3    H1 7206   4.029   3.684   2.749
 2421TIP3    H2 7207   4.136   3.578   2.737
 2422TIP3   OH2 7208   4.821   6.102   2.979
 2422TIP3    H1 7209   4.746   6.068   2.929
 2422TIP3    H2 7210   4.896   6.091   2.920
 2423TIP3   OH2 7211   6.309   4.210   4.770
 2423TIP3    H1 7212   6.309   4.222   4.675
 2423TIP3    H2 7213   6.317   4.299   4.806
 2424TIP3   OH2 7214   1.221   3.510   3.613
 2424TIP3    H1 7215   1.240   3.518   3.706
 2424TIP3    H2 7216   1.134   3.468   3.610
 2425TIP3   OH2 7217   1.264   4.603   6.328
 2425TIP3    H1 7218   1.209   4.524   6.318
 2425TIP3    H2 7219   1.277   4.611   6.422
 2426TIP3   OH2 7220   4.494   1.072   0.255
 2426TIP3    H1 7221   4.545   1.035   0.328
 2426TIP3    H2 7222   4.464   0.996   0.206
 2427TIP3   OH2 7223   5.055   0.937   1.806
 2427TIP3    H1 7224   5.091   0.875   1.743
 2427TIP3    H2 7225   5.122   1.004   1.815
 2428TIP3   OH2 7226   4.113   7.276   2.696
 2428TIP3    H1 7227   4.183   7.216   2.724
 2428TIP3    H2 7228   4.150   7.324   2.623
 2429TIP3   OH2 7229   6.343   1.191   1.280
 2429TIP3    H1 7230   6.261   1.238   1.269
 2429TIP3    H2 7231   6.321   1.116   1.336
 2430TIP3   OH2 7232   1.121   1.707   3.854
 2430TIP3    H1 7233   1.165   1.745   3.930
 2430TIP3    H2 7234   1.130   1.612   3.865
 2431TIP3   OH2 7235   7.252   4.527   4.087
 2431TIP3    H1 7236   7.306   4.559   4.159
 2431TIP3    H2 7237   7.314   4.484   4.028
 2432TIP3   OH2 7238   4.915   4.970   4.395
 2432TIP3    H1 7239   5.006   4.963   4.423
 2432TIP3    H2 7240   4.895   5.064   4.401
 2433TIP3   OH2 7241   1.881   6.173   4.722
 2433TIP3    H1 7242   1.928   6.254   4.704
 2433TIP3    H2 7243   1.803   6.178   4.667
 2434TIP3   OH2 7244   0.529   2.460   2.040
 2434TIP3    H1 7245   0.572   2.377   2.059
 2434TIP3    H2 7246   0.435   2.441   2.048
 2435TIP3   OH2 7247   7.129   6.937   1.410
 2435TIP3    H1 7248   7.198   6.970   1.353
 2435TIP3    H2 7249   7.065   6.897   1.351
 2436TIP3   OH2 7250   5.948   0.468   4.540
 2436TIP3    H1 7251   6.013   0.402   4.514
 2436TIP3    H2 7252   5.975   0.494   4.627
 2437TIP3   OH2 7253   0.366   7.484   3.211
 2437TIP3    H1 7254   0.394   7.545   3.143
 2437TIP3    H2 7255   0.410   7.401   3.190
 2438TIP3   OH2 7256   6.878   2.442   5.133
 2438TIP3    H1 7257   6.943   2.502   5.096
 2438TIP3    H2 7258   6.928   2.390   5.196
 2439TIP3   OH2 7259   5.517   1.551   0.662
 2439TIP3    H1 7260   5.554   1.639   0.655
 2439TIP3    H2 7261   5.423   1.564   0.649
 2440TIP3   OH2 7262   7.074   5.105   3.378
 2440TIP3    H1 7263   7.128   5.163   3.431
 2440TIP3    H2 7264   7.132   5.076   3.307
 2441TIP3   OH2 7265   5.425   3.292   3.670
 2441TIP3    H1 7266   5.339   3.278   3.711
 2441TIP3    H2 7267   5.406   3.341   3.590
 2442TIP3   OH2 7268   1.844   0.765   0.556
 2442TIP3    H1 7269   1.869   0.850   0.592
 2442TIP3    H2 7270   1.925   0.729   0.521
 2443TIP3   OH2 7271   8.034   2.380   1.253
 2443TIP3    H1 7272   8.108   2.432   1.222
 2443TIP3    H2 7273   7.993   2.435   1.320
 2444TIP3   OH2 7274   3.176   0.304   0.502
 2444TIP3    H1 7275   3.205   0.379   0.450
 2444TIP3    H2 7276   3.228   0.230   0.469
 2445TIP3   OH2 7277   2.772   3.269   6.029
 2445TIP3    H1 7278   2.683   3.290   6.003
 2445TIP3    H2 7279   2.766   3.181   6.066
 2446TIP3   OH2 7280   5.515   1.884   3.714
 2446TIP3    H1 7281   5.516   1.921   3.803
 2446TIP3    H2 7282   5.579   1.812   3.718
 2447TIP3   OH2 7283   6.728   6.364   3.270
 2447TIP3    H1 7284   6.822   6.378   3.254
 2447TIP3    H2 7285   6.707   6.285   3.221
 2448TIP3   OH2 7286   6.463   6.013   4.334
 2448TIP3    H1 7287   6.481   6.073   4.406
 2448TIP3    H2 7288   6.537   6.024   4.274
 2449TIP3   OH2 7289   0.789   0.912   5.234
 2449TIP3    H1 7290   0.827   0.897   5.320
 2449TIP3    H2 7291   0.695   0.918   5.250
 2450TIP3   OH2 7292   3.761   2.533   4.987
 2450TIP3    H1 7293   3.790   2.480   4.914
 2450TIP3    H2 7294   3.807   2.498   5.063
 2451TIP3   OH2 7295   7.990   3.347   2.220
 2451TIP3    H1 7296   7.967   3.370   2.310
 2451TIP3    H2 7297   7.923   3.284   2.194
 2452TIP3   OH2 7298   7.888   3.006   6.487
 2452TIP3    H1 7299   7.975   3.035   6.460
 2452TIP3    H2 7300   7.904   2.950   6.564
 2453TIP3   OH2 7301   5.860   2.927   0.054
 2453TIP3    H1 7302   5.944   2.967   0.075
 2453TIP3    H2 7303   5.872   2.890  -0.033
 2454TIP3   OH2 7304   1.026   2.192   4.401
 2454TIP3    H1 7305   0.973   2.153   4.470
 2454TIP3    H2 7306   1.000   2.284   4.399
 2455TIP3   OH2 7307   7.319   6.174   4.277
 2455TIP3    H1 7308   7.333   6.105   4.342
 2455TIP3    H2 7309   7.249   6.140   4.221
 2456TIP3   OH2 7310   2.836   7.125   0.986
 2456TIP3    H1 7311   2.856   7.039   1.023
 2456TIP3    H2 7312   2.757   7.111   0.933
 2457TIP3   OH2 7313   5.971   6.440   6.707
 2457TIP3    H1 7314   6.029   6.390   6.650
 2457TIP3    H2 7315   6.000   6.420   6.795
 2458TIP3   OH2 7316   2.026   6.481   2.878
 2458TIP3    H1 7317   1.947   6.427   2.875
 2458TIP3    H2 7318   2.042   6.505   2.787
 2459TIP3   OH2 7319   8.229   5.529   5.871
 2459TIP3    H1 7320   8.290   5.473   5.824
 2459TIP3    H2 7321   8.205   5.596   5.808
 2460TIP3   OH2 7322   1.168   6.193   2.037
 2460TIP3    H1 7323   1.111   6.263   2.007
 2460TIP3    H2 7324   1.229   6.179   1.964
 2461TIP3   OH2 7325   3.030   2.147   1.740
 2461TIP3    H1 7326   2.957   2.109   1.788
 2461TIP3    H2 7327   3.106   2.132   1.797
 2462TIP3   OH2 7328   4.773   5.716   1.027
 2462TIP3    H1 7329   4.783   5.634   1.076
 2462TIP3    H2 7330   4.862   5.737   0.999
 2463TIP3   OH2 7331   6.167   4.794   5.314
 2463TIP3    H1 7332   6.114   4.716   5.302
 2463TIP3    H2 7333   6.184   4.798   5.409
 2464TIP3   OH2 7334   0.585   0.525   1.315
 2464TIP3    H1 7335   0.614   0.605   1.358
 2464TIP3    H2 7336   0.664   0.469   1.312
 2465TIP3   OH2 7337   1.348   1.426   3.669
 2465TIP3    H1 7338   1.303   1.460   3.591
 2465TIP3    H2 7339   1.424   1.482   3.679
 2466TIP3   OH2 7340   7.482   5.264   1.026
 2466TIP3    H1 7341   7.568   5.298   1.048
 2466TIP3    H2 7342   7.441   5.245   1.111
 2467TIP3   OH2 7343   2.281   1.463   5.867
 2467TIP3    H1 7344   2.281   1.559   5.866
 2467TIP3    H2 7345   2.210   1.440   5.926
 2468TIP3   OH2 7346   3.455   4.431   3.206
 2468TIP3    H1 7347   3.459   4.523   3.178
 2468TIP3    H2 7348   3.487   4.382   3.131
 2469TIP3   OH2 7349   8.070   2.647   3.886
 2469TIP3    H1 7350   8.055   2.560   3.923
 2469TIP3    H2 7351   7.984   2.675   3.854
 2470TIP3   OH2 7352   6.651   6.888   0.664
 2470TIP3    H1 7353   6.597   6.832   0.720
 2470TIP3    H2 7354   6.588   6.941   0.615
 2471TIP3   OH2 7355   3.674   4.607   1.407
 2471TIP3    H1 7356   3.592   4.561   1.426
 2471TIP3    H2 7357   3.700   4.643   1.492
 2472TIP3   OH2 7358   1.223   2.887   4.723
 2472TIP3    H1 7359   1.204   2.819   4.788
 2472TIP3    H2 7360   1.140   2.934   4.713
 2473TIP3   OH2 7361   4.528   7.548   6.479
 2473TIP3    H1 7362   4.502   7.621   6.535
 2473TIP3    H2 7363   4.618   7.567   6.455
 2474TIP3   OH2 7364   4.959   7.204   1.745
 2474TIP3    H1 7365   4.908   7.282   1.723
 2474TIP3    H2 7366   4.981   7.215   1.838
 2475TIP3   OH2 7367   3.677   5.419   0.187
 2475TIP3    H1 7368   3.735   5.473   0.241
 2475TIP3    H2 7369   3.677   5.333   0.230
 2476TIP3   OH2 7370   5.296   6.891   2.022
 2476TIP3    H1 7371   5.377   6.940   2.009
 2476TIP3    H2 7372   5.268   6.915   2.111
 2477TIP3   OH2 7373   0.629   2.103   6.536
 2477TIP3    H1 7374   0.611   2.017   6.496
 2477TIP3    H2 7375   0.611   2.166   6.467
 2478TIP3   OH2 7376   1.655   1.049   3.478
 2478TIP3    H1 7377   1.579   0.990   3.482
 2478TIP3    H2 7378   1.642   1.109   3.551
 2479TIP3   OH2 7379   0.345   3.335   1.673
 2479TIP3    H1 7380   0.414   3.374   1.619
 2479TIP3    H2 7381   0.360   3.241   1.667
 2480TIP3   OH2 7382   2.976   0.835   4.564
 2480TIP3    H1 7383   3.055   0.868   4.522
 2480TIP3    H2 7384   2.914   0.821   4.492
 2481TIP3   OH2 7385   5.843   3.462   3.710
 2481TIP3    H1 7386   5.916   3.407   3.680
 2481TIP3    H2 7387   5.834   3.440   3.802
 2482TIP3   OH2 7388   3.349   3.473   3.402
 2482TIP3    H1 7389   3.380   3.421   3.476
 2482TIP3    H2 7390   3.398   3.439   3.327
 2483TIP3   OH2 7391   3.163   0.103   2.652
 2483TIP3    H1 7392   3.241   0.050   2.665
 2483TIP3    H2 7393   3.195   0.190   2.630
 2484TIP3   OH2 7394   4.630   7.410   6.047
 2484TIP3    H1 7395   4.665   7.432   5.961
 2484TIP3    H2 7396   4.573   7.335   6.032
 2485TIP3   OH2 7397   3.612   6.811   4.906
 2485TIP3    H1 7398   3.562   6.779   4.831
 2485TIP3    H2 7399   3.650   6.893   4.877
 2486TIP3   OH2 7400   7.793   5.516   2.534
 2486TIP3    H1 7401   7.737   5.507   2.611
 2486TIP3    H2 7402   7.869   5.461   2.552
 2487TIP3   OH2 7403   7.425   4.539   2.979
 2487TIP3    H1 7404   7.332   4.543   3.002
 2487TIP3    H2 7405   7.461   4.622   3.010
 2488TIP3   OH2 7406   4.895   2.124   0.064
 2488TIP3    H1 7407   4.934   2.054   0.011
 2488TIP3    H2 7408   4.896   2.201   0.007
 2489TIP3   OH2 7409   4.686   5.430   5.680
 2489TIP3    H1 7410   4.707   5.338   5.696
 2489TIP3    H2 7411   4.772   5.473   5.672
 2490TIP3   OH2 7412   6.978   1.203   2.135
 2490TIP3    H1 7413   6.897   1.185   2.088
 2490TIP3    H2 7414   7.032   1.125   2.120
 2491TIP3   OH2 7415   0.074   3.415   6.468
 2491TIP3    H1 7416  -0.002   3.425   6.526
 2491TIP3    H2 7417   0.114   3.332   6.497
 2492TIP3   OH2 7418   0.458   1.903   0.014
 2492TIP3    H1 7419   0.376   1.905   0.063
 2492TIP3    H2 7420   0.499   1.987   0.034
 2493TIP3   OH2 7421   4.103   2.503   3.551
 2493TIP3    H1 7422   4.017   2.487   3.512
 2493TIP3    H2 7423   4.140   2.574   3.499
 2494TIP3   OH2 7424   5.393   2.728   6.452
 2494TIP3    H1 7425   5.338   2.772   6.516
 2494TIP3    H2 7426   5.333   2.699   6.384
 2495TIP3   OH2 7427   7.321   7.244   6.495
 2495TIP3    H1 7428   7.273   7.217   6.417
 2495TIP3    H2 7429   7.309   7.338   6.499
 2496TIP3   OH2 7430   3.061   1.177   5.130
 2496TIP3    H1 7431   3.011   1.140   5.057
 2496TIP3    H2 7432   3.007   1.248   5.164
 2497TIP3   OH2 7433   2.099   3.273   2.945
 2497TIP3    H1 7434   2.067   3.264   2.855
 2497TIP3    H2 7435   2.194   3.283   2.936
 2498TIP3   OH2 7436   3.904   0.589   1.287
 2498TIP3    H1 7437   3.942   0.608   1.201
 2498TIP3    H2 7438   3.947   0.508   1.314
 2499TIP3   OH2 7439   5.200   1.852   4.599
 2499TIP3    H1 7440   5.269   1.787   4.587
 2499TIP3    H2 7441   5.209   1.911   4.524
 2500TIP3   OH2 7442   4.841   4.740   4.239
 2500TIP3    H1 7443   4.916   4.719   4.185
 2500TIP3    H2 7444   4.864   4.823   4.281
 2501TIP3   OH2 7445   1.334   4.602   1.601
 2501TIP3    H1 7446   1.396   4.533   1.624
 2501TIP3    H2 7447   1.249   4.557   1.598
 2502TIP3   OH2 7448   8.020   4.958   4.505
 2502TIP3    H1 7449   8.115   4.948   4.498
 2502TIP3    H2 7450   7.989   4.871   4.531
 2503TIP3   OH2 7451   3.540   6.793   0.505
 2503TIP3    H1 7452   3.593   6.777   0.427
 2503TIP3    H2 7453   3.602   6.789   0.578
 2504TIP3   OH2 7454   4.067   6.772   0.775
 2504TIP3    H1 7455   4.151   6.762   0.731
 2504TIP3    H2 7456   4.034   6.857   0.744
 2505TIP3   OH2 7457   6.008   3.830   2.958
 2505TIP3    H1 7458   5.949   3.898   2.989
 2505TIP3    H2 7459   6.090   3.877   2.939
 2506TIP3   OH2 7460   1.573   0.174   4.430
 2506TIP3    H1 7461   1.666   0.181   4.408
 2506TIP3    H2 7462   1.573   0.142   4.520
 2507TIP3   OH2 7463   0.805   4.153   4.119
 2507TIP3    H1 7464   0.788   4.201   4.038
 2507TIP3    H2 7465   0.743   4.079   4.116
 2508TIP3   OH2 7466   0.976   4.379   6.562
 2508TIP3    H1 7467   1.059   4.377   6.609
 2508TIP3    H2 7468   0.998   4.413   6.476
 2509TIP3   OH2 7469   2.974   0.031   2.237
 2509TIP3    H1 7470   2.980   0.056   2.145
 2509TIP3    H2 7471   3.045  -0.031   2.250
 2510TIP3   OH2 7472   7.318   7.525   4.753
 2510TIP3    H1 7473   7.259   7.541   4.679
 2510TIP3    H2 7474   7.311   7.603   4.807
 2511TIP3   OH2 7475   8.235   1.974   1.584
 2511TIP3    H1 7476   8.212   2.004   1.672
 2511TIP3    H2 7477   8.192   1.889   1.576
 2512TIP3   OH2 7478   3.241   1.710   6.661
 2512TIP3    H1 7479   3.198   1.627   6.644
 2512TIP3    H2 7480   3.170   1.767   6.693
 2513TIP3   OH2 7481   3.264   6.500   1.769
 2513TIP3    H1 7482   3.235   6.591   1.757
 2513TIP3    H2 7483   3.279   6.467   1.681
 2514TIP3   OH2 7484   5.895   7.520   3.408
 2514TIP3    H1 7485   5.902   7.425   3.416
 2514TIP3    H2 7486   5.973   7.546   3.359
 2515TIP3   OH2 7487   3.045   0.361   3.254
 2515TIP3    H1 7488   3.037   0.288   3.194
 2515TIP3    H2 7489   2.954   0.388   3.270
 2516TIP3   OH2 7490   4.586   3.376   1.069
 2516TIP3    H1 7491   4.611   3.403   1.157
 2516TIP3    H2 7492   4.507   3.427   1.049
 2517TIP3   OH2 7493   0.300   6.381   3.036
 2517TIP3    H1 7494   0.224   6.410   3.087
 2517TIP3    H2 7495   0.263   6.324   2.969
 2518TIP3   OH2 7496   0.862   3.930   0.548
 2518TIP3    H1 7497   0.888   3.904   0.459
 2518TIP3    H2 7498   0.785   3.877   0.567
 2519TIP3   OH2 7499   6.877   5.100   5.823
 2519TIP3    H1 7500   6.937   5.142   5.884
 2519TIP3    H2 7501   6.794   5.144   5.837
 2520TIP3   OH2 7502   4.984   2.773   4.649
 2520TIP3    H1 7503   5.062   2.760   4.704
 2520TIP3    H2 7504   4.928   2.831   4.700
 2521TIP3   OH2 7505   2.420   6.404   5.480
 2521TIP3    H1 7506   2.374   6.361   5.407
 2521TIP3    H2 7507   2.350   6.440   5.535
 2522TIP3   OH2 7508   3.880   7.781   0.136
 2522TIP3    H1 7509   3.838   7.866   0.151
 2522TIP3    H2 7510   3.973   7.796   0.154
 2523TIP3   OH2 7511   6.669   5.191   2.165
 2523TIP3    H1 7512   6.697   5.239   2.087
 2523TIP3    H2 7513   6.743   5.134   2.186
 2524TIP3   OH2 7514   4.094   6.559   5.194
 2524TIP3    H1 7515   4.108   6.590   5.105
 2524TIP3    H2 7516   4.027   6.617   5.230
 2525TIP3   OH2 7517   1.330   0.465   5.568
 2525TIP3    H1 7518   1.347   0.531   5.501
 2525TIP3    H2 7519   1.262   0.410   5.531
 2526TIP3   OH2 7520   7.398   6.162   2.504
 2526TIP3    H1 7521   7.463   6.177   2.573
 2526TIP3    H2 7522   7.319   6.133   2.550
 2527TIP3   OH2 7523   4.799   2.938   4.775
 2527TIP3    H1 7524   4.844   3.022   4.779
 2527TIP3    H2 7525   4.776   2.918   4.865
 2528TIP3   OH2 7526   0.575   6.597   6.418
 2528TIP3    H1 7527   0.588   6.688   6.390
 2528TIP3    H2 7528   0.625   6.546   6.355
 2529TIP3   OH2 7529   5.223   3.635   2.040
 2529TIP3    H1 7530   5.223   3.602   2.130
 2529TIP3    H2 7531   5.130   3.644   2.018
 2530TIP3   OH2 7532   7.544   0.191   4.928
 2530TIP3    H1 7533   7.457   0.166   4.958
 2530TIP3    H2 7534   7.548   0.161   4.837
 2531TIP3   OH2 7535   7.989   5.214   4.606
 2531TIP3    H1 7536   8.050   5.243   4.538
 2531TIP3    H2 7537   7.948   5.136   4.570
 2532TIP3   OH2 7538   7.683   6.636   4.899
 2532TIP3    H1 7539   7.777   6.627   4.913
 2532TIP3    H2 7540   7.674   6.714   4.845
 2533TIP3   OH2 7541   1.468   0.498   1.772
 2533TIP3    H1 7542   1.453   0.427   1.833
 2533TIP3    H2 7543   1.427   0.574   1.812
 2534TIP3   OH2 7544   6.478   3.476   0.634
 2534TIP3    H1 7545   6.481   3.476   0.539
 2534TIP3    H2 7546   6.567   3.498   0.661
 2535TIP3   OH2 7547   7.539   6.107   2.218
 2535TIP3    H1 7548   7.580   6.098   2.303
 2535TIP3    H2 7549   7.450   6.073   2.230
 2536TIP3   OH2 7550   8.124   1.895   0.625
 2536TIP3    H1 7551   8.181   1.824   0.654
 2536TIP3    H2 7552   8.066   1.910   0.699
 2537TIP3   OH2 7553   6.856   5.790   0.256
 2537TIP3    H1 7554   6.940   5.746   0.263
 2537TIP3    H2 7555   6.821   5.788   0.345
 2538TIP3   OH2 7556   4.087   6.073   0.560
 2538TIP3    H1 7557   4.141   6.065   0.639
 2538TIP3    H2 7558   4.019   6.136   0.584
 2539TIP3   OH2 7559   2.659   6.132   4.595
 2539TIP3    H1 7560   2.690   6.136   4.504
 2539TIP3    H2 7561   2.565   6.119   4.587
 2540TIP3   OH2 7562   2.885   3.021   4.566
 2540TIP3    H1 7563   2.942   2.997   4.639
 2540TIP3    H2 7564   2.911   2.963   4.495
 2541TIP3   OH2 7565   0.462   0.634   3.547
 2541TIP3    H1 7566   0.391   0.696   3.566
 2541TIP3    H2 7567   0.430   0.584   3.472
 2542TIP3   OH2 7568   6.083   0.897   0.661
 2542TIP3    H1 7569   6.153   0.859   0.713
 2542TIP3    H2 7570   6.028   0.822   0.636
 2543TIP3   OH2 7571   1.236   5.977   2.965
 2543TIP3    H1 7572   1.266   5.918   3.034
 2543TIP3    H2 7573   1.208   5.920   2.894
 2544TIP3   OH2 7574   0.275   0.936   2.334
 2544TIP3    H1 7575   0.195   0.898   2.297
 2544TIP3    H2 7576   0.305   0.998   2.267
 2545TIP3   OH2 7577   7.693   6.365   0.709
 2545TIP3    H1 7578   7.734   6.280   0.690
 2545TIP3    H2 7579   7.758   6.429   0.681
 2546TIP3   OH2 7580   2.857   6.545   1.806
 2546TIP3    H1 7581   2.875   6.511   1.894
 2546TIP3    H2 7582   2.925   6.507   1.751
 2547TIP3   OH2 7583   5.824   6.185   1.904
 2547TIP3    H1 7584   5.762   6.171   1.832
 2547TIP3    H2 7585   5.910   6.169   1.865
 2548TIP3   OH2 7586   1.316   3.810   3.605
 2548TIP3    H1 7587   1.229   3.839   3.578
 2548TIP3    H2 7588   1.309   3.715   3.610
 2549TIP3   OH2 7589   7.992   0.359   4.497
 2549TIP3    H1 7590   8.061   0.406   4.544
 2549TIP3    H2 7591   8.036   0.286   4.454
 2550TIP3   OH2 7592   4.055   2.839   6.258
 2550TIP3    H1 7593   4.010   2.919   6.284
 2550TIP3    H2 7594   4.108   2.815   6.334
 2551TIP3   OH2 7595   5.859   5.267   6.304
 2551TIP3    H1 7596   5.807   5.309   6.236
 2551TIP3    H2 7597   5.945   5.310   6.299
 2552TIP3   OH2 7598   2.343   0.769   1.705
 2552TIP3    H1 7599   2.258   0.735   1.734
 2552TIP3    H2 7600   2.354   0.850   1.755
 2553TIP3   OH2 7601   5.791   3.929   4.336
 2553TIP3    H1 7602   5.792   3.961   4.427
 2553TIP3    H2 7603   5.753   4.000   4.286
 2554TIP3   OH2 7604   0.304   4.144   3.894
 2554TIP3    H1 7605   0.375   4.207   3.910
 2554TIP3    H2 7606   0.337   4.088   3.824
 2555TIP3   OH2 7607   5.778   0.561   5.894
 2555TIP3    H1 7608   5.806   0.501   5.963
 2555TIP3    H2 7609   5.692   0.592   5.921
 2556TIP3   OH2 7610   6.834   2.457   4.325
 2556TIP3    H1 7611   6.842   2.476   4.231
 2556TIP3    H2 7612   6.746   2.421   4.335
 2557TIP3   OH2 7613   4.357   4.656   5.496
 2557TIP3    H1 7614   4.272   4.693   5.474
 2557TIP3    H2 7615   4.359   4.572   5.448
 2558TIP3   OH2 7616   0.895   3.058   6.740
 2558TIP3    H1 7617   0.817   3.110   6.757
 2558TIP3    H2 7618   0.960   3.091   6.801
 2559TIP3   OH2 7619   0.102   4.807   2.365
 2559TIP3    H1 7620   0.018   4.795   2.321
 2559TIP3    H2 7621   0.156   4.852   2.301
 2560TIP3   OH2 7622   2.712   3.873   4.296
 2560TIP3    H1 7623   2.685   3.819   4.371
 2560TIP3    H2 7624   2.785   3.926   4.329
 2561TIP3   OH2 7625   4.603   5.554   5.178
 2561TIP3    H1 7626   4.666   5.555   5.250
 2561TIP3    H2 7627   4.517   5.551   5.221
 2562TIP3   OH2 7628   3.560   5.765   0.156
 2562TIP3    H1 7629   3.639   5.738   0.110
 2562TIP3    H2 7630   3.537   5.849   0.117
 2563TIP3   OH2 7631   7.794   6.551   4.426
 2563TIP3    H1 7632   7.737   6.499   4.482
 2563TIP3    H2 7633   7.788   6.640   4.461
 2564TIP3   OH2 7634   0.328   3.897   4.471
 2564TIP3    H1 7635   0.237   3.916   4.450
 2564TIP3    H2 7636   0.367   3.983   4.489
 2565TIP3   OH2 7637   4.710   4.526   2.730
 2565TIP3    H1 7638   4.734   4.434   2.744
 2565TIP3    H2 7639   4.711   4.537   2.635
 2566TIP3   OH2 7640   6.048   3.842   4.824
 2566TIP3    H1 7641   6.050   3.935   4.802
 2566TIP3    H2 7642   6.140   3.815   4.819
 2567TIP3   OH2 7643   3.031   1.367   4.217
 2567TIP3    H1 7644   2.994   1.310   4.284
 2567TIP3    H2 7645   3.063   1.444   4.265
 2568TIP3   OH2 7646   1.224   2.978   2.320
 2568TIP3    H1 7647   1.278   3.054   2.343
 2568TIP3    H2 7648   1.137   3.000   2.350
 2569TIP3   OH2 7649   6.369   1.950   2.196
 2569TIP3    H1 7650   6.369   1.911   2.283
 2569TIP3    H2 7651   6.454   1.925   2.159
 2570TIP3   OH2 7652   4.945   3.896   3.948
 2570TIP3    H1 7653   4.891   3.954   3.895
 2570TIP3    H2 7654   4.919   3.807   3.922
 2571TIP3   OH2 7655   0.769   4.155   1.442
 2571TIP3    H1 7656   0.841   4.217   1.436
 2571TIP3    H2 7657   0.809   4.070   1.424
 2572TIP3   OH2 7658   3.706   3.617   4.701
 2572TIP3    H1 7659   3.671   3.605   4.612
 2572TIP3    H2 7660   3.800   3.628   4.688
 2573TIP3   OH2 7661   7.858   7.060   6.016
 2573TIP3    H1 7662   7.815   6.978   5.993
 2573TIP3    H2 7663   7.916   7.038   6.089
 2574TIP3   OH2 7664   2.136   1.681   3.839
 2574TIP3    H1 7665   2.156   1.768   3.872
 2574TIP3    H2 7666   2.216   1.630   3.855
 2575TIP3   OH2 7667   4.226   2.304   0.395
 2575TIP3    H1 7668   4.298   2.245   0.416
 2575TIP3    H2 7669   4.154   2.246   0.369
 2576TIP3   OH2 7670   2.908   5.438   3.982
 2576TIP3    H1 7671   2.855   5.496   4.037
 2576TIP3    H2 7672   2.996   5.474   3.986
 2577TIP3   OH2 7673   2.204   7.274   3.688
 2577TIP3    H1 7674   2.210   7.323   3.606
 2577TIP3    H2 7675   2.126   7.219   3.677
 2578TIP3   OH2 7676   5.909   0.062   2.478
 2578TIP3    H1 7677   5.970   0.121   2.523
 2578TIP3    H2 7678   5.833   0.058   2.535
 2579TIP3   OH2 7679   2.478   3.565   3.628
 2579TIP3    H1 7680   2.396   3.582   3.675
 2579TIP3    H2 7681   2.533   3.641   3.647
 2580TIP3   OH2 7682   2.346   1.765   3.019
 2580TIP3    H1 7683   2.383   1.805   2.940
 2580TIP3    H2 7684   2.311   1.838   3.069
 2581TIP3   OH2 7685   6.327   5.782   1.161
 2581TIP3    H1 7686   6.291   5.830   1.086
 2581TIP3    H2 7687   6.392   5.841   1.199
 2582TIP3   OH2 7688   8.241   5.561   5.578
 2582TIP3    H1 7689   8.254   5.512   5.497
 2582TIP3    H2 7690   8.235   5.653   5.550
 2583TIP3   OH2 7691   4.809   1.363   4.912
 2583TIP3    H1 7692   4.812   1.298   4.981
 2583TIP3    H2 7693   4.838   1.444   4.953
 2584TIP3   OH2 7694   2.208   7.736   2.301
 2584TIP3    H1 7695   2.272   7.751   2.232
 2584TIP3    H2 7696   2.134   7.791   2.278
 2585TIP3   OH2 7697   0.176   3.739   4.893
 2585TIP3    H1 7698   0.192   3.743   4.987
 2585TIP3    H2 7699   0.116   3.665   4.881
 2586TIP3   OH2 7700   1.330   3.979   0.993
 2586TIP3    H1 7701   1.378   3.908   1.036
 2586TIP3    H2 7702   1.393   4.051   0.989
 2587TIP3   OH2 7703   7.283   1.271   4.938
 2587TIP3    H1 7704   7.364   1.242   4.898
 2587TIP3    H2 7705   7.302   1.275   5.031
 2588TIP3   OH2 7706   2.123   7.635   6.517
 2588TIP3    H1 7707   2.128   7.690   6.439
 2588TIP3    H2 7708   2.086   7.553   6.486
 2589TIP3   OH2 7709   0.770   1.429   0.875
 2589TIP3    H1 7710   0.863   1.411   0.885
 2589TIP3    H2 7711   0.745   1.385   0.793
 2590TIP3   OH2 7712   7.523   6.560   5.488
 2590TIP3    H1 7713   7.457   6.494   5.511
 2590TIP3    H2 7714   7.578   6.567   5.565
 2591TIP3   OH2 7715   7.297   7.480   0.498
 2591TIP3    H1 7716   7.306   7.515   0.410
 2591TIP3    H2 7717   7.237   7.540   0.542
 2592TIP3   OH2 7718   7.587   4.795   4.875
 2592TIP3    H1 7719   7.650   4.817   4.944
 2592TIP3    H2 7720   7.504   4.831   4.906
 2593TIP3   OH2 7721   8.220   2.860   5.911
 2593TIP3    H1 7722   8.129   2.871   5.936
 2593TIP3    H2 7723   8.219   2.788   5.848
 2594TIP3   OH2 7724   7.291   3.553   2.769
 2594TIP3    H1 7725   7.204   3.515   2.756
 2594TIP3    H2 7726   7.274   3.640   2.806
 2595TIP3   OH2 7727   1.103   0.018   4.254
 2595TIP3    H1 7728   1.015   0.020   4.292
 2595TIP3    H2 7729   1.124   0.110   4.238
 2596TIP3   OH2 7730   8.063   6.095   4.296
 2596TIP3    H1 7731   8.065   6.157   4.368
 2596TIP3    H2 7732   7.974   6.058   4.298
 2597TIP3   OH2 7733   2.698   7.047   2.372
 2597TIP3    H1 7734   2.723   7.111   2.439
 2597TIP3    H2 7735   2.609   7.072   2.346
 2598TIP3   OH2 7736   0.459   1.316   5.954
 2598TIP3    H1 7737   0.487   1.351   5.869
 2598TIP3    H2 7738   0.444   1.393   6.008
 2599TIP3   OH2 7739   5.847   5.828   2.105
 2599TIP3    H1 7740   5.867   5.801   2.195
 2599TIP3    H2 7741   5.760   5.792   2.089
 2600TIP3   OH2 7742   7.449   1.933   2.308
 2600TIP3    H1 7743   7.506   1.925   2.231
 2600TIP3    H2 7744   7.503   1.900   2.380
 2601TIP3   OH2 7745   2.287   3.669   6.424
 2601TIP3    H1 7746   2.337   3.597   6.386
 2601TIP3    H2 7747   2.201   3.632   6.442
 2602TIP3   OH2 7748   4.625   7.135   0.119
 2602TIP3    H1 7749   4.704   7.188   0.102
 2602TIP3    H2 7750   4.557   7.199   0.140
 2603TIP3   OH2 7751   4.436   0.933   3.091
 2603TIP3    H1 7752   4.446   1.015   3.140
 2603TIP3    H2 7753   4.382   0.957   3.016
 2604TIP3   OH2 7754   3.115   6.658   4.007
 2604TIP3    H1 7755   3.040   6.612   4.046
 2604TIP3    H2 7756   3.145   6.717   4.077
 2605TIP3   OH2 7757   7.462   6.245   3.707
 2605TIP3    H1 7758   7.548   6.253   3.748
 2605TIP3    H2 7759   7.400   6.271   3.775
 2606TIP3   OH2 7760   0.646   0.418   6.488
 2606TIP3    H1 7761   0.647   0.509   6.515
 2606TIP3    H2 7762   0.706   0.374   6.548
 2607TIP3   OH2 7763   4.526   4.255   0.564
 2607TIP3    H1 7764   4.446   4.297   0.597
 2607TIP3    H2 7765   4.552   4.308   0.489
 2608TIP3   OH2 7766   5.009   4.488   1.143
 2608TIP3    H1 7767   4.950   4.500   1.218
 2608TIP3    H2 7768   5.023   4.577   1.109
 2609TIP3   OH2 7769   3.515   6.710   1.502
 2609TIP3    H1 7770   3.529   6.691   1.409
 2609TIP3    H2 7771   3.467   6.792   1.503
 2610TIP3   OH2 7772   5.345   5.947   3.119
 2610TIP3    H1 7773   5.432   5.911   3.103
 2610TIP3    H2 7774   5.295   5.925   3.040
 2611TIP3   OH2 7775   7.037   0.696   5.830
 2611TIP3    H1 7776   7.083   0.728   5.752
 2611TIP3    H2 7777   7.009   0.607   5.807
 2612TIP3   OH2 7778   1.555   3.210   5.844
 2612TIP3    H1 7779   1.637   3.224   5.798
 2612TIP3    H2 7780   1.491   3.189   5.776
 2613TIP3   OH2 7781   8.028   4.090   3.693
 2613TIP3    H1 7782   8.014   4.020   3.630
 2613TIP3    H2 7783   8.123   4.102   3.695
 2614TIP3   OH2 7784   3.944   1.632   1.043
 2614TIP3    H1 7785   3.958   1.594   1.130
 2614TIP3    H2 7786   4.016   1.597   0.990
 2615TIP3   OH2 7787   7.012   0.771   2.550
 2615TIP3    H1 7788   6.997   0.706   2.482
 2615TIP3    H2 7789   6.937   0.764   2.608
 2616TIP3   OH2 7790   7.861   2.753   4.442
 2616TIP3    H1 7791   7.873   2.846   4.423
 2616TIP3    H2 7792   7.804   2.721   4.373
 2617TIP3   OH2 7793   3.149   5.148   1.297
 2617TIP3    H1 7794   3.056   5.125   1.302
 2617TIP3    H2 7795   3.176   5.124   1.209
 2618TIP3   OH2 7796   1.650   5.003   6.698
 2618TIP3    H1 7797   1.574   5.060   6.708
 2618TIP3    H2 7798   1.712   5.035   6.763
 2619TIP3   OH2 7799   4.049   1.679   5.229
 2619TIP3    H1 7800   4.076   1.756   5.179
 2619TIP3    H2 7801   4.006   1.622   5.165
 2620TIP3   OH2 7802   8.228   3.140   5.246
 2620TIP3    H1 7803   8.207   3.208   5.310
 2620TIP3    H2 7804   8.197   3.176   5.162
 2621TIP3   OH2 7805   2.124   1.983   3.459
 2621TIP3    H1 7806   2.050   2.044   3.453
 2621TIP3    H2 7807   2.201   2.039   3.463
 2622TIP3   OH2 7808   6.971   5.296   4.854
 2622TIP3    H1 7809   7.010   5.208   4.853
 2622TIP3    H2 7810   6.877   5.280   4.857
 2623TIP3   OH2 7811   6.420   0.274   2.775
 2623TIP3    H1 7812   6.407   0.364   2.744
 2623TIP3    H2 7813   6.378   0.272   2.861
 2624TIP3   OH2 7814   4.237   3.635  -0.008
 2624TIP3    H1 7815   4.296   3.698   0.032
 2624TIP3    H2 7816   4.259   3.552   0.033
 2625TIP3   OH2 7817   4.520   5.481   0.994
 2625TIP3    H1 7818   4.525   5.460   1.087
 2625TIP3    H2 7819   4.427   5.478   0.974
 2626TIP3   OH2 7820   6.050   4.083   4.303
 2626TIP3    H1 7821   5.972   4.037   4.333
 2626TIP3    H2 7822   6.118   4.015   4.300
 2627TIP3   OH2 7823   8.040   5.419   0.860
 2627TIP3    H1 7824   8.135   5.409   0.862
 2627TIP3    H2 7825   8.006   5.333   0.884
 2628TIP3   OH2 7826   3.782   2.303   2.384
 2628TIP3    H1 7827   3.741   2.217   2.395
 2628TIP3    H2 7828   3.849   2.306   2.452
 2629TIP3   OH2 7829   1.110   2.805   6.671
 2629TIP3    H1 7830   1.156   2.884   6.700
 2629TIP3    H2 7831   1.177   2.751   6.630
 2630TIP3   OH2 7832   7.787   1.195   3.221
 2630TIP3    H1 7833   7.779   1.132   3.150
 2630TIP3    H2 7834   7.847   1.262   3.188
 2631TIP3   OH2 7835   4.058   6.423   1.682
 2631TIP3    H1 7836   4.087   6.333   1.667
 2631TIP3    H2 7837   3.976   6.415   1.730
 2632TIP3   OH2 7838   2.912   6.709   3.825
 2632TIP3    H1 7839   2.824   6.711   3.863
 2632TIP3    H2 7840   2.968   6.679   3.896
 2633TIP3   OH2 7841   3.705   0.678   0.767
 2633TIP3    H1 7842   3.646   0.750   0.747
 2633TIP3    H2 7843   3.793   0.713   0.753
 2634TIP3   OH2 7844   7.589   1.156   5.930
 2634TIP3    H1 7845   7.622   1.180   6.016
 2634TIP3    H2 7846   7.549   1.070   5.943
 2635TIP3   OH2 7847   7.527   3.108   5.694
 2635TIP3    H1 7848   7.556   3.017   5.688
 2635TIP3    H2 7849   7.551   3.147   5.610
 2636TIP3   OH2 7850   2.400   7.083   4.189
 2636TIP3    H1 7851   2.427   7.028   4.115
 2636TIP3    H2 7852   2.459   7.159   4.185
 2637TIP3   OH2 7853   7.089   7.332   1.103
 2637TIP3    H1 7854   7.163   7.285   1.141
 2637TIP3    H2 7855   7.031   7.263   1.070
 2638TIP3   OH2 7856   4.495   2.063   1.177
 2638TIP3    H1 7857   4.465   1.988   1.125
 2638TIP3    H2 7858   4.587   2.044   1.195
 2639TIP3   OH2 7859   0.223   6.474   2.499
 2639TIP3    H1 7860   0.301   6.482   2.553
 2639TIP3    H2 7861   0.189   6.563   2.492
 2640TIP3   OH2 7862   2.372   2.611   1.308
 2640TIP3    H1 7863   2.354   2.632   1.216
 2640TIP3    H2 7864   2.310   2.541   1.329
 2641TIP3   OH2 7865   0.908   0.956   0.750
 2641TIP3    H1 7866   0.890   0.985   0.840
 2641TIP3    H2 7867   0.845   0.886   0.735
 2642TIP3   OH2 7868   7.090   3.432   1.031
 2642TIP3    H1 7869   7.095   3.491   0.956
 2642TIP3    H2 7870   7.000   3.440   1.062
 2643TIP3   OH2 7871   5.162   7.834   3.840
 2643TIP3    H1 7872   5.162   7.743   3.870
 2643TIP3    H2 7873   5.156   7.828   3.745
 2644TIP3   OH2 7874   8.051   0.404   2.322
 2644TIP3    H1 7875   8.035   0.389   2.229
 2644TIP3    H2 7876   8.146   0.398   2.331
 2645TIP3   OH2 7877   3.253   2.849   5.825
 2645TIP3    H1 7878   3.310   2.823   5.897
 2645TIP3    H2 7879   3.196   2.917   5.862
 2646TIP3   OH2 7880   3.019   0.092   4.601
 2646TIP3    H1 7881   2.943   0.073   4.545
 2646TIP3    H2 7882   3.090   0.040   4.563
 2647TIP3   OH2 7883   5.506   0.941   6.311
 2647TIP3    H1 7884   5.565   1.013   6.334
 2647TIP3    H2 7885   5.563   0.870   6.284
 2648TIP3   OH2 7886   0.848   1.879   5.186
 2648TIP3    H1 7887   0.869   1.870   5.093
 2648TIP3    H2 7888   0.927   1.915   5.225
 2649TIP3   OH2 7889   4.671   0.361   4.552
 2649TIP3    H1 7890   4.633   0.440   4.514
 2649TIP3    H2 7891   4.633   0.289   4.501
 2650TIP3   OH2 7892   7.746   6.477   0.392
 2650TIP3    H1 7893   7.781   6.509   0.475
 2650TIP3    H2 7894   7.680   6.541   0.368
 2651TIP3   OH2 7895   6.075   3.636   5.372
 2651TIP3    H1 7896   6.170   3.625   5.369
 2651TIP3    H2 7897   6.045   3.611   5.285
 2652TIP3   OH2 7898   3.523   1.143   5.258
 2652TIP3    H1 7899   3.487   1.207   5.197
 2652TIP3    H2 7900   3.449   1.117   5.313
 2653TIP3   OH2 7901   7.081   3.152   1.853
 2653TIP3    H1 7902   7.176   3.155   1.864
 2653TIP3    H2 7903   7.062   3.061   1.829
 2654TIP3   OH2 7904   8.108   0.393   5.699
 2654TIP3    H1 7905   8.026   0.412   5.745
 2654TIP3    H2 7906   8.173   0.384   5.769
 2655TIP3   OH2 7907   8.060   5.816   3.011
 2655TIP3    H1 7908   8.073   5.764   3.090
 2655TIP3    H2 7909   8.062   5.753   2.939
 2656TIP3   OH2 7910   4.210   6.750   3.241
 2656TIP3    H1 7911   4.249   6.750   3.153
 2656TIP3    H2 7912   4.124   6.709   3.228
 2657TIP3   OH2 7913   3.476   0.289   5.386
 2657TIP3    H1 7914   3.567   0.262   5.384
 2657TIP3    H2 7915   3.464   0.329   5.472
 2658TIP3   OH2 7916   6.552   2.325   0.088
 2658TIP3    H1 7917   6.514   2.399   0.041
 2658TIP3    H2 7918   6.491   2.307   0.160
 2659TIP3   OH2 7919   7.417   6.590   1.034
 2659TIP3    H1 7920   7.451   6.659   0.977
 2659TIP3    H2 7921   7.364   6.637   1.099
 2660TIP3   OH2 7922   4.743   1.063   6.172
 2660TIP3    H1 7923   4.673   1.099   6.226
 2660TIP3    H2 7924   4.810   1.131   6.170
 2661TIP3   OH2 7925   0.726   3.639   2.064
 2661TIP3    H1 7926   0.782   3.713   2.042
 2661TIP3    H2 7927   0.769   3.598   2.140
 2662TIP3   OH2 7928   5.609   7.436   0.053
 2662TIP3    H1 7929   5.664   7.490  -0.005
 2662TIP3    H2 7930   5.671   7.397   0.115
 2663TIP3   OH2 7931   7.717   3.601   5.671
 2663TIP3    H1 7932   7.660   3.677   5.685
 2663TIP3    H2 7933   7.747   3.576   5.758
 2664TIP3   OH2 7934   0.828   0.959   3.242
 2664TIP3    H1 7935   0.826   0.910   3.324
 2664TIP3    H2 7936   0.787   1.043   3.263
 2665TIP3   OH2 7937   1.414   4.547   0.926
 2665TIP3    H1 7938   1.499   4.563   0.965
 2665TIP3    H2 7939   1.381   4.634   0.904
 2666TIP3   OH2 7940   7.694   1.677   2.551
 2666TIP3    H1 7941   7.712   1.680   2.457
 2666TIP3    H2 7942   7.668   1.586   2.568
 2667TIP3   OH2 7943   3.026   2.795   3.725
 2667TIP3    H1 7944   3.016   2.843   3.807
 2667TIP3    H2 7945   2.951   2.735   3.723
 2668TIP3   OH2 7946   7.667   0.701   0.898
 2668TIP3    H1 7947   7.676   0.688   0.993
 2668TIP3    H2 7948   7.611   0.778   0.890
 2669TIP3   OH2 7949   3.473   1.048   0.498
 2669TIP3    H1 7950   3.548   1.108   0.490
 2669TIP3    H2 7951   3.457   1.018   0.408
 2670TIP3   OH2 7952   1.507   4.223   1.157
 2670TIP3    H1 7953   1.450   4.182   1.222
 2670TIP3    H2 7954   1.520   4.312   1.190
 2671TIP3   OH2 7955   1.899   6.099   1.052
 2671TIP3    H1 7956   1.956   6.109   0.976
 2671TIP3    H2 7957   1.818   6.144   1.028
 2672TIP3   OH2 7958   3.138   5.240   3.865
 2672TIP3    H1 7959   3.212   5.259   3.922
 2672TIP3    H2 7960   3.065   5.225   3.926
 2673TIP3   OH2 7961   1.144   0.773   2.213
 2673TIP3    H1 7962   1.148   0.853   2.160
 2673TIP3    H2 7963   1.122   0.804   2.301
 2674TIP3   OH2 7964   2.843   3.792   2.199
 2674TIP3    H1 7965   2.842   3.705   2.159
 2674TIP3    H2 7966   2.857   3.775   2.292
 2675TIP3   OH2 7967   1.036   0.243   0.077
 2675TIP3    H1 7968   1.016   0.152   0.099
 2675TIP3    H2 7969   0.953   0.289   0.085
 2676TIP3   OH2 7970   6.951   1.612   5.632
 2676TIP3    H1 7971   7.016   1.666   5.587
 2676TIP3    H2 7972   6.870   1.663   5.625
 2677TIP3   OH2 7973   0.256   7.724   6.296
 2677TIP3    H1 7974   0.254   7.643   6.246
 2677TIP3    H2 7975   0.252   7.793   6.229
 2678TIP3   OH2 7976   4.249   0.248   2.428
 2678TIP3    H1 7977   4.195   0.325   2.446
 2678TIP3    H2 7978   4.338   0.277   2.445
 2679TIP3   OH2 7979   5.439   4.614   0.595
 2679TIP3    H1 7980   5.458   4.589   0.685
 2679TIP3    H2 7981   5.349   4.583   0.580
 2680TIP3   OH2 7982   3.840   7.290   5.195
 2680TIP3    H1 7983   3.826   7.314   5.104
 2680TIP3    H2 7984   3.913   7.228   5.193
 2681TIP3   OH2 7985   2.790   0.311   5.743
 2681TIP3    H1 7986   2.808   0.366   5.819
 2681TIP3    H2 7987   2.803   0.368   5.668
 2682TIP3   OH2 7988   3.931   1.237   3.132
 2682TIP3    H1 7989   3.851   1.263   3.086
 2682TIP3    H2 7990   3.916   1.146   3.158
 2683TIP3   OH2 7991   1.444   6.562   3.603
 2683TIP3    H1 7992   1.511   6.514   3.556
 2683TIP3    H2 7993   1.370   6.501   3.609
 2684TIP3   OH2 7994   3.253   4.918   5.828
 2684TIP3    H1 7995   3.213   4.922   5.914
 2684TIP3    H2 7996   3.208   4.847   5.783
 2685TIP3   OH2 7997   6.158   3.141   2.062
 2685TIP3    H1 7998   6.145   3.217   2.005
 2685TIP3    H2 7999   6.074   3.095   2.060
 2686TIP3   OH2 8000   4.790   2.578   2.184
 2686TIP3    H1 8001   4.795   2.625   2.101
 2686TIP3    H2 8002   4.819   2.489   2.163
 2687TIP3   OH2 8003   2.010   7.233   6.064
 2687TIP3    H1 8004   2.007   7.218   6.159
 2687TIP3    H2 8005   2.041   7.150   6.028
 2688TIP3   OH2 8006   1.935   7.392   4.015
 2688TIP3    H1 8007   2.028   7.378   4.034
 2688TIP3    H2 8008   1.890   7.366   4.094
 2689TIP3   OH2 8009   2.456   1.816   2.298
 2689TIP3    H1 8010   2.383   1.878   2.302
 2689TIP3    H2 8011   2.516   1.855   2.235
 2690TIP3   OH2 8012   2.745   2.048   2.812
 2690TIP3    H1 8013   2.769   1.986   2.881
 2690TIP3    H2 8014   2.798   2.126   2.831
 2691TIP3   OH2 8015   7.021   4.377   2.415
 2691TIP3    H1 8016   7.016   4.284   2.391
 2691TIP3    H2 8017   6.971   4.422   2.348
 2692TIP3   OH2 8018   5.140   5.367   0.934
 2692TIP3    H1 8019   5.120   5.347   1.025
 2692TIP3    H2 8020   5.232   5.341   0.924
 2693TIP3   OH2 8021   2.415   7.625   0.823
 2693TIP3    H1 8022   2.485   7.690   0.813
 2693TIP3    H2 8023   2.459   7.541   0.812
 2694TIP3   OH2 8024   2.745   1.549   2.398
 2694TIP3    H1 8025   2.665   1.597   2.420
 2694TIP3    H2 8026   2.813   1.617   2.396
 2695TIP3   OH2 8027   1.158   5.301   1.669
 2695TIP3    H1 8028   1.192   5.364   1.606
 2695TIP3    H2 8029   1.212   5.313   1.747
 2696TIP3   OH2 8030   7.266   2.089   0.170
 2696TIP3    H1 8031   7.251   2.048   0.085
 2696TIP3    H2 8032   7.314   2.022   0.220
 2697TIP3   OH2 8033   7.314   5.873   4.063
 2697TIP3    H1 8034   7.229   5.911   4.088
 2697TIP3    H2 8035   7.318   5.791   4.111
 2698TIP3   OH2 8036   1.070   2.774   4.112
 2698TIP3    H1 8037   1.005   2.839   4.138
 2698TIP3    H2 8038   1.084   2.788   4.019
 2699TIP3   OH2 8039   0.363   4.037   0.499
 2699TIP3    H1 8040   0.361   3.947   0.531
 2699TIP3    H2 8041   0.273   4.053   0.469
 2700TIP3   OH2 8042   4.988   5.144   5.903
 2700TIP3    H1 8043   5.060   5.150   5.967
 2700TIP3    H2 8044   4.918   5.098   5.951
 2701TIP3   OH2 8045   4.835   2.151   1.909
 2701TIP3    H1 8046   4.875   2.189   1.832
 2701TIP3    H2 8047   4.875   2.197   1.983
 2702TIP3   OH2 8048   7.685   5.008   3.782
 2702TIP3    H1 8049   7.688   5.075   3.850
 2702TIP3    H2 8050   7.775   4.974   3.778
 2703TIP3   OH2 8051   5.035   1.021   0.598
 2703TIP3    H1 8052   5.060   1.113   0.597
 2703TIP3    H2 8053   5.100   0.978   0.541
 2704TIP3   OH2 8054   5.510   3.036   3.584
 2704TIP3    H1 8055   5.435   3.074   3.630
 2704TIP3    H2 8056   5.472   2.972   3.524
 2705TIP3   OH2 8057   0.918   2.277   6.154
 2705TIP3    H1 8058   1.006   2.300   6.124
 2705TIP3    H2 8059   0.922   2.284   6.250
 2706TIP3   OH2 8060   7.108   0.047   3.308
 2706TIP3    H1 8061   7.118   0.054   3.213
 2706TIP3    H2 8062   7.191   0.012   3.339
 2707TIP3   OH2 8063   7.381   6.674   0.433
 2707TIP3    H1 8064   7.386   6.632   0.519
 2707TIP3    H2 8065   7.431   6.617   0.375
 2708TIP3   OH2 8066   1.597   7.510   3.648
 2708TIP3    H1 8067   1.502   7.501   3.641
 2708TIP3    H2 8068   1.618   7.479   3.735
 2709TIP3   OH2 8069   6.369   3.634   5.950
 2709TIP3    H1 8070   6.390   3.683   5.871
 2709TIP3    H2 8071   6.286   3.590   5.930
 2710TIP3   OH2 8072   2.300   0.148   6.335
 2710TIP3    H1 8073   2.339   0.146   6.423
 2710TIP3    H2 8074   2.216   0.105   6.346
 2711TIP3   OH2 8075   6.113   0.232   0.269
 2711TIP3    H1 8076   6.078   0.205   0.354
 2711TIP3    H2 8077   6.038   0.228   0.210
 2712TIP3   OH2 8078   6.159   6.613   4.940
 2712TIP3    H1 8079   6.246   6.617   4.980
 2712TIP3    H2 8080   6.143   6.702   4.908
 2713TIP3   OH2 8081   4.794   1.742   3.243
 2713TIP3    H1 8082   4.726   1.809   3.251
 2713TIP3    H2 8083   4.745   1.660   3.241
 2714TIP3   OH2 8084   0.625   7.184   0.028
 2714TIP3    H1 8085   0.624   7.097  -0.012
 2714TIP3    H2 8086   0.547   7.186   0.084
 2715TIP3   OH2 8087   5.099   5.364   3.773
 2715TIP3    H1 8088   5.110   5.429   3.841
 2715TIP3    H2 8089   5.119   5.280   3.815
 2716TIP3   OH2 8090   6.204   2.144   2.077
 2716TIP3    H1 8091   6.229   2.143   1.984
 2716TIP3    H2 8092   6.264   2.083   2.119
 2717TIP3   OH2 8093   3.813   3.532   0.857
 2717TIP3    H1 8094   3.877   3.464   0.837
 2717TIP3    H2 8095   3.842   3.608   0.806
 2718TIP3   OH2 8096   0.623   5.254   5.195
 2718TIP3    H1 8097   0.675   5.206   5.259
 2718TIP3    H2 8098   0.588   5.329   5.243
 2719TIP3   OH2 8099   5.118   5.771   6.317
 2719TIP3    H1 8100   5.124   5.749   6.224
 2719TIP3    H2 8101   5.175   5.847   6.327
 2720TIP3   OH2 8102   6.526   5.583   3.789
 2720TIP3    H1 8103   6.537   5.515   3.723
 2720TIP3    H2 8104   6.433   5.579   3.812
 2721TIP3   OH2 8105   8.188   0.545   0.810
 2721TIP3    H1 8106   8.139   0.512   0.735
 2721TIP3    H2 8107   8.134   0.615   0.846
 2722TIP3   OH2 8108   3.441   0.819   5.263
 2722TIP3    H1 8109   3.464   0.858   5.348
 2722TIP3    H2 8110   3.490   0.737   5.261
 2723TIP3   OH2 8111   7.253   1.882   6.185
 2723TIP3    H1 8112   7.215   1.803   6.223
 2723TIP3    H2 8113   7.209   1.892   6.101
 2724TIP3   OH2 8114   7.558   0.928   3.162
 2724TIP3    H1 8115   7.569   0.943   3.255
 2724TIP3    H2 8116   7.645   0.938   3.125
 2725TIP3   OH2 8117   2.938   6.508   0.658
 2725TIP3    H1 8118   2.860   6.563   0.667
 2725TIP3    H2 8119   2.957   6.479   0.748
 2726TIP3   OH2 8120   8.199   0.539   5.482
 2726TIP3    H1 8121   8.202   0.493   5.566
 2726TIP3    H2 8122   8.180   0.630   5.505
 2727TIP3   OH2 8123   5.950   0.409   5.755
 2727TIP3    H1 8124   5.924   0.499   5.777
 2727TIP3    H2 8125   5.996   0.417   5.671
 2728TIP3   OH2 8126   7.963   2.094   4.138
 2728TIP3    H1 8127   8.005   2.009   4.124
 2728TIP3    H2 8128   8.035   2.151   4.164
 2729TIP3   OH2 8129   6.791   4.558   4.070
 2729TIP3    H1 8130   6.729   4.554   4.143
 2729TIP3    H2 8131   6.740   4.531   3.994
 2730TIP3   OH2 8132   3.482   3.668   6.137
 2730TIP3    H1 8133   3.457   3.727   6.066
 2730TIP3    H2 8134   3.399   3.635   6.171
 2731TIP3   OH2 8135   5.801   6.719   4.126
 2731TIP3    H1 8136   5.736   6.698   4.192
 2731TIP3    H2 8137   5.823   6.811   4.143
 2732TIP3   OH2 8138   7.381   1.803   1.789
 2732TIP3    H1 8139   7.337   1.761   1.715
 2732TIP3    H2 8140   7.320   1.796   1.862
 2733TIP3   OH2 8141   2.974   2.715   3.366
 2733TIP3    H1 8142   2.998   2.647   3.429
 2733TIP3    H2 8143   2.888   2.687   3.334
 2734TIP3   OH2 8144   7.769   7.645   1.294
 2734TIP3    H1 8145   7.856   7.679   1.312
 2734TIP3    H2 8146   7.782   7.586   1.220
 2735TIP3   OH2 8147   4.642   2.444   6.603
 2735TIP3    H1 8148   4.592   2.519   6.569
 2735TIP3    H2 8149   4.599   2.422   6.685
 2736TIP3   OH2 8150   4.748   2.428   5.867
 2736TIP3    H1 8151   4.728   2.335   5.869
 2736TIP3    H2 8152   4.720   2.458   5.781
 2737TIP3   OH2 8153   7.578   2.145   4.478
 2737TIP3    H1 8154   7.654   2.203   4.482
 2737TIP3    H2 8155   7.611   2.066   4.436
 2738TIP3   OH2 8156   4.856   4.974   3.861
 2738TIP3    H1 8157   4.773   4.985   3.907
 2738TIP3    H2 8158   4.873   4.880   3.864
 2739TIP3   OH2 8159   2.619   5.125   4.820
 2739TIP3    H1 8160   2.554   5.056   4.828
 2739TIP3    H2 8161   2.704   5.081   4.830
 2740TIP3   OH2 8162   5.147   2.350   5.372
 2740TIP3    H1 8163   5.148   2.279   5.308
 2740TIP3    H2 8164   5.238   2.377   5.380
 2741TIP3   OH2 8165   0.085   6.050   2.393
 2741TIP3    H1 8166   0.067   6.059   2.299
 2741TIP3    H2 8167   0.121   5.962   2.402
 2742TIP3   OH2 8168   7.818   7.128   3.541
 2742TIP3    H1 8169   7.783   7.202   3.492
 2742TIP3    H2 8170   7.913   7.133   3.528
 2743TIP3   OH2 8171   8.045   4.400   4.149
 2743TIP3    H1 8172   8.125   4.383   4.099
 2743TIP3    H2 8173   7.999   4.316   4.149
 2744TIP3   OH2 8174   5.671   3.239   4.878
 2744TIP3    H1 8175   5.635   3.327   4.873
 2744TIP3    H2 8176   5.597   3.182   4.857
 2745TIP3   OH2 8177   4.201   7.008   2.121
 2745TIP3    H1 8178   4.138   6.945   2.158
 2745TIP3    H2 8179   4.188   7.003   2.027
 2746TIP3   OH2 8180   8.101   2.885   3.159
 2746TIP3    H1 8181   8.182   2.873   3.208
 2746TIP3    H2 8182   8.100   2.977   3.134
 2747TIP3   OH2 8183   6.176   5.074   1.284
 2747TIP3    H1 8184   6.244   5.038   1.341
 2747TIP3    H2 8185   6.100   5.085   1.342
 2748TIP3   OH2 8186   3.890   1.624   6.434
 2748TIP3    H1 8187   3.955   1.617   6.365
 2748TIP3    H2 8188   3.840   1.703   6.413
 2749TIP3   OH2 8189   2.726   3.570   3.015
 2749TIP3    H1 8190   2.710   3.479   2.988
 2749TIP3    H2 8191   2.660   3.620   2.968
 2750TIP3   OH2 8192   6.889   4.334   1.536
 2750TIP3    H1 8193   6.893   4.298   1.624
 2750TIP3    H2 8194   6.980   4.343   1.509
 2751TIP3   OH2 8195   6.930   0.539   2.446
 2751TIP3    H1 8196   6.966   0.468   2.394
 2751TIP3    H2 8197   6.867   0.497   2.505
 2752TIP3   OH2 8198   6.222   6.570   6.523
 2752TIP3    H1 8199   6.198   6.554   6.431
 2752TIP3    H2 8200   6.191   6.492   6.569
 2753TIP3   OH2 8201   4.226   7.439   4.402
 2753TIP3    H1 8202   4.238   7.357   4.354
 2753TIP3    H2 8203   4.311   7.482   4.397
 2754TIP3   OH2 8204   7.661   6.910   3.449
 2754TIP3    H1 8205   7.717   6.985   3.470
 2754TIP3    H2 8206   7.594   6.910   3.518
 2755TIP3   OH2 8207   8.195   5.301   0.304
 2755TIP3    H1 8208   8.137   5.302   0.228
 2755TIP3    H2 8209   8.150   5.354   0.369
 2756TIP3   OH2 8210   3.878   5.328   1.051
 2756TIP3    H1 8211   3.909   5.413   1.079
 2756TIP3    H2 8212   3.835   5.291   1.128
 2757TIP3   OH2 8213   6.655   0.720   3.881
 2757TIP3    H1 8214   6.721   0.657   3.910
 2757TIP3    H2 8215   6.670   0.797   3.936
 2758TIP3   OH2 8216   4.181   6.211   5.778
 2758TIP3    H1 8217   4.228   6.142   5.729
 2758TIP3    H2 8218   4.249   6.255   5.828
 2759TIP3   OH2 8219   0.340   2.443   2.515
 2759TIP3    H1 8220   0.302   2.360   2.545
 2759TIP3    H2 8221   0.281   2.472   2.445
 2760TIP3   OH2 8222   4.888   0.990   0.205
 2760TIP3    H1 8223   4.868   1.079   0.236
 2760TIP3    H2 8224   4.983   0.991   0.190
 2761TIP3   OH2 8225   6.377   4.139   3.801
 2761TIP3    H1 8226   6.407   4.183   3.721
 2761TIP3    H2 8227   6.389   4.204   3.870
 2762TIP3   OH2 8228   4.895   0.854   3.284
 2762TIP3    H1 8229   4.886   0.859   3.379
 2762TIP3    H2 8230   4.810   0.823   3.253
 2763TIP3   OH2 8231   0.063   0.313   2.801
 2763TIP3    H1 8232   0.157   0.326   2.815
 2763TIP3    H2 8233   0.027   0.401   2.792
 2764TIP3   OH2 8234   1.362   5.493   3.680
 2764TIP3    H1 8235   1.456   5.496   3.663
 2764TIP3    H2 8236   1.349   5.549   3.757
 2765TIP3   OH2 8237   1.251   1.684   2.047
 2765TIP3    H1 8238   1.312   1.626   2.093
 2765TIP3    H2 8239   1.275   1.675   1.955
 2766TIP3   OH2 8240   6.616   5.780   6.084
 2766TIP3    H1 8241   6.666   5.794   6.004
 2766TIP3    H2 8242   6.597   5.868   6.116
 2767TIP3   OH2 8243   6.322   3.120   0.808
 2767TIP3    H1 8244   6.367   3.075   0.737
 2767TIP3    H2 8245   6.229   3.108   0.790
 2768TIP3   OH2 8246   4.872   6.999   2.026
 2768TIP3    H1 8247   4.797   7.004   2.085
 2768TIP3    H2 8248   4.947   6.980   2.083
 2769TIP3   OH2 8249   5.246   4.449   6.589
 2769TIP3    H1 8250   5.333   4.460   6.551
 2769TIP3    H2 8251   5.240   4.515   6.658
 2770TIP3   OH2 8252   1.452   5.875   6.057
 2770TIP3    H1 8253   1.394   5.945   6.088
 2770TIP3    H2 8254   1.431   5.866   5.964
 2771TIP3   OH2 8255   6.884   4.233   5.495
 2771TIP3    H1 8256   6.827   4.307   5.471
 2771TIP3    H2 8257   6.970   4.257   5.460
 2772TIP3   OH2 8258   1.413   4.551   5.118
 2772TIP3    H1 8259   1.415   4.640   5.154
 2772TIP3    H2 8260   1.439   4.495   5.190
 2773TIP3   OH2 8261   8.275   3.921   2.704
 2773TIP3    H1 8262   8.203   3.949   2.761
 2773TIP3    H2 8263   8.323   4.002   2.686
 2774TIP3   OH2 8264   6.798   4.602   5.599
 2774TIP3    H1 8265   6.789   4.681   5.544
 2774TIP3    H2 8266   6.890   4.601   5.624
 2775TIP3   OH2 8267   2.222   2.348   0.222
 2775TIP3    H1 8268   2.298   2.393   0.259
 2775TIP3    H2 8269   2.247   2.255   0.223
 2776TIP3   OH2 8270   2.010   7.648   5.566
 2776TIP3    H1 8271   2.012   7.607   5.652
 2776TIP3    H2 8272   1.941   7.602   5.518
 2777TIP3   OH2 8273   6.903   7.754   3.674
 2777TIP3    H1 8274   6.880   7.662   3.679
 2777TIP3    H2 8275   6.856   7.787   3.598
 2778TIP3   OH2 8276   6.236   2.914   2.317
 2778TIP3    H1 8277   6.173   2.950   2.254
 2778TIP3    H2 8278   6.321   2.924   2.275
 2779TIP3   OH2 8279   8.216   0.137   2.975
 2779TIP3    H1 8280   8.165   0.217   2.984
 2779TIP3    H2 8281   8.157   0.074   2.934
 2780TIP3   OH2 8282   5.637   3.666   0.584
 2780TIP3    H1 8283   5.549   3.703   0.592
 2780TIP3    H2 8284   5.696   3.738   0.610
 2781TIP3   OH2 8285   7.856   2.290   2.842
 2781TIP3    H1 8286   7.841   2.354   2.911
 2781TIP3    H2 8287   7.771   2.280   2.799
 2782TIP3   OH2 8288   0.200   7.414   4.412
 2782TIP3    H1 8289   0.171   7.338   4.361
 2782TIP3    H2 8290   0.141   7.416   4.487
 2783TIP3   OH2 8291   0.768   4.499   2.334
 2783TIP3    H1 8292   0.720   4.483   2.415
 2783TIP3    H2 8293   0.713   4.559   2.285
 2784TIP3   OH2 8294   6.329   4.885   0.331
 2784TIP3    H1 8295   6.334   4.835   0.249
 2784TIP3    H2 8296   6.286   4.826   0.393
 2785TIP3   OH2 8297   5.504   5.630   5.574
 2785TIP3    H1 8298   5.507   5.691   5.501
 2785TIP3    H2 8299   5.595   5.599   5.582
 2786TIP3   OH2 8300   0.721   1.723   6.550
 2786TIP3    H1 8301   0.769   1.780   6.609
 2786TIP3    H2 8302   0.786   1.659   6.520
 2787TIP3   OH2 8303   3.353   3.823   5.967
 2787TIP3    H1 8304   3.268   3.840   6.008
 2787TIP3    H2 8305   3.382   3.908   5.935
 2788TIP3   OH2 8306   7.896   1.541   4.749
 2788TIP3    H1 8307   7.885   1.469   4.687
 2788TIP3    H2 8308   7.860   1.508   4.831
 2789TIP3   OH2 8309   0.989   4.610   1.819
 2789TIP3    H1 8310   1.024   4.645   1.737
 2789TIP3    H2 8311   0.895   4.605   1.805
 2790TIP3   OH2 8312   8.238   3.443   1.795
 2790TIP3    H1 8313   8.142   3.447   1.798
 2790TIP3    H2 8314   8.267   3.522   1.841
 2791TIP3   OH2 8315   4.121   6.478   6.548
 2791TIP3    H1 8316   4.102   6.397   6.595
 2791TIP3    H2 8317   4.182   6.452   6.479
 2792TIP3   OH2 8318   5.287   4.234   1.146
 2792TIP3    H1 8319   5.295   4.149   1.102
 2792TIP3    H2 8320   5.243   4.290   1.083
 2793TIP3   OH2 8321   6.191   2.243   3.312
 2793TIP3    H1 8322   6.122   2.232   3.247
 2793TIP3    H2 8323   6.236   2.158   3.315
 2794TIP3   OH2 8324   5.359   1.751   1.003
 2794TIP3    H1 8325   5.350   1.744   1.098
 2794TIP3    H2 8326   5.383   1.843   0.988
 2795TIP3   OH2 8327   8.286   3.546   4.877
 2795TIP3    H1 8328   8.242   3.563   4.794
 2795TIP3    H2 8329   8.271   3.453   4.893
 2796TIP3   OH2 8330   5.340   1.524   2.403
 2796TIP3    H1 8331   5.281   1.600   2.400
 2796TIP3    H2 8332   5.397   1.542   2.477
 2797TIP3   OH2 8333   6.265   3.916   3.517
 2797TIP3    H1 8334   6.256   3.825   3.488
 2797TIP3    H2 8335   6.356   3.938   3.497
 2798TIP3   OH2 8336   6.938   7.136   5.355
 2798TIP3    H1 8337   6.914   7.228   5.359
 2798TIP3    H2 8338   6.885   7.100   5.283
 2799TIP3   OH2 8339   5.903   4.056   0.722
 2799TIP3    H1 8340   5.953   4.130   0.756
 2799TIP3    H2 8341   5.904   4.067   0.627
 2800TIP3   OH2 8342   5.501   5.120   3.026
 2800TIP3    H1 8343   5.422   5.137   2.975
 2800TIP3    H2 8344   5.560   5.192   3.005
 2801TIP3   OH2 8345   6.688   5.789   1.168
 2801TIP3    H1 8346   6.719   5.701   1.149
 2801TIP3    H2 8347   6.665   5.825   1.083
 2802TIP3   OH2 8348   6.093   0.521   2.417
 2802TIP3    H1 8349   6.054   0.488   2.337
 2802TIP3    H2 8350   6.172   0.468   2.429
 2803TIP3   OH2 8351   0.716   7.689   1.371
 2803TIP3    H1 8352   0.811   7.677   1.373
 2803TIP3    H2 8353   0.697   7.742   1.448
 2804TIP3   OH2 8354   4.414   5.091   1.100
 2804TIP3    H1 8355   4.354   5.151   1.055
 2804TIP3    H2 8356   4.357   5.034   1.151
 2805TIP3   OH2 8357   2.141   2.128   4.648
 2805TIP3    H1 8358   2.178   2.164   4.567
 2805TIP3    H2 8359   2.046   2.130   4.634
 2806TIP3   OH2 8360   6.268   5.637   0.391
 2806TIP3    H1 8361   6.315   5.684   0.460
 2806TIP3    H2 8362   6.318   5.656   0.311
 2807TIP3   OH2 8363   1.295   7.678   1.724
 2807TIP3    H1 8364   1.247   7.632   1.793
 2807TIP3    H2 8365   1.369   7.621   1.704
 2808TIP3   OH2 8366   0.695   7.332   4.944
 2808TIP3    H1 8367   0.749   7.410   4.934
 2808TIP3    H2 8368   0.617   7.362   4.991
 2809TIP3   OH2 8369   7.155   3.969   5.460
 2809TIP3    H1 8370   7.179   4.047   5.512
 2809TIP3    H2 8371   7.231   3.953   5.404
 2810TIP3   OH2 8372   4.930   3.307   2.947
 2810TIP3    H1 8373   4.876   3.345   2.877
 2810TIP3    H2 8374   4.880   3.231   2.977
 2811TIP3   OH2 8375   2.953   2.130   6.273
 2811TIP3    H1 8376   2.995   2.170   6.349
 2811TIP3    H2 8377   2.888   2.071   6.310
 2812TIP3   OH2 8378   2.318   2.994   1.220
 2812TIP3    H1 8379   2.354   2.933   1.156
 2812TIP3    H2 8380   2.257   3.048   1.169
 2813TIP3   OH2 8381   3.009   5.978   6.025
 2813TIP3    H1 8382   2.939   6.044   6.027
 2813TIP3    H2 8383   3.032   5.971   5.932
 2814TIP3   OH2 8384   5.526   6.680   2.164
 2814TIP3    H1 8385   5.546   6.670   2.071
 2814TIP3    H2 8386   5.610   6.663   2.208
 2815TIP3   OH2 8387   1.095   4.898   0.125
 2815TIP3    H1 8388   1.040   4.852   0.188
 2815TIP3    H2 8389   1.176   4.917   0.172
 2816TIP3   OH2 8390   3.897   4.075   4.931
 2816TIP3    H1 8391   3.928   3.991   4.897
 2816TIP3    H2 8392   3.865   4.054   5.019
 2817TIP3   OH2 8393   6.070   1.883   6.377
 2817TIP3    H1 8394   6.120   1.877   6.458
 2817TIP3    H2 8395   6.065   1.793   6.345
 2818TIP3   OH2 8396   0.586   6.145   5.981
 2818TIP3    H1 8397   0.679   6.123   5.990
 2818TIP3    H2 8398   0.541   6.064   6.003
 2819TIP3   OH2 8399   7.292   5.269   2.037
 2819TIP3    H1 8400   7.337   5.327   2.098
 2819TIP3    H2 8401   7.244   5.328   1.979
 2820TIP3   OH2 8402   7.511   1.787   3.171
 2820TIP3    H1 8403   7.467   1.867   3.142
 2820TIP3    H2 8404   7.605   1.809   3.170
 2821TIP3   OH2 8405   8.133   5.826   6.716
 2821TIP3    H1 8406   8.143   5.822   6.621
 2821TIP3    H2 8407   8.183   5.903   6.743
 2822TIP3   OH2 8408   1.673   5.788   2.467
 2822TIP3    H1 8409   1.648   5.853   2.533
 2822TIP3    H2 8410   1.764   5.809   2.447
 2823TIP3   OH2 8411   4.919   4.123   4.251
 2823TIP3    H1 8412   4.946   4.195   4.195
 2823TIP3    H2 8413   4.998   4.069   4.261
 2824TIP3   OH2 8414   6.048   4.563   5.060
 2824TIP3    H1 8415   5.992   4.498   5.017
 2824TIP3    H2 8416   6.137   4.530   5.049
 2825TIP3   OH2 8417   2.345   6.494   0.698
 2825TIP3    H1 8418   2.263   6.461   0.735
 2825TIP3    H2 8419   2.319   6.540   0.619
 2826TIP3   OH2 8420   5.817   6.328   0.519
 2826TIP3    H1 8421   5.897   6.285   0.488
 2826TIP3    H2 8422   5.831   6.338   0.613
 2827TIP3   OH2 8423   6.498   5.473   2.532
 2827TIP3    H1 8424   6.513   5.434   2.618
 2827TIP3    H2 8425   6.577   5.525   2.515
 2828TIP3   OH2 8426   1.497   6.460   6.187
 2828TIP3    H1 8427   1.421   6.518   6.180
 2828TIP3    H2 8428   1.559   6.492   6.122
 2829TIP3   OH2 8429   6.353   4.305   6.267
 2829TIP3    H1 8430   6.332   4.397   6.287
 2829TIP3    H2 8431   6.412   4.278   6.338
 2830TIP3   OH2 8432   7.420   0.309   6.124
 2830TIP3    H1 8433   7.340   0.260   6.138
 2830TIP3    H2 8434   7.459   0.318   6.211
 2831TIP3   OH2 8435   5.313   3.362   0.828
 2831TIP3    H1 8436   5.243   3.422   0.800
 2831TIP3    H2 8437   5.266   3.286   0.862
 2832TIP3   OH2 8438   3.495   5.753   2.575
 2832TIP3    H1 8439   3.506   5.711   2.660
 2832TIP3    H2 8440   3.418   5.809   2.586
 2833TIP3   OH2 8441   8.042   3.688   5.869
 2833TIP3    H1 8442   8.111   3.652   5.812
 2833TIP3    H2 8443   8.000   3.754   5.815
 2834TIP3   OH2 8444   0.638   6.873   0.930
 2834TIP3    H1 8445   0.691   6.952   0.946
 2834TIP3    H2 8446   0.570   6.901   0.869
 2835TIP3   OH2 8447   5.113   1.495   4.842
 2835TIP3    H1 8448   5.088   1.456   4.758
 2835TIP3    H2 8449   5.130   1.420   4.900
 2836TIP3   OH2 8450   1.392   3.530   2.087
 2836TIP3    H1 8451   1.366   3.468   2.019
 2836TIP3    H2 8452   1.313   3.582   2.104
 2837TIP3   OH2 8453   5.066   5.372   6.435
 2837TIP3    H1 8454   5.155   5.402   6.420
 2837TIP3    H2 8455   5.052   5.382   6.529
 2838TIP3   OH2 8456   7.782   6.028   4.293
 2838TIP3    H1 8457   7.710   6.072   4.339
 2838TIP3    H2 8458   7.766   6.046   4.201
 2839TIP3   OH2 8459   7.791   5.775   2.654
 2839TIP3    H1 8460   7.804   5.691   2.609
 2839TIP3    H2 8461   7.698   5.777   2.675
 2840TIP3   OH2 8462   5.100   1.443   3.649
 2840TIP3    H1 8463   5.091   1.438   3.554
 2840TIP3    H2 8464   5.037   1.379   3.683
 2841TIP3   OH2 8465   2.654   5.010   6.047
 2841TIP3    H1 8466   2.588   4.986   6.111
 2841TIP3    H2 8467   2.661   5.106   6.054
 2842TIP3   OH2 8468   0.490   7.088   5.058
 2842TIP3    H1 8469   0.449   7.008   5.092
 2842TIP3    H2 8470   0.425   7.125   4.998
 2843TIP3   OH2 8471   5.589   2.456   4.385
 2843TIP3    H1 8472   5.629   2.409   4.312
 2843TIP3    H2 8473   5.584   2.547   4.355
 2844TIP3   OH2 8474   4.073   3.158   6.676
 2844TIP3    H1 8475   4.163   3.185   6.691
 2844TIP3    H2 8476   4.021   3.222   6.726
 2845TIP3   OH2 8477   5.646   5.007   5.479
 2845TIP3    H1 8478   5.591   5.010   5.401
 2845TIP3    H2 8479   5.586   5.029   5.551
 2846TIP3   OH2 8480   0.210   5.227   4.776
 2846TIP3    H1 8481   0.154   5.300   4.802
 2846TIP3    H2 8482   0.158   5.177   4.712
 2847TIP3   OH2 8483   5.765   1.524   1.130
 2847TIP3    H1 8484   5.702   1.494   1.065
 2847TIP3    H2 8485   5.824   1.450   1.142
 2848TIP3   OH2 8486   0.764   5.788   6.268
 2848TIP3    H1 8487   0.700   5.718   6.280
 2848TIP3    H2 8488   0.768   5.800   6.173
 2849TIP3   OH2 8489   4.224   4.646   0.564
 2849TIP3    H1 8490   4.294   4.693   0.519
 2849TIP3    H2 8491   4.153   4.709   0.570
 2850TIP3   OH2 8492   7.477   3.345   2.740
 2850TIP3    H1 8493   7.434   3.430   2.733
 2850TIP3    H2 8494   7.408   3.285   2.769
 2851TIP3   OH2 8495   5.731   0.871   6.641
 2851TIP3    H1 8496   5.793   0.930   6.599
 2851TIP3    H2 8497   5.710   0.913   6.724
 2852TIP3   OH2 8498   7.910   4.946   0.758
 2852TIP3    H1 8499   7.966   4.887   0.808
 2852TIP3    H2 8500   7.890   4.898   0.678
 2853TIP3   OH2 8501   6.588   4.903   4.938
 2853TIP3    H1 8502   6.502   4.929   4.907
 2853TIP3    H2 8503   6.641   4.894   4.858
 2854TIP3   OH2 8504   5.040   2.072   5.711
 2854TIP3    H1 8505   5.131   2.066   5.682
 2854TIP3    H2 8506   5.009   2.156   5.677
 2855TIP3   OH2 8507   5.172   1.893   6.740
 2855TIP3    H1 8508   5.216   1.941   6.811
 2855TIP3    H2 8509   5.133   1.961   6.686
 2856TIP3   OH2 8510   6.298   7.831   1.329
 2856TIP3    H1 8511   6.302   7.901   1.394
 2856TIP3    H2 8512   6.291   7.751   1.380
 2857TIP3   OH2 8513   1.449   6.650   0.347
 2857TIP3    H1 8514   1.367   6.606   0.327
 2857TIP3    H2 8515   1.481   6.607   0.426
 2858TIP3   OH2 8516   4.378   0.555   1.473
 2858TIP3    H1 8517   4.302   0.614   1.468
 2858TIP3    H2 8518   4.389   0.540   1.567
 2859TIP3   OH2 8519   3.452   1.823   4.562
 2859TIP3    H1 8520   3.458   1.759   4.633
 2859TIP3    H2 8521   3.541   1.858   4.555
 2860TIP3   OH2 8522   5.118   2.047   1.803
 2860TIP3    H1 8523   5.099   2.137   1.775
 2860TIP3    H2 8524   5.094   1.993   1.727
 2861TIP3   OH2 8525   6.185   4.630   0.858
 2861TIP3    H1 8526   6.183   4.626   0.953
 2861TIP3    H2 8527   6.159   4.720   0.837
 2862TIP3   OH2 8528   1.381   6.879   1.368
 2862TIP3    H1 8529   1.338   6.934   1.302
 2862TIP3    H2 8530   1.352   6.790   1.348
 2863TIP3   OH2 8531   6.695   6.526   2.537
 2863TIP3    H1 8532   6.642   6.448   2.520
 2863TIP3    H2 8533   6.735   6.547   2.452
 2864TIP3   OH2 8534  -0.039   3.918   5.786
 2864TIP3    H1 8535  -0.009   3.987   5.727
 2864TIP3    H2 8536   0.024   3.847   5.775
 2865TIP3   OH2 8537   2.740   5.987   0.036
 2865TIP3    H1 8538   2.790   5.956   0.111
 2865TIP3    H2 8539   2.785   5.952  -0.040
 2866TIP3   OH2 8540   2.285   0.484   4.944
 2866TIP3    H1 8541   2.318   0.484   4.854
 2866TIP3    H2 8542   2.260   0.575   4.961
 2867TIP3   OH2 8543   0.774   4.832   4.976
 2867TIP3    H1 8544   0.776   4.892   4.902
 2867TIP3    H2 8545   0.865   4.808   4.991
 2868TIP3   OH2 8546   4.055   7.696   0.574
 2868TIP3    H1 8547   4.056   7.668   0.666
 2868TIP3    H2 8548   3.963   7.713   0.556
 2869TIP3   OH2 8549   6.107   4.193   6.263
 2869TIP3    H1 8550   6.192   4.236   6.252
 2869TIP3    H2 8551   6.117   4.110   6.216
 2870TIP3   OH2 8552   8.241   4.115   2.935
 2870TIP3    H1 8553   8.307   4.180   2.957
 2870TIP3    H2 8554   8.159   4.152   2.968
 2871TIP3   OH2 8555   1.257   0.474   5.855
 2871TIP3    H1 8556   1.277   0.465   5.762
 2871TIP3    H2 8557   1.186   0.412   5.870
 2872TIP3   OH2 8558   2.996   6.406   1.641
 2872TIP3    H1 8559   2.939   6.329   1.635
 2872TIP3    H2 8560   2.990   6.446   1.554
 2873TIP3   OH2 8561   1.877   4.134   3.176
 2873TIP3    H1 8562   1.894   4.088   3.258
 2873TIP3    H2 8563   1.792   4.101   3.147
 2874TIP3   OH2 8564   6.707   1.093   2.323
 2874TIP3    H1 8565   6.702   1.071   2.230
 2874TIP3    H2 8566   6.698   1.189   2.325
 2875TIP3   OH2 8567   6.260   3.273   3.639
 2875TIP3    H1 8568   6.344   3.306   3.606
 2875TIP3    H2 8569   6.195   3.326   3.593
 2876TIP3   OH2 8570   7.889   5.553   3.729
 2876TIP3    H1 8571   7.809   5.521   3.688
 2876TIP3    H2 8572   7.957   5.536   3.663
 2877TIP3   OH2 8573   0.937   6.696   4.923
 2877TIP3    H1 8574   0.918   6.611   4.882
 2877TIP3    H2 8575   1.020   6.723   4.882
 2878TIP3   OH2 8576   7.821   6.526   0.935
 2878TIP3    H1 8577   7.771   6.599   0.898
 2878TIP3    H2 8578   7.831   6.548   1.028
 2879TIP3   OH2 8579   0.133   4.033   0.913
 2879TIP3    H1 8580   0.211   4.072   0.952
 2879TIP3    H2 8581   0.161   3.945   0.886
 2880TIP3   OH2 8582   0.263   1.731   1.396
 2880TIP3    H1 8583   0.291   1.823   1.396
 2880TIP3    H2 8584   0.343   1.682   1.418
 2881TIP3   OH2 8585   4.548   1.105   3.268
 2881TIP3    H1 8586   4.500   1.186   3.287
 2881TIP3    H2 8587   4.601   1.090   3.346
 2882TIP3   OH2 8588   3.157   4.665   0.701
 2882TIP3    H1 8589   3.171   4.707   0.785
 2882TIP3    H2 8590   3.082   4.711   0.663
 2883TIP3   OH2 8591   4.015   2.278   5.797
 2883TIP3    H1 8592   4.061   2.238   5.871
 2883TIP3    H2 8593   3.990   2.205   5.741
 2884TIP3   OH2 8594   4.473   3.797   1.109
 2884TIP3    H1 8595   4.390   3.830   1.142
 2884TIP3    H2 8596   4.449   3.720   1.057
 2885TIP3   OH2 8597   4.352   7.035   1.466
 2885TIP3    H1 8598   4.432   7.088   1.466
 2885TIP3    H2 8599   4.283   7.095   1.494
 2886TIP3   OH2 8600   4.343   0.279   4.867
 2886TIP3    H1 8601   4.415   0.236   4.820
 2886TIP3    H2 8602   4.369   0.274   4.959
 2887TIP3   OH2 8603   1.489   4.328   1.620
 2887TIP3    H1 8604   1.423   4.365   1.679
 2887TIP3    H2 8605   1.530   4.258   1.670
 2888TIP3   OH2 8606   8.128   2.672   6.577
 2888TIP3    H1 8607   8.077   2.594   6.598
 2888TIP3    H2 8608   8.075   2.745   6.610
 2889TIP3   OH2 8609   2.845   2.028   0.942
 2889TIP3    H1 8610   2.775   2.004   0.881
 2889TIP3    H2 8611   2.914   2.063   0.886
 2890TIP3   OH2 8612   2.215   7.559   1.244
 2890TIP3    H1 8613   2.248   7.648   1.253
 2890TIP3    H2 8614   2.243   7.515   1.324
 2891TIP3   OH2 8615   2.381   5.599   6.110
 2891TIP3    H1 8616   2.471   5.601   6.077
 2891TIP3    H2 8617   2.327   5.598   6.031
 2892TIP3   OH2 8618   1.967   7.523   3.400
 2892TIP3    H1 8619   1.910   7.590   3.438
 2892TIP3    H2 8620   1.932   7.440   3.433
 2893TIP3   OH2 8621   4.274   4.371   6.236
 2893TIP3    H1 8622   4.284   4.443   6.299
 2893TIP3    H2 8623   4.249   4.414   6.155
 2894TIP3   OH2 8624   3.473   6.681   2.167
 2894TIP3    H1 8625   3.466   6.601   2.116
 2894TIP3    H2 8626   3.385   6.717   2.167
 2895TIP3   OH2 8627   6.748   1.436   2.663
 2895TIP3    H1 8628   6.730   1.343   2.676
 2895TIP3    H2 8629   6.678   1.481   2.710
 2896TIP3   OH2 8630   7.932   2.580   5.163
 2896TIP3    H1 8631   8.010   2.631   5.186
 2896TIP3    H2 8632   7.875   2.643   5.118
 2897TIP3   OH2 8633   2.480   4.998   2.810
 2897TIP3    H1 8634   2.430   5.061   2.758
 2897TIP3    H2 8635   2.414   4.942   2.850
 2898TIP3   OH2 8636   7.371   6.577   4.172
 2898TIP3    H1 8637   7.287   6.615   4.147
 2898TIP3    H2 8638   7.373   6.583   4.267
 2899TIP3   OH2 8639   0.773   2.233   3.212
 2899TIP3    H1 8640   0.717   2.218   3.288
 2899TIP3    H2 8641   0.749   2.163   3.151
 2900TIP3   OH2 8642   1.588   7.492   5.418
 2900TIP3    H1 8643   1.593   7.417   5.478
 2900TIP3    H2 8644   1.544   7.560   5.469
 2901TIP3   OH2 8645   6.797   0.736   3.281
 2901TIP3    H1 8646   6.810   0.653   3.325
 2901TIP3    H2 8647   6.820   0.719   3.189
 2902TIP3   OH2 8648   5.142   3.460   2.699
 2902TIP3    H1 8649   5.096   3.493   2.622
 2902TIP3    H2 8650   5.100   3.504   2.773
 2903TIP3   OH2 8651   4.048   5.585   2.674
 2903TIP3    H1 8652   4.060   5.520   2.743
 2903TIP3    H2 8653   4.021   5.534   2.598
 2904TIP3   OH2 8654   6.913   6.538   0.197
 2904TIP3    H1 8655   6.891   6.463   0.252
 2904TIP3    H2 8656   6.831   6.561   0.154
 2905TIP3   OH2 8657   0.311   6.463   0.749
 2905TIP3    H1 8658   0.341   6.379   0.783
 2905TIP3    H2 8659   0.264   6.441   0.669
 2906TIP3   OH2 8660   2.184   5.636   2.963
 2906TIP3    H1 8661   2.170   5.610   3.054
 2906TIP3    H2 8662   2.156   5.560   2.912
 2907TIP3   OH2 8663   7.027   6.791   4.670
 2907TIP3    H1 8664   7.029   6.698   4.694
 2907TIP3    H2 8665   7.084   6.797   4.593
 2908TIP3   OH2 8666   2.497   4.688   4.475
 2908TIP3    H1 8667   2.507   4.603   4.516
 2908TIP3    H2 8668   2.403   4.697   4.460
 2909TIP3   OH2 8669   7.839   6.033   4.013
 2909TIP3    H1 8670   7.809   6.109   3.964
 2909TIP3    H2 8671   7.922   6.009   3.971
 2910TIP3   OH2 8672   2.643   0.108   4.179
 2910TIP3    H1 8673   2.652   0.162   4.100
 2910TIP3    H2 8674   2.711   0.042   4.170
 2911TIP3   OH2 8675   1.256   7.257   2.908
 2911TIP3    H1 8676   1.316   7.184   2.924
 2911TIP3    H2 8677   1.280   7.288   2.821
 2912TIP3   OH2 8678   7.063   1.992   5.989
 2912TIP3    H1 8679   7.029   2.008   6.077
 2912TIP3    H2 8680   7.020   2.058   5.934
 2913TIP3   OH2 8681   6.002   6.521   2.452
 2913TIP3    H1 8682   5.917   6.515   2.495
 2913TIP3    H2 8683   6.043   6.436   2.465
 2914TIP3   OH2 8684   3.706   4.245   3.983
 2914TIP3    H1 8685   3.684   4.291   3.902
 2914TIP3    H2 8686   3.775   4.183   3.958
 2915TIP3   OH2 8687   6.658   2.589   6.615
 2915TIP3    H1 8688   6.590   2.654   6.635
 2915TIP3    H2 8689   6.735   2.642   6.594
 2916TIP3   OH2 8690   7.830   0.020   0.663
 2916TIP3    H1 8691   7.863  -0.056   0.615
 2916TIP3    H2 8692   7.762   0.057   0.607
 2917TIP3   OH2 8693   2.412   4.549   3.034
 2917TIP3    H1 8694   2.361   4.480   3.078
 2917TIP3    H2 8695   2.490   4.504   3.002
 2918TIP3   OH2 8696   8.251   6.684   2.053
 2918TIP3    H1 8697   8.224   6.686   1.961
 2918TIP3    H2 8698   8.251   6.591   2.076
 2919TIP3   OH2 8699   2.714   6.896   4.159
 2919TIP3    H1 8700   2.658   6.960   4.203
 2919TIP3    H2 8701   2.773   6.948   4.104
 2920TIP3   OH2 8702   7.472   2.413   2.082
 2920TIP3    H1 8703   7.415   2.457   2.144
 2920TIP3    H2 8704   7.560   2.423   2.118
 2921TIP3   OH2 8705   7.349   0.432   4.414
 2921TIP3    H1 8706   7.427   0.381   4.436
 2921TIP3    H2 8707   7.359   0.452   4.321
 2922TIP3   OH2 8708   1.820   0.489   2.195
 2922TIP3    H1 8709   1.853   0.564   2.244
 2922TIP3    H2 8710   1.788   0.429   2.263
 2923TIP3   OH2 8711   2.379   7.780   1.323
 2923TIP3    H1 8712   2.454   7.722   1.308
 2923TIP3    H2 8713   2.408   7.840   1.392
 2924TIP3   OH2 8714   5.233   4.158   6.628
 2924TIP3    H1 8715   5.165   4.137   6.692
 2924TIP3    H2 8716   5.224   4.252   6.614
 2925TIP3   OH2 8717   7.013   7.271   1.867
 2925TIP3    H1 8718   6.962   7.236   1.794
 2925TIP3    H2 8719   6.948   7.302   1.930
 2926TIP3   OH2 8720   5.858   5.662   6.705
 2926TIP3    H1 8721   5.815   5.593   6.655
 2926TIP3    H2 8722   5.919   5.616   6.763
 2927TIP3   OH2 8723   6.561   7.132   0.108
 2927TIP3    H1 8724   6.537   7.160   0.196
 2927TIP3    H2 8725   6.651   7.164   0.096
 2928TIP3   OH2 8726   5.955   6.291   2.994
 2928TIP3    H1 8727   6.020   6.255   3.055
 2928TIP3    H2 8728   5.987   6.266   2.908
 2929TIP3   OH2 8729   5.908   1.866   2.902
 2929TIP3    H1 8730   5.889   1.924   2.975
 2929TIP3    H2 8731   5.837   1.880   2.840
 2930TIP3   OH2 8732   7.974   2.157   1.040
 2930TIP3    H1 8733   8.061   2.136   1.007
 2930TIP3    H2 8734   7.989   2.210   1.117
 2931TIP3   OH2 8735   3.015   7.237   2.974
 2931TIP3    H1 8736   2.967   7.165   3.015
 2931TIP3    H2 8737   3.003   7.310   3.034
 2932TIP3   OH2 8738   5.617   4.093   4.175
 2932TIP3    H1 8739   5.537   4.044   4.153
 2932TIP3    H2 8740   5.596   4.140   4.255
 2933TIP3   OH2 8741   8.047   2.008   2.582
 2933TIP3    H1 8742   8.009   1.935   2.631
 2933TIP3    H2 8743   8.062   2.076   2.648
 2934TIP3   OH2 8744   3.196   4.323   1.595
 2934TIP3    H1 8745   3.237   4.288   1.674
 2934TIP3    H2 8746   3.142   4.395   1.626
 2935TIP3   OH2 8747   4.074   4.781   1.596
 2935TIP3    H1 8748   4.144   4.843   1.620
 2935TIP3    H2 8749   4.034   4.756   1.679
 2936TIP3   OH2 8750   1.784   4.633   0.830
 2936TIP3    H1 8751   1.742   4.620   0.915
 2936TIP3    H2 8752   1.878   4.629   0.849
 2937TIP3   OH2 8753   3.203   6.744   2.586
 2937TIP3    H1 8754   3.241   6.657   2.584
 2937TIP3    H2 8755   3.276   6.802   2.607
 2938TIP3   OH2 8756   7.333   0.998   3.560
 2938TIP3    H1 8757   7.344   1.089   3.588
 2938TIP3    H2 8758   7.238   0.988   3.549
 2939TIP3   OH2 8759   0.201   1.383   0.033
 2939TIP3    H1 8760   0.278   1.438   0.020
 2939TIP3    H2 8761   0.126   1.442   0.020
 2940TIP3   OH2 8762   5.471   4.046   3.158
 2940TIP3    H1 8763   5.478   4.009   3.245
 2940TIP3    H2 8764   5.488   4.140   3.170
 2941TIP3   OH2 8765   7.570   1.480   4.054
 2941TIP3    H1 8766   7.505   1.454   4.119
 2941TIP3    H2 8767   7.521   1.529   3.988
 2942TIP3   OH2 8768   3.414   6.794   0.921
 2942TIP3    H1 8769   3.357   6.852   0.971
 2942TIP3    H2 8770   3.365   6.712   0.914
 2943TIP3   OH2 8771   5.826   1.555   6.699
 2943TIP3    H1 8772   5.764   1.538   6.770
 2943TIP3    H2 8773   5.910   1.572   6.743
 2944TIP3   OH2 8774   7.658   7.267   3.054
 2944TIP3    H1 8775   7.622   7.202   3.115
 2944TIP3    H2 8776   7.698   7.215   2.985
 2945TIP3   OH2 8777   3.111   6.391   1.211
 2945TIP3    H1 8778   3.092   6.456   1.279
 2945TIP3    H2 8779   3.027   6.349   1.193
 2946TIP3   OH2 8780   2.862   6.987   3.910
 2946TIP3    H1 8781   2.809   6.927   3.859
 2946TIP3    H2 8782   2.837   7.074   3.878
 2947TIP3   OH2 8783   4.527   2.939   2.978
 2947TIP3    H1 8784   4.564   2.921   3.064
 2947TIP3    H2 8785   4.530   2.855   2.933
 2948TIP3   OH2 8786   4.908   3.921   6.102
 2948TIP3    H1 8787   4.967   3.958   6.168
 2948TIP3    H2 8788   4.824   3.912   6.147
 2949TIP3   OH2 8789   0.713   1.942   0.925
 2949TIP3    H1 8790   0.749   1.855   0.941
 2949TIP3    H2 8791   0.716   1.985   1.011
 2950TIP3   OH2 8792   7.237   5.631   4.167
 2950TIP3    H1 8793   7.214   5.574   4.094
 2950TIP3    H2 8794   7.158   5.635   4.221
 2951TIP3   OH2 8795   6.558   7.618   6.287
 2951TIP3    H1 8796   6.546   7.712   6.277
 2951TIP3    H2 8797   6.624   7.610   6.357
 2952TIP3   OH2 8798   1.067   3.930   6.621
 2952TIP3    H1 8799   1.046   3.843   6.587
 2952TIP3    H2 8800   1.096   3.913   6.711
 2953TIP3   OH2 8801   3.924   6.091   4.709
 2953TIP3    H1 8802   3.829   6.086   4.721
 2953TIP3    H2 8803   3.935   6.119   4.618
 2954TIP3   OH2 8804   5.096   6.353   2.936
 2954TIP3    H1 8805   5.155   6.345   2.860
 2954TIP3    H2 8806   5.040   6.428   2.915
 2955TIP3   OH2 8807   0.264   4.163   6.025
 2955TIP3    H1 8808   0.267   4.249   6.066
 2955TIP3    H2 8809   0.190   4.119   6.068
 2956TIP3   OH2 8810   4.173   6.133   3.526
 2956TIP3    H1 8811   4.175   6.079   3.605
 2956TIP3    H2 8812   4.195   6.072   3.455
 2957TIP3   OH2 8813   5.252   3.287   5.159
 2957TIP3    H1 8814   5.278   3.379   5.151
 2957TIP3    H2 8815   5.160   3.286   5.132
 2958TIP3   OH2 8816   3.919   5.760   4.750
 2958TIP3    H1 8817   3.933   5.806   4.667
 2958TIP3    H2 8818   3.868   5.821   4.803
 2959TIP3   OH2 8819   4.944   7.764   1.337
 2959TIP3    H1 8820   4.969   7.744   1.427
 2959TIP3    H2 8821   4.937   7.859   1.334
 2960TIP3   OH2 8822   2.943   0.190   6.426
 2960TIP3    H1 8823   2.955   0.188   6.521
 2960TIP3    H2 8824   3.029   0.168   6.390
 2961TIP3   OH2 8825   2.766   0.301   3.341
 2961TIP3    H1 8826   2.736   0.374   3.287
 2961TIP3    H2 8827   2.688   0.274   3.389
 2962TIP3   OH2 8828   1.054   5.487   4.544
 2962TIP3    H1 8829   1.019   5.405   4.579
 2962TIP3    H2 8830   1.043   5.550   4.615
 2963TIP3   OH2 8831   6.738   1.210   6.327
 2963TIP3    H1 8832   6.661   1.154   6.338
 2963TIP3    H2 8833   6.764   1.198   6.236
 2964TIP3   OH2 8834   6.546   4.628   4.266
 2964TIP3    H1 8835   6.471   4.686   4.252
 2964TIP3    H2 8836   6.508   4.544   4.292
 2965TIP3   OH2 8837   2.934   3.714   2.452
 2965TIP3    H1 8838   2.968   3.643   2.506
 2965TIP3    H2 8839   2.885   3.769   2.514
 2966TIP3   OH2 8840   3.835   4.068   2.783
 2966TIP3    H1 8841   3.855   4.022   2.702
 2966TIP3    H2 8842   3.788   4.146   2.754
 2967TIP3   OH2 8843   4.712   0.256   3.643
 2967TIP3    H1 8844   4.690   0.179   3.591
 2967TIP3    H2 8845   4.631   0.308   3.645
 2968TIP3   OH2 8846   0.874   4.551   6.070
 2968TIP3    H1 8847   0.843   4.563   6.159
 2968TIP3    H2 8848   0.817   4.606   6.017
 2969TIP3   OH2 8849   6.398   5.625   1.615
 2969TIP3    H1 8850   6.365   5.635   1.526
 2969TIP3    H2 8851   6.493   5.623   1.606
 2970TIP3   OH2 8852   4.634   0.971   3.991
 2970TIP3    H1 8853   4.604   1.061   3.987
 2970TIP3    H2 8854   4.708   0.972   4.052
 2971TIP3   OH2 8855   0.635   7.164   5.815
 2971TIP3    H1 8856   0.699   7.219   5.861
 2971TIP3    H2 8857   0.609   7.215   5.739
 2972TIP3   OH2 8858   1.104   1.669   4.261
 2972TIP3    H1 8859   1.015   1.704   4.265
 2972TIP3    H2 8860   1.094   1.575   4.268
 2973TIP3   OH2 8861   8.043   6.776   2.614
 2973TIP3    H1 8862   7.957   6.801   2.581
 2973TIP3    H2 8863   8.103   6.798   2.542
 2974TIP3   OH2 8864   4.077   7.391   0.541
 2974TIP3    H1 8865   4.086   7.485   0.553
 2974TIP3    H2 8866   3.985   7.373   0.559
 2975TIP3   OH2 8867   3.128   1.518   6.495
 2975TIP3    H1 8868   3.108   1.555   6.409
 2975TIP3    H2 8869   3.051   1.465   6.517
 2976TIP3   OH2 8870   7.630   7.799   2.804
 2976TIP3    H1 8871   7.550   7.752   2.827
 2976TIP3    H2 8872   7.691   7.778   2.874
 2977TIP3   OH2 8873   6.800   2.330   1.129
 2977TIP3    H1 8874   6.884   2.354   1.089
 2977TIP3    H2 8875   6.743   2.311   1.055
 2978TIP3   OH2 8876   2.314   2.107   2.635
 2978TIP3    H1 8877   2.334   2.166   2.563
 2978TIP3    H2 8878   2.224   2.127   2.659
 2979TIP3   OH2 8879   6.512   0.249   1.696
 2979TIP3    H1 8880   6.500   0.155   1.691
 2979TIP3    H2 8881   6.589   0.261   1.752
 2980TIP3   OH2 8882   4.794   0.323   2.918
 2980TIP3    H1 8883   4.770   0.405   2.960
 2980TIP3    H2 8884   4.726   0.261   2.945
 2981TIP3   OH2 8885   3.470   5.246   2.679
 2981TIP3    H1 8886   3.470   5.187   2.755
 2981TIP3    H2 8887   3.380   5.280   2.675
 2982TIP3   OH2 8888   2.250   7.469   2.358
 2982TIP3    H1 8889   2.212   7.556   2.344
 2982TIP3    H2 8890   2.176   7.409   2.356
 2983TIP3   OH2 8891   2.223   7.087   3.434
 2983TIP3    H1 8892   2.243   7.162   3.377
 2983TIP3    H2 8893   2.146   7.047   3.395
 2984TIP3   OH2 8894   1.034   2.395   0.154
 2984TIP3    H1 8895   1.068   2.329   0.214
 2984TIP3    H2 8896   1.046   2.478   0.202
 2985TIP3   OH2 8897   0.822   5.956   2.014
 2985TIP3    H1 8898   0.727   5.956   2.023
 2985TIP3    H2 8899   0.847   5.865   2.033
 2986TIP3   OH2 8900   3.446   7.456   5.519
 2986TIP3    H1 8901   3.467   7.514   5.592
 2986TIP3    H2 8902   3.404   7.512   5.454
 2987TIP3   OH2 8903   6.146   0.079   0.643
 2987TIP3    H1 8904   6.080   0.049   0.706
 2987TIP3    H2 8905   6.212   0.124   0.697
 2988TIP3   OH2 8906   1.657   1.855   5.898
 2988TIP3    H1 8907   1.619   1.911   5.831
 2988TIP3    H2 8908   1.620   1.888   5.980
 2989TIP3   OH2 8909   5.978   0.518   3.003
 2989TIP3    H1 8910   5.921   0.506   3.079
 2989TIP3    H2 8911   5.995   0.612   3.001
 2990TIP3   OH2 8912   4.623   6.269   1.978
 2990TIP3    H1 8913   4.546   6.315   2.013
 2990TIP3    H2 8914   4.614   6.278   1.883
 2991TIP3   OH2 8915   0.096   3.926   1.981
 2991TIP3    H1 8916   0.097   3.936   1.885
 2991TIP3    H2 8917   0.154   3.996   2.012
 2992TIP3   OH2 8918   1.835   3.457   0.333
 2992TIP3    H1 8919   1.888   3.536   0.336
 2992TIP3    H2 8920   1.769   3.474   0.267
 2993TIP3   OH2 8921   2.551   4.758   1.119
 2993TIP3    H1 8922   2.589   4.780   1.204
 2993TIP3    H2 8923   2.615   4.793   1.056
 2994TIP3   OH2 8924   2.473   7.382   3.422
 2994TIP3    H1 8925   2.512   7.467   3.400
 2994TIP3    H2 8926   2.382   7.402   3.442
 2995TIP3   OH2 8927   1.216   1.760   3.232
 2995TIP3    H1 8928   1.147   1.754   3.299
 2995TIP3    H2 8929   1.256   1.846   3.246
 2996TIP3   OH2 8930   5.872   2.165   1.415
 2996TIP3    H1 8931   5.791   2.117   1.393
 2996TIP3    H2 8932   5.940   2.120   1.365
 2997TIP3   OH2 8933   2.119   6.419   0.854
 2997TIP3    H1 8934   2.096   6.326   0.851
 2997TIP3    H2 8935   2.103   6.445   0.945
 2998TIP3   OH2 8936   3.707   3.651   0.419
 2998TIP3    H1 8937   3.688   3.599   0.497
 2998TIP3    H2 8938   3.705   3.588   0.347
 2999TIP3   OH2 8939   0.634   1.492   1.797
 2999TIP3    H1 8940   0.725   1.464   1.804
 2999TIP3    H2 8941   0.595   1.467   1.881
 3000TIP3   OH2 8942   8.130   1.285   4.821
 3000TIP3    H1 8943   8.137   1.347   4.749
 3000TIP3    H2 8944   8.120   1.200   4.778
 3001TIP3   OH2 8945   4.539   0.176   0.716
 3001TIP3    H1 8946   4.591   0.141   0.789
 3001TIP3    H2 8947   4.552   0.270   0.721
 3002TIP3   OH2 8948   1.383   4.951   1.244
 3002TIP3    H1 8949   1.299   4.992   1.263
 3002TIP3    H2 8950   1.382   4.870   1.294
 3003TIP3   OH2 8951   6.740   2.905   0.509
 3003TIP3    H1 8952   6.815   2.962   0.493
 3003TIP3    H2 8953   6.770   2.819   0.479
 3004TIP3   OH2 8954   5.119   6.001   0.398
 3004TIP3    H1 8955   5.179   5.963   0.461
 3004TIP3    H2 8956   5.038   5.949   0.407
 3005TIP3   OH2 8957   2.763   6.574   1.072
 3005TIP3    H1 8958   2.760   6.588   1.166
 3005TIP3    H2 8959   2.763   6.662   1.034
 3006TIP3   OH2 8960   2.367   6.416   3.228
 3006TIP3    H1 8961   2.436   6.483   3.225
 3006TIP3    H2 8962   2.304   6.444   3.162
 3007TIP3   OH2 8963   3.951   3.204   5.269
 3007TIP3    H1 8964   4.017   3.137   5.249
 3007TIP3    H2 8965   3.867   3.158   5.264
 3008TIP3   OH2 8966   2.527   2.176   0.379
 3008TIP3    H1 8967   2.567   2.132   0.304
 3008TIP3    H2 8968   2.495   2.104   0.434
 3009TIP3   OH2 8969   0.738   4.011   1.155
 3009TIP3    H1 8970   0.763   3.969   1.072
 3009TIP3    H2 8971   0.808   3.990   1.215
 3010TIP3   OH2 8972   7.051   6.328   0.463
 3010TIP3    H1 8973   7.064   6.423   0.465
 3010TIP3    H2 8974   7.030   6.305   0.554
 3011TIP3   OH2 8975   7.337   3.258   0.094
 3011TIP3    H1 8976   7.389   3.212   0.160
 3011TIP3    H2 8977   7.300   3.333   0.140
 3012TIP3   OH2 8978   2.729   1.234   1.019
 3012TIP3    H1 8979   2.653   1.286   1.046
 3012TIP3    H2 8980   2.748   1.177   1.093
 3013TIP3   OH2 8981   1.288   7.003   0.860
 3013TIP3    H1 8982   1.339   6.972   0.785
 3013TIP3    H2 8983   1.303   7.098   0.862
 3014TIP3   OH2 8984   3.311   2.156   3.818
 3014TIP3    H1 8985   3.231   2.208   3.821
 3014TIP3    H2 8986   3.317   2.126   3.727
 3015TIP3   OH2 8987   4.671   1.692   1.624
 3015TIP3    H1 8988   4.744   1.752   1.610
 3015TIP3    H2 8989   4.693   1.616   1.570
 3016TIP3   OH2 8990   3.649   4.733   4.712
 3016TIP3    H1 8991   3.703   4.656   4.690
 3016TIP3    H2 8992   3.559   4.705   4.692
 3017TIP3   OH2 8993   2.378   0.276   5.334
 3017TIP3    H1 8994   2.329   0.266   5.253
 3017TIP3    H2 8995   2.386   0.187   5.369
 3018TIP3   OH2 8996   3.474   1.023   3.438
 3018TIP3    H1 8997   3.495   1.044   3.529
 3018TIP3    H2 8998   3.558   1.029   3.393
 3019TIP3   OH2 8999   4.126   6.048   2.724
 3019TIP3    H1 9000   4.080   6.123   2.761
 3019TIP3    H2 9001   4.078   5.972   2.757
 3020TIP3   OH2 9002   1.125   3.880   5.868
 3020TIP3    H1 9003   1.102   3.967   5.836
 3020TIP3    H2 9004   1.195   3.894   5.931
 3021TIP3   OH2 9005   7.384   6.156   0.398
 3021TIP3    H1 9006   7.365   6.206   0.478
 3021TIP3    H2 9007   7.429   6.078   0.429
 3022TIP3   OH2 9008   8.205   4.734   0.787
 3022TIP3    H1 9009   8.241   4.745   0.875
 3022TIP3    H2 9010   8.212   4.821   0.747
 3023TIP3   OH2 9011   6.820   2.838   3.819
 3023TIP3    H1 9012   6.827   2.922   3.773
 3023TIP3    H2 9013   6.747   2.851   3.881
 3024TIP3   OH2 9014   6.450   1.023   6.691
 3024TIP3    H1 9015   6.421   1.113   6.705
 3024TIP3    H2 9016   6.519   1.010   6.756
 3025TIP3   OH2 9017   0.613   0.449   4.301
 3025TIP3    H1 9018   0.654   0.462   4.215
 3025TIP3    H2 9019   0.553   0.523   4.310
 3026TIP3   OH2 9020   1.257   1.093   3.532
 3026TIP3    H1 9021   1.302   1.143   3.600
 3026TIP3    H2 9022   1.207   1.158   3.483
 3027TIP3   OH2 9023   7.036   3.339   5.692
 3027TIP3    H1 9024   7.054   3.394   5.769
 3027TIP3    H2 9025   7.121   3.334   5.647
 3028TIP3   OH2 9026   7.258   2.242   2.727
 3028TIP3    H1 9027   7.284   2.206   2.642
 3028TIP3    H2 9028   7.245   2.166   2.783
 3029TIP3   OH2 9029   6.004   4.090   2.246
 3029TIP3    H1 9030   5.929   4.073   2.189
 3029TIP3    H2 9031   6.059   4.013   2.236
 3030TIP3   OH2 9032   6.212   7.599   1.203
 3030TIP3    H1 9033   6.119   7.623   1.210
 3030TIP3    H2 9034   6.258   7.683   1.193
 3031TIP3   OH2 9035   4.535   4.571   3.129
 3031TIP3    H1 9036   4.498   4.508   3.191
 3031TIP3    H2 9037   4.597   4.520   3.077
 3032TIP3   OH2 9038   5.922   3.752   4.198
 3032TIP3    H1 9039   5.866   3.811   4.248
 3032TIP3    H2 9040   5.968   3.700   4.265
 3033TIP3   OH2 9041   7.711   2.051   5.372
 3033TIP3    H1 9042   7.637   1.995   5.349
 3033TIP3    H2 9043   7.737   2.023   5.459
 3034TIP3   OH2 9044   1.950   6.497   3.474
 3034TIP3    H1 9045   2.041   6.467   3.470
 3034TIP3    H2 9046   1.938   6.549   3.395
 3035TIP3   OH2 9047   6.103   7.665   3.224
 3035TIP3    H1 9048   6.162   7.727   3.267
 3035TIP3    H2 9049   6.018   7.709   3.224
 3036TIP3   OH2 9050   3.770   4.353   3.216
 3036TIP3    H1 9051   3.690   4.328   3.170
 3036TIP3    H2 9052   3.840   4.338   3.153
 3037TIP3   OH2 9053   3.180   2.652   1.645
 3037TIP3    H1 9054   3.095   2.689   1.625
 3037TIP3    H2 9055   3.218   2.712   1.709
 3038TIP3   OH2 9056   1.350   3.459   2.476
 3038TIP3    H1 9057   1.429   3.512   2.477
 3038TIP3    H2 9058   1.278   3.522   2.480
 3039TIP3   OH2 9059   2.497   7.561   5.244
 3039TIP3    H1 9060   2.473   7.534   5.332
 3039TIP3    H2 9061   2.589   7.535   5.234
 3040TIP3   OH2 9062   2.610   0.807   4.762
 3040TIP3    H1 9063   2.565   0.745   4.706
 3040TIP3    H2 9064   2.702   0.781   4.758
 3041TIP3   OH2 9065   4.739   1.338   0.880
 3041TIP3    H1 9066   4.790   1.373   0.808
 3041TIP3    H2 9067   4.775   1.380   0.958
 3042TIP3   OH2 9068   1.640   5.586   1.901
 3042TIP3    H1 9069   1.650   5.565   1.808
 3042TIP3    H2 9070   1.682   5.513   1.946
 3043TIP3   OH2 9071   7.335   2.793   6.598
 3043TIP3    H1 9072   7.415   2.748   6.627
 3043TIP3    H2 9073   7.351   2.885   6.618
 3044TIP3   OH2 9074   2.263   7.730   2.594
 3044TIP3    H1 9075   2.327   7.663   2.569
 3044TIP3    H2 9076   2.220   7.754   2.513
 3045TIP3   OH2 9077   6.704   0.282   6.341
 3045TIP3    H1 9078   6.646   0.355   6.360
 3045TIP3    H2 9079   6.682   0.216   6.407
 3046TIP3   OH2 9080   7.914   0.895   5.432
 3046TIP3    H1 9081   7.930   0.950   5.356
 3046TIP3    H2 9082   7.945   0.947   5.507
 3047TIP3   OH2 9083   7.434   3.670   6.015
 3047TIP3    H1 9084   7.350   3.702   6.049
 3047TIP3    H2 9085   7.436   3.701   5.924
 3048TIP3   OH2 9086   2.919   6.649   5.620
 3048TIP3    H1 9087   2.972   6.675   5.544
 3048TIP3    H2 9088   2.983   6.614   5.683
 3049TIP3   OH2 9089   6.021   1.225   0.227
 3049TIP3    H1 9090   5.995   1.278   0.151
 3049TIP3    H2 9091   6.089   1.277   0.270
 3050TIP3   OH2 9092   5.992   7.346   1.645
 3050TIP3    H1 9093   5.993   7.281   1.715
 3050TIP3    H2 9094   5.998   7.295   1.564
 3051TIP3   OH2 9095   2.296   0.645   2.216
 3051TIP3    H1 9096   2.263   0.571   2.164
 3051TIP3    H2 9097   2.377   0.613   2.254
 3052TIP3   OH2 9098   6.050   6.184   3.866
 3052TIP3    H1 9099   5.980   6.215   3.924
 3052TIP3    H2 9100   6.106   6.261   3.853
 3053TIP3   OH2 9101   4.937   4.453   2.181
 3053TIP3    H1 9102   4.983   4.369   2.177
 3053TIP3    H2 9103   5.006   4.519   2.185
 3054TIP3   OH2 9104   7.069   5.951   2.209
 3054TIP3    H1 9105   7.061   5.980   2.117
 3054TIP3    H2 9106   7.163   5.958   2.228
 3055TIP3   OH2 9107   4.152   3.880   5.606
 3055TIP3    H1 9108   4.241   3.897   5.575
 3055TIP3    H2 9109   4.161   3.874   5.702
 3056TIP3   OH2 9110   1.658   7.620   3.043
 3056TIP3    H1 9111   1.563   7.610   3.040
 3056TIP3    H2 9112   1.686   7.618   2.952
 3057TIP3   OH2 9113   3.088   5.788   5.429
 3057TIP3    H1 9114   3.090   5.883   5.435
 3057TIP3    H2 9115   3.162   5.759   5.483
 3058TIP3   OH2 9116   2.859   4.307   0.200
 3058TIP3    H1 9117   2.829   4.221   0.231
 3058TIP3    H2 9118   2.792   4.334   0.136
 3059TIP3   OH2 9119   1.872   4.714   2.547
 3059TIP3    H1 9120   1.779   4.732   2.565
 3059TIP3    H2 9121   1.883   4.735   2.454
 3060TIP3   OH2 9122   2.510   3.412   4.259
 3060TIP3    H1 9123   2.515   3.385   4.167
 3060TIP3    H2 9124   2.586   3.371   4.300
 3061TIP3   OH2 9125   1.483   6.783   2.786
 3061TIP3    H1 9126   1.565   6.832   2.789
 3061TIP3    H2 9127   1.460   6.780   2.693
 3062TIP3   OH2 9128   7.738   7.698   0.031
 3062TIP3    H1 9129   7.723   7.783   0.073
 3062TIP3    H2 9130   7.683   7.637   0.080
 3063TIP3   OH2 9131   1.052   2.850   6.198
 3063TIP3    H1 9132   1.000   2.897   6.263
 3063TIP3    H2 9133   1.124   2.910   6.177
 3064TIP3   OH2 9134   2.710   2.596   3.050
 3064TIP3    H1 9135   2.761   2.516   3.038
 3064TIP3    H2 9136   2.765   2.666   3.014
 3065TIP3   OH2 9137   4.930   6.401   4.844
 3065TIP3    H1 9138   4.874   6.449   4.784
 3065TIP3    H2 9139   4.870   6.356   4.903
 3066TIP3   OH2 9140   6.186   1.246   4.148
 3066TIP3    H1 9141   6.253   1.255   4.081
 3066TIP3    H2 9142   6.111   1.207   4.103
 3067TIP3   OH2 9143   1.408   2.513   4.033
 3067TIP3    H1 9144   1.388   2.591   4.085
 3067TIP3    H2 9145   1.354   2.524   3.954
 3068TIP3   OH2 9146   6.772   3.560   2.870
 3068TIP3    H1 9147   6.793   3.653   2.871
 3068TIP3    H2 9148   6.773   3.536   2.777
 3069TIP3   OH2 9149   8.139   1.714   1.561
 3069TIP3    H1 9150   8.082   1.661   1.617
 3069TIP3    H2 9151   8.119   1.684   1.472
 3070TIP3   OH2 9152   5.409   7.716   0.095
 3070TIP3    H1 9153   5.334   7.702   0.037
 3070TIP3    H2 9154   5.480   7.740   0.037
 3071TIP3   OH2 9155   7.600   7.453   2.158
 3071TIP3    H1 9156   7.624   7.529   2.105
 3071TIP3    H2 9157   7.584   7.383   2.095
 3072TIP3   OH2 9158   3.789   5.174   5.435
 3072TIP3    H1 9159   3.818   5.231   5.364
 3072TIP3    H2 9160   3.851   5.101   5.435
 3073TIP3   OH2 9161   6.647   7.028   6.111
 3073TIP3    H1 9162   6.613   7.112   6.142
 3073TIP3    H2 9163   6.622   6.965   6.178
 3074TIP3   OH2 9164   0.953   6.374   3.049
 3074TIP3    H1 9165   0.932   6.394   3.140
 3074TIP3    H2 9166   0.899   6.434   2.998
 3075TIP3   OH2 9167   1.026   4.352   4.821
 3075TIP3    H1 9168   1.096   4.385   4.764
 3075TIP3    H2 9169   1.048   4.388   4.907
 3076TIP3   OH2 9170   4.617   4.155   1.862
 3076TIP3    H1 9171   4.528   4.123   1.873
 3076TIP3    H2 9172   4.660   4.135   1.946
 3077TIP3   OH2 9173   4.738   7.295   3.924
 3077TIP3    H1 9174   4.713   7.353   3.996
 3077TIP3    H2 9175   4.686   7.215   3.939
 3078TIP3   OH2 9176   6.187   1.691   3.470
 3078TIP3    H1 9177   6.176   1.731   3.384
 3078TIP3    H2 9178   6.149   1.604   3.461
 3079TIP3   OH2 9179   3.868   5.791   2.149
 3079TIP3    H1 9180   3.818   5.713   2.123
 3079TIP3    H2 9181   3.905   5.824   2.067
 3080TIP3   OH2 9182   7.316   2.540   4.539
 3080TIP3    H1 9183   7.315   2.445   4.528
 3080TIP3    H2 9184   7.275   2.574   4.459
 3081TIP3   OH2 9185   7.496   6.616   6.751
 3081TIP3    H1 9186   7.492   6.703   6.792
 3081TIP3    H2 9187   7.421   6.615   6.691
 3082TIP3   OH2 9188   2.865   3.072   1.956
 3082TIP3    H1 9189   2.928   3.142   1.940
 3082TIP3    H2 9190   2.836   3.085   2.047
 3083TIP3   OH2 9191   7.639   3.996   3.542
 3083TIP3    H1 9192   7.682   3.988   3.627
 3083TIP3    H2 9193   7.709   4.021   3.482
 3084TIP3   OH2 9194   2.338   4.142   1.212
 3084TIP3    H1 9195   2.423   4.099   1.213
 3084TIP3    H2 9196   2.349   4.220   1.266
 3085TIP3   OH2 9197   6.831   4.133   1.368
 3085TIP3    H1 9198   6.841   4.184   1.449
 3085TIP3    H2 9199   6.754   4.171   1.326
 3086TIP3   OH2 9200   0.526   4.702   6.609
 3086TIP3    H1 9201   0.470   4.754   6.668
 3086TIP3    H2 9202   0.612   4.744   6.614
 3087TIP3   OH2 9203   7.207   3.499   1.967
 3087TIP3    H1 9204   7.134   3.449   1.930
 3087TIP3    H2 9205   7.164   3.568   2.018
 3088TIP3   OH2 9206   0.684   6.879   6.349
 3088TIP3    H1 9207   0.669   6.961   6.397
 3088TIP3    H2 9208   0.746   6.904   6.279
 3089TIP3   OH2 9209   0.208   5.217   1.875
 3089TIP3    H1 9210   0.205   5.122   1.870
 3089TIP3    H2 9211   0.117   5.245   1.864
 3090TIP3   OH2 9212   4.533   6.467   5.385
 3090TIP3    H1 9213   4.470   6.403   5.418
 3090TIP3    H2 9214   4.616   6.443   5.426
 3091TIP3   OH2 9215   3.858   0.738   2.318
 3091TIP3    H1 9216   3.823   0.652   2.340
 3091TIP3    H2 9217   3.853   0.742   2.222
 3092TIP3   OH2 9218   6.859   0.843   6.286
 3092TIP3    H1 9219   6.944   0.888   6.291
 3092TIP3    H2 9220   6.837   0.823   6.377
 3093TIP3   OH2 9221   1.384   5.983   1.977
 3093TIP3    H1 9222   1.342   5.903   2.008
 3093TIP3    H2 9223   1.476   5.971   1.998
 3094TIP3   OH2 9224   1.554   5.753   4.928
 3094TIP3    H1 9225   1.552   5.849   4.928
 3094TIP3    H2 9226   1.635   5.731   4.884
 3095TIP3   OH2 9227   3.453   3.638   4.823
 3095TIP3    H1 9228   3.380   3.681   4.777
 3095TIP3    H2 9229   3.504   3.597   4.753
 3096TIP3   OH2 9230   2.628   4.601   0.227
 3096TIP3    H1 9231   2.634   4.509   0.200
 3096TIP3    H2 9232   2.534   4.617   0.237
 3097TIP3   OH2 9233   7.709   4.353   5.163
 3097TIP3    H1 9234   7.660   4.343   5.244
 3097TIP3    H2 9235   7.643   4.354   5.094
 3098TIP3   OH2 9236   3.879   2.098   6.620
 3098TIP3    H1 9237   3.876   2.051   6.537
 3098TIP3    H2 9238   3.816   2.053   6.676
 3099TIP3   OH2 9239   4.979   1.225   3.490
 3099TIP3    H1 9240   5.067   1.229   3.527
 3099TIP3    H2 9241   4.993   1.197   3.399
 3100TIP3   OH2 9242   7.052   5.096   0.916
 3100TIP3    H1 9243   7.099   5.172   0.882
 3100TIP3    H2 9244   7.029   5.120   1.006
 3101TIP3   OH2 9245   5.188   0.475   5.418
 3101TIP3    H1 9246   5.228   0.470   5.505
 3101TIP3    H2 9247   5.240   0.415   5.365
 3102TIP3   OH2 9248   6.476   7.202   0.635
 3102TIP3    H1 9249   6.542   7.271   0.636
 3102TIP3    H2 9250   6.487   7.159   0.550
 3103TIP3   OH2 9251   7.291   3.951   1.749
 3103TIP3    H1 9252   7.308   3.866   1.708
 3103TIP3    H2 9253   7.212   3.983   1.706
 3104TIP3   OH2 9254   3.308   4.378   2.879
 3104TIP3    H1 9255   3.283   4.470   2.889
 3104TIP3    H2 9256   3.235   4.330   2.918
 3105TIP3   OH2 9257   6.722   2.169   6.322
 3105TIP3    H1 9258   6.635   2.139   6.349
 3105TIP3    H2 9259   6.747   2.233   6.388
 3106TIP3   OH2 9260   7.046   7.044   4.492
 3106TIP3    H1 9261   7.089   7.066   4.575
 3106TIP3    H2 9262   7.096   6.972   4.457
 3107TIP3   OH2 9263   2.240   6.990   0.572
 3107TIP3    H1 9264   2.174   6.969   0.638
 3107TIP3    H2 9265   2.323   6.985   0.619
 3108TIP3   OH2 9266   1.027  -0.014   0.925
 3108TIP3    H1 9267   0.947  -0.004   0.978
 3108TIP3    H2 9268   1.080   0.062   0.947
 3109TIP3   OH2 9269   5.569   2.952   6.283
 3109TIP3    H1 9270   5.629   2.994   6.222
 3109TIP3    H2 9271   5.507   3.022   6.307
 3110TIP3   OH2 9272   1.885   2.093   3.401
 3110TIP3    H1 9273   1.830   2.169   3.418
 3110TIP3    H2 9274   1.885   2.083   3.306
 3111TIP3   OH2 9275   7.427   1.377   1.372
 3111TIP3    H1 9276   7.432   1.472   1.362
 3111TIP3    H2 9277   7.360   1.364   1.439
 3112TIP3   OH2 9278   7.423   0.712   5.579
 3112TIP3    H1 9279   7.491   0.661   5.536
 3112TIP3    H2 9280   7.467   0.792   5.607
 3113TIP3   OH2 9281   4.833   7.207   4.338
 3113TIP3    H1 9282   4.758   7.265   4.352
 3113TIP3    H2 9283   4.813   7.128   4.388
 3114TIP3   OH2 9284   0.058   4.922   1.484
 3114TIP3    H1 9285   0.068   4.988   1.416
 3114TIP3    H2 9286   0.146   4.886   1.496
 3115TIP3   OH2 9287   2.562   0.343   5.533
 3115TIP3    H1 9288   2.532   0.276   5.594
 3115TIP3    H2 9289   2.503   0.337   5.458
 3116TIP3   OH2 9290   0.884   0.614   1.579
 3116TIP3    H1 9291   0.971   0.639   1.547
 3116TIP3    H2 9292   0.901   0.571   1.663
 3117TIP3   OH2 9293   6.802   0.024   4.969
 3117TIP3    H1 9294   6.728   0.032   4.908
 3117TIP3    H2 9295   6.761   0.005   5.053
 3118TIP3   OH2 9296   5.591   4.570   3.311
 3118TIP3    H1 9297   5.518   4.577   3.373
 3118TIP3    H2 9298   5.552   4.588   3.225
 3119TIP3   OH2 9299   3.804   1.914   0.323
 3119TIP3    H1 9300   3.731   1.971   0.298
 3119TIP3    H2 9301   3.813   1.928   0.418
 3120TIP3   OH2 9302   5.241   3.587   6.143
 3120TIP3    H1 9303   5.278   3.553   6.061
 3120TIP3    H2 9304   5.318   3.614   6.194
 3121TIP3   OH2 9305   3.679   3.320   0.506
 3121TIP3    H1 9306   3.655   3.394   0.563
 3121TIP3    H2 9307   3.640   3.244   0.548
 3122TIP3   OH2 9308   6.029   4.099   0.440
 3122TIP3    H1 9309   6.012   4.180   0.392
 3122TIP3    H2 9310   6.115   4.111   0.479
 3123TIP3   OH2 9311   7.437   5.344   4.437
 3123TIP3    H1 9312   7.479   5.420   4.478
 3123TIP3    H2 9313   7.473   5.343   4.348
 3124TIP3   OH2 9314   5.542   0.577   1.150
 3124TIP3    H1 9315   5.607   0.572   1.219
 3124TIP3    H2 9316   5.458   0.576   1.196
 3125TIP3   OH2 9317   6.776   4.357   0.290
 3125TIP3    H1 9318   6.693   4.399   0.311
 3125TIP3    H2 9319   6.843   4.413   0.330
 3126TIP3   OH2 9320   3.077   3.825   6.004
 3126TIP3    H1 9321   3.026   3.829   5.923
 3126TIP3    H2 9322   3.025   3.875   6.068
 3127TIP3   OH2 9323   0.272   1.050   5.377
 3127TIP3    H1 9324   0.230   0.969   5.406
 3127TIP3    H2 9325   0.240   1.117   5.437
 3128TIP3   OH2 9326   6.615   0.355   4.947
 3128TIP3    H1 9327   6.691   0.333   5.001
 3128TIP3    H2 9328   6.624   0.300   4.869
 3129TIP3   OH2 9329   1.889   0.573   1.954
 3129TIP3    H1 9330   1.956   0.505   1.950
 3129TIP3    H2 9331   1.821   0.537   2.011
 3130TIP3   OH2 9332   4.023   7.616   6.746
 3130TIP3    H1 9333   4.052   7.538   6.699
 3130TIP3    H2 9334   3.980   7.582   6.825
 3131TIP3   OH2 9335   4.707   3.002   4.266
 3131TIP3    H1 9336   4.649   3.077   4.274
 3131TIP3    H2 9337   4.772   3.029   4.201
 3132TIP3   OH2 9338   3.865   6.681   1.797
 3132TIP3    H1 9339   3.834   6.761   1.755
 3132TIP3    H2 9340   3.932   6.711   1.859
 3133TIP3   OH2 9341   7.292   0.165   3.972
 3133TIP3    H1 9342   7.333   0.214   4.044
 3133TIP3    H2 9343   7.220   0.221   3.943
 3134TIP3   OH2 9344   6.949   0.939   0.508
 3134TIP3    H1 9345   6.854   0.936   0.523
 3134TIP3    H2 9346   6.980   0.855   0.541
 3135TIP3   OH2 9347   5.285   0.158   0.991
 3135TIP3    H1 9348   5.375   0.160   0.959
 3135TIP3    H2 9349   5.289   0.202   1.076
 3136TIP3   OH2 9350   2.416   4.581   5.521
 3136TIP3    H1 9351   2.405   4.612   5.611
 3136TIP3    H2 9352   2.348   4.626   5.471
 3137TIP3   OH2 9353   2.275   7.580   6.843
 3137TIP3    H1 9354   2.285   7.648   6.777
 3137TIP3    H2 9355   2.316   7.502   6.804
 3138TIP3   OH2 9356   5.156   5.150   1.417
 3138TIP3    H1 9357   5.131   5.232   1.375
 3138TIP3    H2 9358   5.225   5.175   1.479
 3139TIP3   OH2 9359   0.147   2.278   6.543
 3139TIP3    H1 9360   0.105   2.363   6.531
 3139TIP3    H2 9361   0.240   2.295   6.531
 3140TIP3   OH2 9362   7.126   3.653   1.698
 3140TIP3    H1 9363   7.107   3.565   1.732
 3140TIP3    H2 9364   7.209   3.644   1.652
 3141TIP3   OH2 9365   4.763   5.716   2.815
 3141TIP3    H1 9366   4.796   5.736   2.728
 3141TIP3    H2 9367   4.841   5.710   2.870
 3142TIP3   OH2 9368   2.056   0.314   1.890
 3142TIP3    H1 9369   2.112   0.244   1.924
 3142TIP3    H2 9370   1.969   0.294   1.924
 3143TIP3   OH2 9371   7.119   2.567   2.899
 3143TIP3    H1 9372   7.203   2.612   2.885
 3143TIP3    H2 9373   7.132   2.480   2.861
 3144TIP3   OH2 9374   7.789   4.624   3.096
 3144TIP3    H1 9375   7.845   4.702   3.100
 3144TIP3    H2 9376   7.849   4.551   3.110
 3145TIP3   OH2 9377   5.580   3.530   3.650
 3145TIP3    H1 9378   5.672   3.505   3.658
 3145TIP3    H2 9379   5.533   3.446   3.647
 3146TIP3   OH2 9380   2.364   7.300   2.168
 3146TIP3    H1 9381   2.420   7.240   2.218
 3146TIP3    H2 9382   2.328   7.359   2.234
 3147TIP3   OH2 9383   7.409   3.274   2.305
 3147TIP3    H1 9384   7.456   3.313   2.231
 3147TIP3    H2 9385   7.402   3.345   2.369
 3148TIP3   OH2 9386   8.082   2.802   0.407
 3148TIP3    H1 9387   8.049   2.724   0.361
 3148TIP3    H2 9388   8.031   2.804   0.488
 3149TIP3   OH2 9389   6.416   1.059   2.284
 3149TIP3    H1 9390   6.490   1.080   2.342
 3149TIP3    H2 9391   6.403   0.965   2.295
 3150TIP3   OH2 9392   5.159   6.861   3.527
 3150TIP3    H1 9393   5.116   6.940   3.494
 3150TIP3    H2 9394   5.251   6.888   3.539
 3151TIP3   OH2 9395   7.326   4.494   0.305
 3151TIP3    H1 9396   7.360   4.496   0.215
 3151TIP3    H2 9397   7.396   4.530   0.359
 3152TIP3   OH2 9398   1.954   3.910   3.057
 3152TIP3    H1 9399   1.938   3.935   2.966
 3152TIP3    H2 9400   1.939   3.991   3.107
 3153TIP3   OH2 9401   7.597   0.017   3.226
 3153TIP3    H1 9402   7.677   0.068   3.229
 3153TIP3    H2 9403   7.578   0.008   3.132
 3154TIP3   OH2 9404   2.910   5.252   1.930
 3154TIP3    H1 9405   2.903   5.273   1.837
 3154TIP3    H2 9406   2.908   5.338   1.973
 3155TIP3   OH2 9407   2.844   2.240   0.485
 3155TIP3    H1 9408   2.750   2.222   0.481
 3155TIP3    H2 9409   2.862   2.254   0.578
 3156TIP3   OH2 9410   5.138   6.356   2.308
 3156TIP3    H1 9411   5.185   6.437   2.328
 3156TIP3    H2 9412   5.135   6.309   2.391
 3157TIP3   OH2 9413   0.093   0.969   1.665
 3157TIP3    H1 9414   0.005   1.008   1.667
 3157TIP3    H2 9415   0.137   1.006   1.742
 3158TIP3   OH2 9416   2.876   3.410   4.837
 3158TIP3    H1 9417   2.931   3.373   4.768
 3158TIP3    H2 9418   2.786   3.399   4.804
 3159TIP3   OH2 9419   5.733   2.165   3.319
 3159TIP3    H1 9420   5.644   2.172   3.285
 3159TIP3    H2 9421   5.723   2.167   3.414
 3160TIP3   OH2 9422   8.287   4.989   0.660
 3160TIP3    H1 9423   8.218   4.984   0.593
 3160TIP3    H2 9424   8.368   4.985   0.610
 3161TIP3   OH2 9425   1.577   7.022   5.275
 3161TIP3    H1 9426   1.510   6.959   5.303
 3161TIP3    H2 9427   1.657   6.993   5.320
 3162TIP3   OH2 9428   2.496   0.911   2.887
 3162TIP3    H1 9429   2.566   0.950   2.939
 3162TIP3    H2 9430   2.422   0.971   2.896
 3163TIP3   OH2 9431   3.408   1.166   5.924
 3163TIP3    H1 9432   3.481   1.132   5.872
 3163TIP3    H2 9433   3.377   1.242   5.876
 3164TIP3   OH2 9434   6.341   0.048   0.328
 3164TIP3    H1 9435   6.368   0.123   0.275
 3164TIP3    H2 9436   6.279   0.083   0.391
 3165TIP3   OH2 9437   5.685   1.867   5.389
 3165TIP3    H1 9438   5.706   1.907   5.304
 3165TIP3    H2 9439   5.761   1.813   5.410
 3166TIP3   OH2 9440   1.953   2.408   5.694
 3166TIP3    H1 9441   1.942   2.317   5.664
 3166TIP3    H2 9442   1.926   2.461   5.619
 3167TIP3   OH2 9443   1.216   3.512   1.301
 3167TIP3    H1 9444   1.218   3.552   1.214
 3167TIP3    H2 9445   1.135   3.462   1.302
 3168TIP3   OH2 9446   0.574   2.375   1.769
 3168TIP3    H1 9447   0.558   2.425   1.849
 3168TIP3    H2 9448   0.578   2.284   1.799
 3169TIP3   OH2 9449   7.436   5.147   3.973
 3169TIP3    H1 9450   7.432   5.054   3.997
 3169TIP3    H2 9451   7.353   5.164   3.930
 3170TIP3   OH2 9452   1.152   3.350   0.918
 3170TIP3    H1 9453   1.061   3.328   0.898
 3170TIP3    H2 9454   1.193   3.266   0.940
 3171TIP3   OH2 9455   2.123   5.331   1.685
 3171TIP3    H1 9456   2.127   5.426   1.700
 3171TIP3    H2 9457   2.206   5.311   1.640
 3172TIP3   OH2 9458   6.003   4.834   3.480
 3172TIP3    H1 9459   6.048   4.753   3.453
 3172TIP3    H2 9460   5.915   4.805   3.503
 3173TIP3   OH2 9461   6.634   2.791   4.171
 3173TIP3    H1 9462   6.614   2.822   4.083
 3173TIP3    H2 9463   6.650   2.871   4.222
 3174TIP3   OH2 9464   6.842   1.218   5.116
 3174TIP3    H1 9465   6.759   1.210   5.163
 3174TIP3    H2 9466   6.873   1.129   5.105
 3175TIP3   OH2 9467   2.011   7.390   1.146
 3175TIP3    H1 9468   1.956   7.457   1.106
 3175TIP3    H2 9469   2.076   7.440   1.196
 3176TIP3   OH2 9470   4.235   1.627   3.377
 3176TIP3    H1 9471   4.142   1.602   3.379
 3176TIP3    H2 9472   4.258   1.640   3.469
 3177TIP3   OH2 9473   2.334   7.674   5.072
 3177TIP3    H1 9474   2.413   7.634   5.108
 3177TIP3    H2 9475   2.264   7.611   5.088
 3178TIP3   OH2 9476   5.368   4.381   0.143
 3178TIP3    H1 9477   5.419   4.307   0.109
 3178TIP3    H2 9478   5.386   4.453   0.083
 3179TIP3   OH2 9479   3.717   6.798   2.508
 3179TIP3    H1 9480   3.644   6.810   2.448
 3179TIP3    H2 9481   3.723   6.881   2.556
 3180TIP3   OH2 9482   6.202   7.150   5.949
 3180TIP3    H1 9483   6.277   7.096   5.928
 3180TIP3    H2 9484   6.183   7.131   6.041
 3181TIP3   OH2 9485   2.293   3.142   2.408
 3181TIP3    H1 9486   2.346   3.142   2.488
 3181TIP3    H2 9487   2.203   3.146   2.440
 3182TIP3   OH2 9488   4.542   0.108   0.092
 3182TIP3    H1 9489   4.630   0.135   0.117
 3182TIP3    H2 9490   4.524   0.032   0.147
 3183TIP3   OH2 9491   8.169   5.793   0.994
 3183TIP3    H1 9492   8.233   5.769   1.062
 3183TIP3    H2 9493   8.194   5.882   0.968
 3184TIP3   OH2 9494   7.539   4.837   5.737
 3184TIP3    H1 9495   7.630   4.858   5.719
 3184TIP3    H2 9496   7.533   4.837   5.833
 3185TIP3   OH2 9497   2.868   0.140   1.665
 3185TIP3    H1 9498   2.844   0.164   1.576
 3185TIP3    H2 9499   2.921   0.214   1.696
 3186TIP3   OH2 9500   6.219   5.340   5.786
 3186TIP3    H1 9501   6.185   5.429   5.782
 3186TIP3    H2 9502   6.180   5.295   5.710
 3187TIP3   OH2 9503   0.919   5.150   1.718
 3187TIP3    H1 9504   0.996   5.205   1.700
 3187TIP3    H2 9505   0.854   5.212   1.752
 3188TIP3   OH2 9506   2.962   3.427   1.676
 3188TIP3    H1 9507   2.964   3.381   1.760
 3188TIP3    H2 9508   2.985   3.360   1.611
 3189TIP3   OH2 9509   6.421   5.098   5.246
 3189TIP3    H1 9510   6.509   5.137   5.245
 3189TIP3    H2 9511   6.372   5.148   5.181
 3190TIP3   OH2 9512   2.145   2.986   2.202
 3190TIP3    H1 9513   2.231   3.022   2.183
 3190TIP3    H2 9514   2.124   3.018   2.290
 3191TIP3   OH2 9515   3.116   2.871   5.555
 3191TIP3    H1 9516   3.152   2.839   5.637
 3191TIP3    H2 9517   3.082   2.958   5.576
 3192TIP3   OH2 9518   3.062   7.195   6.620
 3192TIP3    H1 9519   2.985   7.245   6.593
 3192TIP3    H2 9520   3.137   7.250   6.596
 3193TIP3   OH2 9521   7.621   1.959   0.262
 3193TIP3    H1 9522   7.671   1.886   0.298
 3193TIP3    H2 9523   7.602   2.015   0.337
 3194TIP3   OH2 9524   8.065   5.413   6.051
 3194TIP3    H1 9525   8.134   5.350   6.074
 3194TIP3    H2 9526   8.101   5.460   5.976
 3195TIP3   OH2 9527   5.415   1.562   5.001
 3195TIP3    H1 9528   5.327   1.591   5.025
 3195TIP3    H2 9529   5.456   1.640   4.965
 3196TIP3   OH2 9530   5.443   1.995   4.018
 3196TIP3    H1 9531   5.503   2.061   3.984
 3196TIP3    H2 9532   5.497   1.944   4.079
 3197TIP3   OH2 9533   8.075   7.081   3.243
 3197TIP3    H1 9534   8.055   7.138   3.169
 3197TIP3    H2 9535   8.021   7.003   3.228
 3198TIP3   OH2 9536   5.559   4.542   0.864
 3198TIP3    H1 9537   5.538   4.487   0.939
 3198TIP3    H2 9538   5.651   4.522   0.845
 3199TIP3   OH2 9539   8.137   3.612   4.083
 3199TIP3    H1 9540   8.143   3.661   4.165
 3199TIP3    H2 9541   8.199   3.540   4.093
 3200TIP3   OH2 9542   6.133   3.513   6.150
 3200TIP3    H1 9543   6.133   3.429   6.104
 3200TIP3    H2 9544   6.094   3.493   6.236
 3201TIP3   OH2 9545   3.806   1.898   5.485
 3201TIP3    H1 9546   3.776   1.836   5.552
 3201TIP3    H2 9547   3.729   1.952   5.467
 3202TIP3   OH2 9548   3.247   5.760   2.950
 3202TIP3    H1 9549   3.264   5.730   2.861
 3202TIP3    H2 9550   3.153   5.744   2.963
 3203TIP3   OH2 9551   1.889   6.761   6.190
 3203TIP3    H1 9552   1.832   6.718   6.254
 3203TIP3    H2 9553   1.831   6.781   6.116
 3204TIP3   OH2 9554   3.899   1.676   2.991
 3204TIP3    H1 9555   3.833   1.614   3.019
 3204TIP3    H2 9556   3.975   1.622   2.968
 3205TIP3   OH2 9557   4.291   1.758   4.703
 3205TIP3    H1 9558   4.294   1.784   4.795
 3205TIP3    H2 9559   4.201   1.774   4.675
 3206TIP3   OH2 9560   5.271   5.986   2.364
 3206TIP3    H1 9561   5.257   6.018   2.275
 3206TIP3    H2 9562   5.231   5.899   2.364
 3207TIP3   OH2 9563   0.396   2.481   5.778
 3207TIP3    H1 9564   0.392   2.539   5.702
 3207TIP3    H2 9565   0.483   2.442   5.774
 3208TIP3   OH2 9566   3.073   3.589   4.117
 3208TIP3    H1 9567   2.982   3.593   4.145
 3208TIP3    H2 9568   3.119   3.550   4.192
 3209TIP3   OH2 9569   7.630   2.994   6.105
 3209TIP3    H1 9570   7.614   2.953   6.020
 3209TIP3    H2 9571   7.587   2.936   6.168
 3210TIP3   OH2 9572   1.160   0.340   1.833
 3210TIP3    H1 9573   1.115   0.282   1.894
 3210TIP3    H2 9574   1.215   0.282   1.780
 3211TIP3   OH2 9575   3.123   2.403   5.286
 3211TIP3    H1 9576   3.179   2.387   5.362
 3211TIP3    H2 9577   3.090   2.492   5.298
 3212TIP3   OH2 9578   3.424   5.242   6.794
 3212TIP3    H1 9579   3.502   5.199   6.761
 3212TIP3    H2 9580   3.443   5.336   6.786
 3213TIP3   OH2 9581   7.730   2.584   4.939
 3213TIP3    H1 9582   7.760   2.499   4.906
 3213TIP3    H2 9583   7.703   2.632   4.860
 3214TIP3   OH2 9584   0.444   1.269   0.857
 3214TIP3    H1 9585   0.432   1.245   0.949
 3214TIP3    H2 9586   0.485   1.355   0.860
 3215TIP3   OH2 9587   2.443   6.956   4.702
 3215TIP3    H1 9588   2.495   6.949   4.782
 3215TIP3    H2 9589   2.503   6.927   4.632
 3216TIP3   OH2 9590   6.606   6.925   5.134
 3216TIP3    H1 9591   6.590   6.833   5.152
 3216TIP3    H2 9592   6.591   6.934   5.040
 3217TIP3   OH2 9593   1.333   7.315   6.624
 3217TIP3    H1 9594   1.329   7.359   6.539
 3217TIP3    H2 9595   1.245   7.280   6.637
 3218TIP3   OH2 9596   3.028   1.454   1.420
 3218TIP3    H1 9597   3.041   1.486   1.331
 3218TIP3    H2 9598   2.951   1.397   1.414
 3219TIP3   OH2 9599   7.852   3.160   3.697
 3219TIP3    H1 9600   7.839   3.160   3.602
 3219TIP3    H2 9601   7.765   3.150   3.733
 3220TIP3   OH2 9602   5.610   0.723   0.944
 3220TIP3    H1 9603   5.587   0.673   1.022
 3220TIP3    H2 9604   5.571   0.809   0.959
 3221TIP3   OH2 9605   6.654   3.369   4.127
 3221TIP3    H1 9606   6.632   3.370   4.034
 3221TIP3    H2 9607   6.745   3.339   4.129
 3222TIP3   OH2 9608   5.675   1.177   3.985
 3222TIP3    H1 9609   5.700   1.150   4.073
 3222TIP3    H2 9610   5.602   1.238   3.998
 3223TIP3   OH2 9611   7.560   3.154   3.792
 3223TIP3    H1 9612   7.486   3.164   3.732
 3223TIP3    H2 9613   7.541   3.214   3.864
 3224TIP3   OH2 9614   1.969   4.377   3.113
 3224TIP3    H1 9615   2.064   4.381   3.126
 3224TIP3    H2 9616   1.944   4.290   3.144
 3225TIP3   OH2 9617   8.234   3.564   5.716
 3225TIP3    H1 9618   8.260   3.474   5.734
 3225TIP3    H2 9619   8.316   3.608   5.691
 3226TIP3   OH2 9620   4.963   3.176   4.695
 3226TIP3    H1 9621   4.903   3.176   4.620
 3226TIP3    H2 9622   5.047   3.205   4.657
 3227TIP3   OH2 9623   8.091   3.715   6.490
 3227TIP3    H1 9624   8.143   3.641   6.522
 3227TIP3    H2 9625   8.033   3.676   6.424
 3228TIP3   OH2 9626   8.053   6.483   0.822
 3228TIP3    H1 9627   8.084   6.573   0.831
 3228TIP3    H2 9628   7.976   6.479   0.879
 3229TIP3   OH2 9629   7.374   4.786   1.137
 3229TIP3    H1 9630   7.460   4.815   1.108
 3229TIP3    H2 9631   7.384   4.768   1.230
 3230TIP3   OH2 9632   0.030   5.429   2.746
 3230TIP3    H1 9633   0.028   5.385   2.831
 3230TIP3    H2 9634   0.121   5.457   2.735
 3231TIP3   OH2 9635   2.571   7.755   6.589
 3231TIP3    H1 9636   2.628   7.746   6.666
 3231TIP3    H2 9637   2.490   7.793   6.623
 3232TIP3   OH2 9638   1.747   3.370   1.892
 3232TIP3    H1 9639   1.742   3.439   1.959
 3232TIP3    H2 9640   1.829   3.325   1.911
 3233TIP3   OH2 9641   2.544   4.102   2.035
 3233TIP3    H1 9642   2.587   4.170   1.984
 3233TIP3    H2 9643   2.575   4.116   2.125
 3234TIP3   OH2 9644   1.693   1.113   0.535
 3234TIP3    H1 9645   1.688   1.159   0.451
 3234TIP3    H2 9646   1.741   1.033   0.515
 3235TIP3   OH2 9647   0.424   2.958   4.110
 3235TIP3    H1 9648   0.498   3.007   4.147
 3235TIP3    H2 9649   0.431   2.972   4.016
 3236TIP3   OH2 9650   0.213   4.823   5.473
 3236TIP3    H1 9651   0.242   4.744   5.518
 3236TIP3    H2 9652   0.277   4.890   5.498
 3237TIP3   OH2 9653   4.930   3.796   5.587
 3237TIP3    H1 9654   4.928   3.758   5.499
 3237TIP3    H2 9655   4.848   3.769   5.627
 3238TIP3   OH2 9656   1.253   4.350   1.740
 3238TIP3    H1 9657   1.262   4.332   1.834
 3238TIP3    H2 9658   1.173   4.305   1.715
 3239TIP3   OH2 9659   2.881   7.552   0.665
 3239TIP3    H1 9660   2.952   7.592   0.715
 3239TIP3    H2 9661   2.866   7.468   0.708
 3240TIP3   OH2 9662   1.488   4.119   6.540
 3240TIP3    H1 9663   1.450   4.143   6.455
 3240TIP3    H2 9664   1.579   4.149   6.534
 3241TIP3   OH2 9665   7.602   4.177   2.203
 3241TIP3    H1 9666   7.615   4.247   2.268
 3241TIP3    H2 9667   7.521   4.200   2.159
 3242TIP3   OH2 9668   2.071   4.805   5.590
 3242TIP3    H1 9669   2.055   4.710   5.587
 3242TIP3    H2 9670   2.082   4.824   5.683
 3243TIP3   OH2 9671   8.183   7.658   3.948
 3243TIP3    H1 9672   8.172   7.665   3.854
 3243TIP3    H2 9673   8.099   7.626   3.981
 3244TIP3   OH2 9674   6.404   3.076  -0.001
 3244TIP3    H1 9675   6.409   2.996  -0.052
 3244TIP3    H2 9676   6.318   3.072   0.041
 3245TIP3   OH2 9677   6.844   0.773   1.852
 3245TIP3    H1 9678   6.758   0.750   1.816
 3245TIP3    H2 9679   6.857   0.711   1.923
 3246TIP3   OH2 9680   7.180   5.031   1.971
 3246TIP3    H1 9681   7.247   4.983   1.922
 3246TIP3    H2 9682   7.219   5.118   1.986
 3247TIP3   OH2 9683   1.358   0.606   2.337
 3247TIP3    H1 9684   1.342   0.511   2.338
 3247TIP3    H2 9685   1.295   0.642   2.399
 3248TIP3   OH2 9686   5.978   1.201   6.296
 3248TIP3    H1 9687   5.917   1.176   6.227
 3248TIP3    H2 9688   5.939   1.279   6.336
 3249TIP3   OH2 9689   6.002   7.315   3.642
 3249TIP3    H1 9690   6.026   7.401   3.609
 3249TIP3    H2 9691   6.073   7.290   3.701
 3250TIP3   OH2 9692   2.779   1.951   3.774
 3250TIP3    H1 9693   2.755   1.907   3.856
 3250TIP3    H2 9694   2.860   1.908   3.747
 3251TIP3   OH2 9695   6.454   2.660   0.291
 3251TIP3    H1 9696   6.512   2.685   0.219
 3251TIP3    H2 9697   6.498   2.586   0.333
 3252TIP3   OH2 9698   7.452   2.457   6.507
 3252TIP3    H1 9699   7.385   2.436   6.571
 3252TIP3    H2 9700   7.452   2.383   6.446
 3253TIP3   OH2 9701   7.692   1.588   5.628
 3253TIP3    H1 9702   7.686   1.552   5.716
 3253TIP3    H2 9703   7.780   1.567   5.599
 3254TIP3   OH2 9704   8.034   3.307   4.663
 3254TIP3    H1 9705   8.091   3.231   4.656
 3254TIP3    H2 9706   8.030   3.327   4.756
 3255TIP3   OH2 9707   0.178   4.699   3.347
 3255TIP3    H1 9708   0.249   4.759   3.368
 3255TIP3    H2 9709   0.100   4.754   3.340
 3256TIP3   OH2 9710   2.418   2.110   5.756
 3256TIP3    H1 9711   2.464   2.033   5.723
 3256TIP3    H2 9712   2.330   2.078   5.776
 3257TIP3   OH2 9713   4.959   4.307   6.328
 3257TIP3    H1 9714   4.943   4.379   6.390
 3257TIP3    H2 9715   5.049   4.281   6.345
 3258TIP3   OH2 9716   5.251   6.977   4.411
 3258TIP3    H1 9717   5.258   7.061   4.367
 3258TIP3    H2 9718   5.158   6.969   4.433
 3259TIP3   OH2 9719   3.305   6.658   2.961
 3259TIP3    H1 9720   3.313   6.736   2.906
 3259TIP3    H2 9721   3.221   6.668   3.006
 3260TIP3   OH2 9722   5.349   7.106   4.651
 3260TIP3    H1 9723   5.305   7.188   4.628
 3260TIP3    H2 9724   5.317   7.043   4.586
 3261TIP3   OH2 9725   3.202   2.315   5.019
 3261TIP3    H1 9726   3.176   2.358   5.100
 3261TIP3    H2 9727   3.296   2.302   5.029
 3262TIP3   OH2 9728   8.116   5.308   3.752
 3262TIP3    H1 9729   8.112   5.226   3.703
 3262TIP3    H2 9730   8.068   5.290   3.833
 3263TIP3   OH2 9731   6.640   4.715   5.818
 3263TIP3    H1 9732   6.613   4.807   5.826
 3263TIP3    H2 9733   6.734   4.719   5.801
 3264TIP3   OH2 9734   4.074   4.518   4.840
 3264TIP3    H1 9735   3.989   4.526   4.885
 3264TIP3    H2 9736   4.101   4.428   4.856
 3265TIP3   OH2 9737   4.795   6.104   6.443
 3265TIP3    H1 9738   4.766   6.170   6.380
 3265TIP3    H2 9739   4.831   6.034   6.389
 3266TIP3   OH2 9740   6.650   7.570   5.305
 3266TIP3    H1 9741   6.638   7.629   5.380
 3266TIP3    H2 9742   6.561   7.549   5.277
 3267TIP3   OH2 9743   4.902   4.724   3.512
 3267TIP3    H1 9744   4.929   4.815   3.524
 3267TIP3    H2 9745   4.862   4.722   3.426
 3268TIP3   OH2 9746   1.354  -0.040   6.233
 3268TIP3    H1 9747   1.321   0.040   6.273
 3268TIP3    H2 9748   1.349  -0.106   6.303
 3269TIP3   OH2 9749   1.544   6.031   6.546
 3269TIP3    H1 9750   1.519   5.965   6.481
 3269TIP3    H2 9751   1.574   6.105   6.494
 3270TIP3   OH2 9752   6.459   3.526   0.339
 3270TIP3    H1 9753   6.384   3.584   0.356
 3270TIP3    H2 9754   6.514   3.576   0.279
 3271TIP3   OH2 9755   1.674   5.672   1.429
 3271TIP3    H1 9756   1.600   5.670   1.368
 3271TIP3    H2 9757   1.745   5.628   1.382
 3272TIP3   OH2 9758   6.486   5.033   6.461
 3272TIP3    H1 9759   6.563   4.977   6.475
 3272TIP3    H2 9760   6.422   4.976   6.419
 3273TIP3   OH2 9761   6.180   6.171   0.742
 3273TIP3    H1 9762   6.177   6.242   0.805
 3273TIP3    H2 9763   6.271   6.142   0.742
 3274TIP3   OH2 9764   7.377   7.773   0.545
 3274TIP3    H1 9765   7.425   7.773   0.628
 3274TIP3    H2 9766   7.293   7.732   0.566
 3275TIP3   OH2 9767   2.282   4.180   2.824
 3275TIP3    H1 9768   2.212   4.222   2.774
 3275TIP3    H2 9769   2.363   4.216   2.787
 3276TIP3   OH2 9770   4.162   0.063   0.563
 3276TIP3    H1 9771   4.086   0.006   0.573
 3276TIP3    H2 9772   4.219   0.040   0.636
 3277TIP3   OH2 9773   3.311   4.997   0.263
 3277TIP3    H1 9774   3.343   4.920   0.309
 3277TIP3    H2 9775   3.217   4.999   0.282
 3278TIP3   OH2 9776   0.299   7.173   4.857
 3278TIP3    H1 9777   0.271   7.083   4.846
 3278TIP3    H2 9778   0.231   7.213   4.911
 3279TIP3   OH2 9779   2.350   0.923   3.275
 3279TIP3    H1 9780   2.378   1.011   3.250
 3279TIP3    H2 9781   2.416   0.865   3.236
 3280TIP3   OH2 9782   7.989   4.002   2.227
 3280TIP3    H1 9783   7.988   4.095   2.206
 3280TIP3    H2 9784   7.990   3.959   2.141
 3281TIP3   OH2 9785   8.088   5.142   6.345
 3281TIP3    H1 9786   7.994   5.142   6.363
 3281TIP3    H2 9787   8.104   5.058   6.302
 3282TIP3   OH2 9788   5.361   5.383   3.664
 3282TIP3    H1 9789   5.294   5.323   3.697
 3282TIP3    H2 9790   5.312   5.458   3.630
 3283TIP3   OH2 9791   7.081   0.951   4.958
 3283TIP3    H1 9792   7.025   0.963   5.035
 3283TIP3    H2 9793   7.148   0.888   4.987
 3284TIP3   OH2 9794   3.057   7.004  -0.021
 3284TIP3    H1 9795   3.033   6.925   0.029
 3284TIP3    H2 9796   3.098   7.061   0.044
 3285TIP3   OH2 9797   0.135   1.380   3.678
 3285TIP3    H1 9798   0.105   1.468   3.702
 3285TIP3    H2 9799   0.223   1.373   3.715
 3286TIP3   OH2 9800   3.772   7.400   1.427
 3286TIP3    H1 9801   3.812   7.314   1.412
 3286TIP3    H2 9802   3.816   7.458   1.366
 3287TIP3   OH2 9803   3.308   6.465   1.498
 3287TIP3    H1 9804   3.256   6.540   1.470
 3287TIP3    H2 9805   3.385   6.467   1.441
 3288TIP3   OH2 9806   7.679   2.866   5.830
 3288TIP3    H1 9807   7.710   2.906   5.748
 3288TIP3    H2 9808   7.611   2.805   5.802
 3289TIP3   OH2 9809   4.573   1.566   3.178
 3289TIP3    H1 9810   4.653   1.545   3.129
 3289TIP3    H2 9811   4.527   1.628   3.123
 3290TIP3   OH2 9812   3.057   7.265   4.609
 3290TIP3    H1 9813   3.060   7.255   4.514
 3290TIP3    H2 9814   3.148   7.284   4.634
 3291TIP3   OH2 9815   1.873   2.108   1.159
 3291TIP3    H1 9816   1.805   2.059   1.205
 3291TIP3    H2 9817   1.857   2.089   1.066
 3292TIP3   OH2 9818   3.517   5.780   4.807
 3292TIP3    H1 9819   3.580   5.724   4.851
 3292TIP3    H2 9820   3.448   5.720   4.778
 3293TIP3   OH2 9821   6.809   7.417   4.618
 3293TIP3    H1 9822   6.831   7.415   4.711
 3293TIP3    H2 9823   6.725   7.372   4.613
 3294TIP3   OH2 9824   6.616   1.489   6.423
 3294TIP3    H1 9825   6.634   1.408   6.376
 3294TIP3    H2 9826   6.697   1.540   6.416
 3295TIP3   OH2 9827   0.671   1.235   2.474
 3295TIP3    H1 9828   0.696   1.326   2.486
 3295TIP3    H2 9829   0.598   1.221   2.533
 3296TIP3   OH2 9830   6.647   3.740   1.569
 3296TIP3    H1 9831   6.572   3.698   1.526
 3296TIP3    H2 9832   6.719   3.679   1.556
 3297TIP3   OH2 9833   1.175   0.712   2.552
 3297TIP3    H1 9834   1.112   0.766   2.600
 3297TIP3    H2 9835   1.126   0.635   2.527
 3298TIP3   OH2 9836   4.263   1.647   3.638
 3298TIP3    H1 9837   4.246   1.666   3.730
 3298TIP3    H2 9838   4.223   1.561   3.623
 3299TIP3   OH2 9839   6.805   1.341   5.826
 3299TIP3    H1 9840   6.711   1.331   5.843
 3299TIP3    H2 9841   6.832   1.412   5.885
 3300TIP3   OH2 9842   3.284   4.369   5.020
 3300TIP3    H1 9843   3.288   4.382   4.925
 3300TIP3    H2 9844   3.291   4.274   5.032
 3301TIP3   OH2 9845   5.563   5.562   1.610
 3301TIP3    H1 9846   5.582   5.656   1.609
 3301TIP3    H2 9847   5.642   5.521   1.575
 3302TIP3   OH2 9848   1.132   0.506   1.224
 3302TIP3    H1 9849   1.158   0.416   1.208
 3302TIP3    H2 9850   1.172   0.556   1.152
 3303TIP3   OH2 9851   7.249   0.680   0.389
 3303TIP3    H1 9852   7.199   0.692   0.470
 3303TIP3    H2 9853   7.184   0.683   0.319
 3304TIP3   OH2 9854   3.529   3.685   1.658
 3304TIP3    H1 9855   3.448   3.653   1.698
 3304TIP3    H2 9856   3.550   3.764   1.708
 3305TIP3   OH2 9857   5.305   6.655   4.930
 3305TIP3    H1 9858   5.276   6.746   4.925
 3305TIP3    H2 9859   5.249   6.616   4.997
 3306TIP3   OH2 9860   4.401   0.984   1.018
 3306TIP3    H1 9861   4.465   1.039   0.973
 3306TIP3    H2 9862   4.368   1.039   1.089
 3307TIP3   OH2 9863   2.643   4.220   3.468
 3307TIP3    H1 9864   2.560   4.174   3.457
 3307TIP3    H2 9865   2.694   4.195   3.391
 3308TIP3   OH2 9866   7.844   0.879   1.115
 3308TIP3    H1 9867   7.878   0.962   1.081
 3308TIP3    H2 9868   7.922   0.833   1.146
 3309TIP3   OH2 9869   3.978   0.483   3.730
 3309TIP3    H1 9870   4.070   0.480   3.754
 3309TIP3    H2 9871   3.932   0.456   3.810
 3310TIP3   OH2 9872   0.590   5.731   4.797
 3310TIP3    H1 9873   0.500   5.709   4.822
 3310TIP3    H2 9874   0.642   5.657   4.827
 3311TIP3   OH2 9875   5.060   4.222   1.635
 3311TIP3    H1 9876   5.116   4.214   1.558
 3311TIP3    H2 9877   5.054   4.316   1.652
 3312TIP3   OH2 9878   3.485   3.203   1.150
 3312TIP3    H1 9879   3.522   3.122   1.117
 3312TIP3    H2 9880   3.548   3.234   1.215
 3313TIP3   OH2 9881   2.234   5.364   0.843
 3313TIP3    H1 9882   2.304   5.395   0.786
 3313TIP3    H2 9883   2.221   5.272   0.818
 3314TIP3   OH2 9884   2.851   5.622   5.413
 3314TIP3    H1 9885   2.868   5.544   5.361
 3314TIP3    H2 9886   2.935   5.668   5.416
 3315TIP3   OH2 9887   0.352   1.825   5.074
 3315TIP3    H1 9888   0.421   1.852   5.133
 3315TIP3    H2 9889   0.370   1.872   4.992
 3316TIP3   OH2 9890   5.613   3.733   4.211
 3316TIP3    H1 9891   5.682   3.799   4.218
 3316TIP3    H2 9892   5.631   3.672   4.282
 3317TIP3   OH2 9893   3.536   2.574   3.511
 3317TIP3    H1 9894   3.593   2.637   3.554
 3317TIP3    H2 9895   3.450   2.614   3.512
 3318TIP3   OH2 9896   0.173   4.215   4.245
 3318TIP3    H1 9897   0.089   4.216   4.200
 3318TIP3    H2 9898   0.224   4.284   4.203
 3319TIP3   OH2 9899   7.266   6.857   6.394
 3319TIP3    H1 9900   7.229   6.926   6.339
 3319TIP3    H2 9901   7.360   6.873   6.392
 3320TIP3   OH2 9902   6.361   2.367   5.205
 3320TIP3    H1 9903   6.287   2.390   5.262
 3320TIP3    H2 9904   6.381   2.276   5.227
 3321TIP3   OH2 9905   4.185   3.609   4.750
 3321TIP3    H1 9906   4.104   3.657   4.731
 3321TIP3    H2 9907   4.242   3.628   4.676
 3322TIP3   OH2 9908   6.438   2.416   3.865
 3322TIP3    H1 9909   6.532   2.431   3.882
 3322TIP3    H2 9910   6.398   2.502   3.872
 3323TIP3   OH2 9911   1.093   3.385   3.163
 3323TIP3    H1 9912   1.048   3.466   3.137
 3323TIP3    H2 9913   1.066   3.372   3.254
 3324TIP3   OH2 9914   7.403   3.571   0.467
 3324TIP3    H1 9915   7.434   3.551   0.379
 3324TIP3    H2 9916   7.421   3.492   0.517
 3325TIP3   OH2 9917   2.306   4.896   0.907
 3325TIP3    H1 9918   2.269   4.978   0.874
 3325TIP3    H2 9919   2.384   4.883   0.854
 3326TIP3   OH2 9920   2.064   5.158   4.643
 3326TIP3    H1 9921   2.002   5.086   4.630
 3326TIP3    H2 9922   2.037   5.225   4.580
 3327TIP3   OH2 9923   0.724   4.578   3.450
 3327TIP3    H1 9924   0.742   4.671   3.441
 3327TIP3    H2 9925   0.685   4.569   3.537
 3328TIP3   OH2 9926   5.522   4.653   2.168
 3328TIP3    H1 9927   5.610   4.679   2.140
 3328TIP3    H2 9928   5.480   4.734   2.197
 3329TIP3   OH2 9929   7.993   0.412   2.052
 3329TIP3    H1 9930   8.025   0.443   1.967
 3329TIP3    H2 9931   7.901   0.389   2.035
 3330TIP3   OH2 9932   3.765   1.503   3.203
 3330TIP3    H1 9933   3.745   1.443   3.275
 3330TIP3    H2 9934   3.708   1.474   3.131
 3331TIP3   OH2 9935   0.976   4.661   3.794
 3331TIP3    H1 9936   1.065   4.651   3.830
 3331TIP3    H2 9937   0.919   4.624   3.861
 3332TIP3   OH2 9938   3.927   3.604   5.464
 3332TIP3    H1 9939   3.858   3.556   5.418
 3332TIP3    H2 9940   3.940   3.555   5.545
 3333TIP3   OH2 9941   3.086   0.062   5.483
 3333TIP3    H1 9942   3.012   0.107   5.443
 3333TIP3    H2 9943   3.083   0.087   5.575
 3334TIP3   OH2 9944   2.366   1.914   0.980
 3334TIP3    H1 9945   2.376   1.839   1.038
 3334TIP3    H2 9946   2.452   1.926   0.940
 3335TIP3   OH2 9947   6.173   1.576   6.412
 3335TIP3    H1 9948   6.124   1.540   6.337
 3335TIP3    H2 9949   6.251   1.615   6.373
 3336TIP3   OH2 9950   6.480   1.429   2.098
 3336TIP3    H1 9951   6.449   1.519   2.111
 3336TIP3    H2 9952   6.410   1.388   2.047
 3337TIP3   OH2 9953   5.642   0.985   4.988
 3337TIP3    H1 9954   5.675   0.898   5.014
 3337TIP3    H2 9955   5.548   0.981   5.004
 3338TIP3   OH2 9956   2.020  -0.003   1.320
 3338TIP3    H1 9957   2.092  -0.064   1.304
 3338TIP3    H2 9958   2.052   0.081   1.289
 3339TIP3   OH2 9959   2.884   2.102   4.359
 3339TIP3    H1 9960   2.807   2.158   4.364
 3339TIP3    H2 9961   2.952   2.150   4.407
 3340TIP3   OH2 9962   3.035   3.499   1.250
 3340TIP3    H1 9963   2.985   3.428   1.209
 3340TIP3    H2 9964   3.115   3.457   1.282
 3341TIP3   OH2 9965   7.513   2.382   2.703
 3341TIP3    H1 9966   7.537   2.367   2.611
 3341TIP3    H2 9967   7.444   2.318   2.721
 3342TIP3   OH2 9968   2.455   6.167   6.149
 3342TIP3    H1 9969   2.451   6.089   6.093
 3342TIP3    H2 9970   2.370   6.168   6.194
 3343TIP3   OH2 9971   0.226   5.673   0.549
 3343TIP3    H1 9972   0.223   5.655   0.643
 3343TIP3    H2 9973   0.308   5.719   0.535
 3344TIP3   OH2 9974   4.424   2.819   1.306
 3344TIP3    H1 9975   4.454   2.751   1.246
 3344TIP3    H2 9976   4.498   2.835   1.364
 3345TIP3   OH2 9977   4.766   2.568   3.769
 3345TIP3    H1 9978   4.677   2.565   3.733
 3345TIP3    H2 9979   4.822   2.536   3.698
 3346TIP3   OH2 9980   7.660   4.229   3.237
 3346TIP3    H1 9981   7.642   4.272   3.321
 3346TIP3    H2 9982   7.725   4.285   3.195
 3347TIP3   OH2 9983   0.304   3.696   1.820
 3347TIP3    H1 9984   0.253   3.762   1.774
 3347TIP3    H2 9985   0.244   3.623   1.832
 3348TIP3   OH2 9986   3.869   0.171   5.535
 3348TIP3    H1 9987   3.795   0.167   5.474
 3348TIP3    H2 9988   3.853   0.250   5.587
 3349TIP3   OH2 9989   4.178   2.258   3.637
 3349TIP3    H1 9990   4.234   2.207   3.578
 3349TIP3    H2 9991   4.142   2.327   3.582
 3350TIP3   OH2 9992   6.903   2.181   1.428
 3350TIP3    H1 9993   6.808   2.189   1.416
 3350TIP3    H2 9994   6.936   2.163   1.340
 3351TIP3   OH2 9995   5.571   0.301   3.331
 3351TIP3    H1 9996   5.536   0.240   3.266
 3351TIP3    H2 9997   5.496   0.322   3.386
 3352TIP3   OH2 9998   0.200   1.221   0.690
 3352TIP3    H1 9999   0.275   1.245   0.744
 3352TIP3    H210000   0.130   1.201   0.753
 3353TIP3   OH210001   2.976   4.003   2.815
 3353TIP3    H110002   2.912   4.025   2.748
 3353TIP3    H210003   3.025   3.928   2.779
 3354TIP3   OH210004   6.858   3.827   0.240
 3354TIP3    H110005   6.925   3.796   0.179
 3354TIP3    H210006   6.872   3.922   0.243
 3355TIP3   OH210007   4.501   5.025   3.197
 3355TIP3    H110008   4.585   5.058   3.228
 3355TIP3    H210009   4.480   5.080   3.122
 3356TIP3   OH210010   2.700   2.703   4.589
 3356TIP3    H110011   2.788   2.730   4.562
 3356TIP3    H210012   2.665   2.779   4.635
 3357TIP3   OH210013   6.759   6.757   6.569
 3357TIP3    H110014   6.835   6.712   6.532
 3357TIP3    H210015   6.717   6.692   6.626
 3358TIP3   OH210016   4.492   4.887   0.067
 3358TIP3    H110017   4.543   4.912  -0.009
 3358TIP3    H210018   4.402   4.882   0.035
 3359TIP3   OH210019   1.181   5.412   4.958
 3359TIP3    H110020   1.223   5.458   4.885
 3359TIP3    H210021   1.211   5.460   5.036
 3360TIP3   OH210022   0.702   2.104   0.429
 3360TIP3    H110023   0.613   2.101   0.393
 3360TIP3    H210024   0.713   2.020   0.473
 3361TIP3   OH210025   4.382   6.862   2.487
 3361TIP3    H110026   4.298   6.854   2.533
 3361TIP3    H210027   4.442   6.898   2.553
 3362TIP3   OH210028   6.369   0.258   3.045
 3362TIP3    H110029   6.287   0.290   3.083
 3362TIP3    H210030   6.383   0.173   3.087
 3363TIP3   OH210031   2.825   6.371   6.351
 3363TIP3    H110032   2.915   6.403   6.341
 3363TIP3    H210033   2.776   6.416   6.282
 3364TIP3   OH210034   5.054   1.500   3.950
 3364TIP3    H110035   4.972   1.489   3.901
 3364TIP3    H210036   5.118   1.450   3.900
 3365TIP3   OH210037   7.884   1.297   4.208
 3365TIP3    H110038   7.935   1.314   4.128
 3365TIP3    H210039   7.870   1.202   4.207
 3366TIP3   OH210040   4.717   4.131   5.847
 3366TIP3    H110041   4.701   4.216   5.807
 3366TIP3    H210042   4.761   4.150   5.930
 3367TIP3   OH210043   3.478   2.572   6.249
 3367TIP3    H110044   3.391   2.532   6.252
 3367TIP3    H210045   3.516   2.540   6.167
 3368TIP3   OH210046   2.764   1.211   3.244
 3368TIP3    H110047   2.682   1.209   3.195
 3368TIP3    H210048   2.759   1.134   3.301
 3369TIP3   OH210049   6.365   2.082   6.443
 3369TIP3    H110050   6.411   2.151   6.490
 3369TIP3    H210051   6.323   2.030   6.511
 3370TIP3   OH210052   2.142   5.485   0.379
 3370TIP3    H110053   2.117   5.572   0.346
 3370TIP3    H210054   2.100   5.424   0.319
 3371TIP3   OH210055   3.142   0.868   5.605
 3371TIP3    H110056   3.126   0.949   5.653
 3371TIP3    H210057   3.106   0.883   5.518
 3372TIP3   OH210058   0.605   2.490   3.564
 3372TIP3    H110059   0.581   2.479   3.656
 3372TIP3    H210060   0.579   2.408   3.522
 3373TIP3   OH210061   5.635   3.741   3.873
 3373TIP3    H110062   5.619   3.688   3.951
 3373TIP3    H210063   5.563   3.718   3.814
 3374TIP3   OH210064   3.633   0.387   3.657
 3374TIP3    H110065   3.542   0.364   3.675
 3374TIP3    H210066   3.682   0.353   3.733
 3375TIP3   OH210067   0.328   6.660   1.950
 3375TIP3    H110068   0.315   6.723   2.021
 3375TIP3    H210069   0.251   6.604   1.952
 3376TIP3   OH210070   2.853   4.426   2.920
 3376TIP3    H110071   2.926   4.371   2.890
 3376TIP3    H210072   2.861   4.507   2.870
 3377TIP3   OH210073   5.349   7.546   2.151
 3377TIP3    H110074   5.406   7.497   2.092
 3377TIP3    H210075   5.347   7.634   2.114
 3378TIP3   OH210076   6.936   4.033   3.668
 3378TIP3    H110077   6.863   3.995   3.716
 3378TIP3    H210078   6.949   3.974   3.593
 3379TIP3   OH210079   4.822   3.560   6.236
 3379TIP3    H110080   4.895   3.621   6.221
 3379TIP3    H210081   4.799   3.574   6.328
 3380TIP3   OH210082   7.158   0.688   2.244
 3380TIP3    H110083   7.172   0.647   2.329
 3380TIP3    H210084   7.236   0.663   2.193
 3381TIP3   OH210085   5.616   1.180   6.407
 3381TIP3    H110086   5.645   1.190   6.498
 3381TIP3    H210087   5.598   1.270   6.378
 3382TIP3   OH210088   2.524   1.948   6.152
 3382TIP3    H110089   2.554   1.959   6.062
 3382TIP3    H210090   2.585   1.884   6.190
 3383TIP3   OH210091   6.826   1.886   0.560
 3383TIP3    H110092   6.730   1.884   0.563
 3383TIP3    H210093   6.849   1.800   0.524
 3384TIP3   OH210094   5.513   4.193   5.744
 3384TIP3    H110095   5.493   4.158   5.831
 3384TIP3    H210096   5.433   4.181   5.693
 3385TIP3   OH210097   3.863   6.736   3.415
 3385TIP3    H110098   3.802   6.708   3.483
 3385TIP3    H210099   3.809   6.784   3.352
 3386TIP3   OH210100   7.451   4.169   6.223
 3386TIP3    H110101   7.472   4.075   6.225
 3386TIP3    H210102   7.409   4.182   6.138
 3387TIP3   OH210103   6.828   2.085   4.351
 3387TIP3    H110104   6.778   2.138   4.413
 3387TIP3    H210105   6.918   2.119   4.357
 3388TIP3   OH210106   1.641   6.186   4.089
 3388TIP3    H110107   1.691   6.265   4.068
 3388TIP3    H210108   1.553   6.217   4.106
 3389TIP3   OH210109   1.014   0.221   3.265
 3389TIP3    H110110   1.101   0.222   3.307
 3389TIP3    H210111   1.016   0.145   3.208
 3390TIP3   OH210112   3.025   6.893   4.398
 3390TIP3    H110113   3.016   6.859   4.310
 3390TIP3    H210114   2.995   6.822   4.455
 3391TIP3   OH210115   3.671   0.264   4.544
 3391TIP3    H110116   3.662   0.282   4.450
 3391TIP3    H210117   3.597   0.309   4.584
 3392TIP3   OH210118   3.717   4.282   2.680
 3392TIP3    H110119   3.629   4.309   2.653
 3392TIP3    H210120   3.776   4.338   2.629
 3393TIP3   OH210121   1.135   0.020   2.170
 3393TIP3    H110122   1.108  -0.038   2.241
 3393TIP3    H210123   1.202  -0.029   2.123
 3394TIP3   OH210124   3.746   6.441   3.964
 3394TIP3    H110125   3.740   6.533   3.991
 3394TIP3    H210126   3.754   6.445   3.868
 3395TIP3   OH210127   1.662   0.819   4.073
 3395TIP3    H110128   1.721   0.745   4.087
 3395TIP3    H210129   1.616   0.797   3.992
 3396TIP3   OH210130   6.519   2.819   6.207
 3396TIP3    H110131   6.602   2.849   6.243
 3396TIP3    H210132   6.508   2.731   6.242
 3397TIP3   OH210133   4.909   1.860   1.995
 3397TIP3    H110134   4.873   1.940   1.956
 3397TIP3    H210135   4.898   1.872   2.089
 3398TIP3   OH210136   1.798   4.043   1.133
 3398TIP3    H110137   1.728   4.105   1.112
 3398TIP3    H210138   1.864   4.056   1.064
 3399TIP3   OH210139   6.921   3.498   2.240
 3399TIP3    H110140   6.839   3.502   2.289
 3399TIP3    H210141   6.986   3.538   2.297
 3400TIP3   OH210142   0.564   1.982   1.504
 3400TIP3    H110143   0.491   1.985   1.442
 3400TIP3    H210144   0.631   1.931   1.458
 3401TIP3   OH210145   7.563   0.411   5.119
 3401TIP3    H110146   7.473   0.414   5.151
 3401TIP3    H210147   7.561   0.352   5.044
 3402TIP3   OH210148   6.371   4.670   3.304
 3402TIP3    H110149   6.457   4.652   3.343
 3402TIP3    H210150   6.392   4.709   3.219
 3403TIP3   OH210151   0.610   6.614   0.741
 3403TIP3    H110152   0.525   6.583   0.710
 3403TIP3    H210153   0.593   6.702   0.774
 3404TIP3   OH210154   4.950   3.384   4.869
 3404TIP3    H110155   4.937   3.304   4.819
 3404TIP3    H210156   5.016   3.432   4.819
 3405TIP3   OH210157   3.429   2.897   1.493
 3405TIP3    H110158   3.342   2.883   1.457
 3405TIP3    H210159   3.469   2.810   1.493
 3406TIP3   OH210160   1.452   3.055   4.789
 3406TIP3    H110161   1.443   2.960   4.784
 3406TIP3    H210162   1.381   3.088   4.734
 3407TIP3   OH210163   4.509   1.403   2.159
 3407TIP3    H110164   4.425   1.438   2.130
 3407TIP3    H210165   4.488   1.348   2.234
 3408TIP3   OH210166   4.112   3.523   2.191
 3408TIP3    H110167   4.133   3.611   2.160
 3408TIP3    H210168   4.072   3.535   2.277
 3409TIP3   OH210169   6.247   1.881   3.666
 3409TIP3    H110170   6.291   1.820   3.726
 3409TIP3    H210171   6.236   1.831   3.585
 3410TIP3   OH210172   6.274   4.708   0.523
 3410TIP3    H110173   6.294   4.623   0.563
 3410TIP3    H210174   6.186   4.729   0.554
 3411TIP3   OH210175   3.026   1.771   1.572
 3411TIP3    H110176   2.969   1.764   1.495
 3411TIP3    H210177   2.972   1.816   1.637
 3412TIP3   OH210178   4.511   5.865   5.278
 3412TIP3    H110179   4.502   5.785   5.331
 3412TIP3    H210180   4.583   5.913   5.319
 3413TIP3   OH210181   6.995   1.739   2.956
 3413TIP3    H110182   6.957   1.773   2.875
 3413TIP3    H210183   7.018   1.817   3.006
 3414TIP3   OH210184   6.419   7.205   2.051
 3414TIP3    H110185   6.452   7.123   2.014
 3414TIP3    H210186   6.324   7.198   2.045
 3415TIP3   OH210187   2.441   7.462   5.517
 3415TIP3    H110188   2.426   7.468   5.611
 3415TIP3    H210189   2.477   7.375   5.503
 3416TIP3   OH210190   0.849   7.280   6.769
 3416TIP3    H110191   0.885   7.201   6.810
 3416TIP3    H210192   0.765   7.293   6.813
 3417TIP3   OH210193   7.762   2.595   1.876
 3417TIP3    H110194   7.811   2.561   1.801
 3417TIP3    H210195   7.768   2.526   1.942
 3418TIP3   OH210196   5.304   1.432   2.083
 3418TIP3    H110197   5.321   1.526   2.085
 3418TIP3    H210198   5.382   1.393   2.123
 3419TIP3   OH210199   1.119   3.391   2.809
 3419TIP3    H110200   1.076   3.323   2.758
 3419TIP3    H210201   1.063   3.468   2.799
 3420TIP3   OH210202   7.427   2.757   1.520
 3420TIP3    H110203   7.381   2.674   1.504
 3420TIP3    H210204   7.380   2.797   1.593
 3421TIP3   OH210205   5.546   5.860   5.395
 3421TIP3    H110206   5.550   5.910   5.477
 3421TIP3    H210207   5.489   5.912   5.338
 3422TIP3   OH210208   4.041   4.872   0.463
 3422TIP3    H110209   4.063   4.944   0.524
 3422TIP3    H210210   4.097   4.887   0.387
 3423TIP3   OH210211   5.365   1.992   0.441
 3423TIP3    H110212   5.458   1.986   0.415
 3423TIP3    H210213   5.341   2.083   0.424
 3424TIP3   OH210214   6.818   5.335   2.619
 3424TIP3    H110215   6.851   5.355   2.706
 3424TIP3    H210216   6.728   5.307   2.633
 3425TIP3   OH210217   6.200   2.915   4.575
 3425TIP3    H110218   6.127   2.859   4.548
 3425TIP3    H210219   6.158   2.991   4.615
 3426TIP3   OH210220   6.740   6.733   1.784
 3426TIP3    H110221   6.678   6.664   1.807
 3426TIP3    H210222   6.686   6.811   1.773
 3427TIP3   OH210223   2.221   6.559   5.599
 3427TIP3    H110224   2.216   6.590   5.690
 3427TIP3    H210225   2.210   6.638   5.546
 3428TIP3   OH210226   7.477   3.963   4.174
 3428TIP3    H110227   7.428   3.897   4.223
 3428TIP3    H210228   7.546   3.914   4.129
 3429TIP3   OH210229   4.749   7.585   0.181
 3429TIP3    H110230   4.829   7.624   0.215
 3429TIP3    H210231   4.706   7.657   0.134
 3430TIP3   OH210232   4.307   3.219   6.175
 3430TIP3    H110233   4.283   3.167   6.252
 3430TIP3    H210234   4.389   3.262   6.199
 3431TIP3   OH210235   8.122   2.013   1.321
 3431TIP3    H110236   8.047   2.066   1.349
 3431TIP3    H210237   8.175   2.005   1.400
 3432TIP3   OH210238   0.952   1.600   0.655
 3432TIP3    H110239   0.968   1.642   0.571
 3432TIP3    H210240   0.945   1.507   0.635
 3433TIP3   OH210241   2.228   1.733   3.554
 3433TIP3    H110242   2.199   1.714   3.643
 3433TIP3    H210243   2.175   1.808   3.527
 3434TIP3   OH210244   2.853   5.536   1.718
 3434TIP3    H110245   2.876   5.456   1.670
 3434TIP3    H210246   2.933   5.588   1.718
 3435TIP3   OH210247   7.820   3.373   0.465
 3435TIP3    H110248   7.887   3.311   0.434
 3435TIP3    H210249   7.834   3.378   0.559
 3436TIP3   OH210250   1.205   6.543   0.671
 3436TIP3    H110251   1.150   6.527   0.594
 3436TIP3    H210252   1.182   6.631   0.699
 3437TIP3   OH210253   6.559   3.401   3.868
 3437TIP3    H110254   6.603   3.468   3.816
 3437TIP3    H210255   6.482   3.446   3.904
 3438TIP3   OH210256   1.179   4.930   0.672
 3438TIP3    H110257   1.137   4.962   0.593
 3438TIP3    H210258   1.263   4.977   0.676
 3439TIP3   OH210259   1.182   1.875   5.588
 3439TIP3    H110260   1.244   1.804   5.573
 3439TIP3    H210261   1.109   1.834   5.634
 3440TIP3   OH210262   5.852   1.532   3.886
 3440TIP3    H110263   5.840   1.607   3.828
 3440TIP3    H210264   5.765   1.491   3.889
 3441TIP3   OH210265   2.519   3.695   5.400
 3441TIP3    H110266   2.433   3.681   5.360
 3441TIP3    H210267   2.513   3.652   5.485
 3442TIP3   OH210268   3.346   6.818   3.443
 3442TIP3    H110269   3.335   6.754   3.373
 3442TIP3    H210270   3.407   6.883   3.408
 3443TIP3   OH210271   2.777   5.078   5.513
 3443TIP3    H110272   2.690   5.065   5.549
 3443TIP3    H210273   2.767   5.150   5.451
 3444TIP3   OH210274   5.003   2.568   1.509
 3444TIP3    H110275   5.002   2.473   1.499
 3444TIP3    H210276   5.092   2.594   1.487
 3445TIP3   OH210277   6.596   1.857   6.418
 3445TIP3    H110278   6.530   1.832   6.354
 3445TIP3    H210279   6.546   1.878   6.497
 3446TIP3   OH210280   7.017   1.173   5.744
 3446TIP3    H110281   6.929   1.207   5.761
 3446TIP3    H210282   7.018   1.088   5.790
 3447TIP3   OH210283   4.849   6.759   1.541
 3447TIP3    H110284   4.869   6.707   1.619
 3447TIP3    H210285   4.812   6.840   1.575
 3448TIP3   OH210286   0.917   3.621   0.617
 3448TIP3    H110287   0.824   3.600   0.621
 3448TIP3    H210288   0.937   3.658   0.703
 3449TIP3   OH210289   5.726   2.024   3.910
 3449TIP3    H110290   5.731   1.933   3.938
 3449TIP3    H210291   5.817   2.054   3.908
 3450TIP3   OH210292   7.531   4.622   4.001
 3450TIP3    H110293   7.498   4.545   3.953
 3450TIP3    H210294   7.524   4.598   4.093
 3451TIP3   OH210295   6.800   5.167   4.578
 3451TIP3    H110296   6.720   5.140   4.622
 3451TIP3    H210297   6.852   5.087   4.573
 3452TIP3   OH210298   7.541   2.312   2.411
 3452TIP3    H110299   7.599   2.268   2.350
 3452TIP3    H210300   7.469   2.250   2.424
 3453TIP3   OH210301   4.346   0.480   5.562
 3453TIP3    H110302   4.386   0.396   5.542
 3453TIP3    H210303   4.256   0.460   5.588
 3454TIP3   OH210304   2.992   7.342   4.911
 3454TIP3    H110305   3.023   7.298   4.832
 3454TIP3    H210306   2.897   7.345   4.901
 3455TIP3   OH210307   3.691   3.834   6.407
 3455TIP3    H110308   3.711   3.744   6.383
 3455TIP3    H210309   3.656   3.828   6.496
 3456TIP3   OH210310   0.508   0.807   6.097
 3456TIP3    H110311   0.587   0.785   6.147
 3456TIP3    H210312   0.538   0.871   6.033
 3457TIP3   OH210313   1.984   0.882   2.567
 3457TIP3    H110314   2.023   0.926   2.643
 3457TIP3    H210315   2.059   0.855   2.514
 3458TIP3   OH210316   1.469   3.755   1.101
 3458TIP3    H110317   1.436   3.673   1.137
 3458TIP3    H210318   1.557   3.764   1.139
 3459TIP3   OH210319   2.983   2.395   2.391
 3459TIP3    H110320   2.995   2.482   2.429
 3459TIP3    H210321   2.892   2.394   2.362
 3460TIP3   OH210322   4.982   5.895   4.545
 3460TIP3    H110323   4.941   5.920   4.462
 3460TIP3    H210324   4.934   5.944   4.612
 3461TIP3   OH210325   5.734   7.109   0.296
 3461TIP3    H110326   5.682   7.096   0.217
 3461TIP3    H210327   5.750   7.021   0.330
 3462TIP3   OH210328   7.747   6.331   6.297
 3462TIP3    H110329   7.818   6.326   6.361
 3462TIP3    H210330   7.789   6.363   6.217
 3463TIP3   OH210331   3.295   3.447   5.349
 3463TIP3    H110332   3.269   3.421   5.437
 3463TIP3    H210333   3.368   3.507   5.362
 3464TIP3   OH210334   4.790   6.581   3.331
 3464TIP3    H110335   4.874   6.593   3.287
 3464TIP3    H210336   4.738   6.656   3.304
 3465TIP3   OH210337   6.463   4.792   6.756
 3465TIP3    H110338   6.508   4.708   6.752
 3465TIP3    H210339   6.528   4.855   6.725
 3466TIP3   OH210340   7.271   7.277   1.292
 3466TIP3    H110341   7.203   7.302   1.354
 3466TIP3    H210342   7.353   7.284   1.342
 3467TIP3   OH210343   8.002   2.490   4.379
 3467TIP3    H110344   8.094   2.504   4.401
 3467TIP3    H210345   7.957   2.566   4.414
 3468TIP3   OH210346   0.119   1.361   1.088
 3468TIP3    H110347   0.197   1.390   1.135
 3468TIP3    H210348   0.088   1.439   1.041
 3469TIP3   OH210349   5.734   2.217   0.637
 3469TIP3    H110350   5.816   2.248   0.601
 3469TIP3    H210351   5.697   2.293   0.682
 3470TIP3   OH210352   5.132   2.836   4.128
 3470TIP3    H110353   5.040   2.819   4.111
 3470TIP3    H210354   5.136   2.929   4.150
 3471TIP3   OH210355   0.574   5.149   5.893
 3471TIP3    H110356   0.593   5.218   5.829
 3471TIP3    H210357   0.602   5.068   5.850
 3472TIP3   OH210358   2.012   0.113   5.265
 3472TIP3    H110359   1.961   0.068   5.198
 3472TIP3    H210360   2.082   0.157   5.217
 3473TIP3   OH210361   0.198   6.381   4.931
 3473TIP3    H110362   0.106   6.364   4.948
 3473TIP3    H210363   0.235   6.296   4.907
 3474TIP3   OH210364   1.431   3.155   6.076
 3474TIP3    H110365   1.477   3.160   5.992
 3474TIP3    H210366   1.462   3.230   6.126
 3475TIP3   OH210367   2.345   0.879   0.638
 3475TIP3    H110368   2.256   0.914   0.638
 3475TIP3    H210369   2.373   0.883   0.729
 3476TIP3   OH210370   2.222   3.193   4.217
 3476TIP3    H110371   2.237   3.246   4.295
 3476TIP3    H210372   2.290   3.222   4.155
 3477TIP3   OH210373   7.403   1.458   3.095
 3477TIP3    H110374   7.309   1.460   3.117
 3477TIP3    H210375   7.444   1.420   3.172
 3478TIP3   OH210376   5.947   5.923   6.264
 3478TIP3    H110377   5.857   5.891   6.264
 3478TIP3    H210378   5.978   5.907   6.353
 3479TIP3   OH210379   5.870   5.302   1.540
 3479TIP3    H110380   5.859   5.346   1.624
 3479TIP3    H210381   5.805   5.343   1.483
 3480TIP3   OH210382   7.483   1.792   1.501
 3480TIP3    H110383   7.472   1.884   1.527
 3480TIP3    H210384   7.573   1.786   1.470
 3481TIP3   OH210385   7.836   2.287   1.904
 3481TIP3    H110386   7.916   2.291   1.956
 3481TIP3    H210387   7.864   2.312   1.816
 3482TIP3   OH210388   2.657   1.912   5.331
 3482TIP3    H110389   2.691   1.851   5.397
 3482TIP3    H210390   2.569   1.881   5.313
 3483TIP3   OH210391   3.607   1.613   5.074
 3483TIP3    H110392   3.581   1.666   5.149
 3483TIP3    H210393   3.554   1.646   5.002
 3484TIP3   OH210394   6.483   3.856   6.044
 3484TIP3    H110395   6.457   3.771   6.009
 3484TIP3    H210396   6.403   3.908   6.043
 3485TIP3   OH210397   7.943   3.435   1.332
 3485TIP3    H110398   7.930   3.526   1.306
 3485TIP3    H210399   8.021   3.438   1.388
 3486TIP3   OH210400   5.192   6.047   1.753
 3486TIP3    H110401   5.236   6.126   1.720
 3486TIP3    H210402   5.115   6.080   1.798
 3487TIP3   OH210403   4.231   0.369   3.894
 3487TIP3    H110404   4.307   0.418   3.861
 3487TIP3    H210405   4.217   0.300   3.829
 3488TIP3   OH210406   7.149   5.034   1.663
 3488TIP3    H110407   7.084   5.043   1.733
 3488TIP3    H210408   7.221   5.091   1.690
 3489TIP3   OH210409   3.492   2.715   5.653
 3489TIP3    H110410   3.552   2.790   5.655
 3489TIP3    H210411   3.405   2.753   5.661
 3490TIP3   OH210412   7.667   1.247   0.224
 3490TIP3    H110413   7.757   1.262   0.194
 3490TIP3    H210414   7.660   1.152   0.232
 3491TIP3   OH210415   3.650   1.951   3.714
 3491TIP3    H110416   3.660   1.975   3.806
 3491TIP3    H210417   3.588   2.013   3.679
 3492TIP3   OH210418   5.731   5.236   4.067
 3492TIP3    H110419   5.698   5.196   3.987
 3492TIP3    H210420   5.820   5.265   4.045
 3493TIP3   OH210421   4.316   4.841   0.356
 3493TIP3    H110422   4.264   4.863   0.278
 3493TIP3    H210423   4.405   4.829   0.323
 3494TIP3   OH210424   0.728   2.014   4.025
 3494TIP3    H110425   0.658   1.973   4.075
 3494TIP3    H210426   0.786   1.942   4.002
 3495TIP3   OH210427   2.092   4.202   1.723
 3495TIP3    H110428   2.091   4.229   1.631
 3495TIP3    H210429   2.063   4.280   1.771
 3496TIP3   OH210430   7.630   3.671   2.022
 3496TIP3    H110431   7.653   3.714   2.104
 3496TIP3    H210432   7.697   3.699   1.960
 3497TIP3   OH210433   7.123   4.487   1.090
 3497TIP3    H110434   7.194   4.476   1.027
 3497TIP3    H210435   7.048   4.444   1.050
 3498TIP3   OH210436   0.098   1.527   1.391
 3498TIP3    H110437   0.091   1.490   1.303
 3498TIP3    H210438   0.124   1.618   1.377
 3499TIP3   OH210439   2.808   5.768   0.944
 3499TIP3    H110440   2.821   5.673   0.942
 3499TIP3    H210441   2.887   5.804   0.904
 3500TIP3   OH210442   0.125   3.889   1.685
 3500TIP3    H110443   0.169   3.895   1.601
 3500TIP3    H210444   0.031   3.892   1.664
 3501TIP3   OH210445   7.086   6.086   0.325
 3501TIP3    H110446   7.178   6.077   0.299
 3501TIP3    H210447   7.085   6.158   0.387
 3502TIP3   OH210448   2.628   2.071   0.101
 3502TIP3    H110449   2.696   2.038   0.160
 3502TIP3    H210450   2.624   2.006   0.031
 3503TIP3   OH210451   4.506   4.334   2.874
 3503TIP3    H110452   4.587   4.358   2.919
 3503TIP3    H210453   4.527   4.251   2.830
 3504TIP3   OH210454   5.660   7.811   3.081
 3504TIP3    H110455   5.581   7.854   3.047
 3504TIP3    H210456   5.633   7.774   3.165
 3505TIP3   OH210457   0.252   2.066   4.503
 3505TIP3    H110458   0.222   2.138   4.448
 3505TIP3    H210459   0.234   2.095   4.593
 3506TIP3   OH210460   7.575   6.073   6.095
 3506TIP3    H110461   7.582   6.151   6.040
 3506TIP3    H210462   7.553   6.105   6.182
 3507TIP3   OH210463   6.708   1.511   5.205
 3507TIP3    H110464   6.691   1.484   5.295
 3507TIP3    H210465   6.785   1.568   5.211
 3508TIP3   OH210466   6.888   7.416   5.468
 3508TIP3    H110467   6.881   7.453   5.556
 3508TIP3    H210468   6.798   7.418   5.434
 3509TIP3   OH210469   3.371   2.108   0.666
 3509TIP3    H110470   3.431   2.175   0.698
 3509TIP3    H210471   3.416   2.025   0.684
 3510TIP3   OH210472   7.648   2.321   3.110
 3510TIP3    H110473   7.552   2.320   3.115
 3510TIP3    H210474   7.668   2.387   3.043
 3511TIP3   OH210475   0.129   4.232   3.193
 3511TIP3    H110476   0.206   4.179   3.173
 3511TIP3    H210477   0.158   4.292   3.262
 3512TIP3   OH210478   1.600   4.476   2.033
 3512TIP3    H110479   1.683   4.478   2.080
 3512TIP3    H210480   1.534   4.487   2.101
 3513TIP3   OH210481   8.124   2.284   6.532
 3513TIP3    H110482   8.179   2.327   6.466
 3513TIP3    H210483   8.184   2.263   6.603
 3514TIP3   OH210484   6.291   3.737   4.161
 3514TIP3    H110485   6.312   3.646   4.181
 3514TIP3    H210486   6.214   3.733   4.105
 3515TIP3   OH210487   6.693   1.717   3.894
 3515TIP3    H110488   6.698   1.624   3.871
 3515TIP3    H210489   6.784   1.746   3.895
 3516TIP3   OH210490   1.153   0.325   4.603
 3516TIP3    H110491   1.160   0.395   4.668
 3516TIP3    H210492   1.059   0.313   4.590
 3517TIP3   OH210493   1.240   3.231   1.611
 3517TIP3    H110494   1.275   3.314   1.643
 3517TIP3    H210495   1.269   3.167   1.677
 3518TIP3   OH210496   4.796   5.165   1.954
 3518TIP3    H110497   4.868   5.102   1.946
 3518TIP3    H210498   4.804   5.199   2.043
 3519TIP3   OH210499   3.874   7.793   5.553
 3519TIP3    H110500   3.877   7.708   5.508
 3519TIP3    H210501   3.965   7.818   5.562
 3520TIP3   OH210502   6.836   7.353   1.268
 3520TIP3    H110503   6.918   7.388   1.235
 3520TIP3    H210504   6.823   7.271   1.220
 3521TIP3   OH210505   8.118   3.071   1.636
 3521TIP3    H110506   8.105   3.149   1.582
 3521TIP3    H210507   8.059   3.006   1.598
 3522TIP3   OH210508   4.376   3.500   5.935
 3522TIP3    H110509   4.391   3.594   5.942
 3522TIP3    H210510   4.462   3.460   5.947
 3523TIP3   OH210511   1.197   6.099   3.481
 3523TIP3    H110512   1.213   6.140   3.396
 3523TIP3    H210513   1.265   6.134   3.538
 3524TIP3   OH210514   5.631   2.730   0.220
 3524TIP3    H110515   5.575   2.798   0.182
 3524TIP3    H210516   5.707   2.727   0.162
 3525TIP3   OH210517   1.638   6.852   3.514
 3525TIP3    H110518   1.653   6.943   3.490
 3525TIP3    H210519   1.659   6.802   3.435
 3526TIP3   OH210520   2.638   2.546   1.391
 3526TIP3    H110521   2.583   2.536   1.314
 3526TIP3    H210522   2.727   2.531   1.360
 3527TIP3   OH210523   5.383   7.477   5.157
 3527TIP3    H110524   5.359   7.387   5.135
 3527TIP3    H210525   5.474   7.485   5.127
 3528TIP3   OH210526   7.545   5.328   3.398
 3528TIP3    H110527   7.461   5.373   3.408
 3528TIP3    H210528   7.533   5.270   3.323
 3529TIP3   OH210529   0.462   5.251   0.277
 3529TIP3    H110530   0.375   5.291   0.280
 3529TIP3    H210531   0.449   5.163   0.311
 3530TIP3   OH210532   2.281   2.097   3.664
 3530TIP3    H110533   2.189   2.073   3.673
 3530TIP3    H210534   2.304   2.132   3.750
 3531TIP3   OH210535   6.639   4.813   0.735
 3531TIP3    H110536   6.569   4.863   0.776
 3531TIP3    H210537   6.599   4.773   0.658
 3532TIP3   OH210538   2.841   0.771   5.524
 3532TIP3    H110539   2.803   0.852   5.558
 3532TIP3    H210540   2.911   0.800   5.466
 3533TIP3   OH210541   6.550   4.039   3.431
 3533TIP3    H110542   6.617   3.996   3.377
 3533TIP3    H210543   6.512   4.105   3.373
 3534TIP3   OH210544   3.420   5.003   1.498
 3534TIP3    H110545   3.417   4.921   1.449
 3534TIP3    H210546   3.341   5.001   1.553
 3535TIP3   OH210547   3.102   6.453   4.298
 3535TIP3    H110548   3.037   6.484   4.234
 3535TIP3    H210549   3.173   6.517   4.292
 3536TIP3   OH210550   0.130   5.405   0.154
 3536TIP3    H110551   0.052   5.372   0.197
 3536TIP3    H210552   0.193   5.417   0.226
 3537TIP3   OH210553   7.608   5.229   2.668
 3537TIP3    H110554   7.547   5.286   2.716
 3537TIP3    H210555   7.552   5.163   2.627
 3538TIP3   OH210556   3.470   2.683   1.984
 3538TIP3    H110557   3.557   2.713   1.958
 3538TIP3    H210558   3.447   2.741   2.057
 3539TIP3   OH210559   7.133   0.347   2.693
 3539TIP3    H110560   7.216   0.372   2.733
 3539TIP3    H210561   7.097   0.280   2.751
 3540TIP3   OH210562   3.908   1.425   3.999
 3540TIP3    H110563   3.897   1.349   4.056
 3540TIP3    H210564   3.853   1.493   4.039
 3541TIP3   OH210565   0.038   3.235   1.915
 3541TIP3    H110566  -0.009   3.304   1.869
 3541TIP3    H210567  -0.030   3.184   1.958
 3542TIP3   OH210568   7.895   2.730   0.615
 3542TIP3    H110569   7.866   2.655   0.565
 3542TIP3    H210570   7.863   2.713   0.704
 3543TIP3   OH210571   2.610   7.673   2.398
 3543TIP3    H110572   2.517   7.679   2.420
 3543TIP3    H210573   2.648   7.754   2.432
 3544TIP3   OH210574   5.210   3.986   3.042
 3544TIP3    H110575   5.295   4.014   3.077
 3544TIP3    H210576   5.222   3.893   3.024
 3545TIP3   OH210577   6.675   2.438   0.760
 3545TIP3    H110578   6.626   2.365   0.799
 3545TIP3    H210579   6.757   2.399   0.730
 3546TIP3   OH210580   2.624   7.141   6.069
 3546TIP3    H110581   2.616   7.065   6.011
 3546TIP3    H210582   2.544   7.191   6.053
 3547TIP3   OH210583   2.179   7.667   5.950
 3547TIP3    H110584   2.258   7.684   5.897
 3547TIP3    H210585   2.213   7.638   6.035
 3548TIP3   OH210586   5.417   0.103   5.945
 3548TIP3    H110587   5.457   0.023   5.911
 3548TIP3    H210588   5.488   0.146   5.993
 3549TIP3   OH210589   2.974   7.450   3.918
 3549TIP3    H110590   3.052   7.489   3.879
 3549TIP3    H210591   2.955   7.506   3.994
 3550TIP3   OH210592   3.894   6.045   3.766
 3550TIP3    H110593   3.979   6.056   3.808
 3550TIP3    H210594   3.911   5.983   3.694
 3551TIP3   OH210595   6.435   4.941   4.455
 3551TIP3    H110596   6.461   4.893   4.376
 3551TIP3    H210597   6.448   4.879   4.527
 3552TIP3   OH210598   0.615   5.277   3.697
 3552TIP3    H110599   0.707   5.301   3.708
 3552TIP3    H210600   0.587   5.248   3.783
 3553TIP3   OH210601   3.444   2.154   3.089
 3553TIP3    H110602   3.401   2.170   3.173
 3553TIP3    H210603   3.435   2.237   3.041
 3554TIP3   OH210604   4.234   5.180   6.133
 3554TIP3    H110605   4.145   5.214   6.142
 3554TIP3    H210606   4.231   5.124   6.056
 3555TIP3   OH210607   0.153   5.749   4.984
 3555TIP3    H110608   0.064   5.716   4.996
 3555TIP3    H210609   0.204   5.672   4.962
 3556TIP3   OH210610   5.181   1.553   6.401
 3556TIP3    H110611   5.089   1.579   6.390
 3556TIP3    H210612   5.207   1.594   6.483
 3557TIP3   OH210613   0.658   3.319   5.203
 3557TIP3    H110614   0.725   3.280   5.147
 3557TIP3    H210615   0.596   3.248   5.218
 3558TIP3   OH210616   7.852   0.815   5.034
 3558TIP3    H110617   7.946   0.799   5.046
 3558TIP3    H210618   7.823   0.745   4.975
 3559TIP3   OH210619   8.108   5.771   1.802
 3559TIP3    H110620   8.029   5.817   1.832
 3559TIP3    H210621   8.086   5.742   1.713
 3560TIP3   OH210622   4.564   4.309   3.943
 3560TIP3    H110623   4.620   4.234   3.960
 3560TIP3    H210624   4.507   4.282   3.871
 3561TIP3   OH210625   1.268   7.046   1.166
 3561TIP3    H110626   1.210   7.107   1.121
 3561TIP3    H210627   1.282   6.974   1.104
 3562TIP3   OH210628   2.563   5.552   2.476
 3562TIP3    H110629   2.576   5.544   2.381
 3562TIP3    H210630   2.651   5.551   2.513
 3563TIP3   OH210631   4.143   0.702   1.530
 3563TIP3    H110632   4.151   0.742   1.616
 3563TIP3    H210633   4.070   0.748   1.488
 3564TIP3   OH210634   0.925   0.730   2.006
 3564TIP3    H110635   0.977   0.771   1.937
 3564TIP3    H210636   0.934   0.636   1.991
 3565TIP3   OH210637   5.665   0.559   1.413
 3565TIP3    H110638   5.631   0.585   1.498
 3565TIP3    H210639   5.743   0.507   1.433
 3566TIP3   OH210640   4.738   1.049   4.866
 3566TIP3    H110641   4.820   1.011   4.899
 3566TIP3    H210642   4.674   1.030   4.934
 3567TIP3   OH210643   4.498   0.787   4.727
 3567TIP3    H110644   4.548   0.865   4.752
 3567TIP3    H210645   4.519   0.723   4.794
 3568TIP3   OH210646   4.963   3.297   0.748
 3568TIP3    H110647   4.888   3.357   0.745
 3568TIP3    H210648   4.926   3.214   0.777
 3569TIP3   OH210649   6.133   2.322   4.587
 3569TIP3    H110650   6.158   2.386   4.520
 3569TIP3    H210651   6.038   2.317   4.581
 3570TIP3   OH210652   7.126   7.533   2.740
 3570TIP3    H110653   7.178   7.460   2.707
 3570TIP3    H210654   7.035   7.504   2.731
 3571TIP3   OH210655   7.920   5.446   5.000
 3571TIP3    H110656   7.847   5.464   4.940
 3571TIP3    H210657   7.905   5.506   5.074
 3572TIP3   OH210658   3.110   6.180   3.471
 3572TIP3    H110659   3.171   6.181   3.545
 3572TIP3    H210660   3.151   6.122   3.407
 3573TIP3   OH210661   1.534   1.916   4.058
 3573TIP3    H110662   1.581   1.897   4.139
 3573TIP3    H210663   1.567   1.851   3.995
 3574TIP3   OH210664   1.751   0.943   5.982
 3574TIP3    H110665   1.821   0.886   6.014
 3574TIP3    H210666   1.722   0.992   6.059
 3575TIP3   OH210667   6.743   6.633   5.264
 3575TIP3    H110668   6.805   6.628   5.337
 3575TIP3    H210669   6.797   6.658   5.189
 3576TIP3   OH210670   4.415   5.937   6.225
 3576TIP3    H110671   4.478   5.928   6.297
 3576TIP3    H210672   4.400   6.031   6.218
 3577TIP3   OH210673   5.657   2.569   1.506
 3577TIP3    H110674   5.644   2.663   1.497
 3577TIP3    H210675   5.693   2.558   1.595
 3578TIP3   OH210676   7.649   6.056   3.389
 3578TIP3    H110677   7.743   6.039   3.401
 3578TIP3    H210678   7.614   5.974   3.355
 3579TIP3   OH210679   2.638   3.951   4.714
 3579TIP3    H110680   2.626   4.032   4.665
 3579TIP3    H210681   2.728   3.956   4.747
 3580TIP3   OH210682   8.072   3.019   3.844
 3580TIP3    H110683   8.010   3.077   3.800
 3580TIP3    H210684   8.065   2.936   3.797
 3581TIP3   OH210685   7.259   3.815   1.289
 3581TIP3    H110686   7.322   3.744   1.288
 3581TIP3    H210687   7.292   3.878   1.225
 3582TIP3   OH210688   6.271   1.737   4.250
 3582TIP3    H110689   6.310   1.659   4.210
 3582TIP3    H210690   6.179   1.732   4.225
 3583TIP3   OH210691   5.976   6.109   2.246
 3583TIP3    H110692   6.043   6.050   2.211
 3583TIP3    H210693   5.940   6.063   2.321
 3584TIP3   OH210694   0.469   5.572   0.162
 3584TIP3    H110695   0.394   5.629   0.145
 3584TIP3    H210696   0.437   5.511   0.229
 3585TIP3   OH210697   6.535   4.828   2.550
 3585TIP3    H110698   6.511   4.831   2.457
 3585TIP3    H210699   6.616   4.777   2.552
 3586TIP3   OH210700   4.547   6.505   6.479
 3586TIP3    H110701   4.512   6.586   6.516
 3586TIP3    H210702   4.568   6.451   6.556
 3587TIP3   OH210703   4.667   4.606   0.696
 3587TIP3    H110704   4.660   4.546   0.770
 3587TIP3    H210705   4.725   4.562   0.634
 3588TIP3   OH210706   4.688   3.776   1.287
 3588TIP3    H110707   4.609   3.777   1.233
 3588TIP3    H210708   4.666   3.830   1.363
 3589TIP3   OH210709   1.637   1.393   4.764
 3589TIP3    H110710   1.566   1.442   4.722
 3589TIP3    H210711   1.593   1.327   4.818
 3590TIP3   OH210712   1.221   7.291   3.711
 3590TIP3    H110713   1.162   7.222   3.682
 3590TIP3    H210714   1.301   7.246   3.739
 3591TIP3   OH210715   5.842   3.558   5.210
 3591TIP3    H110716   5.921   3.512   5.181
 3591TIP3    H210717   5.836   3.634   5.153
 3592TIP3   OH210718   2.089   0.396   5.303
 3592TIP3    H110719   2.023   0.328   5.292
 3592TIP3    H210720   2.138   0.369   5.380
 3593TIP3   OH210721   3.625   5.737   4.102
 3593TIP3    H110722   3.616   5.827   4.069
 3593TIP3    H210723   3.655   5.687   4.026
 3594TIP3   OH210724   7.658   3.293   1.897
 3594TIP3    H110725   7.645   3.340   1.815
 3594TIP3    H210726   7.709   3.216   1.873
 3595TIP3   OH210727   3.679   7.287   3.049
 3595TIP3    H110728   3.702   7.320   3.136
 3595TIP3    H210729   3.757   7.240   3.020
 3596TIP3   OH210730   5.644   0.518   1.899
 3596TIP3    H110731   5.617   0.535   1.809
 3596TIP3    H210732   5.673   0.603   1.932
 3597TIP3   OH210733   7.847   3.143   0.801
 3597TIP3    H110734   7.879   3.116   0.887
 3597TIP3    H210735   7.751   3.136   0.808
 3598TIP3   OH210736   8.074   5.115   1.912
 3598TIP3    H110737   8.118   5.200   1.924
 3598TIP3    H210738   7.994   5.136   1.863
 3599TIP3   OH210739   1.393   6.481   2.600
 3599TIP3    H110740   1.397   6.388   2.623
 3599TIP3    H210741   1.408   6.484   2.505
 3600TIP3   OH210742   5.039   7.610   0.468
 3600TIP3    H110743   5.009   7.564   0.389
 3600TIP3    H210744   5.126   7.574   0.485
 3601TIP3   OH210745   2.147   1.715   6.281
 3601TIP3    H110746   2.229   1.687   6.242
 3601TIP3    H210747   2.161   1.807   6.303
 3602TIP3   OH210748   4.942   0.521   3.775
 3602TIP3    H110749   4.888   0.446   3.800
 3602TIP3    H210750   4.954   0.570   3.856
 3603TIP3   OH210751   5.198   4.715   3.198
 3603TIP3    H110752   5.115   4.744   3.235
 3603TIP3    H210753   5.246   4.796   3.181
 3604TIP3   OH210754   3.582   2.649   1.031
 3604TIP3    H110755   3.650   2.590   1.065
 3604TIP3    H210756   3.625   2.697   0.960
 3605TIP3   OH210757   4.492   3.759   5.164
 3605TIP3    H110758   4.512   3.781   5.255
 3605TIP3    H210759   4.470   3.843   5.124
 3606TIP3   OH210760   3.197   2.607   0.459
 3606TIP3    H110761   3.107   2.588   0.485
 3606TIP3    H210762   3.248   2.534   0.493
 3607TIP3   OH210763   4.729   4.456   2.462
 3607TIP3    H110764   4.769   4.373   2.435
 3607TIP3    H210765   4.759   4.520   2.397
 3608TIP3   OH210766   4.263   7.427   0.092
 3608TIP3    H110767   4.300   7.378   0.165
 3608TIP3    H210768   4.170   7.406   0.093
 3609TIP3   OH210769   7.591   2.675   6.389
 3609TIP3    H110770   7.554   2.605   6.443
 3609TIP3    H210771   7.685   2.673   6.407
 3610TIP3   OH210772   1.560   6.269   4.860
 3610TIP3    H110773   1.497   6.314   4.803
 3610TIP3    H210774   1.630   6.332   4.873
 3611TIP3   OH210775   3.154   6.501   4.753
 3611TIP3    H110776   3.101   6.449   4.692
 3611TIP3    H210777   3.202   6.436   4.804
 3612TIP3   OH210778   1.828   3.707   5.219
 3612TIP3    H110779   1.873   3.708   5.134
 3612TIP3    H210780   1.881   3.649   5.274
 3613TIP3   OH210781   3.708   4.452   0.651
 3613TIP3    H110782   3.704   4.544   0.623
 3613TIP3    H210783   3.624   4.437   0.693
 3614TIP3   OH210784   3.592   7.599   1.339
 3614TIP3    H110785   3.617   7.523   1.391
 3614TIP3    H210786   3.665   7.613   1.279
 3615TIP3   OH210787   0.886   6.195   2.140
 3615TIP3    H110788   0.858   6.109   2.109
 3615TIP3    H210789   0.948   6.176   2.210
 3616TIP3   OH210790   2.368   1.740   5.912
 3616TIP3    H110791   2.389   1.714   6.002
 3616TIP3    H210792   2.310   1.815   5.922
 3617TIP3   OH210793   4.829   1.016   1.498
 3617TIP3    H110794   4.791   1.074   1.565
 3617TIP3    H210795   4.843   0.933   1.544
 3618TIP3   OH210796   2.458   4.532   1.297
 3618TIP3    H110797   2.486   4.442   1.279
 3618TIP3    H210798   2.528   4.587   1.263
 3619TIP3   OH210799   7.960   6.184   5.897
 3619TIP3    H110800   7.967   6.153   5.988
 3619TIP3    H210801   7.993   6.274   5.901
 3620TIP3   OH210802   7.674   3.373   0.946
 3620TIP3    H110803   7.658   3.307   1.014
 3620TIP3    H210804   7.753   3.418   0.975
 3621TIP3   OH210805   5.901   0.664   0.602
 3621TIP3    H110806   5.912   0.605   0.677
 3621TIP3    H210807   5.817   0.708   0.619
 3622TIP3   OH210808   0.029   1.604   2.615
 3622TIP3    H110809   0.067   1.686   2.584
 3622TIP3    H210810  -0.038   1.630   2.677
 3623TIP3   OH210811   6.727   0.305   5.841
 3623TIP3    H110812   6.737   0.373   5.908
 3623TIP3    H210813   6.633   0.294   5.832
 3624TIP3   OH210814   0.161   4.972   4.623
 3624TIP3    H110815   0.222   4.922   4.678
 3624TIP3    H210816   0.087   4.991   4.680
 3625TIP3   OH210817   0.111   1.762   2.088
 3625TIP3    H110818   0.147   1.674   2.083
 3625TIP3    H210819   0.039   1.755   2.151
 3626TIP3   OH210820   7.412   1.750   3.647
 3626TIP3    H110821   7.425   1.744   3.552
 3626TIP3    H210822   7.340   1.812   3.657
 3627TIP3   OH210823   6.671   4.423   1.812
 3627TIP3    H110824   6.654   4.366   1.737
 3627TIP3    H210825   6.585   4.454   1.840
 3628TIP3   OH210826   6.905   7.722   4.372
 3628TIP3    H110827   6.857   7.721   4.454
 3628TIP3    H210828   6.853   7.777   4.313
 3629TIP3   OH210829   2.073   0.995   1.658
 3629TIP3    H110830   2.067   0.913   1.707
 3629TIP3    H210831   2.094   0.968   1.569
 3630TIP3   OH210832   1.675   3.772   3.275
 3630TIP3    H110833   1.675   3.853   3.225
 3630TIP3    H210834   1.755   3.728   3.248
 3631TIP3   OH210835   6.857   2.663   3.463
 3631TIP3    H110836   6.915   2.740   3.465
 3631TIP3    H210837   6.769   2.700   3.455
 3632TIP3   OH210838   5.766   0.736   5.031
 3632TIP3    H110839   5.794   0.646   5.016
 3632TIP3    H210840   5.733   0.736   5.121
 3633TIP3   OH210841   5.465   5.769   4.415
 3633TIP3    H110842   5.434   5.826   4.484
 3633TIP3    H210843   5.560   5.779   4.416
 3634TIP3   OH210844   6.669   2.670   1.000
 3634TIP3    H110845   6.699   2.585   0.967
 3634TIP3    H210846   6.582   2.651   1.037
 3635TIP3   OH210847   7.200   0.959   1.504
 3635TIP3    H110848   7.139   0.925   1.570
 3635TIP3    H210849   7.275   0.899   1.508
 3636TIP3   OH210850   2.772   3.142   1.713
 3636TIP3    H110851   2.676   3.137   1.709
 3636TIP3    H210852   2.796   3.089   1.789
 3637TIP3   OH210853   4.272   5.930   3.336
 3637TIP3    H110854   4.364   5.929   3.363
 3637TIP3    H210855   4.271   5.886   3.252
 3638TIP3   OH210856   7.020   6.616   0.466
 3638TIP3    H110857   6.928   6.642   0.464
 3638TIP3    H210858   7.046   6.615   0.374
 3639TIP3   OH210859   4.809   1.668   0.746
 3639TIP3    H110860   4.726   1.660   0.699
 3639TIP3    H210861   4.868   1.712   0.684
 3640TIP3   OH210862   6.231   0.247   1.776
 3640TIP3    H110863   6.323   0.258   1.752
 3640TIP3    H210864   6.233   0.192   1.854
 3641TIP3   OH210865   3.848   6.440   5.901
 3641TIP3    H110866   3.786   6.490   5.955
 3641TIP3    H210867   3.933   6.481   5.917
 3642TIP3   OH210868   3.978   4.074   3.039
 3642TIP3    H110869   4.066   4.080   3.003
 3642TIP3    H210870   3.920   4.083   2.963
 3643TIP3   OH210871   4.505   2.524   6.220
 3643TIP3    H110872   4.475   2.486   6.302
 3643TIP3    H210873   4.438   2.498   6.156
 3644TIP3   OH210874   1.317   7.365   5.190
 3644TIP3    H110875   1.339   7.449   5.228
 3644TIP3    H210876   1.397   7.312   5.199
 3645TIP3   OH210877   7.877   1.450   4.493
 3645TIP3    H110878   7.931   1.465   4.416
 3645TIP3    H210879   7.849   1.359   4.486
 3646TIP3   OH210880   4.670   2.036   6.708
 3646TIP3    H110881   4.699   2.063   6.621
 3646TIP3    H210882   4.731   2.078   6.768
 3647TIP3   OH210883   4.926   5.008   2.965
 3647TIP3    H110884   4.833   5.025   2.946
 3647TIP3    H210885   4.925   4.928   3.018
 3648TIP3   OH210886   2.596   5.593   5.538
 3648TIP3    H110887   2.571   5.505   5.510
 3648TIP3    H210888   2.669   5.616   5.482
 3649TIP3   OH210889   0.633   4.632   4.207
 3649TIP3    H110890   0.585   4.632   4.290
 3649TIP3    H210891   0.618   4.544   4.171
 3650TIP3   OH210892   5.895   1.087   6.569
 3650TIP3    H110893   5.920   1.160   6.625
 3650TIP3    H210894   5.883   1.127   6.483
 3651TIP3   OH210895   1.338   7.545   3.936
 3651TIP3    H110896   1.328   7.533   3.841
 3651TIP3    H210897   1.331   7.640   3.949
 3652TIP3   OH210898   1.799   3.649   3.730
 3652TIP3    H110899   1.710   3.685   3.731
 3652TIP3    H210900   1.846   3.703   3.667
 3653TIP3   OH210901   8.084   2.329   2.024
 3653TIP3    H110902   8.102   2.350   2.116
 3653TIP3    H210903   8.134   2.394   1.975
 3654TIP3   OH210904   1.783   7.341   3.542
 3654TIP3    H110905   1.721   7.410   3.567
 3654TIP3    H210906   1.830   7.320   3.623
 3655TIP3   OH210907   7.610   7.522   4.985
 3655TIP3    H110908   7.647   7.562   5.063
 3655TIP3    H210909   7.593   7.596   4.926
 3656TIP3   OH210910   0.637   3.688   1.282
 3656TIP3    H110911   0.701   3.700   1.211
 3656TIP3    H210912   0.627   3.775   1.320
 3657TIP3   OH210913   2.616   3.685   0.027
 3657TIP3    H110914   2.587   3.649   0.110
 3657TIP3    H210915   2.592   3.619  -0.038
 3658TIP3   OH210916   7.471   5.509   3.097
 3658TIP3    H110917   7.477   5.428   3.146
 3658TIP3    H210918   7.556   5.551   3.110
 3659TIP3   OH210919   0.882   0.958   2.162
 3659TIP3    H110920   0.938   0.889   2.128
 3659TIP3    H210921   0.928   0.990   2.240
 3660TIP3   OH210922   4.085   2.878   0.858
 3660TIP3    H110923   4.108   2.819   0.930
 3660TIP3    H210924   4.153   2.863   0.793
 3661TIP3   OH210925   6.365   7.100   6.414
 3661TIP3    H110926   6.292   7.104   6.476
 3661TIP3    H210927   6.419   7.027   6.444
 3662TIP3   OH210928   5.252   2.930   1.080
 3662TIP3    H110929   5.279   2.889   0.997
 3662TIP3    H210930   5.159   2.951   1.067
 3663TIP3   OH210931   4.137   3.044   5.110
 3663TIP3    H110932   4.125   3.020   5.018
 3663TIP3    H210933   4.134   2.961   5.158
 3664TIP3   OH210934   3.770   6.628   3.662
 3664TIP3    H110935   3.768   6.537   3.631
 3664TIP3    H210936   3.696   6.635   3.721
 3665TIP3   OH210937   6.132   2.512   4.094
 3665TIP3    H110938   6.069   2.549   4.156
 3665TIP3    H210939   6.118   2.418   4.099
 3666TIP3   OH210940   1.021   6.717   1.724
 3666TIP3    H110941   1.007   6.745   1.634
 3666TIP3    H210942   1.091   6.651   1.718
 3667TIP3   OH210943   4.458   6.795   1.524
 3667TIP3    H110944   4.421   6.775   1.611
 3667TIP3    H210945   4.421   6.880   1.502
 3668TIP3   OH210946   4.335   3.578   0.698
 3668TIP3    H110947   4.412   3.634   0.704
 3668TIP3    H210948   4.302   3.591   0.609
 3669TIP3   OH210949   4.712   2.820   3.478
 3669TIP3    H110950   4.623   2.811   3.511
 3669TIP3    H210951   4.742   2.731   3.464
 3670TIP3   OH210952   5.672   4.676   1.508
 3670TIP3    H110953   5.650   4.731   1.583
 3670TIP3    H210954   5.665   4.587   1.540
 3671TIP3   OH210955   7.619   4.914   1.217
 3671TIP3    H110956   7.615   4.930   1.123
 3671TIP3    H210957   7.710   4.893   1.235
 3672TIP3   OH210958   4.309   1.698   5.332
 3672TIP3    H110959   4.223   1.661   5.312
 3672TIP3    H210960   4.362   1.677   5.254
 3673TIP3   OH210961   4.426   2.207   4.046
 3673TIP3    H110962   4.353   2.152   4.076
 3673TIP3    H210963   4.503   2.170   4.089
 3674TIP3   OH210964   2.495   2.596   2.660
 3674TIP3    H110965   2.543   2.516   2.678
 3674TIP3    H210966   2.440   2.609   2.738
 3675TIP3   OH210967   4.193   4.356   5.109
 3675TIP3    H110968   4.276   4.396   5.083
 3675TIP3    H210969   4.171   4.296   5.038
 3676TIP3   OH210970   3.003   0.164   6.681
 3676TIP3    H110971   2.977   0.082   6.722
 3676TIP3    H210972   3.091   0.182   6.716
 3677TIP3   OH210973   7.989   6.582   4.621
 3677TIP3    H110974   7.920   6.556   4.560
 3677TIP3    H210975   7.980   6.521   4.695
 3678TIP3   OH210976   0.237   3.396   4.314
 3678TIP3    H110977   0.215   3.478   4.359
 3678TIP3    H210978   0.320   3.370   4.352
 3679TIP3   OH210979   7.258   0.516   2.473
 3679TIP3    H110980   7.173   0.472   2.481
 3679TIP3    H210981   7.305   0.491   2.553
 3680TIP3   OH210982   3.317   2.016   5.021
 3680TIP3    H110983   3.226   2.040   5.040
 3680TIP3    H210984   3.353   2.091   4.974
 3681TIP3   OH210985   0.807   0.965   1.268
 3681TIP3    H110986   0.773   0.890   1.317
 3681TIP3    H210987   0.750   1.038   1.293
 3682TIP3   OH210988   0.239   1.892   2.961
 3682TIP3    H110989   0.308   1.835   2.994
 3682TIP3    H210990   0.229   1.869   2.869
 3683TIP3   OH210991   5.108   1.227   4.827
 3683TIP3    H110992   5.033   1.225   4.767
 3683TIP3    H210993   5.135   1.136   4.836
 3684TIP3   OH210994   0.150   7.211   1.629
 3684TIP3    H110995   0.084   7.279   1.630
 3684TIP3    H210996   0.113   7.140   1.681
 3685TIP3   OH210997   7.926   7.510   1.125
 3685TIP3    H110998   7.899   7.428   1.166
 3685TIP3    H210999   8.021   7.512   1.137
 3686TIP3   OH211000   3.852   1.860   4.820
 3686TIP3    H111001   3.823   1.773   4.795
 3686TIP3    H211002   3.869   1.854   4.914
 3687TIP3   OH211003   3.059   3.034   5.953
 3687TIP3    H111004   3.073   3.033   6.048
 3687TIP3    H211005   3.066   3.127   5.929
 3688TIP3   OH211006   3.463   6.195   1.259
 3688TIP3    H111007   3.548   6.150   1.254
 3688TIP3    H211008   3.485   6.283   1.292
 3689TIP3   OH211009   4.446   6.049   2.219
 3689TIP3    H111010   4.535   6.025   2.247
 3689TIP3    H211011   4.458   6.132   2.172
 3690TIP3   OH211012   1.520   1.416   6.258
 3690TIP3    H111013   1.530   1.322   6.246
 3690TIP3    H211014   1.590   1.455   6.205
 3691TIP3   OH211015   0.039   1.291   4.180
 3691TIP3    H111016   0.121   1.289   4.229
 3691TIP3    H211017   0.049   1.364   4.119
 3692TIP3   OH211018   2.804   3.579   3.571
 3692TIP3    H111019   2.746   3.648   3.604
 3692TIP3    H211020   2.862   3.559   3.645
 3693TIP3   OH211021   8.147   3.343   1.539
 3693TIP3    H111022   8.228   3.393   1.548
 3693TIP3    H211023   8.106   3.348   1.625
 3694TIP3   OH211024   5.661   0.856   3.008
 3694TIP3    H111025   5.742   0.885   3.049
 3694TIP3    H211026   5.625   0.792   3.069
 3695TIP3   OH211027   7.518   7.185   4.217
 3695TIP3    H111028   7.447   7.212   4.274
 3695TIP3    H211029   7.533   7.093   4.240
 3696TIP3   OH211030   4.562   5.862   4.968
 3696TIP3    H111031   4.527   5.936   4.920
 3696TIP3    H211032   4.534   5.877   5.059
 3697TIP3   OH211033   4.207   5.131   2.912
 3697TIP3    H111034   4.232   5.041   2.933
 3697TIP3    H211035   4.137   5.151   2.973
 3698TIP3   OH211036   5.899   3.200   3.325
 3698TIP3    H111037   5.832   3.193   3.393
 3698TIP3    H211038   5.890   3.119   3.275
 3699TIP3   OH211039   3.447   4.160   0.975
 3699TIP3    H111040   3.429   4.066   0.982
 3699TIP3    H211041   3.362   4.202   0.990
 3700TIP3   OH211042   7.607   5.882   4.515
 3700TIP3    H111043   7.696   5.918   4.510
 3700TIP3    H211044   7.604   5.817   4.444
 3701TIP3   OH211045   8.304   4.388   5.805
 3701TIP3    H111046   8.291   4.393   5.900
 3701TIP3    H211047   8.227   4.340   5.773
 3702TIP3   OH211048   1.890   4.142   5.552
 3702TIP3    H111049   1.929   4.145   5.639
 3702TIP3    H211050   1.892   4.049   5.528
 3703TIP3   OH211051   6.870   0.927   5.917
 3703TIP3    H111052   6.829   0.913   5.832
 3703TIP3    H211053   6.939   0.862   5.922
 3704TIP3   OH211054   4.275   7.324   2.087
 3704TIP3    H111055   4.284   7.338   1.993
 3704TIP3    H211056   4.283   7.229   2.098
 3705TIP3   OH211057   6.317   3.940   1.608
 3705TIP3    H111058   6.328   3.861   1.662
 3705TIP3    H211059   6.261   3.997   1.661
 3706TIP3   OH211060   0.892   4.127   3.737
 3706TIP3    H111061   0.818   4.143   3.678
 3706TIP3    H211062   0.876   4.185   3.812
 3707TIP3   OH211063   6.223   4.252   5.729
 3707TIP3    H111064   6.213   4.218   5.640
 3707TIP3    H211065   6.146   4.307   5.742
 3708TIP3   OH211066   6.689   1.178   2.721
 3708TIP3    H111067   6.691   1.103   2.662
 3708TIP3    H211068   6.610   1.164   2.774
 3709TIP3   OH211069   6.393   6.860   3.899
 3709TIP3    H111070   6.480   6.874   3.862
 3709TIP3    H211071   6.410   6.832   3.989
 3710TIP3   OH211072   7.598   7.658   6.034
 3710TIP3    H111073   7.566   7.745   6.057
 3710TIP3    H211074   7.667   7.673   5.971
 3711TIP3   OH211075   6.361   1.278   4.939
 3711TIP3    H111076   6.412   1.354   4.968
 3711TIP3    H211077   6.289   1.272   5.002
 3712TIP3   OH211078   6.786   2.356   4.730
 3712TIP3    H111079   6.848   2.302   4.780
 3712TIP3    H211080   6.725   2.293   4.691
 3713TIP3   OH211081   7.304   0.474   4.145
 3713TIP3    H111082   7.323   0.540   4.079
 3713TIP3    H211083   7.213   0.450   4.130
 3714TIP3   OH211084   0.562   2.918   4.568
 3714TIP3    H111085   0.595   2.864   4.496
 3714TIP3    H211086   0.533   2.999   4.526
 3715TIP3   OH211087   4.954   4.000   0.708
 3715TIP3    H111088   4.870   4.003   0.661
 3715TIP3    H211089   5.020   4.008   0.638
 3716TIP3   OH211090   6.482   1.919   6.673
 3716TIP3    H111091   6.508   1.837   6.714
 3716TIP3    H211092   6.440   1.969   6.743
 3717TIP3   OH211093   8.297   2.987   0.773
 3717TIP3    H111094   8.284   2.924   0.701
 3717TIP3    H211095   8.357   2.943   0.833
 3718TIP3   OH211096   0.662   7.332   5.598
 3718TIP3    H111097   0.722   7.406   5.605
 3718TIP3    H211098   0.710   7.267   5.546
 3719TIP3   OH211099   0.634   4.965   0.795
 3719TIP3    H111100   0.685   5.026   0.847
 3719TIP3    H211101   0.688   4.948   0.717
 3720TIP3   OH211102   4.456   7.123   4.851
 3720TIP3    H111103   4.462   7.102   4.944
 3720TIP3    H211104   4.411   7.048   4.812
 3721TIP3   OH211105   8.274   3.890   1.182
 3721TIP3    H111106   8.188   3.899   1.223
 3721TIP3    H211107   8.255   3.862   1.093
 3722TIP3   OH211108   2.468   7.557   3.945
 3722TIP3    H111109   2.543   7.578   4.001
 3722TIP3    H211110   2.479   7.613   3.868
 3723TIP3   OH211111   2.693   0.944   1.642
 3723TIP3    H111112   2.695   0.888   1.720
 3723TIP3    H211113   2.724   0.888   1.572
 3724TIP3   OH211114   8.099   1.167   4.484
 3724TIP3    H111115   8.100   1.125   4.398
 3724TIP3    H211116   8.021   1.132   4.527
 3725TIP3   OH211117   4.200   5.919   0.820
 3725TIP3    H111118   4.192   5.905   0.915
 3725TIP3    H211119   4.274   5.864   0.795
 3726TIP3   OH211120   2.668   5.436   2.242
 3726TIP3    H111121   2.637   5.346   2.255
 3726TIP3    H211122   2.682   5.442   2.147
 3727TIP3   OH211123   6.000   0.197   5.356
 3727TIP3    H111124   5.917   0.180   5.311
 3727TIP3    H211125   6.067   0.179   5.291
 3728TIP3   OH211126   0.584   3.234   6.423
 3728TIP3    H111127   0.545   3.199   6.504
 3728TIP3    H211128   0.509   3.256   6.368
 3729TIP3   OH211129   4.090   6.556   5.902
 3729TIP3    H111130   4.105   6.632   5.959
 3729TIP3    H211131   4.105   6.589   5.814
 3730TIP3   OH211132   2.669   3.623   5.989
 3730TIP3    H111133   2.678   3.704   6.040
 3730TIP3    H211134   2.758   3.588   5.984
 3731TIP3   OH211135   0.544   1.697   4.639
 3731TIP3    H111136   0.546   1.771   4.579
 3731TIP3    H211137   0.465   1.711   4.691
 3732TIP3   OH211138   0.097   7.594   1.388
 3732TIP3    H111139   0.031   7.605   1.457
 3732TIP3    H211140   0.159   7.530   1.424
 3733TIP3   OH211141   5.226   6.198   3.307
 3733TIP3    H111142   5.294   6.144   3.267
 3733TIP3    H211143   5.159   6.207   3.240
 3734TIP3   OH211144   5.118   1.738   2.368
 3734TIP3    H111145   5.072   1.774   2.443
 3734TIP3    H211146   5.112   1.806   2.301
 3735TIP3   OH211147   1.873   1.548   4.714
 3735TIP3    H111148   1.850   1.524   4.624
 3735TIP3    H211149   1.805   1.508   4.767
 3736TIP3   OH211150   1.760   4.331   6.559
 3736TIP3    H111151   1.690   4.363   6.503
 3736TIP3    H211152   1.739   4.364   6.647
 3737TIP3   OH211153   7.251   1.067   0.611
 3737TIP3    H111154   7.202   0.986   0.601
 3737TIP3    H211155   7.337   1.048   0.572
 3738TIP3   OH211156   1.450   7.070   2.572
 3738TIP3    H111157   1.408   7.156   2.566
 3738TIP3    H211158   1.397   7.014   2.515
 3739TIP3   OH211159   6.437   1.081   2.810
 3739TIP3    H111160   6.389   1.013   2.762
 3739TIP3    H211161   6.435   1.051   2.901
 3740TIP3   OH211162   3.544   1.791   1.607
 3740TIP3    H111163   3.578   1.785   1.517
 3740TIP3    H211164   3.451   1.772   1.598
 3741TIP3   OH211165   1.414   4.037   3.757
 3741TIP3    H111166   1.334   4.049   3.808
 3741TIP3    H211167   1.385   4.045   3.666
 3742TIP3   OH211168   0.933   4.606   1.301
 3742TIP3    H111169   0.884   4.658   1.237
 3742TIP3    H211170   1.011   4.579   1.253
 3743TIP3   OH211171   3.509   5.407   4.470
 3743TIP3    H111172   3.515   5.496   4.436
 3743TIP3    H211173   3.557   5.354   4.406
 3744TIP3   OH211174   4.592   5.546   2.448
 3744TIP3    H111175   4.569   5.546   2.541
 3744TIP3    H211176   4.508   5.548   2.402
 3745TIP3   OH211177   1.727   1.748   1.397
 3745TIP3    H111178   1.822   1.750   1.410
 3745TIP3    H211179   1.703   1.656   1.408
 3746TIP3   OH211180   1.464   0.262   1.411
 3746TIP3    H111181   1.422   0.284   1.494
 3746TIP3    H211182   1.491   0.171   1.421
 3747TIP3   OH211183   0.609   0.330   4.591
 3747TIP3    H111184   0.575   0.308   4.504
 3747TIP3    H211185   0.616   0.426   4.590
 3748TIP3   OH211186   7.544   7.672   1.950
 3748TIP3    H111187   7.488   7.602   1.917
 3748TIP3    H211188   7.489   7.750   1.946
 3749TIP3   OH211189   5.830   0.158   3.784
 3749TIP3    H111190   5.776   0.208   3.723
 3749TIP3    H211191   5.805   0.067   3.769
 3750TIP3   OH211192   1.621   2.910   5.775
 3750TIP3    H111193   1.686   2.879   5.839
 3750TIP3    H211194   1.537   2.897   5.818
 3751TIP3   OH211195   4.936   4.607   0.873
 3751TIP3    H111196   5.014   4.658   0.850
 3751TIP3    H211197   4.887   4.662   0.933
 3752TIP3   OH211198   6.926   5.043   3.024
 3752TIP3    H111199   6.936   4.969   3.084
 3752TIP3    H211200   6.909   5.118   3.082
 3753TIP3   OH211201   1.882   5.232   5.719
 3753TIP3    H111202   1.916   5.278   5.795
 3753TIP3    H211203   1.852   5.301   5.660
 3754TIP3   OH211204   0.080   4.658   4.317
 3754TIP3    H111205   0.162   4.682   4.274
 3754TIP3    H211206   0.104   4.638   4.407
 3755TIP3   OH211207   0.038   4.548   2.508
 3755TIP3    H111208   0.132   4.530   2.504
 3755TIP3    H211209   0.031   4.641   2.486
 3756TIP3   OH211210   1.710   2.340   3.390
 3756TIP3    H111211   1.723   2.401   3.318
 3756TIP3    H211212   1.617   2.316   3.385
 3757TIP3   OH211213   3.691   3.223   1.754
 3757TIP3    H111214   3.662   3.243   1.665
 3757TIP3    H211215   3.772   3.174   1.743
 3758TIP3   OH211216   5.389   6.178   4.435
 3758TIP3    H111217   5.483   6.196   4.433
 3758TIP3    H211218   5.348   6.262   4.414
 3759TIP3   OH211219   5.756   6.458   2.549
 3759TIP3    H111220   5.685   6.520   2.532
 3759TIP3    H211221   5.713   6.374   2.563
 3760TIP3   OH211222   2.320   1.678   1.441
 3760TIP3    H111223   2.343   1.718   1.525
 3760TIP3    H211224   2.289   1.590   1.464
 3761TIP3   OH211225   3.774   4.190   1.160
 3761TIP3    H111226   3.774   4.155   1.071
 3761TIP3    H211227   3.827   4.128   1.210
 3762TIP3   OH211228   2.585   3.715   4.829
 3762TIP3    H111229   2.570   3.641   4.769
 3762TIP3    H211230   2.574   3.792   4.774
 3763TIP3   OH211231   2.985   6.953   6.102
 3763TIP3    H111232   3.045   6.954   6.027
 3763TIP3    H211233   2.988   7.042   6.137
 3764TIP3   OH211234   1.156   5.602   2.535
 3764TIP3    H111235   1.102   5.667   2.491
 3764TIP3    H211236   1.096   5.529   2.553
 3765TIP3   OH211237   6.288   4.759   4.222
 3765TIP3    H111238   6.265   4.836   4.274
 3765TIP3    H211239   6.213   4.700   4.233
 3766TIP3   OH211240   3.865   6.176   5.196
 3766TIP3    H111241   3.845   6.246   5.259
 3766TIP3    H211242   3.875   6.222   5.112
 3767TIP3   OH211243   6.454   6.835   0.250
 3767TIP3    H111244   6.378   6.809   0.198
 3767TIP3    H211245   6.439   6.794   0.336
 3768TIP3   OH211246   6.652   7.551   1.132
 3768TIP3    H111247   6.574   7.522   1.084
 3768TIP3    H211248   6.693   7.470   1.163
 3769TIP3   OH211249   4.103   4.697   5.419
 3769TIP3    H111250   4.085   4.650   5.338
 3769TIP3    H211251   4.038   4.664   5.481
 3770TIP3   OH211252   6.130   3.014   6.675
 3770TIP3    H111253   6.140   2.957   6.598
 3770TIP3    H211254   6.068   2.969   6.731
 3771TIP3   OH211255   3.701   2.807   1.850
 3771TIP3    H111256   3.756   2.856   1.788
 3771TIP3    H211257   3.662   2.875   1.905
 3772TIP3   OH211258   3.405   1.462   5.439
 3772TIP3    H111259   3.352   1.540   5.454
 3772TIP3    H211260   3.358   1.414   5.370
 3773TIP3   OH211261   0.435   7.558   4.465
 3773TIP3    H111262   0.357   7.505   4.446
 3773TIP3    H211263   0.406   7.648   4.454
 3774TIP3   OH211264   1.416   6.112   0.892
 3774TIP3    H111265   1.359   6.185   0.866
 3774TIP3    H211266   1.504   6.150   0.893
 3775TIP3   OH211267   5.471   5.502   5.171
 3775TIP3    H111268   5.382   5.471   5.185
 3775TIP3    H211269   5.527   5.435   5.209
 3776TIP3   OH211270   2.811   0.453   1.497
 3776TIP3    H111271   2.844   0.430   1.584
 3776TIP3    H211272   2.876   0.514   1.462
 3777TIP3   OH211273   2.115   7.452   4.619
 3777TIP3    H111274   2.175   7.508   4.668
 3777TIP3    H211275   2.082   7.390   4.684
 3778TIP3   OH211276   2.226   4.433   4.664
 3778TIP3    H111277   2.299   4.464   4.718
 3778TIP3    H211278   2.154   4.423   4.726
 3779TIP3   OH211279   7.183   0.798   4.169
 3779TIP3    H111280   7.230   0.807   4.251
 3779TIP3    H211281   7.245   0.756   4.109
 3780TIP3   OH211282   6.420   6.309   2.842
 3780TIP3    H111283   6.331   6.293   2.874
 3780TIP3    H211284   6.421   6.403   2.821
 3781TIP3   OH211285   7.593   3.637   4.665
 3781TIP3    H111286   7.572   3.728   4.647
 3781TIP3    H211287   7.636   3.638   4.751
 3782TIP3   OH211288   8.282   6.624   6.227
 3782TIP3    H111289   8.211   6.571   6.191
 3782TIP3    H211290   8.342   6.637   6.153
 3783TIP3   OH211291   4.597   3.213   2.556
 3783TIP3    H111292   4.559   3.212   2.468
 3783TIP3    H211293   4.675   3.159   2.549
 3784TIP3   OH211294   6.155   6.891   1.976
 3784TIP3    H111295   6.114   6.867   2.059
 3784TIP3    H211296   6.239   6.845   1.976
 3785TIP3   OH211297   5.231   2.004   5.506
 3785TIP3    H111298   5.313   2.019   5.458
 3785TIP3    H211299   5.163   2.036   5.446
 3786TIP3   OH211300   7.106   4.134   0.090
 3786TIP3    H111301   7.052   4.212   0.081
 3786TIP3    H211302   7.069   4.071   0.028
 3787TIP3   OH211303   2.860   5.954   3.899
 3787TIP3    H111304   2.945   5.922   3.870
 3787TIP3    H211305   2.846   5.911   3.984
 3788TIP3   OH211306   0.682   0.182   2.493
 3788TIP3    H111307   0.605   0.128   2.512
 3788TIP3    H211308   0.649   0.272   2.494
 3789TIP3   OH211309   1.048   1.835   4.515
 3789TIP3    H111310   1.029   1.755   4.566
 3789TIP3    H211311   0.973   1.845   4.457
 3790TIP3   OH211312   7.760   3.512   1.562
 3790TIP3    H111313   7.716   3.427   1.566
 3790TIP3    H211314   7.735   3.548   1.476
 3791TIP3   OH211315   0.575   7.254   0.639
 3791TIP3    H111316   0.542   7.343   0.648
 3791TIP3    H211317   0.537   7.222   0.558
 3792TIP3   OH211318   0.157   4.555   4.925
 3792TIP3    H111319   0.190   4.499   4.855
 3792TIP3    H211320   0.178   4.508   5.006
 3793TIP3   OH211321   3.628   3.772   5.452
 3793TIP3    H111322   3.658   3.861   5.429
 3793TIP3    H211323   3.657   3.761   5.543
 3794TIP3   OH211324   1.068   5.212   6.345
 3794TIP3    H111325   0.999   5.271   6.375
 3794TIP3    H211326   1.052   5.130   6.391
 3795TIP3   OH211327   0.712   7.489   4.444
 3795TIP3    H111328   0.677   7.427   4.507
 3795TIP3    H211329   0.638   7.543   4.419
 3796TIP3   OH211330   6.111   5.747   1.640
 3796TIP3    H111331   6.159   5.676   1.597
 3796TIP3    H211332   6.151   5.754   1.727
 3797TIP3   OH211333   1.470   6.122   0.082
 3797TIP3    H111334   1.510   6.038   0.060
 3797TIP3    H211335   1.539   6.171   0.127
 3798TIP3   OH211336   7.407   1.373   6.248
 3798TIP3    H111337   7.371   1.338   6.329
 3798TIP3    H211338   7.355   1.451   6.230
 3799TIP3   OH211339   7.170   4.026   1.506
 3799TIP3    H111340   7.216   3.954   1.462
 3799TIP3    H211341   7.078   4.012   1.487
 3800TIP3   OH211342   0.419   4.306   0.200
 3800TIP3    H111343   0.371   4.280   0.278
 3800TIP3    H211344   0.354   4.349   0.145
 3801TIP3   OH211345   4.106   2.647   4.466
 3801TIP3    H111346   4.164   2.660   4.392
 3801TIP3    H211347   4.084   2.735   4.496
 3802TIP3   OH211348   4.289   2.798   0.634
 3802TIP3    H111349   4.319   2.829   0.549
 3802TIP3    H211350   4.246   2.714   0.616
 3803TIP3   OH211351   0.595   7.347   0.964
 3803TIP3    H111352   0.617   7.440   0.953
 3803TIP3    H211353   0.599   7.310   0.876
 3804TIP3   OH211354   1.175   7.671   0.494
 3804TIP3    H111355   1.165   7.627   0.410
 3804TIP3    H211356   1.087   7.702   0.517
 3805TIP3   OH211357   6.538   7.225   2.541
 3805TIP3    H111358   6.462   7.246   2.595
 3805TIP3    H211359   6.614   7.250   2.594
 3806TIP3   OH211360   6.983   0.919   4.558
 3806TIP3    H111361   6.908   0.944   4.504
 3806TIP3    H211362   6.947   0.906   4.645
 3807TIP3   OH211363   3.216   4.812   3.293
 3807TIP3    H111364   3.125   4.831   3.316
 3807TIP3    H211365   3.248   4.758   3.365
 3808TIP3   OH211366   7.585   4.598   0.388
 3808TIP3    H111367   7.607   4.692   0.392
 3808TIP3    H211368   7.647   4.561   0.326
 3809TIP3   OH211369   0.590   1.949   4.491
 3809TIP3    H111370   0.591   2.044   4.479
 3809TIP3    H211371   0.532   1.917   4.422
 3810TIP3   OH211372   2.084   7.419   0.216
 3810TIP3    H111373   2.154   7.484   0.221
 3810TIP3    H211374   2.069   7.407   0.122
 3811TIP3   OH211375   4.830   3.072   3.403
 3811TIP3    H111376   4.800   2.997   3.455
 3811TIP3    H211377   4.880   3.033   3.331
 3812TIP3   OH211378   2.481   2.175   3.085
 3812TIP3    H111379   2.412   2.109   3.089
 3812TIP3    H211380   2.562   2.124   3.081
 3813TIP3   OH211381   3.661   5.104   0.287
 3813TIP3    H111382   3.748   5.085   0.252
 3813TIP3    H211383   3.649   5.039   0.356
 3814TIP3   OH211384   4.089   0.103   5.355
 3814TIP3    H111385   3.999   0.071   5.342
 3814TIP3    H211386   4.078   0.194   5.381
 3815TIP3   OH211387   0.416   7.475   3.508
 3815TIP3    H111388   0.498   7.521   3.526
 3815TIP3    H211389   0.415   7.463   3.413
 3816TIP3   OH211390   2.451   7.294   1.309
 3816TIP3    H111391   2.382   7.340   1.357
 3816TIP3    H211392   2.493   7.239   1.375
 3817TIP3   OH211393   1.312   0.794   6.744
 3817TIP3    H111394   1.339   0.805   6.835
 3817TIP3    H211395   1.228   0.747   6.750
 3818TIP3   OH211396   7.532   3.999   2.898
 3818TIP3    H111397   7.595   4.026   2.831
 3818TIP3    H211398   7.489   4.080   2.924
 3819TIP3   OH211399   2.099   6.866   3.065
 3819TIP3    H111400   2.092   6.837   2.973
 3819TIP3    H211401   2.153   6.799   3.106
 3820TIP3   OH211402   0.078   4.666   4.603
 3820TIP3    H111403   0.037   4.702   4.682
 3820TIP3    H211404   0.168   4.698   4.606
 3821TIP3   OH211405   6.678   1.728   3.565
 3821TIP3    H111406   6.750   1.726   3.629
 3821TIP3    H211407   6.671   1.820   3.540
 3822TIP3   OH211408   3.767   2.517   1.194
 3822TIP3    H111409   3.786   2.599   1.238
 3822TIP3    H211410   3.733   2.460   1.263
 3823TIP3   OH211411   2.956   3.495   3.762
 3823TIP3    H111412   2.991   3.429   3.822
 3823TIP3    H211413   3.020   3.566   3.763
 3824TIP3   OH211414   3.133   5.806   2.096
 3824TIP3    H111415   3.139   5.887   2.146
 3824TIP3    H211416   3.222   5.772   2.093
 3825TIP3   OH211417   7.950  -0.032   0.253
 3825TIP3    H111418   8.025  -0.066   0.204
 3825TIP3    H211419   7.976   0.057   0.277
 3826TIP3   OH211420   2.818   2.150   1.423
 3826TIP3    H111421   2.732   2.165   1.464
 3826TIP3    H211422   2.806   2.176   1.332
 3827TIP3   OH211423   6.350   6.556   5.966
 3827TIP3    H111424   6.280   6.616   5.991
 3827TIP3    H211425   6.410   6.557   6.041
 3828TIP3   OH211426   5.392   7.623   6.149
 3828TIP3    H111427   5.318   7.571   6.118
 3828TIP3    H211428   5.467   7.564   6.143
 3829TIP3   OH211429   5.772   1.586   4.222
 3829TIP3    H111430   5.742   1.496   4.208
 3829TIP3    H211431   5.867   1.580   4.213
 3830TIP3   OH211432   4.718   3.612   2.591
 3830TIP3    H111433   4.708   3.517   2.604
 3830TIP3    H211434   4.739   3.645   2.678
 3831TIP3   OH211435   7.245   7.264   4.869
 3831TIP3    H111436   7.236   7.275   4.964
 3831TIP3    H211437   7.305   7.335   4.843
 3832TIP3   OH211438   2.820   5.505   6.634
 3832TIP3    H111439   2.886   5.558   6.590
 3832TIP3    H211440   2.759   5.569   6.672
 3833TIP3   OH211441   5.621   6.230   2.624
 3833TIP3    H111442   5.596   6.153   2.675
 3833TIP3    H211443   5.609   6.204   2.533
 3834TIP3   OH211444   5.010   2.258   6.800
 3834TIP3    H111445   5.017   2.181   6.744
 3834TIP3    H211446   4.924   2.249   6.842
 3835TIP3   OH211447   8.104   2.198   2.782
 3835TIP3    H111448   8.153   2.178   2.862
 3835TIP3    H211449   8.017   2.223   2.812
 3836TIP3   OH211450   3.712   5.867   6.011
 3836TIP3    H111451   3.681   5.777   6.001
 3836TIP3    H211452   3.633   5.921   6.006
 3837TIP3   OH211453   1.807   5.066   6.182
 3837TIP3    H111454   1.769   5.034   6.264
 3837TIP3    H211455   1.871   4.999   6.158
 3838TIP3   OH211456   1.879   2.470   2.174
 3838TIP3    H111457   1.866   2.398   2.237
 3838TIP3    H211458   1.839   2.438   2.093
 3839TIP3   OH211459   2.699   4.258   2.495
 3839TIP3    H111460   2.752   4.338   2.488
 3839TIP3    H211461   2.705   4.218   2.408
 3840TIP3   OH211462   5.770   7.644   6.092
 3840TIP3    H111463   5.832   7.580   6.057
 3840TIP3    H211464   5.763   7.711   6.023
 3841TIP3   OH211465   0.826   7.173   0.235
 3841TIP3    H111466   0.776   7.114   0.291
 3841TIP3    H211467   0.768   7.193   0.162
 3842TIP3   OH211468   3.474   6.528   3.737
 3842TIP3    H111469   3.482   6.460   3.670
 3842TIP3    H211470   3.405   6.496   3.796
 3843TIP3   OH211471   7.375   3.824   2.442
 3843TIP3    H111472   7.292   3.857   2.406
 3843TIP3    H211473   7.433   3.900   2.443
 3844TIP3   OH211474   4.798   2.066   5.226
 3844TIP3    H111475   4.815   1.983   5.182
 3844TIP3    H211476   4.793   2.043   5.319
 3845TIP3   OH211477   6.641   0.953   2.552
 3845TIP3    H111478   6.670   1.004   2.476
 3845TIP3    H211479   6.601   0.874   2.514
 3846TIP3   OH211480   2.101   6.824   2.781
 3846TIP3    H111481   2.157   6.749   2.761
 3846TIP3    H211482   2.077   6.861   2.696
 3847TIP3   OH211483   5.290   0.578   1.321
 3847TIP3    H111484   5.225   0.541   1.379
 3847TIP3    H211485   5.278   0.673   1.329
 3848TIP3   OH211486   3.897   2.417   0.960
 3848TIP3    H111487   3.906   2.334   1.006
 3848TIP3    H211488   3.855   2.475   1.024
 3849TIP3   OH211489   7.603   7.357   6.477
 3849TIP3    H111490   7.522   7.405   6.492
 3849TIP3    H211491   7.610   7.352   6.382
 3850TIP3   OH211492   6.927   0.595   2.050
 3850TIP3    H111493   6.924   0.655   2.125
 3850TIP3    H211494   6.866   0.525   2.073
 3851TIP3   OH211495   3.328   1.698   5.570
 3851TIP3    H111496   3.253   1.758   5.573
 3851TIP3    H211497   3.343   1.673   5.661
 3852TIP3   OH211498   2.621   5.147   1.205
 3852TIP3    H111499   2.646   5.070   1.153
 3852TIP3    H211500   2.538   5.176   1.168
 3853TIP3   OH211501   0.634   3.685   2.368
 3853TIP3    H111502   0.673   3.697   2.455
 3853TIP3    H211503   0.543   3.714   2.378
 3854TIP3   OH211504   1.170   0.734   4.773
 3854TIP3    H111505   1.205   0.737   4.684
 3854TIP3    H211506   1.246   0.749   4.829
 3855TIP3   OH211507   1.343   2.744   4.170
 3855TIP3    H111508   1.248   2.750   4.157
 3855TIP3    H211509   1.354   2.747   4.265
 3856TIP3   OH211510   1.466   6.626   5.423
 3856TIP3    H111511   1.388   6.572   5.430
 3856TIP3    H211512   1.449   6.685   5.349
 3857TIP3   OH211513   5.556   3.763   1.956
 3857TIP3    H111514   5.529   3.827   2.022
 3857TIP3    H211515   5.512   3.792   1.875
 3858TIP3   OH211516   0.586   0.832   1.054
 3858TIP3    H111517   0.626   0.905   1.100
 3858TIP3    H211518   0.660   0.779   1.024
 3859TIP3   OH211519   1.605   3.424   4.304
 3859TIP3    H111520   1.660   3.473   4.365
 3859TIP3    H211521   1.590   3.340   4.348
 3860TIP3   OH211522   1.541   2.357   6.096
 3860TIP3    H111523   1.495   2.380   6.177
 3860TIP3    H211524   1.501   2.275   6.068
 3861TIP3   OH211525   1.611   3.016   1.265
 3861TIP3    H111526   1.557   3.081   1.309
 3861TIP3    H211527   1.669   3.067   1.208
 3862TIP3   OH211528   2.931   4.574   3.224
 3862TIP3    H111529   2.965   4.573   3.313
 3862TIP3    H211530   3.005   4.545   3.170
 3863TIP3   OH211531   4.075   4.592   2.719
 3863TIP3    H111532   4.155   4.558   2.761
 3863TIP3    H211533   4.039   4.653   2.782
 3864TIP3   OH211534   6.233   1.488   2.354
 3864TIP3    H111535   6.223   1.406   2.305
 3864TIP3    H211536   6.146   1.509   2.385
 3865TIP3   OH211537   3.190   5.121   0.973
 3865TIP3    H111538   3.237   5.203   0.982
 3865TIP3    H211539   3.132   5.134   0.898
 3866TIP3   OH211540   4.849   4.692   2.916
 3866TIP3    H111541   4.788   4.756   2.954
 3866TIP3    H211542   4.794   4.638   2.860
 3867TIP3   OH211543   0.735   2.635   0.841
 3867TIP3    H111544   0.706   2.550   0.809
 3867TIP3    H211545   0.706   2.697   0.774
 3868TIP3   OH211546   7.661   2.631   6.100
 3868TIP3    H111547   7.663   2.667   6.188
 3868TIP3    H211548   7.573   2.651   6.068
 3869TIP3   OH211549   0.508   1.131   3.926
 3869TIP3    H111550   0.466   1.146   4.011
 3869TIP3    H211551   0.555   1.048   3.937
 3870TIP3   OH211552   3.417   4.708   6.077
 3870TIP3    H111553   3.325   4.700   6.104
 3870TIP3    H211554   3.453   4.620   6.086
 3871TIP3   OH211555   5.050   5.231   5.661
 3871TIP3    H111556   5.144   5.218   5.673
 3871TIP3    H211557   5.009   5.190   5.736
 3872TIP3   OH211558   0.595   6.274   5.012
 3872TIP3    H111559   0.657   6.286   5.085
 3872TIP3    H211560   0.651   6.267   4.935
 3873TIP3   OH211561   0.094   1.559   4.840
 3873TIP3    H111562   0.006   1.590   4.859
 3873TIP3    H211563   0.091   1.536   4.747
 3874TIP3   OH211564   6.414   0.879   4.095
 3874TIP3    H111565   6.376   0.894   4.182
 3874TIP3    H211566   6.505   0.854   4.113
 3875TIP3   OH211567   5.643   7.550   5.077
 3875TIP3    H111568   5.649   7.576   4.985
 3875TIP3    H211569   5.722   7.585   5.117
 3876TIP3   OH211570   7.085   5.538   3.114
 3876TIP3    H111571   7.051   5.595   3.045
 3876TIP3    H211572   7.126   5.598   3.177
 3877TIP3   OH211573   6.235   2.501   0.348
 3877TIP3    H111574   6.288   2.574   0.317
 3877TIP3    H211575   6.172   2.485   0.277
 3878TIP3   OH211576   0.923   6.182   2.415
 3878TIP3    H111577   0.953   6.189   2.506
 3878TIP3    H211578   0.942   6.092   2.390
 3879TIP3   OH211579   4.774   1.131   6.463
 3879TIP3    H111580   4.862   1.099   6.445
 3879TIP3    H211581   4.753   1.185   6.386
 3880TIP3   OH211582   3.580   0.708   2.108
 3880TIP3    H111583   3.615   0.628   2.071
 3880TIP3    H211584   3.541   0.755   2.034
 3881TIP3   OH211585   4.185   5.314   4.181
 3881TIP3    H111586   4.262   5.303   4.125
 3881TIP3    H211587   4.136   5.385   4.141
 3882TIP3   OH211588   0.120   7.561   5.058
 3882TIP3    H111589   0.125   7.640   5.004
 3882TIP3    H211590   0.026   7.549   5.074
 3883TIP3   OH211591   3.308   1.328   1.230
 3883TIP3    H111592   3.213   1.319   1.239
 3883TIP3    H211593   3.330   1.275   1.154
 3884TIP3   OH211594   6.109   2.322   2.444
 3884TIP3    H111595   6.110   2.405   2.491
 3884TIP3    H211596   6.201   2.297   2.437
 3885TIP3   OH211597   2.304   2.906   3.246
 3885TIP3    H111598   2.236   2.841   3.227
 3885TIP3    H211599   2.259   2.991   3.239
 3886TIP3   OH211600   4.137   7.165   5.236
 3886TIP3    H111601   4.185   7.233   5.189
 3886TIP3    H211602   4.150   7.086   5.184
 3887TIP3   OH211603   6.941   3.398   4.633
 3887TIP3    H111604   6.889   3.360   4.562
 3887TIP3    H211605   6.885   3.467   4.669
 3888TIP3   OH211606   7.725   1.706   0.010
 3888TIP3    H111607   7.663   1.707  -0.063
 3888TIP3    H211608   7.782   1.782  -0.007
 3889TIP3   OH211609   3.457   3.032   1.736
 3889TIP3    H111610   3.488   3.122   1.729
 3889TIP3    H211611   3.459   2.998   1.646
 3890TIP3   OH211612   2.744   4.267   5.327
 3890TIP3    H111613   2.657   4.294   5.356
 3890TIP3    H211614   2.794   4.256   5.408
 3891TIP3   OH211615   2.978   6.473   5.142
 3891TIP3    H111616   2.906   6.436   5.092
 3891TIP3    H211617   3.023   6.531   5.081
 3892TIP3   OH211618   5.699   0.189   5.176
 3892TIP3    H111619   5.770   0.246   5.146
 3892TIP3    H211620   5.625   0.249   5.190
 3893TIP3   OH211621   3.850   2.353   2.088
 3893TIP3    H111622   3.795   2.319   2.158
 3893TIP3    H211623   3.808   2.435   2.061
 3894TIP3   OH211624   6.769   3.281   0.272
 3894TIP3    H111625   6.854   3.302   0.234
 3894TIP3    H211626   6.720   3.240   0.201
 3895TIP3   OH211627   3.229   7.578   1.638
 3895TIP3    H111628   3.300   7.633   1.606
 3895TIP3    H211629   3.229   7.590   1.732
 3896TIP3   OH211630   2.945   2.517   0.414
 3896TIP3    H111631   2.957   2.453   0.484
 3896TIP3    H211632   2.911   2.465   0.341
 3897TIP3   OH211633   1.531   3.500   4.028
 3897TIP3    H111634   1.569   3.438   4.090
 3897TIP3    H211635   1.591   3.574   4.029
 3898TIP3   OH211636   3.627   7.449   2.270
 3898TIP3    H111637   3.604   7.502   2.347
 3898TIP3    H211638   3.672   7.373   2.306
 3899TIP3   OH211639   4.630   6.912   0.295
 3899TIP3    H111640   4.723   6.896   0.312
 3899TIP3    H211641   4.629   6.981   0.229
 3900TIP3   OH211642   5.877   6.203   0.748
 3900TIP3    H111643   5.969   6.225   0.760
 3900TIP3    H211644   5.857   6.141   0.818
 3901TIP3   OH211645   2.945   5.407   5.254
 3901TIP3    H111646   3.013   5.410   5.186
 3901TIP3    H211647   2.925   5.314   5.263
 3902TIP3   OH211648   5.234   7.382   3.408
 3902TIP3    H111649   5.160   7.424   3.452
 3902TIP3    H211650   5.219   7.288   3.422
 3903TIP3   OH211651   3.349   0.027   3.996
 3903TIP3    H111652   3.370   0.119   3.977
 3903TIP3    H211653   3.434  -0.014   4.009
 3904TIP3   OH211654   0.322   7.278   1.092
 3904TIP3    H111655   0.393   7.299   1.031
 3904TIP3    H211656   0.249   7.333   1.063
 3905TIP3   OH211657   7.479   6.188   4.870
 3905TIP3    H111658   7.524   6.272   4.876
 3905TIP3    H211659   7.445   6.172   4.958
 3906TIP3   OH211660   1.309   6.893   5.574
 3906TIP3    H111661   1.350   6.974   5.544
 3906TIP3    H211662   1.359   6.867   5.651
 3907TIP3   OH211663   4.528   0.269   3.946
 3907TIP3    H111664   4.459   0.219   3.990
 3907TIP3    H211665   4.604   0.260   4.003
 3908TIP3   OH211666   6.743   0.760   2.343
 3908TIP3    H111667   6.660   0.759   2.296
 3908TIP3    H211668   6.752   0.672   2.380
 3909TIP3   OH211669   4.339   0.275   6.088
 3909TIP3    H111670   4.399   0.239   6.153
 3909TIP3    H211671   4.285   0.337   6.137
 3910TIP3   OH211672   0.041   6.279   3.496
 3910TIP3    H111673   0.127   6.312   3.523
 3910TIP3    H211674  -0.009   6.272   3.578
 3911TIP3   OH211675   7.377   5.914   1.946
 3911TIP3    H111676   7.353   5.825   1.973
 3911TIP3    H211677   7.380   5.910   1.851
 3912TIP3   OH211678   2.360   6.785   1.105
 3912TIP3    H111679   2.282   6.761   1.156
 3912TIP3    H211680   2.406   6.848   1.161
 3913TIP3   OH211681   4.286   7.219   0.579
 3913TIP3    H111682   4.225   7.291   0.565
 3913TIP3    H211683   4.266   7.187   0.667
 3914TIP3   OH211684   0.654   0.743   1.764
 3914TIP3    H111685   0.667   0.708   1.852
 3914TIP3    H211686   0.729   0.800   1.749
 3915TIP3   OH211687   4.326   1.512   0.672
 3915TIP3    H111688   4.379   1.450   0.622
 3915TIP3    H211689   4.297   1.462   0.748
 3916TIP3   OH211690   7.143   5.388   6.373
 3916TIP3    H111691   7.059   5.424   6.343
 3916TIP3    H211692   7.198   5.388   6.294
 3917TIP3   OH211693   0.104   1.426   2.807
 3917TIP3    H111694   0.105   1.488   2.880
 3917TIP3    H211695   0.102   1.481   2.728
 3918TIP3   OH211696   7.361   0.035   6.730
 3918TIP3    H111697   7.320   0.104   6.678
 3918TIP3    H211698   7.433   0.003   6.675
 3919TIP3   OH211699   6.798   1.976   4.664
 3919TIP3    H111700   6.718   2.029   4.663
 3919TIP3    H211701   6.829   1.979   4.573
 3920TIP3   OH211702   2.225   2.867   6.560
 3920TIP3    H111703   2.222   2.890   6.467
 3920TIP3    H211704   2.287   2.929   6.598
 3921TIP3   OH211705   0.545   3.547   6.327
 3921TIP3    H111706   0.570   3.598   6.405
 3921TIP3    H211707   0.481   3.483   6.359
 3922TIP3   OH211708   7.488   7.263   0.793
 3922TIP3    H111709   7.518   7.325   0.859
 3922TIP3    H211710   7.405   7.300   0.762
 3923TIP3   OH211711   2.455   6.292   2.035
 3923TIP3    H111712   2.487   6.264   1.950
 3923TIP3    H211713   2.366   6.257   2.040
 3924TIP3   OH211714   2.264   7.417   1.477
 3924TIP3    H111715   2.177   7.425   1.515
 3924TIP3    H211716   2.323   7.449   1.545
 3925TIP3   OH211717   6.409   0.138   6.297
 3925TIP3    H111718   6.377   0.200   6.231
 3925TIP3    H211719   6.365   0.165   6.378
 3926TIP3   OH211720   2.105   5.010   5.115
 3926TIP3    H111721   2.184   4.967   5.082
 3926TIP3    H211722   2.081   5.072   5.046
 3927TIP3   OH211723  -0.033   6.273   6.455
 3927TIP3    H111724  -0.078   6.221   6.521
 3927TIP3    H211725  -0.075   6.359   6.459
 3928TIP3   OH211726   6.065   0.775   3.020
 3928TIP3    H111727   6.073   0.871   3.015
 3928TIP3    H211728   6.132   0.748   3.083
 3929TIP3   OH211729   7.834   5.807   6.341
 3929TIP3    H111730   7.819   5.814   6.247
 3929TIP3    H211731   7.759   5.852   6.381
 3930TIP3   OH211732   1.934   2.264   6.085
 3930TIP3    H111733   2.016   2.235   6.046
 3930TIP3    H211734   1.896   2.184   6.123
 3931TIP3   OH211735   5.970   0.808   2.093
 3931TIP3    H111736   5.977   0.902   2.110
 3931TIP3    H211737   5.917   0.774   2.165
 3932TIP3   OH211738   3.303   1.887   0.106
 3932TIP3    H111739   3.214   1.918   0.091
 3932TIP3    H211740   3.314   1.891   0.201
 3933TIP3   OH211741   1.394   3.864   2.367
 3933TIP3    H111742   1.466   3.853   2.429
 3933TIP3    H211743   1.366   3.955   2.378
 3934TIP3   OH211744   4.928   6.750   5.027
 3934TIP3    H111745   4.984   6.826   5.038
 3934TIP3    H211746   4.986   6.675   5.042
 3935TIP3   OH211747   2.302   5.527   0.628
 3935TIP3    H111748   2.342   5.612   0.612
 3935TIP3    H211749   2.231   5.521   0.565
 3936TIP3   OH211750   1.151   5.248   5.412
 3936TIP3    H111751   1.119   5.265   5.323
 3936TIP3    H211752   1.185   5.333   5.441
 3937TIP3   OH211753   7.035   3.255   2.157
 3937TIP3    H111754   7.000   3.344   2.159
 3937TIP3    H211755   7.035   3.231   2.064
 3938TIP3   OH211756   7.479   6.558   0.685
 3938TIP3    H111757   7.552   6.496   0.675
 3938TIP3    H211758   7.521   6.640   0.711
 3939TIP3   OH211759   5.891   3.504   4.053
 3939TIP3    H111760   5.895   3.589   4.097
 3939TIP3    H211761   5.840   3.449   4.112
 3940TIP3   OH211762   1.043   4.979   6.526
 3940TIP3    H111763   1.136   4.996   6.515
 3940TIP3    H211764   1.031   4.975   6.621
 3941TIP3   OH211765   0.084   2.983   2.247
 3941TIP3    H111766   0.166   3.031   2.256
 3941TIP3    H211767   0.026   3.019   2.314
 3942TIP3   OH211768   7.537   1.322   2.057
 3942TIP3    H111769   7.614   1.268   2.074
 3942TIP3    H211770   7.487   1.319   2.139
 3943TIP3   OH211771   0.941   2.494   5.289
 3943TIP3    H111772   0.925   2.408   5.328
 3943TIP3    H211773   1.035   2.509   5.303
 3944TIP3   OH211774   0.403   3.819   2.536
 3944TIP3    H111775   0.365   3.842   2.451
 3944TIP3    H211776   0.425   3.903   2.576
 3945TIP3   OH211777   4.592   4.589   1.203
 3945TIP3    H111778   4.643   4.567   1.281
 3945TIP3    H211779   4.501   4.588   1.233
 3946TIP3   OH211780   0.074   6.924   4.030
 3946TIP3    H111781   0.103   7.000   3.979
 3946TIP3    H211782  -0.021   6.923   4.021
 3947TIP3   OH211783   0.515   0.572   2.516
 3947TIP3    H111784   0.529   0.664   2.492
 3947TIP3    H211785   0.566   0.560   2.596
 3948TIP3   OH211786   0.307   6.010   0.085
 3948TIP3    H111787   0.230   5.964   0.049
 3948TIP3    H211788   0.307   5.989   0.178
 3949TIP3   OH211789   2.741   6.076   3.312
 3949TIP3    H111790   2.823   6.040   3.346
 3949TIP3    H211791   2.712   6.137   3.380
 3950TIP3   OH211792   3.786   6.598   0.121
 3950TIP3    H111793   3.872   6.570   0.153
 3950TIP3    H211794   3.801   6.622   0.030
 3951TIP3   OH211795   7.813   6.481   2.488
 3951TIP3    H111796   7.748   6.423   2.450
 3951TIP3    H211797   7.881   6.422   2.522
 3952TIP3   OH211798   8.020   2.821   3.649
 3952TIP3    H111799   8.061   2.801   3.565
 3952TIP3    H211800   7.929   2.841   3.626
 3953TIP3   OH211801   1.365   2.697   2.924
 3953TIP3    H111802   1.288   2.708   2.868
 3953TIP3    H211803   1.422   2.638   2.874
 3954TIP3   OH211804   0.121   6.051   5.408
 3954TIP3    H111805   0.132   6.027   5.316
 3954TIP3    H211806   0.201   6.020   5.451
 3955TIP3   OH211807   4.403   4.119   1.560
 3955TIP3    H111808   4.309   4.122   1.548
 3955TIP3    H211809   4.435   4.200   1.519
 3956TIP3   OH211810   7.736   3.341   2.655
 3956TIP3    H111811   7.789   3.284   2.711
 3956TIP3    H211812   7.646   3.313   2.671
 3957TIP3   OH211813   1.323   1.672   5.865
 3957TIP3    H111814   1.409   1.642   5.891
 3957TIP3    H211815   1.330   1.686   5.770
 3958TIP3   OH211816   3.930   6.495   6.350
 3958TIP3    H111817   3.996   6.481   6.418
 3958TIP3    H211818   3.967   6.455   6.272
 3959TIP3   OH211819   2.466   0.540   6.489
 3959TIP3    H111820   2.383   0.579   6.458
 3959TIP3    H211821   2.512   0.515   6.409
 3960TIP3   OH211822   1.425   1.181   4.232
 3960TIP3    H111823   1.479   1.107   4.259
 3960TIP3    H211824   1.339   1.164   4.269
 3961TIP3   OH211825   6.088   1.892   0.846
 3961TIP3    H111826   6.106   1.854   0.933
 3961TIP3    H211827   6.020   1.835   0.809
 3962TIP3   OH211828   3.609   6.915   2.112
 3962TIP3    H111829   3.573   6.938   2.027
 3962TIP3    H211830   3.569   6.831   2.134
 3963TIP3   OH211831   1.407   0.860   0.076
 3963TIP3    H111832   1.425   0.943   0.120
 3963TIP3    H211833   1.412   0.880  -0.017
 3964TIP3   OH211834   7.094   3.867   3.480
 3964TIP3    H111835   7.185   3.875   3.509
 3964TIP3    H211836   7.077   3.948   3.432
 3965TIP3   OH211837   2.160   6.257   0.164
 3965TIP3    H111838   2.164   6.296   0.076
 3965TIP3    H211839   2.123   6.326   0.219
 3966TIP3   OH211840   6.974   0.517   2.840
 3966TIP3    H111841   6.980   0.512   2.744
 3966TIP3    H211842   6.976   0.425   2.868
 3967TIP3   OH211843   1.533   4.678   4.364
 3967TIP3    H111844   1.528   4.763   4.406
 3967TIP3    H211845   1.543   4.697   4.271
 3968TIP3   OH211846   8.063   4.479   2.913
 3968TIP3    H111847   8.128   4.449   2.849
 3968TIP3    H211848   8.036   4.399   2.959
 3969TIP3   OH211849   5.304   4.445   5.744
 3969TIP3    H111850   5.225   4.415   5.788
 3969TIP3    H211851   5.338   4.367   5.700
 3970TIP3   OH211852   5.899   5.847   2.386
 3970TIP3    H111853   5.967   5.889   2.438
 3970TIP3    H211854   5.895   5.757   2.421
 3971TIP3   OH211855   1.505   0.093   0.564
 3971TIP3    H111856   1.552   0.176   0.552
 3971TIP3    H211857   1.413   0.117   0.564
 3972TIP3   OH211858   0.220   6.359   1.182
 3972TIP3    H111859   0.252   6.439   1.225
 3972TIP3    H211860   0.294   6.328   1.130
 3973TIP3   OH211861   5.178   3.285   4.562
 3973TIP3    H111862   5.239   3.280   4.489
 3973TIP3    H211863   5.101   3.330   4.527
 3974TIP3   OH211864   0.675   7.331   6.330
 3974TIP3    H111865   0.694   7.424   6.338
 3974TIP3    H211866   0.641   7.321   6.241
 3975TIP3   OH211867   8.105   7.526   1.781
 3975TIP3    H111868   8.128   7.618   1.766
 3975TIP3    H211869   8.010   7.524   1.781
 3976TIP3   OH211870   5.491   5.199   1.177
 3976TIP3    H111871   5.434   5.122   1.179
 3976TIP3    H211872   5.470   5.242   1.093
 3977TIP3   OH211873   4.768   1.062   5.717
 3977TIP3    H111874   4.795   0.994   5.656
 3977TIP3    H211875   4.728   1.015   5.790
 3978TIP3   OH211876   2.720   6.419   4.522
 3978TIP3    H111877   2.782   6.430   4.594
 3978TIP3    H211878   2.688   6.329   4.533
 3979TIP3   OH211879   1.623   1.675   3.937
 3979TIP3    H111880   1.717   1.691   3.942
 3979TIP3    H211881   1.607   1.601   3.996
 3980TIP3   OH211882   0.944   5.657   0.816
 3980TIP3    H111883   1.034   5.659   0.848
 3980TIP3    H211884   0.932   5.568   0.783
 3981TIP3   OH211885   1.874   1.626   2.610
 3981TIP3    H111886   1.828   1.648   2.690
 3981TIP3    H211887   1.805   1.603   2.548
 3982TIP3   OH211888   3.268   3.044   1.238
 3982TIP3    H111889   3.347   3.074   1.194
 3982TIP3    H211890   3.295   2.966   1.287
 3983TIP3   OH211891   1.321   3.031   6.397
 3983TIP3    H111892   1.361   3.041   6.483
 3983TIP3    H211893   1.392   3.001   6.340
 3984TIP3   OH211894   5.497   7.830   6.750
 3984TIP3    H111895   5.465   7.741   6.739
 3984TIP3    H211896   5.592   7.821   6.757
 3985TIP3   OH211897   0.715   3.138   2.962
 3985TIP3    H111898   0.651   3.067   2.974
 3985TIP3    H211899   0.771   3.133   3.040
 3986TIP3   OH211900   2.235   6.578   2.034
 3986TIP3    H111901   2.152   6.563   1.990
 3986TIP3    H211902   2.300   6.576   1.964
 3987TIP3   OH211903   8.126   7.297   0.390
 3987TIP3    H111904   8.182   7.317   0.315
 3987TIP3    H211905   8.066   7.372   0.396
 3988TIP3   OH211906   4.713   6.264   6.249
 3988TIP3    H111907   4.626   6.296   6.272
 3988TIP3    H211908   4.708   6.248   6.155
 3989TIP3   OH211909   3.176   4.088   0.980
 3989TIP3    H111910   3.131   4.061   0.900
 3989TIP3    H211911   3.111   4.074   1.050
 3990TIP3   OH211912   6.803   6.109   5.793
 3990TIP3    H111913   6.888   6.110   5.748
 3990TIP3    H211914   6.739   6.116   5.722
 3991TIP3   OH211915   3.494   3.181   5.328
 3991TIP3    H111916   3.566   3.131   5.290
 3991TIP3    H211917   3.426   3.181   5.260
 3992TIP3   OH211918   8.172   6.856   1.172
 3992TIP3    H111919   8.262   6.887   1.177
 3992TIP3    H211920   8.177   6.772   1.126
 3993TIP3   OH211921   7.059   6.990   6.190
 3993TIP3    H111922   7.021   7.042   6.262
 3993TIP3    H211923   7.004   7.009   6.115
 3994TIP3   OH211924   2.251   7.248   0.433
 3994TIP3    H111925   2.158   7.269   0.436
 3994TIP3    H211926   2.265   7.191   0.509
 3995TIP3   OH211927   1.913   3.429   3.087
 3995TIP3    H111928   1.867   3.368   3.145
 3995TIP3    H211929   1.974   3.375   3.038
 3996TIP3   OH211930   3.396   1.453   0.140
 3996TIP3    H111931   3.424   1.375   0.092
 3996TIP3    H211932   3.453   1.455   0.217
 3997TIP3   OH211933   5.576   6.670   6.574
 3997TIP3    H111934   5.514   6.707   6.510
 3997TIP3    H211935   5.537   6.587   6.599
 3998TIP3   OH211936   5.047   2.239   6.330
 3998TIP3    H111937   5.004   2.325   6.326
 3998TIP3    H211938   4.985   2.179   6.290
 3999TIP3   OH211939   5.239   2.528   6.333
 3999TIP3    H111940   5.254   2.492   6.246
 3999TIP3    H211941   5.152   2.569   6.327
 4000TIP3   OH211942   7.895   7.188   6.594
 4000TIP3    H111943   7.836   7.254   6.557
 4000TIP3    H211944   7.910   7.126   6.522
 4001TIP3   OH211945   2.044   6.578   4.010
 4001TIP3    H111946   2.126   6.568   3.962
 4001TIP3    H211947   1.997   6.647   3.962
 4002TIP3   OH211948   4.916   6.673   0.712
 4002TIP3    H111949   5.008   6.699   0.706
 4002TIP3    H211950   4.914   6.584   0.677
 4003TIP3   OH211951   1.263   1.830   4.087
 4003TIP3    H111952   1.270   1.776   4.166
 4003TIP3    H211953   1.348   1.874   4.080
 4004TIP3   OH211954   0.757   1.576   5.904
 4004TIP3    H111955   0.834   1.533   5.942
 4004TIP3    H211956   0.732   1.642   5.968
 4005TIP3   OH211957   4.597   5.498   3.349
 4005TIP3    H111958   4.676   5.451   3.375
 4005TIP3    H211959   4.591   5.571   3.412
 4006TIP3   OH211960   0.713   5.514   3.917
 4006TIP3    H111961   0.794   5.496   3.870
 4006TIP3    H211962   0.654   5.548   3.851
 4007TIP3   OH211963   5.610   6.362   0.864
 4007TIP3    H111964   5.682   6.321   0.912
 4007TIP3    H211965   5.530   6.327   0.905
 4008TIP3   OH211966   4.223   2.691   1.713
 4008TIP3    H111967   4.222   2.680   1.809
 4008TIP3    H211968   4.316   2.686   1.690
 4009TIP3   OH211969   1.953   1.000   4.368
 4009TIP3    H111970   1.920   0.922   4.413
 4009TIP3    H211971   1.993   0.966   4.288
 4010TIP3   OH211972   5.794   6.012   2.923
 4010TIP3    H111973   5.876   6.061   2.917
 4010TIP3    H211974   5.727   6.079   2.936
 4011TIP3   OH211975   4.410   4.213   5.732
 4011TIP3    H111976   4.438   4.267   5.806
 4011TIP3    H211977   4.341   4.156   5.769
 4012TIP3   OH211978   7.469   3.401   0.760
 4012TIP3    H111979   7.528   3.423   0.832
 4012TIP3    H211980   7.509   3.326   0.718
 4013TIP3   OH211981  -0.065   1.269   3.511
 4013TIP3    H111982  -0.090   1.179   3.531
 4013TIP3    H211983  -0.004   1.293   3.580
 4014TIP3   OH211984   2.560   2.236   0.910
 4014TIP3    H111985   2.541   2.330   0.912
 4014TIP3    H211986   2.521   2.203   0.991
 4015TIP3   OH211987   6.906   4.490   6.742
 4015TIP3    H111988   6.937   4.531   6.662
 4015TIP3    H211989   6.823   4.449   6.718
 4016TIP3   OH211990   0.708   4.813   1.432
 4016TIP3    H111991   0.742   4.860   1.356
 4016TIP3    H211992   0.690   4.724   1.399
 4017TIP3   OH211993   8.206   3.275   5.469
 4017TIP3    H111994   8.207   3.365   5.501
 4017TIP3    H211995   8.293   3.241   5.490
 4018TIP3   OH211996   3.445   1.610   0.568
 4018TIP3    H111997   3.422   1.523   0.600
 4018TIP3    H211998   3.539   1.618   0.587
 4019TIP3   OH211999   4.590   0.947   5.053
 4019TIP3    H112000   4.602   0.854   5.035
 4019TIP3    H212001   4.570   0.951   5.147
 4020TIP3   OH212002   4.887   7.588   3.394
 4020TIP3    H112003   4.863   7.661   3.337
 4020TIP3    H212004   4.862   7.616   3.482
 4021TIP3   OH212005   5.704   1.063   4.241
 4021TIP3    H112006   5.636   1.003   4.211
 4021TIP3    H212007   5.735   1.025   4.323
 4022TIP3   OH212008   0.734   4.565   5.332
 4022TIP3    H112009   0.820   4.557   5.292
 4022TIP3    H212010   0.673   4.535   5.265
 4023TIP3   OH212011   7.115   1.367   6.693
 4023TIP3    H112012   7.092   1.459   6.680
 4023TIP3    H212013   7.045   1.318   6.650
 4024TIP3   OH212014   6.926   7.577   1.563
 4024TIP3    H112015   6.885   7.583   1.477
 4024TIP3    H212016   6.854   7.558   1.623
 4025TIP3   OH212017   1.188   4.495   5.509
 4025TIP3    H112018   1.246   4.518   5.437
 4025TIP3    H212019   1.231   4.422   5.552
 4026TIP3   OH212020   1.229   0.020   4.594
 4026TIP3    H112021   1.223   0.017   4.690
 4026TIP3    H212022   1.234   0.113   4.573
 4027TIP3   OH212023   4.304   3.092   3.975
 4027TIP3    H112024   4.379   3.036   3.994
 4027TIP3    H212025   4.312   3.115   3.883
 4028TIP3   OH212026   6.206   0.974   1.343
 4028TIP3    H112027   6.128   0.940   1.386
 4028TIP3    H212028   6.278   0.945   1.399
 4029TIP3   OH212029   6.354   7.641   4.352
 4029TIP3    H112030   6.331   7.601   4.269
 4029TIP3    H212031   6.430   7.592   4.383
 4030TIP3   OH212032   1.672   5.194   0.160
 4030TIP3    H112033   1.650   5.236   0.077
 4030TIP3    H212034   1.634   5.251   0.227
 4031TIP3   OH212035   2.085   5.776   0.317
 4031TIP3    H112036   2.148   5.847   0.307
 4031TIP3    H212037   2.002   5.820   0.337
 4032TIP3   OH212038   1.501   1.616   4.265
 4032TIP3    H112039   1.540   1.548   4.319
 4032TIP3    H212040   1.469   1.570   4.188
 4033TIP3   OH212041   8.101   5.833   6.459
 4033TIP3    H112042   8.006   5.843   6.447
 4033TIP3    H212043   8.127   5.771   6.390
 4034TIP3   OH212044   3.212   7.589   3.728
 4034TIP3    H112045   3.277   7.639   3.677
 4034TIP3    H212046   3.137   7.649   3.736
 4035TIP3   OH212047   1.413   3.684   0.410
 4035TIP3    H112048   1.372   3.765   0.441
 4035TIP3    H212049   1.409   3.625   0.485
 4036TIP3   OH212050   6.510   2.941   5.355
 4036TIP3    H112051   6.469   2.961   5.438
 4036TIP3    H212052   6.550   3.023   5.326
 4037TIP3   OH212053   4.354   5.969   3.009
 4037TIP3    H112054   4.375   6.012   2.926
 4037TIP3    H212055   4.433   5.918   3.030
 4038TIP3   OH212056   4.802   7.608   5.308
 4038TIP3    H112057   4.747   7.649   5.241
 4038TIP3    H212058   4.784   7.515   5.300
 4039TIP3   OH212059   7.812   0.417   5.727
 4039TIP3    H112060   7.787   0.390   5.639
 4039TIP3    H212061   7.822   0.512   5.720
 4040TIP3   OH212062   6.891   3.914   0.659
 4040TIP3    H112063   6.932   3.839   0.702
 4040TIP3    H212064   6.956   3.942   0.594
 4041TIP3   OH212065   7.654   6.569   5.730
 4041TIP3    H112066   7.649   6.483   5.772
 4041TIP3    H212067   7.739   6.568   5.685
 4042TIP3   OH212068   3.427   2.594   2.456
 4042TIP3    H112069   3.366   2.614   2.527
 4042TIP3    H212070   3.410   2.662   2.390
 4043TIP3   OH212071   4.355   7.234   2.494
 4043TIP3    H112072   4.287   7.203   2.435
 4043TIP3    H212073   4.375   7.159   2.549
 4044TIP3   OH212074   4.046   3.600   0.607
 4044TIP3    H112075   4.111   3.597   0.677
 4044TIP3    H212076   4.018   3.509   0.597
 4045TIP3   OH212077   7.340   6.983   1.215
 4045TIP3    H112078   7.322   7.062   1.164
 4045TIP3    H212079   7.427   6.997   1.251
 4046TIP3   OH212080   4.025   2.457   2.310
 4046TIP3    H112081   3.979   2.392   2.257
 4046TIP3    H212082   4.005   2.432   2.401
 4047TIP3   OH212083   2.409   1.690   1.993
 4047TIP3    H112084   2.381   1.599   1.993
 4047TIP3    H212085   2.342   1.736   2.043
 4048TIP3   OH212086   4.890   1.830   1.719
 4048TIP3    H112087   4.875   1.831   1.813
 4048TIP3    H212088   4.981   1.802   1.709
 4049TIP3   OH212089   7.831   2.584   2.403
 4049TIP3    H112090   7.822   2.491   2.422
 4049TIP3    H212091   7.921   2.605   2.428
 4050TIP3   OH212092   7.624   5.532   2.769
 4050TIP3    H112093   7.659   5.565   2.852
 4050TIP3    H212094   7.553   5.474   2.794
 4051TIP3   OH212095   3.767   4.653   4.429
 4051TIP3    H112096   3.818   4.718   4.381
 4051TIP3    H212097   3.832   4.600   4.474
 4052TIP3   OH212098   7.600   3.900   0.898
 4052TIP3    H112099   7.639   3.985   0.920
 4052TIP3    H212100   7.523   3.921   0.846
 4053TIP3   OH212101   3.227   5.018   1.717
 4053TIP3    H112102   3.199   5.084   1.654
 4053TIP3    H212103   3.169   5.030   1.792
 4054TIP3   OH212104   3.585   1.405   6.089
 4054TIP3    H112105   3.622   1.408   6.177
 4054TIP3    H212106   3.495   1.376   6.101
 4055TIP3   OH212107   4.207   7.493   2.512
 4055TIP3    H112108   4.294   7.457   2.496
 4055TIP3    H212109   4.222   7.567   2.570
 4056TIP3   OH212110   4.160   3.461   5.773
 4056TIP3    H112111   4.130   3.372   5.791
 4056TIP3    H212112   4.236   3.474   5.830
 4057TIP3   OH212113   3.416   7.126   5.942
 4057TIP3    H112114   3.488   7.068   5.915
 4057TIP3    H212115   3.423   7.129   6.037
 4058TIP3   OH212116   0.751   5.568   3.069
 4058TIP3    H112117   0.661   5.551   3.097
 4058TIP3    H212118   0.804   5.549   3.146
 4059TIP3   OH212119   3.677   3.156   4.401
 4059TIP3    H112120   3.734   3.216   4.448
 4059TIP3    H212121   3.629   3.211   4.340
 4060TIP3   OH212122   4.859   6.291   2.235
 4060TIP3    H112123   4.789   6.353   2.255
 4060TIP3    H212124   4.939   6.337   2.261
 4061TIP3   OH212125   6.582   7.708   3.873
 4061TIP3    H112126   6.593   7.664   3.957
 4061TIP3    H212127   6.622   7.650   3.810
 4062TIP3   OH212128   2.927   5.722   4.064
 4062TIP3    H112129   3.002   5.667   4.041
 4062TIP3    H212130   2.967   5.804   4.093
 4063TIP3   OH212131   3.932   4.771   6.292
 4063TIP3    H112132   3.910   4.856   6.330
 4063TIP3    H212133   3.998   4.791   6.225
 4064TIP3   OH212134   2.864   7.359   1.115
 4064TIP3    H112135   2.774   7.391   1.107
 4064TIP3    H212136   2.869   7.286   1.054
 4065TIP3   OH212137   0.956   1.746   5.685
 4065TIP3    H112138   0.910   1.748   5.601
 4065TIP3    H212139   0.961   1.653   5.707
 4066TIP3   OH212140   7.815   3.021   4.447
 4066TIP3    H112141   7.724   2.998   4.468
 4066TIP3    H212142   7.808   3.096   4.388
 4067TIP3   OH212143   7.400   3.868   4.887
 4067TIP3    H112144   7.354   3.800   4.837
 4067TIP3    H212145   7.457   3.820   4.946
 4068TIP3   OH212146   0.138   4.389   0.457
 4068TIP3    H112147   0.138   4.363   0.549
 4068TIP3    H212148   0.164   4.481   0.457
 4069TIP3   OH212149   3.468   2.174   2.583
 4069TIP3    H112150   3.505   2.103   2.532
 4069TIP3    H212151   3.472   2.144   2.674
 4070TIP3   OH212152   0.016   4.398   4.599
 4070TIP3    H112153   0.014   4.368   4.509
 4070TIP3    H212154   0.036   4.492   4.593
 4071TIP3   OH212155   6.418   3.470   2.553
 4071TIP3    H112156   6.427   3.494   2.461
 4071TIP3    H212157   6.360   3.536   2.591
 4072TIP3   OH212158   7.145   1.891   3.779
 4072TIP3    H112159   7.147   1.872   3.873
 4072TIP3    H212160   7.190   1.975   3.770
 4073TIP3   OH212161   4.576   4.586   4.598
 4073TIP3    H112162   4.487   4.553   4.607
 4073TIP3    H212163   4.589   4.595   4.503
 4074TIP3   OH212164   1.610   7.374   5.185
 4074TIP3    H112165   1.610   7.406   5.275
 4074TIP3    H212166   1.685   7.315   5.181
 4075TIP3   OH212167   6.766   5.145   0.329
 4075TIP3    H112168   6.792   5.055   0.311
 4075TIP3    H212169   6.682   5.138   0.375
 4076TIP3   OH212170   3.941   0.383   5.307
 4076TIP3    H112171   3.982   0.333   5.236
 4076TIP3    H212172   3.926   0.470   5.269
 4077TIP3   OH212173   8.128   1.554   6.575
 4077TIP3    H112174   8.155   1.540   6.484
 4077TIP3    H212175   8.112   1.648   6.581
 4078TIP3   OH212176   2.305   0.618   0.926
 4078TIP3    H112177   2.229   0.640   0.871
 4078TIP3    H212178   2.267   0.584   1.007
 4079TIP3   OH212179   4.401   5.640   4.095
 4079TIP3    H112180   4.401   5.618   4.002
 4079TIP3    H212181   4.309   5.660   4.115
 4080TIP3   OH212182   3.418   4.703   3.093
 4080TIP3    H112183   3.332   4.739   3.114
 4080TIP3    H212184   3.437   4.737   3.006
 4081TIP3   OH212185   3.084   4.936   6.433
 4081TIP3    H112186   3.004   4.986   6.423
 4081TIP3    H212187   3.147   4.997   6.470
 4082TIP3   OH212188   2.365   2.684   5.152
 4082TIP3    H112189   2.279   2.657   5.120
 4082TIP3    H212190   2.390   2.616   5.214
 4083TIP3   OH212191   4.140   2.078   4.973
 4083TIP3    H112192   4.150   1.984   4.988
 4083TIP3    H212193   4.225   2.116   4.997
 4084TIP3   OH212194   3.378   6.484   6.633
 4084TIP3    H112195   3.460   6.502   6.587
 4084TIP3    H212196   3.323   6.560   6.613
 4085TIP3   OH212197   6.943   0.940   0.199
 4085TIP3    H112198   7.006   1.012   0.208
 4085TIP3    H212199   6.891   0.943   0.279
 4086TIP3   OH212200   6.333   2.926   3.455
 4086TIP3    H112201   6.302   2.862   3.390
 4086TIP3    H212202   6.428   2.919   3.451
 4087TIP3   OH212203   4.699   1.858   0.993
 4087TIP3    H112204   4.613   1.820   1.009
 4087TIP3    H212205   4.720   1.834   0.903
 4088TIP3   OH212206   7.965   1.871   1.045
 4088TIP3    H112207   7.906   1.862   0.970
 4088TIP3    H212208   7.989   1.964   1.046
 4089TIP3   OH212209   2.677   1.114   0.259
 4089TIP3    H112210   2.757   1.123   0.207
 4089TIP3    H212211   2.610   1.089   0.196
 4090TIP3   OH212212   0.982   7.638   1.314
 4090TIP3    H112213   1.046   7.643   1.244
 4090TIP3    H212214   1.024   7.680   1.389
 4091TIP3   OH212215   6.129   6.465   4.679
 4091TIP3    H112216   6.121   6.411   4.757
 4091TIP3    H212217   6.094   6.411   4.608
 4092TIP3   OH212218   3.964   0.385   3.047
 4092TIP3    H112219   3.961   0.481   3.043
 4092TIP3    H212220   4.017   0.366   3.124
 4093TIP3   OH212221   6.440   7.430   0.966
 4093TIP3    H112222   6.360   7.382   0.947
 4093TIP3    H212223   6.510   7.377   0.929
 4094TIP3   OH212224   4.006   1.127   1.526
 4094TIP3    H112225   4.049   1.109   1.609
 4094TIP3    H212226   3.940   1.194   1.547
 4095TIP3   OH212227   5.762   3.680   1.003
 4095TIP3    H112228   5.767   3.685   1.098
 4095TIP3    H212229   5.700   3.609   0.986
 4096TIP3   OH212230   3.945   2.552   0.465
 4096TIP3    H112231   4.039   2.544   0.482
 4096TIP3    H212232   3.941   2.594   0.379
 4097TIP3   OH212233   7.347   5.521   1.215
 4097TIP3    H112234   7.442   5.530   1.217
 4097TIP3    H212235   7.321   5.557   1.130
 4098TIP3   OH212236   1.119   2.792   5.884
 4098TIP3    H112237   1.097   2.787   5.792
 4098TIP3    H212238   1.042   2.831   5.926
 4099TIP3   OH212239   7.309   3.272   6.149
 4099TIP3    H112240   7.313   3.178   6.137
 4099TIP3    H212241   7.280   3.306   6.065
 4100TIP3   OH212242   6.605   7.658   2.373
 4100TIP3    H112243   6.511   7.673   2.358
 4100TIP3    H212244   6.618   7.678   2.465
 4101TIP3   OH212245   5.056   6.849   6.269
 4101TIP3    H112246   4.979   6.883   6.314
 4101TIP3    H212247   5.061   6.757   6.295
 4102TIP3   OH212248   3.223   7.667   4.066
 4102TIP3    H112249   3.303   7.717   4.053
 4102TIP3    H212250   3.245   7.578   4.039
 4103TIP3   OH212251   3.928   5.291   2.319
 4103TIP3    H112252   4.018   5.319   2.306
 4103TIP3    H212253   3.886   5.363   2.366
 4104TIP3   OH212254   0.499   4.906   5.525
 4104TIP3    H112255   0.559   4.960   5.577
 4104TIP3    H212256   0.551   4.831   5.498
 4105TIP3   OH212257   3.985   0.302   0.431
 4105TIP3    H112258   4.064   0.249   0.435
 4105TIP3    H212259   3.937   0.279   0.511
 4106TIP3   OH212260   6.324   7.002   3.511
 4106TIP3    H112261   6.351   6.919   3.471
 4106TIP3    H212262   6.246   6.980   3.561
 4107TIP3   OH212263   6.373   4.936   1.419
 4107TIP3    H112264   6.352   4.900   1.506
 4107TIP3    H212265   6.468   4.939   1.417
 4108TIP3   OH212266   7.636   4.925   6.260
 4108TIP3    H112267   7.642   4.872   6.340
 4108TIP3    H212268   7.715   4.902   6.211
 4109TIP3   OH212269   7.296   4.668   0.902
 4109TIP3    H112270   7.330   4.707   0.983
 4109TIP3    H212271   7.315   4.574   0.911
 4110TIP3   OH212272   0.846   5.241   3.295
 4110TIP3    H112273   0.837   5.336   3.294
 4110TIP3    H212274   0.868   5.218   3.205
 4111TIP3   OH212275   2.366   6.714   6.564
 4111TIP3    H112276   2.443   6.762   6.535
 4111TIP3    H212277   2.300   6.782   6.582
 4112TIP3   OH212278   2.875   0.237   5.357
 4112TIP3    H112279   2.932   0.260   5.284
 4112TIP3    H212280   2.891   0.306   5.422
 4113TIP3   OH212281   1.226   7.553   0.825
 4113TIP3    H112282   1.274   7.564   0.907
 4113TIP3    H212283   1.211   7.642   0.793
 4114TIP3   OH212284   7.675   1.003   4.407
 4114TIP3    H112285   7.659   0.922   4.457
 4114TIP3    H212286   7.597   1.013   4.352
 4115TIP3   OH212287   2.186   0.813   2.420
 4115TIP3    H112288   2.203   0.748   2.352
 4115TIP3    H212289   2.272   0.850   2.440
 4116TIP3   OH212290   5.999   5.875   4.450
 4116TIP3    H112291   6.066   5.935   4.417
 4116TIP3    H212292   6.023   5.790   4.413
 4117TIP3   OH212293   2.573   7.732   0.491
 4117TIP3    H112294   2.557   7.798   0.559
 4117TIP3    H212295   2.609   7.781   0.417
 4118TIP3   OH212296   4.725   3.584   6.497
 4118TIP3    H112297   4.706   3.501   6.540
 4118TIP3    H212298   4.651   3.640   6.520
 4119TIP3   OH212299   0.088   6.973   5.773
 4119TIP3    H112300   0.169   6.992   5.821
 4119TIP3    H212301   0.051   7.059   5.752
 4120TIP3   OH212302   1.631   7.613   2.346
 4120TIP3    H112303   1.554   7.662   2.317
 4120TIP3    H212304   1.601   7.522   2.352
 4121TIP3   OH212305   2.761   3.311   2.940
 4121TIP3    H112306   2.855   3.328   2.940
 4121TIP3    H212307   2.739   3.294   2.849
 4122TIP3   OH212308   7.713   7.386   3.678
 4122TIP3    H112309   7.668   7.301   3.684
 4122TIP3    H212310   7.748   7.388   3.589
 4123TIP3   OH212311   2.437   7.597   4.566
 4123TIP3    H112312   2.505   7.617   4.501
 4123TIP3    H212313   2.482   7.604   4.650
 4124TIP3   OH212314   4.840   0.997   1.040
 4124TIP3    H112315   4.803   1.026   1.124
 4124TIP3    H212316   4.841   0.902   1.047
 4125TIP3   OH212317   6.216   6.068   4.416
 4125TIP3    H112318   6.294   6.037   4.369
 4125TIP3    H212319   6.249   6.104   4.498
 4126TIP3   OH212320   3.107   6.910   0.349
 4126TIP3    H112321   3.029   6.871   0.390
 4126TIP3    H212322   3.075   6.988   0.306
 4127TIP3   OH212323   1.445   5.212   2.126
 4127TIP3    H112324   1.437   5.189   2.033
 4127TIP3    H212325   1.364   5.258   2.147
 4128TIP3   OH212326   5.854   2.521   5.678
 4128TIP3    H112327   5.907   2.446   5.704
 4128TIP3    H212328   5.808   2.493   5.599
 4129TIP3   OH212329   4.143   1.257   5.464
 4129TIP3    H112330   4.194   1.240   5.385
 4129TIP3    H212331   4.105   1.344   5.450
 4130TIP3   OH212332   5.688   6.456   4.682
 4130TIP3    H112333   5.742   6.456   4.760
 4130TIP3    H212334   5.598   6.462   4.715
 4131TIP3   OH212335   8.081   4.007   6.548
 4131TIP3    H112336   8.069   3.916   6.524
 4131TIP3    H212337   8.065   4.056   6.468
 4132TIP3   OH212338   1.868   5.460   1.375
 4132TIP3    H112339   1.934   5.404   1.333
 4132TIP3    H212340   1.906   5.482   1.460
 4133TIP3   OH212341   5.109   1.361   1.497
 4133TIP3    H112342   5.157   1.426   1.446
 4133TIP3    H212343   5.036   1.335   1.440
 4134TIP3   OH212344   3.958   5.284   0.334
 4134TIP3    H112345   3.999   5.347   0.276
 4134TIP3    H212346   3.942   5.207   0.280
 4135TIP3   OH212347   5.176   1.466   0.347
 4135TIP3    H112348   5.154   1.537   0.407
 4135TIP3    H212349   5.272   1.464   0.348
 4136TIP3   OH212350   0.464   0.658   2.973
 4136TIP3    H112351   0.411   0.663   3.053
 4136TIP3    H212352   0.548   0.698   2.997
 4137TIP3   OH212353   4.525   5.375   6.460
 4137TIP3    H112354   4.517   5.470   6.470
 4137TIP3    H212355   4.571   5.347   6.539
 4138TIP3   OH212356   7.731   5.203   4.385
 4138TIP3    H112357   7.764   5.152   4.311
 4138TIP3    H212358   7.663   5.258   4.348
 4139TIP3   OH212359   1.226   5.727   2.032
 4139TIP3    H112360   1.234   5.653   1.971
 4139TIP3    H212361   1.158   5.700   2.094
 4140TIP3   OH212362   6.661   0.293   3.508
 4140TIP3    H112363   6.574   0.329   3.493
 4140TIP3    H212364   6.646   0.219   3.566
 4141TIP3   OH212365   4.358   5.780   1.439
 4141TIP3    H112366   4.337   5.700   1.390
 4141TIP3    H212367   4.400   5.748   1.519
 4142TIP3   OH212368   6.155   6.594   1.705
 4142TIP3    H112369   6.094   6.585   1.779
 4142TIP3    H212370   6.211   6.517   1.710
 4143TIP3   OH212371   2.443   1.103   0.478
 4143TIP3    H112372   2.432   1.011   0.503
 4143TIP3    H212373   2.532   1.107   0.442
 4144TIP3   OH212374   1.071   4.130   6.432
 4144TIP3    H112375   1.084   4.052   6.486
 4144TIP3    H212376   1.038   4.196   6.492
 4145TIP3   OH212377   1.473   4.504   0.483
 4145TIP3    H112378   1.481   4.590   0.525
 4145TIP3    H212379   1.539   4.450   0.526
 4146TIP3   OH212380   6.133   1.972   6.124
 4146TIP3    H112381   6.123   1.949   6.216
 4146TIP3    H212382   6.111   2.065   6.119
 4147TIP3   OH212383   7.654   5.770   2.394
 4147TIP3    H112384   7.729   5.712   2.412
 4147TIP3    H212385   7.677   5.852   2.438
 4148TIP3   OH212386   1.178   6.317   5.226
 4148TIP3    H112387   1.124   6.391   5.255
 4148TIP3    H212388   1.155   6.246   5.286
 4149TIP3   OH212389   6.400   6.497   0.431
 4149TIP3    H112390   6.475   6.459   0.477
 4149TIP3    H212391   6.401   6.454   0.345
 4150TIP3   OH212392   6.389   4.518   5.979
 4150TIP3    H112393   6.445   4.528   6.056
 4150TIP3    H212394   6.311   4.474   6.011
 4151TIP3   OH212395   2.591   6.393   0.698
 4151TIP3    H112396   2.507   6.438   0.698
 4151TIP3    H212397   2.613   6.384   0.606
 4152TIP3   OH212398   1.394   7.614   0.334
 4152TIP3    H112399   1.354   7.666   0.404
 4152TIP3    H212400   1.384   7.523   0.363
 4153TIP3   OH212401   7.354   1.200   0.850
 4153TIP3    H112402   7.444   1.168   0.842
 4153TIP3    H212403   7.307   1.158   0.778
 4154TIP3   OH212404   3.173   2.872   0.560
 4154TIP3    H112405   3.203   2.810   0.494
 4154TIP3    H212406   3.253   2.911   0.595
 4155TIP3   OH212407   8.005   2.934   5.710
 4155TIP3    H112408   7.946   3.004   5.679
 4155TIP3    H212409   7.972   2.913   5.797
 4156TIP3   OH212410   1.542   6.457   3.975
 4156TIP3    H112411   1.616   6.491   3.925
 4156TIP3    H212412   1.476   6.435   3.908
 4157TIP3   OH212413   0.432   7.115   4.330
 4157TIP3    H112414   0.441   7.163   4.413
 4157TIP3    H212415   0.339   7.095   4.324
 4158TIP3   OH212416   4.970   4.500   0.230
 4158TIP3    H112417   4.883   4.518   0.197
 4158TIP3    H212418   5.028   4.554   0.177
 4159TIP3   OH212419   3.582   5.690   0.788
 4159TIP3    H112420   3.588   5.760   0.852
 4159TIP3    H212421   3.659   5.635   0.805
 4160TIP3   OH212422   7.538   1.896   2.583
 4160TIP3    H112423   7.444   1.878   2.588
 4160TIP3    H212424   7.579   1.810   2.594
 4161TIP3   OH212425   5.334   4.372   4.266
 4161TIP3    H112426   5.384   4.443   4.225
 4161TIP3    H212427   5.260   4.357   4.208
 4162TIP3   OH212428   0.791   7.592   3.692
 4162TIP3    H112429   0.828   7.675   3.723
 4162TIP3    H212430   0.724   7.618   3.629
 4163TIP3   OH212431   3.267   3.094   0.870
 4163TIP3    H112432   3.351   3.083   0.824
 4163TIP3    H212433   3.202   3.094   0.800
 4164TIP3   OH212434   1.512   2.075   4.392
 4164TIP3    H112435   1.417   2.074   4.376
 4164TIP3    H212436   1.540   1.985   4.374
 4165TIP3   OH212437   8.075   5.240   1.529
 4165TIP3    H112438   8.129   5.235   1.608
 4165TIP3    H212439   8.010   5.308   1.550
 4166TIP3   OH212440   2.256   3.072   5.777
 4166TIP3    H112441   2.184   3.012   5.760
 4166TIP3    H212442   2.321   3.052   5.709
 4167TIP3   OH212443   1.032   3.278   3.405
 4167TIP3    H112444   1.123   3.250   3.402
 4167TIP3    H212445   1.017   3.304   3.496
 4168TIP3   OH212446   0.850   3.730   6.381
 4168TIP3    H112447   0.771   3.726   6.436
 4168TIP3    H212448   0.848   3.648   6.331
 4169TIP3   OH212449   2.409   5.725   5.163
 4169TIP3    H112450   2.324   5.683   5.177
 4169TIP3    H212451   2.413   5.739   5.068
 4170TIP3   OH212452   7.063   3.229   2.564
 4170TIP3    H112453   6.994   3.176   2.525
 4170TIP3    H212454   7.129   3.166   2.593
 4171TIP3   OH212455   8.022   7.414   2.280
 4171TIP3    H112456   8.115   7.421   2.259
 4171TIP3    H212457   7.980   7.481   2.226
 4172TIP3   OH212458   1.673   5.935   3.661
 4172TIP3    H112459   1.739   5.869   3.638
 4172TIP3    H212460   1.722   6.007   3.699
 4173TIP3   OH212461   8.149   0.478   6.260
 4173TIP3    H112462   8.107   0.551   6.305
 4173TIP3    H212463   8.123   0.401   6.311
 4174TIP3   OH212464   2.276   4.492   4.256
 4174TIP3    H112465   2.303   4.430   4.324
 4174TIP3    H212466   2.245   4.568   4.305
 4175TIP3   OH212467   6.813   7.052   3.534
 4175TIP3    H112468   6.778   7.044   3.445
 4175TIP3    H212469   6.864   7.133   3.532
 4176TIP3   OH212470   1.276   6.385   0.219
 4176TIP3    H112471   1.204   6.424   0.269
 4176TIP3    H212472   1.348   6.379   0.283
 4177TIP3   OH212473   0.845   5.749   3.461
 4177TIP3    H112474   0.777   5.808   3.496
 4177TIP3    H212475   0.898   5.726   3.537
 4178TIP3   OH212476   2.537   3.033   2.596
 4178TIP3    H112477   2.513   2.944   2.571
 4178TIP3    H212478   2.455   3.071   2.628
 4179TIP3   OH212479   1.643   1.675   3.264
 4179TIP3    H112480   1.607   1.674   3.175
 4179TIP3    H212481   1.707   1.747   3.263
 4180TIP3   OH212482   6.124   6.268   2.506
 4180TIP3    H112483   6.119   6.227   2.420
 4180TIP3    H212484   6.208   6.241   2.542
 4181TIP3   OH212485   7.587   7.619   1.515
 4181TIP3    H112486   7.641   7.644   1.440
 4181TIP3    H212487   7.513   7.679   1.513
 4182TIP3   OH212488   6.416   0.091   3.292
 4182TIP3    H112489   6.505   0.072   3.324
 4182TIP3    H212490   6.358   0.047   3.354
 4183TIP3   OH212491   6.587   6.694   5.836
 4183TIP3    H112492   6.498   6.660   5.847
 4183TIP3    H212493   6.625   6.640   5.766
 4184TIP3   OH212494   8.094   4.387   1.180
 4184TIP3    H112495   8.021   4.408   1.122
 4184TIP3    H212496   8.149   4.328   1.129
 4185TIP3   OH212497   7.251   5.305   0.897
 4185TIP3    H112498   7.300   5.313   0.815
 4185TIP3    H212499   7.317   5.287   0.964
 4186TIP3   OH212500   3.163   5.695   5.858
 4186TIP3    H112501   3.256   5.698   5.881
 4186TIP3    H212502   3.151   5.772   5.802
 4187TIP3   OH212503   3.618   4.311   3.722
 4187TIP3    H112504   3.644   4.295   3.631
 4187TIP3    H212505   3.530   4.274   3.728
 4188TIP3   OH212506   5.503   5.725   5.818
 4188TIP3    H112507   5.488   5.645   5.868
 4188TIP3    H212508   5.501   5.696   5.726
 4189TIP3   OH212509   2.271   4.162   3.671
 4189TIP3    H112510   2.189   4.172   3.719
 4189TIP3    H212511   2.332   4.125   3.735
 4190TIP3   OH212512   5.296   7.282   0.199
 4190TIP3    H112513   5.354   7.254   0.129
 4190TIP3    H212514   5.344   7.263   0.279
 4191TIP3   OH212515   4.988   5.546   4.036
 4191TIP3    H112516   5.072   5.502   4.048
 4191TIP3    H212517   4.924   5.489   4.079
 4192TIP3   OH212518   3.803   3.194   2.722
 4192TIP3    H112519   3.813   3.241   2.804
 4192TIP3    H212520   3.794   3.102   2.748
 4193TIP3   OH212521   6.038   7.210   6.524
 4193TIP3    H112522   6.117   7.233   6.574
 4193TIP3    H212523   6.015   7.291   6.479
 4194TIP3   OH212524   1.730   2.689   3.746
 4194TIP3    H112525   1.813   2.641   3.736
 4194TIP3    H212526   1.683   2.641   3.814
 4195TIP3   OH212527   4.496   3.695   3.731
 4195TIP3    H112528   4.424   3.632   3.736
 4195TIP3    H212529   4.520   3.711   3.823
 4196TIP3   OH212530   1.805   2.623   4.429
 4196TIP3    H112531   1.896   2.620   4.399
 4196TIP3    H212532   1.804   2.572   4.509
 4197TIP3   OH212533   4.590   7.414   3.406
 4197TIP3    H112534   4.639   7.365   3.472
 4197TIP3    H212535   4.516   7.452   3.454
 4198TIP3   OH212536   3.069   2.962   3.515
 4198TIP3    H112537   3.090   2.897   3.449
 4198TIP3    H212538   3.057   2.912   3.596
 4199TIP3   OH212539   3.347   3.028   2.160
 4199TIP3    H112540   3.273   3.082   2.133
 4199TIP3    H212541   3.379   3.069   2.240
 4200TIP3   OH212542   3.774   7.106   0.161
 4200TIP3    H112543   3.783   7.199   0.137
 4200TIP3    H212544   3.706   7.105   0.228
 4201TIP3   OH212545   7.842   1.027   4.180
 4201TIP3    H112546   7.890   0.946   4.161
 4201TIP3    H212547   7.803   1.013   4.266
 4202TIP3   OH212548   3.248   5.687   5.237
 4202TIP3    H112549   3.249   5.747   5.163
 4202TIP3    H212550   3.232   5.742   5.313
 4203TIP3   OH212551   2.945   6.380   3.332
 4203TIP3    H112552   2.980   6.328   3.404
 4203TIP3    H212553   2.997   6.354   3.256
 4204TIP3   OH212554   4.854   6.371   6.561
 4204TIP3    H112555   4.818   6.292   6.520
 4204TIP3    H212556   4.881   6.426   6.487
 4205TIP3   OH212557   1.457   1.009   6.727
 4205TIP3    H112558   1.495   1.003   6.639
 4205TIP3    H212559   1.401   0.931   6.733
 4206TIP3   OH212560   6.600   4.251   4.519
 4206TIP3    H112561   6.570   4.317   4.581
 4206TIP3    H212562   6.660   4.299   4.462
 4207TIP3   OH212563   7.094   5.422   2.540
 4207TIP3    H112564   7.097   5.428   2.636
 4207TIP3    H212565   7.018   5.475   2.515
 4208TIP3   OH212566   4.063   4.064   0.292
 4208TIP3    H112567   3.979   4.066   0.339
 4208TIP3    H212568   4.085   3.972   0.286
 4209TIP3   OH212569   5.665   0.630   6.574
 4209TIP3    H112570   5.656   0.707   6.631
 4209TIP3    H212571   5.605   0.648   6.501
 4210TIP3   OH212572   6.009   4.351   0.797
 4210TIP3    H112573   6.025   4.439   0.829
 4210TIP3    H212574   5.955   4.363   0.719
 4211TIP3   OH212575   8.006   2.967   5.386
 4211TIP3    H112576   8.034   3.046   5.340
 4211TIP3    H212577   7.947   3.000   5.454
 4212TIP3   OH212578   5.467   1.342   0.488
 4212TIP3    H112579   5.439   1.293   0.565
 4212TIP3    H212580   5.515   1.417   0.524
 4213TIP3   OH212581   5.397   6.362   0.284
 4213TIP3    H112582   5.323   6.304   0.305
 4213TIP3    H212583   5.357   6.448   0.269
 4214TIP3   OH212584   2.414   3.791   6.715
 4214TIP3    H112585   2.416   3.781   6.620
 4214TIP3    H212586   2.347   3.857   6.731
 4215TIP3   OH212587   3.049   7.317   1.686
 4215TIP3    H112588   3.075   7.225   1.691
 4215TIP3    H212589   3.120   7.359   1.636
 4216TIP3   OH212590   0.348   2.920   0.752
 4216TIP3    H112591   0.292   2.998   0.747
 4216TIP3    H212592   0.437   2.955   0.752
 4217TIP3   OH212593   1.346   4.368   2.628
 4217TIP3    H112594   1.395   4.335   2.704
 4217TIP3    H212595   1.355   4.299   2.562
 4218TIP3   OH212596   3.809   4.007   5.174
 4218TIP3    H112597   3.752   3.944   5.219
 4218TIP3    H212598   3.859   4.048   5.244
 4219TIP3   OH212599   5.110   7.152   1.325
 4219TIP3    H112600   5.044   7.106   1.274
 4219TIP3    H212601   5.177   7.086   1.343
 4220TIP3   OH212602   2.361   7.041   6.645
 4220TIP3    H112603   2.329   6.957   6.678
 4220TIP3    H212604   2.455   7.040   6.665
 4221TIP3   OH212605   6.121   5.845   3.118
 4221TIP3    H112606   6.138   5.754   3.091
 4221TIP3    H212607   6.037   5.840   3.164
 4222TIP3   OH212608   5.186   4.422   0.363
 4222TIP3    H112609   5.255   4.404   0.299
 4222TIP3    H212610   5.111   4.450   0.311
 4223TIP3   OH212611   8.233   0.921   3.261
 4223TIP3    H112612   8.256   0.850   3.321
 4223TIP3    H212613   8.194   0.878   3.185
 4224TIP3   OH212614   8.329   0.212   0.528
 4224TIP3    H112615   8.246   0.201   0.574
 4224TIP3    H212616   8.353   0.124   0.500
 4225TIP3   OH212617   5.235   0.947   6.242
 4225TIP3    H112618   5.233   0.858   6.207
 4225TIP3    H212619   5.311   0.949   6.300
 4226TIP3   OH212620   0.325   6.925   4.779
 4226TIP3    H112621   0.279   6.880   4.708
 4226TIP3    H212622   0.377   6.856   4.821
 4227TIP3   OH212623   4.120   2.174   5.248
 4227TIP3    H112624   4.126   2.171   5.152
 4227TIP3    H212625   4.094   2.085   5.272
 4228TIP3   OH212626   0.119   1.633   3.000
 4228TIP3    H112627   0.168   1.656   3.079
 4228TIP3    H212628   0.098   1.717   2.959
 4229TIP3   OH212629   2.001   6.946   1.374
 4229TIP3    H112630   2.076   7.001   1.353
 4229TIP3    H212631   1.957   6.992   1.445
 4230TIP3   OH212632   4.891   0.974   4.098
 4230TIP3    H112633   4.925   1.056   4.134
 4230TIP3    H212634   4.897   0.911   4.170
 4231TIP3   OH212635   7.302   0.344   5.143
 4231TIP3    H112636   7.207   0.349   5.136
 4231TIP3    H212637   7.319   0.341   5.238
 4232TIP3   OH212638   1.515   1.763   2.969
 4232TIP3    H112639   1.423   1.740   2.960
 4232TIP3    H212640   1.514   1.856   2.991
 4233TIP3   OH212641   7.168   4.713   2.350
 4233TIP3    H112642   7.107   4.645   2.321
 4233TIP3    H212643   7.115   4.793   2.352
 4234TIP3   OH212644   1.930   1.993   5.853
 4234TIP3    H112645   1.894   1.908   5.879
 4234TIP3    H212646   1.864   2.057   5.881
 4235TIP3   OH212647   3.698   0.753   4.205
 4235TIP3    H112648   3.665   0.724   4.120
 4235TIP3    H212649   3.731   0.673   4.246
 4236TIP3   OH212650   3.592   2.165   0.426
 4236TIP3    H112651   3.580   2.218   0.348
 4236TIP3    H212652   3.603   2.229   0.497
 4237TIP3   OH212653   7.022   3.365   6.357
 4237TIP3    H112654   7.103   3.405   6.324
 4237TIP3    H212655   7.045   3.333   6.444
 4238TIP3   OH212656   1.325   5.511   6.230
 4238TIP3    H112657   1.259   5.482   6.167
 4238TIP3    H212658   1.341   5.434   6.285
 4239TIP3   OH212659   4.023   1.075   6.445
 4239TIP3    H112660   4.057   0.987   6.464
 4239TIP3    H212661   3.930   1.069   6.463
 4240TIP3   OH212662   2.389   1.101   4.465
 4240TIP3    H112663   2.463   1.144   4.507
 4240TIP3    H212664   2.419   1.013   4.445
 4241TIP3   OH212665   6.727   6.177   6.060
 4241TIP3    H112666   6.774   6.155   5.980
 4241TIP3    H212667   6.701   6.268   6.049
 4242TIP3   OH212668   6.308   3.771   0.431
 4242TIP3    H112669   6.354   3.786   0.514
 4242TIP3    H212670   6.215   3.772   0.456
 4243TIP3   OH212671   3.944   5.891   0.058
 4243TIP3    H112672   3.969   5.932  -0.025
 4243TIP3    H212673   3.966   5.956   0.125
 4244TIP3   OH212674   7.213   5.494   1.457
 4244TIP3    H112675   7.267   5.500   1.378
 4244TIP3    H212676   7.147   5.562   1.446
 4245TIP3   OH212677   5.067   0.302   1.963
 4245TIP3    H112678   5.086   0.383   2.011
 4245TIP3    H212679   5.101   0.318   1.875
 4246TIP3   OH212680   4.252   0.372   2.121
 4246TIP3    H112681   4.164   0.405   2.138
 4246TIP3    H212682   4.269   0.310   2.192
 4247TIP3   OH212683   5.521   7.832   1.749
 4247TIP3    H112684   5.428   7.820   1.730
 4247TIP3    H212685   5.565   7.771   1.690
 4248TIP3   OH212686   4.644   3.593   3.502
 4248TIP3    H112687   4.587   3.534   3.453
 4248TIP3    H212688   4.591   3.623   3.575
 4249TIP3   OH212689   4.642   7.802   1.751
 4249TIP3    H112690   4.709   7.870   1.756
 4249TIP3    H212691   4.615   7.802   1.659
 4250TIP3   OH212692   1.836   4.544   2.150
 4250TIP3    H112693   1.921   4.511   2.178
 4250TIP3    H212694   1.797   4.581   2.229
 4251TIP3   OH212695   5.843   7.150   1.254
 4251TIP3    H112696   5.909   7.208   1.290
 4251TIP3    H212697   5.887   7.106   1.181
 4252TIP3   OH212698   8.002   6.534   4.240
 4252TIP3    H112699   8.042   6.447   4.243
 4252TIP3    H212700   7.925   6.527   4.297
 4253TIP3   OH212701   4.618   5.312   1.813
 4253TIP3    H112702   4.592   5.390   1.863
 4253TIP3    H212703   4.678   5.266   1.871
 4254TIP3   OH212704   3.475   4.356   5.466
 4254TIP3    H112705   3.478   4.374   5.372
 4254TIP3    H212706   3.382   4.342   5.485
 4255TIP3   OH212707   3.401   0.691   0.463
 4255TIP3    H112708   3.378   0.605   0.428
 4255TIP3    H212709   3.476   0.719   0.410
 4256TIP3   OH212710   1.532   2.309   2.088
 4256TIP3    H112711   1.611   2.312   2.034
 4256TIP3    H212712   1.553   2.362   2.165
 4257TIP3   OH212713   2.489   0.207   3.736
 4257TIP3    H112714   2.466   0.299   3.723
 4257TIP3    H212715   2.405   0.161   3.742
 4258TIP3   OH212716   1.424   6.441   5.110
 4258TIP3    H112717   1.490   6.387   5.152
 4258TIP3    H212718   1.347   6.433   5.166
 4259TIP3   OH212719   3.674   5.199   4.326
 4259TIP3    H112720   3.770   5.199   4.326
 4259TIP3    H212721   3.649   5.126   4.383
 4260TIP3   OH212722   5.388   7.240   1.154
 4260TIP3    H112723   5.435   7.308   1.106
 4260TIP3    H212724   5.394   7.267   1.246
 4261TIP3   OH212725   0.926   6.365   1.751
 4261TIP3    H112726   0.844   6.393   1.710
 4261TIP3    H212727   0.922   6.269   1.751
 4262TIP3   OH212728   1.072   3.671   3.230
 4262TIP3    H112729   1.158   3.638   3.257
 4262TIP3    H212730   1.017   3.661   3.308
 4263TIP3   OH212731   1.687   0.765   0.985
 4263TIP3    H112732   1.747   0.809   0.925
 4263TIP3    H212733   1.658   0.687   0.938
 4264TIP3   OH212734   6.486   6.859   4.570
 4264TIP3    H112735   6.418   6.893   4.512
 4264TIP3    H212736   6.440   6.801   4.630
 4265TIP3   OH212737   1.769   5.388   4.593
 4265TIP3    H112738   1.775   5.323   4.664
 4265TIP3    H212739   1.829   5.355   4.526
 4266TIP3   OH212740   1.027   3.307   6.021
 4266TIP3    H112741   0.992   3.265   6.100
 4266TIP3    H212742   1.019   3.401   6.038
 4267TIP3   OH212743   6.849   6.629   2.957
 4267TIP3    H112744   6.932   6.674   2.973
 4267TIP3    H212745   6.814   6.670   2.878
 4268TIP3   OH212746   3.864   2.831   4.449
 4268TIP3    H112747   3.894   2.921   4.461
 4268TIP3    H212748   3.856   2.821   4.354
 4269TIP3   OH212749   6.927   7.184   4.122
 4269TIP3    H112750   7.000   7.125   4.101
 4269TIP3    H212751   6.938   7.204   4.215
 4270TIP3   OH212752   2.859   2.272   5.258
 4270TIP3    H112753   2.942   2.313   5.281
 4270TIP3    H212754   2.804   2.284   5.335
 4271TIP3   OH212755   0.277   7.533   6.036
 4271TIP3    H112756   0.284   7.457   5.978
 4271TIP3    H212757   0.319   7.604   5.987
 4272TIP3   OH212758   6.107   7.573   3.993
 4272TIP3    H112759   6.124   7.631   3.919
 4272TIP3    H212760   6.034   7.614   4.039
 4273TIP3   OH212761   1.184   5.072   2.249
 4273TIP3    H112762   1.178   5.042   2.340
 4273TIP3    H212763   1.207   5.164   2.256
 4274TIP3   OH212764   4.950   2.346   5.558
 4274TIP3    H112765   5.002   2.357   5.478
 4274TIP3    H212766   5.014   2.331   5.626
 4275TIP3   OH212767   1.434   3.971   4.456
 4275TIP3    H112768   1.481   3.938   4.379
 4275TIP3    H212769   1.470   3.920   4.528
 4276TIP3   OH212770   4.493   3.897   2.085
 4276TIP3    H112771   4.569   3.942   2.122
 4276TIP3    H212772   4.477   3.942   2.002
 4277TIP3   OH212773   1.101   7.762   5.291
 4277TIP3    H112774   1.037   7.751   5.361
 4277TIP3    H212775   1.057   7.817   5.226
 4278TIP3   OH212776   0.853   7.459   1.775
 4278TIP3    H112777   0.882   7.550   1.776
 4278TIP3    H212778   0.761   7.463   1.803
 4279TIP3   OH212779   0.191   0.424   0.622
 4279TIP3    H112780   0.189   0.485   0.548
 4279TIP3    H212781   0.125   0.357   0.599
 4280TIP3   OH212782   0.651   5.580   4.538
 4280TIP3    H112783   0.572   5.526   4.541
 4280TIP3    H212784   0.631   5.654   4.595
 4281TIP3   OH212785   7.582   3.920   4.529
 4281TIP3    H112786   7.675   3.903   4.541
 4281TIP3    H212787   7.579   3.995   4.469
 4282TIP3   OH212788   2.816   5.245   6.515
 4282TIP3    H112789   2.898   5.241   6.565
 4282TIP3    H212790   2.782   5.333   6.534
 4283TIP3   OH212791   0.861   5.803   1.719
 4283TIP3    H112792   0.869   5.853   1.638
 4283TIP3    H212793   0.872   5.867   1.789
 4284TIP3   OH212794   3.110   7.498   3.136
 4284TIP3    H112795   3.124   7.520   3.228
 4284TIP3    H212796   3.034   7.550   3.110
 4285TIP3   OH212797   7.130   0.939   6.245
 4285TIP3    H112798   7.164   0.884   6.175
 4285TIP3    H212799   7.178   0.911   6.323
 4286TIP3   OH212800   0.209   6.712   5.721
 4286TIP3    H112801   0.166   6.629   5.742
 4286TIP3    H212802   0.147   6.779   5.750
 4287TIP3   OH212803   1.436   7.141   5.539
 4287TIP3    H112804   1.478   7.131   5.453
 4287TIP3    H212805   1.507   7.171   5.596
 4288TIP3   OH212806   0.651   1.448   4.625
 4288TIP3    H112807   0.572   1.423   4.674
 4288TIP3    H212808   0.645   1.543   4.618
 4289TIP3   OH212809   2.140   1.604   2.857
 4289TIP3    H112810   2.221   1.653   2.872
 4289TIP3    H212811   2.077   1.669   2.829
 4290TIP3   OH212812   8.199   2.453   0.244
 4290TIP3    H112813   8.108   2.439   0.271
 4290TIP3    H212814   8.246   2.472   0.325
 4291TIP3   OH212815   5.191   2.945   6.383
 4291TIP3    H112816   5.129   3.016   6.366
 4291TIP3    H212817   5.214   2.912   6.296
 4292TIP3   OH212818   0.809   2.084   6.731
 4292TIP3    H112819   0.735   2.088   6.671
 4292TIP3    H212820   0.853   2.168   6.721
 4293TIP3   OH212821   1.751   4.122   4.562
 4293TIP3    H112822   1.736   4.185   4.632
 4293TIP3    H212823   1.680   4.138   4.500
 4294TIP3   OH212824   0.725   2.829   0.055
 4294TIP3    H112825   0.764   2.776  -0.015
 4294TIP3    H212826   0.793   2.837   0.121
 4295TIP3   OH212827   4.605   6.715   2.108
 4295TIP3    H112828   4.634   6.753   2.025
 4295TIP3    H212829   4.561   6.787   2.153
 4296TIP3   OH212830   6.419   5.815   2.361
 4296TIP3    H112831   6.491   5.752   2.354
 4296TIP3    H212832   6.457   5.890   2.408
 4297TIP3   OH212833   1.868   1.695   0.521
 4297TIP3    H112834   1.796   1.744   0.561
 4297TIP3    H212835   1.927   1.677   0.594
 4298TIP3   OH212836   0.842   2.081   1.966
 4298TIP3    H112837   0.827   2.020   1.894
 4298TIP3    H212838   0.937   2.095   1.966
 4299TIP3   OH212839   5.145   7.492   3.676
 4299TIP3    H112840   5.121   7.584   3.676
 4299TIP3    H212841   5.240   7.491   3.687
 4300TIP3   OH212842   1.047   5.862   5.224
 4300TIP3    H112843   1.058   5.947   5.180
 4300TIP3    H212844   1.000   5.808   5.160
 4301TIP3   OH212845   3.735   0.361   2.898
 4301TIP3    H112846   3.821   0.358   2.941
 4301TIP3    H212847   3.702   0.449   2.916
 4302TIP3   OH212848   3.554   5.959   0.927
 4302TIP3    H112849   3.643   5.992   0.938
 4302TIP3    H212850   3.522   6.003   0.848
 4303TIP3   OH212851   0.714   0.321   0.642
 4303TIP3    H112852   0.809   0.333   0.647
 4303TIP3    H212853   0.678   0.395   0.690
 4304TIP3   OH212854   5.706   3.444   5.795
 4304TIP3    H112855   5.650   3.367   5.799
 4304TIP3    H212856   5.694   3.477   5.706
 4305TIP3   OH212857   7.067   6.523   0.896
 4305TIP3    H112858   7.056   6.485   0.984
 4305TIP3    H212859   7.151   6.489   0.866
 4306TIP3   OH212860   4.868   5.443   3.354
 4306TIP3    H112861   4.892   5.420   3.264
 4306TIP3    H212862   4.945   5.488   3.389
 4307TIP3   OH212863   2.102   5.008   2.443
 4307TIP3    H112864   2.007   5.019   2.446
 4307TIP3    H212865   2.120   4.975   2.355
 4308TIP3   OH212866   2.680   0.083   0.487
 4308TIP3    H112867   2.709   0.093   0.397
 4308TIP3    H212868   2.744   0.025   0.528
 4309TIP3   OH212869   1.754   7.763   6.213
 4309TIP3    H112870   1.686   7.830   6.217
 4309TIP3    H212871   1.807   7.777   6.292
 4310TIP3   OH212872   3.547   3.359   4.271
 4310TIP3    H112873   3.597   3.395   4.198
 4310TIP3    H212874   3.569   3.415   4.345
 4311TIP3   OH212875   3.959   6.980   1.766
 4311TIP3    H112876   3.951   7.075   1.762
 4311TIP3    H212877   4.050   6.965   1.792
 4312TIP3   OH212878   0.538   3.120   1.921
 4312TIP3    H112879   0.455   3.166   1.933
 4312TIP3    H212880   0.548   3.066   1.999
 4313TIP3   OH212881   6.955   1.070   2.783
 4313TIP3    H112882   6.964   0.999   2.846
 4313TIP3    H212883   6.866   1.102   2.795
 4314TIP3   OH212884   0.320   4.457   5.172
 4314TIP3    H112885   0.317   4.552   5.160
 4314TIP3    H212886   0.384   4.444   5.242
 4315TIP3   OH212887   6.466   6.799   3.371
 4315TIP3    H112888   6.458   6.783   3.277
 4315TIP3    H212889   6.511   6.722   3.406
 4316TIP3   OH212890   3.143   0.443   2.909
 4316TIP3    H112891   3.228   0.411   2.939
 4316TIP3    H212892   3.164   0.515   2.850
 4317TIP3   OH212893   6.260   7.275   6.662
 4317TIP3    H112894   6.287   7.347   6.606
 4317TIP3    H212895   6.342   7.243   6.701
 4318TIP3   OH212896   0.090   1.307   4.968
 4318TIP3    H112897   0.007   1.290   4.923
 4318TIP3    H212898   0.142   1.356   4.904
 4319TIP3   OH212899   4.554   6.456   0.953
 4319TIP3    H112900   4.565   6.532   0.895
 4319TIP3    H212901   4.472   6.472   0.998
 4320TIP3   OH212902   4.415   6.607   5.153
 4320TIP3    H112903   4.445   6.537   5.211
 4320TIP3    H212904   4.321   6.615   5.171
 4321TIP3   OH212905   0.132   0.973   6.754
 4321TIP3    H112906   0.068   1.006   6.691
 4321TIP3    H212907   0.138   0.879   6.735
 4322TIP3   OH212908   2.022   2.685   1.648
 4322TIP3    H112909   2.006   2.639   1.566
 4322TIP3    H212910   2.055   2.617   1.707
 4323TIP3   OH212911   6.820   5.027   3.455
 4323TIP3    H112912   6.915   5.027   3.441
 4323TIP3    H212913   6.808   5.081   3.533
 4324TIP3   OH212914   2.909   0.002   0.649
 4324TIP3    H112915   2.969  -0.048   0.704
 4324TIP3    H212916   2.965   0.052   0.590
 4325TIP3   OH212917   7.367   4.838   1.841
 4325TIP3    H112918   7.406   4.885   1.767
 4325TIP3    H212919   7.439   4.828   1.903
 4326TIP3   OH212920   8.154   6.074   5.469
 4326TIP3    H112921   8.249   6.064   5.454
 4326TIP3    H212922   8.148   6.115   5.555
 4327TIP3   OH212923   2.629   2.351   2.725
 4327TIP3    H112924   2.707   2.334   2.778
 4327TIP3    H212925   2.629   2.282   2.658
 4328TIP3   OH212926   2.593   7.136   0.852
 4328TIP3    H112927   2.579   7.072   0.782
 4328TIP3    H212928   2.505   7.157   0.882
 4329TIP3   OH212929   4.963   3.993   1.446
 4329TIP3    H112930   4.993   4.084   1.454
 4329TIP3    H212931   4.947   3.982   1.352
 4330TIP3   OH212932   4.355   5.418   2.532
 4330TIP3    H112933   4.286   5.404   2.598
 4330TIP3    H212934   4.318   5.484   2.473
 4331TIP3   OH212935   0.110   6.814   0.464
 4331TIP3    H112936   0.038   6.755   0.486
 4331TIP3    H212937   0.160   6.766   0.397
 4332TIP3   OH212938   2.679   4.384   1.200
 4332TIP3    H112939   2.734   4.368   1.277
 4332TIP3    H212940   2.707   4.470   1.168
 4333TIP3   OH212941   2.011   0.156   3.160
 4333TIP3    H112942   1.979   0.237   3.199
 4333TIP3    H212943   2.090   0.182   3.113
 4334TIP3   OH212944   1.997   7.011   3.264
 4334TIP3    H112945   2.025   6.994   3.174
 4334TIP3    H212946   1.951   6.931   3.290
 4335TIP3   OH212947   3.466   0.251   6.418
 4335TIP3    H112948   3.420   0.171   6.444
 4335TIP3    H212949   3.468   0.249   6.323
 4336TIP3   OH212950   8.031   3.948   1.340
 4336TIP3    H112951   8.055   3.964   1.431
 4336TIP3    H212952   7.990   4.030   1.311
 4337TIP3   OH212953   2.043   6.708   0.642
 4337TIP3    H112954   2.071   6.747   0.725
 4337TIP3    H212955   2.125   6.689   0.596
 4338TIP3   OH212956   7.819   3.451   4.533
 4338TIP3    H112957   7.754   3.409   4.589
 4338TIP3    H212958   7.903   3.415   4.561
 4339TIP3   OH212959   4.282   0.748   0.668
 4339TIP3    H112960   4.370   0.711   0.658
 4339TIP3    H212961   4.246   0.703   0.744
 4340TIP3   OH212962   0.552   0.552   0.809
 4340TIP3    H112963   0.559   0.471   0.859
 4340TIP3    H212964   0.461   0.580   0.821
 4341TIP3   OH212965   5.434   6.871   3.530
 4341TIP3    H112966   5.525   6.887   3.555
 4341TIP3    H212967   5.420   6.778   3.551
 4342TIP3   OH212968   2.941   3.716   1.650
 4342TIP3    H112969   2.917   3.625   1.632
 4342TIP3    H212970   2.857   3.763   1.649
 4343TIP3   OH212971   0.915   2.800   2.606
 4343TIP3    H112972   0.837   2.758   2.572
 4343TIP3    H212973   0.882   2.862   2.671
 4344TIP3   OH212974   2.379   0.945   1.249
 4344TIP3    H112975   2.401   0.973   1.338
 4344TIP3    H212976   2.456   0.896   1.220
 4345TIP3   OH212977   2.433   2.454   5.996
 4345TIP3    H112978   2.447   2.495   5.911
 4345TIP3    H212979   2.357   2.500   6.032
 4346TIP3   OH212980   0.132   0.528   0.087
 4346TIP3    H112981   0.188   0.603   0.067
 4346TIP3    H212982   0.044   0.558   0.067
 4347TIP3   OH212983   0.812   7.616   2.374
 4347TIP3    H112984   0.905   7.635   2.362
 4347TIP3    H212985   0.804   7.522   2.361
 4348TIP3   OH212986   6.846   2.249   6.090
 4348TIP3    H112987   6.809   2.199   6.163
 4348TIP3    H212988   6.791   2.225   6.015
 4349TIP3   OH212989   6.946   6.635   5.782
 4349TIP3    H112990   7.032   6.638   5.741
 4349TIP3    H212991   6.956   6.685   5.863
 4350TIP3   OH212992   5.884   3.695   2.386
 4350TIP3    H112993   5.881   3.620   2.327
 4350TIP3    H212994   5.962   3.681   2.439
 4351TIP3   OH212995   5.904   0.339   0.118
 4351TIP3    H112996   5.895   0.323   0.024
 4351TIP3    H212997   5.841   0.409   0.136
 4352TIP3   OH212998   7.823   0.308   1.075
 4352TIP3    H112999   7.867   0.284   0.993
 4352TIP3    H213000   7.803   0.401   1.066
 4353TIP3   OH213001   6.464   5.132   0.260
 4353TIP3    H113002   6.423   5.052   0.293
 4353TIP3    H213003   6.393   5.178   0.215
 4354TIP3   OH213004   7.607   6.311   4.362
 4354TIP3    H113005   7.535   6.304   4.299
 4354TIP3    H213006   7.573   6.269   4.441
 4355TIP3   OH213007   3.657   4.458   5.759
 4355TIP3    H113008   3.563   4.446   5.760
 4355TIP3    H213009   3.676   4.494   5.672
 4356TIP3   OH213010   7.656   2.643   2.737
 4356TIP3    H113011   7.617   2.574   2.683
 4356TIP3    H213012   7.613   2.723   2.709
 4357TIP3   OH213013   3.975   0.396   0.826
 4357TIP3    H113014   3.942   0.325   0.771
 4357TIP3    H213015   4.069   0.380   0.832
 4358TIP3   OH213016   2.754   0.931   2.350
 4358TIP3    H113017   2.685   0.868   2.370
 4358TIP3    H213018   2.708   1.013   2.335
 4359TIP3   OH213019   1.533   5.009   1.033
 4359TIP3    H113020   1.615   4.998   1.082
 4359TIP3    H213021   1.466   4.974   1.091
 4360TIP3   OH213022   1.404   3.179   0.665
 4360TIP3    H113023   1.442   3.255   0.621
 4360TIP3    H213024   1.459   3.165   0.742
 4361TIP3   OH213025   8.022   5.503   3.968
 4361TIP3    H113026   8.098   5.552   3.938
 4361TIP3    H213027   7.964   5.500   3.892
 4362TIP3   OH213028   5.662   6.273   4.476
 4362TIP3    H113029   5.691   6.341   4.536
 4362TIP3    H213030   5.731   6.207   4.480
 4363TIP3   OH213031   3.145   6.635   5.802
 4363TIP3    H113032   3.235   6.609   5.783
 4363TIP3    H213033   3.113   6.569   5.864
 4364TIP3   OH213034   7.353   5.723   3.477
 4364TIP3    H113035   7.429   5.748   3.424
 4364TIP3    H213036   7.365   5.771   3.559
 4365TIP3   OH213037   8.162   1.673   5.766
 4365TIP3    H113038   8.181   1.683   5.859
 4365TIP3    H213039   8.192   1.755   5.727
 4366TIP3   OH213040   2.593   3.321   0.822
 4366TIP3    H113041   2.552   3.266   0.889
 4366TIP3    H213042   2.583   3.270   0.741
 4367TIP3   OH213043   7.560   0.217   6.398
 4367TIP3    H113044   7.570   0.123   6.414
 4367TIP3    H213045   7.649   0.248   6.382
 4368TIP3   OH213046   4.866   0.679   5.383
 4368TIP3    H113047   4.933   0.693   5.316
 4368TIP3    H213048   4.872   0.586   5.404
 4369TIP3   OH213049   0.164   4.687   6.536
 4369TIP3    H113050   0.085   4.739   6.519
 4369TIP3    H213051   0.173   4.689   6.631
 4370TIP3   OH213052   6.639   2.229   5.889
 4370TIP3    H113053   6.670   2.319   5.895
 4370TIP3    H213054   6.555   2.236   5.842
 4371TIP3   OH213055   6.049   3.420   5.080
 4371TIP3    H113056   6.073   3.490   5.019
 4371TIP3    H213057   6.037   3.343   5.025
 4372TIP3   OH213058   3.547   0.080   5.101
 4372TIP3    H113059   3.500   0.032   5.169
 4372TIP3    H213060   3.491   0.072   5.023
 4373TIP3   OH213061   0.231   2.801   2.452
 4373TIP3    H113062   0.136   2.787   2.450
 4373TIP3    H213063   0.241   2.890   2.485
 4374TIP3   OH213064   0.293   2.473   0.183
 4374TIP3    H113065   0.386   2.495   0.175
 4374TIP3    H213066   0.265   2.454   0.094
 4375TIP3   OH213067   5.287   0.623   5.096
 4375TIP3    H113068   5.326   0.605   5.010
 4375TIP3    H213069   5.291   0.538   5.141
 4376TIP3   OH213070   5.812   7.390   5.972
 4376TIP3    H113071   5.875   7.406   5.901
 4376TIP3    H213072   5.749   7.329   5.935
 4377TIP3   OH213073   3.187   0.468   3.838
 4377TIP3    H113074   3.167   0.500   3.926
 4377TIP3    H213075   3.268   0.417   3.849
 4378TIP3   OH213076   4.189   1.005   0.785
 4378TIP3    H113077   4.237   0.924   0.768
 4378TIP3    H213078   4.161   0.997   0.877
 4379TIP3   OH213079   4.087   6.898   2.587
 4379TIP3    H113080   4.128   6.978   2.618
 4379TIP3    H213081   4.110   6.832   2.653
 4380TIP3   OH213082   8.213   6.695   5.706
 4380TIP3    H113083   8.212   6.618   5.648
 4380TIP3    H213084   8.218   6.658   5.794
 4381TIP3   OH213085   5.338   2.609   0.840
 4381TIP3    H113086   5.324   2.701   0.816
 4381TIP3    H213087   5.423   2.607   0.882
 4382TIP3   OH213088   6.148   3.250   2.925
 4382TIP3    H113089   6.181   3.257   2.836
 4382TIP3    H213090   6.055   3.271   2.918
 4383TIP3   OH213091   6.715   3.787   2.009
 4383TIP3    H113092   6.804   3.757   1.993
 4383TIP3    H213093   6.714   3.815   2.100
 4384TIP3   OH213094   7.778   0.577   3.938
 4384TIP3    H113095   7.726   0.647   3.976
 4384TIP3    H213096   7.865   0.615   3.927
 4385TIP3   OH213097   2.553   3.150   5.814
 4385TIP3    H113098   2.533   3.112   5.900
 4385TIP3    H213099   2.509   3.093   5.751
 4386TIP3   OH213100   3.611   0.573   5.277
 4386TIP3    H113101   3.594   0.479   5.265
 4386TIP3    H213102   3.671   0.596   5.206
 4387TIP3   OH213103   0.067   3.815   0.322
 4387TIP3    H113104  -0.020   3.854   0.329
 4387TIP3    H213105   0.124   3.888   0.298
 4388TIP3   OH213106   7.078   0.852   3.837
 4388TIP3    H113107   7.164   0.887   3.858
 4388TIP3    H213108   7.064   0.876   3.745
 4389TIP3   OH213109   2.115   2.309   1.992
 4389TIP3    H113110   2.020   2.303   2.004
 4389TIP3    H213111   2.152   2.292   2.079
 4390TIP3   OH213112   0.045   4.202   0.078
 4390TIP3    H113113  -0.050   4.195   0.083
 4390TIP3    H213114   0.077   4.154   0.154
 4391TIP3   OH213115   0.735   5.260   4.946
 4391TIP3    H113116   0.743   5.166   4.926
 4391TIP3    H213117   0.686   5.262   5.029
 4392TIP3   OH213118   0.251   0.857   6.053
 4392TIP3    H113119   0.337   0.822   6.075
 4392TIP3    H213120   0.269   0.940   6.009
 4393TIP3   OH213121   7.379   5.588   2.581
 4393TIP3    H113122   7.379   5.551   2.494
 4393TIP3    H213123   7.468   5.623   2.593
 4394TIP3   OH213124   2.394   6.742   5.013
 4394TIP3    H113125   2.446   6.809   4.969
 4394TIP3    H213126   2.429   6.739   5.102
 4395TIP3   OH213127   7.307   4.934   4.269
 4395TIP3    H113128   7.357   4.873   4.323
 4395TIP3    H213129   7.267   4.994   4.333
 4396TIP3   OH213130   3.600   3.241   4.925
 4396TIP3    H113131   3.605   3.175   4.994
 4396TIP3    H213132   3.660   3.209   4.858
 4397TIP3   OH213133   6.230   0.920   6.170
 4397TIP3    H113134   6.308   0.881   6.129
 4397TIP3    H213135   6.162   0.853   6.161
 4398TIP3   OH213136   2.072   3.608   1.784
 4398TIP3    H113137   1.984   3.626   1.751
 4398TIP3    H213138   2.128   3.672   1.741
 4399TIP3   OH213139   4.798   6.252   5.982
 4399TIP3    H113140   4.787   6.160   5.959
 4399TIP3    H213141   4.890   6.259   6.009
 4400TIP3   OH213142   0.432   6.360   4.296
 4400TIP3    H113143   0.503   6.390   4.240
 4400TIP3    H213144   0.471   6.292   4.351
 4401TIP3   OH213145   4.722   0.616   3.643
 4401TIP3    H113146   4.779   0.613   3.720
 4401TIP3    H213147   4.760   0.685   3.588
 4402TIP3   OH213148   3.507   4.780   3.991
 4402TIP3    H113149   3.579   4.818   4.040
 4402TIP3    H213150   3.534   4.690   3.974
 4403TIP3   OH213151   1.580   1.048   2.765
 4403TIP3    H113152   1.511   0.982   2.765
 4403TIP3    H213153   1.569   1.096   2.847
 4404TIP3   OH213154   7.694   6.052   2.470
 4404TIP3    H113155   7.669   6.085   2.556
 4404TIP3    H213156   7.789   6.040   2.475
 4405TIP3   OH213157   1.197   4.366   4.396
 4405TIP3    H113158   1.105   4.340   4.402
 4405TIP3    H213159   1.241   4.289   4.360
 4406TIP3   OH213160   3.885   3.822   1.751
 4406TIP3    H113161   3.894   3.785   1.663
 4406TIP3    H213162   3.847   3.751   1.803
 4407TIP3   OH213163   8.219   2.325   6.053
 4407TIP3    H113164   8.179   2.394   6.001
 4407TIP3    H213165   8.152   2.257   6.059
 4408TIP3   OH213166   3.758   4.256   2.054
 4408TIP3    H113167   3.771   4.214   2.139
 4408TIP3    H213168   3.825   4.324   2.050
 4409TIP3   OH213169   5.371   3.472   1.892
 4409TIP3    H113170   5.319   3.541   1.933
 4409TIP3    H213171   5.340   3.468   1.802
 4410TIP3   OH213172   1.749   4.424   4.394
 4410TIP3    H113173   1.665   4.443   4.354
 4410TIP3    H213174   1.766   4.332   4.372
 4411TIP3   OH213175   4.274   7.255   4.023
 4411TIP3    H113176   4.241   7.186   3.966
 4411TIP3    H213177   4.209   7.325   4.017
 4412TIP3   OH213178   0.201   6.231   5.778
 4412TIP3    H113179   0.226   6.138   5.775
 4412TIP3    H213180   0.285   6.278   5.773
 4413TIP3   OH213181   6.488   0.122   2.073
 4413TIP3    H113182   6.516   0.213   2.085
 4413TIP3    H213183   6.559   0.071   2.112
 4414TIP3   OH213184   7.356   1.591   5.073
 4414TIP3    H113185   7.317   1.511   5.107
 4414TIP3    H213186   7.397   1.565   4.990
 4415TIP3   OH213187   2.808   4.427   5.978
 4415TIP3    H113188   2.768   4.506   5.941
 4415TIP3    H213189   2.759   4.355   5.938
 4416TIP3   OH213190   3.770   1.707   0.151
 4416TIP3    H113191   3.686   1.708   0.105
 4416TIP3    H213192   3.768   1.784   0.208
 4417TIP3   OH213193   7.330   0.928   6.742
 4417TIP3    H113194   7.415   0.884   6.748
 4417TIP3    H213195   7.351   1.018   6.716
 4418TIP3   OH213196   0.798   5.133   0.978
 4418TIP3    H113197   0.767   5.191   0.908
 4418TIP3    H213198   0.823   5.193   1.048
 4419TIP3   OH213199  -0.046   6.949   5.535
 4419TIP3    H113200  -0.014   6.898   5.610
 4419TIP3    H213201  -0.092   6.885   5.481
 4420TIP3   OH213202   7.923   6.050   6.126
 4420TIP3    H113203   7.893   5.975   6.075
 4420TIP3    H213204   7.848   6.071   6.183
 4421TIP3   OH213205   0.513   0.664   5.797
 4421TIP3    H113206   0.580   0.688   5.860
 4421TIP3    H213207   0.488   0.747   5.756
 4422TIP3   OH213208   4.174   2.414   1.780
 4422TIP3    H113209   4.217   2.361   1.712
 4422TIP3    H213210   4.182   2.504   1.749
 4423TIP3   OH213211   0.589   3.237   3.291
 4423TIP3    H113212   0.566   3.315   3.242
 4423TIP3    H213213   0.603   3.268   3.381
 4424TIP3   OH213214   2.661   2.476   5.211
 4424TIP3    H113215   2.633   2.515   5.128
 4424TIP3    H213216   2.738   2.423   5.188
 4425TIP3   OH213217   7.573   6.859   0.564
 4425TIP3    H113218   7.520   6.806   0.505
 4425TIP3    H213219   7.522   6.939   0.578
 4426TIP3   OH213220   1.340   7.387   6.360
 4426TIP3    H113221   1.396   7.339   6.299
 4426TIP3    H213222   1.365   7.478   6.349
 4427TIP3   OH213223   3.122   5.359   5.048
 4427TIP3    H113224   3.200   5.358   5.104
 4427TIP3    H213225   3.128   5.279   4.996
 4428TIP3   OH213226   4.256   5.078   5.639
 4428TIP3    H113227   4.268   5.074   5.545
 4428TIP3    H213228   4.161   5.080   5.651
 4429TIP3   OH213229   0.632   1.448   6.493
 4429TIP3    H113230   0.649   1.465   6.400
 4429TIP3    H213231   0.705   1.392   6.521
 4430TIP3   OH213232   3.271   6.511   3.298
 4430TIP3    H113233   3.239   6.517   3.388
 4430TIP3    H213234   3.197   6.539   3.245
 4431TIP3   OH213235   3.168   0.601   4.498
 4431TIP3    H113236   3.178   0.614   4.593
 4431TIP3    H213237   3.234   0.658   4.459
 4432TIP3   OH213238   5.897   6.497   5.712
 4432TIP3    H113239   5.963   6.450   5.661
 4432TIP3    H213240   5.911   6.467   5.802
 4433TIP3   OH213241   4.283   6.861   0.984
 4433TIP3    H113242   4.193   6.855   0.953
 4433TIP3    H213243   4.312   6.948   0.957
 4434TIP3   OH213244   4.782   2.854   5.054
 4434TIP3    H113245   4.869   2.819   5.074
 4434TIP3    H213246   4.778   2.939   5.097
 4435TIP3   OH213247   0.282   7.478   0.288
 4435TIP3    H113248   0.262   7.562   0.247
 4435TIP3    H213249   0.351   7.441   0.234
 4436TIP3   OH213250   1.487   4.173   0.900
 4436TIP3    H113251   1.510   4.201   0.989
 4436TIP3    H213252   1.551   4.106   0.878
 4437TIP3   OH213253   3.300   5.387   1.012
 4437TIP3    H113254   3.246   5.427   0.943
 4437TIP3    H213255   3.390   5.394   0.978
 4438TIP3   OH213256   3.592   4.038   0.091
 4438TIP3    H113257   3.617   4.053   0.183
 4438TIP3    H213258   3.506   3.996   0.096
 4439TIP3   OH213259   6.324   1.476   4.728
 4439TIP3    H113260   6.380   1.463   4.652
 4439TIP3    H213261   6.331   1.394   4.777
 4440TIP3   OH213262   2.972   5.051   6.680
 4440TIP3    H113263   2.971   5.145   6.697
 4440TIP3    H213264   3.063   5.025   6.694
 4441TIP3   OH213265   1.110   3.762   6.338
 4441TIP3    H113266   1.102   3.667   6.342
 4441TIP3    H213267   1.022   3.794   6.356
 4442TIP3   OH213268   4.801   0.153   1.709
 4442TIP3    H113269   4.840   0.186   1.628
 4442TIP3    H213270   4.710   0.184   1.705
 4443TIP3   OH213271   5.800   0.236   4.051
 4443TIP3    H113272   5.715   0.216   4.090
 4443TIP3    H213273   5.792   0.212   3.959
 4444TIP3   OH213274   0.778   0.344   4.052
 4444TIP3    H113275   0.773   0.388   3.968
 4444TIP3    H213276   0.820   0.260   4.034
 4445TIP3   OH213277   0.251   5.115   3.875
 4445TIP3    H113278   0.210   5.058   3.941
 4445TIP3    H213279   0.330   5.148   3.918
 4446TIP3   OH213280   3.756   2.083   2.008
 4446TIP3    H113281   3.820   2.154   2.007
 4446TIP3    H213282   3.716   2.085   1.922
 4447TIP3   OH213283   4.641   5.105   5.154
 4447TIP3    H113284   4.583   5.030   5.155
 4447TIP3    H213285   4.596   5.172   5.206
 4448TIP3   OH213286   4.593   4.406   4.814
 4448TIP3    H113287   4.666   4.401   4.875
 4448TIP3    H213288   4.623   4.465   4.745
 4449TIP3   OH213289   6.008   6.307   4.477
 4449TIP3    H113290   6.054   6.319   4.393
 4449TIP3    H213291   5.977   6.216   4.474
 4450TIP3   OH213292   1.221   5.338   2.162
 4450TIP3    H113293   1.251   5.414   2.212
 4450TIP3    H213294   1.217   5.368   2.072
 4451TIP3   OH213295   4.262   6.042   1.914
 4451TIP3    H113296   4.243   6.100   1.987
 4451TIP3    H213297   4.350   6.067   1.886
 4452TIP3   OH213298   3.661   3.380   6.703
 4452TIP3    H113299   3.694   3.303   6.750
 4452TIP3    H213300   3.661   3.353   6.611
 4453TIP3   OH213301   0.189   3.873   3.281
 4453TIP3    H113302   0.179   3.792   3.330
 4453TIP3    H213303   0.111   3.878   3.226
 4454TIP3   OH213304   3.264   5.536   0.532
 4454TIP3    H113305   3.298   5.571   0.614
 4454TIP3    H213306   3.340   5.531   0.474
 4455TIP3   OH213307   4.939   5.642   6.722
 4455TIP3    H113308   4.996   5.694   6.779
 4455TIP3    H213309   4.938   5.690   6.639
 4456TIP3   OH213310   5.560   0.170   4.139
 4456TIP3    H113311   5.473   0.136   4.160
 4456TIP3    H213312   5.546   0.228   4.065
 4457TIP3   OH213313   3.575   5.816   3.548
 4457TIP3    H113314   3.549   5.724   3.535
 4457TIP3    H213315   3.624   5.838   3.468
 4458TIP3   OH213316   7.278   6.366   3.871
 4458TIP3    H113317   7.242   6.341   3.956
 4458TIP3    H213318   7.210   6.421   3.832
 4459TIP3   OH213319   6.711   2.181   2.934
 4459TIP3    H113320   6.635   2.239   2.924
 4459TIP3    H213321   6.779   2.221   2.879
 4460TIP3   OH213322   1.311   6.122   1.243
 4460TIP3    H113323   1.280   6.115   1.333
 4460TIP3    H213324   1.406   6.111   1.250
 4461TIP3   OH213325   1.069   3.911   3.117
 4461TIP3    H113326   0.990   3.955   3.148
 4461TIP3    H213327   1.073   3.830   3.168
 4462TIP3   OH213328   6.281   7.263   2.685
 4462TIP3    H113329   6.265   7.344   2.732
 4462TIP3    H213330   6.213   7.203   2.716
 4463TIP3   OH213331   5.026   3.011   5.349
 4463TIP3    H113332   5.021   3.009   5.253
 4463TIP3    H213333   5.035   3.104   5.370
 4464TIP3   OH213334   1.499   2.205   0.123
 4464TIP3    H113335   1.564   2.155   0.172
 4464TIP3    H213336   1.435   2.140   0.094
 4465TIP3   OH213337   3.139   4.777   1.454
 4465TIP3    H113338   3.133   4.763   1.548
 4465TIP3    H213339   3.230   4.758   1.432
 4466TIP3   OH213340   7.476   1.550   4.562
 4466TIP3    H113341   7.506   1.629   4.517
 4466TIP3    H213342   7.523   1.479   4.520
 4467TIP3   OH213343   2.259   0.744   6.453
 4467TIP3    H113344   2.170   0.709   6.464
 4467TIP3    H213345   2.264   0.765   6.359
 4468TIP3   OH213346   0.149   1.008   3.116
 4468TIP3    H113347   0.076   0.947   3.108
 4468TIP3    H213348   0.154   1.028   3.209
 4469TIP3   OH213349   3.904   1.406   4.399
 4469TIP3    H113350   3.887   1.466   4.472
 4469TIP3    H213351   3.894   1.460   4.321
 4470TIP3   OH213352   0.575   1.498   0.595
 4470TIP3    H113353   0.495   1.530   0.637
 4470TIP3    H213354   0.604   1.570   0.539
 4471TIP3   OH213355   0.284   3.592   1.402
 4471TIP3    H113356   0.324   3.585   1.315
 4471TIP3    H213357   0.222   3.519   1.406
 4472TIP3   OH213358   0.892   5.512   5.396
 4472TIP3    H113359   0.920   5.447   5.331
 4472TIP3    H213360   0.880   5.462   5.477
 4473TIP3   OH213361   4.647   6.265   0.742
 4473TIP3    H113362   4.646   6.337   0.805
 4473TIP3    H213363   4.707   6.200   0.779
 4474TIP3   OH213364   1.836   5.087   0.894
 4474TIP3    H113365   1.850   5.016   0.957
 4474TIP3    H213366   1.861   5.167   0.941
 4475TIP3   OH213367   3.888   1.380   5.666
 4475TIP3    H113368   3.904   1.449   5.602
 4475TIP3    H213369   3.794   1.386   5.684
 4476TIP3   OH213370   7.112   6.317   5.700
 4476TIP3    H113371   7.116   6.222   5.704
 4476TIP3    H213372   7.049   6.341   5.768
 4477TIP3   OH213373   1.893   6.554   2.337
 4477TIP3    H113374   1.855   6.637   2.310
 4477TIP3    H213375   1.831   6.519   2.402
 4478TIP3   OH213376   1.183   0.017   1.803
 4478TIP3    H113377   1.218  -0.017   1.886
 4478TIP3    H213378   1.142  -0.059   1.762
 4479TIP3   OH213379   5.258   7.200   3.068
 4479TIP3    H113380   5.334   7.242   3.108
 4479TIP3    H213381   5.226   7.140   3.135
 4480TIP3   OH213382   0.429   7.163   2.135
 4480TIP3    H113383   0.404   7.093   2.195
 4480TIP3    H213384   0.398   7.243   2.177
 4481TIP3   OH213385   7.262   3.256   3.152
 4481TIP3    H113386   7.172   3.276   3.127
 4481TIP3    H213387   7.295   3.337   3.190
 4482TIP3   OH213388   4.200   7.607   2.864
 4482TIP3    H113389   4.218   7.513   2.870
 4482TIP3    H213390   4.106   7.614   2.883
 4483TIP3   OH213391   6.660   3.052   3.150
 4483TIP3    H113392   6.619   3.125   3.195
 4483TIP3    H213393   6.587   2.995   3.125
 4484TIP3   OH213394   4.214   1.596   0.934
 4484TIP3    H113395   4.264   1.515   0.946
 4484TIP3    H213396   4.228   1.645   1.015
 4485TIP3   OH213397   8.127   4.313   3.347
 4485TIP3    H113398   8.200   4.374   3.337
 4485TIP3    H213399   8.164   4.239   3.395
 4486TIP3   OH213400   6.351   0.136   4.939
 4486TIP3    H113401   6.413   0.127   4.866
 4486TIP3    H213402   6.327   0.228   4.938
 4487TIP3   OH213403   6.039   2.261   6.133
 4487TIP3    H113404   6.029   2.353   6.108
 4487TIP3    H213405   5.998   2.255   6.219
 4488TIP3   OH213406   3.928   1.616   5.507
 4488TIP3    H113407   4.007   1.617   5.561
 4488TIP3    H213408   3.944   1.682   5.439
 4489TIP3   OH213409   4.474   7.417   4.785
 4489TIP3    H113410   4.447   7.330   4.757
 4489TIP3    H213411   4.416   7.477   4.738
 4490TIP3   OH213412   1.291   5.576   2.277
 4490TIP3    H113413   1.264   5.582   2.369
 4490TIP3    H213414   1.223   5.624   2.229
 4491TIP3   OH213415   1.947   4.138   0.367
 4491TIP3    H113416   1.911   4.213   0.320
 4491TIP3    H213417   2.042   4.151   0.366
 4492TIP3   OH213418   6.486   6.860   4.176
 4492TIP3    H113419   6.487   6.787   4.238
 4492TIP3    H213420   6.550   6.922   4.210
 4493TIP3   OH213421   5.185   1.670   5.234
 4493TIP3    H113422   5.270   1.706   5.209
 4493TIP3    H213423   5.121   1.732   5.199
 4494TIP3   OH213424   3.402   6.452   4.539
 4494TIP3    H113425   3.347   6.512   4.489
 4494TIP3    H213426   3.391   6.367   4.494
 4495TIP3   OH213427   4.756   3.097   3.013
 4495TIP3    H113428   4.685   3.040   2.987
 4495TIP3    H213429   4.719   3.153   3.081
 4496TIP3   OH213430   2.862   3.070   6.266
 4496TIP3    H113431   2.867   2.974   6.268
 4496TIP3    H213432   2.953   3.098   6.262
 4497TIP3   OH213433   7.362   0.970   1.947
 4497TIP3    H113434   7.268   0.978   1.929
 4497TIP3    H213435   7.377   1.025   2.023
 4498TIP3   OH213436   2.766   1.604   2.764
 4498TIP3    H113437   2.828   1.666   2.803
 4498TIP3    H213438   2.749   1.638   2.677
 4499TIP3   OH213439   2.585   2.122   2.566
 4499TIP3    H113440   2.500   2.117   2.610
 4499TIP3    H213441   2.644   2.073   2.622
 4500TIP3   OH213442   5.422   6.362   5.732
 4500TIP3    H113443   5.481   6.296   5.694
 4500TIP3    H213444   5.351   6.370   5.669
 4501TIP3   OH213445   0.295   6.338   6.548
 4501TIP3    H113446   0.281   6.261   6.493
 4501TIP3    H213447   0.222   6.396   6.526
 4502TIP3   OH213448   5.429   2.134   5.373
 4502TIP3    H113449   5.399   2.189   5.300
 4502TIP3    H213450   5.525   2.138   5.369
 4503TIP3   OH213451   0.465   6.691   6.042
 4503TIP3    H113452   0.505   6.762   5.992
 4503TIP3    H213453   0.452   6.729   6.130
 4504TIP3   OH213454   2.080   4.755   4.723
 4504TIP3    H113455   2.127   4.823   4.675
 4504TIP3    H213456   2.135   4.736   4.799
 4505TIP3   OH213457   7.334   1.006   5.391
 4505TIP3    H113458   7.282   1.070   5.342
 4505TIP3    H213459   7.315   1.024   5.483
 4506TIP3   OH213460   5.699   2.512   5.460
 4506TIP3    H113461   5.743   2.595   5.439
 4506TIP3    H213462   5.607   2.535   5.468
 4507TIP3   OH213463   6.843   0.639   3.047
 4507TIP3    H113464   6.887   0.590   2.977
 4507TIP3    H213465   6.760   0.666   3.008
 4508TIP3   OH213466   7.843   0.135   3.186
 4508TIP3    H113467   7.907   0.206   3.198
 4508TIP3    H213468   7.893   0.055   3.206
 4509TIP3   OH213469   4.574   5.574   1.908
 4509TIP3    H113470   4.661   5.591   1.943
 4509TIP3    H213471   4.526   5.657   1.921
 4510TIP3   OH213472   1.308   6.227   6.190
 4510TIP3    H113473   1.282   6.241   6.099
 4510TIP3    H213474   1.389   6.277   6.200
 4511TIP3   OH213475   5.327   4.912   0.538
 4511TIP3    H113476   5.405   4.968   0.543
 4511TIP3    H213477   5.288   4.918   0.626
 4512TIP3   OH213478   5.856   0.448   3.244
 4512TIP3    H113479   5.948   0.427   3.263
 4512TIP3    H213480   5.806   0.404   3.312
 4513TIP3   OH213481   7.631   0.570   2.191
 4513TIP3    H113482   7.609   0.476   2.195
 4513TIP3    H213483   7.551   0.613   2.221
 4514TIP3   OH213484   3.352   3.434   6.365
 4514TIP3    H113485   3.384   3.483   6.440
 4514TIP3    H213486   3.256   3.435   6.376
 4515TIP3   OH213487   4.698   7.432   5.784
 4515TIP3    H113488   4.699   7.411   5.691
 4515TIP3    H213489   4.741   7.357   5.826
 4516TIP3   OH213490   5.354   5.467   1.211
 4516TIP3    H113491   5.401   5.384   1.198
 4516TIP3    H213492   5.345   5.475   1.306
 4517TIP3   OH213493   1.483   2.119   3.556
 4517TIP3    H113494   1.420   2.102   3.625
 4517TIP3    H213495   1.435   2.173   3.493
 4518TIP3   OH213496   2.800   2.875   4.160
 4518TIP3    H113497   2.837   2.944   4.105
 4518TIP3    H213498   2.709   2.866   4.130
 4519TIP3   OH213499   7.528   5.754   3.894
 4519TIP3    H113500   7.445   5.776   3.937
 4519TIP3    H213501   7.527   5.806   3.813
 4520TIP3   OH213502   2.503   5.004   5.566
 4520TIP3    H113503   2.479   4.954   5.489
 4520TIP3    H213504   2.433   5.070   5.575
 4521TIP3   OH213505   4.805   7.335   0.071
 4521TIP3    H113506   4.865   7.385   0.015
 4521TIP3    H213507   4.784   7.395   0.143
 4522TIP3   OH213508   3.262   1.493   5.155
 4522TIP3    H113509   3.178   1.472   5.195
 4522TIP3    H213510   3.285   1.579   5.191
 4523TIP3   OH213511   0.794   4.326   3.911
 4523TIP3    H113512   0.699   4.340   3.905
 4523TIP3    H213513   0.830   4.415   3.917
 4524TIP3   OH213514   2.823   0.716   1.030
 4524TIP3    H113515   2.729   0.715   1.012
 4524TIP3    H213516   2.852   0.627   1.012
 4525TIP3   OH213517   7.931   4.735   5.241
 4525TIP3    H113518   7.921   4.766   5.331
 4525TIP3    H213519   7.841   4.723   5.210
 4526TIP3   OH213520   2.153   5.409   2.823
 4526TIP3    H113521   2.228   5.394   2.765
 4526TIP3    H213522   2.088   5.344   2.796
 4527TIP3   OH213523   5.893   7.325   3.053
 4527TIP3    H113524   5.936   7.242   3.031
 4527TIP3    H213525   5.882   7.321   3.148
 4528TIP3   OH213526   7.264   0.233   1.634
 4528TIP3    H113527   7.312   0.255   1.555
 4528TIP3    H213528   7.291   0.300   1.698
 4529TIP3   OH213529   3.500   5.481   6.429
 4529TIP3    H113530   3.519   5.388   6.433
 4529TIP3    H213531   3.442   5.490   6.353
 4530TIP3   OH213532   4.388   2.282   6.754
 4530TIP3    H113533   4.428   2.196   6.773
 4530TIP3    H213534   4.306   2.261   6.710
 4531TIP3   OH213535   2.336   1.965   5.053
 4531TIP3    H113536   2.338   1.870   5.069
 4531TIP3    H213537   2.276   1.975   4.979
 4532TIP3   OH213538   0.408   0.677   5.251
 4532TIP3    H113539   0.412   0.611   5.320
 4532TIP3    H213540   0.334   0.649   5.196
 4533TIP3   OH213541   2.362   4.862   1.499
 4533TIP3    H113542   2.368   4.928   1.568
 4533TIP3    H213543   2.453   4.841   1.478
 4534TIP3   OH213544   0.581   1.241   5.311
 4534TIP3    H113545   0.605   1.186   5.385
 4534TIP3    H213546   0.664   1.273   5.276
 4535TIP3   OH213547   4.316   6.592   0.023
 4535TIP3    H113548   4.349   6.627  -0.060
 4535TIP3    H213549   4.373   6.630   0.090
 4536TIP3   OH213550   4.400   4.515   4.994
 4536TIP3    H113551   4.385   4.601   4.954
 4536TIP3    H213552   4.453   4.467   4.931
 4537TIP3   OH213553   1.230   4.914   6.772
 4537TIP3    H113554   1.286   4.953   6.704
 4537TIP3    H213555   1.289   4.901   6.846
 4538TIP3   OH213556   7.396   3.550   2.411
 4538TIP3    H113557   7.308   3.530   2.443
 4538TIP3    H213558   7.405   3.645   2.422
 4539TIP3   OH213559   0.512   2.878   5.059
 4539TIP3    H113560   0.420   2.875   5.034
 4539TIP3    H213561   0.547   2.793   5.033
 4540TIP3   OH213562   3.224   6.271   0.590
 4540TIP3    H113563   3.266   6.353   0.616
 4540TIP3    H213564   3.297   6.211   0.575
 4541TIP3   OH213565   5.070   4.219   0.863
 4541TIP3    H113566   5.037   4.215   0.773
 4541TIP3    H213567   5.133   4.148   0.868
 4542TIP3   OH213568   3.731   3.558   6.201
 4542TIP3    H113569   3.786   3.503   6.145
 4542TIP3    H213570   3.661   3.589   6.143
 4543TIP3   OH213571   3.823   5.480   4.396
 4543TIP3    H113572   3.820   5.391   4.361
 4543TIP3    H213573   3.853   5.470   4.486
 4544TIP3   OH213574   8.029   2.483   4.097
 4544TIP3    H113575   8.004   2.471   4.189
 4544TIP3    H213576   7.946   2.483   4.049
 4545TIP3   OH213577   4.442   7.295   0.275
 4545TIP3    H113578   4.462   7.332   0.361
 4545TIP3    H213579   4.372   7.232   0.291
 4546TIP3   OH213580   3.009   6.924   6.618
 4546TIP3    H113581   3.028   7.012   6.651
 4546TIP3    H213582   3.023   6.931   6.524
 4547TIP3   OH213583   4.498   0.470   3.758
 4547TIP3    H113584   4.571   0.530   3.747
 4547TIP3    H213585   4.530   0.405   3.822
 4548TIP3   OH213586   3.524   7.099   6.606
 4548TIP3    H113587   3.458   7.029   6.598
 4548TIP3    H213588   3.490   7.155   6.676
 4549TIP3   OH213589   0.325   3.844   1.482
 4549TIP3    H113590   0.350   3.891   1.402
 4549TIP3    H213591   0.290   3.761   1.451
 4550TIP3   OH213592   0.934   2.287   6.429
 4550TIP3    H113593   0.938   2.383   6.426
 4550TIP3    H213594   0.896   2.267   6.514
 4551TIP3   OH213595   4.398   4.722   1.655
 4551TIP3    H113596   4.341   4.647   1.673
 4551TIP3    H213597   4.365   4.792   1.711
 4552TIP3   OH213598   4.970   3.266   5.486
 4552TIP3    H113599   4.920   3.315   5.420
 4552TIP3    H213600   4.906   3.242   5.553
 4553TIP3   OH213601   5.081   1.161   5.270
 4553TIP3    H113602   5.101   1.132   5.360
 4553TIP3    H213603   5.159   1.209   5.242
 4554TIP3   OH213604   7.413   7.177   6.111
 4554TIP3    H113605   7.460   7.260   6.111
 4554TIP3    H213606   7.334   7.195   6.061
 4555TIP3   OH213607   6.702   3.529   1.351
 4555TIP3    H113608   6.628   3.564   1.301
 4555TIP3    H213609   6.777   3.536   1.292
 4556TIP3   OH213610   2.299   4.752   2.875
 4556TIP3    H113611   2.337   4.668   2.903
 4556TIP3    H213612   2.205   4.741   2.890
 4557TIP3   OH213613   0.499   6.335   3.209
 4557TIP3    H113614   0.441   6.359   3.137
 4557TIP3    H213615   0.456   6.369   3.288
 4558TIP3   OH213616   3.000   1.768   2.807
 4558TIP3    H113617   3.060   1.703   2.842
 4558TIP3    H213618   3.027   1.850   2.847
 4559TIP3   OH213619   8.081   4.857   6.298
 4559TIP3    H113620   8.014   4.848   6.230
 4559TIP3    H213621   8.156   4.808   6.263
 4560TIP3   OH213622   0.290   1.695   3.870
 4560TIP3    H113623   0.364   1.676   3.812
 4560TIP3    H213624   0.327   1.749   3.939
 4561TIP3   OH213625   1.568   0.061   4.689
 4561TIP3    H113626   1.629   0.019   4.750
 4561TIP3    H213627   1.484   0.018   4.705
 4562TIP3   OH213628   5.336   7.352   2.809
 4562TIP3    H113629   5.252   7.339   2.765
 4562TIP3    H213630   5.321   7.325   2.900
 4563TIP3   OH213631   4.665   3.369   6.640
 4563TIP3    H113632   4.641   3.323   6.559
 4563TIP3    H213633   4.682   3.299   6.703
 4564TIP3   OH213634   2.426   1.952   1.349
 4564TIP3    H113635   2.377   1.903   1.415
 4564TIP3    H213636   2.494   1.891   1.319
 4565TIP3   OH213637   6.105   3.658   4.570
 4565TIP3    H113638   6.158   3.715   4.513
 4565TIP3    H213639   6.142   3.672   4.657
 4566TIP3   OH213640   6.507   5.267   0.666
 4566TIP3    H113641   6.477   5.188   0.621
 4566TIP3    H213642   6.426   5.313   0.690
 4567TIP3   OH213643   4.408   4.645   3.375
 4567TIP3    H113644   4.503   4.645   3.361
 4567TIP3    H213645   4.384   4.553   3.377
 4568TIP3   OH213646   7.480   4.725   6.574
 4568TIP3    H113647   7.454   4.654   6.516
 4568TIP3    H213648   7.552   4.689   6.626
 4569TIP3   OH213649   7.750   1.704   2.286
 4569TIP3    H113650   7.835   1.705   2.242
 4569TIP3    H213651   7.704   1.781   2.251
 4570TIP3   OH213652   4.042   3.763   3.130
 4570TIP3    H113653   3.970   3.729   3.077
 4570TIP3    H213654   4.060   3.850   3.094
 4571TIP3   OH213655   6.445   2.094   4.909
 4571TIP3    H113656   6.408   2.032   4.847
 4571TIP3    H213657   6.488   2.159   4.854
 4572TIP3   OH213658   3.977   3.829   4.158
 4572TIP3    H113659   3.914   3.895   4.189
 4572TIP3    H213660   3.962   3.753   4.214
 4573TIP3   OH213661   2.205   6.404   3.453
 4573TIP3    H113662   2.228   6.488   3.493
 4573TIP3    H213663   2.270   6.391   3.384
 4574TIP3   OH213664   6.558   1.064   3.956
 4574TIP3    H113665   6.523   1.136   4.009
 4574TIP3    H213666   6.524   0.985   3.998
 4575TIP3   OH213667   4.865   6.995   4.021
 4575TIP3    H113668   4.793   6.933   4.034
 4575TIP3    H213669   4.856   7.023   3.929
 4576TIP3   OH213670   8.191   2.379   0.690
 4576TIP3    H113671   8.147   2.301   0.655
 4576TIP3    H213672   8.218   2.428   0.613
 4577TIP3   OH213673   6.915   2.290   2.756
 4577TIP3    H113674   6.951   2.236   2.686
 4577TIP3    H213675   6.983   2.288   2.824
 4578TIP3   OH213676   2.857   3.247   0.667
 4578TIP3    H113677   2.769   3.210   0.670
 4578TIP3    H213678   2.880   3.262   0.758
 4579TIP3   OH213679   2.070   0.704   1.752
 4579TIP3    H113680   2.049   0.666   1.838
 4579TIP3    H213681   2.000   0.673   1.695
 4580TIP3   OH213682   4.422   6.309   1.576
 4580TIP3    H113683   4.423   6.359   1.494
 4580TIP3    H213684   4.370   6.231   1.555
 4581TIP3   OH213685   8.058   4.593   3.518
 4581TIP3    H113686   7.987   4.538   3.552
 4581TIP3    H213687   8.059   4.575   3.424
 4582TIP3   OH213688   7.595   7.064   1.289
 4582TIP3    H113689   7.663   7.061   1.222
 4582TIP3    H213690   7.640   7.042   1.370
 4583TIP3   OH213691   3.655   3.036   6.645
 4583TIP3    H113692   3.720   2.993   6.590
 4583TIP3    H213693   3.692   3.033   6.733
 4584TIP3   OH213694   1.978   2.378   0.147
 4584TIP3    H113695   2.065   2.350   0.177
 4584TIP3    H213696   1.926   2.298   0.149
 4585TIP3   OH213697   0.793   5.519   6.120
 4585TIP3    H113698   0.758   5.559   6.041
 4585TIP3    H213699   0.734   5.446   6.138
 4586TIP3   OH213700   1.949   1.815   1.066
 4586TIP3    H113701   2.031   1.819   1.114
 4586TIP3    H213702   1.969   1.856   0.981
 4587TIP3   OH213703   1.708   3.830   1.254
 4587TIP3    H113704   1.753   3.900   1.207
 4587TIP3    H213705   1.673   3.872   1.332
 4588TIP3   OH213706   5.460   2.651   2.929
 4588TIP3    H113707   5.381   2.682   2.884
 4588TIP3    H213708   5.476   2.715   2.998
 4589TIP3   OH213709   3.859   2.881   5.408
 4589TIP3    H113710   3.860   2.796   5.363
 4589TIP3    H213711   3.951   2.903   5.421
 4590TIP3   OH213712   7.849   6.924   5.652
 4590TIP3    H113713   7.806   6.855   5.602
 4590TIP3    H213714   7.777   6.984   5.676
 4591TIP3   OH213715   3.733   3.036   1.366
 4591TIP3    H113716   3.696   2.956   1.404
 4591TIP3    H213717   3.693   3.107   1.415
 4592TIP3   OH213718   0.275   1.784   2.434
 4592TIP3    H113719   0.309   1.696   2.419
 4592TIP3    H213720   0.338   1.842   2.390
 4593TIP3   OH213721   5.029   0.894   2.884
 4593TIP3    H113722   5.009   0.816   2.936
 4593TIP3    H213723   5.114   0.923   2.916
 4594TIP3   OH213724   0.588   7.146   4.097
 4594TIP3    H113725   0.527   7.148   4.171
 4594TIP3    H213726   0.646   7.221   4.111
 4595TIP3   OH213727   1.912   7.130   0.037
 4595TIP3    H113728   1.942   7.207  -0.011
 4595TIP3    H213729   1.935   7.149   0.128
 4596TIP3   OH213730   6.966   7.435   0.647
 4596TIP3    H113731   6.886   7.469   0.687
 4596TIP3    H213732   6.987   7.498   0.578
 4597TIP3   OH213733   0.384   5.885   0.963
 4597TIP3    H113734   0.391   5.946   1.036
 4597TIP3    H213735   0.444   5.814   0.985
 4598TIP3   OH213736   8.167   4.538   6.518
 4598TIP3    H113737   8.226   4.534   6.443
 4598TIP3    H213738   8.154   4.632   6.533
 4599TIP3   OH213739   1.621   0.335   1.175
 4599TIP3    H113740   1.573   0.319   1.256
 4599TIP3    H213741   1.631   0.248   1.136
 4600TIP3   OH213742   7.665   6.062   1.091
 4600TIP3    H113743   7.612   6.141   1.078
 4600TIP3    H213744   7.748   6.081   1.047
 4601TIP3   OH213745   7.205   1.489   3.680
 4601TIP3    H113746   7.243   1.408   3.645
 4601TIP3    H213747   7.270   1.520   3.743
 4602TIP3   OH213748   6.799   0.333   4.160
 4602TIP3    H113749   6.760   0.256   4.118
 4602TIP3    H213750   6.766   0.406   4.108
 4603TIP3   OH213751   4.192   0.760   3.656
 4603TIP3    H113752   4.202   0.665   3.663
 4603TIP3    H213753   4.267   0.795   3.704
 4604TIP3   OH213754   5.931   2.432   0.835
 4604TIP3    H113755   5.977   2.509   0.869
 4604TIP3    H213756   5.937   2.367   0.905
 4605TIP3   OH213757   5.113   6.324   4.201
 4605TIP3    H113758   5.063   6.376   4.264
 4605TIP3    H213759   5.072   6.344   4.117
 4606TIP3   OH213760   5.918   4.184   3.887
 4606TIP3    H113761   5.964   4.181   3.802
 4606TIP3    H213762   5.940   4.100   3.929
 4607TIP3   OH213763   6.187   5.087   4.709
 4607TIP3    H113764   6.099   5.111   4.681
 4607TIP3    H213765   6.238   5.167   4.700
 4608TIP3   OH213766   5.445   6.589   4.452
 4608TIP3    H113767   5.504   6.597   4.378
 4608TIP3    H213768   5.477   6.514   4.501
 4609TIP3   OH213769   0.760   7.274   1.217
 4609TIP3    H113770   0.812   7.310   1.289
 4609TIP3    H213771   0.781   7.330   1.142
 4610TIP3   OH213772   5.012   4.367   4.173
 4610TIP3    H113773   4.985   4.331   4.089
 4610TIP3    H213774   5.023   4.461   4.156
 4611TIP3   OH213775   1.282   5.646   3.889
 4611TIP3    H113776   1.330   5.659   3.971
 4611TIP3    H213777   1.194   5.621   3.916
 4612TIP3   OH213778   2.173   7.033   4.686
 4612TIP3    H113779   2.133   7.010   4.602
 4612TIP3    H213780   2.264   7.005   4.678
 4613TIP3   OH213781   3.285   1.245   6.392
 4613TIP3    H113782   3.363   1.191   6.379
 4613TIP3    H213783   3.225   1.216   6.323
 4614TIP3   OH213784   6.136   6.280   0.226
 4614TIP3    H113785   6.138   6.249   0.316
 4614TIP3    H213786   6.043   6.282   0.203
 4615TIP3   OH213787   1.948   6.352   4.341
 4615TIP3    H113788   1.880   6.371   4.277
 4615TIP3    H213789   1.977   6.439   4.371
 4616TIP3   OH213790   8.104   3.728   4.986
 4616TIP3    H113791   8.143   3.742   5.072
 4616TIP3    H213792   8.161   3.665   4.943
 4617TIP3   OH213793   2.182   2.999   3.575
 4617TIP3    H113794   2.252   3.064   3.576
 4617TIP3    H213795   2.227   2.915   3.585
 4618TIP3   OH213796   0.866   3.179   4.385
 4618TIP3    H113797   0.795   3.192   4.448
 4618TIP3    H213798   0.920   3.258   4.393
 4619TIP3   OH213799   4.236   5.155   5.363
 4619TIP3    H113800   4.229   5.095   5.289
 4619TIP3    H213801   4.173   5.224   5.344
 4620TIP3   OH213802   6.272   7.091   1.695
 4620TIP3    H113803   6.304   7.181   1.703
 4620TIP3    H213804   6.350   7.037   1.705
 4621TIP3   OH213805   6.694   3.519   5.707
 4621TIP3    H113806   6.622   3.507   5.769
 4621TIP3    H213807   6.763   3.561   5.758
 4622TIP3   OH213808   8.236   3.340   2.869
 4622TIP3    H113809   8.332   3.335   2.870
 4622TIP3    H213810   8.207   3.249   2.877
 4623TIP3   OH213811   1.044   2.680   4.556
 4623TIP3    H113812   1.101   2.695   4.632
 4623TIP3    H213813   1.039   2.765   4.513
 4624TIP3   OH213814   2.919   7.338   3.630
 4624TIP3    H113815   2.974   7.302   3.560
 4624TIP3    H213816   2.867   7.264   3.660
 4625TIP3   OH213817   0.932   5.674   5.019
 4625TIP3    H113818   0.847   5.630   5.017
 4625TIP3    H213819   0.958   5.679   4.927
 4626TIP3   OH213820   3.144   6.069   0.372
 4626TIP3    H113821   3.221   6.049   0.319
 4626TIP3    H213822   3.163   6.031   0.457
 4627TIP3   OH213823   5.190   1.240   3.161
 4627TIP3    H113824   5.206   1.270   3.072
 4627TIP3    H213825   5.108   1.192   3.156
 4628TIP3   OH213826   7.406   4.237   3.043
 4628TIP3    H113827   7.443   4.318   3.010
 4628TIP3    H213828   7.360   4.262   3.123
 4629TIP3   OH213829   0.031   6.033   3.839
 4629TIP3    H113830  -0.051   6.025   3.887
 4629TIP3    H213831   0.018   6.109   3.782
 4630TIP3   OH213832   1.233   6.267   0.729
 4630TIP3    H113833   1.215   6.359   0.709
 4630TIP3    H213834   1.201   6.219   0.653
 4631TIP3   OH213835   3.761   0.940   0.474
 4631TIP3    H113836   3.815   0.913   0.548
 4631TIP3    H213837   3.750   1.035   0.486
 4632TIP3   OH213838   5.646   0.754   0.670
 4632TIP3    H113839   5.609   0.842   0.661
 4632TIP3    H213840   5.624   0.728   0.759
 4633TIP3   OH213841   5.797   1.078   5.610
 4633TIP3    H113842   5.873   1.080   5.552
 4633TIP3    H213843   5.737   1.143   5.572
 4634TIP3   OH213844   3.438   2.685   5.960
 4634TIP3    H113845   3.450   2.633   5.881
 4634TIP3    H213846   3.357   2.653   5.999
 4635TIP3   OH213847   2.660   6.433   1.654
 4635TIP3    H113848   2.744   6.463   1.689
 4635TIP3    H213849   2.670   6.441   1.559
 4636TIP3   OH213850   7.994   5.078   3.948
 4636TIP3    H113851   8.081   5.042   3.963
 4636TIP3    H213852   7.959   5.027   3.875
 4637TIP3   OH213853   7.000   1.067   1.356
 4637TIP3    H113854   7.066   1.043   1.421
 4637TIP3    H213855   6.924   1.012   1.379
 4638TIP3   OH213856   4.005   6.976  -0.002
 4638TIP3    H113857   4.009   7.040  -0.073
 4638TIP3    H213858   3.925   6.998   0.046
 4639TIP3   OH213859   4.472   7.583   4.463
 4639TIP3    H113860   4.501   7.625   4.545
 4639TIP3    H213861   4.413   7.647   4.423
 4640TIP3   OH213862   7.200   4.094   6.618
 4640TIP3    H113863   7.250   4.057   6.692
 4640TIP3    H213864   7.267   4.128   6.559
 4641TIP3   OH213865   1.050   4.589   3.513
 4641TIP3    H113866   0.993   4.604   3.588
 4641TIP3    H213867   1.029   4.658   3.451
 4642TIP3   OH213868   5.518   2.966   6.597
 4642TIP3    H113869   5.501   3.055   6.567
 4642TIP3    H213870   5.498   2.968   6.691
 4643TIP3   OH213871   7.342   0.486   4.677
 4643TIP3    H113872   7.335   0.455   4.586
 4643TIP3    H213873   7.335   0.407   4.730
 4644TIP3   OH213874   5.864   2.579   4.255
 4644TIP3    H113875   5.795   2.638   4.287
 4644TIP3    H213876   5.855   2.583   4.160
 4645TIP3   OH213877   6.473   0.402   0.720
 4645TIP3    H113878   6.460   0.493   0.749
 4645TIP3    H213879   6.409   0.352   0.771
 4646TIP3   OH213880   7.985   4.912   4.811
 4646TIP3    H113881   7.935   4.954   4.881
 4646TIP3    H213882   7.928   4.919   4.734
 4647TIP3   OH213883   6.779   5.013   6.174
 4647TIP3    H113884   6.684   5.026   6.164
 4647TIP3    H213885   6.798   5.043   6.262
 4648TIP3   OH213886   1.784   2.744   5.953
 4648TIP3    H113887   1.766   2.663   5.907
 4648TIP3    H213888   1.751   2.730   6.042
 4649TIP3   OH213889   0.442   3.203   0.083
 4649TIP3    H113890   0.383   3.228   0.013
 4649TIP3    H213891   0.390   3.211   0.163
 4650TIP3   OH213892   0.297   4.511   1.965
 4650TIP3    H113893   0.289   4.541   2.055
 4650TIP3    H213894   0.389   4.486   1.955
 4651TIP3   OH213895   4.929   3.372   4.419
 4651TIP3    H113896   4.856   3.315   4.444
 4651TIP3    H213897   4.892   3.460   4.422
 4652TIP3   OH213898   6.825   5.091   6.435
 4652TIP3    H113899   6.912   5.064   6.463
 4652TIP3    H213900   6.804   5.167   6.489
 4653TIP3   OH213901   2.931   0.165   2.500
 4653TIP3    H113902   2.985   0.119   2.564
 4653TIP3    H213903   2.952   0.123   2.416
 4654TIP3   OH213904   6.778   7.624   6.444
 4654TIP3    H113905   6.766   7.546   6.497
 4654TIP3    H213906   6.757   7.697   6.503
 4655TIP3   OH213907   0.099   6.886   1.434
 4655TIP3    H113908   0.137   6.961   1.389
 4655TIP3    H213909   0.155   6.812   1.410
 4656TIP3   OH213910   0.171   7.643   1.938
 4656TIP3    H113911   0.101   7.672   1.997
 4656TIP3    H213912   0.242   7.618   1.997
 4657TIP3   OH213913   1.127   4.518   4.139
 4657TIP3    H113914   1.118   4.587   4.206
 4657TIP3    H213915   1.135   4.437   4.189
 4658TIP3   OH213916   3.390   1.339   4.777
 4658TIP3    H113917   3.346   1.338   4.692
 4658TIP3    H213918   3.441   1.258   4.778
 4659TIP3   OH213919   6.503   1.038   6.374
 4659TIP3    H113920   6.499   1.039   6.469
 4659TIP3    H213921   6.501   0.945   6.351
 4660TIP3   OH213922   4.383   2.824   0.377
 4660TIP3    H113923   4.338   2.868   0.304
 4660TIP3    H213924   4.405   2.738   0.343
 4661TIP3   OH213925   0.302   2.994   4.753
 4661TIP3    H113926   0.227   2.954   4.796
 4661TIP3    H213927   0.265   3.060   4.695
 4662TIP3   OH213928   2.077   4.248   1.262
 4662TIP3    H113929   2.154   4.202   1.229
 4662TIP3    H213930   2.046   4.299   1.187
 4663TIP3   OH213931   6.477   3.899   0.179
 4663TIP3    H113932   6.519   3.819   0.209
 4663TIP3    H213933   6.385   3.875   0.166
 4664TIP3   OH213934   4.819   2.311   2.618
 4664TIP3    H113935   4.883   2.256   2.573
 4664TIP3    H213936   4.871   2.384   2.653
 4665TIP3   OH213937   3.179   4.828   2.279
 4665TIP3    H113938   3.116   4.897   2.257
 4665TIP3    H213939   3.233   4.865   2.348
 4666TIP3   OH213940   6.772   5.153   1.726
 4666TIP3    H113941   6.697   5.205   1.757
 4666TIP3    H213942   6.781   5.084   1.792
 4667TIP3   OH213943   8.076   7.681   3.679
 4667TIP3    H113944   8.057   7.591   3.652
 4667TIP3    H213945   7.993   7.728   3.669
 4668TIP3   OH213946   2.641   3.758   3.696
 4668TIP3    H113947   2.667   3.729   3.784
 4668TIP3    H213948   2.702   3.829   3.676
 4669TIP3   OH213949   3.748   5.049   5.008
 4669TIP3    H113950   3.691   5.124   5.024
 4669TIP3    H213951   3.691   4.983   4.969
 4670TIP3   OH213952   3.850   4.120   0.917
 4670TIP3    H113953   3.868   4.029   0.891
 4670TIP3    H213954   3.842   4.167   0.834
 4671TIP3   OH213955   2.669   2.090   4.699
 4671TIP3    H113956   2.604   2.155   4.723
 4671TIP3    H213957   2.639   2.055   4.615
 4672TIP3   OH213958   8.233   7.652   6.104
 4672TIP3    H113959   8.273   7.609   6.180
 4672TIP3    H213960   8.174   7.717   6.143
 4673TIP3   OH213961   6.517   1.781   4.284
 4673TIP3    H113962   6.424   1.773   4.265
 4673TIP3    H213963   6.526   1.747   4.374
 4674TIP3   OH213964   6.388   1.549   1.385
 4674TIP3    H113965   6.398   1.454   1.382
 4674TIP3    H213966   6.414   1.579   1.298
 4675TIP3   OH213967   6.880   3.196   4.891
 4675TIP3    H113968   6.862   3.271   4.834
 4675TIP3    H213969   6.958   3.221   4.940
 4676TIP3   OH213970   4.889   4.294   2.736
 4676TIP3    H113971   4.855   4.239   2.666
 4676TIP3    H213972   4.966   4.247   2.769
 4677TIP3   OH213973   5.646   7.745   0.525
 4677TIP3    H113974   5.720   7.741   0.587
 4677TIP3    H213975   5.650   7.661   0.478
 4678TIP3   OH213976   1.128   2.700   2.781
 4678TIP3    H113977   1.083   2.625   2.819
 4678TIP3    H213978   1.065   2.740   2.721
 4679TIP3   OH213979   6.053   2.222   0.445
 4679TIP3    H113980   5.997   2.280   0.393
 4679TIP3    H213981   6.070   2.148   0.387
 4680TIP3   OH213982   5.617   2.635   4.928
 4680TIP3    H113983   5.590   2.619   4.838
 4680TIP3    H213984   5.706   2.670   4.920
 4681TIP3   OH213985   4.977   3.659   4.640
 4681TIP3    H113986   4.987   3.755   4.639
 4681TIP3    H213987   4.919   3.641   4.565
 4682TIP3   OH213988   6.538   7.757   5.961
 4682TIP3    H113989   6.492   7.774   6.043
 4682TIP3    H213990   6.591   7.679   5.978
 4683TIP3   OH213991   4.482   7.061   0.919
 4683TIP3    H113992   4.560   7.006   0.917
 4683TIP3    H213993   4.495   7.125   0.849
 4684TIP3   OH213994   4.098   3.484   6.280
 4684TIP3    H113995   4.192   3.490   6.267
 4684TIP3    H213996   4.087   3.451   6.369
 4685TIP3   OH213997   1.404   7.104   4.866
 4685TIP3    H113998   1.353   7.046   4.923
 4685TIP3    H213999   1.366   7.090   4.779
 4686TIP3   OH214000   1.613   7.213   1.760
 4686TIP3    H114001   1.537   7.158   1.782
 4686TIP3    H214002   1.649   7.174   1.680
 4687TIP3   OH214003   5.392   4.185   5.986
 4687TIP3    H114004   5.443   4.104   5.997
 4687TIP3    H214005   5.454   4.255   6.007
 4688TIP3   OH214006   2.644   3.780   1.134
 4688TIP3    H114007   2.587   3.706   1.112
 4688TIP3    H214008   2.732   3.747   1.117
 4689TIP3   OH214009   0.878   2.525   1.415
 4689TIP3    H114010   0.848   2.587   1.481
 4689TIP3    H214011   0.872   2.440   1.459
 4690TIP3   OH214012   1.801   7.396   6.560
 4690TIP3    H114013   1.815   7.317   6.612
 4690TIP3    H214014   1.729   7.372   6.501
 4691TIP3   OH214015   4.399   1.496   1.116
 4691TIP3    H114016   4.387   1.525   1.207
 4691TIP3    H214017   4.426   1.404   1.123
 4692TIP3   OH214018   2.798   0.594   3.676
 4692TIP3    H114019   2.879   0.543   3.681
 4692TIP3    H214020   2.809   0.663   3.741
 4693TIP3   OH214021   6.110   4.905   0.815
 4693TIP3    H114022   6.045   4.923   0.884
 4693TIP3    H214023   6.066   4.843   0.757
 4694TIP3   OH214024   7.967   5.160   0.404
 4694TIP3    H114025   7.910   5.098   0.358
 4694TIP3    H214026   7.917   5.242   0.405
 4695TIP3   OH214027   4.554   7.104   5.990
 4695TIP3    H114028   4.486   7.039   5.973
 4695TIP3    H214029   4.572   7.097   6.084
 4696TIP3   OH214030   5.679   4.880   2.015
 4696TIP3    H114031   5.648   4.939   2.084
 4696TIP3    H214032   5.620   4.895   1.942
 4697TIP3   OH214033   0.877   4.233   2.598
 4697TIP3    H114034   0.938   4.251   2.527
 4697TIP3    H214035   0.912   4.154   2.640
 4698TIP3   OH214036   6.431   5.913   4.897
 4698TIP3    H114037   6.361   5.978   4.897
 4698TIP3    H214038   6.426   5.872   4.811
 4699TIP3   OH214039   7.759   4.714   6.424
 4699TIP3    H114040   7.756   4.700   6.519
 4699TIP3    H214041   7.727   4.633   6.386
 4700TIP3   OH214042   7.990   4.876   1.996
 4700TIP3    H114043   7.920   4.900   2.057
 4700TIP3    H214044   8.026   4.959   1.966
 4701TIP3   OH214045   1.786   5.738   6.468
 4701TIP3    H114046   1.770   5.740   6.373
 4701TIP3    H214047   1.703   5.767   6.507
 4702TIP3   OH214048   7.282   6.725   1.236
 4702TIP3    H114049   7.308   6.812   1.205
 4702TIP3    H214050   7.187   6.730   1.245
 4703TIP3   OH214051   7.443   6.087   1.529
 4703TIP3    H114052   7.361   6.128   1.500
 4703TIP3    H214053   7.414   6.015   1.585
 4704TIP3   OH214054   3.842   3.512   0.172
 4704TIP3    H114055   3.752   3.513   0.140
 4704TIP3    H214056   3.866   3.604   0.179
 4705TIP3   OH214057   7.317   4.176   2.483
 4705TIP3    H114058   7.337   4.245   2.545
 4705TIP3    H214059   7.391   4.116   2.488
 4706TIP3   OH214060   3.937   6.011   4.052
 4706TIP3    H114061   3.918   6.038   4.142
 4706TIP3    H214062   3.868   6.052   3.999
 4707TIP3   OH214063   5.887   3.063   6.287
 4707TIP3    H114064   5.964   3.015   6.257
 4707TIP3    H214065   5.837   3.079   6.207
 4708TIP3   OH214066   6.978   3.324   0.090
 4708TIP3    H114067   6.968   3.413   0.125
 4708TIP3    H214068   6.944   3.329   0.000
 4709TIP3   OH214069   4.545   4.078   3.520
 4709TIP3    H114070   4.497   4.039   3.447
 4709TIP3    H214071   4.636   4.052   3.506
 4710TIP3   OH214072   7.561   1.234   4.793
 4710TIP3    H114073   7.554   1.243   4.698
 4710TIP3    H214074   7.624   1.163   4.805
 4711TIP3   OH214075   7.643   3.688   6.646
 4711TIP3    H114076   7.646   3.708   6.552
 4711TIP3    H214077   7.701   3.752   6.686
 4712TIP3   OH214078   5.086   6.673   1.955
 4712TIP3    H114079   5.165   6.727   1.947
 4712TIP3    H214080   5.119   6.583   1.954
 4713TIP3   OH214081   4.902   1.348   1.311
 4713TIP3    H114082   4.904   1.402   1.232
 4713TIP3    H214083   4.824   1.378   1.358
 4714TIP3   OH214084   4.115   7.017   3.666
 4714TIP3    H114085   4.154   7.026   3.753
 4714TIP3    H214086   4.065   6.936   3.670
 4715TIP3   OH214087   4.715   7.081   4.758
 4715TIP3    H114088   4.631   7.104   4.797
 4715TIP3    H214089   4.725   7.141   4.684
 4716TIP3   OH214090   5.378   2.355   1.377
 4716TIP3    H114091   5.468   2.350   1.344
 4716TIP3    H214092   5.324   2.363   1.299
 4717TIP3   OH214093   7.144   7.253   2.491
 4717TIP3    H114094   7.213   7.190   2.469
 4717TIP3    H214095   7.181   7.307   2.560
 4718TIP3   OH214096   6.684   3.124   1.713
 4718TIP3    H114097   6.657   3.114   1.621
 4718TIP3    H214098   6.617   3.180   1.752
 4719TIP3   OH214099   2.092   7.239   2.942
 4719TIP3    H114100   2.029   7.193   2.887
 4719TIP3    H214101   2.174   7.191   2.929
 4720TIP3   OH214102   3.787   0.941   3.223
 4720TIP3    H114103   3.723   0.906   3.161
 4720TIP3    H214104   3.846   0.869   3.240
 4721TIP3   OH214105   5.447   7.736   5.511
 4721TIP3    H114106   5.476   7.798   5.444
 4721TIP3    H214107   5.428   7.789   5.587
 4722TIP3   OH214108   7.036   0.311   0.758
 4722TIP3    H114109   7.082   0.230   0.781
 4722TIP3    H214110   7.053   0.321   0.664
 4723TIP3   OH214111   1.536   5.202   4.504
 4723TIP3    H114112   1.574   5.192   4.592
 4723TIP3    H214113   1.455   5.250   4.519
 4724TIP3   OH214114   3.617   5.145   3.043
 4724TIP3    H114115   3.592   5.072   3.100
 4724TIP3    H214116   3.534   5.176   3.007
 4725TIP3   OH214117   0.559   4.787   1.933
 4725TIP3    H114118   0.520   4.781   1.845
 4725TIP3    H214119   0.512   4.860   1.974
 4726TIP3   OH214120   7.761   0.491   1.626
 4726TIP3    H114121   7.783   0.522   1.538
 4726TIP3    H214122   7.806   0.407   1.635
 4727TIP3   OH214123   0.829   4.603   2.608
 4727TIP3    H114124   0.883   4.573   2.535
 4727TIP3    H214125   0.797   4.689   2.581
 4728TIP3   OH214126   3.561   4.561   3.430
 4728TIP3    H114127   3.542   4.536   3.340
 4728TIP3    H214128   3.502   4.507   3.483
 4729TIP3   OH214129   3.757   5.799   0.536
 4729TIP3    H114130   3.684   5.769   0.589
 4729TIP3    H214131   3.835   5.765   0.580
 4730TIP3   OH214132   1.741   7.110   2.546
 4730TIP3    H114133   1.653   7.080   2.528
 4730TIP3    H214134   1.797   7.033   2.532
 4731TIP3   OH214135   5.870   7.510   2.822
 4731TIP3    H114136   5.845   7.434   2.770
 4731TIP3    H214137   5.852   7.485   2.913
 4732TIP3   OH214138   1.986   0.149   3.550
 4732TIP3    H114139   1.990   0.237   3.587
 4732TIP3    H214140   1.893   0.126   3.552
 4733TIP3   OH214141   8.290   5.766   0.388
 4733TIP3    H114142   8.353   5.725   0.448
 4733TIP3    H214143   8.288   5.858   0.415
 4734TIP3   OH214144   5.460   4.938   5.288
 4734TIP3    H114145   5.417   4.854   5.303
 4734TIP3    H214146   5.420   4.970   5.207
 4735TIP3   OH214147   6.919   0.457   6.438
 4735TIP3    H114148   6.845   0.405   6.406
 4735TIP3    H214149   6.881   0.541   6.463
 4736TIP3   OH214150   4.614   0.105   5.289
 4736TIP3    H114151   4.707   0.106   5.312
 4736TIP3    H214152   4.599   0.018   5.251
 4737TIP3   OH214153   6.105   2.625   1.197
 4737TIP3    H114154   6.018   2.634   1.236
 4737TIP3    H214155   6.087   2.614   1.103
 4738TIP3   OH214156   3.095   1.606   1.182
 4738TIP3    H114157   3.067   1.688   1.140
 4738TIP3    H214158   3.067   1.538   1.120
 4739TIP3   OH214159   4.295   4.495   1.761
 4739TIP3    H114160   4.278   4.473   1.853
 4739TIP3    H214161   4.383   4.461   1.745
 4740TIP3   OH214162   5.861   3.309   6.396
 4740TIP3    H114163   5.853   3.354   6.311
 4740TIP3    H214164   5.875   3.217   6.373
 4741TIP3   OH214165   1.141   6.781   4.753
 4741TIP3    H114166   1.233   6.753   4.764
 4741TIP3    H214167   1.147   6.873   4.730
 4742TIP3   OH214168   3.425   7.485   6.083
 4742TIP3    H114169   3.463   7.571   6.103
 4742TIP3    H214170   3.416   7.485   5.988
 4743TIP3   OH214171   6.857   4.998   0.057
 4743TIP3    H114172   6.919   5.037  -0.005
 4743TIP3    H214173   6.779   5.052   0.050
 4744TIP3   OH214174   5.327   5.852   0.863
 4744TIP3    H114175   5.366   5.771   0.896
 4744TIP3    H214176   5.274   5.884   0.936
 4745TIP3   OH214177   4.164   5.729   5.068
 4745TIP3    H114178   4.219   5.768   5.000
 4745TIP3    H214179   4.088   5.787   5.074
 4746TIP3   OH214180   0.449   7.722   2.362
 4746TIP3    H114181   0.525   7.777   2.380
 4746TIP3    H214182   0.483   7.632   2.364
 4747TIP3   OH214183   5.721   1.606   3.566
 4747TIP3    H114184   5.794   1.650   3.609
 4747TIP3    H214185   5.684   1.672   3.508
 4748TIP3   OH214186   6.409   4.718   0.072
 4748TIP3    H114187   6.430   4.699  -0.020
 4748TIP3    H214188   6.331   4.665   0.089
 4749TIP3   OH214189   0.790   6.442   6.266
 4749TIP3    H114190   0.843   6.370   6.232
 4749TIP3    H214191   0.847   6.519   6.260
 4750TIP3   OH214192   6.454   4.818   5.311
 4750TIP3    H114193   6.425   4.901   5.275
 4750TIP3    H214194   6.376   4.762   5.308
 4751TIP3   OH214195   3.915   7.010   0.365
 4751TIP3    H114196   4.010   7.014   0.375
 4751TIP3    H214197   3.897   7.063   0.287
 4752TIP3   OH214198   1.529   5.690   2.134
 4752TIP3    H114199   1.439   5.658   2.141
 4752TIP3    H214200   1.564   5.646   2.057
 4753TIP3   OH214201   4.156   1.719   3.883
 4753TIP3    H114202   4.175   1.675   3.966
 4753TIP3    H214203   4.060   1.719   3.877
 4754TIP3   OH214204   5.999   3.573   3.119
 4754TIP3    H114205   6.018   3.639   3.053
 4754TIP3    H214206   6.082   3.527   3.132
 4755TIP3   OH214207   0.118   1.043   2.597
 4755TIP3    H114208   0.139   1.129   2.560
 4755TIP3    H214209   0.201   1.011   2.631
 4756TIP3   OH214210   0.306   4.819   1.531
 4756TIP3    H114211   0.280   4.753   1.596
 4756TIP3    H214212   0.348   4.769   1.461
 4757TIP3   OH214213   0.866   4.951   2.353
 4757TIP3    H114214   0.910   4.866   2.349
 4757TIP3    H214215   0.871   4.986   2.265
 4758TIP3   OH214216   3.074   2.695   5.349
 4758TIP3    H114217   3.141   2.746   5.304
 4758TIP3    H214218   3.080   2.722   5.441
 4759TIP3   OH214219   0.173   0.598   2.994
 4759TIP3    H114220   0.202   0.619   2.905
 4759TIP3    H214221   0.234   0.643   3.051
 4760TIP3   OH214222   6.049   6.593   1.440
 4760TIP3    H114223   6.093   6.562   1.519
 4760TIP3    H214224   6.118   6.595   1.374
 4761TIP3   OH214225   7.090   5.381   5.669
 4761TIP3    H114226   7.054   5.459   5.625
 4761TIP3    H214227   7.014   5.325   5.685
 4762TIP3   OH214228   8.000   6.354   3.952
 4762TIP3    H114229   8.063   6.425   3.967
 4762TIP3    H214230   7.938   6.361   4.024
 4763TIP3   OH214231   4.382   6.484   1.372
 4763TIP3    H114232   4.297   6.527   1.382
 4763TIP3    H214233   4.442   6.554   1.348
 4764TIP3   OH214234   0.234   7.061   2.294
 4764TIP3    H114235   0.194   7.003   2.230
 4764TIP3    H214236   0.191   7.145   2.281
 4765TIP3   OH214237   6.803   3.268   5.997
 4765TIP3    H114238   6.879   3.209   6.003
 4765TIP3    H214239   6.788   3.298   6.087
 4766TIP3   OH214240   2.461   1.150   3.195
 4766TIP3    H114241   2.381   1.192   3.226
 4766TIP3    H214242   2.497   1.213   3.131
 4767TIP3   OH214243   5.015   4.372   4.848
 4767TIP3    H114244   5.056   4.320   4.917
 4767TIP3    H214245   4.949   4.315   4.810
 4768TIP3   OH214246   4.814   6.138   1.431
 4768TIP3    H114247   4.901   6.158   1.396
 4768TIP3    H214248   4.777   6.223   1.453
 4769TIP3   OH214249   0.998   7.048   3.294
 4769TIP3    H114250   0.998   7.021   3.202
 4769TIP3    H214251   0.909   7.030   3.324
 4770TIP3   OH214252   0.738   0.177   4.789
 4770TIP3    H114253   0.796   0.247   4.819
 4770TIP3    H214254   0.670   0.221   4.738
 4771TIP3   OH214255   7.928   1.267   5.614
 4771TIP3    H114256   7.992   1.299   5.678
 4771TIP3    H214257   7.950   1.314   5.533
 4772TIP3   OH214258   1.087   1.454   5.213
 4772TIP3    H114259   1.048   1.401   5.144
 4772TIP3    H214260   1.034   1.534   5.215
 4773TIP3   OH214261   2.569   3.794   2.894
 4773TIP3    H114262   2.611   3.820   2.976
 4773TIP3    H214263   2.481   3.832   2.899
 4774TIP3   OH214264   1.869   3.294   4.203
 4774TIP3    H114265   1.776   3.313   4.190
 4774TIP3    H214266   1.870   3.206   4.242
 4775TIP3   OH214267   1.490   1.566   0.369
 4775TIP3    H114268   1.469   1.575   0.462
 4775TIP3    H214269   1.513   1.473   0.359
 4776TIP3   OH214270   2.042   2.941   6.770
 4776TIP3    H114271   2.096   2.987   6.834
 4776TIP3    H214272   2.104   2.886   6.721
 4777TIP3   OH214273   6.546   6.088   0.368
 4777TIP3    H114274   6.519   6.170   0.327
 4777TIP3    H214275   6.543   6.024   0.297
 4778TIP3   OH214276   0.995   7.137   0.474
 4778TIP3    H114277   0.961   7.116   0.561
 4778TIP3    H214278   1.016   7.051   0.435
 4779TIP3   OH214279   5.909   2.957   3.192
 4779TIP3    H114280   5.969   2.928   3.124
 4779TIP3    H214281   5.887   2.878   3.241
 4780TIP3   OH214282   7.185   2.543   4.774
 4780TIP3    H114283   7.103   2.505   4.741
 4780TIP3    H214284   7.245   2.536   4.700
 4781TIP3   OH214285   4.508   4.241   6.180
 4781TIP3    H114286   4.434   4.288   6.218
 4781TIP3    H214287   4.496   4.250   6.085
 4782TIP3   OH214288   0.158   7.077   4.322
 4782TIP3    H114289   0.104   7.066   4.244
 4782TIP3    H214290   0.095   7.077   4.394
 4783TIP3   OH214291   1.086   2.556   0.771
 4783TIP3    H114292   1.020   2.487   0.764
 4783TIP3    H214293   1.158   2.517   0.821
 4784TIP3   OH214294   5.778   1.137   3.707
 4784TIP3    H114295   5.691   1.145   3.667
 4784TIP3    H214296   5.761   1.136   3.801
 4785TIP3   OH214297   8.187   1.412   0.054
 4785TIP3    H114298   8.222   1.323   0.048
 4785TIP3    H214299   8.210   1.441   0.142
 4786TIP3   OH214300   8.157   5.252   1.258
 4786TIP3    H114301   8.159   5.230   1.352
 4786TIP3    H214302   8.164   5.348   1.256
 4787TIP3   OH214303   1.430   4.014   5.243
 4787TIP3    H114304   1.389   4.080   5.186
 4787TIP3    H214305   1.467   4.065   5.315
 4788TIP3   OH214306   3.053   0.159   0.174
 4788TIP3    H114307   3.039   0.251   0.151
 4788TIP3    H214308   3.109   0.125   0.104
 4789TIP3   OH214309   3.888   5.270   2.636
 4789TIP3    H114310   3.827   5.333   2.674
 4789TIP3    H214311   3.837   5.190   2.626
 4790TIP3   OH214312   2.133   7.760   0.686
 4790TIP3    H114313   2.103   7.804   0.606
 4790TIP3    H214314   2.221   7.729   0.665
 4791TIP3   OH214315   4.270   3.903   3.563
 4791TIP3    H114316   4.236   3.814   3.567
 4791TIP3    H214317   4.354   3.895   3.518
 4792TIP3   OH214318   1.085   4.536   0.106
 4792TIP3    H114319   1.164   4.582   0.131
 4792TIP3    H214320   1.030   4.538   0.185
 4793TIP3   OH214321   0.882   0.354   3.744
 4793TIP3    H114322   0.913   0.276   3.791
 4793TIP3    H214323   0.889   0.331   3.652
 4794TIP3   OH214324   6.063   4.543   2.036
 4794TIP3    H114325   6.143   4.499   2.007
 4794TIP3    H214326   6.040   4.498   2.117
 4795TIP3   OH214327   3.466   4.654   5.794
 4795TIP3    H114328   3.416   4.577   5.767
 4795TIP3    H214329   3.413   4.693   5.864
 4796TIP3   OH214330   7.844   3.828   4.568
 4796TIP3    H114331   7.875   3.766   4.634
 4796TIP3    H214332   7.922   3.876   4.542
 4797TIP3   OH214333   0.719   2.665   5.925
 4797TIP3    H114334   0.686   2.743   5.968
 4797TIP3    H214335   0.705   2.681   5.832
 4798TIP3   OH214336   1.685   3.752   6.818
 4798TIP3    H114337   1.659   3.660   6.811
 4798TIP3    H214338   1.604   3.801   6.808
 4799TIP3   OH214339   2.081   5.362   1.214
 4799TIP3    H114340   2.154   5.301   1.224
 4799TIP3    H214341   2.122   5.449   1.210
 4800TIP3   OH214342   7.728   4.706   6.721
 4800TIP3    H114343   7.792   4.637   6.739
 4800TIP3    H214344   7.763   4.783   6.765
 4801TIP3   OH214345   6.627   0.309   3.122
 4801TIP3    H114346   6.537   0.331   3.099
 4801TIP3    H214347   6.650   0.371   3.191
 4802TIP3   OH214348   4.162   1.531   6.531
 4802TIP3    H114349   4.073   1.555   6.505
 4802TIP3    H214350   4.170   1.562   6.622
 4803TIP3   OH214351   8.061   3.156   0.473
 4803TIP3    H114352   8.123   3.099   0.428
 4803TIP3    H214353   7.987   3.099   0.496
 4804TIP3   OH214354   7.627   6.571   1.982
 4804TIP3    H114355   7.604   6.653   2.025
 4804TIP3    H214356   7.702   6.538   2.032
 4805TIP3   OH214357   6.558   2.211   1.953
 4805TIP3    H114358   6.646   2.234   1.923
 4805TIP3    H214359   6.534   2.281   2.014
 4806TIP3   OH214360   0.752   4.763   5.505
 4806TIP3    H114361   0.744   4.716   5.421
 4806TIP3    H214362   0.846   4.762   5.524
 4807TIP3   OH214363   3.698   3.149   3.332
 4807TIP3    H114364   3.611   3.132   3.366
 4807TIP3    H214365   3.720   3.236   3.366
 4808TIP3   OH214366   6.098   0.555   1.740
 4808TIP3    H114367   6.105   0.592   1.829
 4808TIP3    H214368   6.149   0.475   1.743
 4809TIP3   OH214369   1.122   0.865   0.404
 4809TIP3    H114370   1.207   0.826   0.425
 4809TIP3    H214371   1.058   0.807   0.445
 4810TIP3   OH214372   1.312   2.400   5.766
 4810TIP3    H114373   1.220   2.425   5.774
 4810TIP3    H214374   1.322   2.328   5.828
 4811TIP3   OH214375   2.386   3.273   2.884
 4811TIP3    H114376   2.425   3.278   2.971
 4811TIP3    H214377   2.425   3.346   2.836
 4812TIP3   OH214378   2.942   0.312   3.724
 4812TIP3    H114379   2.876   0.300   3.792
 4812TIP3    H214380   3.008   0.368   3.763
 4813TIP3   OH214381   5.405   4.100   5.275
 4813TIP3    H114382   5.466   4.173   5.264
 4813TIP3    H214383   5.422   4.044   5.199
 4814TIP3   OH214384   1.874   1.334   3.328
 4814TIP3    H114385   1.870   1.398   3.398
 4814TIP3    H214386   1.923   1.377   3.258
 4815TIP3   OH214387   0.515   3.991   1.335
 4815TIP3    H114388   0.575   4.022   1.267
 4815TIP3    H214389   0.557   4.015   1.417
 4816TIP3   OH214390   3.384   4.960   4.490
 4816TIP3    H114391   3.302   5.002   4.463
 4816TIP3    H214392   3.356   4.886   4.544
 4817TIP3   OH214393   7.228  -0.007   1.504
 4817TIP3    H114394   7.226   0.021   1.413
 4817TIP3    H214395   7.218   0.073   1.555
 4818TIP3   OH214396   6.292   4.881   3.471
 4818TIP3    H114397   6.325   4.813   3.413
 4818TIP3    H214398   6.197   4.876   3.461
 4819TIP3   OH214399   3.972   1.366   0.465
 4819TIP3    H114400   4.028   1.301   0.506
 4819TIP3    H214401   3.988   1.447   0.513
 4820TIP3   OH214402   0.360   6.969   3.531
 4820TIP3    H114403   0.269   6.976   3.502
 4820TIP3    H214404   0.412   6.980   3.451
 4821TIP3   OH214405   1.313   0.669   0.267
 4821TIP3    H114406   1.362   0.654   0.348
 4821TIP3    H214407   1.372   0.722   0.213
 4822TIP3   OH214408   7.003   7.730   1.771
 4822TIP3    H114409   6.972   7.686   1.692
 4822TIP3    H214410   7.062   7.666   1.811
 4823TIP3   OH214411   8.088   7.662   2.594
 4823TIP3    H114412   8.037   7.589   2.557
 4823TIP3    H214413   8.116   7.629   2.679
 4824TIP3   OH214414   1.303   7.557   3.636
 4824TIP3    H114415   1.266   7.471   3.657
 4824TIP3    H214416   1.257   7.584   3.557
 4825TIP3   OH214417   5.367   4.851   0.255
 4825TIP3    H114418   5.440   4.810   0.209
 4825TIP3    H214419   5.378   4.825   0.346
 4826TIP3   OH214420   1.843   5.740   0.137
 4826TIP3    H114421   1.824   5.778   0.222
 4826TIP3    H214422   1.827   5.646   0.148
 4827TIP3   OH214423   2.376   7.815   3.079
 4827TIP3    H114424   2.326   7.887   3.117
 4827TIP3    H214425   2.366   7.826   2.985
 4828TIP3   OH214426  -0.060   2.125   3.340
 4828TIP3    H114427  -0.017   2.072   3.407
 4828TIP3    H214428  -0.048   2.215   3.370
 4829TIP3   OH214429   1.606   2.871   6.565
 4829TIP3    H114430   1.592   2.900   6.475
 4829TIP3    H214431   1.626   2.951   6.613
 4830TIP3   OH214432   7.187   2.144   2.202
 4830TIP3    H114433   7.119   2.090   2.162
 4830TIP3    H214434   7.264   2.130   2.148
 4831TIP3   OH214435   2.565   0.630   5.281
 4831TIP3    H114436   2.608   0.702   5.329
 4831TIP3    H214437   2.626   0.610   5.209
 4832TIP3   OH214438   4.464   4.879   5.172
 4832TIP3    H114439   4.389   4.926   5.206
 4832TIP3    H214440   4.431   4.835   5.093
 4833TIP3   OH214441   5.373   1.220   0.757
 4833TIP3    H114442   5.384   1.240   0.850
 4833TIP3    H214443   5.375   1.125   0.753
 4834TIP3   OH214444   3.105   1.442   5.695
 4834TIP3    H114445   3.079   1.497   5.621
 4834TIP3    H214446   3.062   1.483   5.771
 4835TIP3   OH214447   4.435   1.798   1.588
 4835TIP3    H114448   4.519   1.762   1.614
 4835TIP3    H214449   4.379   1.789   1.665
 4836TIP3   OH214450   5.650   5.310   4.704
 4836TIP3    H114451   5.590   5.308   4.779
 4836TIP3    H214452   5.607   5.256   4.638
 4837TIP3   OH214453   1.230   4.860   4.056
 4837TIP3    H114454   1.313   4.832   4.095
 4837TIP3    H214455   1.250   4.943   4.014
 4838TIP3   OH214456   7.038   7.537   0.916
 4838TIP3    H114457   7.047   7.474   0.987
 4838TIP3    H214458   6.956   7.513   0.872
 4839TIP3   OH214459   4.883   7.857   0.465
 4839TIP3    H114460   4.933   7.776   0.468
 4839TIP3    H214461   4.898   7.890   0.376
 4840TIP3   OH214462   7.587   0.285   2.956
 4840TIP3    H114463   7.540   0.203   2.977
 4840TIP3    H214464   7.599   0.328   3.041
 4841TIP3   OH214465   0.875   3.366   4.676
 4841TIP3    H114466   0.970   3.374   4.665
 4841TIP3    H214467   0.844   3.455   4.690
 4842TIP3   OH214468   3.235   3.061   0.179
 4842TIP3    H114469   3.290   3.083   0.254
 4842TIP3    H214470   3.296   3.023   0.115
 4843TIP3   OH214471   3.489   4.489   2.429
 4843TIP3    H114472   3.477   4.425   2.500
 4843TIP3    H214473   3.582   4.484   2.409
 4844TIP3   OH214474   5.476   3.643   2.366
 4844TIP3    H114475   5.399   3.614   2.416
 4844TIP3    H214476   5.549   3.636   2.428
 4845TIP3   OH214477   3.587   2.523   3.064
 4845TIP3    H114478   3.670   2.474   3.067
 4845TIP3    H214479   3.614   2.615   3.063
 4846TIP3   OH214480   1.990   6.539   1.049
 4846TIP3    H114481   1.941   6.547   0.968
 4846TIP3    H214482   1.973   6.450   1.079
 4847TIP3   OH214483   6.635   3.690   0.165
 4847TIP3    H114484   6.655   3.710   0.073
 4847TIP3    H214485   6.707   3.730   0.214
 4848TIP3   OH214486   1.656   6.897   3.820
 4848TIP3    H114487   1.639   6.889   3.726
 4848TIP3    H214488   1.569   6.909   3.859
 4849TIP3   OH214489   1.500   4.660   3.476
 4849TIP3    H114490   1.560   4.591   3.504
 4849TIP3    H214491   1.457   4.689   3.557
 4850TIP3   OH214492   4.754   3.773   0.852
 4850TIP3    H114493   4.843   3.802   0.871
 4850TIP3    H214494   4.728   3.722   0.929
 4851TIP3   OH214495   6.254   4.063   0.604
 4851TIP3    H114496   6.193   4.001   0.646
 4851TIP3    H214497   6.316   4.085   0.673
 4852TIP3   OH214498   5.560   4.194   4.676
 4852TIP3    H114499   5.622   4.170   4.608
 4852TIP3    H214500   5.606   4.177   4.758
 4853TIP3   OH214501   4.163   6.452   3.222
 4853TIP3    H114502   4.191   6.400   3.147
 4853TIP3    H214503   4.099   6.397   3.267
 4854TIP3   OH214504   5.206   0.841   1.349
 4854TIP3    H114505   5.280   0.883   1.305
 4854TIP3    H214506   5.133   0.903   1.338
 4855TIP3   OH214507   3.685   2.854   6.264
 4855TIP3    H114508   3.656   2.863   6.173
 4855TIP3    H214509   3.604   2.846   6.314
 4856TIP3   OH214510   1.185   4.066   4.349
 4856TIP3    H114511   1.251   4.019   4.401
 4856TIP3    H214512   1.157   4.003   4.283
 4857TIP3   OH214513   6.620   4.341   0.979
 4857TIP3    H114514   6.606   4.289   1.058
 4857TIP3    H214515   6.654   4.424   1.011
 4858TIP3   OH214516   7.853   2.637   1.096
 4858TIP3    H114517   7.930   2.602   1.052
 4858TIP3    H214518   7.808   2.560   1.131
 4859TIP3   OH214519   0.719   0.680   6.235
 4859TIP3    H114520   0.694   0.691   6.327
 4859TIP3    H214521   0.727   0.585   6.224
 4860TIP3   OH214522   0.833   3.926   5.922
 4860TIP3    H114523   0.763   3.983   5.953
 4860TIP3    H214524   0.914   3.973   5.943
 4861TIP3   OH214525   8.170   3.067   2.064
 4861TIP3    H114526   8.101   3.093   2.125
 4861TIP3    H214527   8.235   3.023   2.119
 4862TIP3   OH214528   1.031   3.384   4.290
 4862TIP3    H114529   1.121   3.413   4.269
 4862TIP3    H214530   0.979   3.413   4.215
 4863TIP3   OH214531   0.014   7.247   1.151
 4863TIP3    H114532   0.085   7.231   1.215
 4863TIP3    H214533   0.057   7.294   1.080
 4864TIP3   OH214534   7.041   1.470   2.037
 4864TIP3    H114535   7.061   1.403   2.102
 4864TIP3    H214536   7.118   1.527   2.036
 4865TIP3   OH214537   3.192   1.956   6.200
 4865TIP3    H114538   3.243   2.037   6.197
 4865TIP3    H214539   3.162   1.948   6.290
 4866TIP3   OH214540   2.278   1.109   5.045
 4866TIP3    H114541   2.352   1.064   5.004
 4866TIP3    H214542   2.239   1.160   4.974
 4867TIP3   OH214543   2.424   4.315   1.782
 4867TIP3    H114544   2.498   4.269   1.741
 4867TIP3    H214545   2.458   4.344   1.867
 4868TIP3   OH214546   6.700   1.630   2.165
 4868TIP3    H114547   6.731   1.596   2.081
 4868TIP3    H214548   6.626   1.687   2.142
 4869TIP3   OH214549   0.938   0.493   5.257
 4869TIP3    H114550   0.877   0.566   5.269
 4869TIP3    H214551   0.887   0.427   5.211
 4870TIP3   OH214552   2.838   0.444   0.978
 4870TIP3    H114553   2.810   0.382   0.911
 4870TIP3    H214554   2.810   0.405   1.060
 4871TIP3   OH214555   5.305   4.149   4.785
 4871TIP3    H114556   5.387   4.183   4.749
 4871TIP3    H214557   5.243   4.156   4.713
 4872TIP3   OH214558   5.897   6.103   6.588
 4872TIP3    H114559   5.888   6.120   6.682
 4872TIP3    H214560   5.906   6.008   6.581
 4873TIP3   OH214561   5.530   6.187   6.664
 4873TIP3    H114562   5.567   6.110   6.621
 4873TIP3    H214563   5.446   6.157   6.698
 4874TIP3   OH214564   1.105   3.376   0.304
 4874TIP3    H114565   1.076   3.389   0.394
 4874TIP3    H214566   1.071   3.291   0.279
 4875TIP3   OH214567   1.770   3.575   6.049
 4875TIP3    H114568   1.852   3.529   6.033
 4875TIP3    H214569   1.791   3.639   6.117
 4876TIP3   OH214570   1.242   3.421   5.633
 4876TIP3    H114571   1.287   3.505   5.638
 4876TIP3    H214572   1.159   3.435   5.678
 4877TIP3   OH214573   0.365   0.485   6.584
 4877TIP3    H114574   0.298   0.478   6.516
 4877TIP3    H214575   0.435   0.537   6.544
 4878TIP3   OH214576   3.974   5.821   2.839
 4878TIP3    H114577   3.884   5.839   2.811
 4878TIP3    H214578   3.995   5.736   2.801
 4879TIP3   OH214579   7.098   6.124   2.842
 4879TIP3    H114580   7.007   6.102   2.859
 4879TIP3    H214581   7.101   6.220   2.848
 4880TIP3   OH214582   2.261   7.112   5.233
 4880TIP3    H114583   2.311   7.081   5.309
 4880TIP3    H214584   2.326   7.160   5.181
 4881TIP3   OH214585   4.674   1.428   5.369
 4881TIP3    H114586   4.618   1.478   5.311
 4881TIP3    H214587   4.623   1.351   5.393
 4882TIP3   OH214588   0.634   3.674   3.074
 4882TIP3    H114589   0.641   3.618   3.151
 4882TIP3    H214590   0.649   3.763   3.106
 4883TIP3   OH214591   7.292   3.475   6.719
 4883TIP3    H114592   7.228   3.414   6.681
 4883TIP3    H214593   7.377   3.440   6.693
 4884TIP3   OH214594   7.735   4.875   0.550
 4884TIP3    H114595   7.702   4.957   0.513
 4884TIP3    H214596   7.657   4.825   0.573
 4885TIP3   OH214597   2.881   2.872   5.827
 4885TIP3    H114598   2.913   2.884   5.738
 4885TIP3    H214599   2.936   2.929   5.881
 4886TIP3   OH214600   0.265   4.630   2.207
 4886TIP3    H114601   0.299   4.570   2.273
 4886TIP3    H214602   0.174   4.645   2.233
 4887TIP3   OH214603   3.224   6.775   1.927
 4887TIP3    H114604   3.214   6.821   2.010
 4887TIP3    H214605   3.319   6.769   1.914
 4888TIP3   OH214606   3.332   7.353   1.856
 4888TIP3    H114607   3.272   7.410   1.904
 4888TIP3    H214608   3.419   7.379   1.885
 4889TIP3   OH214609   0.108   5.349   4.134
 4889TIP3    H114610   0.014   5.362   4.151
 4889TIP3    H214611   0.121   5.255   4.145
 4890TIP3   OH214612   5.794   4.414   3.818
 4890TIP3    H114613   5.813   4.320   3.824
 4890TIP3    H214614   5.707   4.417   3.777
 4891TIP3   OH214615   7.574   4.521   1.747
 4891TIP3    H114616   7.611   4.503   1.834
 4891TIP3    H214617   7.576   4.616   1.739
 4892TIP3   OH214618   4.279   2.122   3.395
 4892TIP3    H114619   4.316   2.141   3.309
 4892TIP3    H214620   4.253   2.030   3.389
 4893TIP3   OH214621   3.308   4.495   0.567
 4893TIP3    H114622   3.373   4.496   0.637
 4893TIP3    H214623   3.234   4.544   0.603
 4894TIP3   OH214624   3.357   3.714   5.707
 4894TIP3    H114625   3.330   3.787   5.762
 4894TIP3    H214626   3.417   3.663   5.762
 4895TIP3   OH214627   6.864   6.104   3.113
 4895TIP3    H114628   6.821   6.175   3.066
 4895TIP3    H214629   6.830   6.024   3.072
 4896TIP3   OH214630   7.307   0.720   1.777
 4896TIP3    H114631   7.215   0.746   1.776
 4896TIP3    H214632   7.352   0.791   1.822
 4897TIP3   OH214633   2.112   1.180   4.544
 4897TIP3    H114634   2.061   1.139   4.474
 4897TIP3    H214635   2.201   1.187   4.507
 4898TIP3   OH214636   6.203   2.355   3.672
 4898TIP3    H114637   6.240   2.392   3.752
 4898TIP3    H214638   6.138   2.292   3.702
 4899TIP3   OH214639   3.923   0.588   1.759
 4899TIP3    H114640   3.895   0.577   1.849
 4899TIP3    H214641   3.996   0.650   1.763
 4900TIP3   OH214642   1.452   5.610   0.490
 4900TIP3    H114643   1.530   5.554   0.493
 4900TIP3    H214644   1.437   5.634   0.582
 4901TIP3   OH214645   8.207   2.991   6.779
 4901TIP3    H114646   8.119   2.954   6.786
 4901TIP3    H214647   8.260   2.921   6.743
 4902TIP3   OH214648   4.670   4.676   1.936
 4902TIP3    H114649   4.748   4.731   1.932
 4902TIP3    H214650   4.703   4.587   1.924
 4903TIP3   OH214651   0.089   5.435   1.586
 4903TIP3    H114652   0.134   5.374   1.528
 4903TIP3    H214653   0.118   5.521   1.558
 4904TIP3   OH214654   6.492   7.742   4.734
 4904TIP3    H114655   6.409   7.779   4.704
 4904TIP3    H214656   6.466   7.671   4.793
 4905TIP3   OH214657   5.889   4.298   1.550
 4905TIP3    H114658   5.796   4.308   1.571
 4905TIP3    H214659   5.896   4.325   1.459
 4906TIP3   OH214660   6.867   0.911   4.822
 4906TIP3    H114661   6.830   0.830   4.857
 4906TIP3    H214662   6.958   0.910   4.852
 4907TIP3   OH214663   3.391   0.395   1.856
 4907TIP3    H114664   3.476   0.423   1.822
 4907TIP3    H214665   3.337   0.381   1.778
 4908TIP3   OH214666   3.536   2.469   0.427
 4908TIP3    H114667   3.494   2.472   0.341
 4908TIP3    H214668   3.570   2.558   0.440
 4909TIP3   OH214669   4.739   6.336   1.164
 4909TIP3    H114670   4.814   6.318   1.106
 4909TIP3    H214671   4.683   6.394   1.113
 4910TIP3   OH214672   5.589   2.269   4.149
 4910TIP3    H114673   5.562   2.333   4.084
 4910TIP3    H214674   5.508   2.244   4.194
 4911TIP3   OH214675   5.166   0.658   2.400
 4911TIP3    H114676   5.086   0.681   2.449
 4911TIP3    H214677   5.221   0.614   2.465
 4912TIP3   OH214678   1.003   6.119   2.674
 4912TIP3    H114679   1.092   6.096   2.700
 4912TIP3    H214680   0.963   6.155   2.754
 4913TIP3   OH214681   5.839   6.572   6.492
 4913TIP3    H114682   5.875   6.551   6.578
 4913TIP3    H214683   5.751   6.603   6.509
 4914TIP3   OH214684   7.426   4.518   6.410
 4914TIP3    H114685   7.385   4.445   6.456
 4914TIP3    H214686   7.369   4.535   6.335
 4915TIP3   OH214687   6.861   1.255   1.217
 4915TIP3    H114688   6.862   1.242   1.122
 4915TIP3    H214689   6.925   1.192   1.250
 4916TIP3   OH214690   1.770   5.160   2.791
 4916TIP3    H114691   1.714   5.082   2.796
 4916TIP3    H214692   1.808   5.167   2.879
 4917TIP3   OH214693   2.916   2.990   1.314
 4917TIP3    H114694   2.899   2.968   1.223
 4917TIP3    H214695   2.944   2.908   1.354
 4918TIP3   OH214696   2.503   3.833   5.074
 4918TIP3    H114697   2.557   3.797   5.004
 4918TIP3    H214698   2.500   3.765   5.141
 4919TIP3   OH214699   5.664   5.303   6.111
 4919TIP3    H114700   5.594   5.347   6.063
 4919TIP3    H214701   5.636   5.211   6.113
 4920TIP3   OH214702   3.810   0.982   6.591
 4920TIP3    H114703   3.890   0.956   6.638
 4920TIP3    H214704   3.750   0.909   6.605
 4921TIP3   OH214705   4.037   1.734   4.178
 4921TIP3    H114706   4.080   1.810   4.140
 4921TIP3    H214707   4.107   1.685   4.221
 4922TIP3   OH214708   6.198   4.119   5.466
 4922TIP3    H114709   6.205   4.034   5.423
 4922TIP3    H214710   6.133   4.167   5.415
 4923TIP3   OH214711   6.480   5.314   6.506
 4923TIP3    H114712   6.500   5.225   6.477
 4923TIP3    H214713   6.430   5.302   6.587
 4924TIP3   OH214714   1.652   1.856   2.300
 4924TIP3    H114715   1.621   1.891   2.216
 4924TIP3    H214716   1.705   1.780   2.276
 4925TIP3   OH214717   7.037   2.252   4.429
 4925TIP3    H114718   7.104   2.277   4.366
 4925TIP3    H214719   6.990   2.333   4.447
 4926TIP3   OH214720   0.446   1.214   5.088
 4926TIP3    H114721   0.487   1.196   5.172
 4926TIP3    H214722   0.468   1.305   5.069
 4927TIP3   OH214723   2.479   1.369   6.068
 4927TIP3    H114724   2.499   1.326   5.985
 4927TIP3    H214725   2.392   1.408   6.054
 4928TIP3   OH214726   3.785   5.508   0.735
 4928TIP3    H114727   3.855   5.512   0.669
 4928TIP3    H214728   3.725   5.442   0.701
 4929TIP3   OH214729   3.912   1.066   2.605
 4929TIP3    H114730   3.863   0.998   2.559
 4929TIP3    H214731   3.845   1.125   2.640
 4930TIP3   OH214732   4.546   7.777   5.891
 4930TIP3    H114733   4.492   7.728   5.953
 4930TIP3    H214734   4.539   7.727   5.809
 4931TIP3   OH214735   6.838   6.288   2.318
 4931TIP3    H114736   6.761   6.345   2.303
 4931TIP3    H214737   6.835   6.225   2.246
 4932TIP3   OH214738   1.806   0.047   2.182
 4932TIP3    H114739   1.872   0.016   2.243
 4932TIP3    H214740   1.729  -0.006   2.200
 4933TIP3   OH214741   0.790   1.780   4.688
 4933TIP3    H114742   0.812   1.690   4.664
 4933TIP3    H214743   0.696   1.778   4.703
 4934TIP3   OH214744   7.900   3.242   3.051
 4934TIP3    H114745   7.862   3.204   2.972
 4934TIP3    H214746   7.976   3.187   3.070
 4935TIP3   OH214747   4.444   7.626   0.834
 4935TIP3    H114748   4.437   7.646   0.741
 4935TIP3    H214749   4.511   7.685   0.867
 4936TIP3   OH214750   7.432   2.161   3.358
 4936TIP3    H114751   7.412   2.110   3.279
 4936TIP3    H214752   7.347   2.198   3.384
 4937TIP3   OH214753   4.777   6.047   5.674
 4937TIP3    H114754   4.847   6.098   5.715
 4937TIP3    H214755   4.699   6.067   5.727
 4938TIP3   OH214756   0.004   4.769   6.182
 4938TIP3    H114757   0.098   4.786   6.193
 4938TIP3    H214758  -0.024   4.833   6.116
 4939TIP3   OH214759   0.662   5.140   5.445
 4939TIP3    H114760   0.635   5.198   5.516
 4939TIP3    H214761   0.756   5.128   5.458
 4940TIP3   OH214762   7.776   1.933   3.114
 4940TIP3    H114763   7.749   1.986   3.189
 4940TIP3    H214764   7.871   1.924   3.124
 4941TIP3   OH214765   3.024   1.866   6.705
 4941TIP3    H114766   2.981   1.798   6.756
 4941TIP3    H214767   2.972   1.945   6.722
 4942TIP3   OH214768   2.669   5.600   0.540
 4942TIP3    H114769   2.755   5.624   0.573
 4942TIP3    H214770   2.615   5.678   0.552
 4943TIP3   OH214771   7.122   7.518   5.942
 4943TIP3    H114772   7.127   7.558   5.855
 4943TIP3    H214773   7.029   7.518   5.964
 4944TIP3   OH214774   0.683   2.902   0.628
 4944TIP3    H114775   0.655   2.888   0.538
 4944TIP3    H214776   0.641   2.984   0.654
 4945TIP3   OH214777   5.357   0.625   4.226
 4945TIP3    H114778   5.415   0.579   4.165
 4945TIP3    H214779   5.269   0.604   4.196
 4946TIP3   OH214780   8.107   3.471   3.071
 4946TIP3    H114781   8.148   3.426   2.998
 4946TIP3    H214782   8.017   3.439   3.072
 4947TIP3   OH214783   0.423   6.651   4.295
 4947TIP3    H114784   0.477   6.605   4.230
 4947TIP3    H214785   0.336   6.655   4.256
 4948TIP3   OH214786   5.956   6.962   6.421
 4948TIP3    H114787   5.989   7.051   6.434
 4948TIP3    H214788   5.885   6.972   6.358
 4949TIP3   OH214789   6.432   0.815   6.009
 4949TIP3    H114790   6.460   0.734   5.967
 4949TIP3    H214791   6.511   0.850   6.051
 4950TIP3   OH214792   4.118   7.036   4.629
 4950TIP3    H114793   4.165   6.983   4.693
 4950TIP3    H214794   4.053   7.084   4.680
 4951TIP3   OH214795   3.292   0.783   2.671
 4951TIP3    H114796   3.275   0.877   2.665
 4951TIP3    H214797   3.242   0.754   2.748
 4952TIP3   OH214798   3.350   2.435   3.032
 4952TIP3    H114799   3.434   2.481   3.036
 4952TIP3    H214800   3.328   2.433   2.938
 4953TIP3   OH214801   0.085   2.578   5.947
 4953TIP3    H114802   0.130   2.495   5.934
 4953TIP3    H214803   0.052   2.602   5.860
 4954TIP3   OH214804   7.008   4.855   4.974
 4954TIP3    H114805   7.008   4.820   5.063
 4954TIP3    H214806   7.074   4.925   4.976
 4955TIP3   OH214807   1.417   1.217   4.603
 4955TIP3    H114808   1.411   1.154   4.675
 4955TIP3    H214809   1.339   1.201   4.550
 4956TIP3   OH214810   4.203   0.633   6.497
 4956TIP3    H114811   4.229   0.583   6.575
 4956TIP3    H214812   4.279   0.628   6.439
 4957TIP3   OH214813   6.879   5.956   1.297
 4957TIP3    H114814   6.956   5.921   1.252
 4957TIP3    H214815   6.805   5.910   1.257
 4958TIP3   OH214816   7.873   5.790   4.906
 4958TIP3    H114817   7.858   5.699   4.934
 4958TIP3    H214818   7.793   5.814   4.860
 4959TIP3   OH214819   4.024   1.541   1.724
 4959TIP3    H114820   3.977   1.608   1.774
 4959TIP3    H214821   4.074   1.494   1.790
 4960TIP3   OH214822   4.666   5.890   2.462
 4960TIP3    H114823   4.751   5.862   2.497
 4960TIP3    H214824   4.685   5.916   2.372
 4961TIP3   OH214825   7.160   0.651   1.373
 4961TIP3    H114826   7.230   0.671   1.436
 4961TIP3    H214827   7.202   0.661   1.288
 4962TIP3   OH214828   4.103   4.741   0.977
 4962TIP3    H114829   4.163   4.667   0.964
 4962TIP3    H214830   4.153   4.818   0.950
 4963TIP3   OH214831   4.126   7.154   2.355
 4963TIP3    H114832   4.050   7.101   2.378
 4963TIP3    H214833   4.152   7.122   2.269
 4964TIP3   OH214834   6.480   0.621   2.207
 4964TIP3    H114835   6.419   0.567   2.157
 4964TIP3    H214836   6.552   0.563   2.228
 4965TIP3   OH214837   4.735   3.365   5.405
 4965TIP3    H114838   4.662   3.369   5.344
 4965TIP3    H214839   4.694   3.370   5.492
 4966TIP3   OH214840   0.526   7.914   5.932
 4966TIP3    H114841   0.528   7.818   5.929
 4966TIP3    H214842   0.617   7.940   5.922
 4967TIP3   OH214843   2.159   2.771   0.577
 4967TIP3    H114844   2.230   2.720   0.537
 4967TIP3    H214845   2.079   2.728   0.549
 4968TIP3   OH214846   1.483   6.540   0.611
 4968TIP3    H114847   1.396   6.548   0.650
 4968TIP3    H214848   1.542   6.528   0.686
 4969TIP3   OH214849   3.782   4.928   1.348
 4969TIP3    H114850   3.696   4.894   1.324
 4969TIP3    H214851   3.844   4.884   1.289
 4970TIP3   OH214852   8.249   5.123   1.049
 4970TIP3    H114853   8.188   5.050   1.043
 4970TIP3    H214854   8.222   5.171   1.128
 4971TIP3   OH214855   4.126   4.563   3.234
 4971TIP3    H114856   4.100   4.471   3.241
 4971TIP3    H214857   4.044   4.611   3.228
 4972TIP3   OH214858   0.905   7.537   0.144
 4972TIP3    H114859   0.829   7.525   0.087
 4972TIP3    H214860   0.980   7.526   0.087
 4973TIP3   OH214861   1.883   1.383   0.727
 4973TIP3    H114862   1.798   1.418   0.699
 4973TIP3    H214863   1.927   1.358   0.646
 4974TIP3   OH214864   1.631   3.998   3.163
 4974TIP3    H114865   1.576   3.994   3.085
 4974TIP3    H214866   1.593   4.068   3.216
 4975TIP3   OH214867   4.184   2.573   5.232
 4975TIP3    H114868   4.145   2.656   5.262
 4975TIP3    H214869   4.113   2.509   5.239
 4976TIP3   OH214870   1.978   1.517   0.310
 4976TIP3    H114871   1.924   1.555   0.379
 4976TIP3    H214872   1.955   1.567   0.232
 4977TIP3   OH214873   3.723   5.064   2.547
 4977TIP3    H114874   3.704   4.987   2.494
 4977TIP3    H214875   3.666   5.133   2.512
 4978TIP3   OH214876   0.421   7.734   3.796
 4978TIP3    H114877   0.443   7.802   3.732
 4978TIP3    H214878   0.488   7.744   3.865
 4979TIP3   OH214879   7.241   1.633   6.273
 4979TIP3    H114880   7.319   1.687   6.285
 4979TIP3    H214881   7.190   1.648   6.353
 4980TIP3   OH214882   3.976   0.424   4.462
 4980TIP3    H114883   3.980   0.336   4.425
 4980TIP3    H214884   4.010   0.415   4.551
 4981TIP3   OH214885   0.557   5.933   5.036
 4981TIP3    H114886   0.561   5.881   4.955
 4981TIP3    H214887   0.637   5.985   5.034
 4982TIP3   OH214888   5.235   4.882   6.309
 4982TIP3    H114889   5.181   4.806   6.290
 4982TIP3    H214890   5.321   4.861   6.271
 4983TIP3   OH214891   2.240   4.027   5.468
 4983TIP3    H114892   2.199   4.044   5.553
 4983TIP3    H214893   2.171   3.985   5.417
 4984TIP3   OH214894   0.159   4.295   0.708
 4984TIP3    H114895   0.161   4.211   0.755
 4984TIP3    H214896   0.241   4.338   0.733
 4985TIP3   OH214897   7.508   2.692   5.707
 4985TIP3    H114898   7.422   2.668   5.742
 4985TIP3    H214899   7.557   2.610   5.704
 4986TIP3   OH214900   2.510   6.912   0.652
 4986TIP3    H114901   2.530   6.855   0.578
 4986TIP3    H214902   2.463   6.855   0.713
 4987TIP3   OH214903   4.490   2.095   0.634
 4987TIP3    H114904   4.562   2.032   0.630
 4987TIP3    H214905   4.527   2.170   0.681
 4988TIP3   OH214906   7.682   6.727   1.700
 4988TIP3    H114907   7.745   6.748   1.768
 4988TIP3    H214908   7.692   6.633   1.686
 4989TIP3   OH214909   5.035   6.701   2.217
 4989TIP3    H114910   5.121   6.676   2.249
 4989TIP3    H214911   5.047   6.713   2.123
 4990TIP3   OH214912   0.093   7.481   3.563
 4990TIP3    H114913  -0.002   7.492   3.561
 4990TIP3    H214914   0.114   7.440   3.479
 4991TIP3   OH214915   2.461   6.696   0.856
 4991TIP3    H114916   2.418   6.717   0.939
 4991TIP3    H214917   2.415   6.617   0.825
 4992TIP3   OH214918   0.104   0.018   6.258
 4992TIP3    H114919   0.174   0.060   6.307
 4992TIP3    H214920   0.148  -0.048   6.204
 4993TIP3   OH214921   5.142   4.182   6.094
 4993TIP3    H114922   5.223   4.204   6.048
 4993TIP3    H214923   5.153   4.220   6.181
 4994TIP3   OH214924   2.397   7.477   2.638
 4994TIP3    H114925   2.362   7.432   2.561
 4994TIP3    H214926   2.322   7.487   2.696
 4995TIP3   OH214927   3.284   3.278   5.888
 4995TIP3    H114928   3.207   3.331   5.907
 4995TIP3    H214929   3.338   3.286   5.967
 4996TIP3   OH214930   2.473   1.358   6.489
 4996TIP3    H114931   2.409   1.429   6.496
 4996TIP3    H214932   2.495   1.337   6.580
 4997TIP3   OH214933   1.986   0.841   6.101
 4997TIP3    H114934   2.023   0.907   6.043
 4997TIP3    H214935   2.061   0.802   6.145
 4998TIP3   OH214936   8.302   2.688   2.139
 4998TIP3    H114937   8.213   2.688   2.175
 4998TIP3    H214938   8.329   2.779   2.144
 4999TIP3   OH214939   7.957   4.612   0.153
 4999TIP3    H114940   8.034   4.557   0.168
 4999TIP3    H214941   7.970   4.687   0.212
 5000TIP3   OH214942   5.608   4.293   3.405
 5000TIP3    H114943   5.582   4.201   3.396
 5000TIP3    H214944   5.583   4.333   3.322
 5001TIP3   OH214945   4.318   5.223   0.687
 5001TIP3    H114946   4.408   5.193   0.703
 5001TIP3    H214947   4.302   5.201   0.595
 5002TIP3   OH214948   2.519   5.959   3.619
 5002TIP3    H114949   2.565   6.037   3.586
 5002TIP3    H214950   2.453   5.941   3.551
 5003TIP3   OH214951   5.589   6.574   5.757
 5003TIP3    H114952   5.537   6.645   5.719
 5003TIP3    H214953   5.533   6.496   5.749
 5004TIP3   OH214954   7.256   2.025   2.898
 5004TIP3    H114955   7.211   1.993   2.976
 5004TIP3    H214956   7.271   1.946   2.845
 5005TIP3   OH214957   3.112   0.732   0.519
 5005TIP3    H114958   3.088   0.719   0.427
 5005TIP3    H214959   3.202   0.699   0.525
 5006TIP3   OH214960   6.207   7.731   6.253
 5006TIP3    H114961   6.112   7.726   6.267
 5006TIP3    H214962   6.242   7.758   6.338
 5007TIP3   OH214963   1.789   5.023   3.076
 5007TIP3    H114964   1.772   4.954   3.139
 5007TIP3    H214965   1.715   5.019   3.015
 5008TIP3   OH214966   2.502   3.878   0.437
 5008TIP3    H114967   2.499   3.913   0.348
 5008TIP3    H214968   2.432   3.924   0.483
 5009TIP3   OH214969   6.858   5.951   3.488
 5009TIP3    H114970   6.850   5.858   3.507
 5009TIP3    H214971   6.922   5.956   3.417
 5010TIP3   OH214972   5.021   7.213   5.158
 5010TIP3    H114973   4.997   7.158   5.233
 5010TIP3    H214974   5.114   7.231   5.170
 5011TIP3   OH214975   2.841   4.695   2.776
 5011TIP3    H114976   2.908   4.736   2.722
 5011TIP3    H214977   2.760   4.738   2.750
 5012TIP3   OH214978   5.072   2.696   5.721
 5012TIP3    H114979   5.130   2.740   5.783
 5012TIP3    H214980   5.007   2.654   5.777
 5013TIP3   OH214981   2.344   6.925   5.751
 5013TIP3    H114982   2.347   6.911   5.656
 5013TIP3    H214983   2.434   6.912   5.779
 5014TIP3   OH214984   5.369   6.942   5.334
 5014TIP3    H114985   5.328   6.880   5.394
 5014TIP3    H214986   5.348   6.909   5.247
 5015TIP3   OH214987   7.846   3.455   4.921
 5015TIP3    H114988   7.813   3.365   4.919
 5015TIP3    H214989   7.815   3.491   5.004
 5016TIP3   OH214990   3.144   1.127   0.170
 5016TIP3    H114991   3.128   1.085   0.255
 5016TIP3    H214992   3.079   1.197   0.165
 5017TIP3   OH214993   0.746   7.693   4.762
 5017TIP3    H114994   0.780   7.661   4.846
 5017TIP3    H214995   0.653   7.669   4.763
 5018TIP3   OH214996   6.211   6.982   6.770
 5018TIP3    H114997   6.243   7.072   6.759
 5018TIP3    H214998   6.204   6.949   6.680
 5019TIP3   OH214999   8.143   3.083   6.391
 5019TIP3    H115000   8.217   3.027   6.412
 5019TIP3    H215001   8.176   3.140   6.321
 5020TIP3   OH215002   2.462   6.082   5.760
 5020TIP3    H115003   2.461   6.073   5.665
 5020TIP3    H215004   2.519   6.011   5.790
 5021TIP3   OH215005   4.718  -0.023   4.126
 5021TIP3    H115006   4.769   0.016   4.197
 5021TIP3    H215007   4.649  -0.072   4.170
 5022TIP3   OH215008   2.916   6.822   1.899
 5022TIP3    H115009   2.904   6.734   1.864
 5022TIP3    H215010   2.980   6.863   1.840
 5023TIP3   OH215011   3.555   6.843   4.471
 5023TIP3    H115012   3.463   6.867   4.482
 5023TIP3    H215013   3.557   6.795   4.388
 5024TIP3   OH215014   0.795   5.898   5.689
 5024TIP3    H115015   0.839   5.858   5.614
 5024TIP3    H215016   0.857   5.964   5.721
 5025TIP3   OH215017   7.225   3.906   3.141
 5025TIP3    H115018   7.220   3.986   3.193
 5025TIP3    H215019   7.289   3.852   3.185
 5026TIP3   OH215020   1.873   7.030   1.749
 5026TIP3    H115021   1.876   7.117   1.790
 5026TIP3    H215022   1.819   7.043   1.671
 5027TIP3   OH215023   4.660   5.262   4.123
 5027TIP3    H115024   4.696   5.210   4.052
 5027TIP3    H215025   4.684   5.215   4.202
 5028TIP3   OH215026   6.386   5.498   5.128
 5028TIP3    H115027   6.402   5.526   5.219
 5028TIP3    H215028   6.472   5.499   5.088
 5029TIP3   OH215029   6.436   1.828   2.418
 5029TIP3    H115030   6.423   1.837   2.513
 5029TIP3    H215031   6.526   1.797   2.409
 5030TIP3   OH215032   6.896   4.457   4.664
 5030TIP3    H115033   6.835   4.490   4.598
 5030TIP3    H215034   6.968   4.418   4.614
 5031TIP3   OH215035   3.161   1.909   5.540
 5031TIP3    H115036   3.108   1.980   5.577
 5031TIP3    H215037   3.098   1.851   5.498
 5032TIP3   OH215038   1.309   1.112   2.487
 5032TIP3    H115039   1.343   1.119   2.398
 5032TIP3    H215040   1.373   1.158   2.542
 5033TIP3   OH215041   6.657   3.065   5.034
 5033TIP3    H115042   6.700   3.143   5.000
 5033TIP3    H215043   6.728   3.009   5.065
 5034TIP3   OH215044   0.822   7.736   4.063
 5034TIP3    H115045   0.892   7.791   4.099
 5034TIP3    H215046   0.862   7.649   4.055
 5035TIP3   OH215047   6.753   6.685   3.611
 5035TIP3    H115048   6.840   6.723   3.597
 5035TIP3    H215049   6.770   6.600   3.653
 5036TIP3   OH215050   6.136   4.210   2.983
 5036TIP3    H115051   6.096   4.269   2.920
 5036TIP3    H215052   6.073   4.138   2.993
 5037TIP3   OH215053   6.850   2.340   5.527
 5037TIP3    H115054   6.885   2.416   5.481
 5037TIP3    H215055   6.757   2.359   5.538
 5038TIP3   OH215056   2.177   1.928   5.963
 5038TIP3    H115057   2.084   1.944   5.946
 5038TIP3    H215058   2.187   1.943   6.057
 5039TIP3   OH215059   0.526   2.744   6.732
 5039TIP3    H115060   0.620   2.756   6.720
 5039TIP3    H215061   0.518   2.692   6.812
 5040TIP3   OH215062   5.463   0.473   0.908
 5040TIP3    H115063   5.460   0.526   0.988
 5040TIP3    H215064   5.508   0.393   0.933
 5041TIP3   OH215065   2.338   2.612   5.565
 5041TIP3    H115066   2.394   2.627   5.641
 5041TIP3    H215067   2.399   2.598   5.492
 5042TIP3   OH215068   2.968   6.874   4.886
 5042TIP3    H115069   2.996   6.817   4.815
 5042TIP3    H215070   3.013   6.839   4.963
 5043TIP3   OH215071   6.522   1.368   3.772
 5043TIP3    H115072   6.486   1.438   3.718
 5043TIP3    H215073   6.611   1.397   3.794
 5044TIP3   OH215074   3.953   5.695   3.354
 5044TIP3    H115075   3.900   5.620   3.382
 5044TIP3    H215076   4.044   5.664   3.364
 5045TIP3   OH215077   7.253   2.657   5.869
 5045TIP3    H115078   7.196   2.617   5.934
 5045TIP3    H215079   7.202   2.655   5.788
 5046TIP3   OH215080   3.838   2.871   6.017
 5046TIP3    H115081   3.847   2.866   6.112
 5046TIP3    H215082   3.743   2.878   6.002
 5047TIP3   OH215083   1.904   4.935   4.602
 5047TIP3    H115084   1.880   4.927   4.510
 5047TIP3    H215085   1.938   4.849   4.625
 5048TIP3   OH215086   3.421   6.471   2.005
 5048TIP3    H115087   3.360   6.514   1.944
 5048TIP3    H215088   3.494   6.444   1.950
 5049TIP3   OH215089   4.601   7.489   1.695
 5049TIP3    H115090   4.520   7.536   1.677
 5049TIP3    H215091   4.652   7.499   1.615
 5050TIP3   OH215092   3.172   5.244   1.544
 5050TIP3    H115093   3.179   5.218   1.452
 5050TIP3    H215094   3.219   5.328   1.548
 5051TIP3   OH215095   6.076   2.439   0.124
 5051TIP3    H115096   5.999   2.393   0.157
 5051TIP3    H215097   6.082   2.412   0.032
 5052TIP3   OH215098   7.078   1.697   6.480
 5052TIP3    H115099   7.073   1.792   6.471
 5052TIP3    H215100   7.052   1.680   6.570
 5053TIP3   OH215101   0.579   6.948   6.666
 5053TIP3    H115102   0.508   7.004   6.698
 5053TIP3    H215103   0.650   7.008   6.645
 5054TIP3   OH215104   8.000   7.618   2.112
 5054TIP3    H115105   7.966   7.670   2.185
 5054TIP3    H215106   8.080   7.663   2.086
 5055TIP3   OH215107   1.040   5.218   3.525
 5055TIP3    H115108   0.971   5.210   3.460
 5055TIP3    H215109   1.109   5.159   3.495
 5056TIP3   OH215110   5.959   1.111   1.872
 5056TIP3    H115111   5.903   1.120   1.950
 5056TIP3    H215112   6.033   1.169   1.891
 5057TIP3   OH215113   2.389   7.259   5.009
 5057TIP3    H115114   2.309   7.230   4.966
 5057TIP3    H215115   2.434   7.313   4.944
 5058TIP3   OH215116   4.897   0.709   0.390
 5058TIP3    H115117   4.845   0.687   0.467
 5058TIP3    H215118   4.984   0.675   0.409
 5059TIP3   OH215119   2.436   5.340   2.651
 5059TIP3    H115120   2.413   5.289   2.573
 5059TIP3    H215121   2.489   5.412   2.618
 5060TIP3   OH215122   3.969   4.063   1.335
 5060TIP3    H115123   4.008   4.025   1.414
 5060TIP3    H215124   3.995   4.155   1.337
 5061TIP3   OH215125   5.245   6.589   0.254
 5061TIP3    H115126   5.161   6.588   0.301
 5061TIP3    H215127   5.227   6.542   0.173
 5062TIP3   OH215128   8.192   6.463   5.585
 5062TIP3    H115129   8.207   6.387   5.641
 5062TIP3    H215130   8.178   6.427   5.498
 5063TIP3   OH215131   4.515   7.764   4.706
 5063TIP3    H115132   4.577   7.715   4.760
 5063TIP3    H215133   4.454   7.803   4.768
 5064TIP3   OH215134   6.399   0.006   2.665
 5064TIP3    H115135   6.332  -0.027   2.725
 5064TIP3    H215136   6.414   0.096   2.694
 5065TIP3   OH215137   3.068   5.707   1.750
 5065TIP3    H115138   3.129   5.762   1.701
 5065TIP3    H215139   3.063   5.747   1.836
 5066TIP3   OH215140   7.609   5.534   1.223
 5066TIP3    H115141   7.654   5.451   1.203
 5066TIP3    H215142   7.679   5.599   1.224
 5067TIP3   OH215143   2.750   4.817   3.899
 5067TIP3    H115144   2.746   4.885   3.832
 5067TIP3    H215145   2.678   4.758   3.878
 5068TIP3   OH215146   2.011   2.290   4.227
 5068TIP3    H115147   2.027   2.284   4.133
 5068TIP3    H215148   1.956   2.214   4.246
 5069TIP3   OH215149   5.021   7.041   2.642
 5069TIP3    H115150   5.065   6.994   2.712
 5069TIP3    H215151   5.079   7.115   2.623
 5070TIP3   OH215152   6.456   7.098   2.868
 5070TIP3    H115153   6.478   7.177   2.918
 5070TIP3    H215154   6.384   7.126   2.811
 5071TIP3   OH215155   3.723   2.240   3.789
 5071TIP3    H115156   3.685   2.244   3.701
 5071TIP3    H215157   3.808   2.197   3.777
 5072TIP3   OH215158   4.459   0.655   2.116
 5072TIP3    H115159   4.509   0.704   2.050
 5072TIP3    H215160   4.478   0.563   2.099
 5073TIP3   OH215161   6.448   5.207   4.398
 5073TIP3    H115162   6.413   5.118   4.407
 5073TIP3    H215163   6.461   5.219   4.304
 5074TIP3   OH215164   4.660   3.960   1.474
 5074TIP3    H115165   4.571   3.995   1.478
 5074TIP3    H215166   4.706   4.003   1.546
 5075TIP3   OH215167   4.725   6.890   0.872
 5075TIP3    H115168   4.806   6.923   0.833
 5075TIP3    H215169   4.750   6.864   0.961
 5076TIP3   OH215170   2.739   5.989   5.824
 5076TIP3    H115171   2.766   6.047   5.753
 5076TIP3    H215172   2.751   5.901   5.788
 5077TIP3   OH215173   3.418   1.712   2.871
 5077TIP3    H115174   3.401   1.791   2.819
 5077TIP3    H215175   3.510   1.722   2.898
 5078TIP3   OH215176   1.584   6.224   1.672
 5078TIP3    H115177   1.594   6.222   1.577
 5078TIP3    H215178   1.668   6.195   1.706
 5079TIP3   OH215179   2.861   0.471   5.498
 5079TIP3    H115180   2.864   0.566   5.501
 5079TIP3    H215181   2.773   0.450   5.466
 5080TIP3   OH215182   1.624   0.473   0.928
 5080TIP3    H115183   1.595   0.444   1.014
 5080TIP3    H215184   1.665   0.396   0.889
 5081TIP3   OH215185   1.594   0.584   6.722
 5081TIP3    H115186   1.511   0.606   6.764
 5081TIP3    H215187   1.575   0.590   6.628
 5082TIP3   OH215188   3.972   1.292   0.095
 5082TIP3    H115189   3.897   1.232   0.098
 5082TIP3    H215190   3.940   1.368   0.047
 5083TIP3   OH215191   0.824   3.868   2.346
 5083TIP3    H115192   0.801   3.957   2.372
 5083TIP3    H215193   0.740   3.826   2.329
 5084TIP3   OH215194   0.157   3.610   4.530
 5084TIP3    H115195   0.115   3.689   4.495
 5084TIP3    H215196   0.084   3.557   4.562
 5085TIP3   OH215197   6.525   5.748   1.866
 5085TIP3    H115198   6.565   5.814   1.809
 5085TIP3    H215199   6.518   5.670   1.812
 5086TIP3   OH215200   4.228   3.730   0.444
 5086TIP3    H115201   4.169   3.735   0.369
 5086TIP3    H215202   4.170   3.718   0.519
 5087TIP3   OH215203   3.068   7.606   4.853
 5087TIP3    H115204   3.151   7.614   4.900
 5087TIP3    H215205   3.032   7.522   4.880
 5088TIP3   OH215206   6.141   1.229   2.547
 5088TIP3    H115207   6.195   1.279   2.485
 5088TIP3    H215208   6.138   1.141   2.509
 5089TIP3   OH215209   5.807   1.265   1.633
 5089TIP3    H115210   5.835   1.355   1.652
 5089TIP3    H215211   5.832   1.216   1.712
 5090TIP3   OH215212   2.916   5.138   5.220
 5090TIP3    H115213   2.847   5.072   5.211
 5090TIP3    H215214   2.995   5.086   5.240
 5091TIP3   OH215215   0.310  -0.025   5.856
 5091TIP3    H115216   0.365   0.045   5.821
 5091TIP3    H215217   0.271  -0.065   5.778
 5092TIP3   OH215218   1.262   1.789   6.347
 5092TIP3    H115219   1.357   1.788   6.355
 5092TIP3    H215220   1.232   1.715   6.400
 5093TIP3   OH215221   5.153   3.957   5.945
 5093TIP3    H115222   5.181   4.049   5.941
 5093TIP3    H215223   5.072   3.959   5.996
 5094TIP3   OH215224   0.749   1.837   2.802
 5094TIP3    H115225   0.657   1.822   2.779
 5094TIP3    H215226   0.794   1.758   2.772
 5095TIP3   OH215227   7.622   1.540   6.164
 5095TIP3    H115228   7.674   1.565   6.241
 5095TIP3    H215229   7.558   1.478   6.197
 5096TIP3   OH215230   6.728   5.901   3.782
 5096TIP3    H115231   6.700   5.991   3.769
 5096TIP3    H215232   6.801   5.889   3.722
 5097TIP3   OH215233   7.816   2.275   6.512
 5097TIP3    H115234   7.782   2.186   6.521
 5097TIP3    H215235   7.910   2.267   6.529
 5098TIP3   OH215236   7.594   7.026   0.962
 5098TIP3    H115237   7.520   6.965   0.964
 5098TIP3    H215238   7.556   7.109   0.932
 5099TIP3   OH215239   1.584   5.392   5.767
 5099TIP3    H115240   1.506   5.337   5.769
 5099TIP3    H215241   1.586   5.434   5.853
 5100TIP3   OH215242   3.409   4.706   2.673
 5100TIP3    H115243   3.467   4.647   2.720
 5100TIP3    H215244   3.420   4.682   2.581
 5101TIP3   OH215245   2.027   5.313   0.209
 5101TIP3    H115246   2.091   5.244   0.190
 5101TIP3    H215247   2.012   5.356   0.125
 5102TIP3   OH215248   7.203   7.270   5.941
 5102TIP3    H115249   7.217   7.258   5.847
 5102TIP3    H215250   7.181   7.363   5.949
 5103TIP3   OH215251   2.183   3.075   1.475
 5103TIP3    H115252   2.237   3.050   1.400
 5103TIP3    H215253   2.094   3.074   1.441
 5104TIP3   OH215254   7.922   6.084   5.136
 5104TIP3    H115255   7.859   6.012   5.128
 5104TIP3    H215256   7.883   6.143   5.200
 5105TIP3   OH215257   6.474   1.399   0.540
 5105TIP3    H115258   6.569   1.400   0.556
 5105TIP3    H215259   6.461   1.462   0.469
 5106TIP3   OH215260   7.172   0.548   6.515
 5106TIP3    H115261   7.178   0.502   6.599
 5106TIP3    H215262   7.090   0.517   6.476
 5107TIP3   OH215263   1.905   1.094   2.256
 5107TIP3    H115264   1.941   1.006   2.262
 5107TIP3    H215265   1.830   1.094   2.315
 5108TIP3   OH215266   1.102   0.297   5.647
 5108TIP3    H115267   1.061   0.383   5.648
 5108TIP3    H215268   1.081   0.261   5.560
 5109TIP3   OH215269   0.653   7.580   0.852
 5109TIP3    H115270   0.639   7.630   0.771
 5109TIP3    H215271   0.733   7.618   0.889
 5110TIP3   OH215272   4.906   5.209   3.997
 5110TIP3    H115273   4.945   5.131   3.958
 5110TIP3    H215274   4.949   5.217   4.083
 5111TIP3   OH215275   1.835   4.422   1.216
 5111TIP3    H115276   1.915   4.474   1.219
 5111TIP3    H215277   1.833   4.387   1.127
 5112TIP3   OH215278   4.664   2.769   2.820
 5112TIP3    H115279   4.694   2.819   2.744
 5112TIP3    H215280   4.733   2.782   2.886
 5113TIP3   OH215281   6.357   4.702   2.055
 5113TIP3    H115282   6.387   4.627   2.107
 5113TIP3    H215283   6.419   4.707   1.983
 5114TIP3   OH215284   3.821   6.204   1.582
 5114TIP3    H115285   3.911   6.213   1.551
 5114TIP3    H215286   3.779   6.287   1.557
 5115TIP3   OH215287   7.716   0.582   0.168
 5115TIP3    H115288   7.631   0.606   0.130
 5115TIP3    H215289   7.694   0.531   0.246
 5116TIP3   OH215290   8.148   0.387   1.814
 5116TIP3    H115291   8.142   0.335   1.734
 5116TIP3    H215292   8.207   0.338   1.871
 5117TIP3   OH215293   7.431   4.877   4.053
 5117TIP3    H115294   7.394   4.883   4.141
 5117TIP3    H215295   7.479   4.794   4.052
 5118TIP3   OH215296   2.872   6.703   6.113
 5118TIP3    H115297   2.942   6.641   6.091
 5118TIP3    H215298   2.907   6.788   6.086
 5119TIP3   OH215299   3.778   7.175   0.904
 5119TIP3    H115300   3.710   7.242   0.906
 5119TIP3    H215301   3.732   7.094   0.924
 5120TIP3   OH215302   6.284   7.501   0.005
 5120TIP3    H115303   6.356   7.438   0.012
 5120TIP3    H215304   6.243   7.482  -0.079
 5121TIP3   OH215305   1.071   2.589   5.683
 5121TIP3    H115306   0.989   2.600   5.634
 5121TIP3    H215307   1.138   2.626   5.626
 5122TIP3   OH215308   7.066   5.872   0.066
 5122TIP3    H115309   6.985   5.916   0.092
 5122TIP3    H215310   7.112   5.857   0.149
 5123TIP3   OH215311   6.345   3.116   1.228
 5123TIP3    H115312   6.438   3.104   1.210
 5123TIP3    H215313   6.321   3.042   1.284
 5124TIP3   OH215314   3.884   4.368   2.890
 5124TIP3    H115315   3.803   4.323   2.865
 5124TIP3    H215316   3.863   4.461   2.882
 5125TIP3   OH215317   5.839   6.842   0.368
 5125TIP3    H115318   5.843   6.788   0.289
 5125TIP3    H215319   5.771   6.802   0.421
 5126TIP3   OH215320   7.415   4.450   0.052
 5126TIP3    H115321   7.469   4.372   0.063
 5126TIP3    H215322   7.462   4.503  -0.012
 5127TIP3   OH215323   2.894   4.524   1.971
 5127TIP3    H115324   2.831   4.592   1.948
 5127TIP3    H215325   2.975   4.572   1.990
 5128TIP3   OH215326   0.249   2.490   2.028
 5128TIP3    H115327   0.223   2.513   1.939
 5128TIP3    H215328   0.220   2.400   2.039
 5129TIP3   OH215329   0.966   2.311   1.096
 5129TIP3    H115330   0.929   2.325   1.009
 5129TIP3    H215331   1.058   2.336   1.087
 5130TIP3   OH215332   6.107   7.221   4.327
 5130TIP3    H115333   6.098   7.251   4.237
 5130TIP3    H215334   6.143   7.132   4.320
 5131TIP3   OH215335   5.093   2.597   2.680
 5131TIP3    H115336   5.156   2.669   2.688
 5131TIP3    H215337   5.050   2.613   2.596
 5132TIP3   OH215338   4.662   5.428   4.945
 5132TIP3    H115339   4.720   5.352   4.939
 5132TIP3    H215340   4.668   5.455   5.037
 5133TIP3   OH215341   2.740   2.158   1.150
 5133TIP3    H115342   2.675   2.094   1.121
 5133TIP3    H215343   2.802   2.163   1.077
 5134TIP3   OH215344   1.992   7.289   1.805
 5134TIP3    H115345   1.974   7.339   1.885
 5134TIP3    H215346   2.066   7.233   1.828
 5135TIP3   OH215347   1.333   1.187   3.796
 5135TIP3    H115348   1.261   1.155   3.851
 5135TIP3    H215349   1.311   1.278   3.777
 5136TIP3   OH215350   3.963   0.114   1.124
 5136TIP3    H115351   3.920   0.199   1.118
 5136TIP3    H215352   3.963   0.093   1.217
 5137TIP3   OH215353   7.662   5.108   5.994
 5137TIP3    H115354   7.728   5.038   5.995
 5137TIP3    H215355   7.712   5.187   5.973
 5138TIP3   OH215356   5.113   5.786   4.811
 5138TIP3    H115357   5.044   5.811   4.749
 5138TIP3    H215358   5.166   5.865   4.821
 5139TIP3   OH215359   4.556   2.572   1.442
 5139TIP3    H115360   4.625   2.619   1.396
 5139TIP3    H215361   4.584   2.480   1.441
 5140TIP3   OH215362   1.535   5.636   5.169
 5140TIP3    H115363   1.550   5.644   5.075
 5140TIP3    H215364   1.454   5.684   5.185
 5141TIP3   OH215365   7.227   5.826   5.813
 5141TIP3    H115366   7.196   5.736   5.822
 5141TIP3    H215367   7.283   5.840   5.890
 5142TIP3   OH215368   8.126   7.115   1.019
 5142TIP3    H115369   8.189   7.179   1.050
 5142TIP3    H215370   8.149   7.034   1.065
 5143TIP3   OH215371   7.870   5.603   4.208
 5143TIP3    H115372   7.921   5.614   4.288
 5143TIP3    H215373   7.936   5.582   4.141
 5144TIP3   OH215374   2.523   1.646   4.571
 5144TIP3    H115375   2.546   1.555   4.593
 5144TIP3    H215376   2.516   1.690   4.656
 5145TIP3   OH215377   5.760   3.281   5.406
 5145TIP3    H115378   5.849   3.318   5.404
 5145TIP3    H215379   5.750   3.248   5.495
 5146TIP3   OH215380   6.235   3.219   4.024
 5146TIP3    H115381   6.298   3.189   3.958
 5146TIP3    H215382   6.160   3.159   4.015
 5147TIP3   OH215383   4.942   6.891   0.303
 5147TIP3    H115384   4.938   6.949   0.227
 5147TIP3    H215385   5.016   6.924   0.355
 5148TIP3   OH215386   3.234   5.709   0.331
 5148TIP3    H115387   3.243   5.631   0.386
 5148TIP3    H215388   3.231   5.782   0.392
 5149TIP3   OH215389   1.774   1.158   6.617
 5149TIP3    H115390   1.859   1.169   6.574
 5149TIP3    H215391   1.734   1.245   6.614
 5150TIP3   OH215392   0.874   1.379   0.301
 5150TIP3    H115393   0.946   1.326   0.267
 5150TIP3    H215394   0.880   1.461   0.252
 5151TIP3   OH215395   6.729   0.391   1.168
 5151TIP3    H115396   6.670   0.406   1.242
 5151TIP3    H215397   6.802   0.452   1.184
 5152TIP3   OH215398   6.179   1.688   0.600
 5152TIP3    H115399   6.216   1.681   0.511
 5152TIP3    H215400   6.254   1.713   0.654
 5153TIP3   OH215401   5.314   7.736   5.228
 5153TIP3    H115402   5.341   7.650   5.194
 5153TIP3    H215403   5.233   7.719   5.275
 5154TIP3   OH215404   1.306   6.110   4.835
 5154TIP3    H115405   1.320   6.048   4.764
 5154TIP3    H215406   1.391   6.152   4.847
 5155TIP3   OH215407   3.908   4.782   1.149
 5155TIP3    H115408   3.864   4.828   1.078
 5155TIP3    H215409   3.997   4.768   1.117
 5156TIP3   OH215410   2.445   1.002   1.821
 5156TIP3    H115411   2.510   0.944   1.860
 5156TIP3    H215412   2.485   1.089   1.824
 5157TIP3   OH215413   7.768   7.616   3.248
 5157TIP3    H115414   7.760   7.596   3.154
 5157TIP3    H215415   7.748   7.709   3.254
 5158TIP3   OH215416   7.055   7.560   4.613
 5158TIP3    H115417   7.030   7.601   4.696
 5158TIP3    H215418   6.987   7.495   4.597
 5159TIP3   OH215419   6.035   2.703   4.493
 5159TIP3    H115420   6.021   2.740   4.406
 5159TIP3    H215421   6.103   2.637   4.480
 5160TIP3   OH215422   3.381   4.805   0.453
 5160TIP3    H115423   3.323   4.845   0.517
 5160TIP3    H215424   3.389   4.714   0.482
 5161TIP3   OH215425   0.230   7.638   3.022
 5161TIP3    H115426   0.191   7.555   3.051
 5161TIP3    H215427   0.201   7.648   2.932
 5162TIP3   OH215428   1.179   7.082   3.918
 5162TIP3    H115429   1.119   7.115   3.850
 5162TIP3    H215430   1.191   7.157   3.976
 5163TIP3   OH215431   4.985   0.470   5.947
 5163TIP3    H115432   4.971   0.497   6.037
 5163TIP3    H215433   5.039   0.391   5.954
 5164TIP3   OH215434   0.584   2.970   3.156
 5164TIP3    H115435   0.620   3.029   3.222
 5164TIP3    H215436   0.626   2.886   3.173
 5165TIP3   OH215437   5.015   5.288   5.034
 5165TIP3    H115438   4.970   5.330   5.107
 5165TIP3    H215439   4.972   5.203   5.025
 5166TIP3   OH215440   2.001   4.229   4.698
 5166TIP3    H115441   1.923   4.175   4.713
 5166TIP3    H215442   1.995   4.298   4.764
 5167TIP3   OH215443   3.195   2.579   0.890
 5167TIP3    H115444   3.111   2.592   0.846
 5167TIP3    H215445   3.218   2.666   0.924
 5168TIP3   OH215446   2.070   1.160   0.188
 5168TIP3    H115447   2.161   1.153   0.217
 5168TIP3    H215448   2.069   1.235   0.128
 5169TIP3   OH215449   4.289   2.065   1.431
 5169TIP3    H115450   4.344   1.991   1.457
 5169TIP3    H215451   4.268   2.048   1.339
 5170TIP3   OH215452   5.828   6.546   2.196
 5170TIP3    H115453   5.796   6.456   2.187
 5170TIP3    H215454   5.881   6.544   2.276
 5171TIP3   OH215455   1.986   2.133   3.690
 5171TIP3    H115456   2.029   2.217   3.673
 5171TIP3    H215457   1.894   2.148   3.668
 5172TIP3   OH215458   2.517   1.160   6.225
 5172TIP3    H115459   2.504   1.225   6.156
 5172TIP3    H215460   2.494   1.077   6.183
 5173TIP3   OH215461   6.526   5.872   3.064
 5173TIP3    H115462   6.526   5.799   3.126
 5173TIP3    H215463   6.462   5.934   3.100
 5174TIP3   OH215464   1.853   1.092   2.995
 5174TIP3    H115465   1.836   0.999   2.983
 5174TIP3    H215466   1.767   1.133   2.995
 5175TIP3   OH215467   3.633   4.632   6.486
 5175TIP3    H115468   3.560   4.603   6.541
 5175TIP3    H215469   3.657   4.554   6.435
 5176TIP3   OH215470   5.198   1.169   0.302
 5176TIP3    H115471   5.105   1.154   0.318
 5176TIP3    H215472   5.243   1.107   0.359
 5177TIP3   OH215473   3.563   5.270   5.092
 5177TIP3    H115474   3.497   5.284   5.024
 5177TIP3    H215475   3.545   5.338   5.157
 5178TIP3   OH215476   6.172   1.918   6.633
 5178TIP3    H115477   6.085   1.914   6.672
 5178TIP3    H215478   6.221   1.849   6.678
 5179TIP3   OH215479   1.363   2.135   6.211
 5179TIP3    H115480   1.297   2.099   6.269
 5179TIP3    H215481   1.378   2.224   6.245
 5180TIP3   OH215482   3.640   0.672   1.819
 5180TIP3    H115483   3.577   0.733   1.781
 5180TIP3    H215484   3.676   0.624   1.744
 5181TIP3   OH215485   5.236   5.533   5.883
 5181TIP3    H115486   5.164   5.488   5.926
 5181TIP3    H215487   5.193   5.591   5.820
 5182TIP3   OH215488   7.957   6.015   3.743
 5182TIP3    H115489   7.946   5.920   3.745
 5182TIP3    H215490   7.881   6.047   3.696
 5183TIP3   OH215491   5.663   3.721   6.475
 5183TIP3    H115492   5.679   3.633   6.508
 5183TIP3    H215493   5.721   3.730   6.400
 5184TIP3   OH215494   4.794   2.186   0.444
 5184TIP3    H115495   4.744   2.156   0.367
 5184TIP3    H215496   4.787   2.113   0.506
 5185TIP3   OH215497   4.944   4.054   5.670
 5185TIP3    H115498   4.937   3.958   5.670
 5185TIP3    H215499   4.869   4.083   5.722
 5186TIP3   OH215500   2.735   4.972   2.966
 5186TIP3    H115501   2.708   4.882   2.983
 5186TIP3    H215502   2.675   5.003   2.899
 5187TIP3   OH215503   4.132   3.975   1.868
 5187TIP3    H115504   4.110   3.912   1.937
 5187TIP3    H215505   4.080   4.052   1.887
 5188TIP3   OH215506   0.809   0.229   1.890
 5188TIP3    H115507   0.785   0.174   1.965
 5188TIP3    H215508   0.808   0.169   1.815
 5189TIP3   OH215509   1.615   6.015   5.528
 5189TIP3    H115510   1.538   6.071   5.534
 5189TIP3    H215511   1.583   5.932   5.494
 5190TIP3   OH215512   7.536   4.696   2.655
 5190TIP3    H115513   7.442   4.708   2.648
 5190TIP3    H215514   7.567   4.697   2.564
 5191TIP3   OH215515   1.137  -0.016   6.617
 5191TIP3    H115516   1.136   0.070   6.659
 5191TIP3    H215517   1.046  -0.044   6.616
 5192TIP3   OH215518   3.256   3.296   2.124
 5192TIP3    H115519   3.275   3.314   2.216
 5192TIP3    H215520   3.341   3.305   2.080
 5193TIP3   OH215521   5.577   7.022   6.551
 5193TIP3    H115522   5.559   7.113   6.572
 5193TIP3    H215523   5.513   6.998   6.484
 5194TIP3   OH215524   8.128   3.563   3.353
 5194TIP3    H115525   8.098   3.530   3.268
 5194TIP3    H215526   8.137   3.484   3.407
 5195TIP3   OH215527   7.229   0.655   2.910
 5195TIP3    H115528   7.145   0.610   2.923
 5195TIP3    H215529   7.278   0.596   2.852
 5196TIP3   OH215530   6.683   3.835   0.465
 5196TIP3    H115531   6.747   3.871   0.526
 5196TIP3    H215532   6.735   3.807   0.390
 5197TIP3   OH215533   2.356   0.330   2.003
 5197TIP3    H115534   2.322   0.241   2.011
 5197TIP3    H215535   2.280   0.382   1.977
 5198TIP3   OH215536   2.613   0.889   6.105
 5198TIP3    H115537   2.687   0.873   6.164
 5198TIP3    H215538   2.653   0.923   6.025
 5199TIP3   OH215539   2.800   1.610   0.940
 5199TIP3    H115540   2.755   1.525   0.944
 5199TIP3    H215541   2.850   1.606   0.859
 5200TIP3   OH215542   6.333   0.608   4.069
 5200TIP3    H115543   6.252   0.596   4.119
 5200TIP3    H215544   6.361   0.697   4.090
 5201TIP3   OH215545   6.084   4.874   1.642
 5201TIP3    H115546   6.160   4.816   1.637
 5201TIP3    H215547   6.020   4.824   1.693
 5202TIP3   OH215548   0.357   0.357   2.812
 5202TIP3    H115549   0.375   0.346   2.905
 5202TIP3    H215550   0.427   0.414   2.781
 5203TIP3   OH215551   4.100   1.051   5.645
 5203TIP3    H115552   4.057   1.093   5.720
 5203TIP3    H215553   4.095   1.116   5.575
 5204TIP3   OH215554   6.262   7.692   2.636
 5204TIP3    H115555   6.193   7.740   2.591
 5204TIP3    H215556   6.344   7.732   2.607
 5205TIP3   OH215557   3.351   5.893   6.388
 5205TIP3    H115558   3.275   5.903   6.446
 5205TIP3    H215559   3.314   5.863   6.306
 5206TIP3   OH215560   4.828   2.860   5.451
 5206TIP3    H115561   4.894   2.924   5.423
 5206TIP3    H215562   4.873   2.775   5.445
 5207TIP3   OH215563   1.818   4.599   1.650
 5207TIP3    H115564   1.811   4.504   1.638
 5207TIP3    H215565   1.893   4.610   1.708
 5208TIP3   OH215566   4.413   3.519   4.254
 5208TIP3    H115567   4.360   3.512   4.175
 5208TIP3    H215568   4.353   3.498   4.326
 5209TIP3   OH215569   7.047   1.894   2.594
 5209TIP3    H115570   7.130   1.853   2.616
 5209TIP3    H215571   6.987   1.866   2.664
 5210TIP3   OH215572   0.387   1.111   6.761
 5210TIP3    H115573   0.292   1.106   6.754
 5210TIP3    H215574   0.413   1.030   6.804
 5211TIP3   OH215575   1.553   1.199   4.939
 5211TIP3    H115576   1.520   1.209   5.028
 5211TIP3    H215577   1.502   1.128   4.902
 5212TIP3   OH215578   3.798   2.549   0.731
 5212TIP3    H115579   3.866   2.549   0.663
 5212TIP3    H215580   3.833   2.494   0.801
 5213TIP3   OH215581   3.568   2.316   2.163
 5213TIP3    H115582   3.585   2.397   2.212
 5213TIP3    H215583   3.547   2.345   2.075
 5214TIP3   OH215584   1.569   2.116   2.484
 5214TIP3    H115585   1.565   2.021   2.487
 5214TIP3    H215586   1.504   2.141   2.418
 5215TIP3   OH215587   7.402   1.938   4.761
 5215TIP3    H115588   7.396   2.009   4.696
 5215TIP3    H215589   7.312   1.908   4.770
 5216TIP3   OH215590   5.684   2.248   5.408
 5216TIP3    H115591   5.709   2.222   5.497
 5216TIP3    H215592   5.714   2.338   5.400
 5217TIP3   OH215593   1.190   1.622   6.091
 5217TIP3    H115594   1.230   1.672   6.162
 5217TIP3    H215595   1.232   1.655   6.012
 5218TIP3   OH215596   3.417   5.297   3.384
 5218TIP3    H115597   3.370   5.215   3.397
 5218TIP3    H215598   3.370   5.342   3.314
 5219TIP3   OH215599   0.949   5.317   4.790
 5219TIP3    H115600   1.026   5.357   4.830
 5219TIP3    H215601   0.894   5.291   4.864
 5220TIP3   OH215602   4.446   1.278   2.412
 5220TIP3    H115603   4.488   1.314   2.490
 5220TIP3    H215604   4.355   1.306   2.419
 5221TIP3   OH215605   5.139   2.802   6.635
 5221TIP3    H115606   5.173   2.841   6.554
 5221TIP3    H215607   5.047   2.782   6.616
 5222TIP3   OH215608   0.385   5.703   3.364
 5222TIP3    H115609   0.455   5.657   3.410
 5222TIP3    H215610   0.318   5.719   3.431
 5223TIP3   OH215611   3.247   1.468   6.207
 5223TIP3    H115612   3.261   1.443   6.298
 5223TIP3    H215613   3.168   1.421   6.181
 5224TIP3   OH215614   1.064   2.286   2.205
 5224TIP3    H115615   0.973   2.266   2.184
 5224TIP3    H215616   1.106   2.298   2.120
 5225TIP3   OH215617   6.364   0.823   4.586
 5225TIP3    H115618   6.280   0.777   4.586
 5225TIP3    H215619   6.401   0.805   4.673
 5226TIP3   OH215620   6.993   1.143   2.465
 5226TIP3    H115621   6.923   1.131   2.400
 5226TIP3    H215622   6.977   1.074   2.530
 5227TIP3   OH215623   3.838   0.107   2.992
 5227TIP3    H115624   3.881   0.041   2.937
 5227TIP3    H215625   3.886   0.188   2.975
 5228TIP3   OH215626   2.190   1.382   1.815
 5228TIP3    H115627   2.240   1.418   1.888
 5228TIP3    H215628   2.178   1.290   1.837
 5229TIP3   OH215629   1.148   6.825   0.424
 5229TIP3    H115630   1.214   6.840   0.356
 5229TIP3    H215631   1.116   6.736   0.409
 5230TIP3   OH215632   4.544   4.377   5.927
 5230TIP3    H115633   4.568   4.435   5.854
 5230TIP3    H215634   4.583   4.418   6.004
 5231TIP3   OH215635   6.303   5.274   6.153
 5231TIP3    H115636   6.328   5.355   6.107
 5231TIP3    H215637   6.225   5.243   6.106
 5232TIP3   OH215638   4.423   2.836   5.267
 5232TIP3    H115639   4.431   2.794   5.181
 5232TIP3    H215640   4.491   2.904   5.267
 5233TIP3   OH215641   5.881   6.940   4.780
 5233TIP3    H115642   5.897   7.030   4.751
 5233TIP3    H215643   5.804   6.912   4.730
 5234TIP3   OH215644   7.602   4.783   1.952
 5234TIP3    H115645   7.674   4.768   1.890
 5234TIP3    H215646   7.635   4.748   2.035
 5235TIP3   OH215647   2.348   0.794   5.071
 5235TIP3    H115648   2.269   0.835   5.106
 5235TIP3    H215649   2.418   0.823   5.129
 5236TIP3   OH215650   4.961   5.920   5.362
 5236TIP3    H115651   4.963   5.912   5.267
 5236TIP3    H215652   4.868   5.922   5.384
 5237TIP3   OH215653   3.101   4.154   5.596
 5237TIP3    H115654   3.190   4.134   5.568
 5237TIP3    H215655   3.098   4.250   5.599
 5238TIP3   OH215656   2.662   1.465   6.310
 5238TIP3    H115657   2.598   1.423   6.368
 5238TIP3    H215658   2.640   1.433   6.223
 5239TIP3   OH215659   2.562   5.068   3.420
 5239TIP3    H115660   2.641   5.070   3.367
 5239TIP3    H215661   2.539   4.975   3.427
 5240TIP3   OH215662   7.885   6.835   6.225
 5240TIP3    H115663   7.807   6.780   6.227
 5240TIP3    H215664   7.951   6.784   6.271
 5241TIP3   OH215665   6.166   3.151   4.692
 5241TIP3    H115666   6.127   3.225   4.739
 5241TIP3    H215667   6.201   3.189   4.611
 5242TIP3   OH215668   8.130   0.732   5.895
 5242TIP3    H115669   8.213   0.691   5.917
 5242TIP3    H215670   8.130   0.814   5.946
 5243TIP3   OH215671   2.389   7.057   3.897
 5243TIP3    H115672   2.389   6.968   3.862
 5243TIP3    H215673   2.420   7.112   3.825
 5244TIP3   OH215674   8.198   0.207   5.513
 5244TIP3    H115675   8.171   0.278   5.570
 5244TIP3    H215676   8.120   0.185   5.462
 5245TIP3   OH215677   3.881   3.699   1.476
 5245TIP3    H115678   3.942   3.650   1.421
 5245TIP3    H215679   3.824   3.744   1.414
 5246TIP3   OH215680   0.946   0.496   1.836
 5246TIP3    H115681   1.035   0.465   1.850
 5246TIP3    H215682   0.901   0.422   1.793
 5247TIP3   OH215683   2.914   3.787   6.248
 5247TIP3    H115684   2.893   3.758   6.337
 5247TIP3    H215685   2.839   3.841   6.222
 5248TIP3   OH215686   5.241   5.472   2.971
 5248TIP3    H115687   5.150   5.501   2.965
 5248TIP3    H215688   5.259   5.469   3.065
 5249TIP3   OH215689   0.462   1.955   2.271
 5249TIP3    H115690   0.548   1.912   2.268
 5249TIP3    H215691   0.481   2.046   2.293
 5250TIP3   OH215692   7.015   2.397   0.950
 5250TIP3    H115693   7.085   2.437   0.899
 5250TIP3    H215694   6.954   2.362   0.884
 5251TIP3   OH215695   6.671   4.139   5.648
 5251TIP3    H115696   6.753   4.178   5.618
 5251TIP3    H215697   6.633   4.206   5.706
 5252TIP3   OH215698   1.944   2.015   4.314
 5252TIP3    H115699   1.906   1.934   4.280
 5252TIP3    H215700   1.942   2.004   4.409
 5253TIP3   OH215701   3.505   5.653   4.369
 5253TIP3    H115702   3.518   5.690   4.282
 5253TIP3    H215703   3.576   5.689   4.422
 5254TIP3   OH215704   3.923   3.083   0.941
 5254TIP3    H115705   3.992   3.018   0.946
 5254TIP3    H215706   3.918   3.119   1.030
 5255TIP3   OH215707   7.239   4.856   2.959
 5255TIP3    H115708   7.316   4.820   2.915
 5255TIP3    H215709   7.167   4.800   2.930
 5256TIP3   OH215710   5.853   7.417   4.660
 5256TIP3    H115711   5.909   7.473   4.607
 5256TIP3    H215712   5.764   7.450   4.647
 5257TIP3   OH215713   4.841   4.970   4.726
 5257TIP3    H115714   4.859   4.987   4.818
 5257TIP3    H215715   4.917   4.921   4.695
 5258TIP3   OH215716   3.759   0.498   2.388
 5258TIP3    H115717   3.805   0.464   2.465
 5258TIP3    H215718   3.688   0.435   2.373
 5259TIP3   OH215719   1.918   1.502   5.011
 5259TIP3    H115720   1.900   1.572   5.074
 5259TIP3    H215721   1.992   1.534   4.960
 5260TIP3   OH215722   5.713   0.470   5.529
 5260TIP3    H115723   5.735   0.441   5.618
 5260TIP3    H215724   5.687   0.391   5.483
 5261TIP3   OH215725   5.593   3.829   6.727
 5261TIP3    H115726   5.595   3.783   6.643
 5261TIP3    H215727   5.510   3.803   6.766
 5262TIP3   OH215728   7.615   2.885   3.757
 5262TIP3    H115729   7.536   2.856   3.711
 5262TIP3    H215730   7.615   2.980   3.747
 5263TIP3   OH215731   5.130   2.137   4.938
 5263TIP3    H115732   5.121   2.053   4.984
 5263TIP3    H215733   5.105   2.117   4.847
 5264TIP3   OH215734   1.412   3.894   2.987
 5264TIP3    H115735   1.345   3.904   2.919
 5264TIP3    H215736   1.363   3.894   3.069
 5265TIP3   OH215737   6.718   6.651   4.552
 5265TIP3    H115738   6.679   6.620   4.634
 5265TIP3    H215739   6.736   6.744   4.568
 5266TIP3   OH215740   4.360   1.046   6.090
 5266TIP3    H115741   4.330   0.968   6.137
 5266TIP3    H215742   4.417   1.013   6.021
 5267TIP3   OH215743   4.778   2.073   1.133
 5267TIP3    H115744   4.811   2.162   1.117
 5267TIP3    H215745   4.779   2.031   1.047
 5268TIP3   OH215746   2.620   1.109   6.507
 5268TIP3    H115747   2.578   1.182   6.462
 5268TIP3    H215748   2.548   1.051   6.532
 5269TIP3   OH215749   8.247   0.197   6.556
 5269TIP3    H115750   8.254   0.124   6.618
 5269TIP3    H215751   8.321   0.185   6.497
 5270TIP3   OH215752   6.069   1.767   2.624
 5270TIP3    H115753   6.091   1.748   2.533
 5270TIP3    H215754   6.034   1.856   2.623
 5271TIP3   OH215755   2.701   1.433   5.119
 5271TIP3    H115756   2.769   1.428   5.187
 5271TIP3    H215757   2.747   1.415   5.037
 5272TIP3   OH215758   8.354   7.144   4.556
 5272TIP3    H115759   8.339   7.235   4.582
 5272TIP3    H215760   8.353   7.096   4.639
 5273TIP3   OH215761   5.108   4.609   5.844
 5273TIP3    H115762   5.056   4.569   5.774
 5273TIP3    H215763   5.198   4.605   5.813
 5274TIP3   OH215764   7.371   6.615   3.696
 5274TIP3    H115765   7.290   6.569   3.719
 5274TIP3    H215766   7.397   6.577   3.613
 5275TIP3   OH215767   4.692   6.305   3.345
 5275TIP3    H115768   4.706   6.334   3.255
 5275TIP3    H215769   4.713   6.381   3.399
 5276TIP3   OH215770   6.949   4.119   1.090
 5276TIP3    H115771   6.868   4.074   1.065
 5276TIP3    H215772   6.928   4.161   1.174
 5277TIP3   OH215773   1.922   1.751   6.105
 5277TIP3    H115774   1.872   1.829   6.129
 5277TIP3    H215775   2.003   1.758   6.156
 5278TIP3   OH215776   5.740   4.009   1.745
 5278TIP3    H115777   5.687   3.929   1.747
 5278TIP3    H215778   5.676   4.080   1.747
 5279TIP3   OH215779   0.792   4.201   0.502
 5279TIP3    H115780   0.842   4.229   0.426
 5279TIP3    H215781   0.829   4.115   0.525
 5280TIP3   OH215782   5.251   4.170   1.855
 5280TIP3    H115783   5.239   4.090   1.906
 5280TIP3    H215784   5.172   4.177   1.802
 5281TIP3   OH215785   3.407   6.270   3.270
 5281TIP3    H115786   3.359   6.349   3.248
 5281TIP3    H215787   3.410   6.219   3.189
 5282TIP3   OH215788   4.226   4.373   1.156
 5282TIP3    H115789   4.257   4.287   1.183
 5282TIP3    H215790   4.154   4.392   1.216
 5283TIP3   OH215791   0.285   5.951   2.660
 5283TIP3    H115792   0.261   6.041   2.681
 5283TIP3    H215793   0.334   5.957   2.578
 5284TIP3   OH215794   1.606   1.002   5.505
 5284TIP3    H115795   1.625   1.012   5.598
 5284TIP3    H215796   1.692   0.991   5.464
 5285TIP3   OH215797   1.973   4.799   2.800
 5285TIP3    H115798   2.049   4.857   2.790
 5285TIP3    H215799   1.919   4.816   2.723
 5286TIP3   OH215800   1.964   7.448   3.741
 5286TIP3    H115801   1.946   7.438   3.834
 5286TIP3    H215802   2.057   7.471   3.737
 5287TIP3   OH215803   3.846   2.482   1.675
 5287TIP3    H115804   3.777   2.473   1.609
 5287TIP3    H215805   3.895   2.560   1.648
 5288TIP3   OH215806   6.356   7.741   3.005
 5288TIP3    H115807   6.279   7.797   3.001
 5288TIP3    H215808   6.327   7.658   2.966
 5289TIP3   OH215809   5.549   0.901   1.280
 5289TIP3    H115810   5.567   0.992   1.257
 5289TIP3    H215811   5.619   0.851   1.237
 5290TIP3   OH215812   0.692   3.575   3.724
 5290TIP3    H115813   0.608   3.620   3.728
 5290TIP3    H215814   0.755   3.638   3.758
 5291TIP3   OH215815   2.014   1.291   5.861
 5291TIP3    H115816   1.933   1.295   5.912
 5291TIP3    H215817   2.028   1.381   5.830
 5292TIP3   OH215818   5.076   0.411   4.427
 5292TIP3    H115819   5.111   0.347   4.489
 5292TIP3    H215820   5.002   0.451   4.472
 5293TIP3   OH215821   3.336   6.812   3.709
 5293TIP3    H115822   3.328   6.795   3.615
 5293TIP3    H215823   3.391   6.741   3.742
 5294TIP3   OH215824   4.823   2.555   3.208
 5294TIP3    H115825   4.884   2.622   3.239
 5294TIP3    H215826   4.799   2.507   3.288
 5295TIP3   OH215827   1.526   0.557   5.899
 5295TIP3    H115828   1.511   0.649   5.923
 5295TIP3    H215829   1.438   0.520   5.889
 5296TIP3   OH215830   0.025   0.206   5.891
 5296TIP3    H115831   0.018   0.113   5.868
 5296TIP3    H215832  -0.018   0.213   5.976
 5297TIP3   OH215833   1.385   2.947   0.058
 5297TIP3    H115834   1.432   3.030   0.051
 5297TIP3    H215835   1.365   2.938   0.152
 5298TIP3   OH215836   6.041   5.634   4.338
 5298TIP3    H115837   5.959   5.587   4.357
 5298TIP3    H215838   6.054   5.621   4.244
 5299TIP3   OH215839   2.187   6.257   3.736
 5299TIP3    H115840   2.094   6.238   3.744
 5299TIP3    H215841   2.195   6.308   3.656
 5300TIP3   OH215842   0.171   6.556   6.413
 5300TIP3    H115843   0.096   6.558   6.354
 5300TIP3    H215844   0.244   6.525   6.359
 5301TIP3   OH215845   0.625   1.055   1.834
 5301TIP3    H115846   0.677   1.112   1.891
 5301TIP3    H215847   0.686   0.987   1.806
 5302TIP3   OH215848   5.686   0.520   0.170
 5302TIP3    H115849   5.604   0.484   0.136
 5302TIP3    H215850   5.676   0.514   0.265
 5303TIP3   OH215851   3.044   7.543   2.430
 5303TIP3    H115852   3.111   7.479   2.406
 5303TIP3    H215853   2.988   7.551   2.353
 5304TIP3   OH215854   3.301   3.433   5.632
 5304TIP3    H115855   3.317   3.524   5.657
 5304TIP3    H215856   3.301   3.385   5.715
 5305TIP3   OH215857   5.767   5.574   5.677
 5305TIP3    H115858   5.801   5.508   5.738
 5305TIP3    H215859   5.844   5.604   5.629
 5306TIP3   OH215860   2.080   0.715   0.805
 5306TIP3    H115861   2.012   0.782   0.812
 5306TIP3    H215862   2.059   0.666   0.726
 5307TIP3   OH215863   4.145   4.958   4.835
 5307TIP3    H115864   4.059   4.957   4.878
 5307TIP3    H215865   4.125   4.976   4.743
 5308TIP3   OH215866   0.464   3.086   2.826
 5308TIP3    H115867   0.505   3.012   2.780
 5308TIP3    H215868   0.435   3.145   2.756
 5309TIP3   OH215869   1.654   0.692   5.444
 5309TIP3    H115870   1.693   0.617   5.399
 5309TIP3    H215871   1.726   0.731   5.493
 5310TIP3   OH215872   7.015   2.187   3.962
 5310TIP3    H115873   7.033   2.093   3.969
 5310TIP3    H215874   7.037   2.222   4.048
 5311TIP3   OH215875   6.787   3.430   3.113
 5311TIP3    H115876   6.762   3.465   3.028
 5311TIP3    H215877   6.871   3.469   3.133
 5312TIP3   OH215878   5.386   4.161   2.628
 5312TIP3    H115879   5.451   4.189   2.692
 5312TIP3    H215880   5.424   4.082   2.589
 5313TIP3   OH215881   3.451   4.322   2.652
 5313TIP3    H115882   3.405   4.351   2.731
 5313TIP3    H215883   3.398   4.250   2.618
 5314TIP3   OH215884   5.960   5.301   0.711
 5314TIP3    H115885   6.034   5.262   0.759
 5314TIP3    H215886   5.984   5.393   0.702
 5315TIP3   OH215887   4.756   4.384   3.026
 5315TIP3    H115888   4.823   4.385   3.094
 5315TIP3    H215889   4.783   4.453   2.965
 5316TIP3   OH215890   7.273   7.449   2.991
 5316TIP3    H115891   7.202   7.467   3.054
 5316TIP3    H215892   7.269   7.354   2.978
 5317TIP3   OH215893   2.504   4.522   3.346
 5317TIP3    H115894   2.589   4.545   3.382
 5317TIP3    H215895   2.525   4.473   3.266
 5318TIP3   OH215896   2.400   7.244   0.195
 5318TIP3    H115897   2.367   7.165   0.151
 5318TIP3    H215898   2.359   7.242   0.281
 5319TIP3   OH215899   2.953   6.277   5.858
 5319TIP3    H115900   3.040   6.291   5.897
 5319TIP3    H215901   2.896   6.339   5.903
 5320TIP3   OH215902   7.316   2.896   1.312
 5320TIP3    H115903   7.312   2.984   1.350
 5320TIP3    H215904   7.369   2.846   1.375
 5321TIP3   OH215905   1.254   0.599   6.492
 5321TIP3    H115906   1.165   0.605   6.457
 5321TIP3    H215907   1.294   0.683   6.471
 5322TIP3   OH215908   0.691   7.157   3.767
 5322TIP3    H115909   0.610   7.141   3.719
 5322TIP3    H215910   0.679   7.243   3.808
 5323TIP3   OH215911   1.648   1.612   1.920
 5323TIP3    H115912   1.578   1.605   1.985
 5323TIP3    H215913   1.694   1.528   1.925
 5324TIP3   OH215914   1.813   5.466   5.623
 5324TIP3    H115915   1.829   5.560   5.613
 5324TIP3    H215916   1.719   5.460   5.643
 5325TIP3   OH215917   4.652   1.715   1.225
 5325TIP3    H115918   4.687   1.791   1.178
 5325TIP3    H215919   4.718   1.696   1.292
 5326TIP3   OH215920   4.885   7.178   3.226
 5326TIP3    H115921   4.835   7.243   3.179
 5326TIP3    H215922   4.925   7.226   3.298
 5327TIP3   OH215923   5.763   1.154   2.065
 5327TIP3    H115924   5.675   1.124   2.085
 5327TIP3    H215925   5.814   1.135   2.144
 5328TIP3   OH215926   7.609   1.979   0.941
 5328TIP3    H115927   7.565   1.932   1.012
 5328TIP3    H215928   7.639   1.911   0.881
 5329TIP3   OH215929   0.358   7.096   3.947
 5329TIP3    H115930   0.429   7.047   3.905
 5329TIP3    H215931   0.404   7.161   4.002
 5330TIP3   OH215932   3.239   3.896   0.659
 5330TIP3    H115933   3.303   3.965   0.680
 5330TIP3    H215934   3.289   3.831   0.609
 5331TIP3   OH215935   3.952   3.741   4.568
 5331TIP3    H115936   3.897   3.818   4.557
 5331TIP3    H215937   3.938   3.689   4.489
 5332TIP3   OH215938   3.169   5.176   4.193
 5332TIP3    H115939   3.078   5.169   4.222
 5332TIP3    H215940   3.210   5.095   4.224
 5333TIP3   OH215941   3.732   2.636   5.833
 5333TIP3    H115942   3.789   2.710   5.811
 5333TIP3    H215943   3.645   2.662   5.802
 5334TIP3   OH215944   0.820   4.879   4.336
 5334TIP3    H115945   0.854   4.857   4.249
 5334TIP3    H215946   0.824   4.797   4.385
 5335TIP3   OH215947   8.137   3.470   6.604
 5335TIP3    H115948   8.094   3.384   6.611
 5335TIP3    H215949   8.142   3.501   6.695
 5336TIP3   OH215950   5.764   6.449   5.443
 5336TIP3    H115951   5.780   6.488   5.356
 5336TIP3    H215952   5.680   6.404   5.434
 5337TIP3   OH215953   7.820   5.488   3.294
 5337TIP3    H115954   7.769   5.458   3.369
 5337TIP3    H215955   7.874   5.413   3.269
 5338TIP3   OH215956   5.361   0.404   3.529
 5338TIP3    H115957   5.295   0.469   3.553
 5338TIP3    H215958   5.438   0.429   3.581
 5339TIP3   OH215959   7.451   1.684   0.860
 5339TIP3    H115960   7.404   1.608   0.894
 5339TIP3    H215961   7.440   1.752   0.927
 5340TIP3   OH215962   0.474   7.381   0.122
 5340TIP3    H115963   0.469   7.436   0.044
 5340TIP3    H215964   0.543   7.421   0.175
 5341TIP3   OH215965   1.462   1.680   3.484
 5341TIP3    H115966   1.546   1.642   3.458
 5341TIP3    H215967   1.484   1.768   3.515
 5342TIP3   OH215968   5.106   6.228   4.706
 5342TIP3    H115969   5.061   6.305   4.741
 5342TIP3    H215970   5.108   6.243   4.611
 5343TIP3   OH215971   2.386   4.549   2.036
 5343TIP3    H115972   2.416   4.493   2.107
 5343TIP3    H215973   2.458   4.610   2.021
 5344TIP3   OH215974   6.123   7.655   0.926
 5344TIP3    H115975   6.175   7.584   0.965
 5344TIP3    H215976   6.067   7.685   0.998
 5345TIP3   OH215977   2.216   6.708   5.844
 5345TIP3    H115978   2.247   6.798   5.833
 5345TIP3    H215979   2.296   6.658   5.866
 5346TIP3   OH215980   8.047   0.705   6.372
 5346TIP3    H115981   7.954   0.729   6.378
 5346TIP3    H215982   8.089   0.783   6.334
 5347TIP3   OH215983   4.719   3.934   2.415
 5347TIP3    H115984   4.729   3.839   2.420
 5347TIP3    H215985   4.711   3.952   2.321
 5348TIP3   OH215986   5.783   3.427   6.161
 5348TIP3    H115987   5.698   3.466   6.182
 5348TIP3    H215988   5.796   3.448   6.068
 5349TIP3   OH215989   6.769   1.457   0.577
 5349TIP3    H115990   6.824   1.382   0.556
 5349TIP3    H215991   6.815   1.532   0.540
 5350TIP3   OH215992   4.111   6.879   4.207
 5350TIP3    H115993   4.145   6.938   4.275
 5350TIP3    H215994   4.155   6.796   4.223
 5351TIP3   OH215995   0.684   3.081   1.709
 5351TIP3    H115996   0.774   3.087   1.741
 5351TIP3    H215997   0.632   3.121   1.778
 5352TIP3   OH215998   6.312   4.920   1.887
 5352TIP3    H115999   6.317   4.854   1.957
 5352TIP3    H216000   6.285   4.870   1.810
 5353TIP3   OH216001   3.862   3.118   2.096
 5353TIP3    H116002   3.784   3.063   2.088
 5353TIP3    H216003   3.930   3.057   2.126
 5354TIP3   OH216004   6.499   0.399   5.328
 5354TIP3    H116005   6.422   0.449   5.304
 5354TIP3    H216006   6.466   0.326   5.381
 5355TIP3   OH216007   3.602   2.486   5.514
 5355TIP3    H116008   3.562   2.560   5.558
 5355TIP3    H216009   3.575   2.410   5.566
 5356TIP3   OH216010   6.172   2.577   6.333
 5356TIP3    H116011   6.224   2.500   6.358
 5356TIP3    H216012   6.143   2.559   6.244
 5357TIP3   OH216013   3.977   6.664   6.722
 5357TIP3    H116014   4.027   6.746   6.730
 5357TIP3    H216015   4.025   6.614   6.656
 5358TIP3   OH216016   2.437   5.293   1.039
 5358TIP3    H116017   2.440   5.348   1.118
 5358TIP3    H216018   2.347   5.263   1.034
 5359TIP3   OH216019   6.823   1.614   4.222
 5359TIP3    H116020   6.799   1.527   4.254
 5359TIP3    H216021   6.739   1.657   4.203
 5360TIP3   OH216022   7.002   7.732   2.925
 5360TIP3    H116023   6.995   7.687   3.010
 5360TIP3    H216024   6.996   7.662   2.860
 5361TIP3   OH216025   5.486   3.263   1.766
 5361TIP3    H116026   5.501   3.331   1.700
 5361TIP3    H216027   5.434   3.306   1.834
 5362TIP3   OH216028   6.938   2.014   6.247
 5362TIP3    H116029   6.883   1.936   6.243
 5362TIP3    H216030   6.879   2.085   6.272
 5363TIP3   OH216031   4.683   2.767   3.116
 5363TIP3    H116032   4.765   2.799   3.077
 5363TIP3    H216033   4.710   2.689   3.166
 5364TIP3   OH216034   2.366   7.018   6.242
 5364TIP3    H116035   2.306   6.968   6.187
 5364TIP3    H216036   2.310   7.083   6.285
 5365TIP3   OH216037   2.432   3.479   6.299
 5365TIP3    H116038   2.462   3.447   6.213
 5365TIP3    H216039   2.402   3.401   6.345
 5366TIP3   OH216040   6.072   5.506   0.560
 5366TIP3    H116041   6.139   5.565   0.524
 5366TIP3    H216042   6.011   5.564   0.605
 5367TIP3   OH216043   0.839   5.693   2.036
 5367TIP3    H116044   0.901   5.621   2.032
 5367TIP3    H216045   0.769   5.669   1.975
 5368TIP3   OH216046   0.078   0.810   6.450
 5368TIP3    H116047   0.140   0.817   6.378
 5368TIP3    H216048   0.130   0.782   6.525
 5369TIP3   OH216049   7.379   4.787   0.070
 5369TIP3    H116050   7.421   4.858   0.022
 5369TIP3    H216051   7.388   4.710   0.013
 5370TIP3   OH216052   3.638   6.251   6.515
 5370TIP3    H116053   3.665   6.229   6.426
 5370TIP3    H216054   3.687   6.330   6.537
 5371TIP3   OH216055   5.288   4.275   3.931
 5371TIP3    H116056   5.314   4.185   3.912
 5371TIP3    H216057   5.368   4.326   3.918
 5372TIP3   OH216058   7.257   4.966   0.791
 5372TIP3    H116059   7.190   5.012   0.841
 5372TIP3    H216060   7.214   4.888   0.758
 5373TIP3   OH216061   3.714   3.035   5.234
 5373TIP3    H116062   3.731   2.970   5.167
 5373TIP3    H216063   3.743   2.994   5.316
 5374TIP3   OH216064   1.461   2.844   1.443
 5374TIP3    H116065   1.532   2.779   1.444
 5374TIP3    H216066   1.501   2.923   1.478
 5375TIP3   OH216067   3.346   7.423   4.326
 5375TIP3    H116068   3.343   7.512   4.363
 5375TIP3    H216069   3.438   7.410   4.303
 5376TIP3   OH216070   2.405   2.715   4.381
 5376TIP3    H116071   2.328   2.664   4.405
 5376TIP3    H216072   2.430   2.761   4.461
 5377TIP3   OH216073   1.154   3.267   4.988
 5377TIP3    H116074   1.139   3.202   4.920
 5377TIP3    H216075   1.247   3.287   4.983
 5378TIP3   OH216076   5.758   4.339   1.927
 5378TIP3    H116077   5.776   4.426   1.963
 5378TIP3    H216078   5.668   4.320   1.954
 5379TIP3   OH216079   1.876   4.811   2.283
 5379TIP3    H116080   1.923   4.835   2.204
 5379TIP3    H216081   1.784   4.810   2.257
 5380TIP3   OH216082   6.479   5.371   3.627
 5380TIP3    H116083   6.465   5.276   3.635
 5380TIP3    H216084   6.484   5.386   3.533
 5381TIP3   OH216085   5.579   7.087   6.177
 5381TIP3    H116086   5.519   7.057   6.245
 5381TIP3    H216087   5.523   7.096   6.099
 5382TIP3   OH216088   0.762   7.133   0.955
 5382TIP3    H116089   0.844   7.142   1.003
 5382TIP3    H216090   0.708   7.207   0.985
 5383TIP3   OH216091   4.020   6.688   0.411
 5383TIP3    H116092   3.938   6.724   0.447
 5383TIP3    H216093   4.004   6.594   0.404
 5384TIP3   OH216094   5.129   3.975   6.389
 5384TIP3    H116095   5.211   3.957   6.343
 5384TIP3    H216096   5.156   4.011   6.473
 5385TIP3   OH216097   3.562   2.682   3.897
 5385TIP3    H116098   3.610   2.682   3.814
 5385TIP3    H216099   3.548   2.589   3.916
 5386TIP3   OH216100   8.048   2.411   3.593
 5386TIP3    H116101   8.132   2.453   3.613
 5386TIP3    H216102   8.006   2.471   3.532
 5387TIP3   OH216103   4.155   0.436   1.655
 5387TIP3    H116104   4.077   0.459   1.705
 5387TIP3    H216105   4.125   0.433   1.564
 5388TIP3   OH216106   8.332   1.978   5.395
 5388TIP3    H116107   8.286   1.927   5.462
 5388TIP3    H216108   8.334   1.919   5.319
 5389TIP3   OH216109   6.823   2.959   2.151
 5389TIP3    H116110   6.901   2.981   2.098
 5389TIP3    H216111   6.750   2.968   2.090
 5390TIP3   OH216112   7.628   0.119   5.651
 5390TIP3    H116113   7.670   0.125   5.737
 5390TIP3    H216114   7.642   0.029   5.624
 5391TIP3   OH216115   7.050   4.974   5.383
 5391TIP3    H116116   7.035   5.065   5.356
 5391TIP3    H216117   6.998   4.964   5.463
 5392TIP3   OH216118   5.089   4.554   3.622
 5392TIP3    H116119   5.073   4.461   3.605
 5392TIP3    H216120   5.016   4.599   3.579
 5393TIP3   OH216121   2.901   1.904   0.533
 5393TIP3    H116122   2.934   1.947   0.612
 5393TIP3    H216123   2.978   1.892   0.477
 5394TIP3   OH216124   4.317   6.362   3.486
 5394TIP3    H116125   4.265   6.282   3.477
 5394TIP3    H216126   4.400   6.332   3.525
 5395TIP3   OH216127   6.625   0.736   5.677
 5395TIP3    H116128   6.584   0.677   5.740
 5395TIP3    H216129   6.630   0.684   5.596
 5396TIP3   OH216130   1.700   5.130   4.712
 5396TIP3    H116131   1.789   5.094   4.704
 5396TIP3    H216132   1.656   5.072   4.774
 5397TIP3   OH216133   1.419   1.985   3.204
 5397TIP3    H116134   1.412   2.076   3.232
 5397TIP3    H216135   1.488   1.949   3.260
 5398TIP3   OH216136   4.835   0.376   5.432
 5398TIP3    H116137   4.798   0.288   5.431
 5398TIP3    H216138   4.908   0.372   5.371
 5399TIP3   OH216139   0.073   4.987   5.044
 5399TIP3    H116140   0.162   4.956   5.057
 5399TIP3    H216141   0.036   4.926   4.980
 5400TIP3   OH216142   1.598   1.259   3.271
 5400TIP3    H116143   1.626   1.184   3.324
 5400TIP3    H216144   1.655   1.331   3.298
 5401TIP3   OH216145   6.226   6.920   0.086
 5401TIP3    H116146   6.262   6.952   0.004
 5401TIP3    H216147   6.135   6.949   0.085
 5402TIP3   OH216148   1.111   6.681   5.170
 5402TIP3    H116149   1.071   6.693   5.257
 5402TIP3    H216150   1.038   6.686   5.109
 5403TIP3   OH216151   7.792   4.012   3.320
 5403TIP3    H116152   7.747   4.093   3.298
 5403TIP3    H216153   7.782   3.957   3.243
 5404TIP3   OH216154   5.542   2.554   3.390
 5404TIP3    H116155   5.567   2.647   3.394
 5404TIP3    H216156   5.607   2.510   3.444
 5405TIP3   OH216157   0.930   1.781   3.432
 5405TIP3    H116158   0.881   1.712   3.475
 5405TIP3    H216159   1.020   1.771   3.464
 5406TIP3   OH216160   1.916   3.747   0.686
 5406TIP3    H116161   1.918   3.741   0.781
 5406TIP3    H216162   1.997   3.791   0.663
 5407TIP3   OH216163   6.095   2.920   0.765
 5407TIP3    H116164   6.053   2.861   0.702
 5407TIP3    H216165   6.186   2.924   0.737
 5408TIP3   OH216166   5.902   4.052   5.034
 5408TIP3    H116167   5.864   3.965   5.021
 5408TIP3    H216168   5.996   4.035   5.045
 5409TIP3   OH216169   2.924   7.794   0.511
 5409TIP3    H116170   2.951   7.712   0.553
 5409TIP3    H216171   2.865   7.766   0.441
 5410TIP3   OH216172   3.893   2.580   3.221
 5410TIP3    H116173   3.873   2.529   3.299
 5410TIP3    H216174   3.851   2.665   3.237
 5411TIP3   OH216175   0.273   3.969   4.110
 5411TIP3    H116176   0.247   4.044   4.163
 5411TIP3    H216177   0.289   4.005   4.023
 5412TIP3   OH216178   2.240   5.950   5.867
 5412TIP3    H116179   2.304   6.018   5.846
 5412TIP3    H216180   2.177   5.953   5.794
 5413TIP3   OH216181   1.305   0.455   0.086
 5413TIP3    H116182   1.285   0.541   0.124
 5413TIP3    H216183   1.367   0.416   0.147
 5414TIP3   OH216184   4.687   4.094   4.084
 5414TIP3    H116185   4.765   4.106   4.138
 5414TIP3    H216186   4.616   4.131   4.135
 5415TIP3   OH216187   7.734   6.175   0.387
 5415TIP3    H116188   7.741   6.270   0.379
 5415TIP3    H216189   7.749   6.157   0.480
 5416TIP3   OH216190   6.157   0.336   1.522
 5416TIP3    H116191   6.186   0.280   1.594
 5416TIP3    H216192   6.237   0.376   1.488
 5417TIP3   OH216193   7.728   4.724   3.712
 5417TIP3    H116194   7.637   4.753   3.713
 5417TIP3    H216195   7.730   4.653   3.648
 5418TIP3   OH216196   2.989   2.749   0.708
 5418TIP3    H116197   2.938   2.749   0.627
 5418TIP3    H216198   3.076   2.780   0.682
 5419TIP3   OH216199   0.999   6.155   5.439
 5419TIP3    H116200   1.038   6.078   5.481
 5419TIP3    H216201   0.907   6.133   5.430
 5420TIP3   OH216202   0.583   1.754   1.698
 5420TIP3    H116203   0.493   1.787   1.699
 5420TIP3    H216204   0.579   1.673   1.749
 5421TIP3   OH216205   5.733   0.085   2.283
 5421TIP3    H116206   5.682   0.131   2.350
 5421TIP3    H216207   5.808   0.049   2.330
 5422TIP3   OH216208   4.251   2.792   1.072
 5422TIP3    H116209   4.250   2.701   1.102
 5422TIP3    H216210   4.300   2.839   1.139
 5423TIP3   OH216211   0.817   4.968   1.919
 5423TIP3    H116212   0.721   4.970   1.922
 5423TIP3    H216213   0.840   5.019   1.841
 5424TIP3   OH216214   5.186   1.458   5.413
 5424TIP3    H116215   5.149   1.531   5.363
 5424TIP3    H216216   5.222   1.399   5.346
 5425TIP3   OH216217   2.145   5.463   4.742
 5425TIP3    H116218   2.091   5.466   4.821
 5425TIP3    H216219   2.107   5.530   4.685
 5426TIP3   OH216220   7.730   1.342   0.673
 5426TIP3    H116221   7.773   1.359   0.589
 5426TIP3    H216222   7.731   1.427   0.718
 5427TIP3   OH216223   4.395   4.013   1.818
 5427TIP3    H116224   4.300   3.998   1.814
 5427TIP3    H216225   4.418   4.044   1.730
 5428TIP3   OH216226   5.155   5.825   1.268
 5428TIP3    H116227   5.123   5.852   1.354
 5428TIP3    H216228   5.098   5.751   1.244
 5429TIP3   OH216229   1.226   2.418   6.553
 5429TIP3    H116230   1.185   2.378   6.630
 5429TIP3    H216231   1.223   2.512   6.570
 5430TIP3   OH216232   0.394   4.066   1.057
 5430TIP3    H116233   0.460   4.120   1.014
 5430TIP3    H216234   0.396   4.093   1.149
 5431TIP3   OH216235   1.456   5.848   6.371
 5431TIP3    H116236   1.479   5.865   6.279
 5431TIP3    H216237   1.412   5.763   6.369
 5432TIP3   OH216238   2.127   6.729   1.222
 5432TIP3    H116239   2.071   6.792   1.268
 5432TIP3    H216240   2.065   6.673   1.176
 5433TIP3   OH216241   2.710   2.420   2.360
 5433TIP3    H116242   2.647   2.349   2.368
 5433TIP3    H216243   2.689   2.462   2.277
 5434TIP3   OH216244   5.181   5.871   3.468
 5434TIP3    H116245   5.152   5.959   3.493
 5434TIP3    H216246   5.269   5.863   3.504
 5435TIP3   OH216247   0.169   4.154   5.759
 5435TIP3    H116248   0.159   4.236   5.710
 5435TIP3    H216249   0.213   4.181   5.840
 5436TIP3   OH216250   2.234   1.899   4.269
 5436TIP3    H116251   2.181   1.823   4.293
 5436TIP3    H216252   2.324   1.869   4.278
 5437TIP3   OH216253   6.570   2.915   3.934
 5437TIP3    H116254   6.478   2.899   3.914
 5437TIP3    H216255   6.590   2.998   3.891
 5438TIP3   OH216256   0.727   7.039   3.466
 5438TIP3    H116257   0.662   7.009   3.402
 5438TIP3    H216258   0.781   6.963   3.482
 5439TIP3   OH216259   2.608   3.599   0.696
 5439TIP3    H116260   2.537   3.660   0.714
 5439TIP3    H216261   2.635   3.567   0.782
 5440TIP3   OH216262   2.192   5.772   4.951
 5440TIP3    H116263   2.142   5.854   4.947
 5440TIP3    H216264   2.179   5.741   5.040
 5441TIP3   OH216265   6.219   6.488   6.240
 5441TIP3    H116266   6.263   6.403   6.238
 5441TIP3    H216267   6.179   6.496   6.153
 5442TIP3   OH216268   3.980   2.110   3.768
 5442TIP3    H116269   3.977   2.122   3.863
 5442TIP3    H216270   4.064   2.148   3.742
 5443TIP3   OH216271   2.548   6.139   4.084
 5443TIP3    H116272   2.472   6.136   4.025
 5443TIP3    H216273   2.577   6.230   4.080
 5444TIP3   OH216274   7.703   2.194   4.100
 5444TIP3    H116275   7.684   2.215   4.009
 5444TIP3    H216276   7.795   2.170   4.102
 5445TIP3   OH216277   5.986   5.930   3.501
 5445TIP3    H116278   6.074   5.956   3.475
 5445TIP3    H216279   5.934   6.010   3.494
 5446TIP3   OH216280   2.609   6.911   4.906
 5446TIP3    H116281   2.650   6.954   4.981
 5446TIP3    H216282   2.678   6.856   4.869
 5447TIP3   OH216283   2.880   3.494   2.051
 5447TIP3    H116284   2.938   3.494   2.127
 5447TIP3    H216285   2.792   3.486   2.088
 5448TIP3   OH216286   7.645   0.567   1.866
 5448TIP3    H116287   7.609   0.652   1.841
 5448TIP3    H216288   7.696   0.538   1.790
 5449TIP3   OH216289   3.253   1.815   3.109
 5449TIP3    H116290   3.191   1.762   3.158
 5449TIP3    H216291   3.338   1.774   3.125
 5450TIP3   OH216292   1.353   1.032   1.758
 5450TIP3    H116293   1.371   0.944   1.725
 5450TIP3    H216294   1.438   1.076   1.759
 5451TIP3   OH216295   8.068   7.064   4.399
 5451TIP3    H116296   7.977   7.094   4.408
 5451TIP3    H216297   8.116   7.114   4.465
 5452TIP3   OH216298   6.015   0.523   1.224
 5452TIP3    H116299   5.986   0.435   1.201
 5452TIP3    H216300   5.991   0.532   1.317
 5453TIP3   OH216301   7.583   1.460   0.362
 5453TIP3    H116302   7.613   1.416   0.283
 5453TIP3    H216303   7.533   1.393   0.409
 5454TIP3   OH216304   1.501   6.870   2.179
 5454TIP3    H116305   1.564   6.872   2.107
 5454TIP3    H216306   1.438   6.802   2.153
 5455TIP3   OH216307   1.425   4.396   5.373
 5455TIP3    H116308   1.411   4.312   5.417
 5455TIP3    H216309   1.517   4.417   5.392
 5456TIP3   OH216310   6.338   7.584   2.187
 5456TIP3    H116311   6.245   7.582   2.210
 5456TIP3    H216312   6.378   7.517   2.243
 5457TIP3   OH216313   1.320   1.692   4.450
 5457TIP3    H116314   1.359   1.681   4.364
 5457TIP3    H216315   1.226   1.701   4.433
 5458TIP3   OH216316   0.693   0.758   1.413
 5458TIP3    H116317   0.629   0.798   1.471
 5458TIP3    H216318   0.748   0.705   1.471
 5459TIP3   OH216319   5.877   0.597   5.359
 5459TIP3    H116320   5.808   0.570   5.420
 5459TIP3    H216321   5.870   0.536   5.287
 5460TIP3   OH216322   5.314   2.149   4.445
 5460TIP3    H116323   5.409   2.160   4.449
 5460TIP3    H216324   5.278   2.223   4.494
 5461TIP3   OH216325   8.208   7.501   1.189
 5461TIP3    H116326   8.219   7.411   1.159
 5461TIP3    H216327   8.297   7.536   1.194
 5462TIP3   OH216328   7.844   5.310   5.896
 5462TIP3    H116329   7.920   5.334   5.949
 5462TIP3    H216330   7.879   5.254   5.827
 5463TIP3   OH216331   5.021   5.412   4.788
 5463TIP3    H116332   5.052   5.501   4.802
 5463TIP3    H216333   5.027   5.371   4.874
 5464TIP3   OH216334   0.261   0.008   0.756
 5464TIP3    H116335   0.175   0.011   0.799
 5464TIP3    H216336   0.305   0.087   0.784
 5465TIP3   OH216337   4.350   2.397   6.444
 5465TIP3    H116338   4.262   2.432   6.457
 5465TIP3    H216339   4.399   2.425   6.522
 5466TIP3   OH216340   0.518   7.645   5.040
 5466TIP3    H116341   0.476   7.692   4.967
 5466TIP3    H216342   0.485   7.556   5.033
 5467TIP3   OH216343   1.571   3.701   0.811
 5467TIP3    H116344   1.557   3.639   0.739
 5467TIP3    H216345   1.505   3.678   0.876
 5468TIP3   OH216346   4.893   6.574   5.833
 5468TIP3    H116347   4.844   6.626   5.897
 5468TIP3    H216348   4.857   6.603   5.748
 5469TIP3   OH216349   0.580   1.231   1.583
 5469TIP3    H116350   0.562   1.158   1.641
 5469TIP3    H216351   0.525   1.302   1.615
 5470TIP3   OH216352   6.115   2.912   5.863
 5470TIP3    H116353   6.202   2.942   5.840
 5470TIP3    H216354   6.124   2.817   5.872
 5471TIP3   OH216355   1.582   4.438   1.347
 5471TIP3    H116356   1.556   4.404   1.433
 5471TIP3    H216357   1.678   4.432   1.347
 5472TIP3   OH216358   6.093   0.890   6.742
 5472TIP3    H116359   6.007   0.895   6.698
 5472TIP3    H216360   6.143   0.963   6.704
 5473TIP3   OH216361   0.758   0.064   5.294
 5473TIP3    H116362   0.721   0.131   5.351
 5473TIP3    H216363   0.752  -0.017   5.344
 5474TIP3   OH216364   5.054   2.726   1.228
 5474TIP3    H116365   5.108   2.659   1.272
 5474TIP3    H216366   5.098   2.809   1.247
 5475TIP3   OH216367   4.249   0.730   0.236
 5475TIP3    H116368   4.213   0.659   0.183
 5475TIP3    H216369   4.292   0.787   0.174
 5476TIP3   OH216370   0.243   3.075   2.578
 5476TIP3    H116371   0.190   3.080   2.657
 5476TIP3    H216372   0.248   3.165   2.546
 5477TIP3   OH216373   6.937   0.133   4.654
 5477TIP3    H116374   6.848   0.109   4.679
 5477TIP3    H216375   6.974   0.053   4.616
 5478TIP3   OH216376   1.028   4.586   2.797
 5478TIP3    H116377   0.974   4.548   2.867
 5478TIP3    H216378   0.965   4.611   2.729
 5479TIP3   OH216379   2.627   3.683   1.404
 5479TIP3    H116380   2.648   3.721   1.319
 5479TIP3    H216381   2.687   3.608   1.412
 5480TIP3   OH216382   0.704   1.508   3.114
 5480TIP3    H116383   0.631   1.447   3.104
 5480TIP3    H216384   0.692   1.547   3.201
 5481TIP3   OH216385   5.924   4.809   2.837
 5481TIP3    H116386   5.987   4.865   2.883
 5481TIP3    H216387   5.927   4.726   2.885
 5482TIP3   OH216388   4.028   6.058   6.294
 5482TIP3    H116389   4.014   6.062   6.199
 5482TIP3    H216390   3.941   6.040   6.330
 5483TIP3   OH216391   0.529   3.878   5.646
 5483TIP3    H116392   0.434   3.880   5.657
 5483TIP3    H216393   0.564   3.915   5.727
 5484TIP3   OH216394   5.015   7.325   2.896
 5484TIP3    H116395   5.048   7.296   2.981
 5484TIP3    H216396   4.925   7.352   2.913
 5485TIP3   OH216397   7.160   0.799   0.682
 5485TIP3    H116398   7.094   0.814   0.751
 5485TIP3    H216399   7.196   0.713   0.703
 5486TIP3   OH216400   6.417   3.918   2.211
 5486TIP3    H116401   6.488   3.908   2.275
 5486TIP3    H216402   6.337   3.919   2.263
 5487TIP3   OH216403   2.659   2.912   0.886
 5487TIP3    H116404   2.661   2.918   0.791
 5487TIP3    H216405   2.586   2.853   0.905
 5488TIP3   OH216406   7.261   1.191   5.978
 5488TIP3    H116407   7.180   1.242   5.975
 5488TIP3    H216408   7.319   1.241   6.034
 5489TIP3   OH216409   2.004   3.518   4.234
 5489TIP3    H116410   1.961   3.433   4.244
 5489TIP3    H216411   2.058   3.527   4.312
 5490TIP3   OH216412   4.703   4.578   3.383
 5490TIP3    H116413   4.729   4.587   3.475
 5490TIP3    H216414   4.701   4.484   3.368
 5491TIP3   OH216415   8.214   0.458   3.959
 5491TIP3    H116416   8.211   0.501   4.045
 5491TIP3    H216417   8.134   0.405   3.957
 5492TIP3   OH216418   6.941   7.464   4.046
 5492TIP3    H116419   6.887   7.391   4.076
 5492TIP3    H216420   7.002   7.425   3.983
 5493TIP3   OH216421   0.880   1.852   3.155
 5493TIP3    H116422   0.918   1.768   3.130
 5493TIP3    H216423   0.891   1.857   3.250
 5494TIP3   OH216424   8.040   2.268   1.562
 5494TIP3    H116425   8.112   2.224   1.607
 5494TIP3    H216426   7.985   2.197   1.530
 5495TIP3   OH216427   7.023   3.913   3.970
 5495TIP3    H116428   7.077   3.849   3.923
 5495TIP3    H216429   6.950   3.930   3.911
 5496TIP3   OH216430   0.140   5.361   5.763
 5496TIP3    H116431   0.092   5.364   5.680
 5496TIP3    H216432   0.172   5.271   5.768
 5497TIP3   OH216433   3.899   1.893   4.403
 5497TIP3    H116434   3.923   1.845   4.324
 5497TIP3    H216435   3.937   1.980   4.391
 5498TIP3   OH216436   6.604   2.034   1.231
 5498TIP3    H116437   6.514   2.033   1.266
 5498TIP3    H216438   6.645   2.109   1.274
 5499TIP3   OH216439   1.311   4.244   6.311
 5499TIP3    H116440   1.231   4.224   6.359
 5499TIP3    H216441   1.283   4.252   6.220
 5500TIP3   OH216442   4.995   4.515   5.605
 5500TIP3    H116443   4.924   4.517   5.540
 5500TIP3    H216444   5.063   4.461   5.565
 5501TIP3   OH216445   7.322   2.986   0.799
 5501TIP3    H116446   7.255   3.046   0.834
 5501TIP3    H216447   7.343   2.928   0.872
 5502TIP3   OH216448   6.974   1.694   4.002
 5502TIP3    H116449   6.913   1.667   4.071
 5502TIP3    H216450   7.006   1.612   3.964
 5503TIP3   OH216451   4.578   2.659   5.061
 5503TIP3    H116452   4.652   2.719   5.056
 5503TIP3    H216453   4.573   2.620   4.973
 5504TIP3   OH216454   7.423   6.094   3.965
 5504TIP3    H116455   7.363   6.105   3.891
 5504TIP3    H216456   7.400   6.008   4.002
 5505TIP3   OH216457   3.442   7.598   0.683
 5505TIP3    H116458   3.444   7.694   0.683
 5505TIP3    H216459   3.516   7.573   0.738
 5506TIP3   OH216460   4.887   3.350   3.266
 5506TIP3    H116461   4.867   3.290   3.338
 5506TIP3    H216462   4.804   3.358   3.218
 5507TIP3   OH216463   6.270   0.150   2.470
 5507TIP3    H116464   6.335   0.136   2.540
 5507TIP3    H216465   6.197   0.195   2.513
 5508TIP3   OH216466   2.631   5.960   1.715
 5508TIP3    H116467   2.633   5.961   1.811
 5508TIP3    H216468   2.688   5.887   1.691
 5509TIP3   OH216469   6.414   2.088   5.216
 5509TIP3    H116470   6.456   2.004   5.234
 5509TIP3    H216471   6.424   2.101   5.122
 5510TIP3   OH216472   0.858   3.132   3.216
 5510TIP3    H116473   0.774   3.147   3.261
 5510TIP3    H216474   0.924   3.166   3.276
 5511TIP3   OH216475   0.624   4.175   5.277
 5511TIP3    H116476   0.593   4.221   5.199
 5511TIP3    H216477   0.590   4.226   5.350
 5512TIP3   OH216478   7.664   6.863   5.438
 5512TIP3    H116479   7.604   6.936   5.419
 5512TIP3    H216480   7.625   6.818   5.513
 5513TIP3   OH216481   1.622   0.359   0.506
 5513TIP3    H116482   1.603   0.424   0.574
 5513TIP3    H216483   1.677   0.406   0.444
 5514TIP3   OH216484   2.333   0.540   5.419
 5514TIP3    H116485   2.380   0.610   5.375
 5514TIP3    H216486   2.367   0.460   5.379
 5515TIP3   OH216487   5.920   7.042   5.069
 5515TIP3    H116488   5.827   7.036   5.091
 5515TIP3    H216489   5.922   7.045   4.973
 5516TIP3   OH216490   2.833   6.688   6.384
 5516TIP3    H116491   2.818   6.607   6.433
 5516TIP3    H216492   2.805   6.667   6.294
 5517TIP3   OH216493   1.545   5.799   3.404
 5517TIP3    H116494   1.505   5.783   3.490
 5517TIP3    H216495   1.615   5.734   3.399
 5518TIP3   OH216496   0.411   3.966   6.315
 5518TIP3    H116497   0.462   3.928   6.243
 5518TIP3    H216498   0.476   4.004   6.373
 5519TIP3   OH216499   6.505   2.417   6.217
 5519TIP3    H116500   6.561   2.416   6.295
 5519TIP3    H216501   6.426   2.370   6.243
 5520TIP3   OH216502   2.533   2.054   3.825
 5520TIP3    H116503   2.491   2.000   3.757
 5520TIP3    H216504   2.626   2.030   3.819
 5521TIP3   OH216505   6.073   6.576   3.425
 5521TIP3    H116506   6.134   6.506   3.406
 5521TIP3    H216507   6.090   6.599   3.517
 5522TIP3   OH216508   5.549   6.456   0.502
 5522TIP3    H116509   5.635   6.420   0.480
 5522TIP3    H216510   5.491   6.423   0.434
 5523TIP3   OH216511   4.936   4.824   1.727
 5523TIP3    H116512   4.982   4.858   1.650
 5523TIP3    H216513   4.850   4.865   1.724
 5524TIP3   OH216514   5.101   1.141   5.540
 5524TIP3    H116515   5.020   1.191   5.528
 5524TIP3    H216516   5.085   1.087   5.617
 5525TIP3   OH216517   6.923   4.881   2.296
 5525TIP3    H116518   6.887   4.948   2.354
 5525TIP3    H216519   7.002   4.920   2.259
 5526TIP3   OH216520   2.840   2.137   5.022
 5526TIP3    H116521   2.811   2.184   5.101
 5526TIP3    H216522   2.775   2.067   5.011
 5527TIP3   OH216523   2.370   4.109   6.443
 5527TIP3    H116524   2.451   4.075   6.481
 5527TIP3    H216525   2.303   4.092   6.509
 5528TIP3   OH216526   4.401   4.194   4.596
 5528TIP3    H116527   4.330   4.131   4.606
 5528TIP3    H216528   4.456   4.180   4.674
 5529TIP3   OH216529   3.745   6.053   6.328
 5529TIP3    H116530   3.735   5.961   6.352
 5529TIP3    H216531   3.679   6.068   6.260
 5530TIP3   OH216532   2.509   1.446   1.720
 5530TIP3    H116533   2.449   1.404   1.782
 5530TIP3    H216534   2.568   1.376   1.692
 5531TIP3   OH216535   1.405   5.794   5.509
 5531TIP3    H116536   1.374   5.793   5.419
 5531TIP3    H216537   1.328   5.772   5.562
 5532TIP3   OH216538   1.273   0.874   4.543
 5532TIP3    H116539   1.363   0.875   4.577
 5532TIP3    H216540   1.272   0.800   4.482
 5533TIP3   OH216541   4.446   2.212   2.027
 5533TIP3    H116542   4.469   2.295   1.986
 5533TIP3    H216543   4.371   2.180   1.977
 5534TIP3   OH216544   1.152   7.467   5.660
 5534TIP3    H116545   1.193   7.446   5.744
 5534TIP3    H216546   1.161   7.561   5.651
 5535TIP3   OH216547   6.752   4.691   2.409
 5535TIP3    H116548   6.703   4.654   2.335
 5535TIP3    H216549   6.824   4.739   2.369
 5536TIP3   OH216550   2.077   5.973   5.646
 5536TIP3    H116551   2.037   5.898   5.689
 5536TIP3    H216552   2.005   6.033   5.629
 5537TIP3   OH216553   6.562   4.042   3.100
 5537TIP3    H116554   6.582   4.024   3.008
 5537TIP3    H216555   6.606   3.972   3.148
 5538TIP3   OH216556   5.731   6.727   1.198
 5538TIP3    H116557   5.706   6.805   1.148
 5538TIP3    H216558   5.772   6.761   1.277
 5539TIP3   OH216559   0.439   5.115   4.854
 5539TIP3    H116560   0.362   5.172   4.847
 5539TIP3    H216561   0.499   5.148   4.787
 5540TIP3   OH216562   5.274   3.209   5.630
 5540TIP3    H116563   5.340   3.194   5.562
 5540TIP3    H216564   5.315   3.274   5.688
 5541TIP3   OH216565   3.859   4.779   6.628
 5541TIP3    H116566   3.846   4.738   6.714
 5541TIP3    H216567   3.797   4.734   6.571
 5542TIP3   OH216568   1.798   2.896   2.903
 5542TIP3    H116569   1.858   2.929   2.970
 5542TIP3    H216570   1.743   2.972   2.881
 5543TIP3   OH216571   2.010   5.738   6.611
 5543TIP3    H116572   2.072   5.801   6.575
 5543TIP3    H216573   1.929   5.752   6.561
 5544TIP3   OH216574   6.802   1.504   0.845
 5544TIP3    H116575   6.759   1.527   0.763
 5544TIP3    H216576   6.891   1.480   0.820
 5545TIP3   OH216577   3.467   7.736   6.207
 5545TIP3    H116578   3.434   7.797   6.142
 5545TIP3    H216579   3.520   7.790   6.266
 5546TIP3   OH216580   5.048   0.550   2.761
 5546TIP3    H116581   4.981   0.578   2.699
 5546TIP3    H216582   5.029   0.457   2.775
 5547TIP3   OH216583   2.557   4.885   5.801
 5547TIP3    H116584   2.595   4.951   5.860
 5547TIP3    H216585   2.543   4.932   5.719
 5548TIP3   OH216586   4.843   0.597   0.649
 5548TIP3    H116587   4.856   0.504   0.633
 5548TIP3    H216588   4.893   0.615   0.729
 5549TIP3   OH216589   0.607   0.104   0.503
 5549TIP3    H116590   0.654   0.174   0.549
 5549TIP3    H216591   0.583   0.042   0.571
 5550TIP3   OH216592   2.066   3.369   5.757
 5550TIP3    H116593   1.999   3.432   5.730
 5550TIP3    H216594   2.055   3.296   5.695
 5551TIP3   OH216595   2.032   5.049   6.447
 5551TIP3    H116596   2.061   5.056   6.537
 5551TIP3    H216597   1.940   5.023   6.453
 5552TIP3   OH216598   6.888   7.537   6.045
 5552TIP3    H116599   6.797   7.518   6.023
 5552TIP3    H216600   6.885   7.620   6.093
 5553TIP3   OH216601   7.024   5.966   3.270
 5553TIP3    H116602   7.106   5.960   3.220
 5553TIP3    H216603   6.979   6.041   3.233
 5554TIP3   OH216604   0.781   7.358   5.941
 5554TIP3    H116605   0.850   7.303   5.979
 5554TIP3    H216606   0.784   7.439   5.993
 5555TIP3   OH216607   3.814   5.289   3.210
 5555TIP3    H116608   3.780   5.378   3.218
 5555TIP3    H216609   3.742   5.240   3.171
 5556TIP3   OH216610   0.528   6.350   6.154
 5556TIP3    H116611   0.549   6.297   6.077
 5556TIP3    H216612   0.613   6.369   6.194
 5557TIP3   OH216613   5.220   7.571   2.934
 5557TIP3    H116614   5.262   7.489   2.909
 5557TIP3    H216615   5.164   7.549   3.008
 5558TIP3   OH216616   1.037   6.833   3.707
 5558TIP3    H116617   1.101   6.780   3.755
 5558TIP3    H216618   1.088   6.903   3.667
 5559TIP3   OH216619   6.967   2.751   3.072
 5559TIP3    H116620   6.982   2.814   3.002
 5559TIP3    H216621   6.964   2.666   3.028
 5560TIP3   OH216622   0.571   0.161   4.326
 5560TIP3    H116623   0.630   0.132   4.396
 5560TIP3    H216624   0.594   0.253   4.314
 5561TIP3   OH216625   7.194   1.933   4.291
 5561TIP3    H116626   7.124   1.919   4.227
 5561TIP3    H216627   7.177   1.870   4.360
 5562TIP3   OH216628   1.484   6.176   3.615
 5562TIP3    H116629   1.517   6.086   3.619
 5562TIP3    H216630   1.561   6.230   3.635
 5563TIP3   OH216631   2.992   1.665   5.520
 5563TIP3    H116632   2.975   1.597   5.455
 5563TIP3    H216633   2.907   1.682   5.561
 5564TIP3   OH216634   4.395   3.829   3.104
 5564TIP3    H116635   4.397   3.805   3.011
 5564TIP3    H216636   4.370   3.921   3.104
 5565TIP3   OH216637   3.523   4.408   6.657
 5565TIP3    H116638   3.469   4.369   6.588
 5565TIP3    H216639   3.521   4.345   6.728
 5566TIP3   OH216640   0.567   2.613   5.062
 5566TIP3    H116641   0.659   2.622   5.040
 5566TIP3    H216642   0.550   2.519   5.055
 5567TIP3   OH216643   2.659   7.629   2.130
 5567TIP3    H116644   2.728   7.692   2.110
 5567TIP3    H216645   2.644   7.637   2.224
 5568TIP3   OH216646   2.887   2.685   0.974
 5568TIP3    H116647   2.881   2.716   0.884
 5568TIP3    H216648   2.947   2.747   1.017
 5569TIP3   OH216649   3.222   4.222   4.497
 5569TIP3    H116650   3.207   4.316   4.489
 5569TIP3    H216651   3.138   4.187   4.527
 5570TIP3   OH216652   0.163   5.464   6.051
 5570TIP3    H116653   0.154   5.372   6.076
 5570TIP3    H216654   0.106   5.474   5.975
 5571TIP3   OH216655   2.973   7.195   3.353
 5571TIP3    H116656   3.018   7.240   3.281
 5571TIP3    H216657   3.013   7.108   3.356
 5572TIP3   OH216658   0.051   2.618   5.223
 5572TIP3    H116659  -0.013   2.679   5.261
 5572TIP3    H216660   0.021   2.605   5.133
 5573TIP3   OH216661   6.099   5.175   5.968
 5573TIP3    H116662   6.126   5.245   5.909
 5573TIP3    H216663   6.077   5.102   5.911
 5574TIP3   OH216664   5.657   0.031   2.893
 5574TIP3    H116665   5.694  -0.011   2.815
 5574TIP3    H216666   5.682  -0.027   2.965
 5575TIP3   OH216667   1.258   0.881   5.084
 5575TIP3    H116668   1.256   0.787   5.103
 5575TIP3    H216669   1.346   0.909   5.109
 5576TIP3   OH216670   3.263   2.514   6.517
 5576TIP3    H116671   3.274   2.578   6.447
 5576TIP3    H216672   3.322   2.443   6.494
 5577TIP3   OH216673   4.762   5.330   2.482
 5577TIP3    H116674   4.699   5.376   2.427
 5577TIP3    H216675   4.811   5.399   2.526
 5578TIP3   OH216676   5.266   2.854   1.565
 5578TIP3    H116677   5.215   2.887   1.490
 5578TIP3    H216678   5.265   2.759   1.554
 5579TIP3   OH216679   4.085   5.038   4.160
 5579TIP3    H116680   4.018   5.028   4.093
 5579TIP3    H216681   4.168   5.025   4.115
 5580TIP3   OH216682   2.363   1.431   2.035
 5580TIP3    H116683   2.450   1.432   2.077
 5580TIP3    H216684   2.309   1.379   2.094
 5581TIP3   OH216685   7.817   3.326   5.361
 5581TIP3    H116686   7.861   3.399   5.406
 5581TIP3    H216687   7.882   3.294   5.298
 5582TIP3   OH216688   7.725   4.015   1.746
 5582TIP3    H116689   7.684   4.099   1.724
 5582TIP3    H216690   7.747   4.022   1.838
 5583TIP3   OH216691   7.926   4.790   3.909
 5583TIP3    H116692   7.962   4.703   3.926
 5583TIP3    H216693   7.875   4.779   3.828
 5584TIP3   OH216694   3.345   1.399   4.090
 5584TIP3    H116695   3.366   1.373   4.180
 5584TIP3    H216696   3.364   1.493   4.088
 5585TIP3   OH216697   0.873   5.021   4.807
 5585TIP3    H116698   0.947   4.966   4.781
 5585TIP3    H216699   0.879   5.098   4.750
 5586TIP3   OH216700   5.065   7.412   4.968
 5586TIP3    H116701   5.062   7.499   5.007
 5586TIP3    H216702   5.037   7.353   5.038
 5587TIP3   OH216703   3.624   3.617   4.427
 5587TIP3    H116704   3.716   3.625   4.400
 5587TIP3    H216705   3.580   3.691   4.384
 5588TIP3   OH216706   3.859   2.926   2.424
 5588TIP3    H116707   3.921   2.998   2.418
 5588TIP3    H216708   3.909   2.849   2.396
 5589TIP3   OH216709   2.896  -0.015   4.856
 5589TIP3    H116710   2.956   0.016   4.789
 5589TIP3    H216711   2.819   0.042   4.847
 5590TIP3   OH216712   5.686   2.915   3.014
 5590TIP3    H116713   5.772   2.937   3.051
 5590TIP3    H216714   5.706   2.855   2.942
 5591TIP3   OH216715   0.664   4.242   3.014
 5591TIP3    H116716   0.698   4.296   2.942
 5591TIP3    H216717   0.599   4.298   3.057
 5592TIP3   OH216718   5.619   3.563   2.725
 5592TIP3    H116719   5.565   3.485   2.715
 5592TIP3    H216720   5.692   3.534   2.780
 5593TIP3   OH216721   7.449   2.068   6.231
 5593TIP3    H116722   7.391   1.994   6.214
 5593TIP3    H216723   7.521   2.031   6.283
 5594TIP3   OH216724   5.884   7.802   2.834
 5594TIP3    H116725   5.859   7.710   2.829
 5594TIP3    H216726   5.808   7.850   2.801
 5595TIP3   OH216727   1.347   2.815   3.867
 5595TIP3    H116728   1.345   2.842   3.775
 5595TIP3    H216729   1.265   2.768   3.879
 5596TIP3   OH216730   6.511   6.629   4.333
 5596TIP3    H116731   6.458   6.674   4.399
 5596TIP3    H216732   6.596   6.616   4.375
 5597TIP3   OH216733   1.714   7.640   1.343
 5597TIP3    H116734   1.629   7.684   1.345
 5597TIP3    H216735   1.773   7.699   1.389
 5598TIP3   OH216736   3.490   5.422   3.751
 5598TIP3    H116737   3.404   5.450   3.720
 5598TIP3    H216738   3.471   5.361   3.822
 5599TIP3   OH216739   7.326   1.451   0.964
 5599TIP3    H116740   7.319   1.444   1.059
 5599TIP3    H216741   7.316   1.362   0.932
 5600TIP3   OH216742   3.161   1.682   4.778
 5600TIP3    H116743   3.073   1.718   4.786
 5600TIP3    H216744   3.196   1.722   4.699
 5601TIP3   OH216745   0.444   2.542   1.093
 5601TIP3    H116746   0.438   2.553   1.188
 5601TIP3    H216747   0.480   2.454   1.082
 5602TIP3   OH216748   7.432   4.570   4.282
 5602TIP3    H116749   7.469   4.652   4.315
 5602TIP3    H216750   7.444   4.508   4.354
 5603TIP3   OH216751   8.171   6.248   0.256
 5603TIP3    H116752   8.094   6.211   0.214
 5603TIP3    H216753   8.137   6.318   0.312
 5604TIP3   OH216754   5.126   6.419   1.284
 5604TIP3    H116755   5.116   6.432   1.189
 5604TIP3    H216756   5.083   6.495   1.323
 5605TIP3   OH216757   4.722   7.354   2.175
 5605TIP3    H116758   4.637   7.364   2.219
 5605TIP3    H216759   4.736   7.259   2.170
 5606TIP3   OH216760   7.268   1.110   5.649
 5606TIP3    H116761   7.177   1.139   5.659
 5606TIP3    H216762   7.320   1.181   5.687
 5607TIP3   OH216763   4.086   4.305   2.185
 5607TIP3    H116764   4.149   4.357   2.234
 5607TIP3    H216765   4.051   4.364   2.119
 5608TIP3   OH216766   0.075   5.835   5.955
 5608TIP3    H116767   0.137   5.766   5.929
 5608TIP3    H216768   0.012   5.838   5.883
 5609TIP3   OH216769   7.306   3.943   3.802
 5609TIP3    H116770   7.377   3.880   3.815
 5609TIP3    H216771   7.228   3.889   3.788
 5610TIP3   OH216772   2.882   4.829   5.570
 5610TIP3    H116773   2.819   4.770   5.531
 5610TIP3    H216774   2.842   4.916   5.562
 5611TIP3   OH216775   1.766   0.380   1.496
 5611TIP3    H116776   1.751   0.326   1.419
 5611TIP3    H216777   1.741   0.323   1.570
 5612TIP3   OH216778   7.889   6.155   1.429
 5612TIP3    H116779   7.820   6.107   1.474
 5612TIP3    H216780   7.846   6.233   1.394
 5613TIP3   OH216781   5.307   1.082   6.531
 5613TIP3    H116782   5.278   1.158   6.582
 5613TIP3    H216783   5.363   1.120   6.463
 5614TIP3   OH216784   5.376   0.573   4.819
 5614TIP3    H116785   5.443   0.514   4.852
 5614TIP3    H216786   5.342   0.530   4.740
 5615TIP3   OH216787   3.692   3.434   3.462
 5615TIP3    H116788   3.619   3.414   3.520
 5615TIP3    H216789   3.682   3.526   3.440
 5616TIP3   OH216790   0.414   3.286   6.221
 5616TIP3    H116791   0.399   3.353   6.155
 5616TIP3    H216792   0.338   3.227   6.214
 5617TIP3   OH216793   5.392   1.626   5.933
 5617TIP3    H116794   5.458   1.632   5.864
 5617TIP3    H216795   5.312   1.659   5.893
 5618TIP3   OH216796   3.766   5.964   5.396
 5618TIP3    H116797   3.810   6.028   5.339
 5618TIP3    H216798   3.684   5.944   5.351
 5619TIP3   OH216799   0.714   5.142   1.486
 5619TIP3    H116800   0.720   5.064   1.541
 5619TIP3    H216801   0.708   5.214   1.549
 5620TIP3   OH216802   4.928   1.371   1.798
 5620TIP3    H116803   4.987   1.302   1.768
 5620TIP3    H216804   4.982   1.428   1.852
 5621TIP3   OH216805   3.035   2.494   3.543
 5621TIP3    H116806   3.089   2.415   3.536
 5621TIP3    H216807   2.963   2.469   3.600
 5622TIP3   OH216808   5.687   1.679   1.824
 5622TIP3    H116809   5.608   1.731   1.835
 5622TIP3    H216810   5.759   1.742   1.827
 5623TIP3   OH216811   5.254   2.809   2.832
 5623TIP3    H116812   5.181   2.854   2.791
 5623TIP3    H216813   5.245   2.829   2.926
 5624TIP3   OH216814   5.156   5.443   4.378
 5624TIP3    H116815   5.064   5.451   4.351
 5624TIP3    H216816   5.175   5.525   4.423
 5625TIP3   OH216817   2.023   5.744   1.985
 5625TIP3    H116818   2.110   5.711   2.007
 5625TIP3    H216819   1.982   5.674   1.935
 5626TIP3   OH216820   0.373   0.868   4.704
 5626TIP3    H116821   0.393   0.794   4.760
 5626TIP3    H216822   0.368   0.943   4.763
 5627TIP3   OH216823   6.586   3.771   0.886
 5627TIP3    H116824   6.657   3.727   0.841
 5627TIP3    H216825   6.533   3.810   0.816
 5628TIP3   OH216826   1.303   0.458   3.095
 5628TIP3    H116827   1.293   0.367   3.065
 5628TIP3    H216828   1.263   0.511   3.026
 5629TIP3   OH216829   5.797   6.989   6.681
 5629TIP3    H116830   5.864   6.998   6.612
 5629TIP3    H216831   5.714   6.987   6.633
 5630TIP3   OH216832   0.156   2.978   4.190
 5630TIP3    H116833   0.240   2.935   4.178
 5630TIP3    H216834   0.124   2.995   4.101
 5631TIP3   OH216835   3.090   5.937   6.485
 5631TIP3    H116836   3.059   6.008   6.429
 5631TIP3    H216837   3.063   5.963   6.573
 5632TIP3   OH216838   3.201   0.984   4.409
 5632TIP3    H116839   3.270   0.924   4.383
 5632TIP3    H216840   3.237   1.071   4.394
 5633TIP3   OH216841   1.550   6.019   1.207
 5633TIP3    H116842   1.580   5.928   1.213
 5633TIP3    H216843   1.544   6.036   1.113
 5634TIP3   OH216844   5.220   2.210   2.472
 5634TIP3    H116845   5.229   2.294   2.427
 5634TIP3    H216846   5.303   2.164   2.455
 5635TIP3   OH216847   4.974   2.953   0.519
 5635TIP3    H116848   5.030   2.983   0.590
 5635TIP3    H216849   4.905   3.019   0.513
 5636TIP3   OH216850   7.791   0.101   4.518
 5636TIP3    H116851   7.802   0.090   4.424
 5636TIP3    H216852   7.836   0.183   4.538
 5637TIP3   OH216853   7.853   3.093   1.846
 5637TIP3    H116854   7.834   3.071   1.755
 5637TIP3    H216855   7.881   3.011   1.887
 5638TIP3   OH216856   4.057   0.390   1.399
 5638TIP3    H116857   4.131   0.409   1.342
 5638TIP3    H216858   4.019   0.310   1.363
 5639TIP3   OH216859   1.248   0.708   2.922
 5639TIP3    H116860   1.229   0.730   2.831
 5639TIP3    H216861   1.334   0.747   2.939
 5640TIP3   OH216862   6.720   4.520   3.054
 5640TIP3    H116863   6.664   4.595   3.078
 5640TIP3    H216864   6.787   4.518   3.122
 5641TIP3   OH216865   8.284   3.755   6.060
 5641TIP3    H116866   8.192   3.777   6.044
 5641TIP3    H216867   8.283   3.706   6.142
 5642TIP3   OH216868   3.986   0.729   3.465
 5642TIP3    H116869   3.977   0.634   3.470
 5642TIP3    H216870   4.070   0.748   3.508
 5643TIP3   OH216871   6.169   0.993   1.070
 5643TIP3    H116872   6.083   0.952   1.062
 5643TIP3    H216873   6.192   0.983   1.162
 5644TIP3   OH216874   2.907   6.691   4.223
 5644TIP3    H116875   2.859   6.660   4.300
 5644TIP3    H216876   2.862   6.770   4.196
 5645TIP3   OH216877   6.655   5.928   1.724
 5645TIP3    H116878   6.587   5.987   1.691
 5645TIP3    H216879   6.735   5.955   1.678
 5646TIP3   OH216880   7.336   0.147   5.557
 5646TIP3    H116881   7.351   0.062   5.514
 5646TIP3    H216882   7.265   0.130   5.619
 5647TIP3   OH216883   5.430   6.598   3.584
 5647TIP3    H116884   5.380   6.565   3.510
 5647TIP3    H216885   5.364   6.629   3.646
 5648TIP3   OH216886   6.271   3.604   0.771
 5648TIP3    H116887   6.197   3.544   0.757
 5648TIP3    H216888   6.344   3.563   0.726
 5649TIP3   OH216889   3.825   4.663   3.228
 5649TIP3    H116890   3.813   4.654   3.323
 5649TIP3    H216891   3.796   4.579   3.192
 5650TIP3   OH216892   6.890   7.289   2.412
 5650TIP3    H116893   6.957   7.296   2.481
 5650TIP3    H216894   6.876   7.379   2.383
 5651TIP3   OH216895   3.404   1.090   1.759
 5651TIP3    H116896   3.311   1.109   1.769
 5651TIP3    H216897   3.407   1.018   1.695
 5652TIP3   OH216898   2.597   3.178   6.342
 5652TIP3    H116899   2.645   3.257   6.366
 5652TIP3    H216900   2.660   3.107   6.355
 5653TIP3   OH216901   3.302   0.751   4.276
 5653TIP3    H116902   3.385   0.793   4.254
 5653TIP3    H216903   3.258   0.740   4.191
 5654TIP3   OH216904   4.245   5.877   2.215
 5654TIP3    H116905   4.318   5.938   2.205
 5654TIP3    H216906   4.183   5.924   2.271
 5655TIP3   OH216907   6.074   7.612   5.911
 5655TIP3    H116908   6.117   7.678   5.964
 5655TIP3    H216909   6.052   7.657   5.829
 5656TIP3   OH216910   3.246   5.035   6.721
 5656TIP3    H116911   3.320   4.977   6.704
 5656TIP3    H216912   3.286   5.115   6.755
 5657TIP3   OH216913   0.956   5.184   3.043
 5657TIP3    H116914   0.914   5.244   2.981
 5657TIP3    H216915   1.034   5.230   3.073
 5658TIP3   OH216916   5.891   2.890   4.646
 5658TIP3    H116917   5.910   2.834   4.571
 5658TIP3    H216918   5.874   2.829   4.718
 5659TIP3   OH216919   1.400   0.802   6.410
 5659TIP3    H116920   1.467   0.852   6.457
 5659TIP3    H216921   1.347   0.869   6.366
 5660TIP3   OH216922   3.759   5.573   1.953
 5660TIP3    H116923   3.680   5.530   1.921
 5660TIP3    H216924   3.767   5.652   1.900
 5661TIP3   OH216925   3.847   1.966   3.067
 5661TIP3    H116926   3.930   1.976   3.019
 5661TIP3    H216927   3.792   1.914   3.009
 5662TIP3   OH216928   6.218   7.433   3.065
 5662TIP3    H116929   6.194   7.474   2.981
 5662TIP3    H216930   6.179   7.491   3.131
 5663TIP3   OH216931   6.772   3.825   6.608
 5663TIP3    H116932   6.861   3.842   6.578
 5663TIP3    H216933   6.782   3.787   6.695
 5664TIP3   OH216934   8.093   2.735   1.459
 5664TIP3    H116935   8.151   2.672   1.416
 5664TIP3    H216936   8.009   2.724   1.415
 5665TIP3   OH216937   6.387   0.360   3.558
 5665TIP3    H116938   6.359   0.449   3.579
 5665TIP3    H216939   6.314   0.305   3.588
 5666TIP3   OH216940   0.482   2.253   1.109
 5666TIP3    H116941   0.446   2.284   1.191
 5666TIP3    H216942   0.423   2.183   1.081
 5667TIP3   OH216943   0.140   5.184   0.371
 5667TIP3    H116944   0.123   5.094   0.399
 5667TIP3    H216945   0.053   5.221   0.359
 5668TIP3   OH216946   5.249   0.346   4.741
 5668TIP3    H116947   5.211   0.271   4.697
 5668TIP3    H216948   5.316   0.309   4.799
 5669TIP3   OH216949   6.383   5.112   2.081
 5669TIP3    H116950   6.298   5.155   2.067
 5669TIP3    H216951   6.388   5.046   2.012
 5670TIP3   OH216952   2.627   5.952   0.791
 5670TIP3    H116953   2.697   5.997   0.743
 5670TIP3    H216954   2.672   5.905   0.861
 5671TIP3   OH216955   0.316   0.387   0.243
 5671TIP3    H116956   0.299   0.299   0.276
 5671TIP3    H216957   0.231   0.419   0.214
 5672TIP3   OH216958   1.748   1.284   5.959
 5672TIP3    H116959   1.715   1.211   5.906
 5672TIP3    H216960   1.731   1.257   6.049
 5673TIP3   OH216961   8.035   1.297   2.583
 5673TIP3    H116962   7.970   1.353   2.540
 5673TIP3    H216963   8.113   1.303   2.529
 5674TIP3   OH216964   7.666   2.163   0.105
 5674TIP3    H116965   7.648   2.202   0.190
 5674TIP3    H216966   7.634   2.073   0.112
 5675TIP3   OH216967   5.356   3.292   0.572
 5675TIP3    H116968   5.346   3.323   0.662
 5675TIP3    H216969   5.267   3.292   0.536
 5676TIP3   OH216970   0.791   2.582   0.388
 5676TIP3    H116971   0.884   2.575   0.412
 5676TIP3    H216972   0.760   2.492   0.388
 5677TIP3   OH216973   1.655   3.040   4.226
 5677TIP3    H116974   1.563   3.023   4.204
 5677TIP3    H216975   1.674   2.981   4.298
 5678TIP3   OH216976   6.660   5.857   2.074
 5678TIP3    H116977   6.746   5.871   2.035
 5678TIP3    H216978   6.616   5.797   2.014
 5679TIP3   OH216979   6.854   3.054   3.589
 5679TIP3    H116980   6.761   3.037   3.577
 5679TIP3    H216981   6.896   3.012   3.514
 5680TIP3   OH216982   6.454   5.112   3.494
 5680TIP3    H116983   6.378   5.055   3.502
 5680TIP3    H216984   6.506   5.074   3.423
 5681TIP3   OH216985   2.616   1.353   5.790
 5681TIP3    H116986   2.666   1.334   5.711
 5681TIP3    H216987   2.537   1.300   5.783
 5682TIP3   OH216988   3.118   2.100   0.059
 5682TIP3    H116989   3.112   2.154   0.138
 5682TIP3    H216990   3.033   2.057   0.053
 5683TIP3   OH216991   3.197   1.292   2.599
 5683TIP3    H116992   3.176   1.316   2.509
 5683TIP3    H216993   3.118   1.312   2.649
 5684TIP3   OH216994   4.951   4.416   3.249
 5684TIP3    H116995   4.995   4.499   3.264
 5684TIP3    H216996   4.959   4.369   3.332
 5685TIP3   OH216997   0.849   0.323   3.478
 5685TIP3    H116998   0.893   0.273   3.408
 5685TIP3    H216999   0.802   0.392   3.432
 5686TIP3   OH217000   3.812   1.827   1.703
 5686TIP3    H117001   3.906   1.843   1.691
 5686TIP3    H217002   3.787   1.771   1.629
 5687TIP3   OH217003   2.196   7.230   3.949
 5687TIP3    H117004   2.192   7.260   3.858
 5687TIP3    H217005   2.261   7.160   3.949
 5688TIP3   OH217006   0.689   6.054   3.881
 5688TIP3    H117007   0.638   6.016   3.952
 5688TIP3    H217008   0.697   6.147   3.905
 5689TIP3   OH217009   4.703   7.323   5.275
 5689TIP3    H117010   4.658   7.333   5.191
 5689TIP3    H217011   4.678   7.235   5.304
 5690TIP3   OH217012   3.302   3.833   2.412
 5690TIP3    H117013   3.301   3.925   2.384
 5690TIP3    H217014   3.274   3.836   2.504
 5691TIP3   OH217015   6.494   2.680   2.443
 5691TIP3    H117016   6.450   2.603   2.405
 5691TIP3    H217017   6.491   2.665   2.537
 5692TIP3   OH217018   5.193   3.219   1.617
 5692TIP3    H117019   5.177   3.200   1.710
 5692TIP3    H217020   5.208   3.314   1.614
 5693TIP3   OH217021   7.097   1.981   0.534
 5693TIP3    H117022   7.154   1.980   0.457
 5693TIP3    H217023   7.011   2.007   0.500
 5694TIP3   OH217024   6.857   6.267   5.539
 5694TIP3    H117025   6.941   6.276   5.582
 5694TIP3    H217026   6.876   6.279   5.446
 5695TIP3   OH217027   4.400   6.243   4.672
 5695TIP3    H117028   4.362   6.224   4.586
 5695TIP3    H217029   4.338   6.303   4.713
 5696TIP3   OH217030   3.412   5.997   5.712
 5696TIP3    H117031   3.432   5.919   5.661
 5696TIP3    H217032   3.483   6.058   5.692
 5697TIP3   OH217033   2.100   2.602   6.571
 5697TIP3    H117034   2.078   2.677   6.626
 5697TIP3    H217035   2.139   2.640   6.492
 5698TIP3   OH217036   0.051   7.761   3.648
 5698TIP3    H117037   0.052   7.804   3.562
 5698TIP3    H217038  -0.039   7.730   3.657
 5699TIP3   OH217039   3.347   7.081   3.809
 5699TIP3    H117040   3.271   7.092   3.865
 5699TIP3    H217041   3.346   6.988   3.785
 5700TIP3   OH217042   6.364   4.400   4.317
 5700TIP3    H117043   6.335   4.343   4.388
 5700TIP3    H217044   6.327   4.361   4.238
 5701TIP3   OH217045   6.427   5.629   6.403
 5701TIP3    H117046   6.414   5.545   6.448
 5701TIP3    H217047   6.369   5.690   6.449
 5702TIP3   OH217048   5.420   2.546   0.196
 5702TIP3    H117049   5.344   2.559   0.254
 5702TIP3    H217050   5.458   2.634   0.187
 5703TIP3   OH217051   3.190   1.876   2.600
 5703TIP3    H117052   3.230   1.791   2.616
 5703TIP3    H217053   3.106   1.872   2.648
 5704TIP3   OH217054   6.525   3.797   1.234
 5704TIP3    H117055   6.575   3.772   1.311
 5704TIP3    H217056   6.591   3.827   1.171
 5705TIP3   OH217057   6.990   7.168   1.544
 5705TIP3    H117058   7.041   7.115   1.483
 5705TIP3    H217059   6.952   7.104   1.605
 5706TIP3   OH217060   0.316   5.944   4.617
 5706TIP3    H117061   0.297   6.028   4.576
 5706TIP3    H217062   0.246   5.933   4.682
 5707TIP3   OH217063   7.419   4.255   1.169
 5707TIP3    H117064   7.467   4.246   1.088
 5707TIP3    H217065   7.349   4.189   1.164
 5708TIP3   OH217066   2.720   0.326   0.099
 5708TIP3    H117067   2.750   0.413   0.125
 5708TIP3    H217068   2.735   0.272   0.177
 5709TIP3   OH217069   3.924   3.387   3.654
 5709TIP3    H117070   3.869   3.407   3.579
 5709TIP3    H217071   3.975   3.310   3.627
 5710TIP3   OH217072   5.717   2.357   1.075
 5710TIP3    H117073   5.714   2.365   1.170
 5710TIP3    H217074   5.797   2.307   1.058
 5711TIP3   OH217075   2.408   1.428   0.264
 5711TIP3    H117076   2.409   1.523   0.271
 5711TIP3    H217077   2.336   1.400   0.321
 5712TIP3   OH217078   5.312   3.237   2.487
 5712TIP3    H117079   5.386   3.297   2.482
 5712TIP3    H217080   5.350   3.155   2.520
 5713TIP3   OH217081   7.450   1.284   4.437
 5713TIP3    H117082   7.361   1.270   4.469
 5713TIP3    H217083   7.491   1.197   4.441
 5714TIP3   OH217084   5.380   4.497   5.411
 5714TIP3    H117085   5.403   4.508   5.319
 5714TIP3    H217086   5.463   4.497   5.457
 5715TIP3   OH217087   4.372   2.131   4.638
 5715TIP3    H117088   4.297   2.075   4.621
 5715TIP3    H217089   4.404   2.155   4.550
 5716TIP3   OH217090   1.726   2.571   5.190
 5716TIP3    H117091   1.737   2.612   5.104
 5716TIP3    H217092   1.802   2.512   5.197
 5717TIP3   OH217093   2.063   6.119   3.446
 5717TIP3    H117094   2.096   6.192   3.394
 5717TIP3    H217095   1.967   6.127   3.441
 5718TIP3   OH217096   4.790   5.474   0.408
 5718TIP3    H117097   4.732   5.397   0.407
 5718TIP3    H217098   4.856   5.452   0.474
 5719TIP3   OH217099   0.305   6.216   4.574
 5719TIP3    H117100   0.397   6.235   4.596
 5719TIP3    H217101   0.288   6.269   4.496
 5720TIP3   OH217102   2.281   1.805   2.625
 5720TIP3    H117103   2.275   1.878   2.564
 5720TIP3    H217104   2.343   1.834   2.692
 5721TIP3   OH217105   4.710   1.425   1.508
 5721TIP3    H117106   4.616   1.407   1.506
 5721TIP3    H217107   4.748   1.351   1.556
 5722TIP3   OH217108   0.660   6.919   5.663
 5722TIP3    H117109   0.611   6.981   5.609
 5722TIP3    H217110   0.698   6.973   5.733
 5723TIP3   OH217111   4.413   0.174   1.296
 5723TIP3    H117112   4.348   0.243   1.288
 5723TIP3    H217113   4.493   0.211   1.258
 5724TIP3   OH217114   3.502   0.565   4.935
 5724TIP3    H117115   3.504   0.657   4.961
 5724TIP3    H217116   3.513   0.517   5.017
 5725TIP3   OH217117   0.991   1.969   0.201
 5725TIP3    H117118   0.905   1.985   0.162
 5725TIP3    H217119   0.985   2.005   0.289
 5726TIP3   OH217120   7.087   2.618   6.103
 5726TIP3    H117121   7.073   2.690   6.164
 5726TIP3    H217122   7.153   2.564   6.145
 5727TIP3   OH217123   1.540   7.788   4.262
 5727TIP3    H117124   1.545   7.697   4.232
 5727TIP3    H217125   1.541   7.839   4.181
 5728TIP3   OH217126   4.804   5.386   6.319
 5728TIP3    H117127   4.864   5.364   6.390
 5728TIP3    H217128   4.719   5.353   6.349
 5729TIP3   OH217129   3.517   1.315   0.640
 5729TIP3    H117130   3.592   1.276   0.684
 5729TIP3    H217131   3.445   1.304   0.703
 5730TIP3   OH217132   8.222   7.039   6.483
 5730TIP3    H117133   8.147   7.031   6.424
 5730TIP3    H217134   8.226   6.955   6.529
 5731TIP3   OH217135   4.169   2.600   0.104
 5731TIP3    H117136   4.214   2.530   0.058
 5731TIP3    H217137   4.239   2.652   0.144
 5732TIP3   OH217138   7.801   1.815   0.741
 5732TIP3    H117139   7.797   1.842   0.649
 5732TIP3    H217140   7.758   1.730   0.743
 5733TIP3   OH217141   1.652   3.593   5.579
 5733TIP3    H117142   1.567   3.590   5.623
 5733TIP3    H217143   1.655   3.512   5.527
 5734TIP3   OH217144   0.042   2.894   6.225
 5734TIP3    H117145   0.121   2.850   6.193
 5734TIP3    H217146   0.013   2.948   6.151
 5735TIP3   OH217147   0.975   3.400   3.655
 5735TIP3    H117148   1.016   3.356   3.729
 5735TIP3    H217149   0.896   3.441   3.691
 5736TIP3   OH217150   5.690   1.940   2.779
 5736TIP3    H117151   5.629   1.891   2.835
 5736TIP3    H217152   5.637   2.012   2.744
 5737TIP3   OH217153   1.838   6.747   2.800
 5737TIP3    H117154   1.817   6.758   2.707
 5737TIP3    H217155   1.932   6.761   2.805
 5738TIP3   OH217156   4.453   1.739   0.773
 5738TIP3    H117157   4.524   1.769   0.716
 5738TIP3    H217158   4.418   1.662   0.729
 5739TIP3   OH217159   7.919   2.871   5.979
 5739TIP3    H117160   7.899   2.933   6.049
 5739TIP3    H217161   7.834   2.851   5.940
 5740TIP3   OH217162   3.527   2.302   3.470
 5740TIP3    H117163   3.525   2.398   3.473
 5740TIP3    H217164   3.585   2.281   3.397
 5741TIP3   OH217165   0.829   3.604   1.544
 5741TIP3    H117166   0.817   3.549   1.466
 5741TIP3    H217167   0.923   3.618   1.549
 5742TIP3   OH217168   2.732   0.721   3.423
 5742TIP3    H117169   2.678   0.646   3.397
 5742TIP3    H217170   2.744   0.711   3.517
 5743TIP3   OH217171   6.600   2.489   0.440
 5743TIP3    H117172   6.619   2.395   0.434
 5743TIP3    H217173   6.679   2.527   0.479
 5744TIP3   OH217174   2.079   2.403   1.639
 5744TIP3    H117175   1.991   2.372   1.657
 5744TIP3    H217176   2.135   2.327   1.654
 5745TIP3   OH217177   0.920   3.960   2.683
 5745TIP3    H117178   0.861   3.886   2.689
 5745TIP3    H217179   0.926   3.994   2.772
 5746TIP3   OH217180   3.877   4.018   6.599
 5746TIP3    H117181   3.949   4.000   6.538
 5746TIP3    H217182   3.853   3.932   6.634
 5747TIP3   OH217183   3.359   5.882   5.043
 5747TIP3    H117184   3.311   5.951   4.996
 5747TIP3    H217185   3.423   5.850   4.979
 5748TIP3   OH217186   4.363   0.189   3.249
 5748TIP3    H117187   4.320   0.109   3.220
 5748TIP3    H217188   4.379   0.175   3.343
 5749TIP3   OH217189   7.703   2.732   1.528
 5749TIP3    H117190   7.610   2.721   1.543
 5749TIP3    H217191   7.709   2.754   1.434
 5750TIP3   OH217192   5.570   2.154   4.458
 5750TIP3    H117193   5.610   2.071   4.483
 5750TIP3    H217194   5.631   2.220   4.492
 5751TIP3   OH217195   7.892   2.006   4.399
 5751TIP3    H117196   7.807   1.965   4.383
 5751TIP3    H217197   7.914   2.047   4.316
 5752TIP3   OH217198   0.921   1.964   6.422
 5752TIP3    H117199   0.849   2.027   6.429
 5752TIP3    H217200   0.893   1.903   6.354
 5753TIP3   OH217201   4.140   6.318   2.040
 5753TIP3    H117202   4.072   6.348   1.979
 5753TIP3    H217203   4.091   6.274   2.110
 5754TIP3   OH217204   1.100   0.767   1.750
 5754TIP3    H117205   1.188   0.773   1.787
 5754TIP3    H217206   1.114   0.727   1.664
 5755TIP3   OH217207   6.785   0.253   0.940
 5755TIP3    H117208   6.834   0.318   0.890
 5755TIP3    H217209   6.768   0.295   1.024
 5756TIP3   OH217210   2.520   1.420   3.745
 5756TIP3    H117211   2.615   1.424   3.734
 5756TIP3    H217212   2.491   1.353   3.684
 5757TIP3   OH217213   6.303   5.418   1.770
 5757TIP3    H117214   6.247   5.375   1.705
 5757TIP3    H217215   6.345   5.489   1.722
 5758TIP3   OH217216   5.007   6.679   3.227
 5758TIP3    H117217   5.012   6.764   3.184
 5758TIP3    H217218   5.097   6.645   3.222
 5759TIP3   OH217219   6.977   3.410   1.769
 5759TIP3    H117220   6.938   3.392   1.683
 5759TIP3    H217221   6.995   3.323   1.805
 5760TIP3   OH217222   3.649   7.358   0.358
 5760TIP3    H117223   3.557   7.376   0.377
 5760TIP3    H217224   3.683   7.441   0.323
 5761TIP3   OH217225   6.267   6.851   2.259
 5761TIP3    H117226   6.301   6.762   2.258
 5761TIP3    H217227   6.344   6.907   2.265
 5762TIP3   OH217228   3.728   2.782   3.033
 5762TIP3    H117229   3.810   2.814   2.996
 5762TIP3    H217230   3.660   2.833   2.989
 5763TIP3   OH217231   1.634   4.812   2.718
 5763TIP3    H117232   1.665   4.757   2.790
 5763TIP3    H217233   1.596   4.888   2.760
 5764TIP3   OH217234   4.315   3.127   2.969
 5764TIP3    H117235   4.315   3.163   2.881
 5764TIP3    H217236   4.381   3.058   2.968
 5765TIP3   OH217237   4.316   6.582   1.055
 5765TIP3    H117238   4.233   6.552   1.016
 5765TIP3    H217239   4.329   6.670   1.020
 5766TIP3   OH217240   7.395   1.411   2.490
 5766TIP3    H117241   7.375   1.332   2.439
 5766TIP3    H217242   7.315   1.463   2.484
 5767TIP3   OH217243   7.179   6.645   5.655
 5767TIP3    H117244   7.234   6.608   5.587
 5767TIP3    H217245   7.237   6.655   5.730
 5768TIP3   OH217246   2.587   7.144   1.501
 5768TIP3    H117247   2.611   7.056   1.474
 5768TIP3    H217248   2.528   7.131   1.575
 5769TIP3   OH217249   6.171   1.222   6.614
 5769TIP3    H117250   6.130   1.188   6.693
 5769TIP3    H217251   6.189   1.314   6.633
 5770TIP3   OH217252   8.131   1.684   4.847
 5770TIP3    H117253   8.116   1.666   4.940
 5770TIP3    H217254   8.051   1.653   4.804
 5771TIP3   OH217255   1.051   5.752   2.249
 5771TIP3    H117256   1.066   5.846   2.246
 5771TIP3    H217257   0.965   5.740   2.207
 5772TIP3   OH217258   2.007   2.916   5.749
 5772TIP3    H117259   1.923   2.902   5.793
 5772TIP3    H217260   2.032   2.830   5.715
 5773TIP3   OH217261   7.932   2.975   0.208
 5773TIP3    H117262   7.973   2.932   0.283
 5773TIP3    H217263   7.877   2.907   0.170
 5774TIP3   OH217264   4.738   0.638   2.315
 5774TIP3    H117265   4.652   0.669   2.342
 5774TIP3    H217266   4.765   0.698   2.246
 5775TIP3   OH217267   3.487   6.247   5.454
 5775TIP3    H117268   3.526   6.216   5.372
 5775TIP3    H217269   3.545   6.213   5.522
 5776TIP3   OH217270   6.997   6.400   3.212
 5776TIP3    H117271   7.049   6.326   3.244
 5776TIP3    H217272   7.029   6.475   3.262
 5777TIP3   OH217273   4.544   7.069   3.670
 5777TIP3    H117274   4.542   6.976   3.692
 5777TIP3    H217275   4.475   7.080   3.605
 5778TIP3   OH217276   6.874   2.174   6.581
 5778TIP3    H117277   6.823   2.232   6.638
 5778TIP3    H217278   6.831   2.088   6.590
 5779TIP3   OH217279   5.332   0.965   4.026
 5779TIP3    H117280   5.267   0.898   4.044
 5779TIP3    H217281   5.323   1.027   4.098
 5780TIP3   OH217282   4.378   3.036   4.554
 5780TIP3    H117283   4.433   2.958   4.558
 5780TIP3    H217284   4.369   3.055   4.460
 5781TIP3   OH217285   4.975   1.586   1.957
 5781TIP3    H117286   4.918   1.660   1.978
 5781TIP3    H217287   4.983   1.538   2.040
 5782TIP3   OH217288   2.151   0.825   5.696
 5782TIP3    H117289   2.204   0.749   5.721
 5782TIP3    H217290   2.061   0.793   5.699
 5783TIP3   OH217291   0.829   2.820   4.986
 5783TIP3    H117292   0.778   2.797   4.908
 5783TIP3    H217293   0.775   2.886   5.030
 5784TIP3   OH217294   2.705   0.461   0.600
 5784TIP3    H117295   2.634   0.414   0.643
 5784TIP3    H217296   2.667   0.544   0.575
 5785TIP3   OH217297   1.958   1.584   1.989
 5785TIP3    H117298   1.980   1.630   1.908
 5785TIP3    H217299   1.905   1.510   1.960
 5786TIP3   OH217300   7.675   4.643   5.116
 5786TIP3    H117301   7.653   4.637   5.023
 5786TIP3    H217302   7.684   4.552   5.144
 5787TIP3   OH217303   2.026   7.880   5.829
 5787TIP3    H117304   2.095   7.825   5.866
 5787TIP3    H217305   1.944   7.840   5.857
 5788TIP3   OH217306   2.424   3.041   5.578
 5788TIP3    H117307   2.505   3.078   5.544
 5788TIP3    H217308   2.367   3.033   5.502
 5789TIP3   OH217309   7.657   0.390   3.723
 5789TIP3    H117310   7.565   0.414   3.726
 5789TIP3    H217311   7.700   0.447   3.788
 5790TIP3   OH217312   6.490   6.821   2.844
 5790TIP3    H117313   6.456   6.835   2.932
 5790TIP3    H217314   6.477   6.905   2.800
 5791TIP3   OH217315   1.307   5.187   4.800
 5791TIP3    H117316   1.364   5.115   4.774
 5791TIP3    H217317   1.350   5.225   4.877
 5792TIP3   OH217318   1.108   3.161   5.499
 5792TIP3    H117319   1.090   3.234   5.439
 5792TIP3    H217320   1.030   3.153   5.553
 5793TIP3   OH217321   4.268   3.020   0.212
 5793TIP3    H117322   4.201   3.032   0.145
 5793TIP3    H217323   4.225   3.042   0.294
 5794TIP3   OH217324   2.298   2.479   1.888
 5794TIP3    H117325   2.373   2.434   1.928
 5794TIP3    H217326   2.223   2.454   1.942
 5795TIP3   OH217327   5.050   3.642   0.378
 5795TIP3    H117328   5.043   3.585   0.454
 5795TIP3    H217329   5.121   3.703   0.400
 5796TIP3   OH217330   2.695   0.556   4.262
 5796TIP3    H117331   2.771   0.508   4.293
 5796TIP3    H217332   2.620   0.504   4.289
 5797TIP3   OH217333   7.567   0.810   6.768
 5797TIP3    H117334   7.575   0.734   6.710
 5797TIP3    H217335   7.656   0.846   6.773
 5798TIP3   OH217336   4.495   0.155   5.711
 5798TIP3    H117337   4.536   0.208   5.779
 5798TIP3    H217338   4.525   0.194   5.629
 5799TIP3   OH217339   6.566   4.977   5.834
 5799TIP3    H117340   6.539   5.017   5.751
 5799TIP3    H217341   6.582   5.051   5.892
 5800TIP3   OH217342   4.106   6.690   1.971
 5800TIP3    H117343   4.199   6.709   1.980
 5800TIP3    H217344   4.080   6.653   2.055
 5801TIP3   OH217345   2.634   0.385   2.016
 5801TIP3    H117346   2.548   0.344   2.016
 5801TIP3    H217347   2.617   0.477   1.993
 5802TIP3   OH217348   5.269   6.944   0.131
 5802TIP3    H117349   5.307   6.924   0.216
 5802TIP3    H217350   5.190   6.995   0.150
 5803TIP3   OH217351   7.821   5.817   6.731
 5803TIP3    H117352   7.915   5.799   6.739
 5803TIP3    H217353   7.778   5.742   6.773
 5804TIP3   OH217354   5.171   5.109   3.867
 5804TIP3    H117355   5.254   5.063   3.859
 5804TIP3    H217356   5.105   5.040   3.867
 5805TIP3   OH217357   5.455   7.541   3.374
 5805TIP3    H117358   5.478   7.506   3.288
 5805TIP3    H217359   5.372   7.500   3.396
 5806TIP3   OH217360   3.626   7.172   3.771
 5806TIP3    H117361   3.534   7.163   3.792
 5806TIP3    H217362   3.649   7.261   3.800
 5807TIP3   OH217363   3.034   6.834   0.708
 5807TIP3    H117364   3.106   6.888   0.675
 5807TIP3    H217365   2.973   6.828   0.635
 5808TIP3   OH217366   5.995   7.689   0.653
 5808TIP3    H117367   5.927   7.740   0.698
 5808TIP3    H217368   6.057   7.665   0.722
 5809TIP3   OH217369   5.445   5.055   6.078
 5809TIP3    H117370   5.463   5.087   6.167
 5809TIP3    H217371   5.531   5.052   6.035
 5810TIP3   OH217372   3.472   6.722   1.856
 5810TIP3    H117373   3.514   6.796   1.811
 5810TIP3    H217374   3.542   6.656   1.863
 5811TIP3   OH217375   5.569   3.593   6.131
 5811TIP3    H117376   5.582   3.685   6.155
 5811TIP3    H217377   5.528   3.596   6.044
 5812TIP3   OH217378   1.349   2.666   6.579
 5812TIP3    H117379   1.396   2.713   6.511
 5812TIP3    H217380   1.416   2.613   6.622
 5813TIP3   OH217381   2.425   1.992   1.776
 5813TIP3    H117382   2.347   2.048   1.779
 5813TIP3    H217383   2.392   1.904   1.794
 5814TIP3   OH217384   6.226   5.132   3.756
 5814TIP3    H117385   6.228   5.126   3.661
 5814TIP3    H217386   6.272   5.054   3.786
 5815TIP3   OH217387   6.151   3.870   0.767
 5815TIP3    H117388   6.183   3.785   0.737
 5815TIP3    H217389   6.057   3.867   0.750
 5816TIP3   OH217390   6.775   4.095   0.236
 5816TIP3    H117391   6.739   4.080   0.148
 5816TIP3    H217392   6.743   4.182   0.260
 5817TIP3   OH217393   6.406   4.714   4.650
 5817TIP3    H117394   6.345   4.653   4.608
 5817TIP3    H217395   6.355   4.757   4.718
 5818TIP3   OH217396   3.901   4.669   0.792
 5818TIP3    H117397   3.868   4.600   0.849
 5818TIP3    H217398   3.959   4.720   0.847
 5819TIP3   OH217399   2.155   5.241   3.862
 5819TIP3    H117400   2.122   5.268   3.776
 5819TIP3    H217401   2.097   5.286   3.924
 5820TIP3   OH217402   2.964   3.335   0.439
 5820TIP3    H117403   2.923   3.301   0.519
 5820TIP3    H217404   3.036   3.390   0.471
 5821TIP3   OH217405   7.027   1.651   4.916
 5821TIP3    H117406   7.018   1.555   4.916
 5821TIP3    H217407   7.084   1.669   4.841
 5822TIP3   OH217408   0.128   2.187   6.195
 5822TIP3    H117409   0.066   2.231   6.137
 5822TIP3    H217410   0.163   2.256   6.250
 5823TIP3   OH217411   2.685   7.306   1.858
 5823TIP3    H117412   2.748   7.240   1.829
 5823TIP3    H217413   2.737   7.383   1.877
 5824TIP3   OH217414   8.041   4.610   5.040
 5824TIP3    H117415   8.011   4.681   5.097
 5824TIP3    H217416   8.098   4.557   5.095
 5825TIP3   OH217417   4.838   2.713   1.967
 5825TIP3    H117418   4.829   2.660   1.888
 5825TIP3    H217419   4.831   2.803   1.937
 5826TIP3   OH217420   0.579   0.796   2.357
 5826TIP3    H117421   0.601   0.859   2.289
 5826TIP3    H217422   0.608   0.712   2.321
 5827TIP3   OH217423   5.461   2.328   2.092
 5827TIP3    H117424   5.514   2.251   2.068
 5827TIP3    H217425   5.524   2.392   2.122
 5828TIP3   OH217426   2.794   1.636   2.067
 5828TIP3    H117427   2.872   1.581   2.078
 5828TIP3    H217428   2.720   1.577   2.078
 5829TIP3   OH217429   3.160   4.483   4.471
 5829TIP3    H117430   3.206   4.563   4.498
 5829TIP3    H217431   3.068   4.509   4.466
 5830TIP3   OH217432   6.185   5.927   2.206
 5830TIP3    H117433   6.252   5.903   2.269
 5830TIP3    H217434   6.170   5.847   2.156
 5831TIP3   OH217435   5.642   2.042   0.149
 5831TIP3    H117436   5.593   2.112   0.107
 5831TIP3    H217437   5.612   2.043   0.240
 5832TIP3   OH217438   7.928   3.466   5.572
 5832TIP3    H117439   7.980   3.427   5.641
 5832TIP3    H217440   7.862   3.518   5.618
 5833TIP3   OH217441   5.054   5.219   4.224
 5833TIP3    H117442   5.103   5.273   4.286
 5833TIP3    H217443   4.965   5.216   4.260
 5834TIP3   OH217444   7.168   4.698   6.649
 5834TIP3    H117445   7.133   4.727   6.565
 5834TIP3    H217446   7.125   4.756   6.713
 5835TIP3   OH217447   6.493   5.931   3.978
 5835TIP3    H117448   6.412   5.922   4.027
 5835TIP3    H217449   6.557   5.963   4.043
 5836TIP3   OH217450   6.442   6.385   2.551
 5836TIP3    H117451   6.431   6.463   2.605
 5836TIP3    H217452   6.464   6.316   2.614
 5837TIP3   OH217453   2.563   1.152   2.248
 5837TIP3    H117454   2.508   1.168   2.324
 5837TIP3    H217455   2.503   1.119   2.181
 5838TIP3   OH217456   3.021   0.885   3.452
 5838TIP3    H117457   2.975   0.852   3.375
 5838TIP3    H217458   2.956   0.880   3.523
 5839TIP3   OH217459   3.850   5.507   1.606
 5839TIP3    H117460   3.768   5.474   1.570
 5839TIP3    H217461   3.919   5.460   1.558
 5840TIP3   OH217462   6.918   6.167   4.093
 5840TIP3    H117463   6.921   6.180   3.999
 5840TIP3    H217464   6.925   6.255   4.130
 5841TIP3   OH217465   0.108   2.269   3.589
 5841TIP3    H117466   0.070   2.186   3.620
 5841TIP3    H217467   0.199   2.266   3.619
 5842TIP3   OH217468   6.594   7.243   6.379
 5842TIP3    H117469   6.642   7.176   6.428
 5842TIP3    H217470   6.503   7.232   6.405
 5843TIP3   OH217471   1.980   5.688   0.855
 5843TIP3    H117472   2.062   5.665   0.901
 5843TIP3    H217473   1.985   5.641   0.772
 5844TIP3   OH217474   0.373   5.821   1.621
 5844TIP3    H117475   0.369   5.819   1.717
 5844TIP3    H217476   0.361   5.914   1.599
 5845TIP3   OH217477   2.653   6.023   2.955
 5845TIP3    H117478   2.677   6.116   2.952
 5845TIP3    H217479   2.674   5.990   2.868
 5846TIP3   OH217480   0.772   6.051   5.378
 5846TIP3    H117481   0.797   6.011   5.295
 5846TIP3    H217482   0.676   6.057   5.374
 5847TIP3   OH217483   5.526   1.400   2.232
 5847TIP3    H117484   5.607   1.450   2.242
 5847TIP3    H217485   5.473   1.426   2.307
 5848TIP3   OH217486   2.176   5.724   3.331
 5848TIP3    H117487   2.130   5.708   3.413
 5848TIP3    H217488   2.108   5.756   3.271
 5849TIP3   OH217489   2.481   4.029   2.392
 5849TIP3    H117490   2.456   3.937   2.386
 5849TIP3    H217491   2.577   4.029   2.386
 5850TIP3   OH217492   1.393   5.019   6.223
 5850TIP3    H117493   1.320   4.959   6.236
 5850TIP3    H217494   1.470   4.963   6.215
 5851TIP3   OH217495   6.731   4.302   0.635
 5851TIP3    H117496   6.775   4.381   0.602
 5851TIP3    H217497   6.798   4.258   0.688
 5852TIP3   OH217498   2.795   5.540   2.625
 5852TIP3    H117499   2.876   5.540   2.575
 5852TIP3    H217500   2.820   5.516   2.714
 5853TIP3   OH217501   8.161   6.963   2.124
 5853TIP3    H117502   8.171   6.965   2.219
 5853TIP3    H217503   8.184   6.873   2.100
 5854TIP3   OH217504   7.916   5.821   5.406
 5854TIP3    H117505   7.849   5.872   5.360
 5854TIP3    H217506   7.901   5.840   5.499
 5855TIP3   OH217507   4.828   2.058   2.771
 5855TIP3    H117508   4.763   2.018   2.829
 5855TIP3    H217509   4.792   2.145   2.753
 5856TIP3   OH217510   5.544   0.533   2.156
 5856TIP3    H117511   5.574   0.522   2.065
 5856TIP3    H217512   5.469   0.592   2.150
 5857TIP3   OH217513   2.671   4.322   0.029
 5857TIP3    H117514   2.676   4.286  -0.060
 5857TIP3    H217515   2.577   4.324   0.049
 5858TIP3   OH217516   7.562   0.243   3.492
 5858TIP3    H117517   7.586   0.313   3.553
 5858TIP3    H217518   7.558   0.164   3.546
 5859TIP3   OH217519   5.879   7.018   5.924
 5859TIP3    H117520   5.832   7.097   5.901
 5859TIP3    H217521   5.970   7.037   5.902
 5860TIP3   OH217522   5.926   7.642   0.369
 5860TIP3    H117523   5.953   7.630   0.460
 5860TIP3    H217524   5.871   7.566   0.350
 5861TIP3   OH217525   5.831   6.704   3.648
 5861TIP3    H117526   5.912   6.655   3.660
 5861TIP3    H217527   5.779   6.684   3.726
 5862TIP3   OH217528   5.354   0.447   5.713
 5862TIP3    H117529   5.422   0.513   5.729
 5862TIP3    H217530   5.272   0.494   5.725
 5863TIP3   OH217531   4.688   5.712   3.539
 5863TIP3    H117532   4.718   5.652   3.606
 5863TIP3    H217533   4.765   5.763   3.515
 5864TIP3   OH217534   2.231   6.316   1.556
 5864TIP3    H117535   2.227   6.411   1.545
 5864TIP3    H217536   2.289   6.286   1.486
 5865TIP3   OH217537   2.090   4.953   0.373
 5865TIP3    H117538   2.141   4.985   0.298
 5865TIP3    H217539   2.009   5.003   0.370
 5866TIP3   OH217540   7.889   4.148   4.130
 5866TIP3    H117541   7.919   4.126   4.042
 5866TIP3    H217542   7.867   4.064   4.171
 5867TIP3   OH217543   6.933   6.275   1.910
 5867TIP3    H117544   6.869   6.241   1.973
 5867TIP3    H217545   6.996   6.324   1.963
 5868TIP3   OH217546   6.766   7.657   0.501
 5868TIP3    H117547   6.830   7.701   0.445
 5868TIP3    H217548   6.695   7.633   0.442
 5869TIP3   OH217549   1.492   2.820   0.519
 5869TIP3    H117550   1.425   2.751   0.518
 5869TIP3    H217551   1.459   2.887   0.460
 5870TIP3   OH217552   3.840   4.490   6.309
 5870TIP3    H117553   3.820   4.503   6.216
 5870TIP3    H217554   3.858   4.578   6.342
 5871TIP3   OH217555   5.236   3.852   3.954
 5871TIP3    H117556   5.251   3.886   3.866
 5871TIP3    H217557   5.145   3.876   3.974
 5872TIP3   OH217558   7.810   3.194   1.385
 5872TIP3    H117559   7.874   3.125   1.366
 5872TIP3    H217560   7.859   3.275   1.377
 5873TIP3   OH217561   5.682   6.411   1.601
 5873TIP3    H117562   5.588   6.408   1.620
 5873TIP3    H217563   5.707   6.502   1.619
 5874TIP3   OH217564   3.132   7.553   3.411
 5874TIP3    H117565   3.064   7.509   3.463
 5874TIP3    H217566   3.177   7.609   3.474
 5875TIP3   OH217567   2.809   4.021   0.945
 5875TIP3    H117568   2.861   4.009   1.025
 5875TIP3    H217569   2.865   3.989   0.875
 5876TIP3   OH217570   1.512   5.546   5.537
 5876TIP3    H117571   1.524   5.508   5.624
 5876TIP3    H217572   1.494   5.638   5.553
 5877TIP3   OH217573   4.857   1.788   6.199
 5877TIP3    H117574   4.935   1.772   6.146
 5877TIP3    H217575   4.844   1.882   6.195
 5878TIP3   OH217576   1.920   1.761   5.149
 5878TIP3    H117577   1.897   1.817   5.075
 5878TIP3    H217578   1.985   1.812   5.198
 5879TIP3   OH217579   0.498   6.054   5.398
 5879TIP3    H117580   0.450   6.124   5.352
 5879TIP3    H217581   0.478   6.069   5.490
 5880TIP3   OH217582   4.138   0.176   6.693
 5880TIP3    H117583   4.050   0.143   6.708
 5880TIP3    H217584   4.129   0.271   6.696
 5881TIP3   OH217585   4.456   6.997   5.088
 5881TIP3    H117586   4.494   6.909   5.099
 5881TIP3    H217587   4.453   7.033   5.176
 5882TIP3   OH217588   7.917   4.763   1.591
 5882TIP3    H117589   7.908   4.704   1.516
 5882TIP3    H217590   7.963   4.839   1.556
 5883TIP3   OH217591   0.248   2.815   5.398
 5883TIP3    H117592   0.212   2.733   5.433
 5883TIP3    H217593   0.181   2.847   5.337
 5884TIP3   OH217594   1.651   3.842   4.318
 5884TIP3    H117595   1.697   3.811   4.395
 5884TIP3    H217596   1.685   3.788   4.246
 5885TIP3   OH217597   4.534   2.428   2.188
 5885TIP3    H117598   4.497   2.342   2.166
 5885TIP3    H217599   4.570   2.416   2.277
 5886TIP3   OH217600   5.025   7.022   2.254
 5886TIP3    H117601   4.940   7.002   2.293
 5886TIP3    H217602   5.085   6.958   2.292
 5887TIP3   OH217603   5.375   7.350   1.928
 5887TIP3    H117604   5.310   7.395   1.873
 5887TIP3    H217605   5.365   7.258   1.906
 5888TIP3   OH217606   0.604   5.729   2.826
 5888TIP3    H117607   0.612   5.680   2.907
 5888TIP3    H217608   0.670   5.798   2.833
 5889TIP3   OH217609   4.540   7.024   2.663
 5889TIP3    H117610   4.605   7.092   2.684
 5889TIP3    H217611   4.567   6.948   2.714
 5890TIP3   OH217612   2.279   0.369   0.511
 5890TIP3    H117613   2.317   0.456   0.496
 5890TIP3    H217614   2.343   0.325   0.567
 5891TIP3   OH217615  -0.022   4.645   1.965
 5891TIP3    H117616   0.052   4.604   1.920
 5891TIP3    H217617  -0.093   4.582   1.956
 5892TIP3   OH217618   4.826   2.568   1.725
 5892TIP3    H117619   4.893   2.599   1.664
 5892TIP3    H217620   4.824   2.473   1.712
 5893TIP3   OH217621   1.818   6.377  -0.011
 5893TIP3    H117622   1.872   6.433   0.044
 5893TIP3    H217623   1.729   6.388   0.023
 5894TIP3   OH217624   6.426   5.072   5.584
 5894TIP3    H117625   6.342   5.118   5.593
 5894TIP3    H217626   6.428   5.046   5.491
 5895TIP3   OH217627   7.998   7.222   5.843
 5895TIP3    H117628   7.965   7.151   5.899
 5895TIP3    H217629   8.006   7.297   5.902
 5896TIP3   OH217630   2.847   3.548   0.958
 5896TIP3    H117631   2.756   3.532   0.982
 5896TIP3    H217632   2.877   3.465   0.921
 5897TIP3   OH217633   1.135   5.352   6.109
 5897TIP3    H117634   1.205   5.288   6.101
 5897TIP3    H217635   1.099   5.336   6.197
 5898TIP3   OH217636   0.506   2.217   5.304
 5898TIP3    H117637   0.410   2.216   5.307
 5898TIP3    H217638   0.532   2.223   5.396
 5899TIP3   OH217639   7.017   4.263   0.705
 5899TIP3    H117640   7.065   4.346   0.700
 5899TIP3    H217641   7.069   4.203   0.652
 5900TIP3   OH217642   2.607   5.615   3.703
 5900TIP3    H117643   2.684   5.559   3.706
 5900TIP3    H217644   2.633   5.688   3.646
 5901TIP3   OH217645   7.757   4.095   3.766
 5901TIP3    H117646   7.836   4.147   3.779
 5901TIP3    H217647   7.689   4.140   3.815
 5902TIP3   OH217648   4.165   5.275   1.240
 5902TIP3    H117649   4.180   5.256   1.148
 5902TIP3    H217650   4.121   5.197   1.274
 5903TIP3   OH217651   8.189   5.605   4.984
 5903TIP3    H117652   8.173   5.603   4.889
 5903TIP3    H217653   8.112   5.563   5.022
 5904TIP3   OH217654   0.910   0.546   5.643
 5904TIP3    H117655   0.828   0.592   5.662
 5904TIP3    H217656   0.960   0.607   5.589
 5905TIP3   OH217657   4.478   5.188   2.169
 5905TIP3    H117658   4.494   5.187   2.264
 5905TIP3    H217659   4.417   5.261   2.157
 5906TIP3   OH217660   6.906   4.244   3.900
 5906TIP3    H117661   6.893   4.187   3.824
 5906TIP3    H217662   6.845   4.316   3.887
 5907TIP3   OH217663   1.367   6.451   4.364
 5907TIP3    H117664   1.398   6.361   4.365
 5907TIP3    H217665   1.433   6.500   4.315
 5908TIP3   OH217666   4.281   3.978   4.789
 5908TIP3    H117667   4.370   4.011   4.795
 5908TIP3    H217668   4.269   3.925   4.869
 5909TIP3   OH217669   5.097   7.571   3.935
 5909TIP3    H117670   5.132   7.496   3.886
 5909TIP3    H217671   5.071   7.534   4.019
 5910TIP3   OH217672   3.059   3.664   1.899
 5910TIP3    H117673   3.019   3.599   1.957
 5910TIP3    H217674   2.993   3.680   1.832
 5911TIP3   OH217675   2.250   1.989   3.129
 5911TIP3    H117676   2.155   2.002   3.121
 5911TIP3    H217677   2.271   2.021   3.216
 5912TIP3   OH217678   6.142   0.435   3.733
 5912TIP3    H117679   6.090   0.494   3.679
 5912TIP3    H217680   6.211   0.490   3.769
 5913TIP3   OH217681   1.746   1.507   6.118
 5913TIP3    H117682   1.816   1.571   6.113
 5913TIP3    H217683   1.734   1.477   6.027
 5914TIP3   OH217684   6.537   2.265   0.928
 5914TIP3    H117685   6.495   2.186   0.895
 5914TIP3    H217686   6.464   2.319   0.959
 5915TIP3   OH217687   6.002   5.039   6.189
 5915TIP3    H117688   6.064   5.072   6.124
 5915TIP3    H217689   5.949   5.115   6.213
 5916TIP3   OH217690   5.339   6.510   1.465
 5916TIP3    H117691   5.321   6.466   1.382
 5916TIP3    H217692   5.394   6.585   1.442
 5917TIP3   OH217693   2.276   1.221   5.284
 5917TIP3    H117694   2.186   1.221   5.315
 5917TIP3    H217695   2.273   1.173   5.202
 5918TIP3   OH217696   2.486   4.065   3.809
 5918TIP3    H117697   2.572   4.105   3.801
 5918TIP3    H217698   2.502   3.981   3.853
 5919TIP3   OH217699   4.081   6.350   6.106
 5919TIP3    H117700   4.069   6.257   6.126
 5919TIP3    H217701   4.088   6.354   6.011
 5920TIP3   OH217702   6.797   6.367   4.874
 5920TIP3    H117703   6.703   6.387   4.876
 5920TIP3    H217704   6.811   6.308   4.948
 5921TIP3   OH217705   7.381   0.409   1.100
 5921TIP3    H117706   7.417   0.362   1.025
 5921TIP3    H217707   7.286   0.407   1.085
 5922TIP3   OH217708   2.307   4.387   0.643
 5922TIP3    H117709   2.275   4.476   0.633
 5922TIP3    H217710   2.328   4.379   0.736
 5923TIP3   OH217711   1.163   6.288   5.690
 5923TIP3    H117712   1.118   6.368   5.718
 5923TIP3    H217713   1.197   6.251   5.771
 5924TIP3   OH217714   3.546   1.039   4.757
 5924TIP3    H117715   3.481   0.992   4.809
 5924TIP3    H217716   3.565   0.981   4.684
 5925TIP3   OH217717   3.916   2.650   0.195
 5925TIP3    H117718   3.861   2.589   0.146
 5925TIP3    H217719   4.002   2.642   0.155
 5926TIP3   OH217720   5.387   4.714   4.988
 5926TIP3    H117721   5.329   4.649   4.949
 5926TIP3    H217722   5.406   4.775   4.916
 5927TIP3   OH217723   3.709   7.790   1.694
 5927TIP3    H117724   3.656   7.785   1.773
 5927TIP3    H217725   3.787   7.738   1.713
 5928TIP3   OH217726   0.565   6.362   6.620
 5928TIP3    H117727   0.479   6.342   6.582
 5928TIP3    H217728   0.610   6.412   6.552
 5929TIP3   OH217729   6.220   1.307   4.413
 5929TIP3    H117730   6.181   1.230   4.454
 5929TIP3    H217731   6.214   1.290   4.319
 5930TIP3   OH217732   6.181   3.521   3.988
 5930TIP3    H117733   6.215   3.434   3.968
 5930TIP3    H217734   6.098   3.505   4.032
 5931TIP3   OH217735   4.809   7.178   5.913
 5931TIP3    H117736   4.731   7.133   5.946
 5931TIP3    H217737   4.851   7.113   5.856
 5932TIP3   OH217738   4.843   1.853   6.511
 5932TIP3    H117739   4.800   1.852   6.425
 5932TIP3    H217740   4.776   1.822   6.572
 5933TIP3   OH217741   5.183   4.551   0.722
 5933TIP3    H117742   5.121   4.579   0.654
 5933TIP3    H217743   5.165   4.458   0.734
 5934TIP3   OH217744   6.140   5.678   6.278
 5934TIP3    H117745   6.193   5.744   6.323
 5934TIP3    H217746   6.093   5.727   6.211
 5935TIP3   OH217747   7.353   7.059   3.790
 5935TIP3    H117748   7.414   7.132   3.800
 5935TIP3    H217749   7.284   7.094   3.734
 5936TIP3   OH217750   5.894   0.714   0.340
 5936TIP3    H117751   5.840   0.644   0.304
 5936TIP3    H217752   5.893   0.699   0.435
 5937TIP3   OH217753   1.708   6.576   5.295
 5937TIP3    H117754   1.746   6.530   5.369
 5937TIP3    H217755   1.614   6.577   5.312
 5938TIP3   OH217756   0.893   4.515   0.287
 5938TIP3    H117757   0.922   4.432   0.326
 5938TIP3    H217758   0.809   4.495   0.248
 5939TIP3   OH217759   6.962   3.824   3.094
 5939TIP3    H117760   7.037   3.864   3.138
 5939TIP3    H217761   6.996   3.741   3.060
 5940TIP3   OH217762   7.949   0.978   0.728
 5940TIP3    H117763   7.977   1.015   0.644
 5940TIP3    H217764   7.884   0.912   0.705
 5941TIP3   OH217765   3.938   5.766   0.752
 5941TIP3    H117766   3.924   5.733   0.841
 5941TIP3    H217767   4.010   5.829   0.761
 5942TIP3   OH217768   3.929   5.496   4.952
 5942TIP3    H117769   3.972   5.415   4.924
 5942TIP3    H217770   4.000   5.561   4.952
 5943TIP3   OH217771   0.923   1.524   4.631
 5943TIP3    H117772   0.988   1.453   4.623
 5943TIP3    H217773   0.839   1.479   4.625
 5944TIP3   OH217774   7.548   2.362   4.263
 5944TIP3    H117775   7.526   2.379   4.172
 5944TIP3    H217776   7.627   2.307   4.259
 5945TIP3   OH217777   3.056   6.878   3.670
 5945TIP3    H117778   3.139   6.898   3.712
 5945TIP3    H217779   3.009   6.824   3.734
 5946TIP3   OH217780   7.154   7.401   1.522
 5946TIP3    H117781   7.091   7.466   1.553
 5946TIP3    H217782   7.117   7.317   1.551
 5947TIP3   OH217783   5.240   1.952   5.986
 5947TIP3    H117784   5.279   2.030   5.945
 5947TIP3    H217785   5.279   1.949   6.073
 5948TIP3   OH217786   7.231   3.030   5.231
 5948TIP3    H117787   7.142   3.017   5.199
 5948TIP3    H217788   7.221   3.085   5.309
 5949TIP3   OH217789   0.114   3.085   5.970
 5949TIP3    H117790   0.060   3.017   5.931
 5949TIP3    H217791   0.204   3.054   5.957
 5950TIP3   OH217792   7.729   5.847   0.207
 5950TIP3    H117793   7.764   5.855   0.118
 5950TIP3    H217794   7.664   5.777   0.201
 5951TIP3   OH217795   5.140   4.189   2.777
 5951TIP3    H117796   5.205   4.226   2.717
 5951TIP3    H217797   5.150   4.094   2.767
 5952TIP3   OH217798   8.038   4.100   6.833
 5952TIP3    H117799   8.050   4.179   6.780
 5952TIP3    H217800   8.065   4.028   6.777
 5953TIP3   OH217801   7.762   7.611   4.741
 5953TIP3    H117802   7.682   7.608   4.688
 5953TIP3    H217803   7.832   7.596   4.678
 5954TIP3   OH217804   7.420   3.697   3.965
 5954TIP3    H117805   7.338   3.721   4.008
 5954TIP3    H217806   7.473   3.658   4.034
 5955TIP3   OH217807   2.684   5.103   4.322
 5955TIP3    H117808   2.638   5.147   4.393
 5955TIP3    H217809   2.665   5.157   4.245
 5956TIP3   OH217810   6.510   3.234   6.029
 5956TIP3    H117811   6.590   3.246   5.978
 5956TIP3    H217812   6.525   3.286   6.109
 5957TIP3   OH217813   0.872   1.809   3.897
 5957TIP3    H117814   0.958   1.766   3.889
 5957TIP3    H217815   0.866   1.866   3.820
 5958TIP3   OH217816   6.643   3.135   2.029
 5958TIP3    H117817   6.687   3.177   1.955
 5958TIP3    H217818   6.558   3.108   1.994
 5959TIP3   OH217819   7.644   1.393   5.325
 5959TIP3    H117820   7.624   1.366   5.236
 5959TIP3    H217821   7.563   1.379   5.374
 5960TIP3   OH217822   3.954   5.215   0.817
 5960TIP3    H117823   3.938   5.271   0.742
 5960TIP3    H217824   3.930   5.269   0.893
 5961TIP3   OH217825   5.141   1.258   0.581
 5961TIP3    H117826   5.209   1.272   0.647
 5961TIP3    H217827   5.179   1.289   0.500
 5962TIP3   OH217828   6.140   7.750   4.690
 5962TIP3    H117829   6.144   7.799   4.772
 5962TIP3    H217830   6.152   7.659   4.715
 5963TIP3   OH217831   3.217   7.380   1.404
 5963TIP3    H117832   3.236   7.435   1.480
 5963TIP3    H217833   3.234   7.291   1.434
 5964TIP3   OH217834   1.131   5.466   3.368
 5964TIP3    H117835   1.150   5.378   3.400
 5964TIP3    H217836   1.194   5.522   3.414
 5965TIP3   OH217837   5.457   3.931   2.544
 5965TIP3    H117838   5.381   3.876   2.529
 5965TIP3    H217839   5.531   3.871   2.544
 5966TIP3   OH217840   1.444   5.244   5.057
 5966TIP3    H117841   1.394   5.312   5.103
 5966TIP3    H217842   1.533   5.256   5.089
 5967TIP3   OH217843   4.858   1.415   0.602
 5967TIP3    H117844   4.780   1.396   0.550
 5967TIP3    H217845   4.857   1.510   0.614
 5968TIP3   OH217846   1.468   4.457   4.526
 5968TIP3    H117847   1.536   4.465   4.593
 5968TIP3    H217848   1.495   4.518   4.458
 5969TIP3   OH217849   2.297   6.893   3.594
 5969TIP3    H117850   2.391   6.881   3.608
 5969TIP3    H217851   2.291   6.968   3.535
 5970TIP3   OH217852   6.968   2.658   2.300
 5970TIP3    H117853   6.916   2.580   2.316
 5970TIP3    H217854   6.939   2.689   2.214
 5971TIP3   OH217855   4.154   4.238   2.911
 5971TIP3    H117856   4.073   4.286   2.898
 5971TIP3    H217857   4.222   4.298   2.880
 5972TIP3   OH217858   4.172   1.351   3.918
 5972TIP3    H117859   4.135   1.340   3.831
 5972TIP3    H217860   4.098   1.377   3.973
 5973TIP3   OH217861   4.478   7.460   2.476
 5973TIP3    H117862   4.460   7.366   2.470
 5973TIP3    H217863   4.497   7.487   2.386
 5974TIP3   OH217864   1.268   1.311   0.563
 5974TIP3    H117865   1.357   1.281   0.580
 5974TIP3    H217866   1.212   1.243   0.601
 5975TIP3   OH217867   0.524   5.335   5.677
 5975TIP3    H117868   0.446   5.288   5.647
 5975TIP3    H217869   0.502   5.427   5.665
 5976TIP3   OH217870   3.213   6.110   1.152
 5976TIP3    H117871   3.152   6.177   1.181
 5976TIP3    H217872   3.297   6.135   1.192
 5977TIP3   OH217873   7.891   4.158   5.011
 5977TIP3    H117874   7.900   4.111   5.094
 5977TIP3    H217875   7.876   4.249   5.036
 5978TIP3   OH217876   6.764   6.196   4.517
 5978TIP3    H117877   6.815   6.149   4.583
 5978TIP3    H217878   6.695   6.134   4.493
 5979TIP3   OH217879   7.520   5.684   0.144
 5979TIP3    H117880   7.452   5.737   0.102
 5979TIP3    H217881   7.475   5.605   0.172
 5980TIP3   OH217882   1.915   6.234   1.292
 5980TIP3    H117883   1.924   6.170   1.222
 5980TIP3    H217884   1.992   6.291   1.284
 5981TIP3   OH217885   3.047   6.248   3.829
 5981TIP3    H117886   3.113   6.187   3.795
 5981TIP3    H217887   2.972   6.236   3.771
 5982TIP3   OH217888   7.666   0.025   0.885
 5982TIP3    H117889   7.724   0.002   0.958
 5982TIP3    H217890   7.724   0.057   0.817
 5983TIP3   OH217891   0.631   3.819   0.646
 5983TIP3    H117892   0.551   3.835   0.696
 5983TIP3    H217893   0.641   3.723   0.647
 5984TIP3   OH217894   0.325   5.967   2.988
 5984TIP3    H117895   0.308   5.893   2.929
 5984TIP3    H217896   0.254   5.963   3.052
 5985TIP3   OH217897   4.237   5.487   5.192
 5985TIP3    H117898   4.296   5.455   5.124
 5985TIP3    H217899   4.225   5.580   5.172
 5986TIP3   OH217900   1.285   6.288   6.523
 5986TIP3    H117901   1.221   6.241   6.470
 5986TIP3    H217902   1.358   6.228   6.532
 5987TIP3   OH217903   4.590   2.589   0.625
 5987TIP3    H117904   4.608   2.605   0.533
 5987TIP3    H217905   4.630   2.664   0.670
 5988TIP3   OH217906   5.070   3.015   1.443
 5988TIP3    H117907   5.058   3.093   1.389
 5988TIP3    H217908   5.103   3.048   1.526
 5989TIP3   OH217909   4.854   0.274   3.876
 5989TIP3    H117910   4.867   0.197   3.931
 5989TIP3    H217911   4.783   0.250   3.817
 5990TIP3   OH217912   7.168   4.887   3.611
 5990TIP3    H117913   7.118   4.908   3.690
 5990TIP3    H217914   7.210   4.970   3.587
 5991TIP3   OH217915   5.697   5.469   1.931
 5991TIP3    H117916   5.606   5.495   1.924
 5991TIP3    H217917   5.716   5.469   2.025
 5992TIP3   OH217918   1.623   2.310   1.495
 5992TIP3    H117919   1.571   2.384   1.463
 5992TIP3    H217920   1.571   2.233   1.472
 5993TIP3   OH217921   3.111   7.170   3.907
 5993TIP3    H117922   3.041   7.105   3.916
 5993TIP3    H217923   3.077   7.249   3.949
 5994TIP3   OH217924   0.534   4.663   3.126
 5994TIP3    H117925   0.571   4.706   3.049
 5994TIP3    H217926   0.440   4.675   3.117
 5995TIP3   OH217927   0.105   0.668   5.924
 5995TIP3    H117928   0.149   0.739   5.970
 5995TIP3    H217929   0.174   0.606   5.901
 5996TIP3   OH217930   1.119   2.889   5.534
 5996TIP3    H117931   1.029   2.891   5.504
 5996TIP3    H217932   1.147   2.980   5.535
 5997TIP3   OH217933   7.380   5.043   2.259
 5997TIP3    H117934   7.298   5.002   2.234
 5997TIP3    H217935   7.356   5.134   2.280
 5998TIP3   OH217936   8.134   1.405   5.753
 5998TIP3    H117937   8.211   1.376   5.803
 5998TIP3    H217938   8.149   1.498   5.738
 5999TIP3   OH217939   8.149   6.443   2.868
 5999TIP3    H117940   8.153   6.494   2.788
 5999TIP3    H217941   8.179   6.355   2.843
 6000TIP3   OH217942   8.256   7.644   4.390
 6000TIP3    H117943   8.204   7.586   4.334
 6000TIP3    H217944   8.311   7.585   4.441
 6001TIP3   OH217945   4.676   4.475   3.711
 6001TIP3    H117946   4.582   4.490   3.700
 6001TIP3    H217947   4.696   4.511   3.797
 6002TIP3   OH217948   4.093   5.822   1.774
 6002TIP3    H117949   4.158   5.869   1.826
 6002TIP3    H217950   4.119   5.730   1.780
 6003TIP3   OH217951   6.099   4.039   3.702
 6003TIP3    H117952   6.151   3.988   3.640
 6003TIP3    H217953   6.150   4.119   3.715
 6004TIP3   OH217954   0.202   4.982   2.165
 6004TIP3    H117955   0.150   5.006   2.088
 6004TIP3    H217956   0.286   4.953   2.129
 6005TIP3   OH217957   7.209   7.137   0.408
 6005TIP3    H117958   7.196   7.044   0.428
 6005TIP3    H217959   7.122   7.175   0.413
 6006TIP3   OH217960   3.482   0.561   1.544
 6006TIP3    H117961   3.466   0.467   1.550
 6006TIP3    H217962   3.577   0.569   1.544
 6007TIP3   OH217963   1.110   5.701   0.072
 6007TIP3    H117964   1.094   5.628   0.132
 6007TIP3    H217965   1.181   5.750   0.113
 6008TIP3   OH217966   6.833   4.576   6.452
 6008TIP3    H117967   6.752   4.627   6.447
 6008TIP3    H217968   6.902   4.638   6.429
 6009TIP3   OH217969   6.538   7.351   4.640
 6009TIP3    H117970   6.461   7.330   4.586
 6009TIP3    H217971   6.502   7.382   4.723
 6010TIP3   OH217972   0.815   7.154   5.469
 6010TIP3    H117973   0.878   7.092   5.435
 6010TIP3    H217974   0.803   7.218   5.399
 6011TIP3   OH217975   7.118   5.961   6.090
 6011TIP3    H117976   7.189   5.951   6.027
 6011TIP3    H217977   7.122   5.882   6.144
 6012TIP3   OH217978   1.403   5.285   6.350
 6012TIP3    H117979   1.473   5.314   6.408
 6012TIP3    H217980   1.438   5.208   6.307
 6013TIP3   OH217981   7.387   4.507   1.243
 6013TIP3    H117982   7.295   4.528   1.227
 6013TIP3    H217983   7.395   4.414   1.221
 6014TIP3   OH217984   5.039   5.174   0.467
 6014TIP3    H117985   4.974   5.134   0.525
 6014TIP3    H217986   5.121   5.166   0.516
 6015TIP3   OH217987   7.411   7.819   4.632
 6015TIP3    H117988   7.359   7.846   4.708
 6015TIP3    H217989   7.348   7.777   4.574
 6016TIP3   OH217990   2.783   3.637   5.017
 6016TIP3    H117991   2.726   3.671   4.947
 6016TIP3    H217992   2.787   3.543   5.000
 6017TIP3   OH217993   6.346   6.067   2.512
 6017TIP3    H117994   6.434   6.084   2.479
 6017TIP3    H217995   6.355   5.991   2.570
 6018TIP3   OH217996   7.379   5.894   6.026
 6018TIP3    H117997   7.365   5.827   6.093
 6018TIP3    H217998   7.454   5.944   6.057
 6019TIP3   OH217999   3.605   0.361   1.685
 6019TIP3    H118000   3.673   0.345   1.751
 6019TIP3    H218001   3.555   0.280   1.681
 6020TIP3   OH218002   6.567   1.485   4.983
 6020TIP3    H118003   6.530   1.570   4.963
 6020TIP3    H218004   6.613   1.498   5.067
 6021TIP3   OH218005   7.030   3.555   2.726
 6021TIP3    H118006   6.954   3.514   2.684
 6021TIP3    H218007   7.022   3.648   2.705
 6022TIP3   OH218008   2.095   0.087   2.301
 6022TIP3    H118009   2.166   0.146   2.328
 6022TIP3    H218010   2.049   0.067   2.382
 6023TIP3   OH218011   0.211   7.749   2.754
 6023TIP3    H118012   0.289   7.803   2.740
 6023TIP3    H218013   0.140   7.813   2.764
 6024TIP3   OH218014   7.741   7.006   1.493
 6024TIP3    H118015   7.779   6.930   1.537
 6024TIP3    H218016   7.773   7.081   1.543
 6025TIP3   OH218017   0.613   3.950   4.416
 6025TIP3    H118018   0.645   3.997   4.339
 6025TIP3    H218019   0.519   3.968   4.417
 6026TIP3   OH218020   4.863   0.314   5.773
 6026TIP3    H118021   4.900   0.358   5.850
 6026TIP3    H218022   4.844   0.226   5.803
 6027TIP3   OH218023   0.022   7.224   2.221
 6027TIP3    H118024  -0.027   7.179   2.152
 6027TIP3    H218025   0.030   7.314   2.191
 6028TIP3   OH218026   6.224   5.574   4.095
 6028TIP3    H118027   6.299   5.567   4.036
 6028TIP3    H218028   6.148   5.584   4.037
 6029TIP3   OH218029   0.647   6.307   3.550
 6029TIP3    H118030   0.576   6.320   3.613
 6029TIP3    H218031   0.692   6.391   3.548
 6030TIP3   OH218032   7.023   0.200   4.915
 6030TIP3    H118033   6.934   0.199   4.950
 6030TIP3    H218034   7.013   0.202   4.820
 6031TIP3   OH218035   7.442   5.945   3.704
 6031TIP3    H118036   7.348   5.953   3.718
 6031TIP3    H218037   7.475   6.035   3.712
 6032TIP3   OH218038   0.865   6.512   4.500
 6032TIP3    H118039   0.925   6.449   4.459
 6032TIP3    H218040   0.832   6.563   4.426
 6033TIP3   OH218041   3.572   2.260   5.686
 6033TIP3    H118042   3.636   2.244   5.756
 6033TIP3    H218043   3.497   2.206   5.709
 6034TIP3   OH218044   1.369   1.456   5.161
 6034TIP3    H118045   1.387   1.541   5.200
 6034TIP3    H218046   1.274   1.456   5.145
 6035TIP3   OH218047   1.143   7.018   3.541
 6035TIP3    H118048   1.220   6.963   3.551
 6035TIP3    H218049   1.135   7.033   3.447
 6036TIP3   OH218050   3.069   2.749   0.255
 6036TIP3    H118051   3.152   2.713   0.288
 6036TIP3    H218052   3.005   2.680   0.272
 6037TIP3   OH218053   2.328   5.188   4.938
 6037TIP3    H118054   2.356   5.129   5.009
 6037TIP3    H218055   2.286   5.261   4.984
 6038TIP3   OH218056   5.372   0.905   5.068
 6038TIP3    H118057   5.407   0.846   5.134
 6038TIP3    H218058   5.373   0.855   4.987
 6039TIP3   OH218059   5.225   1.167   3.575
 6039TIP3    H118060   5.211   1.082   3.616
 6039TIP3    H218061   5.260   1.146   3.488
 6040TIP3   OH218062   6.109   4.745   1.112
 6040TIP3    H118063   6.056   4.817   1.077
 6040TIP3    H218064   6.084   4.739   1.204
 6041TIP3   OH218065   7.913   6.592   5.636
 6041TIP3    H118066   7.980   6.659   5.649
 6041TIP3    H218067   7.963   6.513   5.614
 6042TIP3   OH218068   8.065   5.101   5.436
 6042TIP3    H118069   8.066   5.171   5.370
 6042TIP3    H218070   8.105   5.026   5.392
 6043TIP3   OH218071   3.162   3.639   6.490
 6043TIP3    H118072   3.112   3.566   6.454
 6043TIP3    H218073   3.123   3.653   6.576
 6044TIP3   OH218074   1.301   4.243   5.560
 6044TIP3    H118075   1.361   4.225   5.632
 6044TIP3    H218076   1.215   4.217   5.593
 6045TIP3   OH218077   5.371   5.252   4.368
 6045TIP3    H118078   5.323   5.321   4.414
 6045TIP3    H218079   5.432   5.300   4.311
 6046TIP3   OH218080   2.365   4.405   6.452
 6046TIP3    H118081   2.379   4.453   6.533
 6046TIP3    H218082   2.397   4.317   6.470
 6047TIP3   OH218083   8.271   2.606   2.483
 6047TIP3    H118084   8.325   2.542   2.436
 6047TIP3    H218085   8.301   2.602   2.573
 6048TIP3   OH218086   0.698   7.255   2.588
 6048TIP3    H118087   0.641   7.180   2.574
 6048TIP3    H218088   0.732   7.276   2.501
 6049TIP3   OH218089   4.369   1.821   3.223
 6049TIP3    H118090   4.419   1.879   3.281
 6049TIP3    H218091   4.322   1.763   3.283
 6050TIP3   OH218092   0.105   7.785   4.101
 6050TIP3    H118093   0.189   7.797   4.057
 6050TIP3    H218094   0.051   7.738   4.038
 6051TIP3   OH218095   2.725   4.689   3.010
 6051TIP3    H118096   2.771   4.700   2.927
 6051TIP3    H218097   2.735   4.596   3.031
 6052TIP3   OH218098   1.625   0.407   2.377
 6052TIP3    H118099   1.543   0.408   2.328
 6052TIP3    H218100   1.609   0.346   2.449
 6053TIP3   OH218101   6.008   2.881   2.172
 6053TIP3    H118102   5.975   2.792   2.165
 6053TIP3    H218103   5.928   2.935   2.182
 6054TIP3   OH218104   5.797   5.788   5.951
 6054TIP3    H118105   5.771   5.780   5.859
 6054TIP3    H218106   5.847   5.709   5.969
 6055TIP3   OH218107   3.920   2.309   5.392
 6055TIP3    H118108   3.982   2.262   5.336
 6055TIP3    H218109   3.924   2.263   5.476
 6056TIP3   OH218110   1.695   2.269   4.407
 6056TIP3    H118111   1.665   2.342   4.353
 6056TIP3    H218112   1.619   2.212   4.416
 6057TIP3   OH218113   2.766   6.242   1.329
 6057TIP3    H118114   2.707   6.195   1.269
 6057TIP3    H218115   2.822   6.173   1.365
 6058TIP3   OH218116   2.359   5.932   3.103
 6058TIP3    H118117   2.304   5.854   3.111
 6058TIP3    H218118   2.298   6.003   3.085
 6059TIP3   OH218119   0.141   5.364   5.491
 6059TIP3    H118120   0.172   5.452   5.471
 6059TIP3    H218121   0.216   5.307   5.475
 6060TIP3   OH218122   2.986   3.628   2.954
 6060TIP3    H118123   3.010   3.537   2.936
 6060TIP3    H218124   2.892   3.626   2.969
 6061TIP3   OH218125  -0.016   4.913   4.411
 6061TIP3    H118126   0.039   4.905   4.489
 6061TIP3    H218127   0.017   4.846   4.351
 6062TIP3   OH218128   1.272   3.112   1.026
 6062TIP3    H118129   1.306   3.025   1.008
 6062TIP3    H218130   1.324   3.144   1.100
 6063TIP3   OH218131   0.417   0.928   1.287
 6063TIP3    H118132   0.492   0.871   1.301
 6063TIP3    H218133   0.404   0.973   1.370
 6064TIP3   OH218134   7.849   4.411   3.267
 6064TIP3    H118135   7.922   4.470   3.253
 6064TIP3    H218136   7.879   4.352   3.337
 6065TIP3   OH218137   0.680   0.626   5.068
 6065TIP3    H118138   0.670   0.706   5.119
 6065TIP3    H218139   0.671   0.555   5.131
 6066TIP3   OH218140   7.835   5.510   4.555
 6066TIP3    H118141   7.878   5.424   4.552
 6066TIP3    H218142   7.891   5.566   4.501
 6067TIP3   OH218143   0.883   2.515   3.498
 6067TIP3    H118144   0.798   2.497   3.539
 6067TIP3    H218145   0.947   2.480   3.559
 6068TIP3   OH218146   6.471   6.714   2.462
 6068TIP3    H118147   6.515   6.630   2.478
 6068TIP3    H218148   6.389   6.691   2.419
 6069TIP3   OH218149   5.825   3.345   0.275
 6069TIP3    H118150   5.882   3.366   0.349
 6069TIP3    H218151   5.740   3.326   0.315
 6070TIP3   OH218152   7.402   5.186   4.657
 6070TIP3    H118153   7.425   5.251   4.590
 6070TIP3    H218154   7.482   5.135   4.669
 6071TIP3   OH218155   4.003   3.316   4.450
 6071TIP3    H118156   3.978   3.408   4.448
 6071TIP3    H218157   3.988   3.285   4.361
 6072TIP3   OH218158   1.902   7.499   6.109
 6072TIP3    H118159   1.968   7.545   6.162
 6072TIP3    H218160   1.947   7.423   6.074
 6073TIP3   OH218161   7.846   5.154   2.185
 6073TIP3    H118162   7.886   5.237   2.210
 6073TIP3    H218163   7.763   5.152   2.233
 6074TIP3   OH218164   0.305   3.382   5.956
 6074TIP3    H118165   0.337   3.300   5.919
 6074TIP3    H218166   0.370   3.447   5.931
 6075TIP3   OH218167   3.448   0.836   3.992
 6075TIP3    H118168   3.433   0.921   4.032
 6075TIP3    H218169   3.396   0.838   3.911
 6076TIP3   OH218170   2.993   5.448   0.543
 6076TIP3    H118171   2.943   5.496   0.476
 6076TIP3    H218172   3.085   5.470   0.525
 6077TIP3   OH218173   2.578   0.777   1.263
 6077TIP3    H118174   2.569   0.715   1.191
 6077TIP3    H218175   2.516   0.747   1.329
 6078TIP3   OH218176   7.150   1.422   3.169
 6078TIP3    H118177   7.090   1.400   3.098
 6078TIP3    H218178   7.126   1.363   3.240
 6079TIP3   OH218179   4.606   7.573   0.404
 6079TIP3    H118180   4.653   7.573   0.320
 6079TIP3    H218181   4.636   7.493   0.447
 6080TIP3   OH218182   4.049   4.899   2.777
 6080TIP3    H118183   4.133   4.853   2.782
 6080TIP3    H218184   4.063   4.965   2.709
 6081TIP3   OH218185   6.127   7.005   5.684
 6081TIP3    H118186   6.191   7.070   5.655
 6081TIP3    H218187   6.063   7.002   5.613
 6082TIP3   OH218188   6.896   0.933   5.152
 6082TIP3    H118189   6.874   0.919   5.244
 6082TIP3    H218190   6.824   0.893   5.103
 6083TIP3   OH218191   0.253   0.594   5.506
 6083TIP3    H118192   0.239   0.569   5.598
 6083TIP3    H218193   0.250   0.511   5.458
 6084TIP3   OH218194   5.350   5.170   6.631
 6084TIP3    H118195   5.269   5.214   6.659
 6084TIP3    H218196   5.416   5.239   6.633
 6085TIP3   OH218197   5.375   0.186   3.755
 6085TIP3    H118198   5.347   0.241   3.682
 6085TIP3    H218199   5.400   0.248   3.824
 6086TIP3   OH218200   5.753   1.393   1.900
 6086TIP3    H118201   5.752   1.324   1.967
 6086TIP3    H218202   5.781   1.471   1.947
 6087TIP3   OH218203   2.598   4.429   4.444
 6087TIP3    H118204   2.640   4.437   4.358
 6087TIP3    H218205   2.649   4.487   4.500
 6088TIP3   OH218206   5.467   0.254   1.572
 6088TIP3    H118207   5.503   0.222   1.489
 6088TIP3    H218208   5.530   0.225   1.638
 6089TIP3   OH218209   2.490   4.840   3.730
 6089TIP3    H118210   2.461   4.798   3.811
 6089TIP3    H218211   2.433   4.917   3.721
 6090TIP3   OH218212   2.092   3.019   6.359
 6090TIP3    H118213   2.095   3.057   6.271
 6090TIP3    H218214   2.019   2.957   6.356
 6091TIP3   OH218215   1.430   1.837   4.633
 6091TIP3    H118216   1.396   1.926   4.626
 6091TIP3    H218217   1.373   1.785   4.576
 6092TIP3   OH218218   3.657   0.259   6.623
 6092TIP3    H118219   3.586   0.281   6.562
 6092TIP3    H218220   3.620   0.275   6.710
 6093TIP3   OH218221   6.811   5.407   4.164
 6093TIP3    H118222   6.843   5.465   4.094
 6093TIP3    H218223   6.788   5.466   4.236
 6094TIP3   OH218224   5.033   3.649   3.578
 6094TIP3    H118225   4.983   3.648   3.496
 6094TIP3    H218226   5.060   3.740   3.588
 6095TIP3   OH218227   5.055   1.786   1.249
 6095TIP3    H118228   5.092   1.874   1.253
 6095TIP3    H218229   5.020   1.778   1.160
 6096TIP3   OH218230   2.911   4.576   0.161
 6096TIP3    H118231   2.897   4.484   0.182
 6096TIP3    H218232   2.873   4.624   0.235
 6097TIP3   OH218233   2.386   3.032   0.356
 6097TIP3    H118234   2.312   2.977   0.331
 6097TIP3    H218235   2.458   3.004   0.299
 6098TIP3   OH218236   4.384   2.006   0.156
 6098TIP3    H118237   4.398   1.992   0.250
 6098TIP3    H218238   4.294   2.039   0.149
 6099TIP3   OH218239   6.082   0.697   6.040
 6099TIP3    H118240   6.076   0.735   5.953
 6099TIP3    H218241   5.991   0.678   6.064
 6100TIP3   OH218242   7.713   4.312   0.749
 6100TIP3    H118243   7.733   4.332   0.657
 6100TIP3    H218244   7.721   4.217   0.754
 6101TIP3   OH218245   0.369   2.732   4.616
 6101TIP3    H118246   0.363   2.686   4.700
 6101TIP3    H218247   0.418   2.812   4.636
 6102TIP3   OH218248   5.744   2.073   6.480
 6102TIP3    H118249   5.708   2.147   6.529
 6102TIP3    H218250   5.799   2.112   6.413
 6103TIP3   OH218251   2.595   4.216   1.005
 6103TIP3    H118252   2.650   4.139   1.019
 6103TIP3    H218253   2.624   4.278   1.071
 6104TIP3   OH218254   8.121   1.838   2.964
 6104TIP3    H118255   8.132   1.861   3.057
 6104TIP3    H218256   8.185   1.894   2.919
 6105TIP3   OH218257   2.387   3.383   6.688
 6105TIP3    H118258   2.328   3.457   6.701
 6105TIP3    H218259   2.471   3.423   6.664
 6106TIP3   OH218260   7.254   3.829   0.447
 6106TIP3    H118261   7.182   3.851   0.388
 6106TIP3    H218262   7.267   3.735   0.435
 6107TIP3   OH218263   8.031   0.474   0.584
 6107TIP3    H118264   8.045   0.385   0.550
 6107TIP3    H218265   7.936   0.482   0.591
 6108TIP3   OH218266   6.801   2.091   5.199
 6108TIP3    H118267   6.802   2.075   5.104
 6108TIP3    H218268   6.854   2.170   5.211
 6109TIP3   OH218269   1.853   6.614   4.267
 6109TIP3    H118270   1.876   6.704   4.291
 6109TIP3    H218271   1.917   6.590   4.200
 6110TIP3   OH218272   4.970   0.823   4.314
 6110TIP3    H118273   5.041   0.858   4.368
 6110TIP3    H218274   4.950   0.738   4.352
 6111TIP3   OH218275   1.170   0.035   4.885
 6111TIP3    H118276   1.096  -0.008   4.842
 6111TIP3    H218277   1.148   0.032   4.979
 6112TIP3   OH218278   1.197   5.685   3.552
 6112TIP3    H118279   1.211   5.774   3.519
 6112TIP3    H218280   1.271   5.669   3.611
 6113TIP3   OH218281   4.508   7.143   3.936
 6113TIP3    H118282   4.506   7.159   3.842
 6113TIP3    H218283   4.431   7.189   3.969
 6114TIP3   OH218284   0.896   6.197   4.496
 6114TIP3    H118285   0.984   6.231   4.510
 6114TIP3    H218286   0.888   6.125   4.558
 6115TIP3   OH218287   1.580   7.687   5.011
 6115TIP3    H118288   1.518   7.737   4.958
 6115TIP3    H218289   1.580   7.730   5.096
 6116TIP3   OH218290   0.143   3.532   3.879
 6116TIP3    H118291   0.181   3.466   3.938
 6116TIP3    H218292   0.205   3.538   3.806
 6117TIP3   OH218293   7.044   6.836   3.302
 6117TIP3    H118294   7.025   6.927   3.278
 6117TIP3    H218295   7.096   6.802   3.230
 6118TIP3   OH218296   8.087   3.789   0.991
 6118TIP3    H118297   8.108   3.798   0.898
 6118TIP3    H218298   7.994   3.764   0.992
 6119TIP3   OH218299   2.414   6.716   6.137
 6119TIP3    H118300   2.324   6.744   6.155
 6119TIP3    H218301   2.404   6.627   6.103
 6120TIP3   OH218302   6.722   0.641   6.498
 6120TIP3    H118303   6.685   0.565   6.543
 6120TIP3    H218304   6.716   0.712   6.562
 6121TIP3   OH218305   6.404   0.660   3.074
 6121TIP3    H118306   6.449   0.604   3.138
 6121TIP3    H218307   6.362   0.727   3.127
 6122TIP3   OH218308   7.913   1.271   1.892
 6122TIP3    H118309   7.850   1.316   1.837
 6122TIP3    H218310   7.861   1.208   1.942
 6123TIP3   OH218311   0.326   4.585   6.344
 6123TIP3    H118312   0.272   4.625   6.413
 6123TIP3    H218313   0.384   4.656   6.315
 6124TIP3   OH218314   4.022   1.796   5.776
 6124TIP3    H118315   4.066   1.864   5.724
 6124TIP3    H218316   4.080   1.720   5.769
 6125TIP3   OH218317   6.638   0.165   2.404
 6125TIP3    H118318   6.618   0.080   2.364
 6125TIP3    H218319   6.732   0.162   2.421
 6126TIP3   OH218320   5.222   6.474   6.742
 6126TIP3    H118321   5.180   6.534   6.803
 6126TIP3    H218322   5.190   6.387   6.768
 6127TIP3   OH218323   4.032   5.379   0.091
 6127TIP3    H118324   4.125   5.361   0.076
 6127TIP3    H218325   4.027   5.474   0.099
 6128TIP3   OH218326   5.395   4.809   5.921
 6128TIP3    H118327   5.439   4.799   5.836
 6128TIP3    H218328   5.459   4.855   5.975
 6129TIP3   OH218329   6.813   0.668   4.946
 6129TIP3    H118330   6.857   0.601   4.895
 6129TIP3    H218331   6.746   0.621   4.996
 6130TIP3   OH218332   4.936   0.657   1.582
 6130TIP3    H118333   4.894   0.684   1.664
 6130TIP3    H218334   5.014   0.713   1.576
 6131TIP3   OH218335   4.287   6.907   4.827
 6131TIP3    H118336   4.306   6.814   4.843
 6131TIP3    H218337   4.293   6.948   4.913
 6132TIP3   OH218338   3.551   3.487   0.175
 6132TIP3    H118339   3.487   3.488   0.246
 6132TIP3    H218340   3.586   3.397   0.175
 6133TIP3   OH218341   3.861   1.692   2.356
 6133TIP3    H118342   3.875   1.736   2.272
 6133TIP3    H218343   3.875   1.761   2.422
 6134TIP3   OH218344   7.876   7.293   1.287
 6134TIP3    H118345   7.821   7.308   1.365
 6134TIP3    H218346   7.883   7.198   1.282
 6135TIP3   OH218347   5.401   2.493   5.799
 6135TIP3    H118348   5.428   2.438   5.725
 6135TIP3    H218349   5.306   2.504   5.787
 6136TIP3   OH218350   0.673   5.342   1.679
 6136TIP3    H118351   0.595   5.386   1.711
 6136TIP3    H218352   0.744   5.406   1.692
 6137TIP3   OH218353   3.589   1.052   2.854
 6137TIP3    H118354   3.591   0.984   2.787
 6137TIP3    H218355   3.570   1.006   2.935
 6138TIP3   OH218356   3.607   2.755   0.755
 6138TIP3    H118357   3.653   2.674   0.734
 6138TIP3    H218358   3.668   2.805   0.809
 6139TIP3   OH218359   0.390   0.111   6.163
 6139TIP3    H118360   0.422   0.175   6.226
 6139TIP3    H218361   0.458   0.107   6.096
 6140TIP3   OH218362   7.645   0.681   4.198
 6140TIP3    H118363   7.612   0.653   4.283
 6140TIP3    H218364   7.718   0.739   4.219
 6141TIP3   OH218365   4.352   4.318   2.026
 6141TIP3    H118366   4.395   4.301   2.110
 6141TIP3    H218367   4.275   4.261   2.026
 6142TIP3   OH218368   2.553   5.344   5.465
 6142TIP3    H118369   2.556   5.305   5.378
 6142TIP3    H218370   2.476   5.305   5.506
 6143TIP3   OH218371   7.277   6.321   0.200
 6143TIP3    H118372   7.218   6.281   0.136
 6143TIP3    H218373   7.293   6.252   0.264
 6144TIP3   OH218374   5.790   5.453   6.531
 6144TIP3    H118375   5.851   5.412   6.470
 6144TIP3    H218376   5.789   5.394   6.607
 6145TIP3   OH218377   0.168   4.303   4.827
 6145TIP3    H118378   0.103   4.233   4.828
 6145TIP3    H218379   0.149   4.351   4.746
 6146TIP3   OH218380   6.879   6.618   2.304
 6146TIP3    H118381   6.848   6.685   2.242
 6146TIP3    H218382   6.925   6.555   2.249
 6147TIP3   OH218383   4.012   3.403   1.375
 6147TIP3    H118384   4.097   3.360   1.369
 6147TIP3    H218385   3.999   3.418   1.469
 6148TIP3   OH218386   4.895   7.709   6.239
 6148TIP3    H118387   4.854   7.745   6.160
 6148TIP3    H218388   4.985   7.742   6.235
 6149TIP3   OH218389   6.181   1.718   1.062
 6149TIP3    H118390   6.239   1.662   1.011
 6149TIP3    H218391   6.231   1.739   1.141
 6150TIP3   OH218392   3.274   7.004   0.741
 6150TIP3    H118393   3.351   7.029   0.690
 6150TIP3    H218394   3.309   6.956   0.815
 6151TIP3   OH218395   3.124   7.151   0.195
 6151TIP3    H118396   3.211   7.191   0.198
 6151TIP3    H218397   3.064   7.225   0.194
 6152TIP3   OH218398   3.797   7.547   6.060
 6152TIP3    H118399   3.781   7.590   5.976
 6152TIP3    H218400   3.808   7.618   6.122
 6153TIP3   OH218401   5.391   4.832   2.331
 6153TIP3    H118402   5.307   4.826   2.285
 6153TIP3    H218403   5.369   4.869   2.416
 6154TIP3   OH218404   6.923   2.988   4.155
 6154TIP3    H118405   6.921   3.030   4.241
 6154TIP3    H218406   6.851   3.029   4.107
 6155TIP3   OH218407   1.299   0.438   6.209
 6155TIP3    H118408   1.376   0.455   6.155
 6155TIP3    H218409   1.301   0.507   6.276
 6156TIP3   OH218410   8.050   4.065   5.932
 6156TIP3    H118411   8.000   4.003   5.984
 6156TIP3    H218412   8.141   4.051   5.959
 6157TIP3   OH218413   1.708   2.603   6.223
 6157TIP3    H118414   1.621   2.631   6.193
 6157TIP3    H218415   1.703   2.507   6.223
 6158TIP3   OH218416   2.551   1.000   3.705
 6158TIP3    H118417   2.539   0.925   3.646
 6158TIP3    H218418   2.536   1.076   3.649
 6159TIP3   OH218419   0.029   2.350   3.006
 6159TIP3    H118420   0.070   2.265   3.024
 6159TIP3    H218421   0.099   2.402   2.967
 6160TIP3   OH218422   2.846   2.053   6.793
 6160TIP3    H118423   2.756   2.042   6.763
 6160TIP3    H218424   2.854   2.147   6.811
 6161TIP3   OH218425   7.343   0.156   0.026
 6161TIP3    H118426   7.281   0.193   0.089
 6161TIP3    H218427   7.319   0.064   0.020
 6162TIP3   OH218428   7.644   5.761   4.281
 6162TIP3    H118429   7.714   5.710   4.240
 6162TIP3    H218430   7.672   5.852   4.271
 6163TIP3   OH218431   0.795   3.092   1.349
 6163TIP3    H118432   0.724   3.041   1.311
 6163TIP3    H218433   0.756   3.136   1.424
 6164TIP3   OH218434   4.288   7.835   3.036
 6164TIP3    H118435   4.253   7.770   2.976
 6164TIP3    H218436   4.211   7.868   3.083
 6165TIP3   OH218437   4.425   1.278   3.576
 6165TIP3    H118438   4.366   1.330   3.630
 6165TIP3    H218439   4.483   1.342   3.536
 6166TIP3   OH218440   5.600   0.620   0.421
 6166TIP3    H118441   5.606   0.665   0.505
 6166TIP3    H218442   5.588   0.690   0.357
 6167TIP3   OH218443   3.209   0.127   6.301
 6167TIP3    H118444   3.293   0.087   6.277
 6167TIP3    H218445   3.163   0.138   6.219
 6168TIP3   OH218446   7.852   3.644   3.466
 6168TIP3    H118447   7.912   3.611   3.533
 6168TIP3    H218448   7.902   3.639   3.384
 6169TIP3   OH218449   4.668   2.090   4.154
 6169TIP3    H118450   4.716   2.041   4.087
 6169TIP3    H218451   4.607   2.027   4.191
 6170TIP3   OH218452   0.602   0.880   3.996
 6170TIP3    H118453   0.680   0.841   4.036
 6170TIP3    H218454   0.597   0.838   3.909
 6171TIP3   OH218455   5.134   4.367   5.422
 6171TIP3    H118456   5.207   4.429   5.415
 6171TIP3    H218457   5.163   4.291   5.373
 6172TIP3   OH218458   4.001   2.599   1.319
 6172TIP3    H118459   3.964   2.511   1.323
 6172TIP3    H218460   4.079   2.590   1.265
 6173TIP3   OH218461   7.343   1.552   2.796
 6173TIP3    H118462   7.369   1.463   2.774
 6173TIP3    H218463   7.327   1.549   2.891
 6174TIP3   OH218464   4.018   7.456   3.752
 6174TIP3    H118465   3.923   7.462   3.755
 6174TIP3    H218466   4.046   7.538   3.712
 6175TIP3   OH218467   2.186   1.356   5.555
 6175TIP3    H118468   2.245   1.373   5.482
 6175TIP3    H218469   2.223   1.407   5.628
 6176TIP3   OH218470   6.097   2.677   5.466
 6176TIP3    H118471   6.006   2.693   5.442
 6176TIP3    H218472   6.148   2.715   5.395
 6177TIP3   OH218473   6.041   7.284   0.455
 6177TIP3    H118474   6.103   7.227   0.410
 6177TIP3    H218475   6.090   7.316   0.531
 6178TIP3   OH218476   3.180   3.504   5.054
 6178TIP3    H118477   3.110   3.531   5.113
 6178TIP3    H218478   3.247   3.466   5.111
 6179TIP3   OH218479   6.553   2.676   1.394
 6179TIP3    H118480   6.522   2.630   1.316
 6179TIP3    H218481   6.483   2.737   1.416
 6180TIP3   OH218482   5.502   2.720   2.029
 6180TIP3    H118483   5.481   2.814   2.036
 6180TIP3    H218484   5.509   2.704   1.935
 6181TIP3   OH218485   4.224   4.976   6.395
 6181TIP3    H118486   4.226   5.017   6.308
 6181TIP3    H218487   4.164   4.903   6.385
 6182TIP3   OH218488   0.160   3.582   0.543
 6182TIP3    H118489   0.177   3.643   0.471
 6182TIP3    H218490   0.082   3.534   0.515
 6183TIP3   OH218491   2.982   2.747   1.399
 6183TIP3    H118492   2.945   2.736   1.486
 6183TIP3    H218493   2.960   2.666   1.353
 6184TIP3   OH218494   1.456   2.176   3.972
 6184TIP3    H118495   1.482   2.096   4.016
 6184TIP3    H218496   1.494   2.246   4.024
 6185TIP3   OH218497   7.208   2.561   5.332
 6185TIP3    H118498   7.219   2.528   5.421
 6185TIP3    H218499   7.288   2.535   5.287
 6186TIP3   OH218500   2.009   3.977   2.787
 6186TIP3    H118501   2.026   4.062   2.746
 6186TIP3    H218502   2.094   3.934   2.791
 6187TIP3   OH218503   5.784   0.997   5.253
 6187TIP3    H118504   5.823   1.047   5.325
 6187TIP3    H218505   5.856   0.982   5.192
 6188TIP3   OH218506   0.729   1.815   0.632
 6188TIP3    H118507   0.647   1.820   0.681
 6188TIP3    H218508   0.782   1.752   0.682
 6189TIP3   OH218509   2.956   3.595   6.059
 6189TIP3    H118510   2.954   3.649   6.137
 6189TIP3    H218511   2.993   3.651   5.991
 6190TIP3   OH218512   5.843   2.173   4.296
 6190TIP3    H118513   5.771   2.184   4.234
 6190TIP3    H218514   5.840   2.081   4.321
 6191TIP3   OH218515   1.093   6.432   0.943
 6191TIP3    H118516   1.165   6.404   0.886
 6191TIP3    H218517   1.043   6.493   0.889
 6192TIP3   OH218518   1.835   0.618   1.225
 6192TIP3    H118519   1.884   0.642   1.146
 6192TIP3    H218520   1.745   0.607   1.195
 6193TIP3   OH218521   7.847   4.099   5.404
 6193TIP3    H118522   7.763   4.134   5.431
 6193TIP3    H218523   7.905   4.114   5.479
 6194TIP3   OH218524   7.365   7.633   1.157
 6194TIP3    H118525   7.367   7.685   1.237
 6194TIP3    H218526   7.381   7.697   1.087
 6195TIP3   OH218527   1.504   2.763   6.113
 6195TIP3    H118528   1.421   2.809   6.125
 6195TIP3    H218529   1.492   2.712   6.032
 6196TIP3   OH218530   1.636   5.886   0.007
 6196TIP3    H118531   1.694   5.826   0.053
 6196TIP3    H218532   1.563   5.831  -0.022
 6197TIP3   OH218533   2.092   5.889   3.774
 6197TIP3    H118534   2.090   5.799   3.804
 6197TIP3    H218535   2.163   5.892   3.709
 6198TIP3   OH218536   6.049   3.420   3.501
 6198TIP3    H118537   6.018   3.365   3.429
 6198TIP3    H218538   6.006   3.504   3.487
 6199TIP3   OH218539   7.936   7.523   6.471
 6199TIP3    H118540   7.867   7.590   6.465
 6199TIP3    H218541   7.925   7.486   6.558
 6200TIP3   OH218542   1.099   4.415   1.963
 6200TIP3    H118543   1.093   4.502   1.924
 6200TIP3    H218544   1.015   4.374   1.943
 6201TIP3   OH218545   5.734   0.302   3.567
 6201TIP3    H118546   5.672   0.366   3.601
 6201TIP3    H218547   5.705   0.286   3.477
 6202TIP3   OH218548   2.664   6.348   0.427
 6202TIP3    H118549   2.732   6.308   0.373
 6202TIP3    H218550   2.582   6.309   0.396
 6203TIP3   OH218551   4.715   5.892   5.470
 6203TIP3    H118552   4.729   5.960   5.535
 6203TIP3    H218553   4.667   5.824   5.517
 6204TIP3   OH218554   0.580   7.747   5.677
 6204TIP3    H118555   0.662   7.714   5.713
 6204TIP3    H218556   0.602   7.777   5.589
 6205TIP3   OH218557   3.389   6.527   2.603
 6205TIP3    H118558   3.450   6.599   2.586
 6205TIP3    H218559   3.394   6.472   2.525
 6206TIP3   OH218560   2.015   3.948   6.240
 6206TIP3    H118561   2.077   4.010   6.201
 6206TIP3    H218562   1.941   4.003   6.266
 6207TIP3   OH218563   0.245   7.443   3.811
 6207TIP3    H118564   0.157   7.407   3.822
 6207TIP3    H218565   0.298   7.400   3.878
 6208TIP3   OH218566   6.768   5.970   4.800
 6208TIP3    H118567   6.835   5.960   4.732
 6208TIP3    H218568   6.767   5.886   4.846
 6209TIP3   OH218569   5.886   3.543   4.817
 6209TIP3    H118570   5.890   3.560   4.723
 6209TIP3    H218571   5.919   3.453   4.826
 6210TIP3   OH218572   1.291   2.990   2.770
 6210TIP3    H118573   1.330   3.078   2.773
 6210TIP3    H218574   1.197   3.006   2.761
 6211TIP3   OH218575   3.638   6.119   4.304
 6211TIP3    H118576   3.567   6.181   4.289
 6211TIP3    H218577   3.646   6.071   4.221
 6212TIP3   OH218578   2.984   7.715   6.018
 6212TIP3    H118579   3.077   7.703   5.998
 6212TIP3    H218580   2.984   7.773   6.094
 6213TIP3   OH218581   3.078   0.156   1.065
 6213TIP3    H118582   3.136   0.170   0.990
 6213TIP3    H218583   3.119   0.086   1.115
 6214TIP3   OH218584   5.735   3.087   4.519
 6214TIP3    H118585   5.682   3.033   4.462
 6214TIP3    H218586   5.741   3.038   4.601
 6215TIP3   OH218587   2.416   1.392   0.741
 6215TIP3    H118588   2.484   1.325   0.752
 6215TIP3    H218589   2.351   1.370   0.808
 6216TIP3   OH218590   4.321   7.775   4.321
 6216TIP3    H118591   4.363   7.860   4.329
 6216TIP3    H218592   4.260   7.784   4.248
 6217TIP3   OH218593   0.315   3.684   6.128
 6217TIP3    H118594   0.235   3.658   6.173
 6217TIP3    H218595   0.375   3.710   6.198
 6218TIP3   OH218596   4.611   5.594   0.180
 6218TIP3    H118597   4.635   5.534   0.251
 6218TIP3    H218598   4.589   5.676   0.225
 6219TIP3   OH218599   0.125   2.434   2.319
 6219TIP3    H118600   0.106   2.341   2.308
 6219TIP3    H218601   0.108   2.473   2.233
 6220TIP3   OH218602   4.661   3.361   1.822
 6220TIP3    H118603   4.621   3.448   1.827
 6220TIP3    H218604   4.620   3.312   1.893
 6221TIP3   OH218605   7.078   4.096   1.981
 6221TIP3    H118606   7.018   4.051   1.920
 6221TIP3    H218607   7.138   4.027   2.010
 6222TIP3   OH218608   7.207   0.087   5.065
 6222TIP3    H118609   7.241   0.173   5.087
 6222TIP3    H218610   7.129   0.105   5.012
 6223TIP3   OH218611   4.763   3.016   1.278
 6223TIP3    H118612   4.712   2.972   1.346
 6223TIP3    H218613   4.831   3.063   1.325
 6224TIP3   OH218614   1.516   3.535   6.570
 6224TIP3    H118615   1.521   3.505   6.660
 6224TIP3    H218616   1.454   3.607   6.571
 6225TIP3   OH218617   6.168   4.122   5.012
 6225TIP3    H118618   6.218   4.162   4.941
 6225TIP3    H218619   6.233   4.077   5.065
 6226TIP3   OH218620   3.159   1.787   0.439
 6226TIP3    H118621   3.238   1.839   0.434
 6226TIP3    H218622   3.179   1.717   0.502
 6227TIP3   OH218623   4.509   3.274   2.047
 6227TIP3    H118624   4.426   3.237   2.017
 6227TIP3    H218625   4.542   3.210   2.110
 6228TIP3   OH218626   1.762   4.041   6.366
 6228TIP3    H118627   1.829   4.052   6.434
 6228TIP3    H218628   1.713   3.963   6.394
 6229TIP3   OH218629   5.660   2.228   2.706
 6229TIP3    H118630   5.588   2.264   2.758
 6229TIP3    H218631   5.688   2.300   2.650
 6230TIP3   OH218632   3.694   6.423   0.326
 6230TIP3    H118633   3.628   6.370   0.281
 6230TIP3    H218634   3.704   6.501   0.272
 6231TIP3   OH218635   2.805   4.712   1.674
 6231TIP3    H118636   2.800   4.760   1.591
 6231TIP3    H218637   2.718   4.676   1.687
 6232TIP3   OH218638   6.646   2.309   2.569
 6232TIP3    H118639   6.599   2.359   2.636
 6232TIP3    H218640   6.734   2.299   2.603
 6233TIP3   OH218641   2.435   0.694   6.064
 6233TIP3    H118642   2.500   0.627   6.046
 6233TIP3    H218643   2.486   0.775   6.075
 6234TIP3   OH218644   8.219   1.449   1.583
 6234TIP3    H118645   8.152   1.382   1.570
 6234TIP3    H218646   8.250   1.469   1.495
 6235TIP3   OH218647   2.460   4.587   6.257
 6235TIP3    H118648   2.547   4.615   6.286
 6235TIP3    H218649   2.419   4.550   6.335
 6236TIP3   OH218650   0.728   1.286   5.867
 6236TIP3    H118651   0.707   1.336   5.787
 6236TIP3    H218652   0.738   1.353   5.935
 6237TIP3   OH218653   7.214   2.796   0.367
 6237TIP3    H118654   7.185   2.756   0.285
 6237TIP3    H218655   7.268   2.729   0.408
 6238TIP3   OH218656   3.727  -0.038   6.317
 6238TIP3    H118657   3.819  -0.030   6.343
 6238TIP3    H218658   3.682  -0.060   6.399
 6239TIP3   OH218659   5.818   0.310   1.965
 6239TIP3    H118660   5.788   0.383   1.912
 6239TIP3    H218661   5.743   0.290   2.022
 6240TIP3   OH218662   0.616   2.880   6.031
 6240TIP3    H118663   0.682   2.942   6.061
 6240TIP3    H218664   0.561   2.865   6.108
 6241TIP3   OH218665   1.319   1.385   6.036
 6241TIP3    H118666   1.256   1.453   6.058
 6241TIP3    H218667   1.366   1.369   6.118
 6242TIP3   OH218668   0.230   6.526   4.673
 6242TIP3    H118669   0.226   6.479   4.756
 6242TIP3    H218670   0.186   6.609   4.690
 6243TIP3   OH218671   5.880   4.528   0.172
 6243TIP3    H118672   5.907   4.619   0.182
 6243TIP3    H218673   5.788   4.533   0.148
 6244TIP3   OH218674   3.195   3.922   1.890
 6244TIP3    H118675   3.152   3.838   1.904
 6244TIP3    H218676   3.288   3.902   1.891
 6245TIP3   OH218677   7.791   4.425   2.672
 6245TIP3    H118678   7.850   4.499   2.684
 6245TIP3    H218679   7.720   4.459   2.617
 6246TIP3   OH218680   5.963   5.065   4.213
 6246TIP3    H118681   6.035   5.128   4.220
 6246TIP3    H218682   5.961   5.042   4.120
 6247TIP3   OH218683   6.408   0.142   3.846
 6247TIP3    H118684   6.313   0.138   3.858
 6247TIP3    H218685   6.440   0.188   3.923
 6248TIP3   OH218686   2.839   0.162   1.977
 6248TIP3    H118687   2.771   0.226   2.001
 6248TIP3    H218688   2.909   0.214   1.939
 6249TIP3   OH218689   1.649   7.789   0.329
 6249TIP3    H118690   1.588   7.720   0.356
 6249TIP3    H218691   1.608   7.870   0.359
 6250TIP3   OH218692   1.886   7.063   2.190
 6250TIP3    H118693   1.967   7.072   2.139
 6250TIP3    H218694   1.823   7.120   2.145
 6251TIP3   OH218695   2.932   6.999   3.044
 6251TIP3    H118696   2.888   6.967   2.965
 6251TIP3    H218697   2.871   6.980   3.115
 6252TIP3   OH218698   2.521   2.961   2.006
 6252TIP3    H118699   2.488   2.980   2.094
 6252TIP3    H218700   2.506   3.042   1.957
 6253TIP3   OH218701   0.777   3.982   0.853
 6253TIP3    H118702   0.748   3.944   0.770
 6253TIP3    H218703   0.835   4.053   0.828
 6254TIP3   OH218704   0.571   4.135   2.358
 6254TIP3    H118705   0.494   4.082   2.336
 6254TIP3    H218706   0.576   4.131   2.453
 6255TIP3   OH218707   5.653   4.805   6.621
 6255TIP3    H118708   5.617   4.888   6.652
 6255TIP3    H218709   5.704   4.829   6.543
 6256TIP3   OH218710   1.719   3.139   6.669
 6256TIP3    H118711   1.775   3.186   6.731
 6256TIP3    H218712   1.649   3.102   6.723
 6257TIP3   OH218713   2.260   2.759   3.501
 6257TIP3    H118714   2.255   2.813   3.422
 6257TIP3    H218715   2.184   2.701   3.495
 6258TIP3   OH218716   2.581   4.619   4.213
 6258TIP3    H118717   2.552   4.610   4.303
 6258TIP3    H218718   2.565   4.711   4.191
 6259TIP3   OH218719   6.465   0.989   3.071
 6259TIP3    H118720   6.526   1.041   3.125
 6259TIP3    H218721   6.405   0.949   3.135
 6260TIP3   OH218722   5.744   1.664   5.705
 6260TIP3    H118723   5.804   1.646   5.633
 6260TIP3    H218724   5.670   1.606   5.691
 6261TIP3   OH218725   4.170   3.711   5.885
 6261TIP3    H118726   4.173   3.644   5.817
 6261TIP3    H218727   4.091   3.691   5.935
 6262TIP3   OH218728   6.703   5.693   2.287
 6262TIP3    H118729   6.725   5.642   2.210
 6262TIP3    H218730   6.708   5.784   2.257
 6263TIP3   OH218731   0.764   7.128   1.989
 6263TIP3    H118732   0.799   7.204   2.035
 6263TIP3    H218733   0.756   7.061   2.057
 6264TIP3   OH218734   2.730   3.152   1.432
 6264TIP3    H118735   2.757   3.154   1.524
 6264TIP3    H218736   2.794   3.094   1.389
 6265TIP3   OH218737   1.693   5.282   6.430
 6265TIP3    H118738   1.659   5.339   6.361
 6265TIP3    H218739   1.760   5.334   6.473
 6266TIP3   OH218740   2.680   2.580   1.853
 6266TIP3    H118741   2.661   2.664   1.896
 6266TIP3    H218742   2.770   2.561   1.877
 6267TIP3   OH218743   5.140   5.555   3.512
 6267TIP3    H118744   5.167   5.643   3.538
 6267TIP3    H218745   5.081   5.526   3.582
 6268TIP3   OH218746   4.566   5.774   2.996
 6268TIP3    H118747   4.636   5.747   2.937
 6268TIP3    H218748   4.611   5.803   3.075
 6269TIP3   OH218749   1.200   4.595   5.764
 6269TIP3    H118750   1.290   4.627   5.773
 6269TIP3    H218751   1.195   4.559   5.675
 6270TIP3   OH218752   3.442   6.618   5.749
 6270TIP3    H118753   3.468   6.645   5.661
 6270TIP3    H218754   3.441   6.699   5.800
 6271TIP3   OH218755   1.876   0.284   0.403
 6271TIP3    H118756   1.866   0.323   0.490
 6271TIP3    H218757   1.813   0.211   0.402
 6272TIP3   OH218758   6.819   1.707   4.692
 6272TIP3    H118759   6.819   1.803   4.688
 6272TIP3    H218760   6.836   1.687   4.784
 6273TIP3   OH218761   7.373   2.700   4.928
 6273TIP3    H118762   7.315   2.654   4.868
 6273TIP3    H218763   7.315   2.739   4.993
 6274TIP3   OH218764   7.386   1.260   3.893
 6274TIP3    H118765   7.367   1.312   3.971
 6274TIP3    H218766   7.481   1.247   3.895
 6275TIP3   OH218767   1.829   6.914   5.346
 6275TIP3    H118768   1.906   6.954   5.386
 6275TIP3    H218769   1.865   6.846   5.288
 6276TIP3   OH218770   0.006   5.965   4.744
 6276TIP3    H118771  -0.089   5.979   4.744
 6276TIP3    H218772   0.029   5.956   4.836
 6277TIP3   OH218773   0.052   4.953   2.629
 6277TIP3    H118774   0.012   4.879   2.675
 6277TIP3    H218775   0.081   4.916   2.546
 6278TIP3   OH218776   0.083   5.351   0.601
 6278TIP3    H118777   0.090   5.262   0.565
 6278TIP3    H218778   0.076   5.338   0.695
 6279TIP3   OH218779   3.392   3.808   3.871
 6279TIP3    H118780   3.451   3.783   3.800
 6279TIP3    H218781   3.448   3.810   3.949
 6280TIP3   OH218782   4.218   3.979   5.306
 6280TIP3    H118783   4.199   4.068   5.335
 6280TIP3    H218784   4.300   3.986   5.257
 6281TIP3   OH218785   1.073   4.779   5.465
 6281TIP3    H118786   1.082   4.785   5.560
 6281TIP3    H218787   1.101   4.690   5.444
 6282TIP3   OH218788   5.576   6.682   5.216
 6282TIP3    H118789   5.649   6.621   5.202
 6282TIP3    H218790   5.602   6.761   5.168
 6283TIP3   OH218791   2.776   5.960   6.422
 6283TIP3    H118792   2.762   5.929   6.333
 6283TIP3    H218793   2.712   6.031   6.434
 6284TIP3   OH218794   4.581   2.451   1.916
 6284TIP3    H118795   4.669   2.470   1.884
 6284TIP3    H218796   4.575   2.499   1.999
 6285TIP3   OH218797   0.555   6.976   6.009
 6285TIP3    H118798   0.637   6.984   6.058
 6285TIP3    H218799   0.561   7.040   5.939
 6286TIP3   OH218800   1.897   0.826   6.590
 6286TIP3    H118801   1.894   0.885   6.514
 6286TIP3    H218802   1.919   0.741   6.553
 6287TIP3   OH218803   7.860   1.588   3.146
 6287TIP3    H118804   7.836   1.575   3.055
 6287TIP3    H218805   7.804   1.660   3.176
 6288TIP3   OH218806   7.995   3.000   1.327
 6288TIP3    H118807   8.064   3.061   1.301
 6288TIP3    H218808   8.041   2.917   1.343
 6289TIP3   OH218809   4.265   4.191   0.861
 6289TIP3    H118810   4.205   4.182   0.786
 6289TIP3    H218811   4.207   4.209   0.935
 6290TIP3   OH218812   0.669   2.392   5.821
 6290TIP3    H118813   0.669   2.314   5.765
 6290TIP3    H218814   0.759   2.400   5.851
 6291TIP3   OH218815   3.409   1.449   3.300
 6291TIP3    H118816   3.481   1.425   3.359
 6291TIP3    H218817   3.391   1.368   3.251
 6292TIP3   OH218818   4.506   1.513   4.028
 6292TIP3    H118819   4.532   1.545   3.941
 6292TIP3    H218820   4.491   1.419   4.015
 6293TIP3   OH218821   2.138   2.569   2.144
 6293TIP3    H118822   2.139   2.649   2.092
 6293TIP3    H218823   2.046   2.545   2.150
 6294TIP3   OH218824   6.481   4.624   0.889
 6294TIP3    H118825   6.478   4.528   0.895
 6294TIP3    H218826   6.389   4.649   0.880
 6295TIP3   OH218827   1.596   2.808   3.978
 6295TIP3    H118828   1.500   2.806   3.977
 6295TIP3    H218829   1.621   2.809   3.886
 6296TIP3   OH218830   6.141   6.215   2.803
 6296TIP3    H118831   6.093   6.209   2.721
 6296TIP3    H218832   6.151   6.125   2.832
 6297TIP3   OH218833   0.609   6.665   5.740
 6297TIP3    H118834   0.631   6.753   5.708
 6297TIP3    H218835   0.521   6.649   5.708
 6298TIP3   OH218836   2.429   1.704   1.130
 6298TIP3    H118837   2.503   1.704   1.070
 6298TIP3    H218838   2.467   1.726   1.215
 6299TIP3   OH218839   2.057   5.274   5.467
 6299TIP3    H118840   2.044   5.186   5.432
 6299TIP3    H218841   2.034   5.267   5.559
 6300TIP3   OH218842   0.805   6.193   0.586
 6300TIP3    H118843   0.753   6.200   0.506
 6300TIP3    H218844   0.848   6.278   0.595
 6301TIP3   OH218845   0.302   2.019   3.538
 6301TIP3    H118846   0.309   2.091   3.600
 6301TIP3    H218847   0.208   2.006   3.525
 6302TIP3   OH218848   4.608   4.813   0.855
 6302TIP3    H118849   4.671   4.800   0.925
 6302TIP3    H218850   4.630   4.745   0.791
 6303TIP3   OH218851   3.106   7.043   1.811
 6303TIP3    H118852   3.162   7.093   1.871
 6303TIP3    H218853   3.127   6.951   1.829
 6304TIP3   OH218854   5.498   5.508   4.485
 6304TIP3    H118855   5.520   5.432   4.430
 6304TIP3    H218856   5.483   5.579   4.424
 6305TIP3   OH218857   1.645   6.012   4.864
 6305TIP3    H118858   1.643   6.108   4.859
 6305TIP3    H218859   1.702   5.994   4.939
 6306TIP3   OH218860   0.913   4.349   3.420
 6306TIP3    H118861   1.001   4.344   3.383
 6306TIP3    H218862   0.908   4.436   3.459
 6307TIP3   OH218863   4.731   1.743   2.778
 6307TIP3    H118864   4.653   1.688   2.778
 6307TIP3    H218865   4.703   1.824   2.822
 6308TIP3   OH218866   0.080   3.210   3.255
 6308TIP3    H118867   0.046   3.161   3.329
 6308TIP3    H218868   0.166   3.170   3.237
 6309TIP3   OH218869   5.125   0.541   2.157
 6309TIP3    H118870   5.185   0.541   2.232
 6309TIP3    H218871   5.090   0.630   2.155
 6310TIP3   OH218872   0.297   0.577   4.658
 6310TIP3    H118873   0.321   0.551   4.569
 6310TIP3    H218874   0.307   0.672   4.659
 6311TIP3   OH218875   4.350   6.052   1.441
 6311TIP3    H118876   4.341   5.957   1.445
 6311TIP3    H218877   4.387   6.069   1.355
 6312TIP3   OH218878   3.466   2.117   1.553
 6312TIP3    H118879   3.392   2.069   1.518
 6312TIP3    H218880   3.518   2.140   1.476
 6313TIP3   OH218881   2.842   4.849   4.733
 6313TIP3    H118882   2.802   4.898   4.661
 6313TIP3    H218883   2.838   4.909   4.808
 6314TIP3   OH218884   5.161   0.643   0.432
 6314TIP3    H118885   5.186   0.572   0.373
 6314TIP3    H218886   5.208   0.624   0.514
 6315TIP3   OH218887   2.142   2.460   6.040
 6315TIP3    H118888   2.052   2.427   6.048
 6315TIP3    H218889   2.193   2.383   6.014
 6316TIP3   OH218890   3.321   0.883   3.103
 6316TIP3    H118891   3.289   0.945   3.038
 6316TIP3    H218892   3.266   0.805   3.093
 6317TIP3   OH218893   3.509   6.891   5.335
 6317TIP3    H118894   3.471   6.960   5.389
 6317TIP3    H218895   3.596   6.923   5.311
 6318TIP3   OH218896   5.126   3.576   0.768
 6318TIP3    H118897   5.056   3.511   0.762
 6318TIP3    H218898   5.087   3.648   0.817
 6319TIP3   OH218899   5.837   1.530   4.702
 6319TIP3    H118900   5.791   1.452   4.669
 6319TIP3    H218901   5.797   1.603   4.655
 6320TIP3   OH218902   5.011   7.590   2.720
 6320TIP3    H118903   5.090   7.605   2.668
 6320TIP3    H218904   5.044   7.569   2.807
 6321TIP3   OH218905   7.044   4.476   5.348
 6321TIP3    H118906   7.026   4.454   5.257
 6321TIP3    H218907   7.033   4.571   5.352
 6322TIP3   OH218908   3.032   2.428   1.692
 6322TIP3    H118909   3.086   2.469   1.624
 6322TIP3    H218910   3.067   2.339   1.700
 6323TIP3   OH218911   4.090   7.313   3.129
 6323TIP3    H118912   4.134   7.300   3.045
 6323TIP3    H218913   4.003   7.275   3.117
 6324TIP3   OH218914   3.745   6.496   6.652
 6324TIP3    H118915   3.731   6.451   6.735
 6324TIP3    H218916   3.829   6.541   6.663
 6325TIP3   OH218917   0.290   5.129   2.397
 6325TIP3    H118918   0.273   5.103   2.307
 6325TIP3    H218919   0.294   5.225   2.394
 6326TIP3   OH218920   7.154   7.108   5.101
 6326TIP3    H118921   7.168   7.040   5.167
 6326TIP3    H218922   7.065   7.093   5.070
 6327TIP3   OH218923   7.165   5.676   4.712
 6327TIP3    H118924   7.140   5.611   4.777
 6327TIP3    H218925   7.190   5.753   4.763
 6328TIP3   OH218926   5.955   2.201   1.013
 6328TIP3    H118927   6.037   2.204   1.064
 6328TIP3    H218928   5.972   2.137   0.945
 6329TIP3   OH218929   2.474   1.190   3.517
 6329TIP3    H118930   2.392   1.225   3.483
 6329TIP3    H218931   2.515   1.147   3.442
 6330TIP3   OH218932   4.896   7.122   0.519
 6330TIP3    H118933   4.904   7.062   0.593
 6330TIP3    H218934   4.977   7.111   0.470
 6331TIP3   OH218935   5.953   2.984   5.171
 6331TIP3    H118936   5.988   2.983   5.082
 6331TIP3    H218937   5.875   3.040   5.166
 6332TIP3   OH218938   2.732   2.339   1.688
 6332TIP3    H118939   2.808   2.329   1.631
 6332TIP3    H218940   2.728   2.433   1.708
 6333TIP3   OH218941   1.231   1.071   3.153
 6333TIP3    H118942   1.195   1.117   3.229
 6333TIP3    H218943   1.232   0.979   3.179
 6334TIP3   OH218944   3.169   7.467   5.081
 6334TIP3    H118945   3.088   7.424   5.053
 6334TIP3    H218946   3.170   7.459   5.176
 6335TIP3   OH218947   2.670   5.436   1.457
 6335TIP3    H118948   2.686   5.365   1.519
 6335TIP3    H218949   2.743   5.430   1.395
 6336TIP3   OH218950   2.418   3.804   0.760
 6336TIP3    H118951   2.474   3.877   0.734
 6336TIP3    H218952   2.350   3.844   0.814
 6337TIP3   OH218953   6.847   0.208   2.148
 6337TIP3    H118954   6.814   0.149   2.216
 6337TIP3    H218955   6.915   0.158   2.104
 6338TIP3   OH218956   4.585   7.405   4.132
 6338TIP3    H118957   4.567   7.440   4.045
 6338TIP3    H218958   4.513   7.345   4.150
 6339TIP3   OH218959   6.780   1.991   2.478
 6339TIP3    H118960   6.810   1.954   2.561
 6339TIP3    H218961   6.798   1.924   2.413
 6340TIP3   OH218962   8.123   2.002   6.304
 6340TIP3    H118963   8.096   2.091   6.327
 6340TIP3    H218964   8.072   1.981   6.226
 6341TIP3   OH218965   5.888   2.092   5.248
 6341TIP3    H118966   5.818   2.158   5.248
 6341TIP3    H218967   5.851   2.019   5.199
 6342TIP3   OH218968   3.789   7.462   1.711
 6342TIP3    H118969   3.752   7.441   1.625
 6342TIP3    H218970   3.874   7.501   1.691
 6343TIP3   OH218971   6.541  -0.057   0.539
 6343TIP3    H118972   6.560   0.037   0.531
 6343TIP3    H218973   6.493  -0.079   0.458
 6344TIP3   OH218974   3.434   6.313   4.282
 6344TIP3    H118975   3.441   6.382   4.215
 6344TIP3    H218976   3.345   6.278   4.270
 6345TIP3   OH218977   0.402   1.243   5.529
 6345TIP3    H118978   0.487   1.226   5.569
 6345TIP3    H218979   0.409   1.208   5.440
 6346TIP3   OH218980   0.888   1.266   3.133
 6346TIP3    H118981   0.824   1.239   3.199
 6346TIP3    H218982   0.851   1.345   3.094
 6347TIP3   OH218983   4.627   7.780   0.956
 6347TIP3    H118984   4.639   7.780   1.051
 6347TIP3    H218985   4.713   7.803   0.921
 6348TIP3   OH218986   7.539   6.236   1.300
 6348TIP3    H118987   7.523   6.179   1.375
 6348TIP3    H218988   7.471   6.212   1.237
 6349TIP3   OH218989   3.559   4.286   2.985
 6349TIP3    H118990   3.496   4.290   2.913
 6349TIP3    H218991   3.582   4.194   2.993
 6350TIP3   OH218992   4.772   3.694   5.872
 6350TIP3    H118993   4.847   3.733   5.917
 6350TIP3    H218994   4.759   3.610   5.916
 6351TIP3   OH218995   8.208   6.164   5.717
 6351TIP3    H118996   8.279   6.189   5.775
 6351TIP3    H218997   8.131   6.158   5.773
 6352TIP3   OH218998   6.853   0.486   3.382
 6352TIP3    H118999   6.920   0.437   3.333
 6352TIP3    H219000   6.795   0.418   3.416
 6353TIP3   OH219001   1.908   1.936   4.587
 6353TIP3    H119002   1.835   1.876   4.598
 6353TIP3    H219003   1.982   1.880   4.562
 6354TIP3   OH219004   2.038   4.939   1.297
 6354TIP3    H119005   2.124   4.923   1.257
 6354TIP3    H219006   1.977   4.938   1.223
 6355TIP3   OH219007   4.885   6.775   6.511
 6355TIP3    H119008   4.917   6.805   6.596
 6355TIP3    H219009   4.796   6.744   6.529
 6356TIP3   OH219010   0.967   3.651   5.956
 6356TIP3    H119011   0.879   3.642   5.992
 6356TIP3    H219012   0.972   3.741   5.926
 6357TIP3   OH219013   4.483   3.366   0.610
 6357TIP3    H119014   4.426   3.437   0.640
 6357TIP3    H219015   4.489   3.306   0.685
 6358TIP3   OH219016   3.939   5.757   2.425
 6358TIP3    H119017   3.887   5.819   2.477
 6358TIP3    H219018   3.899   5.759   2.338
 6359TIP3   OH219019   7.720   3.749   1.768
 6359TIP3    H119020   7.729   3.727   1.676
 6359TIP3    H219021   7.714   3.844   1.770
 6360TIP3   OH219022   0.526   1.547   0.961
 6360TIP3    H119023   0.530   1.623   1.019
 6360TIP3    H219024   0.616   1.536   0.930
 6361TIP3   OH219025   6.293   2.262   6.023
 6361TIP3    H119026   6.205   2.255   6.061
 6361TIP3    H219027   6.351   2.268   6.098
 6362TIP3   OH219028   3.269   4.691   3.844
 6362TIP3    H119029   3.323   4.655   3.914
 6362TIP3    H219030   3.255   4.783   3.868
 6363TIP3   OH219031   6.031   4.007   2.664
 6363TIP3    H119032   6.114   4.009   2.712
 6363TIP3    H219033   6.006   3.915   2.664
 6364TIP3   OH219034   3.803   3.643   3.015
 6364TIP3    H119035   3.742   3.611   2.948
 6364TIP3    H219036   3.812   3.570   3.076
 6365TIP3   OH219037   7.358   4.255   1.486
 6365TIP3    H119038   7.437   4.244   1.432
 6365TIP3    H219039   7.317   4.168   1.486
 6366TIP3   OH219040   5.944   7.029   0.821
 6366TIP3    H119041   5.873   7.067   0.872
 6366TIP3    H219042   5.927   7.055   0.731
 6367TIP3   OH219043   2.509   7.183   3.685
 6367TIP3    H119044   2.426   7.207   3.644
 6367TIP3    H219045   2.570   7.172   3.612
 6368TIP3   OH219046   7.123   6.415   2.802
 6368TIP3    H119047   7.115   6.486   2.739
 6368TIP3    H219048   7.213   6.422   2.835
 6369TIP3   OH219049   3.641   4.210   6.282
 6369TIP3    H119050   3.640   4.205   6.186
 6369TIP3    H219051   3.557   4.251   6.304
 6370TIP3   OH219052   5.899   4.258   0.241
 6370TIP3    H119053   5.807   4.238   0.258
 6370TIP3    H219054   5.904   4.353   0.248
 6371TIP3   OH219055   6.073   1.266   1.588
 6371TIP3    H119056   5.987   1.224   1.589
 6371TIP3    H219057   6.094   1.277   1.496
 6372TIP3   OH219058   3.067   1.141   1.250
 6372TIP3    H119059   2.983   1.121   1.292
 6372TIP3    H219060   3.127   1.075   1.284
 6373TIP3   OH219061   7.131   4.581   3.073
 6373TIP3    H119062   7.108   4.495   3.108
 6373TIP3    H219063   7.096   4.579   2.984
 6374TIP3   OH219064   7.155   4.057   4.522
 6374TIP3    H119065   7.159   3.963   4.539
 6374TIP3    H219066   7.187   4.097   4.602
 6375TIP3   OH219067   2.101   7.188   0.969
 6375TIP3    H119068   2.045   7.187   0.891
 6375TIP3    H219069   2.066   7.259   1.023
 6376TIP3   OH219070   3.954   6.797   5.293
 6376TIP3    H119071   4.029   6.788   5.352
 6376TIP3    H219072   3.884   6.749   5.336
 6377TIP3   OH219073   6.539   1.271   4.143
 6377TIP3    H119074   6.618   1.308   4.181
 6377TIP3    H219075   6.497   1.225   4.216
 6378TIP3   OH219076   7.668   1.119   0.852
 6378TIP3    H119077   7.687   1.173   0.776
 6378TIP3    H219078   7.753   1.082   0.877
 6379TIP3   OH219079   4.756   5.374   1.596
 6379TIP3    H119080   4.708   5.353   1.676
 6379TIP3    H219081   4.838   5.324   1.603
 6380TIP3   OH219082   5.735   1.132   2.592
 6380TIP3    H119083   5.806   1.193   2.611
 6380TIP3    H219084   5.739   1.067   2.661
 6381TIP3   OH219085   3.763   1.618   4.738
 6381TIP3    H119086   3.804   1.533   4.721
 6381TIP3    H219087   3.669   1.600   4.734
 6382TIP3   OH219088   7.466   6.012   5.783
 6382TIP3    H119089   7.477   6.105   5.803
 6382TIP3    H219090   7.428   5.975   5.863
 6383TIP3   OH219091   5.788   2.458   2.586
 6383TIP3    H119092   5.879   2.429   2.582
 6383TIP3    H219093   5.789   2.533   2.646
 6384TIP3   OH219094   1.708   7.717   1.726
 6384TIP3    H119095   1.788   7.690   1.681
 6384TIP3    H219096   1.651   7.750   1.657
 6385TIP3   OH219097   0.254   4.932   6.165
 6385TIP3    H119098   0.261   5.014   6.116
 6385TIP3    H219099   0.312   4.872   6.119
 6386TIP3   OH219100   3.374   7.752   1.226
 6386TIP3    H119101   3.437   7.694   1.270
 6386TIP3    H219102   3.421   7.784   1.149
 6387TIP3   OH219103   7.583   1.732   4.410
 6387TIP3    H119104   7.596   1.804   4.348
 6387TIP3    H219105   7.638   1.661   4.376
 6388TIP3   OH219106   2.906   3.807   0.805
 6388TIP3    H119107   2.821   3.800   0.761
 6388TIP3    H219108   2.925   3.718   0.833
 6389TIP3   OH219109   1.074   5.759   5.948
 6389TIP3    H119110   0.986   5.777   5.981
 6389TIP3    H219111   1.129   5.829   5.984
 6390TIP3   OH219112   1.103   3.517   1.787
 6390TIP3    H119113   1.178   3.482   1.834
 6390TIP3    H219114   1.056   3.439   1.755
 6391TIP3   OH219115   4.872   4.907   6.186
 6391TIP3    H119116   4.909   4.982   6.233
 6391TIP3    H219117   4.948   4.853   6.164
 6392TIP3   OH219118   6.767   1.278   5.573
 6392TIP3    H119119   6.852   1.272   5.529
 6392TIP3    H219120   6.787   1.304   5.663
 6393TIP3   OH219121   1.788   1.735   6.477
 6393TIP3    H119122   1.734   1.767   6.549
 6393TIP3    H219123   1.868   1.788   6.481
 6394TIP3   OH219124   8.216   4.554   1.403
 6394TIP3    H119125   8.142   4.527   1.457
 6394TIP3    H219126   8.195   4.522   1.315
 6395TIP3   OH219127   3.316   4.945   5.224
 6395TIP3    H119128   3.244   4.972   5.281
 6395TIP3    H219129   3.394   4.984   5.263
 6396TIP3   OH219130   0.691   5.822   2.293
 6396TIP3    H119131   0.682   5.891   2.226
 6396TIP3    H219132   0.685   5.869   2.376
 6397TIP3   OH219133   2.675   1.914   0.680
 6397TIP3    H119134   2.747   1.897   0.620
 6397TIP3    H219135   2.605   1.948   0.625
 6398TIP3   OH219136   2.641   1.191   1.728
 6398TIP3    H119137   2.662   1.169   1.819
 6398TIP3    H219138   2.692   1.128   1.677
 6399TIP3   OH219139   0.506   0.419   2.281
 6399TIP3    H119140   0.515   0.492   2.220
 6399TIP3    H219141   0.504   0.460   2.368
 6400TIP3   OH219142   5.011   5.300   1.675
 6400TIP3    H119143   5.030   5.364   1.744
 6400TIP3    H219144   5.039   5.217   1.712
 6401TIP3   OH219145   7.571   4.149   6.673
 6401TIP3    H119146   7.504   4.211   6.646
 6401TIP3    H219147   7.647   4.169   6.619
 6402TIP3   OH219148   5.661   2.656   6.299
 6402TIP3    H119149   5.679   2.566   6.326
 6402TIP3    H219150   5.685   2.659   6.207
 6403TIP3   OH219151   1.546   5.269   3.809
 6403TIP3    H119152   1.491   5.344   3.786
 6403TIP3    H219153   1.635   5.301   3.803
 6404TIP3   OH219154   8.217   1.105   6.635
 6404TIP3    H119155   8.224   1.087   6.541
 6404TIP3    H219156   8.123   1.096   6.654
 6405TIP3   OH219157   1.835   2.867   3.556
 6405TIP3    H119158   1.781   2.855   3.634
 6405TIP3    H219159   1.865   2.958   3.563
 6406TIP3   OH219160   2.797   6.138   6.061
 6406TIP3    H119161   2.753   6.121   5.978
 6406TIP3    H219162   2.766   6.224   6.088
 6407TIP3   OH219163   3.875   6.269   4.315
 6407TIP3    H119164   3.792   6.220   4.320
 6407TIP3    H219165   3.850   6.360   4.330
 6408TIP3   OH219166   1.209   6.989   2.768
 6408TIP3    H119167   1.171   6.965   2.852
 6408TIP3    H219168   1.303   6.975   2.779
 6409TIP3   OH219169   4.255   4.459   4.115
 6409TIP3    H119170   4.336   4.504   4.089
 6409TIP3    H219171   4.261   4.452   4.210
 6410TIP3   OH219172   5.187   0.145   1.552
 6410TIP3    H119173   5.279   0.173   1.546
 6410TIP3    H219174   5.138   0.227   1.562
 6411TIP3   OH219175   5.164   0.796   3.256
 6411TIP3    H119176   5.178   0.702   3.266
 6411TIP3    H219177   5.070   0.805   3.243
 6412TIP3   OH219178   4.439   2.684   6.580
 6412TIP3    H119179   4.430   2.664   6.673
 6412TIP3    H219180   4.485   2.767   6.577
 6413TIP3   OH219181   7.926   6.050   1.769
 6413TIP3    H119182   7.830   6.054   1.769
 6413TIP3    H219183   7.951   6.082   1.683
 6414TIP3   OH219184   3.136   6.535   2.253
 6414TIP3    H119185   3.084   6.508   2.329
 6414TIP3    H219186   3.084   6.509   2.177
 6415TIP3   OH219187   1.967   2.102   3.981
 6415TIP3    H119188   1.955   2.117   3.887
 6415TIP3    H219189   1.879   2.085   4.015
 6416TIP3   OH219190   3.539   1.447   3.045
 6416TIP3    H119191   3.464   1.478   3.097
 6416TIP3    H219192   3.513   1.464   2.954
 6417TIP3   OH219193   1.760   4.650   2.918
 6417TIP3    H119194   1.773   4.562   2.955
 6417TIP3    H219195   1.844   4.671   2.876
 6418TIP3   OH219196   2.088   2.336   6.633
 6418TIP3    H119197   1.996   2.341   6.660
 6418TIP3    H219198   2.113   2.426   6.615
 6419TIP3   OH219199   5.014   4.333   6.731
 6419TIP3    H119200   4.946   4.383   6.777
 6419TIP3    H219201   5.037   4.387   6.656
 6420TIP3   OH219202   8.187   1.817   1.853
 6420TIP3    H119203   8.274   1.779   1.864
 6420TIP3    H219204   8.195   1.907   1.886
 6421TIP3   OH219205   3.261   6.318   5.964
 6421TIP3    H119206   3.335   6.298   5.907
 6421TIP3    H219207   3.267   6.254   6.035
 6422TIP3   OH219208   7.457   2.918   5.360
 6422TIP3    H119209   7.391   2.957   5.302
 6422TIP3    H219210   7.468   2.829   5.327
 6423TIP3   OH219211   1.212   0.978   1.444
 6423TIP3    H119212   1.175   1.031   1.514
 6423TIP3    H219213   1.278   1.034   1.404
 6424TIP3   OH219214   5.050   1.823   3.214
 6424TIP3    H119215   4.962   1.785   3.211
 6424TIP3    H219216   5.065   1.855   3.125
 6425TIP3   OH219217   1.477   3.335   6.374
 6425TIP3    H119218   1.544   3.283   6.416
 6425TIP3    H219219   1.465   3.411   6.432
 6426TIP3   OH219220   7.554   0.380   3.226
 6426TIP3    H119221   7.576   0.317   3.295
 6426TIP3    H219222   7.560   0.465   3.268
 6427TIP3   OH219223   2.472   1.900   3.571
 6427TIP3    H119224   2.383   1.930   3.589
 6427TIP3    H219225   2.464   1.805   3.562
 6428TIP3   OH219226   5.620   6.763   3.150
 6428TIP3    H119227   5.650   6.676   3.178
 6428TIP3    H219228   5.700   6.816   3.148
 6429TIP3   OH219229   6.310   6.350   3.676
 6429TIP3    H119230   6.324   6.442   3.652
 6429TIP3    H219231   6.296   6.352   3.771
 6430TIP3   OH219232   7.557   2.897   2.699
 6430TIP3    H119233   7.604   2.938   2.626
 6430TIP3    H219234   7.477   2.862   2.660
 6431TIP3   OH219235   0.313   2.119   5.662
 6431TIP3    H119236   0.308   2.028   5.691
 6431TIP3    H219237   0.262   2.121   5.582
 6432TIP3   OH219238   0.594   7.778   2.786
 6432TIP3    H119239   0.579   7.722   2.862
 6432TIP3    H219240   0.684   7.758   2.758
 6433TIP3   OH219241   6.521   0.502   6.304
 6433TIP3    H119242   6.498   0.573   6.363
 6433TIP3    H219243   6.481   0.527   6.220
 6434TIP3   OH219244   8.009   7.069   5.483
 6434TIP3    H119245   7.957   7.047   5.560
 6434TIP3    H219246   8.097   7.040   5.505
 6435TIP3   OH219247   7.062   5.767   0.623
 6435TIP3    H119248   7.123   5.715   0.571
 6435TIP3    H219249   7.098   5.856   0.621
 6436TIP3   OH219250   4.076   0.876   4.988
 6436TIP3    H119251   4.053   0.942   5.053
 6436TIP3    H219252   3.992   0.838   4.961
 6437TIP3   OH219253   7.440   7.367   1.058
 6437TIP3    H119254   7.457   7.447   1.107
 6437TIP3    H219255   7.361   7.330   1.098
 6438TIP3   OH219256   5.124   3.257   1.868
 6438TIP3    H119257   5.076   3.339   1.858
 6438TIP3    H219258   5.180   3.271   1.945
 6439TIP3   OH219259   2.491   3.439   6.057
 6439TIP3    H119260   2.425   3.419   5.991
 6439TIP3    H219261   2.552   3.498   6.012
 6440TIP3   OH219262   7.136   2.390   2.397
 6440TIP3    H119263   7.124   2.379   2.302
 6440TIP3    H219264   7.103   2.308   2.434
 6441TIP3   OH219265   2.387  -0.005   4.184
 6441TIP3    H119266   2.477   0.026   4.170
 6441TIP3    H219267   2.365   0.023   4.273
 6442TIP3   OH219268   1.815   3.728   6.290
 6442TIP3    H119269   1.782   3.655   6.342
 6442TIP3    H219270   1.742   3.790   6.287
 6443TIP3   OH219271   5.973   7.449   1.957
 6443TIP3    H119272   5.988   7.521   1.897
 6443TIP3    H219273   5.898   7.402   1.920
 6444TIP3   OH219274   3.554   7.642   3.937
 6444TIP3    H119275   3.544   7.732   3.968
 6444TIP3    H219276   3.464   7.613   3.919
 6445TIP3   OH219277   1.744   2.464   5.936
 6445TIP3    H119278   1.829   2.420   5.948
 6445TIP3    H219279   1.693   2.437   6.012
 6446TIP3   OH219280   7.621   5.564   1.745
 6446TIP3    H119281   7.642   5.550   1.837
 6446TIP3    H219282   7.641   5.656   1.729
 6447TIP3   OH219283   7.266   2.277   1.201
 6447TIP3    H119284   7.177   2.310   1.216
 6447TIP3    H219285   7.277   2.278   1.106
 6448TIP3   OH219286   6.942   4.512   6.188
 6448TIP3    H119287   6.892   4.588   6.216
 6448TIP3    H219288   6.892   4.477   6.114
 6449TIP3   OH219289   3.980   5.155   5.126
 6449TIP3    H119290   3.902   5.127   5.079
 6449TIP3    H219291   4.031   5.075   5.138
 6450TIP3   OH219292   0.402   4.381   0.840
 6450TIP3    H119293   0.468   4.428   0.790
 6450TIP3    H219294   0.442   4.297   0.862
 6451TIP3   OH219295   3.945   5.497   4.622
 6451TIP3    H119296   3.940   5.579   4.670
 6451TIP3    H219297   3.928   5.429   4.688
 6452TIP3   OH219298   5.143   5.672   5.147
 6452TIP3    H119299   5.201   5.746   5.165
 6452TIP3    H219300   5.080   5.706   5.083
 6453TIP3   OH219301   2.282   0.448   1.716
 6453TIP3    H119302   2.296   0.354   1.730
 6453TIP3    H219303   2.190   0.455   1.689
 6454TIP3   OH219304   5.642   6.898   4.616
 6454TIP3    H119305   5.587   6.918   4.692
 6454TIP3    H219306   5.606   6.952   4.545
 6455TIP3   OH219307   6.328   1.331   5.594
 6455TIP3    H119308   6.347   1.265   5.661
 6455TIP3    H219309   6.245   1.370   5.622
 6456TIP3   OH219310   3.420   5.771   5.977
 6456TIP3    H119311   3.420   5.866   5.991
 6456TIP3    H219312   3.492   5.756   5.915
 6457TIP3   OH219313   0.359   1.991   1.327
 6457TIP3    H119314   0.369   2.047   1.249
 6457TIP3    H219315   0.288   2.032   1.376
 6458TIP3   OH219316   2.016   1.255   6.541
 6458TIP3    H119317   1.984   1.345   6.529
 6458TIP3    H219318   2.051   1.231   6.455
 6459TIP3   OH219319   0.270   6.034   0.761
 6459TIP3    H119320   0.309   5.963   0.811
 6459TIP3    H219321   0.344   6.079   0.720
 6460TIP3   OH219322   2.260   6.357   2.695
 6460TIP3    H119323   2.231   6.442   2.661
 6460TIP3    H219324   2.297   6.312   2.619
 6461TIP3   OH219325   6.543   3.490   0.992
 6461TIP3    H119326   6.557   3.410   0.941
 6461TIP3    H219327   6.615   3.548   0.966
 6462TIP3   OH219328   6.296   3.226   2.692
 6462TIP3    H119329   6.354   3.276   2.634
 6462TIP3    H219330   6.305   3.135   2.662
 6463TIP3   OH219331   7.424   2.496   1.787
 6463TIP3    H119332   7.460   2.491   1.875
 6463TIP3    H219333   7.369   2.574   1.788
 6464TIP3   OH219334   4.407   1.762   2.341
 6464TIP3    H119335   4.478   1.745   2.278
 6464TIP3    H219336   4.452   1.788   2.421
 6465TIP3   OH219337   3.729   7.039   3.543
 6465TIP3    H119338   3.703   7.089   3.621
 6465TIP3    H219339   3.818   7.070   3.524
 6466TIP3   OH219340   0.814   2.591   5.548
 6466TIP3    H119341   0.801   2.496   5.543
 6466TIP3    H219342   0.858   2.613   5.466
 6467TIP3   OH219343   5.086   5.961   0.096
 6467TIP3    H119344   5.099   5.867   0.108
 6467TIP3    H219345   5.098   5.998   0.183
 6468TIP3   OH219346   6.497   5.389   5.779
 6468TIP3    H119347   6.526   5.352   5.862
 6468TIP3    H219348   6.404   5.368   5.775
 6469TIP3   OH219349   0.410   3.855   6.671
 6469TIP3    H119350   0.450   3.832   6.755
 6469TIP3    H219351   0.392   3.949   6.678
 6470TIP3   OH219352   6.620   7.711   2.636
 6470TIP3    H119353   6.586   7.796   2.663
 6470TIP3    H219354   6.679   7.685   2.707
 6471TIP3   OH219355   6.650   4.828   3.039
 6471TIP3    H119356   6.631   4.881   2.961
 6471TIP3    H219357   6.745   4.818   3.039
 6472TIP3   OH219358   0.258   0.789   3.651
 6472TIP3    H119359   0.278   0.878   3.678
 6472TIP3    H219360   0.166   0.791   3.625
 6473TIP3   OH219361   5.549   7.574   4.284
 6473TIP3    H119362   5.498   7.643   4.326
 6473TIP3    H219363   5.546   7.596   4.191
 6474TIP3   OH219364   4.536   0.313   6.665
 6474TIP3    H119365   4.455   0.324   6.614
 6474TIP3    H219366   4.507   0.318   6.756
 6475TIP3   OH219367   4.767   4.178   1.642
 6475TIP3    H119368   4.862   4.185   1.641
 6475TIP3    H219369   4.743   4.186   1.735
 6476TIP3   OH219370   6.509   6.208   3.589
 6476TIP3    H119371   6.509   6.140   3.657
 6476TIP3    H219372   6.434   6.264   3.611
 6477TIP3   OH219373   0.160   0.095   5.555
 6477TIP3    H119374   0.068   0.121   5.556
 6477TIP3    H219375   0.173   0.057   5.468
 6478TIP3   OH219376   3.334   7.232   1.595
 6478TIP3    H119377   3.417   7.187   1.583
 6478TIP3    H219378   3.339   7.269   1.683
 6479TIP3   OH219379   4.786   5.931   3.964
 6479TIP3    H119380   4.861   5.892   4.009
 6479TIP3    H219381   4.791   6.024   3.985
 6480TIP3   OH219382   2.178   6.831   6.128
 6480TIP3    H119383   2.135   6.861   6.049
 6480TIP3    H219384   2.106   6.815   6.190
 6481TIP3   OH219385   2.361   0.799   3.539
 6481TIP3    H119386   2.370   0.825   3.447
 6481TIP3    H219387   2.300   0.862   3.576
 6482TIP3   OH219388   1.921   2.446   2.703
 6482TIP3    H119389   1.931   2.444   2.608
 6482TIP3    H219390   1.983   2.381   2.735
 6483TIP3   OH219391   5.959   4.996   6.622
 6483TIP3    H119392   6.005   4.918   6.592
 6483TIP3    H219393   5.929   4.973   6.710
 6484TIP3   OH219394   5.411   7.080   5.938
 6484TIP3    H119395   5.349   7.152   5.925
 6484TIP3    H219396   5.362   7.015   5.988
 6485TIP3   OH219397   3.488   0.519   6.233
 6485TIP3    H119398   3.493   0.614   6.222
 6485TIP3    H219399   3.421   0.506   6.301
 6486TIP3   OH219400   1.173   1.462   2.580
 6486TIP3    H119401   1.258   1.501   2.558
 6486TIP3    H219402   1.129   1.528   2.633
 6487TIP3   OH219403   3.235   2.492   6.221
 6487TIP3    H119404   3.206   2.496   6.130
 6487TIP3    H219405   3.160   2.523   6.271
 6488TIP3   OH219406   1.238   2.279   0.593
 6488TIP3    H119407   1.262   2.256   0.683
 6488TIP3    H219408   1.319   2.313   0.555
 6489TIP3   OH219409   2.795   5.328   0.746
 6489TIP3    H119410   2.841   5.369   0.673
 6489TIP3    H219411   2.780   5.238   0.717
 6490TIP3   OH219412   4.668   6.323   4.283
 6490TIP3    H119413   4.669   6.243   4.336
 6490TIP3    H219414   4.710   6.298   4.201
 6491TIP3   OH219415   2.485   5.323   1.958
 6491TIP3    H119416   2.443   5.372   1.887
 6491TIP3    H219417   2.575   5.355   1.960
 6492TIP3   OH219418   8.297   5.729   4.572
 6492TIP3    H119419   8.321   5.800   4.631
 6492TIP3    H219420   8.365   5.731   4.504
 6493TIP3   OH219421   7.016   4.873   4.146
 6493TIP3    H119422   7.096   4.912   4.180
 6493TIP3    H219423   6.952   4.944   4.147
 6494TIP3   OH219424   0.848   6.345   5.081
 6494TIP3    H119425   0.914   6.384   5.023
 6494TIP3    H219426   0.876   6.369   5.169
 6495TIP3   OH219427   2.962   6.267   2.546
 6495TIP3    H119428   2.975   6.355   2.511
 6495TIP3    H219429   2.870   6.247   2.530
 6496TIP3   OH219430   6.398   3.986   5.075
 6496TIP3    H119431   6.423   3.947   4.992
 6496TIP3    H219432   6.480   4.017   5.113
 6497TIP3   OH219433   7.667   2.362   6.263
 6497TIP3    H119434   7.710   2.344   6.347
 6497TIP3    H219435   7.725   2.427   6.221
 6498TIP3   OH219436   8.036   0.877   0.089
 6498TIP3    H119437   7.984   0.824   0.150
 6498TIP3    H219438   7.980   0.952   0.069
 6499TIP3   OH219439   0.405   5.254   6.384
 6499TIP3    H119440   0.319   5.218   6.406
 6499TIP3    H219441   0.387   5.342   6.351
 6500TIP3   OH219442   3.977   7.150   5.828
 6500TIP3    H119443   3.942   7.061   5.832
 6500TIP3    H219444   4.008   7.169   5.916
 6501TIP3   OH219445   1.525   0.785   2.940
 6501TIP3    H119446   1.528   0.769   2.845
 6501TIP3    H219447   1.616   0.781   2.967
 6502TIP3   OH219448   0.846   2.360   1.972
 6502TIP3    H119449   0.814   2.352   2.062
 6502TIP3    H219450   0.849   2.270   1.940
 6503TIP3   OH219451   7.723   3.277   4.323
 6503TIP3    H119452   7.752   3.357   4.366
 6503TIP3    H219453   7.775   3.272   4.243
 6504TIP3   OH219454   4.384   2.251   5.852
 6504TIP3    H119455   4.474   2.282   5.860
 6504TIP3    H219456   4.335   2.328   5.821
 6505TIP3   OH219457   5.951   2.335   4.922
 6505TIP3    H119458   5.956   2.361   5.014
 6505TIP3    H219459   5.989   2.408   4.874
 6506TIP3   OH219460   5.511   5.413   0.599
 6506TIP3    H119461   5.522   5.488   0.541
 6506TIP3    H219462   5.557   5.436   0.679
 6507TIP3   OH219463   0.747   2.457   4.032
 6507TIP3    H119464   0.710   2.402   4.100
 6507TIP3    H219465   0.717   2.545   4.053
 6508TIP3   OH219466   7.296   5.494   5.119
 6508TIP3    H119467   7.256   5.443   5.049
 6508TIP3    H219468   7.228   5.555   5.147
 6509TIP3   OH219469   5.690   3.220   3.482
 6509TIP3    H119470   5.620   3.164   3.516
 6509TIP3    H219471   5.644   3.289   3.434
 6510TIP3   OH219472   4.623   7.725   4.230
 6510TIP3    H119473   4.570   7.646   4.241
 6510TIP3    H219474   4.633   7.735   4.136
 6511TIP3   OH219475   7.635   5.929   5.114
 6511TIP3    H119476   7.584   6.009   5.108
 6511TIP3    H219477   7.653   5.904   5.023
 6512TIP3   OH219478   2.907   0.760   3.869
 6512TIP3    H119479   2.964   0.797   3.936
 6512TIP3    H219480   2.923   0.814   3.792
 6513TIP3   OH219481   7.132   4.426   2.661
 6513TIP3    H119482   7.115   4.339   2.696
 6513TIP3    H219483   7.094   4.426   2.574
 6514TIP3   OH219484   5.668   2.296   5.123
 6514TIP3    H119485   5.640   2.311   5.213
 6514TIP3    H219486   5.750   2.346   5.115
 6515TIP3   OH219487   6.395   3.794   5.744
 6515TIP3    H119488   6.409   3.880   5.784
 6515TIP3    H219489   6.401   3.810   5.650
 6516TIP3   OH219490   5.421   4.918   1.117
 6516TIP3    H119491   5.402   4.824   1.122
 6516TIP3    H219492   5.419   4.938   1.023
 6517TIP3   OH219493   4.130   4.038   1.565
 6517TIP3    H119494   4.127   3.985   1.645
 6517TIP3    H219495   4.080   4.117   1.588
 6518TIP3   OH219496   3.716   3.665   3.299
 6518TIP3    H119497   3.702   3.711   3.217
 6518TIP3    H219498   3.722   3.735   3.365
 6519TIP3   OH219499   6.572   4.179   4.075
 6519TIP3    H119500   6.665   4.179   4.097
 6519TIP3    H219501   6.556   4.265   4.036
 6520TIP3   OH219502   7.663   4.206   2.735
 6520TIP3    H119503   7.586   4.262   2.749
 6520TIP3    H219504   7.734   4.267   2.716
 6521TIP3   OH219505   7.926   6.431   3.698
 6521TIP3    H119506   7.856   6.496   3.702
 6521TIP3    H219507   7.957   6.423   3.788
 6522TIP3   OH219508   7.819   6.445   6.035
 6522TIP3    H119509   7.745   6.395   6.000
 6522TIP3    H219510   7.864   6.478   5.957
 6523TIP3   OH219511   3.309   2.909   4.041
 6523TIP3    H119512   3.335   2.817   4.035
 6523TIP3    H219513   3.387   2.954   4.074
 6524TIP3   OH219514   7.036   7.419   0.113
 6524TIP3    H119515   7.101   7.355   0.142
 6524TIP3    H219516   7.084   7.477   0.054
 6525TIP3   OH219517   5.487   5.378   3.954
 6525TIP3    H119518   5.555   5.434   3.915
 6525TIP3    H219519   5.507   5.291   3.921
 6526TIP3   OH219520   0.014   0.423   4.313
 6526TIP3    H119521   0.099   0.466   4.317
 6526TIP3    H219522  -0.047   0.493   4.289
 6527TIP3   OH219523   5.567   5.810   2.096
 6527TIP3    H119524   5.498   5.745   2.111
 6527TIP3    H219525   5.527   5.872   2.035
 6528TIP3   OH219526   3.589   1.512   0.932
 6528TIP3    H119527   3.498   1.489   0.917
 6528TIP3    H219528   3.624   1.440   0.985
 6529TIP3   OH219529   0.198   5.882   4.042
 6529TIP3    H119530   0.272   5.926   4.084
 6529TIP3    H219531   0.137   5.952   4.020
 6530TIP3   OH219532   7.768   2.984   1.614
 6530TIP3    H119533   7.757   2.899   1.573
 6530TIP3    H219534   7.727   3.046   1.554
 6531TIP3   OH219535   7.872   7.483   1.920
 6531TIP3    H119536   7.902   7.539   1.991
 6531TIP3    H219537   7.849   7.400   1.962
 6532TIP3   OH219538   2.511   7.016   5.376
 6532TIP3    H119539   2.556   7.099   5.393
 6532TIP3    H219540   2.576   6.962   5.333
 6533TIP3   OH219541   3.394   1.393   2.749
 6533TIP3    H119542   3.327   1.369   2.814
 6533TIP3    H219543   3.359   1.362   2.666
 6534TIP3   OH219544   5.561   6.219   0.089
 6534TIP3    H119545   5.510   6.246   0.165
 6534TIP3    H219546   5.545   6.287   0.024
 6535TIP3   OH219547   0.653   0.041   6.014
 6535TIP3    H119548   0.728   0.097   5.998
 6535TIP3    H219549   0.672  -0.004   6.096
 6536TIP3   OH219550   1.206   1.687   2.354
 6536TIP3    H119551   1.218   1.663   2.262
 6536TIP3    H219552   1.130   1.745   2.354
 6537TIP3   OH219553   0.148   7.287   5.044
 6537TIP3    H119554   0.054   7.272   5.034
 6537TIP3    H219555   0.155   7.380   5.066
 6538TIP3   OH219556   0.587   1.020   5.911
 6538TIP3    H119557   0.512   1.018   5.852
 6538TIP3    H219558   0.630   1.104   5.892
 6539TIP3   OH219559   5.241   4.535   1.415
 6539TIP3    H119560   5.211   4.515   1.326
 6539TIP3    H219561   5.235   4.630   1.422
 6540TIP3   OH219562   0.887   5.233   0.031
 6540TIP3    H119563   0.826   5.297  -0.006
 6540TIP3    H219564   0.901   5.262   0.121
 6541TIP3   OH219565   4.665   5.403   3.861
 6541TIP3    H119566   4.692   5.337   3.798
 6541TIP3    H219567   4.724   5.392   3.935
 6542TIP3   OH219568   7.493   7.431   6.126
 6542TIP3    H119569   7.412   7.475   6.155
 6542TIP3    H219570   7.546   7.502   6.088
 6543TIP3   OH219571   5.305   6.086   5.357
 6543TIP3    H119572   5.211   6.086   5.373
 6543TIP3    H219573   5.344   6.097   5.444
 6544TIP3   OH219574   3.155   1.614   0.170
 6544TIP3    H119575   3.228   1.558   0.198
 6544TIP3    H219576   3.138   1.670   0.247
 6545TIP3   OH219577   0.743   3.408   2.598
 6545TIP3    H119578   0.835   3.413   2.570
 6545TIP3    H219579   0.747   3.404   2.693
 6546TIP3   OH219580   3.950   3.989   5.415
 6546TIP3    H119581   3.948   4.084   5.403
 6546TIP3    H219582   3.945   3.978   5.510
 6547TIP3   OH219583   2.164   1.926   2.369
 6547TIP3    H119584   2.090   1.985   2.385
 6547TIP3    H219585   2.148   1.851   2.426
 6548TIP3   OH219586   4.367   6.478   0.364
 6548TIP3    H119587   4.404   6.419   0.299
 6548TIP3    H219588   4.292   6.430   0.400
 6549TIP3   OH219589   4.781   2.366   1.172
 6549TIP3    H119590   4.768   2.440   1.231
 6549TIP3    H219591   4.749   2.397   1.087
 6550TIP3   OH219592   6.019   4.686   6.209
 6550TIP3    H119593   6.017   4.595   6.239
 6550TIP3    H219594   5.961   4.687   6.133
 6551TIP3   OH219595  -0.005   1.917   5.697
 6551TIP3    H119596   0.035   1.837   5.662
 6551TIP3    H219597   0.066   1.959   5.746
 6552TIP3   OH219598   0.688   7.600   6.382
 6552TIP3    H119599   0.648   7.686   6.369
 6552TIP3    H219600   0.748   7.612   6.456
 6553TIP3   OH219601   3.288   2.865   4.419
 6553TIP3    H119602   3.374   2.830   4.443
 6553TIP3    H219603   3.230   2.837   4.490
 6554TIP3   OH219604   3.990   6.786   1.135
 6554TIP3    H119605   4.048   6.833   1.194
 6554TIP3    H219606   4.002   6.693   1.157
 6555TIP3   OH219607   6.543   4.217   6.006
 6555TIP3    H119608   6.503   4.262   6.081
 6555TIP3    H219609   6.469   4.197   5.948
 6556TIP3   OH219610   5.985   5.236   2.864
 6556TIP3    H119611   6.026   5.155   2.893
 6556TIP3    H219612   5.963   5.220   2.772
 6557TIP3   OH219613   3.534   4.504   3.969
 6557TIP3    H119614   3.450   4.470   4.000
 6557TIP3    H219615   3.593   4.495   4.045
 6558TIP3   OH219616   0.525   4.372   6.488
 6558TIP3    H119617   0.546   4.463   6.466
 6558TIP3    H219618   0.430   4.370   6.494
 6559TIP3   OH219619   2.384   2.861   4.627
 6559TIP3    H119620   2.391   2.782   4.680
 6559TIP3    H219621   2.464   2.910   4.647
 6560TIP3   OH219622   0.232   1.133   6.216
 6560TIP3    H119623   0.312   1.185   6.214
 6560TIP3    H219624   0.262   1.042   6.217
 6561TIP3   OH219625   2.453   5.974   2.504
 6561TIP3    H119626   2.501   6.015   2.432
 6561TIP3    H219627   2.432   5.887   2.472
 6562TIP3   OH219628   0.363   1.356   3.825
 6562TIP3    H119629   0.430   1.386   3.764
 6562TIP3    H219630   0.408   1.292   3.881
 6563TIP3   OH219631   5.538   4.375   1.089
 6563TIP3    H119632   5.509   4.284   1.086
 6563TIP3    H219633   5.531   4.399   1.182
 6564TIP3   OH219634   1.498   6.626   6.422
 6564TIP3    H119635   1.406   6.651   6.432
 6564TIP3    H219636   1.497   6.556   6.357
 6565TIP3   OH219637   6.578   2.462   3.451
 6565TIP3    H119638   6.590   2.551   3.483
 6565TIP3    H219639   6.503   2.467   3.392
 6566TIP3   OH219640   7.677   7.043   1.932
 6566TIP3    H119641   7.697   6.961   1.978
 6566TIP3    H219642   7.744   7.105   1.962
 6567TIP3   OH219643   6.505   6.632   1.456
 6567TIP3    H119644   6.546   6.584   1.528
 6567TIP3    H219645   6.450   6.697   1.498
 6568TIP3   OH219646   8.193   6.736   1.791
 6568TIP3    H119647   8.208   6.668   1.726
 6568TIP3    H219648   8.175   6.815   1.740
 6569TIP3   OH219649   4.470   5.316   5.383
 6569TIP3    H119650   4.394   5.258   5.379
 6569TIP3    H219651   4.517   5.289   5.461
 6570TIP3   OH219652   0.401   0.480   6.133
 6570TIP3    H119653   0.392   0.475   6.038
 6570TIP3    H219654   0.320   0.442   6.167
 6571TIP3   OH219655   1.530   0.230   2.576
 6571TIP3    H119656   1.617   0.220   2.614
 6571TIP3    H219657   1.471   0.185   2.637
 6572TIP3   OH219658   6.998   2.162   2.529
 6572TIP3    H119659   6.921   2.128   2.484
 6572TIP3    H219660   7.058   2.088   2.533
 6573TIP3   OH219661   5.984   2.086   3.657
 6573TIP3    H119662   5.889   2.098   3.659
 6573TIP3    H219663   6.002   2.051   3.570
 6574TIP3   OH219664   0.086   1.445   5.441
 6574TIP3    H119665  -0.007   1.459   5.423
 6574TIP3    H219666   0.088   1.369   5.499
 6575TIP3   OH219667   4.565   3.155   0.780
 6575TIP3    H119668   4.567   3.097   0.703
 6575TIP3    H219669   4.617   3.109   0.846
 6576TIP3   OH219670   3.164   1.866   6.449
 6576TIP3    H119671   3.100   1.875   6.520
 6576TIP3    H219672   3.245   1.840   6.493
 6577TIP3   OH219673   6.552   6.875   6.338
 6577TIP3    H119674   6.626   6.905   6.392
 6577TIP3    H219675   6.512   6.804   6.389
 6578TIP3   OH219676   4.822   1.297   2.729
 6578TIP3    H119677   4.908   1.259   2.714
 6578TIP3    H219678   4.769   1.226   2.765
 6579TIP3   OH219679   0.880   3.798   4.365
 6579TIP3    H119680   0.901   3.863   4.432
 6579TIP3    H219681   0.819   3.738   4.408
 6580TIP3   OH219682   2.332   1.176   0.229
 6580TIP3    H119683   2.400   1.242   0.244
 6580TIP3    H219684   2.339   1.117   0.303
 6581TIP3   OH219685   6.931   7.213   5.773
 6581TIP3    H119686   6.940   7.216   5.869
 6581TIP3    H219687   6.903   7.301   5.749
 6582TIP3   OH219688   0.605   3.223   1.503
 6582TIP3    H119689   0.631   3.163   1.573
 6582TIP3    H219690   0.591   3.307   1.546
 6583TIP3   OH219691   5.091   4.901   1.487
 6583TIP3    H119692   5.178   4.863   1.476
 6583TIP3    H219693   5.100   4.991   1.455
 6584TIP3   OH219694   3.482   7.021   1.256
 6584TIP3    H119695   3.521   6.937   1.233
 6584TIP3    H219696   3.444   7.053   1.174
 6585TIP3   OH219697   6.761   1.438   3.907
 6585TIP3    H119698   6.855   1.427   3.895
 6585TIP3    H219699   6.739   1.383   3.982
 6586TIP3   OH219700   2.536   0.249   1.731
 6586TIP3    H119701   2.622   0.207   1.738
 6586TIP3    H219702   2.479   0.196   1.786
 6587TIP3   OH219703   3.840   3.795   2.275
 6587TIP3    H119704   3.902   3.790   2.348
 6587TIP3    H219705   3.754   3.800   2.317
 6588TIP3   OH219706   1.153   0.354   5.382
 6588TIP3    H119707   1.076   0.392   5.339
 6588TIP3    H219708   1.192   0.298   5.315
 6589TIP3   OH219709   8.301   2.235   0.132
 6589TIP3    H119710   8.253   2.170   0.183
 6589TIP3    H219711   8.269   2.320   0.164
 6590TIP3   OH219712   2.303   0.254   2.380
 6590TIP3    H119713   2.311   0.307   2.460
 6590TIP3    H219714   2.383   0.202   2.378
 6591TIP3   OH219715   5.301   6.717   5.729
 6591TIP3    H119716   5.340   6.800   5.704
 6591TIP3    H219717   5.263   6.682   5.648
 6592TIP3   OH219718   2.913   1.840   4.276
 6592TIP3    H119719   2.982   1.842   4.210
 6592TIP3    H219720   2.911   1.929   4.312
 6593TIP3   OH219721   0.458   4.552   0.488
 6593TIP3    H119722   0.552   4.572   0.490
 6593TIP3    H219723   0.436   4.545   0.396
 6594TIP3   OH219724   5.831   1.772   4.445
 6594TIP3    H119725   5.811   1.730   4.361
 6594TIP3    H219726   5.900   1.835   4.424
 6595TIP3   OH219727   2.597   4.296   6.289
 6595TIP3    H119728   2.566   4.387   6.284
 6595TIP3    H219729   2.616   4.282   6.381
 6596TIP3   OH219730   1.338   1.924   0.341
 6596TIP3    H119731   1.299   1.837   0.344
 6596TIP3    H219732   1.290   1.969   0.271
 6597TIP3   OH219733   1.661   6.169   5.230
 6597TIP3    H119734   1.680   6.131   5.315
 6597TIP3    H219735   1.744   6.166   5.182
 6598TIP3   OH219736   0.950   6.771   5.408
 6598TIP3    H119737   0.862   6.752   5.377
 6598TIP3    H219738   0.957   6.867   5.404
 6599TIP3   OH219739   0.171   0.690   6.661
 6599TIP3    H119740   0.246   0.635   6.640
 6599TIP3    H219741   0.159   0.679   6.755
 6600TIP3   OH219742   7.217   7.662   5.741
 6600TIP3    H119743   7.266   7.713   5.677
 6600TIP3    H219744   7.284   7.621   5.795
 6601TIP3   OH219745   1.936   7.826   3.857
 6601TIP3    H119746   2.028   7.838   3.835
 6601TIP3    H219747   1.936   7.817   3.953
 6602TIP3   OH219748   0.181   5.500   0.999
 6602TIP3    H119749   0.266   5.473   1.033
 6602TIP3    H219750   0.134   5.532   1.076
 6603TIP3   OH219751   5.631   5.031   4.815
 6603TIP3    H119752   5.618   5.038   4.720
 6603TIP3    H219753   5.556   4.981   4.846
 6604TIP3   OH219754   1.060   5.132   5.016
 6604TIP3    H119755   1.089   5.169   4.933
 6604TIP3    H219756   1.048   5.039   4.998
 6605TIP3   OH219757   3.624   4.009   3.341
 6605TIP3    H119758   3.614   4.019   3.246
 6605TIP3    H219759   3.536   4.022   3.376
 6606TIP3   OH219760   3.191   2.901   2.922
 6606TIP3    H119761   3.171   2.878   3.013
 6606TIP3    H219762   3.159   2.991   2.914
 6607TIP3   OH219763   4.413   1.241   3.954
 6607TIP3    H119764   4.389   1.188   4.030
 6607TIP3    H219765   4.329   1.270   3.917
 6608TIP3   OH219766   4.922   3.637   3.314
 6608TIP3    H119767   4.938   3.546   3.290
 6608TIP3    H219768   4.839   3.659   3.270
 6609TIP3   OH219769   5.548   0.512   2.451
 6609TIP3    H119770   5.561   0.429   2.405
 6609TIP3    H219771   5.465   0.501   2.498
 6610TIP3   OH219772   3.537   1.430   1.975
 6610TIP3    H119773   3.480   1.477   2.036
 6610TIP3    H219774   3.541   1.486   1.898
 6611TIP3   OH219775   3.283   7.721   0.183
 6611TIP3    H119776   3.345   7.790   0.160
 6611TIP3    H219777   3.297   7.707   0.277
 6612TIP3   OH219778   0.105   1.947   6.557
 6612TIP3    H119779   0.036   1.889   6.588
 6612TIP3    H219780   0.066   1.997   6.485
 6613TIP3   OH219781   4.592   0.866   0.061
 6613TIP3    H119782   4.510   0.838   0.020
 6613TIP3    H219783   4.629   0.929  -0.001
 6614TIP3   OH219784   2.699   7.574   3.342
 6614TIP3    H119785   2.632   7.581   3.274
 6614TIP3    H219786   2.712   7.664   3.372
 6615TIP3   OH219787   2.873   3.236   3.206
 6615TIP3    H119788   2.812   3.239   3.133
 6615TIP3    H219789   2.951   3.282   3.174
 6616TIP3   OH219790   7.150   0.506   4.935
 6616TIP3    H119791   7.104   0.425   4.917
 6616TIP3    H219792   7.125   0.564   4.863
 6617TIP3   OH219793   6.767   4.707   6.117
 6617TIP3    H119794   6.764   4.801   6.100
 6617TIP3    H219795   6.744   4.667   6.033
 6618TIP3   OH219796   6.772   6.937   1.486
 6618TIP3    H119797   6.697   6.949   1.544
 6618TIP3    H219798   6.848   6.937   1.544
 6619TIP3   OH219799   7.499   2.481   3.679
 6619TIP3    H119800   7.556   2.520   3.614
 6619TIP3    H219801   7.431   2.437   3.628
 6620TIP3   OH219802   7.076   5.046   6.545
 6620TIP3    H119803   7.170   5.045   6.565
 6620TIP3    H219804   7.036   5.085   6.623
 6621TIP3   OH219805   7.831   6.522   2.145
 6621TIP3    H119806   7.833   6.428   2.163
 6621TIP3    H219807   7.901   6.558   2.200
 6622TIP3   OH219808   3.063   3.576   2.231
 6622TIP3    H119809   3.157   3.594   2.233
 6622TIP3    H219810   3.028   3.626   2.304
 6623TIP3   OH219811   4.416   1.699   1.333
 6623TIP3    H119812   4.503   1.696   1.293
 6623TIP3    H219813   4.430   1.742   1.418
 6624TIP3   OH219814   6.883   5.360   0.721
 6624TIP3    H119815   6.830   5.320   0.789
 6624TIP3    H219816   6.906   5.287   0.663
 6625TIP3   OH219817   8.023   4.180   2.569
 6625TIP3    H119818   8.086   4.181   2.497
 6625TIP3    H219819   7.941   4.154   2.529
 6626TIP3   OH219820   7.288   7.286   5.666
 6626TIP3    H119821   7.327   7.221   5.608
 6626TIP3    H219822   7.363   7.326   5.710
 6627TIP3   OH219823   7.487   3.242   4.215
 6627TIP3    H119824   7.558   3.281   4.266
 6627TIP3    H219825   7.486   3.150   4.243
 6628TIP3   OH219826   6.475   1.400   4.491
 6628TIP3    H119827   6.528   1.325   4.466
 6628TIP3    H219828   6.393   1.389   4.441
 6629TIP3   OH219829   1.040   0.834   2.765
 6629TIP3    H119830   1.088   0.917   2.761
 6629TIP3    H219831   0.951   0.859   2.787
 6630TIP3   OH219832   5.142   2.261   2.055
 6630TIP3    H119833   5.216   2.267   2.116
 6630TIP3    H219834   5.163   2.324   1.986
 6631TIP3   OH219835   1.406   7.323   1.194
 6631TIP3    H119836   1.420   7.245   1.141
 6631TIP3    H219837   1.491   7.338   1.237
 6632TIP3   OH219838   8.245   6.864   2.395
 6632TIP3    H119839   8.237   6.944   2.447
 6632TIP3    H219840   8.337   6.839   2.404
 6633TIP3   OH219841   2.658   6.651   4.377
 6633TIP3    H119842   2.649   6.727   4.434
 6633TIP3    H219843   2.673   6.578   4.437
 6634TIP3   OH219844   7.077   7.622   6.476
 6634TIP3    H119845   7.010   7.599   6.540
 6634TIP3    H219846   7.073   7.718   6.470
 6635TIP3   OH219847   7.120   1.359   2.323
 6635TIP3    H119848   7.094   1.306   2.399
 6635TIP3    H219849   7.062   1.329   2.252
 6636TIP3   OH219850   3.484   7.398   3.481
 6636TIP3    H119851   3.419   7.335   3.512
 6636TIP3    H219852   3.459   7.417   3.391
 6637TIP3   OH219853   3.216   3.635   6.190
 6637TIP3    H119854   3.205   3.666   6.280
 6637TIP3    H219855   3.143   3.676   6.142
 6638TIP3   OH219856   5.552   1.477   2.578
 6638TIP3    H119857   5.610   1.552   2.561
 6638TIP3    H219858   5.592   1.432   2.652
 6639TIP3   OH219859   7.207   7.671   1.384
 6639TIP3    H119860   7.129   7.677   1.329
 6639TIP3    H219861   7.214   7.578   1.405
 6640TIP3   OH219862   1.699   2.666   1.436
 6640TIP3    H119863   1.692   2.650   1.530
 6640TIP3    H219864   1.794   2.676   1.421
 6641TIP3   OH219865   5.572   6.667   2.479
 6641TIP3    H119866   5.581   6.717   2.560
 6641TIP3    H219867   5.644   6.697   2.424
 6642TIP3   OH219868   7.938   6.396   4.800
 6642TIP3    H119869   7.932   6.447   4.881
 6642TIP3    H219870   8.016   6.342   4.810
 6643TIP3   OH219871   2.461   2.971   4.240
 6643TIP3    H119872   2.406   2.893   4.253
 6643TIP3    H219873   2.499   2.959   4.154
 6644TIP3   OH219874   4.114   4.377   5.644
 6644TIP3    H119875   4.197   4.375   5.596
 6644TIP3    H219876   4.108   4.467   5.678
 6645TIP3   OH219877   1.335   1.457   0.944
 6645TIP3    H119878   1.421   1.416   0.939
 6645TIP3    H219879   1.282   1.409   0.880
 6646TIP3   OH219880   2.469   1.214   5.489
 6646TIP3    H119881   2.413   1.225   5.413
 6646TIP3    H219882   2.558   1.221   5.454
 6647TIP3   OH219883   0.894   4.936   1.200
 6647TIP3    H119884   0.881   5.013   1.146
 6647TIP3    H219885   0.869   4.862   1.145
 6648TIP3   OH219886   0.303   0.703   3.190
 6648TIP3    H119887   0.354   0.781   3.212
 6648TIP3    H219888   0.264   0.675   3.273
 6649TIP3   OH219889   2.176   4.685   3.287
 6649TIP3    H119890   2.098   4.643   3.250
 6649TIP3    H219891   2.145   4.730   3.365
 6650TIP3   OH219892   1.389   5.655   4.149
 6650TIP3    H119893   1.462   5.689   4.200
 6650TIP3    H219894   1.362   5.575   4.194
 6651TIP3   OH219895   6.262   3.201   5.388
 6651TIP3    H119896   6.339   3.161   5.427
 6651TIP3    H219897   6.271   3.183   5.294
 6652TIP3   OH219898   0.752   3.074   2.328
 6652TIP3    H119899   0.703   3.024   2.263
 6652TIP3    H219900   0.688   3.132   2.368
 6653TIP3   OH219901   1.033   4.645   1.551
 6653TIP3    H119902   1.019   4.739   1.541
 6653TIP3    H219903   1.003   4.607   1.468
 6654TIP3   OH219904   4.527   3.604   3.173
 6654TIP3    H119905   4.462   3.663   3.136
 6654TIP3    H219906   4.611   3.639   3.144
 6655TIP3   OH219907   5.242   6.498   3.371
 6655TIP3    H119908   5.237   6.437   3.445
 6655TIP3    H219909   5.276   6.446   3.299
 6656TIP3   OH219910   7.496   7.004   1.719
 6656TIP3    H119911   7.574   7.046   1.755
 6656TIP3    H219912   7.443   7.076   1.686
 6657TIP3   OH219913   4.726   6.038   3.687
 6657TIP3    H119914   4.739   5.974   3.758
 6657TIP3    H219915   4.746   5.989   3.607
 6658TIP3   OH219916   3.479   3.804   2.142
 6658TIP3    H119917   3.517   3.783   2.227
 6658TIP3    H219918   3.389   3.831   2.161
 6659TIP3   OH219919   3.031   7.208   6.207
 6659TIP3    H119920   2.966   7.238   6.270
 6659TIP3    H219921   3.114   7.242   6.239
 6660TIP3   OH219922   6.906   1.677   0.404
 6660TIP3    H119923   6.860   1.739   0.348
 6660TIP3    H219924   6.957   1.623   0.344
 6661TIP3   OH219925   5.826   1.341   5.216
 6661TIP3    H119926   5.801   1.353   5.125
 6661TIP3    H219927   5.919   1.316   5.213
 6662TIP3   OH219928   7.162   4.287   5.693
 6662TIP3    H119929   7.123   4.370   5.666
 6662TIP3    H219930   7.089   4.236   5.729
 6663TIP3   OH219931   6.453   7.514   2.776
 6663TIP3    H119932   6.383   7.578   2.772
 6663TIP3    H219933   6.515   7.540   2.708
 6664TIP3   OH219934   2.195   6.328   5.755
 6664TIP3    H119935   2.216   6.410   5.711
 6664TIP3    H219936   2.241   6.333   5.839
 6665TIP3   OH219937   3.734   1.984   0.586
 6665TIP3    H119938   3.655   1.945   0.625
 6665TIP3    H219939   3.702   2.060   0.537
 6666TIP3   OH219940   3.463   1.640   6.107
 6666TIP3    H119941   3.513   1.568   6.068
 6666TIP3    H219942   3.391   1.596   6.154
 6667TIP3   OH219943   3.532   0.245   4.251
 6667TIP3    H119944   3.459   0.285   4.297
 6667TIP3    H219945   3.519   0.269   4.159
 6668TIP3   OH219946   5.426   3.041   5.959
 6668TIP3    H119947   5.386   3.112   6.008
 6668TIP3    H219948   5.518   3.041   5.988
 6669TIP3   OH219949   2.217   7.493   2.856
 6669TIP3    H119950   2.166   7.427   2.903
 6669TIP3    H219951   2.225   7.566   2.917
 6670TIP3   OH219952   0.593   2.421   0.111
 6670TIP3    H119953   0.594   2.463   0.025
 6670TIP3    H219954   0.668   2.459   0.157
 6671TIP3   OH219955   4.050   0.020   0.881
 6671TIP3    H119956   4.144   0.032   0.866
 6671TIP3    H219957   4.030   0.081   0.952
 6672TIP3   OH219958   1.693   1.771   4.616
 6672TIP3    H119959   1.715   1.702   4.554
 6672TIP3    H219960   1.603   1.795   4.593
 6673TIP3   OH219961   3.955   5.902   5.570
 6673TIP3    H119962   3.871   5.922   5.528
 6673TIP3    H219963   4.004   5.855   5.504
 6674TIP3   OH219964   1.385   3.023   4.122
 6674TIP3    H119965   1.391   2.937   4.082
 6674TIP3    H219966   1.300   3.024   4.166
 6675TIP3   OH219967   6.956   5.866   2.452
 6675TIP3    H119968   6.933   5.774   2.440
 6675TIP3    H219969   6.975   5.898   2.364
 6676TIP3   OH219970   5.582   1.173   0.292
 6676TIP3    H119971   5.497   1.210   0.314
 6676TIP3    H219972   5.646   1.237   0.325
 6677TIP3   OH219973   4.772   6.526   6.790
 6677TIP3    H119974   4.749   6.463   6.858
 6677TIP3    H219975   4.774   6.475   6.709
 6678TIP3   OH219976   0.068   1.986   1.147
 6678TIP3    H119977   0.087   1.940   1.228
 6678TIP3    H219978  -0.014   2.032   1.164
 6679TIP3   OH219979   6.586   6.369   5.412
 6679TIP3    H119980   6.563   6.376   5.320
 6679TIP3    H219981   6.600   6.276   5.427
 6680TIP3   OH219982   8.027   3.545   2.025
 6680TIP3    H119983   8.008   3.461   2.068
 6680TIP3    H219984   8.043   3.606   2.096
 6681TIP3   OH219985   4.195   7.374   1.169
 6681TIP3    H119986   4.111   7.368   1.125
 6681TIP3    H219987   4.257   7.336   1.107
 6682TIP3   OH219988   3.873   1.755   0.784
 6682TIP3    H119989   3.956   1.780   0.743
 6682TIP3    H219990   3.898   1.728   0.872
 6683TIP3   OH219991   4.287   7.596   4.076
 6683TIP3    H119992   4.245   7.680   4.056
 6683TIP3    H219993   4.214   7.534   4.081
 6684TIP3   OH219994   5.562   7.358   3.878
 6684TIP3    H119995   5.581   7.285   3.938
 6684TIP3    H219996   5.622   7.344   3.804
 6685TIP3   OH219997   1.749   3.451   0.963
 6685TIP3    H119998   1.817   3.515   0.985
 6685TIP3    H219999   1.732   3.466   0.870
 6686TIP3   OH220000   0.347   1.486   5.372
 6686TIP3    H120001   0.379   1.411   5.422
 6686TIP3    H220002   0.252   1.474   5.369
 6687TIP3   OH220003   1.415   1.849   3.747
 6687TIP3    H120004   1.396   1.818   3.836
 6687TIP3    H220005   1.388   1.941   3.748
 6688TIP3   OH220006   3.810   3.777   0.634
 6688TIP3    H120007   3.809   3.757   0.541
 6688TIP3    H220008   3.892   3.826   0.648
 6689TIP3   OH220009   6.363   2.932   1.458
 6689TIP3    H120010   6.421   2.904   1.528
 6689TIP3    H220011   6.309   2.855   1.439
 6690TIP3   OH220012   3.236   0.286   0.773
 6690TIP3    H120013   3.203   0.362   0.821
 6690TIP3    H220014   3.200   0.296   0.685
 6691TIP3   OH220015   1.772   4.798   5.563
 6691TIP3    H120016   1.835   4.864   5.592
 6691TIP3    H220017   1.686   4.838   5.576
 6692TIP3   OH220018   6.271   3.799   3.169
 6692TIP3    H120019   6.194   3.852   3.191
 6692TIP3    H220020   6.261   3.719   3.221
 6693TIP3   OH220021   1.749   4.323   5.411
 6693TIP3    H120022   1.799   4.271   5.474
 6693TIP3    H220023   1.779   4.413   5.425
 6694TIP3   OH220024   4.820   6.038   1.131
 6694TIP3    H120025   4.783   6.114   1.176
 6694TIP3    H220026   4.773   5.963   1.170
 6695TIP3   OH220027   6.670   0.889   0.513
 6695TIP3    H120028   6.591   0.911   0.463
 6695TIP3    H220029   6.642   0.820   0.573
 6696TIP3   OH220030   5.658   0.754   6.175
 6696TIP3    H120031   5.605   0.685   6.135
 6696TIP3    H220032   5.699   0.798   6.101
 6697TIP3   OH220033   1.212   1.161   4.963
 6697TIP3    H120034   1.196   1.253   4.941
 6697TIP3    H220035   1.130   1.129   4.999
 6698TIP3   OH220036   7.436   7.727   6.380
 6698TIP3    H120037   7.392   7.683   6.307
 6698TIP3    H220038   7.388   7.697   6.458
 6699TIP3   OH220039  -0.014   4.897   2.972
 6699TIP3    H120040  -0.060   4.978   2.950
 6699TIP3    H220041   0.046   4.922   3.042
 6700TIP3   OH220042   0.212   6.721   1.690
 6700TIP3    H120043   0.187   6.812   1.671
 6700TIP3    H220044   0.240   6.723   1.782
 6701TIP3   OH220045   0.351   3.790   0.597
 6701TIP3    H120046   0.360   3.695   0.595
 6701TIP3    H220047   0.291   3.808   0.669
 6702TIP3   OH220048   0.151   5.071   6.706
 6702TIP3    H120049   0.138   5.028   6.791
 6702TIP3    H220050   0.236   5.115   6.715
 6703TIP3   OH220051   0.259   5.451   4.354
 6703TIP3    H120052   0.171   5.484   4.338
 6703TIP3    H220053   0.284   5.407   4.273
 6704TIP3   OH220054   1.447   2.547   5.269
 6704TIP3    H120055   1.540   2.568   5.262
 6704TIP3    H220056   1.404   2.608   5.209
 6705TIP3   OH220057   6.829   1.279   1.568
 6705TIP3    H120058   6.783   1.225   1.504
 6705TIP3    H220059   6.778   1.360   1.573
 6706TIP3   OH220060   5.798   1.871   6.293
 6706TIP3    H120061   5.732   1.846   6.358
 6706TIP3    H220062   5.876   1.892   6.345
 6707TIP3   OH220063   5.791   3.400   2.487
 6707TIP3    H120064   5.853   3.396   2.560
 6707TIP3    H220065   5.835   3.454   2.421
 6708TIP3   OH220066   3.252   1.079   2.923
 6708TIP3    H120067   3.179   1.026   2.891
 6708TIP3    H220068   3.224   1.170   2.909
 6709TIP3   OH220069   1.869   2.271   1.404
 6709TIP3    H120070   1.775   2.269   1.417
 6709TIP3    H220071   1.883   2.224   1.321
 6710TIP3   OH220072   1.715   5.147   1.289
 6710TIP3    H120073   1.720   5.052   1.274
 6710TIP3    H220074   1.710   5.155   1.385
 6711TIP3   OH220075   7.628   2.985   0.974
 6711TIP3    H120076   7.649   3.040   1.049
 6711TIP3    H220077   7.539   2.954   0.990
 6712TIP3   OH220078   3.444   5.388   0.023
 6712TIP3    H120079   3.528   5.416   0.059
 6712TIP3    H220080   3.438   5.295   0.043
 6713TIP3   OH220081   0.249   5.743   2.107
 6713TIP3    H120082   0.269   5.740   2.200
 6713TIP3    H220083   0.174   5.684   2.097
 6714TIP3   OH220084   3.585   7.705   5.595
 6714TIP3    H120085   3.521   7.775   5.593
 6714TIP3    H220086   3.654   7.733   5.534
 6715TIP3   OH220087   7.269   4.787   2.591
 6715TIP3    H120088   7.226   4.868   2.620
 6715TIP3    H220089   7.211   4.751   2.524
 6716TIP3   OH220090   1.072   6.015   2.237
 6716TIP3    H120091   1.098   6.054   2.154
 6716TIP3    H220092   1.143   6.034   2.297
 6717TIP3   OH220093   0.024   7.748   6.455
 6717TIP3    H120094   0.102   7.770   6.403
 6717TIP3    H220095   0.000   7.661   6.425
 6718TIP3   OH220096   6.957   5.398   4.560
 6718TIP3    H120097   6.964   5.368   4.651
 6718TIP3    H220098   6.898   5.335   4.519
 6719TIP3   OH220099   7.785   4.171   3.010
 6719TIP3    H120100   7.766   4.196   2.919
 6719TIP3    H220101   7.699   4.162   3.051
 6720TIP3   OH220102   4.269   1.279   0.884
 6720TIP3    H120103   4.334   1.277   0.954
 6720TIP3    H220104   4.246   1.188   0.870
 6721TIP3   OH220105   5.070   7.384   5.561
 6721TIP3    H120106   5.063   7.393   5.656
 6721TIP3    H220107   5.063   7.290   5.545
 6722TIP3   OH220108   3.385   3.832   3.254
 6722TIP3    H120109   3.349   3.744   3.243
 6722TIP3    H220110   3.311   3.884   3.285
 6723TIP3   OH220111   3.301   1.347   1.591
 6723TIP3    H120112   3.246   1.309   1.523
 6723TIP3    H220113   3.388   1.352   1.552
 6724TIP3   OH220114   4.733   0.445   1.019
 6724TIP3    H120115   4.789   0.514   0.983
 6724TIP3    H220116   4.791   0.370   1.030
 6725TIP3   OH220117   0.852   7.309   5.239
 6725TIP3    H120118   0.898   7.348   5.313
 6725TIP3    H220119   0.921   7.267   5.188
 6726TIP3   OH220120   2.204   5.580   5.881
 6726TIP3    H120121   2.222   5.623   5.797
 6726TIP3    H220122   2.108   5.576   5.886
 6727TIP3   OH220123   7.800   3.778   5.369
 6727TIP3    H120124   7.719   3.809   5.411
 6727TIP3    H220125   7.825   3.850   5.310
 6728TIP3   OH220126   1.927   1.067   3.447
 6728TIP3    H120127   1.925   1.159   3.420
 6728TIP3    H220128   1.837   1.049   3.476
 6729TIP3   OH220129   4.162   0.420   0.191
 6729TIP3    H120130   4.166   0.480   0.117
 6729TIP3    H220131   4.078   0.438   0.233
 6730TIP3   OH220132  -0.043   0.774   1.372
 6730TIP3    H120133  -0.004   0.799   1.456
 6730TIP3    H220134  -0.025   0.680   1.365
 6731TIP3   OH220135   7.709   2.127   2.636
 6731TIP3    H120136   7.637   2.088   2.587
 6731TIP3    H220137   7.729   2.064   2.705
 6732TIP3   OH220138   7.454   6.822   3.869
 6732TIP3    H120139   7.420   6.742   3.828
 6732TIP3    H220140   7.416   6.893   3.818
 6733TIP3   OH220141   6.469   6.945   2.597
 6733TIP3    H120142   6.473   6.868   2.539
 6733TIP3    H220143   6.502   7.017   2.543
 6734TIP3   OH220144   0.620   0.905   2.095
 6734TIP3    H120145   0.604   0.962   2.020
 6734TIP3    H220146   0.713   0.914   2.113
 6735TIP3   OH220147   4.618   7.384   5.528
 6735TIP3    H120148   4.614   7.304   5.581
 6735TIP3    H220149   4.672   7.360   5.453
 6736TIP3   OH220150   4.452   3.978   6.793
 6736TIP3    H120151   4.482   3.889   6.772
 6736TIP3    H220152   4.498   4.034   6.730
 6737TIP3   OH220153   1.324   2.080   6.621
 6737TIP3    H120154   1.367   2.165   6.617
 6737TIP3    H220155   1.267   2.079   6.544
 6738TIP3   OH220156   2.588   6.096   2.297
 6738TIP3    H120157   2.539   6.071   2.218
 6738TIP3    H220158   2.618   6.185   2.278
 6739TIP3   OH220159   5.022   5.482   2.519
 6739TIP3    H120160   5.010   5.577   2.519
 6739TIP3    H220161   5.097   5.466   2.576
 6740TIP3   OH220162   2.168   3.937   1.372
 6740TIP3    H120163   2.182   3.903   1.460
 6740TIP3    H220164   2.214   4.021   1.371
 6741TIP3   OH220165   6.224   4.294   2.525
 6741TIP3    H120166   6.310   4.314   2.563
 6741TIP3    H220167   6.165   4.292   2.601
 6742TIP3   OH220168   4.609   5.256   0.449
 6742TIP3    H120169   4.561   5.207   0.382
 6742TIP3    H220170   4.656   5.188   0.498
 6743TIP3   OH220171   2.845   0.928   3.654
 6743TIP3    H120172   2.760   0.959   3.685
 6743TIP3    H220173   2.903   1.003   3.665
 6744TIP3   OH220174   6.713   3.151   3.865
 6744TIP3    H120175   6.790   3.165   3.810
 6744TIP3    H220176   6.682   3.239   3.885
 6745TIP3   OH220177   1.804   3.352   4.831
 6745TIP3    H120178   1.862   3.373   4.758
 6745TIP3    H220179   1.753   3.432   4.845
 6746TIP3   OH220180   5.650   1.705   3.107
 6746TIP3    H120181   5.669   1.611   3.103
 6746TIP3    H220182   5.617   1.727   3.020
 6747TIP3   OH220183   7.545   2.647   4.385
 6747TIP3    H120184   7.466   2.606   4.350
 6747TIP3    H220185   7.608   2.643   4.313
 6748TIP3   OH220186   1.753   6.234   3.261
 6748TIP3    H120187   1.777   6.146   3.290
 6748TIP3    H220188   1.779   6.238   3.169
 6749TIP3   OH220189   6.620   1.958   2.089
 6749TIP3    H120190   6.620   2.052   2.067
 6749TIP3    H220191   6.692   1.921   2.038
 6750TIP3   OH220192   2.023   7.732   2.973
 6750TIP3    H120193   2.091   7.774   2.920
 6750TIP3    H220194   1.960   7.698   2.910
 6751TIP3   OH220195   2.535   4.277   2.780
 6751TIP3    H120196   2.577   4.213   2.837
 6751TIP3    H220197   2.598   4.291   2.709
 6752TIP3   OH220198   3.807   0.085   5.023
 6752TIP3    H120199   3.792   0.050   4.935
 6752TIP3    H220200   3.720   0.093   5.061
 6753TIP3   OH220201   0.505   6.778   0.154
 6753TIP3    H120202   0.419   6.786   0.113
 6753TIP3    H220203   0.539   6.694   0.123
 6754TIP3   OH220204   4.843   6.077   4.671
 6754TIP3    H120205   4.916   6.139   4.670
 6754TIP3    H220206   4.770   6.127   4.707
 6755TIP3   OH220207   4.705   4.005   3.821
 6755TIP3    H120208   4.713   4.032   3.913
 6755TIP3    H220209   4.614   3.978   3.812
 6756TIP3   OH220210   0.843   4.616   4.440
 6756TIP3    H120211   0.838   4.567   4.523
 6756TIP3    H220212   0.839   4.548   4.373
 6757TIP3   OH220213   7.485   1.523   4.826
 6757TIP3    H120214   7.462   1.542   4.735
 6757TIP3    H220215   7.484   1.428   4.832
 6758TIP3   OH220216   2.618   6.841   6.487
 6758TIP3    H120217   2.695   6.787   6.470
 6758TIP3    H220218   2.622   6.909   6.421
 6759TIP3   OH220219   0.306   5.376   3.358
 6759TIP3    H120220   0.338   5.433   3.429
 6759TIP3    H220221   0.269   5.300   3.404
 6760TIP3   OH220222   7.889   4.580   1.359
 6760TIP3    H120223   7.902   4.519   1.287
 6760TIP3    H220224   7.798   4.568   1.386
 6761TIP3   OH220225   1.718   6.700   1.571
 6761TIP3    H120226   1.645   6.653   1.530
 6761TIP3    H220227   1.793   6.642   1.561
 6762TIP3   OH220228   2.311   6.303   4.341
 6762TIP3    H120229   2.387   6.295   4.284
 6762TIP3    H220230   2.266   6.382   4.311
 6763TIP3   OH220231   2.300   2.825   5.942
 6763TIP3    H120232   2.279   2.909   5.901
 6763TIP3    H220233   2.231   2.766   5.911
 6764TIP3   OH220234   0.662   4.377   5.079
 6764TIP3    H120235   0.650   4.462   5.036
 6764TIP3    H220236   0.753   4.378   5.108
 6765TIP3   OH220237   1.212   3.722   2.186
 6765TIP3    H120238   1.270   3.763   2.249
 6765TIP3    H220239   1.134   3.699   2.237
 6766TIP3   OH220240   7.790   7.386   2.731
 6766TIP3    H120241   7.843   7.399   2.651
 6766TIP3    H220242   7.760   7.296   2.726
 6767TIP3   OH220243   6.030   7.807   5.631
 6767TIP3    H120244   6.003   7.895   5.657
 6767TIP3    H220245   6.018   7.805   5.536
 6768TIP3   OH220246   3.191   3.983   1.359
 6768TIP3    H120247   3.131   3.986   1.434
 6768TIP3    H220248   3.200   3.889   1.340
 6769TIP3   OH220249   4.532   0.886   6.408
 6769TIP3    H120250   4.536   0.982   6.402
 6769TIP3    H220251   4.541   0.856   6.318
 6770TIP3   OH220252   3.701   2.754   3.608
 6770TIP3    H120253   3.704   2.815   3.534
 6770TIP3    H220254   3.779   2.776   3.659
 6771TIP3   OH220255   4.990   6.034   2.776
 6771TIP3    H120256   5.067   6.082   2.747
 6771TIP3    H220257   4.983   5.960   2.716
 6772TIP3   OH220258   4.116   5.601   3.024
 6772TIP3    H120259   4.174   5.635   3.092
 6772TIP3    H220260   4.166   5.610   2.943
 6773TIP3   OH220261   4.328   4.089   3.088
 6773TIP3    H120262   4.411   4.131   3.110
 6773TIP3    H220263   4.277   4.157   3.045
 6774TIP3   OH220264   3.796   7.335   0.586
 6774TIP3    H120265   3.750   7.358   0.505
 6774TIP3    H220266   3.787   7.241   0.594
 6775TIP3   OH220267   4.434   1.861   2.576
 6775TIP3    H120268   4.459   1.804   2.649
 6775TIP3    H220269   4.443   1.949   2.612
 6776TIP3   OH220270   4.877   7.551   2.311
 6776TIP3    H120271   4.823   7.488   2.262
 6776TIP3    H220272   4.966   7.536   2.280
 6777TIP3   OH220273   7.213   4.570   3.357
 6777TIP3    H120274   7.285   4.614   3.402
 6777TIP3    H220275   7.180   4.635   3.294
 6778TIP3   OH220276   6.294   2.194   2.871
 6778TIP3    H120277   6.308   2.157   2.783
 6778TIP3    H220278   6.289   2.117   2.928
 6779TIP3   OH220279   5.068   6.606   3.565
 6779TIP3    H120280   5.092   6.699   3.570
 6779TIP3    H220281   5.123   6.571   3.495
 6780TIP3   OH220282   3.658   4.573   5.496
 6780TIP3    H120283   3.661   4.632   5.421
 6780TIP3    H220284   3.580   4.520   5.482
 6781TIP3   OH220285   1.714   0.059   4.207
 6781TIP3    H120286   1.688  -0.031   4.187
 6781TIP3    H220287   1.682   0.074   4.296
 6782TIP3   OH220288   0.411   6.537   1.505
 6782TIP3    H120289   0.352   6.490   1.564
 6782TIP3    H220290   0.422   6.478   1.430
 6783TIP3   OH220291   5.398   4.906   2.874
 6783TIP3    H120292   5.319   4.960   2.863
 6783TIP3    H220293   5.452   4.956   2.936
 6784TIP3   OH220294   6.934   5.688   5.887
 6784TIP3    H120295   6.970   5.705   5.800
 6784TIP3    H220296   6.839   5.693   5.875
 6785TIP3   OH220297   2.825   4.601   1.226
 6785TIP3    H120298   2.788   4.664   1.288
 6785TIP3    H220299   2.877   4.542   1.280
 6786TIP3   OH220300   1.348   5.953   5.816
 6786TIP3    H120301   1.273   5.984   5.866
 6786TIP3    H220302   1.313   5.935   5.729
 6787TIP3   OH220303   3.357   7.107   4.271
 6787TIP3    H120304   3.409   7.170   4.321
 6787TIP3    H220305   3.404   7.097   4.189
 6788TIP3   OH220306   1.217   6.913   5.049
 6788TIP3    H120307   1.135   6.961   5.050
 6788TIP3    H220308   1.199   6.834   5.100
 6789TIP3   OH220309   6.526   1.031   1.587
 6789TIP3    H120310   6.540   1.061   1.497
 6789TIP3    H220311   6.446   0.978   1.582
 6790TIP3   OH220312   2.084   3.446   0.892
 6790TIP3    H120313   2.175   3.419   0.907
 6790TIP3    H220314   2.062   3.499   0.968
 6791TIP3   OH220315   6.868   1.857   1.368
 6791TIP3    H120316   6.888   1.855   1.274
 6791TIP3    H220317   6.954   1.866   1.410
 6792TIP3   OH220318   1.666   6.844   0.448
 6792TIP3    H120319   1.643   6.880   0.363
 6792TIP3    H220320   1.595   6.783   0.468
 6793TIP3   OH220321   6.854   5.670   4.734
 6793TIP3    H120322   6.901   5.615   4.796
 6793TIP3    H220323   6.921   5.694   4.669
 6794TIP3   OH220324   0.152   2.084   1.469
 6794TIP3    H120325   0.091   2.043   1.531
 6794TIP3    H220326   0.096   2.117   1.399
 6795TIP3   OH220327   6.324   2.347   5.488
 6795TIP3    H120328   6.273   2.267   5.504
 6795TIP3    H220329   6.287   2.411   5.548
 6796TIP3   OH220330   7.565   3.897   2.210
 6796TIP3    H120331   7.609   3.981   2.218
 6796TIP3    H220332   7.628   3.833   2.244
 6797TIP3   OH220333   8.099   2.669   4.697
 6797TIP3    H120334   8.043   2.739   4.664
 6797TIP3    H220335   8.149   2.640   4.621
 6798TIP3   OH220336   6.861   4.088   6.326
 6798TIP3    H120337   6.795   4.158   6.333
 6798TIP3    H220338   6.813   4.014   6.290
 6799TIP3   OH220339   7.043   6.416   1.164
 6799TIP3    H120340   7.070   6.455   1.247
 6799TIP3    H220341   6.983   6.346   1.189
 6800TIP3   OH220342   1.769   0.429   4.796
 6800TIP3    H120343   1.679   0.458   4.806
 6800TIP3    H220344   1.821   0.509   4.798
 6801TIP3   OH220345   0.775   4.721   5.896
 6801TIP3    H120346   0.782   4.778   5.973
 6801TIP3    H220347   0.842   4.754   5.836
 6802TIP3   OH220348   5.336   1.725   0.142
 6802TIP3    H120349   5.334   1.801   0.084
 6802TIP3    H220350   5.334   1.650   0.083
 6803TIP3   OH220351   2.814   3.812   6.535
 6803TIP3    H120352   2.765   3.740   6.495
 6803TIP3    H220353   2.754   3.886   6.531
 6804TIP3   OH220354   1.681   4.709   3.756
 6804TIP3    H120355   1.666   4.721   3.849
 6804TIP3    H220356   1.640   4.785   3.715
 6805TIP3   OH220357   4.408   6.713   2.969
 6805TIP3    H120358   4.429   6.624   2.998
 6805TIP3    H220359   4.478   6.736   2.908
 6806TIP3   OH220360   4.356   6.612   2.328
 6806TIP3    H120361   4.360   6.698   2.369
 6806TIP3    H220362   4.309   6.627   2.246
 6807TIP3   OH220363   3.425   3.656   6.523
 6807TIP3    H120364   3.440   3.750   6.513
 6807TIP3    H220365   3.330   3.646   6.516
 6808TIP3   OH220366   3.206   5.428   3.669
 6808TIP3    H120367   3.210   5.373   3.591
 6808TIP3    H220368   3.138   5.388   3.723
 6809TIP3   OH220369   7.172   3.465   4.251
 6809TIP3    H120370   7.140   3.498   4.335
 6809TIP3    H220371   7.207   3.542   4.206
 6810TIP3   OH220372   5.541   7.566   2.946
 6810TIP3    H120373   5.598   7.640   2.968
 6810TIP3    H220374   5.526   7.575   2.851
 6811TIP3   OH220375   7.241   7.684   4.457
 6811TIP3    H120376   7.247   7.615   4.391
 6811TIP3    H220377   7.157   7.670   4.500
 6812TIP3   OH220378   6.551   2.029   3.715
 6812TIP3    H120379   6.486   2.097   3.698
 6812TIP3    H220380   6.627   2.056   3.665
 6813TIP3   OH220381   5.471   1.515   1.411
 6813TIP3    H120382   5.481   1.439   1.468
 6813TIP3    H220383   5.559   1.551   1.403
 6814TIP3   OH220384   2.422   2.319   1.538
 6814TIP3    H120385   2.446   2.411   1.544
 6814TIP3    H220386   2.505   2.272   1.547
 6815TIP3   OH220387   2.099   4.375   0.993
 6815TIP3    H120388   2.169   4.440   0.995
 6815TIP3    H220389   2.097   4.345   0.902
 6816TIP3   OH220390   2.791   3.532   5.685
 6816TIP3    H120391   2.785   3.437   5.699
 6816TIP3    H220392   2.743   3.547   5.604
 6817TIP3   OH220393   6.642   5.190   0.059
 6817TIP3    H120394   6.671   5.270   0.102
 6817TIP3    H220395   6.617   5.132   0.130
 6818TIP3   OH220396   1.798   1.667   2.192
 6818TIP3    H120397   1.858   1.669   2.117
 6818TIP3    H220398   1.760   1.580   2.190
 6819TIP3   OH220399   3.596   2.640   2.681
 6819TIP3    H120400   3.550   2.715   2.720
 6819TIP3    H220401   3.536   2.607   2.614
 6820TIP3   OH220402   3.754   0.363   5.708
 6820TIP3    H120403   3.673   0.366   5.758
 6820TIP3    H220404   3.758   0.448   5.664
 6821TIP3   OH220405   0.778   2.603   4.587
 6821TIP3    H120406   0.761   2.600   4.493
 6821TIP3    H220407   0.870   2.630   4.594
 6822TIP3   OH220408   4.153   6.114   3.819
 6822TIP3    H120409   4.141   6.209   3.812
 6822TIP3    H220410   4.148   6.096   3.913
 6823TIP3   OH220411   4.436   1.024   2.095
 6823TIP3    H120412   4.345   1.016   2.067
 6823TIP3    H220413   4.436   0.998   2.187
 6824TIP3   OH220414   8.008   2.492   5.895
 6824TIP3    H120415   7.936   2.536   5.849
 6824TIP3    H220416   7.965   2.434   5.957
 6825TIP3   OH220417   2.661   6.262   5.514
 6825TIP3    H120418   2.708   6.307   5.444
 6825TIP3    H220419   2.590   6.321   5.537
 6826TIP3   OH220420   3.900   3.653   6.400
 6826TIP3    H120421   3.832   3.621   6.340
 6826TIP3    H220422   3.979   3.606   6.373
 6827TIP3   OH220423   2.725   1.754   5.609
 6827TIP3    H120424   2.636   1.787   5.621
 6827TIP3    H220425   2.776   1.797   5.678
 6828TIP3   OH220426   7.345   2.275   4.455
 6828TIP3    H120427   7.387   2.196   4.490
 6828TIP3    H220428   7.396   2.296   4.377
 6829TIP3   OH220429   5.859   5.381   5.847
 6829TIP3    H120430   5.881   5.323   5.774
 6829TIP3    H220431   5.780   5.342   5.885
 6830TIP3   OH220432   0.940   5.103   2.118
 6830TIP3    H120433   1.032   5.097   2.141
 6830TIP3    H220434   0.930   5.044   2.043
 6831TIP3   OH220435   8.257   3.293   4.169
 6831TIP3    H120436   8.220   3.207   4.145
 6831TIP3    H220437   8.337   3.271   4.216
 6832TIP3   OH220438   3.059   5.940   5.758
 6832TIP3    H120439   2.968   5.934   5.727
 6832TIP3    H220440   3.084   6.031   5.741
 6833TIP3   OH220441   1.980   3.536   5.380
 6833TIP3    H120442   2.004   3.445   5.364
 6833TIP3    H220443   1.985   3.546   5.475
 6834TIP3   OH220444   0.673   0.967   6.621
 6834TIP3    H120445   0.658   1.038   6.683
 6834TIP3    H220446   0.751   0.994   6.573
 6835TIP3   OH220447   7.196   5.234   0.468
 6835TIP3    H120448   7.231   5.284   0.394
 6835TIP3    H220449   7.267   5.233   0.532
 6836TIP3   OH220450   0.709   5.705   6.677
 6836TIP3    H120451   0.663   5.751   6.607
 6836TIP3    H220452   0.737   5.774   6.737
 6837TIP3   OH220453   2.028   2.050   1.561
 6837TIP3    H120454   2.091   2.070   1.631
 6837TIP3    H220455   1.995   2.135   1.532
 6838TIP3   OH220456   3.832   5.005   4.685
 6838TIP3    H120457   3.788   5.090   4.677
 6838TIP3    H220458   3.761   4.943   4.698
 6839TIP3   OH220459   7.303   0.124   3.633
 6839TIP3    H120460   7.314   0.058   3.565
 6839TIP3    H220461   7.382   0.178   3.628
 6840TIP3   OH220462   5.484   1.462   1.820
 6840TIP3    H120463   5.579   1.461   1.835
 6840TIP3    H220464   5.462   1.555   1.812
 6841TIP3   OH220465   2.550   3.633   0.290
 6841TIP3    H120466   2.641   3.620   0.314
 6841TIP3    H220467   2.513   3.688   0.359
 6842TIP3   OH220468   5.157   2.484   1.854
 6842TIP3    H120469   5.238   2.512   1.811
 6842TIP3    H220470   5.126   2.563   1.899
 6843TIP3   OH220471   7.896   4.207   1.249
 6843TIP3    H120472   7.918   4.147   1.178
 6843TIP3    H220473   7.969   4.269   1.251
 6844TIP3   OH220474   4.044   5.544   1.814
 6844TIP3    H120475   3.955   5.534   1.781
 6844TIP3    H220476   4.036   5.531   1.909
 6845TIP3   OH220477   6.299   0.681   0.681
 6845TIP3    H120478   6.247   0.602   0.668
 6845TIP3    H220479   6.342   0.695   0.596
 6846TIP3   OH220480   5.143   6.130   3.904
 6846TIP3    H120481   5.178   6.117   3.992
 6846TIP3    H220482   5.079   6.201   3.915
 6847TIP3   OH220483   0.742   3.956   6.280
 6847TIP3    H120484   0.694   3.928   6.202
 6847TIP3    H220485   0.789   3.878   6.309
 6848TIP3   OH220486   2.287   0.042   4.895
 6848TIP3    H120487   2.376   0.070   4.871
 6848TIP3    H220488   2.264  -0.023   4.830
 6849TIP3   OH220489   3.372   0.603   0.938
 6849TIP3    H120490   3.407   0.573   0.854
 6849TIP3    H220491   3.278   0.584   0.933
 6850TIP3   OH220492   3.575   3.354   5.530
 6850TIP3    H120493   3.574   3.298   5.452
 6850TIP3    H220494   3.486   3.387   5.537
 6851TIP3   OH220495   5.767   6.250   6.144
 6851TIP3    H120496   5.698   6.310   6.115
 6851TIP3    H220497   5.763   6.254   6.240
 6852TIP3   OH220498   2.385   1.707   1.710
 6852TIP3    H120499   2.370   1.718   1.804
 6852TIP3    H220500   2.397   1.613   1.698
 6853TIP3   OH220501   4.590   3.726   0.645
 6853TIP3    H120502   4.620   3.763   0.562
 6853TIP3    H220503   4.664   3.737   0.704
 6854TIP3   OH220504   1.015   5.492   1.931
 6854TIP3    H120505   1.098   5.472   1.889
 6854TIP3    H220506   0.974   5.407   1.947
 6855TIP3   OH220507   2.857   4.463   6.533
 6855TIP3    H120508   2.942   4.422   6.519
 6855TIP3    H220509   2.878   4.548   6.573
 6856TIP3   OH220510   3.291   6.921   4.482
 6856TIP3    H120511   3.210   6.885   4.520
 6856TIP3    H220512   3.261   6.976   4.410
 6857TIP3   OH220513   4.300   0.166   4.524
 6857TIP3    H120514   4.376   0.205   4.568
 6857TIP3    H220515   4.337   0.098   4.468
 6858TIP3   OH220516   2.321   6.867   2.303
 6858TIP3    H120517   2.273   6.933   2.253
 6858TIP3    H220518   2.254   6.802   2.327
 6859TIP3   OH220519   1.844   7.710   2.513
 6859TIP3    H120520   1.763   7.691   2.467
 6859TIP3    H220521   1.899   7.754   2.449
 6860TIP3   OH220522   3.546   1.752   6.654
 6860TIP3    H120523   3.457   1.726   6.631
 6860TIP3    H220524   3.537   1.842   6.686
 6861TIP3   OH220525   1.137   7.345   1.245
 6861TIP3    H120526   1.151   7.400   1.323
 6861TIP3    H220527   1.226   7.324   1.215
 6862TIP3   OH220528   2.021   3.009   0.520
 6862TIP3    H120529   2.062   2.937   0.568
 6862TIP3    H220530   1.933   2.976   0.499
 6863TIP3   OH220531   1.787   4.434   5.785
 6863TIP3    H120532   1.873   4.394   5.769
 6863TIP3    H220533   1.727   4.360   5.794
 6864TIP3   OH220534   5.052   3.233   6.583
 6864TIP3    H120535   5.118   3.296   6.553
 6864TIP3    H220536   5.039   3.175   6.508
 6865TIP3   OH220537   0.963   0.554   6.584
 6865TIP3    H120538   0.872   0.582   6.599
 6865TIP3    H220539   0.970   0.547   6.488
 6866TIP3   OH220540   6.161   5.153   5.588
 6866TIP3    H120541   6.106   5.174   5.513
 6866TIP3    H220542   6.103   5.106   5.648
 6867TIP3   OH220543   1.829   7.167   3.045
 6867TIP3    H120544   1.812   7.250   3.090
 6867TIP3    H220545   1.924   7.159   3.044
 6868TIP3   OH220546   0.333   4.225   1.470
 6868TIP3    H120547   0.312   4.151   1.413
 6868TIP3    H220548   0.273   4.294   1.444
 6869TIP3   OH220549   3.428   2.311   6.451
 6869TIP3    H120550   3.447   2.224   6.484
 6869TIP3    H220551   3.508   2.337   6.404
 6870TIP3   OH220552   5.816   5.763   4.997
 6870TIP3    H120553   5.729   5.771   5.035
 6870TIP3    H220554   5.820   5.674   4.963
 6871TIP3   OH220555   4.575   3.603   4.007
 6871TIP3    H120556   4.545   3.512   4.003
 6871TIP3    H220557   4.518   3.644   4.072
 6872TIP3   OH220558   0.941   7.489   4.058
 6872TIP3    H120559   1.016   7.454   4.009
 6872TIP3    H220560   0.952   7.455   4.147
 6873TIP3   OH220561   4.530   0.855   1.596
 6873TIP3    H120562   4.534   0.867   1.691
 6873TIP3    H220563   4.615   0.886   1.564
 6874TIP3   OH220564   0.398   1.848   0.693
 6874TIP3    H120565   0.351   1.928   0.716
 6874TIP3    H220566   0.411   1.854   0.598
 6875TIP3   OH220567   4.390   5.487   4.903
 6875TIP3    H120568   4.371   5.421   4.836
 6875TIP3    H220569   4.482   5.470   4.927
 6876TIP3   OH220570   5.762   1.166   3.280
 6876TIP3    H120571   5.723   1.159   3.367
 6876TIP3    H220572   5.776   1.076   3.252
 6877TIP3   OH220573   7.977   1.481   0.924
 6877TIP3    H120574   7.936   1.406   0.967
 6877TIP3    H220575   7.904   1.531   0.888
 6878TIP3   OH220576   2.877   7.272   0.056
 6878TIP3    H120577   2.900   7.221  -0.021
 6878TIP3    H220578   2.849   7.207   0.121
 6879TIP3   OH220579   7.385   0.755   1.490
 6879TIP3    H120580   7.429   0.713   1.564
 6879TIP3    H220581   7.456   0.794   1.438
 6880TIP3   OH220582   3.500   4.348   5.204
 6880TIP3    H120583   3.519   4.261   5.169
 6880TIP3    H220584   3.422   4.376   5.156
 6881TIP3   OH220585   3.520   0.952   4.319
 6881TIP3    H120586   3.553   1.038   4.293
 6881TIP3    H220587   3.578   0.890   4.275
 6882TIP3   OH220588   6.073   2.737   2.669
 6882TIP3    H120589   6.117   2.715   2.587
 6882TIP3    H220590   6.000   2.794   2.643
 6883TIP3   OH220591   3.510   1.685   0.036
 6883TIP3    H120592   3.445   1.623   0.070
 6883TIP3    H220593   3.462   1.768   0.028
 6884TIP3   OH220594   7.093   6.005   4.204
 6884TIP3    H120595   7.048   5.928   4.239
 6884TIP3    H220596   7.024   6.060   4.167
 6885TIP3   OH220597   0.334   1.274   4.606
 6885TIP3    H120598   0.248   1.252   4.572
 6885TIP3    H220599   0.395   1.246   4.537
 6886TIP3   OH220600   5.254   1.648   3.130
 6886TIP3    H120601   5.243   1.632   3.037
 6886TIP3    H220602   5.196   1.721   3.150
 6887TIP3   OH220603   0.743   6.405   2.838
 6887TIP3    H120604   0.684   6.417   2.763
 6887TIP3    H220605   0.775   6.316   2.829
 6888TIP3   OH220606   6.827   2.198   0.829
 6888TIP3    H120607   6.874   2.117   0.812
 6888TIP3    H220608   6.756   2.174   0.888
 6889TIP3   OH220609   4.118   7.745   1.242
 6889TIP3    H120610   4.126   7.834   1.276
 6889TIP3    H220611   4.144   7.753   1.150
 6890TIP3   OH220612   1.020   4.815   5.788
 6890TIP3    H120613   1.090   4.750   5.788
 6890TIP3    H220614   1.050   4.882   5.850
 6891TIP3   OH220615   6.686   1.521   1.368
 6891TIP3    H120616   6.649   1.505   1.281
 6891TIP3    H220617   6.780   1.507   1.356
 6892TIP3   OH220618   0.576   2.182   1.969
 6892TIP3    H120619   0.574   2.119   2.041
 6892TIP3    H220620   0.564   2.129   1.890
 6893TIP3   OH220621   5.710   0.773   0.034
 6893TIP3    H120622   5.682   0.830   0.105
 6893TIP3    H220623   5.715   0.686   0.074
 6894TIP3   OH220624   1.414   5.546  -0.059
 6894TIP3    H120625   1.337   5.583  -0.103
 6894TIP3    H220626   1.414   5.587   0.027
 6895TIP3   OH220627   1.881   7.217   2.763
 6895TIP3    H120628   1.834   7.185   2.687
 6895TIP3    H220629   1.818   7.207   2.836
 6896TIP3   OH220630   5.414   3.022   1.707
 6896TIP3    H120631   5.434   3.116   1.711
 6896TIP3    H220632   5.362   3.013   1.627
 6897TIP3   OH220633   7.543   6.357   1.009
 6897TIP3    H120634   7.591   6.365   0.927
 6897TIP3    H220635   7.501   6.442   1.021
 6898TIP3   OH220636   2.640   3.456   6.650
 6898TIP3    H120637   2.692   3.500   6.717
 6898TIP3    H220638   2.697   3.387   6.617
 6899TIP3   OH220639   0.570   3.463   1.944
 6899TIP3    H120640   0.606   3.469   1.855
 6899TIP3    H220641   0.609   3.537   1.990
 6900TIP3   OH220642   7.818   5.727   3.420
 6900TIP3    H120643   7.833   5.648   3.368
 6900TIP3    H220644   7.899   5.778   3.410
 6901TIP3   OH220645   2.047   3.369   3.407
 6901TIP3    H120646   2.028   3.406   3.494
 6901TIP3    H220647   1.965   3.329   3.379
 6902TIP3   OH220648   7.274   2.908   3.163
 6902TIP3    H120649   7.292   2.856   3.241
 6902TIP3    H220650   7.230   2.847   3.104
 6903TIP3   OH220651   2.999   6.038   6.757
 6903TIP3    H120652   2.977   5.952   6.795
 6903TIP3    H220653   2.928   6.095   6.786
 6904TIP3   OH220654   6.537   5.755   3.571
 6904TIP3    H120655   6.535   5.690   3.642
 6904TIP3    H220656   6.515   5.838   3.614
 6905TIP3   OH220657   3.960   2.818   5.773
 6905TIP3    H120658   3.924   2.838   5.859
 6905TIP3    H220659   3.976   2.724   5.774
 6906TIP3   OH220660   3.486   4.060   1.316
 6906TIP3    H120661   3.403   4.027   1.280
 6906TIP3    H220662   3.476   4.155   1.313
 6907TIP3   OH220663   5.953   5.611   5.494
 6907TIP3    H120664   5.928   5.654   5.412
 6907TIP3    H220665   6.029   5.557   5.470
 6908TIP3   OH220666   0.982   7.271   6.127
 6908TIP3    H120667   1.060   7.216   6.127
 6908TIP3    H220668   1.000   7.339   6.192
 6909TIP3   OH220669   2.988   2.305   6.082
 6909TIP3    H120670   2.969   2.394   6.113
 6909TIP3    H220671   2.967   2.249   6.156
 6910TIP3   OH220672   1.247   3.041   5.245
 6910TIP3    H120673   1.203   3.059   5.328
 6910TIP3    H220674   1.194   2.973   5.204
 6911TIP3   OH220675   3.059   5.395   5.729
 6911TIP3    H120676   3.059   5.430   5.818
 6911TIP3    H220677   3.000   5.320   5.734
 6912TIP3   OH220678   3.685   1.584   0.673
 6912TIP3    H120679   3.672   1.505   0.725
 6912TIP3    H220680   3.733   1.643   0.731
 6913TIP3   OH220681   3.256   7.100   2.829
 6913TIP3    H120682   3.198   7.079   2.902
 6913TIP3    H220683   3.283   7.190   2.845
 6914TIP3   OH220684   4.227   2.658   3.754
 6914TIP3    H120685   4.168   2.604   3.701
 6914TIP3    H220686   4.187   2.746   3.752
 6915TIP3   OH220687   7.999   5.006   3.676
 6915TIP3    H120688   8.038   4.922   3.652
 6915TIP3    H220689   7.982   5.049   3.592
 6916TIP3   OH220690   7.801   5.265   3.003
 6916TIP3    H120691   7.872   5.287   3.063
 6916TIP3    H220692   7.765   5.183   3.036
 6917TIP3   OH220693   6.607   2.384   1.615
 6917TIP3    H120694   6.674   2.451   1.623
 6917TIP3    H220695   6.613   2.353   1.525
 6918TIP3   OH220696   6.811   6.131   2.817
 6918TIP3    H120697   6.784   6.165   2.732
 6918TIP3    H220698   6.837   6.208   2.867
 6919TIP3   OH220699   7.161   6.720   2.737
 6919TIP3    H120700   7.256   6.729   2.732
 6919TIP3    H220701   7.131   6.729   2.646
 6920TIP3   OH220702   5.620   6.954   1.070
 6920TIP3    H120703   5.532   6.960   1.108
 6920TIP3    H220704   5.629   7.034   1.019
 6921TIP3   OH220705   7.813   6.332   1.260
 6921TIP3    H120706   7.786   6.423   1.244
 6921TIP3    H220707   7.747   6.279   1.217
 6922TIP3   OH220708   3.983   0.680   0.729
 6922TIP3    H120709   3.982   0.595   0.773
 6922TIP3    H220710   4.028   0.663   0.646
 6923TIP3   OH220711   4.349   7.362   5.474
 6923TIP3    H120712   4.309   7.390   5.556
 6923TIP3    H220713   4.442   7.381   5.484
 6924TIP3   OH220714   4.134   2.962   5.614
 6924TIP3    H120715   4.106   3.047   5.581
 6924TIP3    H220716   4.062   2.933   5.670
 6925TIP3   OH220717   4.026   0.922   4.252
 6925TIP3    H120718   3.996   0.861   4.320
 6925TIP3    H220719   4.056   0.866   4.181
 6926TIP3   OH220720   5.619   1.365   4.256
 6926TIP3    H120721   5.541   1.321   4.221
 6926TIP3    H220722   5.584   1.444   4.298
 6927TIP3   OH220723   5.741   5.792   4.506
 6927TIP3    H120724   5.834   5.809   4.487
 6927TIP3    H220725   5.743   5.719   4.569
 6928TIP3   OH220726   2.970   7.700   6.552
 6928TIP3    H120727   2.952   7.637   6.482
 6928TIP3    H220728   2.912   7.773   6.534
 6929TIP3   OH220729   4.093   7.183   1.505
 6929TIP3    H120730   4.023   7.194   1.440
 6929TIP3    H220731   4.054   7.215   1.586
 6930TIP3   OH220732   0.757   2.478   1.163
 6930TIP3    H120733   0.735   2.529   1.241
 6930TIP3    H220734   0.821   2.414   1.193
 6931TIP3   OH220735   4.383   0.738   5.448
 6931TIP3    H120736   4.396   0.646   5.471
 6931TIP3    H220737   4.369   0.782   5.532
 6932TIP3   OH220738   1.808   2.010   6.149
 6932TIP3    H120739   1.832   2.004   6.242
 6932TIP3    H220740   1.714   1.990   6.148
 6933TIP3   OH220741   4.897   7.564   0.757
 6933TIP3    H120742   4.893   7.658   0.737
 6933TIP3    H220743   4.816   7.547   0.804
 6934TIP3   OH220744   5.592   5.816   3.064
 6934TIP3    H120745   5.580   5.742   3.003
 6934TIP3    H220746   5.682   5.844   3.050
 6935TIP3   OH220747   1.774   0.265   2.007
 6935TIP3    H120748   1.779   0.202   2.079
 6935TIP3    H220749   1.715   0.333   2.038
 6936TIP3   OH220750   7.432   2.517   1.246
 6936TIP3    H120751   7.372   2.584   1.276
 6936TIP3    H220752   7.383   2.435   1.253
 6937TIP3   OH220753   1.564   2.281   1.063
 6937TIP3    H120754   1.615   2.219   1.009
 6937TIP3    H220755   1.566   2.363   1.013
 6938TIP3   OH220756   1.328   3.797   6.488
 6938TIP3    H120757   1.298   3.819   6.576
 6938TIP3    H220758   1.247   3.782   6.438
 6939TIP3   OH220759   2.321   0.744   4.066
 6939TIP3    H120760   2.365   0.659   4.065
 6939TIP3    H220761   2.375   0.800   4.011
 6940TIP3   OH220762   4.415   6.565   2.669
 6940TIP3    H120763   4.461   6.544   2.588
 6940TIP3    H220764   4.373   6.484   2.696
 6941TIP3   OH220765   1.019   5.330   5.193
 6941TIP3    H120766   1.045   5.394   5.126
 6941TIP3    H220767   1.015   5.247   5.146
 6942TIP3   OH220768   5.721   6.619   0.206
 6942TIP3    H120769   5.652   6.661   0.153
 6942TIP3    H220770   5.685   6.616   0.294
 6943TIP3   OH220771   7.604   0.585   1.172
 6943TIP3    H120772   7.588   0.657   1.233
 6943TIP3    H220773   7.518   0.546   1.157
 6944TIP3   OH220774   5.759   1.940   5.663
 6944TIP3    H120775   5.753   1.857   5.711
 6944TIP3    H220776   5.738   1.916   5.573
 6945TIP3   OH220777   0.942   5.779   5.488
 6945TIP3    H120778   0.889   5.704   5.459
 6945TIP3    H220779   0.995   5.801   5.411
 6946TIP3   OH220780   4.574   5.091   5.841
 6946TIP3    H120781   4.484   5.119   5.858
 6946TIP3    H220782   4.586   5.105   5.747
 6947TIP3   OH220783   2.016   6.967   3.696
 6947TIP3    H120784   1.962   6.888   3.698
 6947TIP3    H220785   2.096   6.940   3.651
 6948TIP3   OH220786   7.745   0.350   4.106
 6948TIP3    H120787   7.712   0.375   4.192
 6948TIP3    H220788   7.738   0.430   4.054
 6949TIP3   OH220789   2.696   6.454   6.763
 6949TIP3    H120790   2.701   6.426   6.854
 6949TIP3    H220791   2.620   6.406   6.727
 6950TIP3   OH220792   2.829   5.963   1.190
 6950TIP3    H120793   2.902   5.904   1.211
 6950TIP3    H220794   2.857   6.009   1.111
 6951TIP3   OH220795   0.988   6.416   6.000
 6951TIP3    H120796   0.942   6.342   6.040
 6951TIP3    H220797   0.918   6.466   5.957
 6952TIP3   OH220798   4.165   3.410   1.066
 6952TIP3    H120799   4.098   3.455   1.118
 6952TIP3    H220800   4.165   3.320   1.098
 6953TIP3   OH220801   4.350   5.284   5.815
 6953TIP3    H120802   4.264   5.319   5.839
 6953TIP3    H220803   4.337   5.244   5.729
 6954TIP3   OH220804   6.607   3.024   3.505
 6954TIP3    H120805   6.617   2.958   3.436
 6954TIP3    H220806   6.555   3.093   3.464
 6955TIP3   OH220807   6.800   4.335   4.345
 6955TIP3    H120808   6.869   4.401   4.341
 6955TIP3    H220809   6.813   4.282   4.266
 6956TIP3   OH220810   2.343   5.731   3.727
 6956TIP3    H120811   2.371   5.821   3.711
 6956TIP3    H220812   2.422   5.688   3.762
 6957TIP3   OH220813   0.734   1.532   6.232
 6957TIP3    H120814   0.805   1.595   6.222
 6957TIP3    H220815   0.777   1.446   6.227
 6958TIP3   OH220816   6.179   1.744   2.379
 6958TIP3    H120817   6.207   1.665   2.333
 6958TIP3    H220818   6.258   1.797   2.388
 6959TIP3   OH220819   3.634   1.823   5.708
 6959TIP3    H120820   3.541   1.827   5.734
 6959TIP3    H220821   3.680   1.865   5.781
 6960TIP3   OH220822   4.016   0.200   4.286
 6960TIP3    H120823   4.054   0.178   4.201
 6960TIP3    H220824   4.043   0.128   4.344
 6961TIP3   OH220825   5.735   4.727   3.129
 6961TIP3    H120826   5.734   4.633   3.144
 6961TIP3    H220827   5.822   4.745   3.094
 6962TIP3   OH220828   5.196   0.867   4.485
 6962TIP3    H120829   5.285   0.865   4.519
 6962TIP3    H220830   5.141   0.844   4.560
 6963TIP3   OH220831   7.874   7.021   4.101
 6963TIP3    H120832   7.796   7.018   4.045
 6963TIP3    H220833   7.899   7.113   4.102
 6964TIP3   OH220834   2.429   2.903   4.998
 6964TIP3    H120835   2.407   2.823   5.047
 6964TIP3    H220836   2.352   2.958   5.007
 6965TIP3   OH220837   6.356   0.986   4.349
 6965TIP3    H120838   6.268   1.024   4.344
 6965TIP3    H220839   6.352   0.926   4.424
 6966TIP3   OH220840   1.985   1.803   1.440
 6966TIP3    H120841   2.048   1.804   1.368
 6966TIP3    H220842   2.001   1.885   1.487
 6967TIP3   OH220843   6.756   0.100   1.871
 6967TIP3    H120844   6.795   0.085   1.785
 6967TIP3    H220845   6.729   0.012   1.899
 6968TIP3   OH220846   3.653   5.116   5.959
 6968TIP3    H120847   3.652   5.023   5.981
 6968TIP3    H220848   3.630   5.161   6.041
 6969TIP3   OH220849   1.914   4.654   4.527
 6969TIP3    H120850   1.827   4.621   4.547
 6969TIP3    H220851   1.960   4.655   4.611
 6970TIP3   OH220852   0.707   6.691   1.477
 6970TIP3    H120853   0.675   6.770   1.433
 6970TIP3    H220854   0.802   6.703   1.483
 6971TIP3   OH220855   4.343   3.830   6.066
 6971TIP3    H120856   4.285   3.814   5.992
 6971TIP3    H220857   4.425   3.859   6.027
 6972TIP3   OH220858   3.709   0.995   5.966
 6972TIP3    H120859   3.663   1.012   5.884
 6972TIP3    H220860   3.751   0.910   5.952
 6973TIP3   OH220861   0.629   5.386   2.107
 6973TIP3    H120862   0.538   5.359   2.120
 6973TIP3    H220863   0.632   5.476   2.139
 6974TIP3   OH220864   4.542   6.285   6.665
 6974TIP3    H120865   4.610   6.247   6.720
 6974TIP3    H220866   4.470   6.303   6.726
 6975TIP3   OH220867   7.560   3.437   6.684
 6975TIP3    H120868   7.611   3.388   6.619
 6975TIP3    H220869   7.571   3.528   6.659
 6976TIP3   OH220870   0.747   5.883   4.642
 6976TIP3    H120871   0.685   5.833   4.695
 6976TIP3    H220872   0.777   5.822   4.575
 6977TIP3   OH220873   5.329   6.266   1.585
 6977TIP3    H120874   5.372   6.225   1.510
 6977TIP3    H220875   5.321   6.358   1.561
 6978TIP3   OH220876   0.353   7.350   2.376
 6978TIP3    H120877   0.393   7.271   2.414
 6978TIP3    H220878   0.315   7.396   2.451
 6979TIP3   OH220879   5.426   2.201   2.831
 6979TIP3    H120880   5.420   2.121   2.883
 6979TIP3    H220881   5.335   2.227   2.817
 6980TIP3   OH220882   0.836   2.100   2.710
 6980TIP3    H120883   0.788   2.054   2.778
 6980TIP3    H220884   0.910   2.043   2.690
 6981TIP3   OH220885   0.489   6.512   1.220
 6981TIP3    H120886   0.551   6.585   1.214
 6981TIP3    H220887   0.536   6.437   1.183
 6982TIP3   OH220888   5.359   2.255   6.173
 6982TIP3    H120889   5.420   2.327   6.188
 6982TIP3    H220890   5.326   2.233   6.260
 6983TIP3   OH220891   4.692   3.516   2.092
 6983TIP3    H120892   4.645   3.433   2.095
 6983TIP3    H220893   4.676   3.549   2.003
 6984TIP3   OH220894   2.249   1.564   6.501
 6984TIP3    H120895   2.191   1.597   6.432
 6984TIP3    H220896   2.189   1.539   6.572
 6985TIP3   OH220897   0.274   4.205   2.917
 6985TIP3    H120898   0.336   4.277   2.927
 6985TIP3    H220899   0.295   4.145   2.988
 6986TIP3   OH220900   6.923   0.614   1.199
 6986TIP3    H120901   7.013   0.647   1.212
 6986TIP3    H220902   6.882   0.680   1.142
 6987TIP3   OH220903   6.546   6.170   1.353
 6987TIP3    H120904   6.580   6.176   1.264
 6987TIP3    H220905   6.527   6.077   1.366
 6988TIP3   OH220906   3.773   1.095   1.282
 6988TIP3    H120907   3.833   1.119   1.353
 6988TIP3    H220908   3.821   1.028   1.232
 6989TIP3   OH220909   5.445   6.275   2.965
 6989TIP3    H120910   5.537   6.269   2.989
 6989TIP3    H220911   5.420   6.185   2.945
 6990TIP3   OH220912   7.740   1.216   3.566
 6990TIP3    H120913   7.698   1.300   3.584
 6990TIP3    H220914   7.776   1.189   3.650
 6991TIP3   OH220915   3.121   1.968   2.933
 6991TIP3    H120916   3.062   2.003   2.999
 6991TIP3    H220917   3.183   1.913   2.982
 6992TIP3   OH220918   3.664   7.526   4.757
 6992TIP3    H120919   3.675   7.507   4.663
 6992TIP3    H220920   3.578   7.489   4.778
 6993TIP3   OH220921   4.257   1.980   3.827
 6993TIP3    H120922   4.225   2.005   3.914
 6993TIP3    H220923   4.231   1.889   3.817
 6994TIP3   OH220924   5.235   0.711   3.932
 6994TIP3    H120925   5.303   0.646   3.914
 6994TIP3    H220926   5.159   0.660   3.957
 6995TIP3   OH220927   0.309   2.555   4.831
 6995TIP3    H120928   0.296   2.610   4.908
 6995TIP3    H220929   0.322   2.467   4.866
 6996TIP3   OH220930   7.511   5.014   0.898
 6996TIP3    H120931   7.491   5.100   0.936
 6996TIP3    H220932   7.427   4.983   0.864
 6997TIP3   OH220933   4.062   5.332   5.768
 6997TIP3    H120934   4.081   5.287   5.850
 6997TIP3    H220935   3.975   5.300   5.743
 6998TIP3   OH220936   1.269   1.670   2.975
 6998TIP3    H120937   1.197   1.617   2.942
 6998TIP3    H220938   1.254   1.676   3.069
 6999TIP3   OH220939   0.787   3.040   2.683
 6999TIP3    H120940   0.746   3.072   2.763
 6999TIP3    H220941   0.713   3.022   2.624
 7000TIP3   OH220942   3.627   3.505   5.019
 7000TIP3    H120943   3.643   3.431   4.960
 7000TIP3    H220944   3.568   3.563   4.970
 7001TIP3   OH220945   5.188   1.896   4.280
 7001TIP3    H120946   5.126   1.836   4.238
 7001TIP3    H220947   5.134   1.969   4.311
 7002TIP3   OH220948   0.670   6.763   2.690
 7002TIP3    H120949   0.759   6.763   2.725
 7002TIP3    H220950   0.616   6.729   2.762
 7003TIP3   OH220951   5.008   0.057   3.975
 7003TIP3    H120952   5.057   0.003   3.913
 7003TIP3    H220953   5.073   0.116   4.012
 7004TIP3   OH220954   7.650   2.858   1.852
 7004TIP3    H120955   7.679   2.915   1.781
 7004TIP3    H220956   7.686   2.772   1.830
 7005TIP3   OH220957   1.030   6.887   6.134
 7005TIP3    H120958   1.037   6.902   6.039
 7005TIP3    H220959   1.103   6.936   6.171
 7006TIP3   OH220960   3.017   2.664   4.894
 7006TIP3    H120961   3.025   2.569   4.885
 7006TIP3    H220962   3.087   2.688   4.955
 7007TIP3   OH220963   3.071   1.194   5.570
 7007TIP3    H120964   3.097   1.244   5.647
 7007TIP3    H220965   2.998   1.243   5.533
 7008TIP3   OH220966   2.267   5.144   1.294
 7008TIP3    H120967   2.277   5.179   1.383
 7008TIP3    H220968   2.239   5.054   1.306
 7009TIP3   OH220969   0.346   4.608   0.218
 7009TIP3    H120970   0.319   4.553   0.144
 7009TIP3    H220971   0.266   4.652   0.246
 7010TIP3   OH220972   2.490   2.070   2.089
 7010TIP3    H120973   2.493   2.136   2.020
 7010TIP3    H220974   2.520   1.989   2.047
 7011TIP3   OH220975   5.831   4.336   3.202
 7011TIP3    H120976   5.787   4.331   3.286
 7011TIP3    H220977   5.766   4.374   3.143
 7012TIP3   OH220978   3.895   4.650   5.597
 7012TIP3    H120979   3.855   4.684   5.676
 7012TIP3    H220980   3.821   4.617   5.545
 7013TIP3   OH220981   7.074   3.826   4.291
 7013TIP3    H120982   7.081   3.912   4.250
 7013TIP3    H220983   6.987   3.794   4.266
 7014TIP3   OH220984   8.217   6.524   4.018
 7014TIP3    H120985   8.238   6.486   4.103
 7014TIP3    H220986   8.286   6.492   3.959
 7015TIP3   OH220987   0.046   1.261   1.884
 7015TIP3    H120988   0.085   1.303   1.961
 7015TIP3    H220989   0.119   1.248   1.824
 7016TIP3   OH220990   4.218   1.825   4.968
 7016TIP3    H120991   4.308   1.821   4.998
 7016TIP3    H220992   4.192   1.734   4.959
 7017TIP3   OH220993   8.039   0.395   5.278
 7017TIP3    H120994   8.082   0.466   5.327
 7017TIP3    H220995   7.977   0.440   5.221
 7018TIP3   OH220996   6.500   0.200   0.167
 7018TIP3    H120997   6.448   0.267   0.122
 7018TIP3    H220998   6.574   0.248   0.204
 7019TIP3   OH220999   6.622   3.494   5.431
 7019TIP3    H121000   6.628   3.579   5.389
 7019TIP3    H221001   6.668   3.505   5.515
 7020TIP3   OH221002   1.817   0.274   5.768
 7020TIP3    H121003   1.763   0.225   5.831
 7020TIP3    H221004   1.893   0.302   5.819
 7021TIP3   OH221005   5.783   4.094   2.614
 7021TIP3    H121006   5.746   4.009   2.592
 7021TIP3    H221007   5.877   4.078   2.622
 7022TIP3   OH221008   0.662   3.362   0.031
 7022TIP3    H121009   0.607   3.286   0.051
 7022TIP3    H221010   0.682   3.400   0.117
 7023TIP3   OH221011   2.957   1.377   4.615
 7023TIP3    H121012   2.873   1.421   4.599
 7023TIP3    H221013   2.967   1.380   4.711
 7024TIP3   OH221014   8.292   4.658   5.469
 7024TIP3    H121015   8.274   4.659   5.563
 7024TIP3    H221016   8.340   4.740   5.454
 7025TIP3   OH221017   8.005   4.090   5.671
 7025TIP3    H121018   8.017   4.056   5.760
 7025TIP3    H221019   8.026   4.183   5.678
 7026TIP3   OH221020   8.341   2.385   3.846
 7026TIP3    H121021   8.329   2.384   3.751
 7026TIP3    H221022   8.302   2.302   3.875
 7027TIP3   OH221023   2.998   5.661   6.491
 7027TIP3    H121024   3.040   5.747   6.502
 7027TIP3    H221025   2.939   5.673   6.417
 7028TIP3   OH221026   3.252   5.185   6.442
 7028TIP3    H121027   3.301   5.236   6.506
 7028TIP3    H221028   3.191   5.248   6.404
 7029TIP3   OH221029   4.188   2.323   5.506
 7029TIP3    H121030   4.186   2.255   5.439
 7029TIP3    H221031   4.192   2.405   5.457
 7030TIP3   OH221032   7.615   4.187   1.361
 7030TIP3    H121033   7.703   4.215   1.334
 7030TIP3    H221034   7.559   4.209   1.286
 7031TIP3   OH221035   6.102   6.883   0.439
 7031TIP3    H121036   6.150   6.802   0.422
 7031TIP3    H221037   6.018   6.871   0.394
 7032TIP3   OH221038   1.961   7.357   2.349
 7032TIP3    H121039   1.910   7.405   2.414
 7032TIP3    H221040   1.989   7.277   2.394
 7033TIP3   OH221041   0.427   7.714   4.796
 7033TIP3    H121042   0.478   7.735   4.718
 7033TIP3    H221043   0.359   7.654   4.765
 7034TIP3   OH221044   5.595   2.597   0.952
 7034TIP3    H121045   5.621   2.666   1.012
 7034TIP3    H221046   5.642   2.519   0.982
 7035TIP3   OH221047   1.428   6.649   3.046
 7035TIP3    H121048   1.423   6.689   2.959
 7035TIP3    H221049   1.506   6.594   3.043
 7036TIP3   OH221050   3.741   0.870   5.009
 7036TIP3    H121051   3.702   0.957   5.022
 7036TIP3    H221052   3.739   0.830   5.095
 7037TIP3   OH221053   0.425   2.259   3.052
 7037TIP3    H121054   0.337   2.226   3.067
 7037TIP3    H221055   0.478   2.181   3.039
 7038TIP3   OH221056   1.301   0.112   5.391
 7038TIP3    H121057   1.339   0.026   5.410
 7038TIP3    H221058   1.360   0.174   5.434
 7039TIP3   OH221059   3.644   5.677   3.824
 7039TIP3    H121060   3.608   5.615   3.761
 7039TIP3    H221061   3.616   5.763   3.791
 7040TIP3   OH221062   7.354   6.413   5.171
 7040TIP3    H121063   7.300   6.406   5.092
 7040TIP3    H221064   7.420   6.479   5.150
 7041TIP3   OH221065   4.416   6.077   1.154
 7041TIP3    H121066   4.485   6.012   1.146
 7041TIP3    H221067   4.424   6.130   1.075
 7042TIP3   OH221068   6.286   5.417   3.813
 7042TIP3    H121069   6.348   5.392   3.745
 7042TIP3    H221070   6.252   5.334   3.847
 7043TIP3   OH221071   4.892   6.995   5.712
 7043TIP3    H121072   4.911   7.018   5.621
 7043TIP3    H221073   4.972   6.951   5.742
 7044TIP3   OH221074   1.825   0.726   4.495
 7044TIP3    H121075   1.853   0.776   4.572
 7044TIP3    H221076   1.731   0.715   4.508
 7045TIP3   OH221077   6.507   7.232   3.628
 7045TIP3    H121078   6.588   7.180   3.628
 7045TIP3    H221079   6.440   7.172   3.595
 7046TIP3   OH221080   1.224   1.000   2.002
 7046TIP3    H121081   1.167   1.072   2.031
 7046TIP3    H221082   1.250   1.025   1.914
 7047TIP3   OH221083   7.991   5.417   5.575
 7047TIP3    H121084   8.044   5.394   5.499
 7047TIP3    H221085   8.034   5.494   5.612
 7048TIP3   OH221086   5.762   0.099   4.369
 7048TIP3    H121087   5.754   0.181   4.417
 7048TIP3    H221088   5.722   0.116   4.284
 7049TIP3   OH221089   5.272   7.669   1.459
 7049TIP3    H121090   5.297   7.581   1.428
 7049TIP3    H221091   5.177   7.671   1.450
 7050TIP3   OH221092   6.166   5.387  -0.005
 7050TIP3    H121093   6.089   5.334  -0.027
 7050TIP3    H221094   6.210   5.338   0.064
 7051TIP3   OH221095   4.321   0.276   1.874
 7051TIP3    H121096   4.337   0.190   1.912
 7051TIP3    H221097   4.285   0.328   1.946
 7052TIP3   OH221098   3.212   4.323   0.292
 7052TIP3    H121099   3.284   4.325   0.355
 7052TIP3    H221100   3.177   4.234   0.300
 7053TIP3   OH221101   6.924   7.359   2.704
 7053TIP3    H121102   6.924   7.309   2.785
 7053TIP3    H221103   6.864   7.311   2.646
 7054TIP3   OH221104   2.881   0.809   3.201
 7054TIP3    H121105   2.825   0.779   3.273
 7054TIP3    H221106   2.923   0.729   3.169
 7055TIP3   OH221107   3.931   3.344   0.368
 7055TIP3    H121108   3.915   3.416   0.307
 7055TIP3    H221109   3.849   3.335   0.417
 7056TIP3   OH221110   7.077   3.536   1.319
 7056TIP3    H121111   7.069   3.586   1.237
 7056TIP3    H221112   7.171   3.532   1.335
 7057TIP3   OH221113   3.871   4.057   3.659
 7057TIP3    H121114   3.903   4.079   3.747
 7057TIP3    H221115   3.928   4.105   3.599
 7058TIP3   OH221116   6.108   5.432   2.466
 7058TIP3    H121117   6.165   5.509   2.463
 7058TIP3    H221118   6.160   5.364   2.508
 7059TIP3   OH221119   7.978   4.356   5.244
 7059TIP3    H121120   7.886   4.333   5.229
 7059TIP3    H221121   7.975   4.441   5.288
 7060TIP3   OH221122   7.148   4.945   0.031
 7060TIP3    H121123   7.125   4.906  -0.054
 7060TIP3    H221124   7.234   4.909   0.052
 7061TIP3   OH221125   7.387   1.907   0.456
 7061TIP3    H121126   7.435   1.828   0.480
 7061TIP3    H221127   7.450   1.978   0.467
 7062TIP3   OH221128   3.363   4.409   3.569
 7062TIP3    H121129   3.359   4.349   3.644
 7062TIP3    H221130   3.343   4.355   3.493
 7063TIP3   OH221131   6.044   6.444   5.146
 7063TIP3    H121132   6.051   6.387   5.069
 7063TIP3    H221133   6.086   6.526   5.119
 7064TIP3   OH221134   7.937   1.207   6.243
 7064TIP3    H121135   7.855   1.158   6.232
 7064TIP3    H221136   7.914   1.297   6.221
 7065TIP3   OH221137   6.214   2.356   0.951
 7065TIP3    H121138   6.172   2.309   0.878
 7065TIP3    H221139   6.210   2.448   0.925
 7066TIP3   OH221140   0.766   2.509   6.156
 7066TIP3    H121141   0.770   2.557   6.074
 7066TIP3    H221142   0.811   2.427   6.139
 7067TIP3   OH221143   2.446   1.732   4.801
 7067TIP3    H121144   2.504   1.727   4.877
 7067TIP3    H221145   2.397   1.813   4.813
 7068TIP3   OH221146   5.604   3.434   5.210
 7068TIP3    H121147   5.578   3.450   5.119
 7068TIP3    H221148   5.698   3.454   5.211
 7069TIP3   OH221149   5.441   6.228   4.741
 7069TIP3    H121150   5.409   6.316   4.718
 7069TIP3    H221151   5.392   6.169   4.684
 7070TIP3   OH221152   3.686   6.006   0.312
 7070TIP3    H121153   3.764   6.039   0.269
 7070TIP3    H221154   3.717   5.937   0.370
 7071TIP3   OH221155   0.108   2.980   1.115
 7071TIP3    H121156   0.203   2.992   1.114
 7071TIP3    H221157   0.081   3.007   1.203
 7072TIP3   OH221158   4.601   4.344   5.383
 7072TIP3    H121159   4.672   4.283   5.402
 7072TIP3    H221160   4.644   4.428   5.370
 7073TIP3   OH221161   7.565   3.678   6.369
 7073TIP3    H121162   7.601   3.600   6.327
 7073TIP3    H221163   7.470   3.668   6.361
 7074TIP3   OH221164   5.924   6.228   5.295
 7074TIP3    H121165   5.875   6.265   5.368
 7074TIP3    H221166   5.953   6.305   5.245
 7075TIP3   OH221167   1.813   7.186   4.554
 7075TIP3    H121168   1.746   7.169   4.620
 7075TIP3    H221169   1.812   7.281   4.543
 7076TIP3   OH221170   3.207   5.628   2.701
 7076TIP3    H121171   3.149   5.586   2.765
 7076TIP3    H221172   3.167   5.609   2.616
 7077TIP3   OH221173   5.993   0.179   5.918
 7077TIP3    H121174   5.944   0.111   5.871
 7077TIP3    H221175   5.998   0.252   5.857
 7078TIP3   OH221176   7.894   6.218   5.414
 7078TIP3    H121177   7.976   6.174   5.434
 7078TIP3    H221178   7.840   6.204   5.491
 7079TIP3   OH221179   7.487   7.520   5.799
 7079TIP3    H121180   7.544   7.492   5.871
 7079TIP3    H221181   7.540   7.581   5.748
 7080TIP3   OH221182   2.631   3.968   4.048
 7080TIP3    H121183   2.700   4.027   4.016
 7080TIP3    H221184   2.658   3.946   4.137
 7081TIP3   OH221185   1.657   2.722   1.136
 7081TIP3    H121186   1.713   2.794   1.107
 7081TIP3    H221187   1.661   2.725   1.231
 7082TIP3   OH221188   0.573   5.022   6.389
 7082TIP3    H121189   0.486   5.062   6.380
 7082TIP3    H221190   0.625   5.087   6.436
 7083TIP3   OH221191   0.497   6.986   1.592
 7083TIP3    H121192   0.466   7.037   1.666
 7083TIP3    H221193   0.571   7.036   1.557
 7084TIP3   OH221194   2.963   3.974   1.176
 7084TIP3    H121195   2.962   4.014   1.263
 7084TIP3    H221196   2.946   3.881   1.192
 7085TIP3   OH221197   7.574   5.808   3.306
 7085TIP3    H121198   7.640   5.769   3.363
 7085TIP3    H221199   7.614   5.806   3.219
 7086TIP3   OH221200   6.569   7.075   3.341
 7086TIP3    H121201   6.617   7.034   3.269
 7086TIP3    H221202   6.503   7.011   3.367
 7087TIP3   OH221203   0.603   2.462   2.441
 7087TIP3    H121204   0.666   2.426   2.503
 7087TIP3    H221205   0.520   2.464   2.489
 7088TIP3   OH221206   6.559   2.348   4.295
 7088TIP3    H121207   6.521   2.432   4.318
 7088TIP3    H221208   6.544   2.339   4.201
 7089TIP3   OH221209   3.747   0.236   3.880
 7089TIP3    H121210   3.660   0.256   3.915
 7089TIP3    H221211   3.806   0.245   3.955
 7090TIP3   OH221212   0.823   6.030   5.080
 7090TIP3    H121213   0.786   6.116   5.060
 7090TIP3    H221214   0.917   6.045   5.090
 7091TIP3   OH221215   2.777   1.862   2.529
 7091TIP3    H121216   2.688   1.832   2.549
 7091TIP3    H221217   2.779   1.867   2.433
 7092TIP3   OH221218   0.445   0.669   6.386
 7092TIP3    H121219   0.412   0.756   6.408
 7092TIP3    H221220   0.417   0.655   6.295
 7093TIP3   OH221221   1.238   0.419   2.797
 7093TIP3    H121222   1.145   0.399   2.803
 7093TIP3    H221223   1.256   0.428   2.704
 7094TIP3   OH221224   3.443   0.008   6.218
 7094TIP3    H121225   3.534  -0.017   6.234
 7094TIP3    H221226   3.449   0.091   6.170
 7095TIP3   OH221227   0.072   3.307   5.775
 7095TIP3    H121228   0.081   3.240   5.842
 7095TIP3    H221229   0.124   3.274   5.701
 7096TIP3   OH221230   0.315   6.421   3.410
 7096TIP3    H121231   0.245   6.468   3.364
 7096TIP3    H221232   0.309   6.452   3.500
 7097TIP3   OH221233   6.270   1.179   1.746
 7097TIP3    H121234   6.215   1.215   1.677
 7097TIP3    H221235   6.253   1.085   1.743
 7098TIP3   OH221236   3.184   2.276   3.415
 7098TIP3    H121237   3.280   2.277   3.418
 7098TIP3    H221238   3.161   2.186   3.440
 7099TIP3   OH221239   5.287   1.085   1.212
 7099TIP3    H121240   5.338   1.166   1.214
 7099TIP3    H221241   5.212   1.102   1.269
 7100TIP3   OH221242   2.146   4.481   6.319
 7100TIP3    H121243   2.079   4.413   6.327
 7100TIP3    H221244   2.216   4.454   6.377
 7101TIP3   OH221245   5.598   0.287   0.422
 7101TIP3    H121246   5.622   0.217   0.362
 7101TIP3    H221247   5.670   0.350   0.415
 7102TIP3   OH221248   6.232   4.480   1.695
 7102TIP3    H121249   6.258   4.456   1.784
 7102TIP3    H221250   6.140   4.504   1.702
 7103TIP3   OH221251   4.309   0.008   5.236
 7103TIP3    H121252   4.319  -0.052   5.309
 7103TIP3    H221253   4.249   0.075   5.268
 7104TIP3   OH221254   5.234   6.259   5.121
 7104TIP3    H121255   5.272   6.205   5.190
 7104TIP3    H221256   5.309   6.304   5.081
 7105TIP3   OH221257   6.552   1.482   1.110
 7105TIP3    H121258   6.581   1.404   1.064
 7105TIP3    H221259   6.483   1.519   1.055
 7106TIP3   OH221260   6.159   3.234   0.185
 7106TIP3    H121261   6.104   3.167   0.224
 7106TIP3    H221262   6.135   3.315   0.232
 7107TIP3   OH221263   2.468   6.347   3.780
 7107TIP3    H121264   2.402   6.279   3.793
 7107TIP3    H221265   2.447   6.385   3.695
 7108TIP3   OH221266   4.416   4.198   3.732
 7108TIP3    H121267   4.441   4.166   3.645
 7108TIP3    H221268   4.363   4.128   3.768
 7109TIP3   OH221269   0.411   7.182   4.613
 7109TIP3    H121270   0.354   7.192   4.688
 7109TIP3    H221271   0.404   7.089   4.589
 7110TIP3   OH221272   8.132   5.830   5.147
 7110TIP3    H121273   8.132   5.753   5.090
 7110TIP3    H221274   8.040   5.852   5.159
 7111TIP3   OH221275   2.079   6.496   0.277
 7111TIP3    H121276   2.166   6.534   0.293
 7111TIP3    H221277   2.019   6.554   0.323
 7112TIP3   OH221278   3.690   0.074   4.749
 7112TIP3    H121279   3.618   0.012   4.744
 7112TIP3    H221280   3.674   0.135   4.677
 7113TIP3   OH221281   5.999   3.689   2.665
 7113TIP3    H121282   6.087   3.658   2.686
 7113TIP3    H221283   5.961   3.711   2.750
 7114TIP3   OH221284   3.484   1.595   2.345
 7114TIP3    H121285   3.579   1.586   2.337
 7114TIP3    H221286   3.456   1.627   2.259
 7115TIP3   OH221287   0.394   1.459   1.645
 7115TIP3    H121288   0.454   1.488   1.713
 7115TIP3    H221289   0.434   1.489   1.563
 7116TIP3   OH221290   5.201   1.915   0.788
 7116TIP3    H121291   5.194   1.891   0.880
 7116TIP3    H221292   5.295   1.912   0.769
 7117TIP3   OH221293   3.354   3.362   2.930
 7117TIP3    H121294   3.278   3.304   2.932
 7117TIP3    H221295   3.367   3.381   2.837
 7118TIP3   OH221296   5.507   5.966   4.149
 7118TIP3    H121297   5.586   5.982   4.201
 7118TIP3    H221298   5.443   6.029   4.180
 7119TIP3   OH221299   2.095   6.213   2.903
 7119TIP3    H121300   2.174   6.163   2.881
 7119TIP3    H221301   2.123   6.304   2.903
 7120TIP3   OH221302   0.434   6.413   3.729
 7120TIP3    H121303   0.413   6.504   3.750
 7120TIP3    H221304   0.446   6.370   3.814
 7121TIP3   OH221305   5.099   5.470   1.858
 7121TIP3    H121306   5.167   5.536   1.842
 7121TIP3    H221307   5.046   5.506   1.928
 7122TIP3   OH221308   5.453   5.868   6.073
 7122TIP3    H121309   5.361   5.890   6.090
 7122TIP3    H221310   5.448   5.792   6.014
 7123TIP3   OH221311   6.015   2.681   0.937
 7123TIP3    H121312   5.941   2.742   0.926
 7123TIP3    H221313   6.085   2.719   0.884
 7124TIP3   OH221314   4.605   1.858   3.824
 7124TIP3    H121315   4.651   1.824   3.901
 7124TIP3    H221316   4.632   1.950   3.819
 7125TIP3   OH221317   7.814   7.463   6.709
 7125TIP3    H121318   7.728   7.457   6.667
 7125TIP3    H221319   7.812   7.394   6.776
 7126TIP3   OH221320   2.049   7.479   5.794
 7126TIP3    H121321   2.101   7.542   5.844
 7126TIP3    H221322   2.061   7.396   5.841
 7127TIP3   OH221323   4.318   2.819   4.940
 7127TIP3    H121324   4.261   2.891   4.912
 7127TIP3    H221325   4.379   2.860   5.002
 7128TIP3   OH221326   6.905   2.090   5.576
 7128TIP3    H121327   6.891   2.178   5.542
 7128TIP3    H221328   6.817   2.053   5.584
 7129TIP3   OH221329   5.216   0.556   1.875
 7129TIP3    H121330   5.290   0.613   1.854
 7129TIP3    H221331   5.195   0.577   1.966
 7130TIP3   OH221332   6.921   6.029   1.653
 7130TIP3    H121333   7.015   6.045   1.649
 7130TIP3    H221334   6.890   6.043   1.563
 7131TIP3   OH221335   2.990   4.337   4.094
 7131TIP3    H121336   2.963   4.424   4.125
 7131TIP3    H221337   3.023   4.354   4.005
 7132TIP3   OH221338   2.300   3.908   2.803
 7132TIP3    H121339   2.265   3.882   2.718
 7132TIP3    H221340   2.312   4.003   2.795
 7133TIP3   OH221341   7.713   4.347   4.250
 7133TIP3    H121342   7.782   4.284   4.231
 7133TIP3    H221343   7.756   4.433   4.245
 7134TIP3   OH221344   1.173   1.747   5.264
 7134TIP3    H121345   1.142   1.829   5.302
 7134TIP3    H221346   1.222   1.705   5.334
 7135TIP3   OH221347   5.003   3.493   1.787
 7135TIP3    H121348   4.996   3.540   1.869
 7135TIP3    H221349   4.961   3.550   1.722
 7136TIP3   OH221350   0.213   5.651   5.432
 7136TIP3    H121351   0.160   5.719   5.474
 7136TIP3    H221352   0.252   5.695   5.356
 7137TIP3   OH221353   1.235   4.468   4.687
 7137TIP3    H121354   1.279   4.402   4.635
 7137TIP3    H221355   1.272   4.552   4.658
 7138TIP3   OH221356   3.820   4.503   4.959
 7138TIP3    H121357   3.848   4.470   5.045
 7138TIP3    H221358   3.740   4.552   4.977
 7139TIP3   OH221359   2.038   5.005   5.397
 7139TIP3    H121360   2.045   4.921   5.443
 7139TIP3    H221361   2.064   4.985   5.307
 7140TIP3   OH221362   4.544   5.579   1.565
 7140TIP3    H121363   4.617   5.526   1.598
 7140TIP3    H221364   4.467   5.544   1.609
 7141TIP3   OH221365   1.185   0.602   0.754
 7141TIP3    H121366   1.199   0.596   0.848
 7141TIP3    H221367   1.115   0.666   0.743
 7142TIP3   OH221368   5.221   4.305   3.059
 7142TIP3    H121369   5.181   4.374   3.006
 7142TIP3    H221370   5.250   4.240   2.995
 7143TIP3   OH221371   0.919   2.920   4.477
 7143TIP3    H121372   0.870   2.863   4.418
 7143TIP3    H221373   0.915   3.006   4.436
 7144TIP3   OH221374   2.977   4.142   2.121
 7144TIP3    H121375   3.037   4.186   2.062
 7144TIP3    H221376   2.920   4.211   2.155
 7145TIP3   OH221377   6.260   5.970   3.414
 7145TIP3    H121378   6.280   5.878   3.398
 7145TIP3    H221379   6.345   6.014   3.412
 7146TIP3   OH221380   7.871   2.661   5.728
 7146TIP3    H121381   7.881   2.698   5.640
 7146TIP3    H221382   7.788   2.695   5.760
 7147TIP3   OH221383   1.723   2.658   4.164
 7147TIP3    H121384   1.665   2.717   4.115
 7147TIP3    H221385   1.752   2.710   4.239
 7148TIP3   OH221386   5.180   6.744   0.650
 7148TIP3    H121387   5.237   6.683   0.697
 7148TIP3    H221388   5.233   6.822   0.638
 7149TIP3   OH221389   5.071   5.736   2.113
 7149TIP3    H121390   4.988   5.689   2.104
 7149TIP3    H221391   5.055   5.822   2.074
 7150TIP3   OH221392   7.978   4.148   0.400
 7150TIP3    H121393   8.002   4.138   0.492
 7150TIP3    H221394   7.912   4.217   0.400
 7151TIP3   OH221395   4.505   7.482   1.246
 7151TIP3    H121396   4.538   7.569   1.224
 7151TIP3    H221397   4.410   7.491   1.245
 7152TIP3   OH221398   5.341   4.955   3.189
 7152TIP3    H121399   5.383   5.010   3.123
 7152TIP3    H221400   5.277   5.013   3.232
 7153TIP3   OH221401   6.329   5.908   5.360
 7153TIP3    H121402   6.249   5.882   5.316
 7153TIP3    H221403   6.345   5.839   5.425
 7154TIP3   OH221404   0.446   6.656   4.878
 7154TIP3    H121405   0.464   6.563   4.870
 7154TIP3    H221406   0.515   6.698   4.828
 7155TIP3   OH221407   2.808   4.875   3.409
 7155TIP3    H121408   2.885   4.852   3.461
 7155TIP3    H221409   2.831   4.958   3.367
 7156TIP3   OH221410   2.564   3.495   1.100
 7156TIP3    H121411   2.591   3.409   1.136
 7156TIP3    H221412   2.472   3.503   1.124
 7157TIP3   OH221413   1.817   6.173   1.788
 7157TIP3    H121414   1.864   6.236   1.733
 7157TIP3    H221415   1.876   6.099   1.797
 7158TIP3   OH221416   3.080   0.206   5.718
 7158TIP3    H121417   3.115   0.139   5.778
 7158TIP3    H221418   2.992   0.223   5.750
 7159TIP3   OH221419   6.398   4.413   3.932
 7159TIP3    H121420   6.394   4.509   3.927
 7159TIP3    H221421   6.316   4.388   3.974
 7160TIP3   OH221422   1.645   3.313   5.104
 7160TIP3    H121423   1.654   3.387   5.164
 7160TIP3    H221424   1.608   3.243   5.156
 7161TIP3   OH221425   6.545   0.762   3.398
 7161TIP3    H121426   6.621   0.743   3.343
 7161TIP3    H221427   6.582   0.794   3.480
 7162TIP3   OH221428   6.991   7.737   5.434
 7162TIP3    H121429   6.972   7.713   5.524
 7162TIP3    H221430   7.085   7.723   5.424
 7163TIP3   OH221431   5.071   6.377   5.906
 7163TIP3    H121432   4.991   6.426   5.885
 7163TIP3    H221433   5.140   6.442   5.902
 7164TIP3   OH221434   7.761   1.971   5.648
 7164TIP3    H121435   7.693   1.912   5.615
 7164TIP3    H221436   7.823   1.913   5.693
 7165TIP3   OH221437   1.512   0.401   2.867
 7165TIP3    H121438   1.444   0.446   2.818
 7165TIP3    H221439   1.465   0.346   2.929
 7166TIP3   OH221440   3.219   3.534   0.846
 7166TIP3    H121441   3.192   3.605   0.905
 7166TIP3    H221442   3.285   3.486   0.895
 7167TIP3   OH221443   7.009   3.714   0.802
 7167TIP3    H121444   7.088   3.665   0.778
 7167TIP3    H221445   7.026   3.743   0.892
 7168TIP3   OH221446   1.097   3.786   5.222
 7168TIP3    H121447   1.132   3.853   5.280
 7168TIP3    H221448   1.002   3.790   5.234
 7169TIP3   OH221449   1.780   1.169   0.215
 7169TIP3    H121450   1.865   1.129   0.228
 7169TIP3    H221451   1.798   1.250   0.167
 7170TIP3   OH221452   0.089   5.442   6.496
 7170TIP3    H121453   0.028   5.474   6.430
 7170TIP3    H221454   0.089   5.347   6.485
 7171TIP3   OH221455   2.450   3.599   2.743
 7171TIP3    H121456   2.365   3.596   2.786
 7171TIP3    H221457   2.497   3.670   2.785
 7172TIP3   OH221458   4.514   7.170   3.059
 7172TIP3    H121459   4.465   7.243   3.094
 7172TIP3    H221460   4.459   7.093   3.075
 7173TIP3   OH221461   4.826   4.170   1.037
 7173TIP3    H121462   4.793   4.088   0.999
 7173TIP3    H221463   4.812   4.159   1.131
 7174TIP3   OH221464   4.532   2.641   4.010
 7174TIP3    H121465   4.559   2.615   4.098
 7174TIP3    H221466   4.484   2.565   3.976
 7175TIP3   OH221467   6.942   1.913   0.804
 7175TIP3    H121468   6.905   1.882   0.721
 7175TIP3    H221469   7.036   1.922   0.786
 7176TIP3   OH221470   5.702   4.043   6.490
 7176TIP3    H121471   5.633   3.999   6.538
 7176TIP3    H221472   5.778   3.985   6.498
 7177TIP3   OH221473   2.774   1.973   6.437
 7177TIP3    H121474   2.730   1.918   6.502
 7177TIP3    H221475   2.721   2.052   6.433
 7178TIP3   OH221476   0.526   6.529   0.437
 7178TIP3    H121477   0.496   6.617   0.460
 7178TIP3    H221478   0.620   6.530   0.455
 7179TIP3   OH221479   0.423   3.643   3.431
 7179TIP3    H121480   0.334   3.619   3.405
 7179TIP3    H221481   0.432   3.734   3.404
 7180TIP3   OH221482   3.440   3.694   0.833
 7180TIP3    H121483   3.355   3.651   0.819
 7180TIP3    H221484   3.462   3.674   0.924
 7181TIP3   OH221485   1.833   0.776   2.924
 7181TIP3    H121486   1.811   0.725   2.846
 7181TIP3    H221487   1.927   0.789   2.919
 7182TIP3   OH221488   6.629   0.449   6.656
 7182TIP3    H121489   6.537   0.422   6.656
 7182TIP3    H221490   6.638   0.502   6.735
 7183TIP3   OH221491   6.440   2.624   4.621
 7183TIP3    H121492   6.392   2.693   4.666
 7183TIP3    H221493   6.520   2.667   4.590
 7184TIP3   OH221494   4.022   2.867   2.081
 7184TIP3    H121495   3.990   2.792   2.131
 7184TIP3    H221496   3.985   2.855   1.994
 7185TIP3   OH221497   1.717   1.414   2.260
 7185TIP3    H121498   1.784   1.459   2.311
 7185TIP3    H221499   1.744   1.322   2.263
 7186TIP3   OH221500   6.121   0.766   4.692
 7186TIP3    H121501   6.155   0.774   4.782
 7186TIP3    H221502   6.037   0.811   4.694
 7187TIP3   OH221503   4.389   0.616   6.733
 7187TIP3    H121504   4.343   0.548   6.782
 7187TIP3    H221505   4.475   0.622   6.775
 7188TIP3   OH221506   4.878   3.172   1.743
 7188TIP3    H121507   4.972   3.179   1.758
 7188TIP3    H221508   4.847   3.263   1.738
 7189TIP3   OH221509   7.002   5.146   6.069
 7189TIP3    H121510   7.000   5.241   6.070
 7189TIP3    H221511   6.931   5.120   6.127
 7190TIP3   OH221512   2.607   0.039   3.021
 7190TIP3    H121513   2.635   0.130   3.029
 7190TIP3    H221514   2.580   0.015   3.110
 7191TIP3   OH221515   8.074   0.484   0.254
 7191TIP3    H121516   8.159   0.440   0.250
 7191TIP3    H221517   8.094   0.570   0.291
 7192TIP3   OH221518   2.949   1.625   4.068
 7192TIP3    H121519   2.957   1.530   4.078
 7192TIP3    H221520   3.037   1.659   4.084
 7193TIP3   OH221521   4.362   3.785   2.818
 7193TIP3    H121522   4.358   3.840   2.739
 7193TIP3    H221523   4.279   3.737   2.818
 7194TIP3   OH221524   8.254   5.260   5.094
 7194TIP3    H121525   8.305   5.181   5.112
 7194TIP3    H221526   8.241   5.260   5.000
 7195TIP3   OH221527   1.840   3.939   1.642
 7195TIP3    H121528   1.868   3.994   1.570
 7195TIP3    H221529   1.892   3.968   1.717
 7196TIP3   OH221530   2.936   1.775   6.322
 7196TIP3    H121531   2.880   1.836   6.369
 7196TIP3    H221532   3.024   1.791   6.356
 7197TIP3   OH221533   6.352   4.115   0.344
 7197TIP3    H121534   6.399   4.035   0.324
 7197TIP3    H221535   6.326   4.105   0.436
 7198TIP3   OH221536   2.286   2.796   2.643
 7198TIP3    H121537   2.237   2.836   2.715
 7198TIP3    H221538   2.232   2.811   2.565
 7199TIP3   OH221539   6.518   0.200   1.302
 7199TIP3    H121540   6.472   0.133   1.352
 7199TIP3    H221541   6.544   0.266   1.367
 7200TIP3   OH221542   1.952   5.980   2.859
 7200TIP3    H121543   2.020   5.936   2.807
 7200TIP3    H221544   1.973   6.073   2.850
 7201TIP3   OH221545   4.473   0.463   3.128
 7201TIP3    H121546   4.465   0.368   3.121
 7201TIP3    H221547   4.567   0.480   3.131
 7202TIP3   OH221548   5.938   0.069   0.444
 7202TIP3    H121549   6.001   0.037   0.508
 7202TIP3    H221550   5.853   0.038   0.476
 7203TIP3   OH221551   1.605   2.290   4.707
 7203TIP3    H121552   1.607   2.318   4.615
 7203TIP3    H221553   1.555   2.208   4.705
 7204TIP3   OH221554   5.256   6.665   1.700
 7204TIP3    H121555   5.255   6.606   1.625
 7204TIP3    H221556   5.324   6.631   1.757
 7205TIP3   OH221557   2.263   6.584   1.493
 7205TIP3    H121558   2.246   6.566   1.401
 7205TIP3    H221559   2.349   6.626   1.493
 7206TIP3   OH221560   2.086   3.199   5.340
 7206TIP3    H121561   2.150   3.130   5.359
 7206TIP3    H221562   2.036   3.208   5.421
 7207TIP3   OH221563   1.400   0.906   0.501
 7207TIP3    H121564   1.409   0.811   0.506
 7207TIP3    H221565   1.453   0.932   0.426
 7208TIP3   OH221566   0.668   6.101   6.671
 7208TIP3    H121567   0.637   6.191   6.663
 7208TIP3    H221568   0.744   6.107   6.729
 7209TIP3   OH221569   2.300   2.723   0.810
 7209TIP3    H121570   2.259   2.738   0.725
 7209TIP3    H221571   2.358   2.648   0.796
 7210TIP3   OH221572   4.614   1.575   4.281
 7210TIP3    H121573   4.695   1.559   4.232
 7210TIP3    H221574   4.545   1.538   4.226
 7211TIP3   OH221575   1.058   5.642   4.025
 7211TIP3    H121576   0.972   5.681   4.009
 7211TIP3    H221577   1.041   5.548   4.033
 7212TIP3   OH221578   7.965   0.059   2.456
 7212TIP3    H121579   7.979   0.125   2.524
 7212TIP3    H221580   8.027   0.082   2.387
 7213TIP3   OH221581   3.104   1.801   6.000
 7213TIP3    H121582   3.141   1.819   6.086
 7213TIP3    H221583   3.069   1.885   5.971
 7214TIP3   OH221584   6.706   3.444   4.871
 7214TIP3    H121585   6.687   3.460   4.963
 7214TIP3    H221586   6.796   3.475   4.859
 7215TIP3   OH221587   7.892   2.074   1.433
 7215TIP3    H121588   7.854   2.022   1.504
 7215TIP3    H221589   7.827   2.071   1.363
 7216TIP3   OH221590   1.202   7.814   3.724
 7216TIP3    H121591   1.244   7.743   3.676
 7216TIP3    H221592   1.216   7.892   3.670
 7217TIP3   OH221593   3.440   6.924   5.674
 7217TIP3    H121594   3.482   7.002   5.635
 7217TIP3    H221595   3.474   6.921   5.763
 7218TIP3   OH221596   3.117   1.008   6.220
 7218TIP3    H121597   3.092   1.094   6.186
 7218TIP3    H221598   3.201   0.989   6.178
 7219TIP3   OH221599   1.901   2.000   0.566
 7219TIP3    H121600   1.839   1.930   0.543
 7219TIP3    H221601   1.846   2.076   0.585
 7220TIP3   OH221602   2.714   5.522   5.064
 7220TIP3    H121603   2.720   5.522   4.969
 7220TIP3    H221604   2.795   5.481   5.094
 7221TIP3   OH221605   0.734   0.604   2.198
 7221TIP3    H121606   0.776   0.680   2.158
 7221TIP3    H221607   0.675   0.571   2.130
 7222TIP3   OH221608   1.722   2.175   4.130
 7222TIP3    H121609   1.770   2.243   4.176
 7222TIP3    H221610   1.674   2.129   4.199
 7223TIP3   OH221611   1.663   6.887   1.976
 7223TIP3    H121612   1.703   6.974   1.978
 7223TIP3    H221613   1.714   6.839   1.911
 7224TIP3   OH221614   2.045   6.832   4.906
 7224TIP3    H121615   2.062   6.921   4.878
 7224TIP3    H221616   2.025   6.784   4.826
 7225TIP3   OH221617   3.480   4.372   0.783
 7225TIP3    H121618   3.484   4.430   0.858
 7225TIP3    H221619   3.435   4.294   0.816
 7226TIP3   OH221620   8.082   3.703   2.921
 7226TIP3    H121621   8.093   3.624   2.974
 7226TIP3    H221622   8.153   3.761   2.948
 7227TIP3   OH221623   3.162   7.398   5.361
 7227TIP3    H121624   3.171   7.326   5.423
 7227TIP3    H221625   3.185   7.476   5.411
 7228TIP3   OH221626   2.423   2.292   0.016
 7228TIP3    H121627   2.331   2.280   0.042
 7228TIP3    H221628   2.464   2.208   0.037
 7229TIP3   OH221629   3.260   6.451   3.891
 7229TIP3    H121630   3.188   6.394   3.866
 7229TIP3    H221631   3.217   6.531   3.922
 7230TIP3   OH221632   4.281   3.530   5.053
 7230TIP3    H121633   4.235   3.458   5.010
 7230TIP3    H221634   4.362   3.540   5.003
 7231TIP3   OH221635   5.842   1.917   2.039
 7231TIP3    H121636   5.870   2.009   2.044
 7231TIP3    H221637   5.863   1.881   2.125
 7232TIP3   OH221638   6.150   6.331   2.182
 7232TIP3    H121639   6.073   6.277   2.203
 7232TIP3    H221640   6.190   6.287   2.107
 7233TIP3   OH221641   1.622   6.606   0.837
 7233TIP3    H121642   1.713   6.611   0.806
 7233TIP3    H221643   1.587   6.694   0.822
 7234TIP3   OH221644   6.412   3.524   6.214
 7234TIP3    H121645   6.424   3.569   6.130
 7234TIP3    H221646   6.317   3.516   6.223
 7235TIP3   OH221647   4.511   2.557   4.824
 7235TIP3    H121648   4.442   2.492   4.808
 7235TIP3    H221649   4.474   2.639   4.790
 7236TIP3   OH221650   4.241   4.892   1.816
 7236TIP3    H121651   4.178   4.882   1.887
 7236TIP3    H221652   4.322   4.920   1.859
 7237TIP3   OH221653   1.813   5.999   3.353
 7237TIP3    H121654   1.886   5.963   3.404
 7237TIP3    H221655   1.738   5.946   3.379
 7238TIP3   OH221656   3.760   2.345   5.877
 7238TIP3    H121657   3.840   2.315   5.835
 7238TIP3    H221658   3.755   2.438   5.854
 7239TIP3   OH221659   4.101   7.576   6.043
 7239TIP3    H121660   4.047   7.550   5.969
 7239TIP3    H221661   4.095   7.672   6.044
 7240TIP3   OH221662   4.612   5.095   5.553
 7240TIP3    H121663   4.615   5.002   5.534
 7240TIP3    H221664   4.684   5.133   5.503
 7241TIP3   OH221665   1.497   0.734   2.132
 7241TIP3    H121666   1.551   0.798   2.178
 7241TIP3    H221667   1.441   0.697   2.200
 7242TIP3   OH221668   0.210   6.627   0.971
 7242TIP3    H121669   0.223   6.556   0.908
 7242TIP3    H221670   0.283   6.687   0.955
 7243TIP3   OH221671   6.213   7.201   3.794
 7243TIP3    H121672   6.284   7.238   3.740
 7243TIP3    H221673   6.252   7.189   3.880
 7244TIP3   OH221674   3.359   0.049   0.867
 7244TIP3    H121675   3.307   0.122   0.835
 7244TIP3    H221676   3.421   0.089   0.928
 7245TIP3   OH221677   3.513   6.656   5.465
 7245TIP3    H121678   3.492   6.746   5.440
 7245TIP3    H221679   3.524   6.610   5.382
 7246TIP3   OH221680   0.067   1.661   3.701
 7246TIP3    H121681   0.136   1.666   3.767
 7246TIP3    H221682   0.037   1.751   3.690
 7247TIP3   OH221683   0.532   2.274   5.588
 7247TIP3    H121684   0.454   2.230   5.622
 7247TIP3    H221685   0.504   2.365   5.574
 7248TIP3   OH221686   2.974   5.642   5.106
 7248TIP3    H121687   3.007   5.731   5.102
 7248TIP3    H221688   3.017   5.603   5.182
 7249TIP3   OH221689   5.824   6.193   3.585
 7249TIP3    H121690   5.915   6.218   3.570
 7249TIP3    H221691   5.803   6.231   3.670
 7250TIP3   OH221692   5.483   5.676   2.688
 7250TIP3    H121693   5.577   5.686   2.700
 7250TIP3    H221694   5.464   5.722   2.607
 7251TIP3   OH221695   7.588   0.596   3.364
 7251TIP3    H121696   7.505   0.639   3.386
 7251TIP3    H221697   7.655   0.645   3.412
 7252TIP3   OH221698   7.920   7.812   5.359
 7252TIP3    H121699   7.909   7.718   5.375
 7252TIP3    H221700   8.015   7.824   5.353
 7253TIP3   OH221701   7.484   5.532   2.315
 7253TIP3    H121702   7.534   5.474   2.258
 7253TIP3    H221703   7.522   5.619   2.301
 7254TIP3   OH221704   0.830  -0.013   2.374
 7254TIP3    H121705   0.779   0.060   2.410
 7254TIP3    H221706   0.773  -0.052   2.308
 7255TIP3   OH221707   4.533   0.350   5.902
 7255TIP3    H121708   4.453   0.358   5.954
 7255TIP3    H221709   4.604   0.349   5.966
 7256TIP3   OH221710   4.408   4.154   2.254
 7256TIP3    H121711   4.427   4.226   2.313
 7256TIP3    H221712   4.494   4.121   2.228
 7257TIP3   OH221713   6.137   6.962   5.226
 7257TIP3    H121714   6.062   6.975   5.167
 7257TIP3    H221715   6.128   7.031   5.292
 7258TIP3   OH221716   4.670   5.830   4.559
 7258TIP3    H121717   4.763   5.833   4.538
 7258TIP3    H221718   4.662   5.759   4.622
 7259TIP3   OH221719   2.495   1.782   4.342
 7259TIP3    H121720   2.528   1.724   4.273
 7259TIP3    H221721   2.503   1.732   4.422
 7260TIP3   OH221722   3.977   7.162   4.820
 7260TIP3    H121723   4.050   7.168   4.882
 7260TIP3    H221724   3.907   7.212   4.861
 7261TIP3   OH221725   5.185   2.315   2.720
 7261TIP3    H121726   5.220   2.274   2.641
 7261TIP3    H221727   5.165   2.405   2.693
 7262TIP3   OH221728   4.109   4.133   2.577
 7262TIP3    H121729   4.065   4.126   2.662
 7262TIP3    H221730   4.125   4.226   2.565
 7263TIP3   OH221731   5.657   7.005   5.420
 7263TIP3    H121732   5.638   6.918   5.455
 7263TIP3    H221733   5.610   7.007   5.336
 7264TIP3   OH221734   2.946   4.877   3.108
 7264TIP3    H121735   2.858   4.914   3.098
 7264TIP3    H221736   2.933   4.791   3.148
 7265TIP3   OH221737   8.131   6.064   4.040
 7265TIP3    H121738   8.126   6.064   4.136
 7265TIP3    H221739   8.121   6.156   4.015
 7266TIP3   OH221740   1.816   0.682   6.287
 7266TIP3    H121741   1.855   0.736   6.219
 7266TIP3    H221742   1.723   0.676   6.262
 7267TIP3   OH221743   0.177   3.602   2.270
 7267TIP3    H121744   0.107   3.538   2.269
 7267TIP3    H221745   0.257   3.550   2.265
 7268TIP3   OH221746   7.361   0.447   1.766
 7268TIP3    H121747   7.347   0.540   1.749
 7268TIP3    H221748   7.442   0.445   1.818
 7269TIP3   OH221749   3.764   6.550   2.144
 7269TIP3    H121750   3.809   6.536   2.227
 7269TIP3    H221751   3.692   6.610   2.165
 7270TIP3   OH221752   6.108   4.461   0.419
 7270TIP3    H121753   6.054   4.540   0.422
 7270TIP3    H221754   6.163   4.466   0.497
 7271TIP3   OH221755   2.021   0.374   1.612
 7271TIP3    H121756   2.038   0.329   1.694
 7271TIP3    H221757   1.935   0.342   1.584
 7272TIP3   OH221758   5.077   4.278   0.584
 7272TIP3    H121759   5.091   4.345   0.518
 7272TIP3    H221760   5.097   4.195   0.540
 7273TIP3   OH221761   6.808   4.582   0.826
 7273TIP3    H121762   6.896   4.602   0.794
 7273TIP3    H221763   6.810   4.488   0.844
 7274TIP3   OH221764   0.135   2.838   0.497
 7274TIP3    H121765   0.185   2.911   0.532
 7274TIP3    H221766   0.198   2.789   0.444
 7275TIP3   OH221767   4.883   0.242   1.107
 7275TIP3    H121768   4.974   0.213   1.097
 7275TIP3    H221769   4.852   0.200   1.187
 7276TIP3   OH221770   4.441   1.751   6.740
 7276TIP3    H121771   4.373   1.683   6.739
 7276TIP3    H221772   4.394   1.832   6.759
 7277TIP3   OH221773   6.141   3.931   0.192
 7277TIP3    H121774   6.148   3.999   0.259
 7277TIP3    H221775   6.145   3.849   0.241
 7278TIP3   OH221776   2.995   2.560   1.955
 7278TIP3    H121777   3.014   2.650   1.929
 7278TIP3    H221778   3.020   2.507   1.880
 7279TIP3   OH221779   7.415   7.315   6.797
 7279TIP3    H121780   7.354   7.335   6.727
 7279TIP3    H221781   7.448   7.400   6.826
 7280TIP3   OH221782   1.037   4.293   0.377
 7280TIP3    H121783   1.123   4.301   0.337
 7280TIP3    H221784   1.053   4.311   0.470
 7281TIP3   OH221785   4.070   1.755   0.198
 7281TIP3    H121786   4.095   1.817   0.130
 7281TIP3    H221787   3.977   1.773   0.213
 7282TIP3   OH221788   1.550   4.859   4.158
 7282TIP3    H121789   1.629   4.816   4.127
 7282TIP3    H221790   1.523   4.915   4.085
 7283TIP3   OH221791   1.381   0.813   1.590
 7283TIP3    H121792   1.360   0.722   1.570
 7283TIP3    H221793   1.327   0.864   1.529
 7284TIP3   OH221794   2.163   5.622   5.205
 7284TIP3    H121795   2.136   5.667   5.285
 7284TIP3    H221796   2.119   5.537   5.209
 7285TIP3   OH221797   5.051   3.626   2.879
 7285TIP3    H121798   5.063   3.679   2.958
 7285TIP3    H221799   4.992   3.556   2.906
 7286TIP3   OH221800   5.755   2.235   4.762
 7286TIP3    H121801   5.817   2.266   4.828
 7286TIP3    H221802   5.692   2.307   4.752
 7287TIP3   OH221803   1.955   3.756   0.971
 7287TIP3    H121804   1.949   3.851   0.961
 7287TIP3    H221805   2.042   3.741   1.008
 7288TIP3   OH221806   7.147   1.875   1.412
 7288TIP3    H121807   7.219   1.845   1.466
 7288TIP3    H221808   7.189   1.923   1.340
 7289TIP3   OH221809   0.560   4.173   0.638
 7289TIP3    H121810   0.626   4.200   0.573
 7289TIP3    H221811   0.498   4.120   0.589
 7290TIP3   OH221812   4.403   0.714   5.832
 7290TIP3    H121813   4.485   0.691   5.789
 7290TIP3    H221814   4.360   0.774   5.772
 7291TIP3   OH221815   3.718   0.593   0.143
 7291TIP3    H121816   3.629   0.557   0.149
 7291TIP3    H221817   3.745   0.605   0.234
 7292TIP3   OH221818   7.173   4.625   1.899
 7292TIP3    H121819   7.207   4.713   1.881
 7292TIP3    H221820   7.229   4.567   1.847
 7293TIP3   OH221821   4.817   3.629   4.416
 7293TIP3    H121822   4.800   3.665   4.329
 7293TIP3    H221823   4.734   3.638   4.463
 7294TIP3   OH221824   5.541   5.140   0.426
 7294TIP3    H121825   5.594   5.064   0.450
 7294TIP3    H221826   5.566   5.208   0.488
 7295TIP3   OH221827   2.842   6.416   5.362
 7295TIP3    H121828   2.901   6.444   5.293
 7295TIP3    H221829   2.898   6.405   5.439
 7296TIP3   OH221830   6.651   1.645   5.933
 7296TIP3    H121831   6.736   1.614   5.965
 7296TIP3    H221832   6.602   1.564   5.915
 7297TIP3   OH221833   3.805   2.785   0.940
 7297TIP3    H121834   3.894   2.769   0.909
 7297TIP3    H221835   3.816   2.812   1.031
 7298TIP3   OH221836   4.094   3.772   6.186
 7298TIP3    H121837   4.180   3.789   6.146
 7298TIP3    H221838   4.101   3.683   6.221
 7299TIP3   OH221839   6.586   6.203   3.058
 7299TIP3    H121840   6.500   6.229   3.091
 7299TIP3    H221841   6.584   6.225   2.965
 7300TIP3   OH221842   2.949   1.001   4.235
 7300TIP3    H121843   2.922   1.054   4.310
 7300TIP3    H221844   3.029   0.957   4.265
 7301TIP3   OH221845   0.837   0.874   4.159
 7301TIP3    H121846   0.908   0.824   4.118
 7301TIP3    H221847   0.857   0.965   4.136
 7302TIP3   OH221848   4.235   7.378   6.166
 7302TIP3    H121849   4.225   7.291   6.126
 7302TIP3    H221850   4.174   7.434   6.117
 7303TIP3   OH221851   6.135   5.396   6.346
 7303TIP3    H121852   6.210   5.355   6.302
 7303TIP3    H221853   6.126   5.481   6.304
 7304TIP3   OH221854   4.538   4.379   1.699
 7304TIP3    H121855   4.566   4.351   1.787
 7304TIP3    H221856   4.594   4.330   1.639
 7305TIP3   OH221857   3.978   7.633   1.974
 7305TIP3    H121858   3.948   7.545   1.951
 7305TIP3    H221859   4.071   7.633   1.952
 7306TIP3   OH221860   7.622   1.767   4.813
 7306TIP3    H121861   7.537   1.802   4.789
 7306TIP3    H221862   7.604   1.679   4.846
 7307TIP3   OH221863   4.729   6.049   2.226
 7307TIP3    H121864   4.743   5.999   2.145
 7307TIP3    H221865   4.773   6.133   2.209
 7308TIP3   OH221866   2.470   2.402   3.940
 7308TIP3    H121867   2.407   2.430   4.007
 7308TIP3    H221868   2.500   2.316   3.970
 7309TIP3   OH221869   5.805   4.269   5.430
 7309TIP3    H121870   5.889   4.238   5.398
 7309TIP3    H221871   5.781   4.207   5.499
 7310TIP3   OH221872   1.970   5.440   6.270
 7310TIP3    H121873   2.044   5.383   6.293
 7310TIP3    H221874   2.009   5.525   6.253
 7311TIP3   OH221875   3.967   3.761   3.390
 7311TIP3    H121876   4.037   3.755   3.325
 7311TIP3    H221877   3.936   3.851   3.384
 7312TIP3   OH221878   2.990   6.448   6.695
 7312TIP3    H121879   2.900   6.429   6.669
 7312TIP3    H221880   2.993   6.543   6.705
 7313TIP3   OH221881   6.585   1.808   1.462
 7313TIP3    H121882   6.609   1.883   1.517
 7313TIP3    H221883   6.653   1.806   1.394
 7314TIP3   OH221884   0.084   2.310   1.236
 7314TIP3    H121885   0.083   2.320   1.141
 7314TIP3    H221886   0.176   2.291   1.257
 7315TIP3   OH221887   7.764   4.980   4.968
 7315TIP3    H121888   7.714   5.057   4.939
 7315TIP3    H221889   7.810   5.009   5.047
 7316TIP3   OH221890   4.523   2.925   4.065
 7316TIP3    H121891   4.566   2.942   4.149
 7316TIP3    H221892   4.534   2.830   4.052
 7317TIP3   OH221893   2.728   4.947   1.005
 7317TIP3    H121894   2.813   4.906   0.987
 7317TIP3    H221895   2.703   4.986   0.921
 7318TIP3   OH221896   4.343   2.348   2.951
 7318TIP3    H121897   4.406   2.396   2.897
 7318TIP3    H221898   4.343   2.394   3.035
 7319TIP3   OH221899   1.243   7.331   4.438
 7319TIP3    H121900   1.249   7.241   4.404
 7319TIP3    H221901   1.319   7.376   4.401
 7320TIP3   OH221902   1.290   2.930   6.095
 7320TIP3    H121903   1.233   2.911   6.021
 7320TIP3    H221904   1.340   3.008   6.069
 7321TIP3   OH221905   6.388   6.198   5.569
 7321TIP3    H121906   6.332   6.242   5.505
 7321TIP3    H221907   6.456   6.156   5.516
 7322TIP3   OH221908   7.601   7.141   2.492
 7322TIP3    H121909   7.669   7.102   2.547
 7322TIP3    H221910   7.649   7.188   2.424
 7323TIP3   OH221911   1.050   1.965   5.351
 7323TIP3    H121912   1.086   1.937   5.436
 7323TIP3    H221913   1.086   2.052   5.337
 7324TIP3   OH221914   0.329   3.134   2.273
 7324TIP3    H121915   0.294   3.221   2.293
 7324TIP3    H221916   0.309   3.120   2.181
 7325TIP3   OH221917   0.994   6.069   5.750
 7325TIP3    H121918   1.013   6.148   5.699
 7325TIP3    H221919   0.954   6.101   5.831
 7326TIP3   OH221920   3.846   6.819   4.537
 7326TIP3    H121921   3.851   6.909   4.504
 7326TIP3    H221922   3.794   6.773   4.471
 7327TIP3   OH221923   5.302   0.095   0.691
 7327TIP3    H121924   5.325   0.179   0.651
 7327TIP3    H221925   5.225   0.114   0.744
 7328TIP3   OH221926   1.327   2.486   0.870
 7328TIP3    H121927   1.419   2.492   0.842
 7328TIP3    H221928   1.331   2.490   0.966
 7329TIP3   OH221929   4.655   0.123   6.520
 7329TIP3    H121930   4.620   0.191   6.578
 7329TIP3    H221931   4.682   0.053   6.578
 7330TIP3   OH221932   3.037   2.330   4.532
 7330TIP3    H121933   3.022   2.342   4.626
 7330TIP3    H221934   3.034   2.418   4.495
 7331TIP3   OH221935   2.444   3.224   0.013
 7331TIP3    H121936   2.393   3.287   0.064
 7331TIP3    H221937   2.535   3.239   0.039
 7332TIP3   OH221938   0.462   4.402   3.486
 7332TIP3    H121939   0.378   4.394   3.530
 7332TIP3    H221940   0.514   4.460   3.542
 7333TIP3   OH221941   6.720   2.794   1.587
 7333TIP3    H121942   6.666   2.761   1.515
 7333TIP3    H221943   6.712   2.890   1.581
 7334TIP3   OH221944   4.166   7.782   5.600
 7334TIP3    H121945   4.195   7.759   5.511
 7334TIP3    H221946   4.243   7.820   5.641
 7335TIP3   OH221947   3.534   3.868   4.348
 7335TIP3    H121948   3.541   3.928   4.274
 7335TIP3    H221949   3.500   3.921   4.420
 7336TIP3   OH221950   5.199   3.725   0.134
 7336TIP3    H121951   5.143   3.693   0.064
 7336TIP3    H221952   5.198   3.655   0.199
 7337TIP3   OH221953   3.301   2.824   1.817
 7337TIP3    H121954   3.362   2.771   1.869
 7337TIP3    H221955   3.348   2.906   1.801
 7338TIP3   OH221956   2.780   0.124   2.803
 7338TIP3    H121957   2.784   0.177   2.723
 7338TIP3    H221958   2.686   0.115   2.820
 7339TIP3   OH221959   2.520   0.135   2.550
 7339TIP3    H121960   2.455   0.136   2.621
 7339TIP3    H221961   2.543   0.043   2.541
 7340TIP3   OH221962   6.484   2.648   2.724
 7340TIP3    H121963   6.408   2.671   2.777
 7340TIP3    H221964   6.559   2.670   2.779
 7341TIP3   OH221965   4.335   4.316   2.596
 7341TIP3    H121966   4.276   4.335   2.524
 7341TIP3    H221967   4.375   4.401   2.617
 7342TIP3   OH221968   3.835   3.376   5.622
 7342TIP3    H121969   3.804   3.354   5.710
 7342TIP3    H221970   3.755   3.381   5.570
 7343TIP3   OH221971   1.895   4.575   3.347
 7343TIP3    H121972   1.865   4.519   3.275
 7343TIP3    H221973   1.933   4.514   3.410
 7344TIP3   OH221974   2.982   1.633   2.506
 7344TIP3    H121975   2.971   1.713   2.557
 7344TIP3    H221976   3.065   1.596   2.539
 7345TIP3   OH221977   4.536   0.619   4.480
 7345TIP3    H121978   4.502   0.662   4.559
 7345TIP3    H221979   4.465   0.626   4.416
 7346TIP3   OH221980   2.636   1.318   4.316
 7346TIP3    H121981   2.556   1.369   4.324
 7346TIP3    H221982   2.657   1.319   4.223
 7347TIP3   OH221983   3.328   3.825   5.456
 7347TIP3    H121984   3.325   3.786   5.543
 7347TIP3    H221985   3.416   3.805   5.423
 7348TIP3   OH221986   4.330   5.302   0.159
 7348TIP3    H121987   4.352   5.365   0.227
 7348TIP3    H221988   4.414   5.278   0.121
 7349TIP3   OH221989   4.275   0.539   2.961
 7349TIP3    H121990   4.365   0.544   2.993
 7349TIP3    H221991   4.258   0.446   2.949
 7350TIP3   OH221992   1.820   5.851   0.390
 7350TIP3    H121993   1.822   5.792   0.466
 7350TIP3    H221994   1.804   5.938   0.427
 7351TIP3   OH221995   0.168   4.030   4.857
 7351TIP3    H121996   0.172   3.935   4.843
 7351TIP3    H221997   0.241   4.065   4.806
 7352TIP3   OH221998   2.898   6.727   0.480
 7352TIP3    H121999   2.935   6.652   0.527
 7352TIP3    H222000   2.838   6.688   0.417
 7353TIP3   OH222001   0.764   4.150   2.135
 7353TIP3    H122002   0.689   4.159   2.193
 7353TIP3    H222003   0.726   4.127   2.050
 7354TIP3   OH222004   3.218   0.051   3.577
 7354TIP3    H122005   3.128   0.036   3.550
 7354TIP3    H222006   3.252   0.115   3.514
 7355TIP3   OH222007   2.557   1.691   2.534
 7355TIP3    H122008   2.496   1.721   2.466
 7355TIP3    H222009   2.515   1.614   2.571
 7356TIP3   OH222010   0.550   4.522   1.531
 7356TIP3    H122011   0.614   4.562   1.589
 7356TIP3    H222012   0.496   4.468   1.588
 7357TIP3   OH222013   8.064   0.737   2.011
 7357TIP3    H122014   7.980   0.776   1.984
 7357TIP3    H222015   8.040   0.679   2.084
 7358TIP3   OH222016   2.003   5.536   0.637
 7358TIP3    H122017   2.021   5.451   0.677
 7358TIP3    H222018   2.003   5.518   0.543
 7359TIP3   OH222019   0.884   5.531   3.306
 7359TIP3    H122020   0.851   5.599   3.364
 7359TIP3    H222021   0.972   5.513   3.339
 7360TIP3   OH222022   0.874   5.206   0.309
 7360TIP3    H122023   0.822   5.128   0.287
 7360TIP3    H222024   0.943   5.173   0.366
 7361TIP3   OH222025   5.913   6.430   5.973
 7361TIP3    H122026   5.880   6.519   5.987
 7361TIP3    H222027   5.853   6.374   6.022
 7362TIP3   OH222028   4.646   0.090   3.451
 7362TIP3    H122029   4.671   0.080   3.360
 7362TIP3    H222030   4.658   0.003   3.489
 7363TIP3   OH222031   3.516   0.194   2.886
 7363TIP3    H122032   3.532   0.117   2.940
 7363TIP3    H222033   3.600   0.240   2.885
 7364TIP3   OH222034   0.929   5.310   2.338
 7364TIP3    H122035   1.012   5.328   2.381
 7364TIP3    H222036   0.951   5.247   2.269
 7365TIP3   OH222037   7.787   6.143   5.665
 7365TIP3    H122038   7.699   6.176   5.681
 7365TIP3    H222039   7.841   6.185   5.732
 7366TIP3   OH222040   7.410   2.781   0.095
 7366TIP3    H122041   7.335   2.730   0.125
 7366TIP3    H222042   7.487   2.731   0.123
 7367TIP3   OH222043   5.975   3.933   6.723
 7367TIP3    H122044   5.981   3.892   6.636
 7367TIP3    H222045   6.054   3.985   6.730
 7368TIP3   OH222046   6.452   0.460   4.713
 7368TIP3    H122047   6.513   0.471   4.640
 7368TIP3    H222048   6.506   0.433   4.787
 7369TIP3   OH222049   7.537   2.167   4.759
 7369TIP3    H122050   7.567   2.130   4.676
 7369TIP3    H222051   7.503   2.092   4.809
 7370TIP3   OH222052   4.862   5.000   3.589
 7370TIP3    H122053   4.873   5.094   3.575
 7370TIP3    H222054   4.867   4.990   3.684
 7371TIP3   OH222055   3.088   6.051   5.422
 7371TIP3    H122056   3.078   6.106   5.345
 7371TIP3    H222057   3.130   6.107   5.487
 7372TIP3   OH222058   1.135   3.944   2.018
 7372TIP3    H122059   1.180   3.868   2.057
 7372TIP3    H222060   1.108   3.914   1.931
 7373TIP3   OH222061   3.399   4.728   5.093
 7373TIP3    H122062   3.365   4.805   5.139
 7373TIP3    H222063   3.322   4.689   5.051
 7374TIP3   OH222064   3.578   0.819   3.079
 7374TIP3    H122065   3.493   0.856   3.103
 7374TIP3    H222066   3.574   0.728   3.111
 7375TIP3   OH222067   1.181   5.898   0.519
 7375TIP3    H122068   1.240   5.973   0.523
 7375TIP3    H222069   1.199   5.848   0.598
 7376TIP3   OH222070   5.913   5.889   1.846
 7376TIP3    H122071   5.897   5.877   1.940
 7376TIP3    H222072   6.000   5.927   1.841
 7377TIP3   OH222073   5.007   2.061   6.602
 7377TIP3    H122074   4.950   2.001   6.556
 7377TIP3    H222075   5.028   2.129   6.537
 7378TIP3   OH222076   1.684   1.870   1.159
 7378TIP3    H122077   1.763   1.874   1.106
 7378TIP3    H222078   1.714   1.838   1.244
 7379TIP3   OH222079   4.210   5.818   6.609
 7379TIP3    H122080   4.186   5.784   6.522
 7379TIP3    H222081   4.301   5.847   6.599
 7380TIP3   OH222082   3.623   2.127   4.368
 7380TIP3    H122083   3.704   2.145   4.320
 7380TIP3    H222084   3.642   2.156   4.457
 7381TIP3   OH222085   0.009   1.997   2.834
 7381TIP3    H122086   0.099   1.993   2.867
 7381TIP3    H222087   0.019   2.005   2.739
 7382TIP3   OH222088   4.785   3.968   3.297
 7382TIP3    H122089   4.849   4.037   3.280
 7382TIP3    H222090   4.793   3.952   3.391
 7383TIP3   OH222091   8.164   2.214   4.273
 7383TIP3    H122092   8.140   2.193   4.363
 7383TIP3    H222093   8.257   2.233   4.276
 7384TIP3   OH222094   2.617   6.668   2.245
 7384TIP3    H122095   2.622   6.749   2.194
 7384TIP3    H222096   2.527   6.666   2.278
 7385TIP3   OH222097   6.701   4.565   1.106
 7385TIP3    H122098   6.776   4.544   1.162
 7385TIP3    H222099   6.625   4.554   1.163
 7386TIP3   OH222100   2.915   1.270   0.141
 7386TIP3    H122101   2.880   1.321   0.214
 7386TIP3    H222102   2.950   1.336   0.081
 7387TIP3   OH222103   3.991   5.644   0.162
 7387TIP3    H122104   3.982   5.739   0.150
 7387TIP3    H222105   3.928   5.622   0.230
 7388TIP3   OH222106   5.471   4.806   0.849
 7388TIP3    H122107   5.377   4.820   0.836
 7388TIP3    H222108   5.484   4.712   0.835
 7389TIP3   OH222109   7.234   2.181   1.700
 7389TIP3    H122110   7.279   2.163   1.783
 7389TIP3    H222111   7.149   2.139   1.710
 7390TIP3   OH222112   2.921   4.094   1.832
 7390TIP3    H122113   2.909   4.004   1.863
 7390TIP3    H222114   2.913   4.148   1.911
 7391TIP3   OH222115   5.417   2.593   5.403
 7391TIP3    H122116   5.430   2.671   5.349
 7391TIP3    H222117   5.327   2.599   5.433
 7392TIP3   OH222118   8.316   4.065   6.696
 7392TIP3    H122119   8.289   4.084   6.606
 7392TIP3    H222120   8.267   3.986   6.719
 7393TIP3   OH222121   3.459   3.881   1.874
 7393TIP3    H122122   3.488   3.847   1.959
 7393TIP3    H222123   3.499   3.968   1.868
 7394TIP3   OH222124   0.135   2.386   0.423
 7394TIP3    H122125   0.198   2.399   0.353
 7394TIP3    H222126   0.158   2.452   0.489
 7395TIP3   OH222127   6.612   3.176   5.305
 7395TIP3    H122128   6.601   3.235   5.230
 7395TIP3    H222129   6.630   3.235   5.378
 7396TIP3   OH222130   2.973   7.710   3.718
 7396TIP3    H122131   2.925   7.648   3.664
 7396TIP3    H222132   2.937   7.699   3.806
 7397TIP3   OH222133   5.201   1.410   4.547
 7397TIP3    H122134   5.294   1.412   4.570
 7397TIP3    H222135   5.183   1.317   4.530
 7398TIP3   OH222136   6.605   7.492   5.615
 7398TIP3    H122137   6.603   7.414   5.561
 7398TIP3    H222138   6.538   7.476   5.683
 7399TIP3   OH222139   7.795   0.287   4.875
 7399TIP3    H122140   7.857   0.216   4.859
 7399TIP3    H222141   7.721   0.246   4.920
 7400TIP3   OH222142   0.654   5.294   6.225
 7400TIP3    H122143   0.576   5.338   6.192
 7400TIP3    H222144   0.620   5.213   6.265
 7401TIP3   OH222145   6.751   2.893   6.331
 7401TIP3    H122146   6.788   2.980   6.316
 7401TIP3    H222147   6.811   2.834   6.285
 7402TIP3   OH222148   4.084   4.624   3.548
 7402TIP3    H122149   4.024   4.698   3.562
 7402TIP3    H222150   4.146   4.655   3.482
 7403TIP3   OH222151   1.240   7.738   6.433
 7403TIP3    H122152   1.312   7.687   6.397
 7403TIP3    H222153   1.260   7.828   6.407
 7404TIP3   OH222154   0.869   4.168   5.142
 7404TIP3    H122155   0.883   4.100   5.076
 7404TIP3    H222156   0.787   4.143   5.185
 7405TIP3   OH222157   7.171   7.414   4.331
 7405TIP3    H122158   7.082   7.380   4.321
 7405TIP3    H222159   7.219   7.344   4.376
 7406TIP3   OH222160   5.724   2.378   6.231
 7406TIP3    H122161   5.720   2.396   6.137
 7406TIP3    H222162   5.724   2.282   6.236
 7407TIP3   OH222163   3.111   5.496   0.847
 7407TIP3    H122164   3.043   5.451   0.797
 7407TIP3    H222165   3.162   5.543   0.781
 7408TIP3   OH222166   5.559   7.481   1.113
 7408TIP3    H122167   5.650   7.465   1.089
 7408TIP3    H222168   5.547   7.575   1.098
 7409TIP3   OH222169   4.954   4.585   6.078
 7409TIP3    H122170   5.019   4.588   6.008
 7409TIP3    H222171   5.002   4.605   6.158
 7410TIP3   OH222172   7.694   0.086   3.976
 7410TIP3    H122173   7.770   0.063   3.923
 7410TIP3    H222174   7.710   0.176   4.003
 7411TIP3   OH222175   2.552   6.225   5.107
 7411TIP3    H122176   2.482   6.160   5.112
 7411TIP3    H222177   2.513   6.304   5.145
 7412TIP3   OH222178   6.629   5.750   3.288
 7412TIP3    H122179   6.580   5.771   3.368
 7412TIP3    H222180   6.615   5.656   3.276
 7413TIP3   OH222181   1.738   4.666   4.024
 7413TIP3    H122182   1.672   4.597   4.037
 7413TIP3    H222183   1.793   4.660   4.102
 7414TIP3   OH222184   7.311   5.464   3.355
 7414TIP3    H122185   7.329   5.555   3.378
 7414TIP3    H222186   7.246   5.469   3.286
 7415TIP3   OH222187   2.932   6.005   3.559
 7415TIP3    H122188   2.998   6.067   3.527
 7415TIP3    H222189   2.869   6.059   3.605
 7416TIP3   OH222190   6.610   6.612   4.799
 7416TIP3    H122191   6.536   6.671   4.783
 7416TIP3    H222192   6.570   6.526   4.814
 7417TIP3   OH222193   6.394   1.767   5.829
 7417TIP3    H122194   6.335   1.836   5.860
 7417TIP3    H222195   6.340   1.714   5.770
 7418TIP3   OH222196   7.924   2.540   6.723
 7418TIP3    H122197   7.843   2.521   6.677
 7418TIP3    H222198   7.917   2.633   6.746
 7419TIP3   OH222199   3.599   4.558   2.822
 7419TIP3    H122200   3.691   4.581   2.814
 7419TIP3    H222201   3.599   4.480   2.879
 7420TIP3   OH222202   7.585   6.306   3.415
 7420TIP3    H122203   7.534   6.289   3.494
 7420TIP3    H222204   7.607   6.220   3.381
 7421TIP3   OH222205   5.047   4.477   2.914
 7421TIP3    H122206   4.987   4.549   2.934
 7421TIP3    H222207   5.009   4.436   2.836
 7422TIP3   OH222208   2.657   7.271   5.434
 7422TIP3    H122209   2.717   7.316   5.494
 7422TIP3    H222210   2.691   7.290   5.347
 7423TIP3   OH222211   7.576   3.791   0.507
 7423TIP3    H122212   7.503   3.730   0.514
 7423TIP3    H222213   7.635   3.752   0.443
 7424TIP3   OH222214   0.231   6.873   4.505
 7424TIP3    H122215   0.317   6.850   4.470
 7424TIP3    H222216   0.201   6.945   4.449
 7425TIP3   OH222217   5.904   6.997   4.128
 7425TIP3    H122218   5.907   7.089   4.156
 7425TIP3    H222219   5.898   7.001   4.033
 7426TIP3   OH222220   7.212   1.744   5.222
 7426TIP3    H122221   7.274   1.695   5.168
 7426TIP3    H222222   7.226   1.709   5.310
 7427TIP3   OH222223   2.293   4.829   0.566
 7427TIP3    H122224   2.371   4.820   0.621
 7427TIP3    H222225   2.287   4.923   0.548
 7428TIP3   OH222226   4.621   6.552   0.484
 7428TIP3    H122227   4.679   6.602   0.427
 7428TIP3    H222228   4.538   6.549   0.437
 7429TIP3   OH222229   8.002   7.076   5.120
 7429TIP3    H122230   8.043   7.023   5.052
 7429TIP3    H222231   7.969   7.153   5.073
 7430TIP3   OH222232   0.374   4.221   5.057
 7430TIP3    H122233   0.321   4.213   4.978
 7430TIP3    H222234   0.355   4.308   5.091
 7431TIP3   OH222235   2.351   6.738   2.703
 7431TIP3    H122236   2.390   6.683   2.636
 7431TIP3    H222237   2.420   6.800   2.727
 7432TIP3   OH222238   5.187   1.822   3.963
 7432TIP3    H122239   5.148   1.802   4.048
 7432TIP3    H222240   5.268   1.869   3.984
 7433TIP3   OH222241   7.447   4.789   1.456
 7433TIP3    H122242   7.510   4.768   1.526
 7433TIP3    H222243   7.484   4.865   1.412
 7434TIP3   OH222244   4.548   0.790   3.526
 7434TIP3    H122245   4.561   0.738   3.605
 7434TIP3    H222246   4.512   0.873   3.557
 7435TIP3   OH222247   6.759   1.804   6.196
 7435TIP3    H122248   6.691   1.835   6.256
 7435TIP3    H222249   6.732   1.838   6.111
 7436TIP3   OH222250   4.461   2.468   3.670
 7436TIP3    H122251   4.388   2.529   3.684
 7436TIP3    H222252   4.422   2.381   3.681
 7437TIP3   OH222253   4.521   5.805   5.957
 7437TIP3    H122254   4.508   5.720   5.914
 7437TIP3    H222255   4.472   5.798   6.039
 7438TIP3   OH222256   4.936   4.566   4.562
 7438TIP3    H122257   4.876   4.510   4.513
 7438TIP3    H222258   5.023   4.539   4.534
 7439TIP3   OH222259   8.040   5.996   4.794
 7439TIP3    H122260   8.005   5.923   4.845
 7439TIP3    H222261   7.981   6.003   4.719
 7440TIP3   OH222262   7.648   6.508   5.239
 7440TIP3    H122263   7.616   6.558   5.314
 7440TIP3    H222264   7.743   6.522   5.239
 7441TIP3   OH222265   7.968   4.044   1.041
 7441TIP3    H122266   7.989   3.950   1.040
 7441TIP3    H222267   7.926   4.060   0.957
 7442TIP3   OH222268   8.325   1.992   2.543
 7442TIP3    H122269   8.345   1.932   2.472
 7442TIP3    H222270   8.230   2.002   2.540
 7443TIP3   OH222271   5.084   2.514   3.834
 7443TIP3    H122272   4.997   2.516   3.873
 7443TIP3    H222273   5.142   2.550   3.902
 7444TIP3   OH222274   7.675   3.480   2.344
 7444TIP3    H122275   7.635   3.444   2.264
 7444TIP3    H222276   7.602   3.485   2.407
 7445TIP3   OH222277   4.651   4.935   4.481
 7445TIP3    H122278   4.590   4.918   4.409
 7445TIP3    H222279   4.737   4.911   4.446
 7446TIP3   OH222280   7.758   3.183   4.848
 7446TIP3    H122281   7.798   3.098   4.828
 7446TIP3    H222282   7.731   3.217   4.763
 7447TIP3   OH222283   7.413   6.745   2.662
 7447TIP3    H122284   7.501   6.723   2.692
 7447TIP3    H222285   7.390   6.675   2.602
 7448TIP3   OH222286   4.253   6.115   2.485
 7448TIP3    H122287   4.346   6.090   2.489
 7448TIP3    H222288   4.214   6.078   2.564
 7449TIP3   OH222289   1.712   6.870   3.033
 7449TIP3    H122290   1.747   6.958   3.048
 7449TIP3    H222291   1.772   6.831   2.969
 7450TIP3   OH222292   5.809   6.946   6.175
 7450TIP3    H122293   5.731   6.998   6.160
 7450TIP3    H222294   5.873   6.979   6.112
 7451TIP3   OH222295   6.858   7.621   3.385
 7451TIP3    H122296   6.907   7.564   3.327
 7451TIP3    H222297   6.924   7.680   3.423
 7452TIP3   OH222298   4.333   3.968   0.579
 7452TIP3    H122299   4.389   4.016   0.518
 7452TIP3    H222300   4.305   3.890   0.530
 7453TIP3   OH222301   2.386   4.110   3.446
 7453TIP3    H122302   2.305   4.127   3.397
 7453TIP3    H222303   2.359   4.115   3.538
 7454TIP3   OH222304   1.674   3.440   1.620
 7454TIP3    H122305   1.698   3.417   1.710
 7454TIP3    H222306   1.726   3.518   1.600
 7455TIP3   OH222307   8.029   5.552   1.300
 7455TIP3    H122308   7.983   5.468   1.300
 7455TIP3    H222309   7.968   5.613   1.259
 7456TIP3   OH222310   2.815   0.142   1.156
 7456TIP3    H122311   2.898   0.135   1.110
 7456TIP3    H222312   2.753   0.093   1.102
 7457TIP3   OH222313   0.116   7.367   0.506
 7457TIP3    H122314   0.079   7.281   0.485
 7457TIP3    H222315   0.186   7.379   0.442
 7458TIP3   OH222316   6.097   3.710   5.088
 7458TIP3    H122317   6.157   3.680   5.020
 7458TIP3    H222318   6.037   3.770   5.043
 7459TIP3   OH222319   4.836   1.116   2.230
 7459TIP3    H122320   4.764   1.147   2.285
 7459TIP3    H222321   4.895   1.192   2.223
 7460TIP3   OH222322   7.738   2.802   2.116
 7460TIP3    H122323   7.788   2.823   2.038
 7460TIP3    H222324   7.647   2.798   2.087
 7461TIP3   OH222325   0.960   3.199   5.194
 7461TIP3    H122326   1.006   3.208   5.110
 7461TIP3    H222327   0.984   3.277   5.243
 7462TIP3   OH222328   2.507   7.230   2.643
 7462TIP3    H122329   2.466   7.298   2.697
 7462TIP3    H222330   2.601   7.245   2.653
 7463TIP3   OH222331   1.960   0.077   1.665
 7463TIP3    H122332   1.918   0.019   1.729
 7463TIP3    H222333   1.900   0.080   1.591
 7464TIP3   OH222334   3.586   0.871   2.647
 7464TIP3    H122335   3.500   0.840   2.618
 7464TIP3    H222336   3.615   0.929   2.577
 7465TIP3   OH222337   0.099   1.759   0.371
 7465TIP3    H122338   0.070   1.775   0.461
 7465TIP3    H222339   0.183   1.714   0.381
 7466TIP3   OH222340   3.536   2.270   1.201
 7466TIP3    H122341   3.597   2.217   1.253
 7466TIP3    H222342   3.478   2.206   1.160
 7467TIP3   OH222343   3.409   5.705   1.634
 7467TIP3    H122344   3.485   5.760   1.616
 7467TIP3    H222345   3.340   5.739   1.577
 7468TIP3   OH222346   1.107   2.055   1.843
 7468TIP3    H122347   1.087   2.046   1.750
 7468TIP3    H222348   1.197   2.024   1.851
 7469TIP3   OH222349   3.708   2.449   0.137
 7469TIP3    H122350   3.720   2.423   0.045
 7469TIP3    H222351   3.632   2.399   0.166
 7470TIP3   OH222352   7.268   3.069   3.610
 7470TIP3    H122353   7.231   3.089   3.524
 7470TIP3    H222354   7.290   3.154   3.648
 7471TIP3   OH222355   5.357   3.745   1.075
 7471TIP3    H122356   5.360   3.808   1.146
 7471TIP3    H222357   5.338   3.797   0.997
 7472TIP3   OH222358   7.546   0.938   5.694
 7472TIP3    H122359   7.604   0.990   5.638
 7472TIP3    H222360   7.478   0.999   5.723
 7473TIP3   OH222361   5.623   0.559   3.084
 7473TIP3    H122362   5.718   0.567   3.091
 7473TIP3    H222363   5.592   0.573   3.173
 7474TIP3   OH222364   5.902   1.256   4.271
 7474TIP3    H122365   5.808   1.271   4.272
 7474TIP3    H222366   5.918   1.207   4.190
 7475TIP3   OH222367   2.076   3.310   5.090
 7475TIP3    H122368   2.059   3.256   5.167
 7475TIP3    H222369   2.166   3.288   5.065
 7476TIP3   OH222370   1.130   5.900   4.583
 7476TIP3    H122371   1.216   5.941   4.574
 7476TIP3    H222372   1.125   5.837   4.511
 7477TIP3   OH222373   6.792   5.385   1.988
 7477TIP3    H122374   6.835   5.453   2.039
 7477TIP3    H222375   6.800   5.414   1.897
 7478TIP3   OH222376   2.473  -0.006   1.342
 7478TIP3    H122377   2.490   0.028   1.254
 7478TIP3    H222378   2.445   0.070   1.392
 7479TIP3   OH222379   2.386   5.931   6.409
 7479TIP3    H122380   2.450   6.002   6.407
 7479TIP3    H222381   2.395   5.889   6.323
 7480TIP3   OH222382   6.396   6.591   1.014
 7480TIP3    H122383   6.391   6.587   0.918
 7480TIP3    H222384   6.486   6.566   1.035
 7481TIP3   OH222385   3.541   4.310   1.208
 7481TIP3    H122386   3.625   4.268   1.188
 7481TIP3    H222387   3.506   4.336   1.123
 7482TIP3   OH222388   4.334   1.806   4.406
 7482TIP3    H122389   4.306   1.777   4.493
 7482TIP3    H222390   4.327   1.728   4.351
 7483TIP3   OH222391   3.653   6.790   1.262
 7483TIP3    H122392   3.698   6.710   1.236
 7483TIP3    H222393   3.702   6.822   1.338
 7484TIP3   OH222394   3.971   2.542   5.732
 7484TIP3    H122395   4.000   2.456   5.762
 7484TIP3    H222396   3.884   2.527   5.697
 7485TIP3   OH222397   0.681   6.043   0.963
 7485TIP3    H122398   0.673   5.957   0.922
 7485TIP3    H222399   0.732   6.094   0.900
 7486TIP3   OH222400   2.682   3.607   3.938
 7486TIP3    H122401   2.737   3.604   4.016
 7486TIP3    H222402   2.691   3.519   3.900
 7487TIP3   OH222403   2.473   4.492   6.007
 7487TIP3    H122404   2.440   4.402   6.004
 7487TIP3    H222405   2.454   4.521   6.096
 7488TIP3   OH222406   4.125   0.741   4.036
 7488TIP3    H122407   4.109   0.662   4.087
 7488TIP3    H222408   4.220   0.740   4.020
 7489TIP3   OH222409   4.345   2.732   3.118
 7489TIP3    H122410   4.388   2.732   3.032
 7489TIP3    H222411   4.360   2.820   3.153
 7490TIP3   OH222412   3.000   1.820   3.311
 7490TIP3    H122413   2.984   1.911   3.337
 7490TIP3    H222414   3.068   1.790   3.370
 7491TIP3   OH222415   1.758   7.059   6.634
 7491TIP3    H122416   1.765   7.079   6.727
 7491TIP3    H222417   1.665   7.044   6.620
 7492TIP3   OH222418   4.699   1.279   3.983
 7492TIP3    H122419   4.717   1.252   4.073
 7492TIP3    H222420   4.604   1.277   3.976
 7493TIP3   OH222421   1.236   4.457   2.236
 7493TIP3    H122422   1.164   4.438   2.297
 7493TIP3    H222423   1.201   4.435   2.150
 7494TIP3   OH222424   3.847   4.305   5.464
 7494TIP3    H122425   3.936   4.284   5.494
 7494TIP3    H222426   3.793   4.291   5.542
 7495TIP3   OH222427   3.388   4.978   3.865
 7495TIP3    H122428   3.427   5.051   3.912
 7495TIP3    H222429   3.427   4.900   3.905
 7496TIP3   OH222430   2.916   1.360   2.605
 7496TIP3    H122431   2.870   1.426   2.658
 7496TIP3    H222432   2.952   1.410   2.532
 7497TIP3   OH222433   3.578   3.229   1.503
 7497TIP3    H122434   3.594   3.313   1.460
 7497TIP3    H222435   3.487   3.233   1.531
 7498TIP3   OH222436   3.187   4.434   5.513
 7498TIP3    H122437   3.240   4.490   5.569
 7498TIP3    H222438   3.147   4.494   5.450
 7499TIP3   OH222439   8.191   5.779   6.162
 7499TIP3    H122440   8.121   5.764   6.099
 7499TIP3    H222441   8.252   5.839   6.119
 7500TIP3   OH222442   5.535   7.433   6.006
 7500TIP3    H122443   5.623   7.470   6.005
 7500TIP3    H222444   5.513   7.419   5.914
 7501TIP3   OH222445   8.289   0.312   0.259
 7501TIP3    H122446   8.328   0.240   0.209
 7501TIP3    H222447   8.299   0.286   0.350
 7502TIP3   OH222448   6.431   2.043   2.642
 7502TIP3    H122449   6.396   1.961   2.676
 7502TIP3    H222450   6.525   2.038   2.658
 7503TIP3   OH222451   7.206   4.562   3.705
 7503TIP3    H122452   7.125   4.573   3.756
 7503TIP3    H222453   7.252   4.645   3.716
 7504TIP3   OH222454   8.113   6.817   4.584
 7504TIP3    H122455   8.070   6.734   4.604
 7504TIP3    H222456   8.042   6.881   4.582
 7505TIP3   OH222457  -0.002   4.192   3.627
 7505TIP3    H122458   0.003   4.285   3.603
 7505TIP3    H222459  -0.024   4.148   3.545
 7506TIP3   OH222460   0.054   0.214   1.911
 7506TIP3    H122461   0.140   0.176   1.931
 7506TIP3    H222462   0.016   0.156   1.845
 7507TIP3   OH222463   0.828   5.314   1.960
 7507TIP3    H122464   0.830   5.229   2.004
 7507TIP3    H222465   0.763   5.364   2.008
 7508TIP3   OH222466   6.103   2.066   2.581
 7508TIP3    H122467   6.180   2.065   2.525
 7508TIP3    H222468   6.057   2.147   2.558
 7509TIP3   OH222469   0.555   3.837   6.096
 7509TIP3    H122470   0.493   3.859   6.027
 7509TIP3    H222471   0.565   3.742   6.090
 7510TIP3   OH222472   4.630   5.662   0.797
 7510TIP3    H122473   4.638   5.583   0.851
 7510TIP3    H222474   4.702   5.718   0.825
 7511TIP3   OH222475   1.678   3.991   0.805
 7511TIP3    H122476   1.652   3.899   0.800
 7511TIP3    H222477   1.773   3.989   0.819
 7512TIP3   OH222478   2.869   7.655   1.352
 7512TIP3    H122479   2.852   7.561   1.352
 7512TIP3    H222480   2.794   7.693   1.399
 7513TIP3   OH222481   0.193   0.075   4.673
 7513TIP3    H122482   0.254   0.137   4.713
 7513TIP3    H222483   0.236   0.047   4.592
 7514TIP3   OH222484   5.048   5.066   1.887
 7514TIP3    H122485   5.033   4.980   1.846
 7514TIP3    H222486   5.143   5.069   1.902
 7515TIP3   OH222487   2.699   3.134   2.176
 7515TIP3    H122488   2.672   3.209   2.229
 7515TIP3    H222489   2.618   3.083   2.165
 7516TIP3   OH222490   2.639   6.003   6.684
 7516TIP3    H122491   2.702   5.959   6.627
 7516TIP3    H222492   2.693   6.052   6.746
 7517TIP3   OH222493   2.315   2.182   6.425
 7517TIP3    H122494   2.278   2.266   6.399
 7517TIP3    H222495   2.329   2.190   6.519
 7518TIP3   OH222496   7.967   3.921   3.509
 7518TIP3    H122497   7.914   3.943   3.432
 7518TIP3    H222498   7.923   3.844   3.547
 7519TIP3   OH222499   5.293   2.273   4.201
 7519TIP3    H122500   5.275   2.356   4.244
 7519TIP3    H222501   5.286   2.207   4.270
 7520TIP3   OH222502   0.370   4.939   2.946
 7520TIP3    H122503   0.307   4.887   2.997
 7520TIP3    H222504   0.365   5.026   2.984
 7521TIP3   OH222505   5.541   5.026   6.737
 7521TIP3    H122506   5.593   5.088   6.789
 7521TIP3    H222507   5.496   5.080   6.673
 7522TIP3   OH222508   4.289   7.016   4.413
 7522TIP3    H122509   4.373   6.996   4.454
 7522TIP3    H222510   4.226   7.018   4.485
 7523TIP3   OH222511   3.625   6.004   3.752
 7523TIP3    H122512   3.715   6.035   3.741
 7523TIP3    H222513   3.612   5.942   3.679
 7524TIP3   OH222514   1.200   1.116   6.696
 7524TIP3    H122515   1.184   1.161   6.613
 7524TIP3    H222516   1.295   1.104   6.699
 7525TIP3   OH222517   5.598   3.999   2.926
 7525TIP3    H122518   5.621   3.906   2.927
 7525TIP3    H222519   5.523   4.005   2.985
 7526TIP3   OH222520   1.025   4.796   3.320
 7526TIP3    H122521   1.110   4.753   3.314
 7526TIP3    H222522   1.018   4.847   3.239
 7527TIP3   OH222523   4.438   2.612   5.519
 7527TIP3    H122524   4.403   2.679   5.460
 7527TIP3    H222525   4.458   2.538   5.463
 7528TIP3   OH222526   7.950   2.201   5.426
 7528TIP3    H122527   7.855   2.189   5.434
 7528TIP3    H222528   7.977   2.233   5.511
 7529TIP3   OH222529   7.373   7.294   5.356
 7529TIP3    H122530   7.295   7.345   5.378
 7529TIP3    H222531   7.388   7.311   5.263
 7530TIP3   OH222532   2.018   6.650   0.005
 7530TIP3    H122533   1.989   6.707   0.076
 7530TIP3    H222534   2.111   6.671  -0.005
 7531TIP3   OH222535   5.536   4.037   0.447
 7531TIP3    H122536   5.620   4.084   0.441
 7531TIP3    H222537   5.504   4.056   0.535
 7532TIP3   OH222538   6.745   4.805   5.427
 7532TIP3    H122539   6.781   4.876   5.480
 7532TIP3    H222540   6.651   4.825   5.420
 7533TIP3   OH222541   4.959   4.183   1.945
 7533TIP3    H122542   4.883   4.157   1.996
 7533TIP3    H222543   5.023   4.210   2.011
 7534TIP3   OH222544   7.989   7.074   6.339
 7534TIP3    H122545   7.948   6.991   6.315
 7534TIP3    H222546   8.044   7.095   6.263
 7535TIP3   OH222547   1.114   5.688   4.358
 7535TIP3    H122548   1.115   5.630   4.281
 7535TIP3    H222549   1.090   5.630   4.431
 7536TIP3   OH222550   1.489   7.445   1.665
 7536TIP3    H122551   1.522   7.443   1.575
 7536TIP3    H222552   1.548   7.386   1.713
 7537TIP3   OH222553   6.856   0.031   1.611
 7537TIP3    H122554   6.820   0.093   1.547
 7537TIP3    H222555   6.945   0.062   1.627
 7538TIP3   OH222556   6.319   3.766   6.601
 7538TIP3    H122557   6.301   3.686   6.651
 7538TIP3    H222558   6.401   3.748   6.555
 7539TIP3   OH222559   5.059   5.660   5.440
 7539TIP3    H122560   5.024   5.748   5.426
 7539TIP3    H222561   5.088   5.632   5.353
 7540TIP3   OH222562   7.370   2.642   0.510
 7540TIP3    H122563   7.360   2.566   0.452
 7540TIP3    H222564   7.417   2.607   0.586
 7541TIP3   OH222565   2.118   0.122   4.602
 7541TIP3    H122566   2.090   0.177   4.675
 7541TIP3    H222567   2.044   0.064   4.585
 7542TIP3   OH222568   5.574   1.775   2.287
 7542TIP3    H122569   5.517   1.814   2.353
 7542TIP3    H222570   5.660   1.811   2.304
 7543TIP3   OH222571   5.380   0.323   6.554
 7543TIP3    H122572   5.373   0.409   6.514
 7543TIP3    H222573   5.441   0.335   6.627
 7544TIP3   OH222574   2.322   5.683   4.268
 7544TIP3    H122575   2.304   5.602   4.316
 7544TIP3    H222576   2.259   5.746   4.302
 7545TIP3   OH222577   1.349   5.867   3.222
 7545TIP3    H122578   1.368   5.961   3.228
 7545TIP3    H222579   1.407   5.827   3.287
 7546TIP3   OH222580   1.776   1.333   0.950
 7546TIP3    H122581   1.822   1.348   0.867
 7546TIP3    H222582   1.819   1.256   0.987
 7547TIP3   OH222583   3.861   6.839   6.302
 7547TIP3    H122584   3.801   6.822   6.375
 7547TIP3    H222585   3.830   6.921   6.264
 7548TIP3   OH222586   1.388   2.873   1.046
 7548TIP3    H122587   1.413   2.848   0.957
 7548TIP3    H222588   1.463   2.845   1.099
 7549TIP3   OH222589   2.130   2.780   4.120
 7549TIP3    H122590   2.098   2.868   4.141
 7549TIP3    H222591   2.135   2.736   4.204
 7550TIP3   OH222592   3.792   3.796   0.155
 7550TIP3    H122593   3.752   3.796   0.068
 7550TIP3    H222594   3.725   3.832   0.212
 7551TIP3   OH222595   5.834   1.483   6.112
 7551TIP3    H122596   5.771   1.517   6.176
 7551TIP3    H222597   5.861   1.559   6.061
 7552TIP3   OH222598   1.834   2.871   1.701
 7552TIP3    H122599   1.889   2.803   1.662
 7552TIP3    H222600   1.881   2.953   1.684
 7553TIP3   OH222601   0.730   0.648   5.352
 7553TIP3    H122602   0.756   0.712   5.418
 7553TIP3    H222603   0.656   0.602   5.392
 7554TIP3   OH222604   2.672   2.625   4.307
 7554TIP3    H122605   2.729   2.683   4.358
 7554TIP3    H222606   2.585   2.637   4.345
 7555TIP3   OH222607   2.526   3.269   3.108
 7555TIP3    H122608   2.602   3.223   3.073
 7555TIP3    H222609   2.561   3.321   3.181
 7556TIP3   OH222610   3.079   4.850   3.537
 7556TIP3    H122611   3.076   4.905   3.616
 7556TIP3    H222612   3.138   4.779   3.560
 7557TIP3   OH222613   4.747   7.371   0.546
 7557TIP3    H122614   4.798   7.290   0.541
 7557TIP3    H222615   4.809   7.436   0.582
 7558TIP3   OH222616   5.432   6.314   3.939
 7558TIP3    H122617   5.357   6.366   3.910
 7558TIP3    H222618   5.432   6.238   3.879
 7559TIP3   OH222619   0.769   3.052   6.153
 7559TIP3    H122620   0.760   3.000   6.233
 7559TIP3    H222621   0.732   3.138   6.176
 7560TIP3   OH222622   3.550   5.957   3.145
 7560TIP3    H122623   3.600   6.009   3.082
 7560TIP3    H222624   3.615   5.917   3.201
 7561TIP3   OH222625   4.336   5.665   2.891
 7561TIP3    H122626   4.372   5.633   2.808
 7561TIP3    H222627   4.403   5.723   2.926
 7562TIP3   OH222628   5.734   6.060   3.989
 7562TIP3    H122629   5.741   6.019   3.902
 7562TIP3    H222630   5.647   6.035   4.020
 7563TIP3   OH222631   6.570   0.127   4.133
 7563TIP3    H122632   6.532   0.075   4.204
 7563TIP3    H222633   6.509   0.201   4.122
 7564TIP3   OH222634   6.715   7.383   5.103
 7564TIP3    H122635   6.678   7.448   5.162
 7564TIP3    H222636   6.810   7.394   5.111
 7565TIP3   OH222637   0.858   1.142   4.059
 7565TIP3    H122638   0.799   1.182   4.123
 7565TIP3    H222639   0.847   1.196   3.981
 7566TIP3   OH222640  -0.022   1.342   2.459
 7566TIP3    H122641  -0.006   1.365   2.368
 7566TIP3    H222642   0.021   1.411   2.510
 7567TIP3   OH222643   6.934   4.361   0.949
 7567TIP3    H122644   6.957   4.319   0.866
 7567TIP3    H222645   6.915   4.289   1.009
 7568TIP3   OH222646   0.171   1.309   1.582
 7568TIP3    H122647   0.250   1.362   1.588
 7568TIP3    H222648   0.100   1.373   1.570
 7569TIP3   OH222649   4.158   6.183   1.642
 7569TIP3    H122650   4.155   6.176   1.547
 7569TIP3    H222651   4.194   6.100   1.671
 7570TIP3   OH222652   2.020   5.722   6.257
 7570TIP3    H122653   2.010   5.785   6.186
 7570TIP3    H222654   2.037   5.775   6.334
 7571TIP3   OH222655   7.264   6.951   5.995
 7571TIP3    H122656   7.339   7.005   6.020
 7571TIP3    H222657   7.201   6.962   6.066
 7572TIP3   OH222658   4.969   0.388   3.325
 7572TIP3    H122659   4.992   0.305   3.367
 7572TIP3    H222660   4.877   0.402   3.348
 7573TIP3   OH222661   3.323   0.343   1.172
 7573TIP3    H122662   3.378   0.337   1.094
 7573TIP3    H222663   3.340   0.430   1.207
 7574TIP3   OH222664   2.599   0.724   2.504
 7574TIP3    H122665   2.551   0.668   2.444
 7574TIP3    H222666   2.533   0.758   2.564
 7575TIP3   OH222667   3.928   6.289   5.696
 7575TIP3    H122668   3.901   6.332   5.777
 7575TIP3    H222669   4.016   6.257   5.715
 7576TIP3   OH222670   8.289   2.475   1.521
 7576TIP3    H122671   8.306   2.426   1.602
 7576TIP3    H222672   8.262   2.408   1.459
 7577TIP3   OH222673   0.743   3.729   4.096
 7577TIP3    H122674   0.667   3.783   4.117
 7577TIP3    H222675   0.798   3.735   4.174
 7578TIP3   OH222676   3.481   0.127   1.522
 7578TIP3    H122677   3.399   0.158   1.483
 7578TIP3    H222678   3.454   0.075   1.597
 7579TIP3   OH222679   3.296   2.512   0.193
 7579TIP3    H122680   3.266   2.520   0.283
 7579TIP3    H222681   3.349   2.590   0.178
 7580TIP3   OH222682   3.760   6.496   1.224
 7580TIP3    H122683   3.765   6.413   1.176
 7580TIP3    H222684   3.849   6.513   1.253
 7581TIP3   OH222685   5.203  -0.040   3.763
 7581TIP3    H122686   5.253   0.041   3.762
 7581TIP3    H222687   5.244  -0.095   3.697
 7582TIP3   OH222688   4.182   2.391   4.477
 7582TIP3    H122689   4.269   2.395   4.438
 7582TIP3    H222690   4.152   2.482   4.479
 7583TIP3   OH222691   6.254   5.851   0.610
 7583TIP3    H122692   6.178   5.901   0.582
 7583TIP3    H222693   6.322   5.918   0.624
 7584TIP3   OH222694   1.775   2.346   1.953
 7584TIP3    H122695   1.761   2.364   1.860
 7584TIP3    H222696   1.790   2.252   1.957
 7585TIP3   OH222697   6.521   0.656   1.092
 7585TIP3    H122698   6.557   0.625   1.009
 7585TIP3    H222699   6.438   0.697   1.067
 7586TIP3   OH222700   4.487   2.670   1.712
 7586TIP3    H122701   4.512   2.586   1.750
 7586TIP3    H222702   4.500   2.660   1.618
 7587TIP3   OH222703   6.351   5.573   4.845
 7587TIP3    H122704   6.359   5.561   4.939
 7587TIP3    H222705   6.441   5.583   4.814
 7588TIP3   OH222706   6.618   6.179   1.047
 7588TIP3    H122707   6.562   6.104   1.034
 7588TIP3    H222708   6.697   6.160   0.996
 7589TIP3   OH222709   2.495   5.809   5.839
 7589TIP3    H122710   2.556   5.741   5.868
 7589TIP3    H222711   2.446   5.769   5.768
 7590TIP3   OH222712   6.759   4.611   3.666
 7590TIP3    H122713   6.835   4.645   3.620
 7590TIP3    H222714   6.699   4.686   3.672
 7591TIP3   OH222715  -0.022   3.744   2.434
 7591TIP3    H122716   0.017   3.728   2.520
 7591TIP3    H222717   0.049   3.730   2.372
 7592TIP3   OH222718   7.547   5.857   2.795
 7592TIP3    H122719   7.458   5.889   2.779
 7592TIP3    H222720   7.600   5.936   2.805
 7593TIP3   OH222721   3.795   1.290   1.540
 7593TIP3    H122722   3.769   1.249   1.623
 7593TIP3    H222723   3.718   1.340   1.513
 7594TIP3   OH222724   8.124   5.368   6.484
 7594TIP3    H122725   8.139   5.440   6.422
 7594TIP3    H222726   8.114   5.291   6.428
 7595TIP3   OH222727   2.369   1.261   2.434
 7595TIP3    H122728   2.397   1.214   2.513
 7595TIP3    H222729   2.341   1.347   2.465
 7596TIP3   OH222730   6.791   0.419   1.657
 7596TIP3    H122731   6.747   0.422   1.742
 7596TIP3    H222732   6.857   0.350   1.666
 7597TIP3   OH222733   5.436   2.424   4.939
 7597TIP3    H122734   5.481   2.507   4.958
 7597TIP3    H222735   5.498   2.357   4.965
 7598TIP3   OH222736   6.679   7.343   0.332
 7598TIP3    H122737   6.643   7.431   0.336
 7598TIP3    H222738   6.644   7.299   0.409
 7599TIP3   OH222739   0.714   3.540   6.105
 7599TIP3    H122740   0.720   3.450   6.076
 7599TIP3    H222741   0.668   3.536   6.189
 7600TIP3   OH222742   0.848   7.758   2.949
 7600TIP3    H122743   0.932   7.801   2.932
 7600TIP3    H222744   0.872   7.671   2.983
 7601TIP3   OH222745   6.482   5.978   6.602
 7601TIP3    H122746   6.476   6.072   6.618
 7601TIP3    H222747   6.575   5.960   6.595
 7602TIP3   OH222748   3.032   1.205   1.714
 7602TIP3    H122749   3.087   1.208   1.792
 7602TIP3    H222750   2.985   1.288   1.715
 7603TIP3   OH222751   7.844   0.691   5.783
 7603TIP3    H122752   7.936   0.714   5.801
 7603TIP3    H222753   7.794   0.748   5.841
 7604TIP3   OH222754   3.666   1.144   4.980
 7604TIP3    H122755   3.639   1.208   5.047
 7604TIP3    H222756   3.594   1.143   4.917
 7605TIP3   OH222757   2.987   3.392   0.162
 7605TIP3    H122758   3.028   3.317   0.121
 7605TIP3    H222759   2.992   3.374   0.256
 7606TIP3   OH222760   8.330   1.700   0.679
 7606TIP3    H122761   8.371   1.646   0.747
 7606TIP3    H222762   8.254   1.650   0.651
 7607TIP3   OH222763   4.955   1.558   2.685
 7607TIP3    H122764   5.041   1.543   2.724
 7607TIP3    H222765   4.902   1.483   2.714
 7608TIP3   OH222766   2.623   7.686   1.475
 7608TIP3    H122767   2.646   7.595   1.494
 7608TIP3    H222768   2.576   7.717   1.552
 7609TIP3   OH222769   1.366   1.935   1.824
 7609TIP3    H122770   1.397   1.857   1.779
 7609TIP3    H222771   1.397   2.008   1.770
 7610TIP3   OH222772   3.360   5.299   4.877
 7610TIP3    H122773   3.374   5.269   4.787
 7610TIP3    H222774   3.318   5.226   4.921
 7611TIP3   OH222775   0.134   7.720   5.328
 7611TIP3    H122776   0.118   7.642   5.275
 7611TIP3    H222777   0.225   7.743   5.310
 7612TIP3   OH222778   2.260   4.065   0.819
 7612TIP3    H122779   2.290   4.148   0.855
 7612TIP3    H222780   2.248   4.008   0.895
 7613TIP3   OH222781   6.989   3.017   4.409
 7613TIP3    H122782   7.000   2.937   4.461
 7613TIP3    H222783   7.072   3.028   4.363
 7614TIP3   OH222784   2.786   3.896   1.939
 7614TIP3    H122785   2.708   3.842   1.931
 7614TIP3    H222786   2.836   3.855   2.010
 7615TIP3   OH222787   4.806   4.287   0.730
 7615TIP3    H122788   4.778   4.203   0.694
 7615TIP3    H222789   4.858   4.327   0.661
 7616TIP3   OH222790   8.000   6.699   5.929
 7616TIP3    H122791   7.920   6.725   5.975
 7616TIP3    H222792   8.050   6.779   5.920
 7617TIP3   OH222793   7.736   1.778   1.435
 7617TIP3    H122794   7.784   1.716   1.380
 7617TIP3    H222795   7.801   1.810   1.498
 7618TIP3   OH222796   3.105   4.013   0.314
 7618TIP3    H122797   3.081   4.033   0.405
 7618TIP3    H222798   3.024   3.982   0.274
 7619TIP3   OH222799   1.213   0.633   3.517
 7619TIP3    H122800   1.292   0.630   3.570
 7619TIP3    H222801   1.216   0.718   3.474
 7620TIP3   OH222802   4.852   7.576   1.799
 7620TIP3    H122803   4.764   7.556   1.765
 7620TIP3    H222804   4.838   7.651   1.857
 7621TIP3   OH222805   1.938   6.265   5.193
 7621TIP3    H122806   1.933   6.217   5.275
 7621TIP3    H222807   1.999   6.216   5.139
 7622TIP3   OH222808   6.095   0.247   2.064
 7622TIP3    H122809   6.095   0.155   2.089
 7622TIP3    H222810   6.002   0.268   2.052
 7623TIP3   OH222811   7.440   5.772   5.345
 7623TIP3    H122812   7.517   5.824   5.367
 7623TIP3    H222813   7.373   5.803   5.406
 7624TIP3   OH222814   1.878   0.693   1.505
 7624TIP3    H122815   1.823   0.630   1.551
 7624TIP3    H222816   1.872   0.667   1.413
 7625TIP3   OH222817   2.474   2.986   2.264
 7625TIP3    H122818   2.490   2.899   2.301
 7625TIP3    H222819   2.412   3.027   2.324
 7626TIP3   OH222820   3.644   4.693   5.022
 7626TIP3    H122821   3.549   4.691   5.032
 7626TIP3    H222822   3.657   4.728   4.934
 7627TIP3   OH222823   3.986   5.263   6.065
 7627TIP3    H122824   3.905   5.214   6.051
 7627TIP3    H222825   3.959   5.354   6.072
 7628TIP3   OH222826   3.443   4.830   1.049
 7628TIP3    H122827   3.517   4.891   1.051
 7628TIP3    H222828   3.385   4.866   0.982
 7629TIP3   OH222829   3.229   5.891   0.581
 7629TIP3    H122830   3.213   5.815   0.636
 7629TIP3    H222831   3.317   5.921   0.605
 7630TIP3   OH222832   7.685   3.545   2.874
 7630TIP3    H122833   7.652   3.617   2.820
 7630TIP3    H222834   7.681   3.468   2.817
 7631TIP3   OH222835   1.295   5.306   4.538
 7631TIP3    H122836   1.262   5.294   4.626
 7631TIP3    H222837   1.227   5.270   4.481
 7632TIP3   OH222838   2.593   1.705   5.019
 7632TIP3    H122839   2.595   1.619   5.062
 7632TIP3    H222840   2.683   1.738   5.029
 7633TIP3   OH222841   6.380   5.535   6.130
 7633TIP3    H122842   6.364   5.544   6.224
 7633TIP3    H222843   6.366   5.623   6.094
 7634TIP3   OH222844   8.232   5.028   4.731
 7634TIP3    H122845   8.222   5.118   4.762
 7634TIP3    H222846   8.148   4.987   4.751
 7635TIP3   OH222847   5.038   7.214   6.151
 7635TIP3    H122848   5.123   7.228   6.108
 7635TIP3    H222849   4.973   7.231   6.083
 7636TIP3   OH222850   6.835   7.466   5.739
 7636TIP3    H122851   6.755   7.510   5.712
 7636TIP3    H222852   6.892   7.536   5.771
 7637TIP3   OH222853   7.952   4.736   0.401
 7637TIP3    H122854   7.959   4.646   0.435
 7637TIP3    H222855   7.866   4.766   0.430
 7638TIP3   OH222856   2.289   1.350   3.903
 7638TIP3    H122857   2.288   1.254   3.912
 7638TIP3    H222858   2.378   1.371   3.875
 7639TIP3   OH222859   4.290   3.447   2.697
 7639TIP3    H122860   4.313   3.450   2.790
 7639TIP3    H222861   4.367   3.483   2.652
 7640TIP3   OH222862   3.789   0.531   0.417
 7640TIP3    H122863   3.734   0.464   0.458
 7640TIP3    H222864   3.878   0.498   0.427
 7641TIP3   OH222865   0.010   6.037   0.403
 7641TIP3    H122866  -0.015   6.073   0.318
 7641TIP3    H222867   0.100   6.066   0.416
 7642TIP3   OH222868   5.814   4.898   4.355
 7642TIP3    H122869   5.855   4.892   4.442
 7642TIP3    H222870   5.867   4.963   4.309
 7643TIP3   OH222871   3.610   0.112   5.634
 7643TIP3    H122872   3.696   0.148   5.656
 7643TIP3    H222873   3.628   0.047   5.567
 7644TIP3   OH222874   1.106   2.832   5.132
 7644TIP3    H122875   1.053   2.802   5.206
 7644TIP3    H222876   1.047   2.829   5.057
 7645TIP3   OH222877   0.457   0.074   5.369
 7645TIP3    H122878   0.431   0.016   5.298
 7645TIP3    H222879   0.497   0.150   5.325
 7646TIP3   OH222880   1.308   3.021   0.336
 7646TIP3    H122881   1.213   3.025   0.335
 7646TIP3    H222882   1.336   3.111   0.355
 7647TIP3   OH222883   7.205   5.937   1.210
 7647TIP3    H122884   7.169   6.002   1.149
 7647TIP3    H222885   7.292   5.918   1.176
 7648TIP3   OH222886   5.729   4.793   1.281
 7648TIP3    H122887   5.824   4.779   1.283
 7648TIP3    H222888   5.696   4.749   1.359
 7649TIP3   OH222889   6.423   5.976   3.697
 7649TIP3    H122890   6.472   5.937   3.769
 7649TIP3    H222891   6.331   5.967   3.722
 7650TIP3   OH222892   0.827   6.850   0.565
 7650TIP3    H122893   0.808   6.882   0.477
 7650TIP3    H222894   0.840   6.930   0.617
 7651TIP3   OH222895   1.871   6.168   6.506
 7651TIP3    H122896   1.881   6.095   6.446
 7651TIP3    H222897   1.804   6.223   6.466
 7652TIP3   OH222898   2.939   1.129   5.801
 7652TIP3    H122899   2.982   1.132   5.716
 7652TIP3    H222900   3.004   1.090   5.860
 7653TIP3   OH222901   1.931   4.661   4.237
 7653TIP3    H122902   2.017   4.701   4.227
 7653TIP3    H222903   1.913   4.667   4.331
 7654TIP3   OH222904   7.073   4.331   3.433
 7654TIP3    H122905   7.092   4.303   3.523
 7654TIP3    H222906   7.140   4.396   3.414
 7655TIP3   OH222907   3.561   4.132   5.044
 7655TIP3    H122908   3.533   4.041   5.032
 7655TIP3    H222909   3.619   4.149   4.970
 7656TIP3   OH222910   0.106   1.637   0.969
 7656TIP3    H122911   0.152   1.721   0.971
 7656TIP3    H222912   0.020   1.656   1.005
 7657TIP3   OH222913   3.058   5.272   3.467
 7657TIP3    H122914   3.104   5.190   3.488
 7657TIP3    H222915   3.105   5.307   3.391
 7658TIP3   OH222916   1.668   5.075   2.230
 7658TIP3    H122917   1.670   4.990   2.187
 7658TIP3    H222918   1.598   5.123   2.185
 7659TIP3   OH222919   8.006   2.736   2.952
 7659TIP3    H122920   7.913   2.734   2.972
 7659TIP3    H222921   8.044   2.792   3.020
 7660TIP3   OH222922   5.125   1.979   2.966
 7660TIP3    H122923   5.114   2.074   2.965
 7660TIP3    H222924   5.064   1.947   2.900
 7661TIP3   OH222925   6.117   1.421   3.514
 7661TIP3    H122926   6.025   1.414   3.487
 7661TIP3    H222927   6.150   1.331   3.510
 7662TIP3   OH222928   3.275   0.744   3.784
 7662TIP3    H122929   3.264   0.653   3.756
 7662TIP3    H222930   3.293   0.792   3.703
 7663TIP3   OH222931   0.065   1.023   3.808
 7663TIP3    H122932   0.035   0.943   3.765
 7663TIP3    H222933  -0.014   1.075   3.821
 7664TIP3   OH222934   6.704   5.665   2.681
 7664TIP3    H122935   6.680   5.747   2.724
 7664TIP3    H222936   6.700   5.599   2.750
 7665TIP3   OH222937   7.566   5.495   6.703
 7665TIP3    H122938   7.523   5.574   6.671
 7665TIP3    H222939   7.594   5.449   6.624
 7666TIP3   OH222940   7.190   2.474   0.732
 7666TIP3    H122941   7.178   2.421   0.653
 7666TIP3    H222942   7.150   2.558   0.710
 7667TIP3   OH222943   3.456   1.331   4.360
 7667TIP3    H122944   3.411   1.383   4.426
 7667TIP3    H222945   3.530   1.291   4.407
 7668TIP3   OH222946   6.006   1.768   3.992
 7668TIP3    H122947   5.944   1.696   3.987
 7668TIP3    H222948   6.091   1.728   3.974
 7669TIP3   OH222949   6.652   2.279   1.372
 7669TIP3    H122950   6.687   2.296   1.285
 7669TIP3    H222951   6.558   2.294   1.364
 7670TIP3   OH222952   7.805   4.066   6.182
 7670TIP3    H122953   7.862   3.993   6.159
 7670TIP3    H222954   7.716   4.031   6.173
 7671TIP3   OH222955   7.536   5.516   0.833
 7671TIP3    H122956   7.630   5.500   0.819
 7671TIP3    H222957   7.493   5.439   0.794
 7672TIP3   OH222958   5.626   7.443   1.931
 7672TIP3    H122959   5.540   7.408   1.907
 7672TIP3    H222960   5.615   7.538   1.931
 7673TIP3   OH222961   5.067   2.095   5.270
 7673TIP3    H122962   4.981   2.120   5.237
 7673TIP3    H222963   5.100   2.031   5.207
 7674TIP3   OH222964   3.917   6.056   1.840
 7674TIP3    H122965   4.011   6.052   1.820
 7674TIP3    H222966   3.878   6.099   1.764
 7675TIP3   OH222967   3.619   4.055   5.453
 7675TIP3    H122968   3.608   4.110   5.530
 7675TIP3    H222969   3.604   4.113   5.379
 7676TIP3   OH222970   4.860   6.603   2.677
 7676TIP3    H122971   4.948   6.637   2.658
 7676TIP3    H222972   4.864   6.511   2.650
 7677TIP3   OH222973   2.847   3.250   6.618
 7677TIP3    H122974   2.844   3.155   6.621
 7677TIP3    H222975   2.918   3.270   6.558
 7678TIP3   OH222976   0.980   0.586   2.925
 7678TIP3    H122977   1.021   0.591   3.012
 7678TIP3    H222978   1.019   0.659   2.876
 7679TIP3   OH222979   3.132   2.043   4.615
 7679TIP3    H122980   3.166   2.103   4.548
 7679TIP3    H222981   3.077   2.098   4.670
 7680TIP3   OH222982   7.263   1.942   0.769
 7680TIP3    H122983   7.267   1.949   0.674
 7680TIP3    H222984   7.306   1.859   0.789
 7681TIP3   OH222985   7.712   2.818   1.266
 7681TIP3    H122986   7.758   2.902   1.270
 7681TIP3    H222987   7.748   2.775   1.189
 7682TIP3   OH222988   8.256   2.595   0.513
 7682TIP3    H122989   8.235   2.669   0.456
 7682TIP3    H222990   8.332   2.624   0.563
 7683TIP3   OH222991   7.333   6.191   2.022
 7683TIP3    H122992   7.394   6.201   2.095
 7683TIP3    H222993   7.356   6.107   1.983
 7684TIP3   OH222994   2.008   4.997   4.010
 7684TIP3    H122995   2.051   5.080   4.032
 7684TIP3    H222996   2.006   4.949   4.093
 7685TIP3   OH222997   4.797   3.951   4.398
 7685TIP3    H122998   4.880   3.904   4.405
 7685TIP3    H222999   4.819   4.032   4.353
 7686TIP3   OH223000   1.373   1.570   0.632
 7686TIP3    H123001   1.326   1.489   0.609
 7686TIP3    H223002   1.314   1.617   0.690
 7687TIP3   OH223003   7.729   2.088   1.234
 7687TIP3    H123004   7.655   2.051   1.185
 7687TIP3    H223005   7.747   2.171   1.190
 7688TIP3   OH223006   3.000   3.774   6.703
 7688TIP3    H123007   2.933   3.810   6.644
 7688TIP3    H223008   3.071   3.839   6.701
 7689TIP3   OH223009   5.061   5.701   0.536
 7689TIP3    H123010   5.068   5.606   0.545
 7689TIP3    H223011   5.011   5.714   0.456
 7690TIP3   OH223012   3.968   6.300   0.091
 7690TIP3    H123013   4.026   6.366   0.130
 7690TIP3    H223014   3.996   6.217   0.130
 7691TIP3   OH223015   6.157   2.838   6.437
 7691TIP3    H123016   6.121   2.874   6.356
 7691TIP3    H223017   6.171   2.745   6.419
 7692TIP3   OH223018   1.861   4.312   3.484
 7692TIP3    H123019   1.861   4.384   3.547
 7692TIP3    H223020   1.812   4.243   3.528
 7693TIP3   OH223021   5.618   4.239   2.782
 7693TIP3    H123022   5.620   4.158   2.833
 7693TIP3    H223023   5.672   4.220   2.705
 7694TIP3   OH223024   2.227   5.020   3.670
 7694TIP3    H123025   2.192   5.082   3.606
 7694TIP3    H223026   2.185   5.045   3.753
 7695TIP3   OH223027   4.271   0.144   4.060
 7695TIP3    H123028   4.250   0.211   3.996
 7695TIP3    H223029   4.193   0.089   4.064
 7696TIP3   OH223030   4.484   7.498   2.196
 7696TIP3    H123031   4.505   7.558   2.125
 7696TIP3    H223032   4.418   7.439   2.158
 7697TIP3   OH223033   1.828   3.564   2.081
 7697TIP3    H123034   1.784   3.541   2.162
 7697TIP3    H223035   1.777   3.636   2.045
 7698TIP3   OH223036   3.333   4.713   4.250
 7698TIP3    H123037   3.378   4.797   4.241
 7698TIP3    H223038   3.350   4.686   4.341
 7699TIP3   OH223039   0.902   5.345   3.724
 7699TIP3    H123040   0.962   5.297   3.666
 7699TIP3    H223041   0.928   5.437   3.715
 7700TIP3   OH223042   1.636   3.457   2.264
 7700TIP3    H123043   1.549   3.467   2.225
 7700TIP3    H223044   1.639   3.366   2.293
 7701TIP3   OH223045   3.382   7.152   5.413
 7701TIP3    H123046   3.432   7.185   5.338
 7701TIP3    H223047   3.387   7.222   5.478
 7702TIP3   OH223048   5.265   7.582   1.103
 7702TIP3    H123049   5.223   7.496   1.095
 7702TIP3    H223050   5.341   7.566   1.159
 7703TIP3   OH223051   0.574   4.052   1.962
 7703TIP3    H123052   0.601   4.070   1.872
 7703TIP3    H223053   0.552   3.959   1.962
 7704TIP3   OH223054   0.940   3.940   1.331
 7704TIP3    H123055   1.021   3.939   1.280
 7704TIP3    H223056   0.938   3.855   1.375
 7705TIP3   OH223057   1.803   4.316   1.634
 7705TIP3    H123058   1.848   4.232   1.628
 7705TIP3    H223059   1.744   4.307   1.708
 7706TIP3   OH223060   0.271   7.115   0.306
 7706TIP3    H123061   0.240   7.065   0.231
 7706TIP3    H223062   0.202   7.104   0.372
 7707TIP3   OH223063   0.797   0.980   0.443
 7707TIP3    H123064   0.858   0.958   0.513
 7707TIP3    H223065   0.748   1.056   0.476
 7708TIP3   OH223066   3.535   0.262   0.978
 7708TIP3    H123067   3.553   0.222   1.063
 7708TIP3    H223068   3.576   0.348   0.983
 7709TIP3   OH223069   5.376   0.597   6.438
 7709TIP3    H123070   5.328   0.624   6.360
 7709TIP3    H223071   5.347   0.658   6.506
 7710TIP3   OH223072   1.569   7.546   4.134
 7710TIP3    H123073   1.500   7.519   4.074
 7710TIP3    H223074   1.613   7.464   4.159
 7711TIP3   OH223075   7.726   0.352   2.022
 7711TIP3    H123076   7.684   0.291   1.962
 7711TIP3    H223077   7.702   0.438   1.990
 7712TIP3   OH223078   4.687   3.123   1.032
 7712TIP3    H123079   4.678   3.085   1.119
 7712TIP3    H223080   4.645   3.208   1.039
 7713TIP3   OH223081   2.803   5.495   0.980
 7713TIP3    H123082   2.884   5.463   1.020
 7713TIP3    H223083   2.789   5.437   0.905
 7714TIP3   OH223084   5.090   7.233   3.760
 7714TIP3    H123085   5.096   7.325   3.733
 7714TIP3    H223086   5.009   7.229   3.812
 7715TIP3   OH223087   1.344   1.357   3.201
 7715TIP3    H123088   1.318   1.393   3.286
 7715TIP3    H223089   1.433   1.323   3.215
 7716TIP3   OH223090   4.109   0.430   6.141
 7716TIP3    H123091   4.158   0.505   6.108
 7716TIP3    H223092   4.020   0.463   6.153
 7717TIP3   OH223093   1.919   2.867   6.492
 7717TIP3    H123094   1.828   2.859   6.521
 7717TIP3    H223095   1.964   2.910   6.564
 7718TIP3   OH223096   4.318   6.926   5.951
 7718TIP3    H123097   4.306   6.989   5.880
 7718TIP3    H223098   4.229   6.893   5.967
 7719TIP3   OH223099   3.477   0.538   2.677
 7719TIP3    H123100   3.568   0.534   2.705
 7719TIP3    H223101   3.458   0.631   2.669
 7720TIP3   OH223102   5.823   7.759   4.412
 7720TIP3    H123103   5.902   7.739   4.462
 7720TIP3    H223104   5.836   7.712   4.329
 7721TIP3   OH223105   1.781   5.375   2.001
 7721TIP3    H123106   1.759   5.287   1.973
 7721TIP3    H223107   1.815   5.364   2.090
 7722TIP3   OH223108   4.482   3.066   6.045
 7722TIP3    H123109   4.464   2.972   6.044
 7722TIP3    H223110   4.403   3.105   6.081
 7723TIP3   OH223111   4.903   3.621   5.321
 7723TIP3    H123112   4.832   3.564   5.352
 7723TIP3    H223113   4.956   3.566   5.265
 7724TIP3   OH223114   1.743   0.319   5.515
 7724TIP3    H123115   1.789   0.322   5.599
 7724TIP3    H223116   1.653   0.295   5.538
 7725TIP3   OH223117   3.096   4.710   5.711
 7725TIP3    H123118   3.175   4.707   5.658
 7725TIP3    H223119   3.034   4.762   5.660
 7726TIP3   OH223120   7.151   2.963   4.793
 7726TIP3    H123121   7.144   2.873   4.826
 7726TIP3    H223122   7.081   3.010   4.839
 7727TIP3   OH223123   5.346   2.260   6.441
 7727TIP3    H123124   5.356   2.328   6.508
 7727TIP3    H223125   5.251   2.252   6.429
 7728TIP3   OH223126   3.617   3.395   1.305
 7728TIP3    H123127   3.583   3.485   1.301
 7728TIP3    H223128   3.701   3.399   1.260
 7729TIP3   OH223129   7.448   1.062   4.259
 7729TIP3    H123130   7.367   1.014   4.241
 7729TIP3    H223131   7.460   1.117   4.182
 7730TIP3   OH223132   4.531   5.593   2.709
 7730TIP3    H123133   4.596   5.658   2.735
 7730TIP3    H223134   4.557   5.513   2.755
 7731TIP3   OH223135   5.914   3.316   4.526
 7731TIP3    H123136   5.974   3.283   4.458
 7731TIP3    H223137   5.861   3.240   4.549
 7732TIP3   OH223138   5.399   3.928   4.185
 7732TIP3    H123139   5.473   3.868   4.179
 7732TIP3    H223140   5.348   3.913   4.106
 7733TIP3   OH223141   2.445   7.121   2.366
 7733TIP3    H123142   2.421   7.191   2.427
 7733TIP3    H223143   2.407   7.042   2.403
 7734TIP3   OH223144   4.400   0.603   4.020
 7734TIP3    H123145   4.448   0.631   3.942
 7734TIP3    H223146   4.459   0.542   4.065
 7735TIP3   OH223147   8.223   5.177   5.648
 7735TIP3    H123148   8.212   5.272   5.651
 7735TIP3    H223149   8.167   5.148   5.576
 7736TIP3   OH223150   6.733   6.990   1.195
 7736TIP3    H123151   6.750   6.960   1.284
 7736TIP3    H223152   6.639   7.009   1.194
 7737TIP3   OH223153   7.310   2.603   3.296
 7737TIP3    H123154   7.268   2.584   3.380
 7737TIP3    H223155   7.390   2.650   3.319
 7738TIP3   OH223156   0.632   5.062   3.089
 7738TIP3    H123157   0.620   5.143   3.038
 7738TIP3    H223158   0.562   5.064   3.153
 7739TIP3   OH223159   6.270   6.566   2.282
 7739TIP3    H123160   6.181   6.598   2.295
 7739TIP3    H223161   6.260   6.485   2.232
 7740TIP3   OH223162   2.751   4.102   0.343
 7740TIP3    H123163   2.732   4.174   0.403
 7740TIP3    H223164   2.666   4.061   0.328
 7741TIP3   OH223165   5.575   4.883   3.970
 7741TIP3    H123166   5.497   4.900   4.024
 7741TIP3    H223167   5.543   4.826   3.900
 7742TIP3   OH223168   4.525   0.726   0.380
 7742TIP3    H123169   4.436   0.738   0.347
 7742TIP3    H223170   4.544   0.633   0.366
 7743TIP3   OH223171   5.763   4.736   5.527
 7743TIP3    H123172   5.854   4.706   5.513
 7743TIP3    H223173   5.754   4.812   5.470
 7744TIP3   OH223174   7.168  -0.074   3.810
 7744TIP3    H123175   7.190  -0.010   3.743
 7744TIP3    H223176   7.199  -0.036   3.892
 7745TIP3   OH223177   4.595   2.340   2.436
 7745TIP3    H123178   4.546   2.262   2.461
 7745TIP3    H223179   4.679   2.332   2.481
 7746TIP3   OH223180   4.451   3.439   3.363
 7746TIP3    H123181   4.442   3.347   3.339
 7746TIP3    H223182   4.451   3.486   3.280
 7747TIP3   OH223183   6.581   3.251   2.951
 7747TIP3    H123184   6.663   3.240   2.999
 7747TIP3    H223185   6.606   3.249   2.859
 7748TIP3   OH223186   5.537   2.853   4.555
 7748TIP3    H123187   5.453   2.807   4.546
 7748TIP3    H223188   5.516   2.934   4.602
 7749TIP3   OH223189   5.287   7.468   0.608
 7749TIP3    H123190   5.230   7.454   0.684
 7749TIP3    H223191   5.359   7.521   0.642
 7750TIP3   OH223192   5.220   4.091   3.363
 7750TIP3    H123193   5.257   4.178   3.380
 7750TIP3    H223194   5.189   4.096   3.273
 7751TIP3   OH223195   0.305   3.218   0.312
 7751TIP3    H123196   0.231   3.175   0.354
 7751TIP3    H223197   0.277   3.309   0.302
 7752TIP3   OH223198   6.195   6.131   6.331
 7752TIP3    H123199   6.105   6.102   6.321
 7752TIP3    H223200   6.224   6.152   6.243
 7753TIP3   OH223201   2.221   5.495   4.470
 7753TIP3    H123202   2.135   5.472   4.434
 7753TIP3    H223203   2.227   5.445   4.552
 7754TIP3   OH223204   4.879   5.171   5.470
 7754TIP3    H123205   4.934   5.220   5.531
 7754TIP3    H223206   4.897   5.079   5.490
 7755TIP3   OH223207   2.478   3.296   4.016
 7755TIP3    H123208   2.569   3.305   3.985
 7755TIP3    H223209   2.433   3.255   3.942
 7756TIP3   OH223210   7.980   1.096   0.984
 7756TIP3    H123211   7.960   1.075   0.892
 7756TIP3    H223212   8.060   1.046   1.002
 7757TIP3   OH223213   1.147   3.220   4.718
 7757TIP3    H123214   1.091   3.147   4.744
 7757TIP3    H223215   1.211   3.181   4.658
 7758TIP3   OH223216   1.801   4.972   3.519
 7758TIP3    H123217   1.796   4.975   3.614
 7758TIP3    H223218   1.710   4.977   3.490
 7759TIP3   OH223219   1.180   7.227   5.523
 7759TIP3    H123220   1.263   7.192   5.555
 7759TIP3    H223221   1.168   7.307   5.573
 7760TIP3   OH223222   5.992   4.612   2.461
 7760TIP3    H123223   5.923   4.558   2.499
 7760TIP3    H223224   5.946   4.669   2.399
 7761TIP3   OH223225   5.216   7.118   5.584
 7761TIP3    H123226   5.175   7.080   5.506
 7761TIP3    H223227   5.288   7.059   5.605
 7762TIP3   OH223228   3.412   7.476   4.808
 7762TIP3    H123229   3.410   7.444   4.898
 7762TIP3    H223230   3.383   7.402   4.756
 7763TIP3   OH223231   7.417   6.596   4.716
 7763TIP3    H123232   7.420   6.641   4.801
 7763TIP3    H223233   7.495   6.540   4.715
 7764TIP3   OH223234   6.036   2.261   4.074
 7764TIP3    H123235   5.957   2.256   4.128
 7764TIP3    H223236   6.011   2.219   3.992
 7765TIP3   OH223237   1.904   3.130   1.659
 7765TIP3    H123238   1.878   3.093   1.575
 7765TIP3    H223239   1.927   3.221   1.640
 7766TIP3   OH223240   4.353   2.913   5.794
 7766TIP3    H123241   4.275   2.934   5.742
 7766TIP3    H223242   4.325   2.927   5.884
 7767TIP3   OH223243   5.094   4.891   0.344
 7767TIP3    H123244   5.177   4.869   0.301
 7767TIP3    H223245   5.085   4.985   0.333
 7768TIP3   OH223246   1.483   4.971   0.547
 7768TIP3    H123247   1.502   4.878   0.559
 7768TIP3    H223248   1.531   5.015   0.617
 7769TIP3   OH223249   6.900   0.094   2.395
 7769TIP3    H123250   6.928   0.053   2.477
 7769TIP3    H223251   6.907   0.025   2.330
 7770TIP3   OH223252   7.644   6.482   3.749
 7770TIP3    H123253   7.632   6.468   3.843
 7770TIP3    H223254   7.557   6.469   3.711
 7771TIP3   OH223255   6.897   0.456   4.779
 7771TIP3    H123256   6.821   0.447   4.721
 7771TIP3    H223257   6.966   0.493   4.722
 7772TIP3   OH223258   4.616   5.206   4.651
 7772TIP3    H123259   4.659   5.284   4.686
 7772TIP3    H223260   4.602   5.226   4.558
 7773TIP3   OH223261   8.056   5.097   2.654
 7773TIP3    H123262   8.093   5.094   2.743
 7773TIP3    H223263   8.117   5.150   2.604
 7774TIP3   OH223264   6.269   6.189   6.077
 7774TIP3    H123265   6.324   6.215   6.004
 7774TIP3    H223266   6.184   6.168   6.038
 7775TIP3   OH223267   1.792   0.042   3.788
 7775TIP3    H123268   1.710   0.020   3.832
 7775TIP3    H223269   1.782   0.006   3.700
 7776TIP3   OH223270   0.966   6.028   4.760
 7776TIP3    H123271   0.886   5.975   4.767
 7776TIP3    H223272   1.015   5.987   4.689
 7777TIP3   OH223273   1.989   5.194   0.531
 7777TIP3    H123274   1.934   5.256   0.483
 7777TIP3    H223275   2.043   5.153   0.464
 7778TIP3   OH223276   6.058   1.061   5.787
 7778TIP3    H123277   6.070   0.966   5.795
 7778TIP3    H223278   5.982   1.071   5.730
 7779TIP3   OH223279   3.340   5.457   1.568
 7779TIP3    H123280   3.378   5.533   1.613
 7779TIP3    H223281   3.343   5.479   1.475
 7780TIP3   OH223282   2.015   1.126   5.645
 7780TIP3    H123283   2.097   1.164   5.614
 7780TIP3    H223284   1.986   1.183   5.716
 7781TIP3   OH223285   6.748   0.912   1.424
 7781TIP3    H123286   6.689   0.893   1.498
 7781TIP3    H223287   6.791   0.829   1.405
 7782TIP3   OH223288   4.904   5.761   5.012
 7782TIP3    H123289   4.970   5.749   4.944
 7782TIP3    H223290   4.821   5.745   4.968
 7783TIP3   OH223291   1.576   3.879   3.521
 7783TIP3    H123292   1.598   3.819   3.450
 7783TIP3    H223293   1.498   3.841   3.561
 7784TIP3   OH223294   4.554   5.066   0.742
 7784TIP3    H123295   4.560   4.985   0.794
 7784TIP3    H223296   4.564   5.037   0.652
 7785TIP3   OH223297   2.675   2.222   4.063
 7785TIP3    H123298   2.599   2.166   4.079
 7785TIP3    H223299   2.694   2.261   4.148
 7786TIP3   OH223300   7.803   2.389   3.348
 7786TIP3    H123301   7.809   2.297   3.372
 7786TIP3    H223302   7.757   2.389   3.264
 7787TIP3   OH223303   3.162   2.317   1.007
 7787TIP3    H123304   3.136   2.334   1.097
 7787TIP3    H223305   3.183   2.404   0.972
 7788TIP3   OH223306   5.374   3.922   5.485
 7788TIP3    H123307   5.324   3.938   5.565
 7788TIP3    H223308   5.384   4.009   5.446
 7789TIP3   OH223309   3.923   4.978   3.150
 7789TIP3    H123310   4.002   4.925   3.144
 7789TIP3    H223311   3.952   5.059   3.192
 7790TIP3   OH223312   5.914   3.639   5.781
 7790TIP3    H123313   5.836   3.615   5.729
 7790TIP3    H223314   5.966   3.693   5.722
 7791TIP3   OH223315   2.637   3.401   1.805
 7791TIP3    H123316   2.719   3.362   1.774
 7791TIP3    H223317   2.654   3.423   1.896
 7792TIP3   OH223318   6.448   2.903   3.090
 7792TIP3    H123319   6.447   2.872   3.000
 7792TIP3    H223320   6.381   2.971   3.093
 7793TIP3   OH223321   3.574   7.054   2.478
 7793TIP3    H123322   3.499   7.111   2.494
 7793TIP3    H223323   3.610   7.084   2.394
 7794TIP3   OH223324   1.771   2.513   4.678
 7794TIP3    H123325   1.802   2.573   4.745
 7794TIP3    H223326   1.713   2.452   4.725
 7795TIP3   OH223327   4.986   5.835   6.538
 7795TIP3    H123328   4.973   5.921   6.497
 7795TIP3    H223329   5.026   5.782   6.470
 7796TIP3   OH223330   0.286   3.012   3.307
 7796TIP3    H123331   0.364   3.050   3.347
 7796TIP3    H223332   0.302   3.017   3.213
 7797TIP3   OH223333   7.890   7.499   6.205
 7797TIP3    H123334   7.815   7.440   6.208
 7797TIP3    H223335   7.933   7.487   6.290
 7798TIP3   OH223336   2.379   0.370   0.882
 7798TIP3    H123337   2.407   0.359   0.791
 7798TIP3    H223338   2.374   0.465   0.894
 7799TIP3   OH223339   2.128   1.979   1.998
 7799TIP3    H123340   2.149   1.889   2.022
 7799TIP3    H223341   2.157   2.031   2.073
 7800TIP3   OH223342   3.682   3.842   3.898
 7800TIP3    H123343   3.758   3.898   3.911
 7800TIP3    H223344   3.690   3.810   3.807
 7801TIP3   OH223345   4.399   7.239   4.272
 7801TIP3    H123346   4.366   7.165   4.324
 7801TIP3    H223347   4.348   7.236   4.191
 7802TIP3   OH223348   7.107   1.459   0.776
 7802TIP3    H123349   7.168   1.461   0.849
 7802TIP3    H223350   7.123   1.540   0.728
 7803TIP3   OH223351   6.393   5.379   3.311
 7803TIP3    H123352   6.418   5.319   3.240
 7803TIP3    H223353   6.306   5.350   3.337
 7804TIP3   OH223354   4.780   6.755   3.605
 7804TIP3    H123355   4.797   6.664   3.583
 7804TIP3    H223356   4.779   6.800   3.520
 7805TIP3   OH223357   5.478   5.057   5.706
 7805TIP3    H123358   5.490   5.151   5.691
 7805TIP3    H223359   5.395   5.051   5.753
 7806TIP3   OH223360   3.004   2.913   3.162
 7806TIP3    H123361   2.959   2.880   3.084
 7806TIP3    H223362   2.986   2.848   3.229
 7807TIP3   OH223363   8.103   1.318   1.205
 7807TIP3    H123364   8.187   1.302   1.248
 7807TIP3    H223365   8.104   1.260   1.129
 7808TIP3   OH223366   0.950   4.406   5.222
 7808TIP3    H123367   0.942   4.311   5.214
 7808TIP3    H223368   1.020   4.430   5.161
 7809TIP3   OH223369   1.982   6.512   5.511
 7809TIP3    H123370   1.955   6.573   5.580
 7809TIP3    H223371   2.078   6.517   5.512
 7810TIP3   OH223372   1.879   4.385   0.252
 7810TIP3    H123373   1.840   4.464   0.289
 7810TIP3    H223374   1.953   4.416   0.201
 7811TIP3   OH223375   6.402   0.825   2.371
 7811TIP3    H123376   6.430   0.752   2.316
 7811TIP3    H223377   6.349   0.784   2.440
 7812TIP3   OH223378   7.915   5.629   0.977
 7812TIP3    H123379   7.936   5.537   0.958
 7812TIP3    H223380   8.000   5.673   0.977
 7813TIP3   OH223381   6.221   5.109   1.695
 7813TIP3    H123382   6.291   5.069   1.746
 7813TIP3    H223383   6.171   5.035   1.660
 7814TIP3   OH223384   0.370   0.930   6.458
 7814TIP3    H123385   0.338   1.014   6.491
 7814TIP3    H223386   0.463   0.930   6.477
 7815TIP3   OH223387   4.312   0.077   0.842
 7815TIP3    H123388   4.317   0.171   0.861
 7815TIP3    H223389   4.383   0.062   0.780
 7816TIP3   OH223390   1.191   2.517   6.019
 7816TIP3    H123391   1.166   2.548   6.106
 7816TIP3    H223392   1.271   2.564   5.998
 7817TIP3   OH223393   1.857   5.532   3.809
 7817TIP3    H123394   1.952   5.532   3.813
 7817TIP3    H223395   1.828   5.547   3.899
 7818TIP3   OH223396   6.620   2.182   4.602
 7818TIP3    H123397   6.564   2.253   4.634
 7818TIP3    H223398   6.571   2.143   4.530
 7819TIP3   OH223399   3.175   0.376   4.764
 7819TIP3    H123400   3.210   0.462   4.740
 7819TIP3    H223401   3.140   0.341   4.683
 7820TIP3   OH223402   0.545   3.985   4.110
 7820TIP3    H123403   0.450   3.980   4.122
 7820TIP3    H223404   0.561   3.939   4.027
 7821TIP3   OH223405   2.759   6.429   6.003
 7821TIP3    H123406   2.763   6.519   6.033
 7821TIP3    H223407   2.679   6.425   5.950
 7822TIP3   OH223408   2.004   6.965   5.951
 7822TIP3    H123409   2.029   6.978   5.860
 7822TIP3    H223410   1.914   6.933   5.947
 7823TIP3   OH223411   4.958   6.226   5.253
 7823TIP3    H123412   5.047   6.228   5.218
 7823TIP3    H223413   4.913   6.158   5.202
 7824TIP3   OH223414   5.978   2.969   4.375
 7824TIP3    H123415   5.931   2.977   4.459
 7824TIP3    H223416   5.910   2.984   4.309
 7825TIP3   OH223417   0.780   6.334   4.253
 7825TIP3    H123418   0.770   6.427   4.270
 7825TIP3    H223419   0.839   6.303   4.323
 7826TIP3   OH223420   7.904   5.781   3.891
 7826TIP3    H123421   7.818   5.812   3.921
 7826TIP3    H223422   7.883   5.714   3.825
 7827TIP3   OH223423   7.974   4.591   2.135
 7827TIP3    H123424   8.018   4.513   2.101
 7827TIP3    H223425   7.963   4.647   2.058
 7828TIP3   OH223426   2.361   3.935   4.496
 7828TIP3    H123427   2.343   3.864   4.434
 7828TIP3    H223428   2.417   3.996   4.447
 7829TIP3   OH223429   4.195   0.244   3.658
 7829TIP3    H123430   4.237   0.194   3.588
 7829TIP3    H223431   4.190   0.333   3.625
 7830TIP3   OH223432   5.021   2.814   6.044
 7830TIP3    H123433   5.090   2.851   5.988
 7830TIP3    H223434   5.005   2.727   6.009
 7831TIP3   OH223435   2.883   1.622   0.650
 7831TIP3    H123436   2.888   1.701   0.596
 7831TIP3    H223437   2.793   1.591   0.638
 7832TIP3   OH223438   3.254   5.080   3.477
 7832TIP3    H123439   3.247   4.999   3.426
 7832TIP3    H223440   3.298   5.053   3.558
 7833TIP3   OH223441   6.519   5.101   6.177
 7833TIP3    H123442   6.521   5.064   6.265
 7833TIP3    H223443   6.429   5.133   6.166
 7834TIP3   OH223444   1.254   6.101   0.215
 7834TIP3    H123445   1.324   6.133   0.158
 7834TIP3    H223446   1.251   6.163   0.288
 7835TIP3   OH223447   8.164   3.308   4.928
 7835TIP3    H123448   8.109   3.354   4.990
 7835TIP3    H223449   8.164   3.217   4.958
 7836TIP3   OH223450   0.971   6.467   2.656
 7836TIP3    H123451   0.974   6.443   2.748
 7836TIP3    H223452   0.956   6.561   2.656
 7837TIP3   OH223453   3.976   3.945   2.448
 7837TIP3    H123454   4.022   4.015   2.495
 7837TIP3    H223455   4.036   3.919   2.378
 7838TIP3   OH223456   7.648   4.418   2.012
 7838TIP3    H123457   7.622   4.326   2.001
 7838TIP3    H223458   7.641   4.434   2.107
 7839TIP3   OH223459   6.816   5.056   2.465
 7839TIP3    H123460   6.864   5.037   2.545
 7839TIP3    H223461   6.746   5.116   2.492
 7840TIP3   OH223462   6.997   0.230   2.889
 7840TIP3    H123463   7.047   0.170   2.946
 7840TIP3    H223464   6.906   0.202   2.899
 7841TIP3   OH223465   2.341   3.617   4.287
 7841TIP3    H123466   2.348   3.664   4.204
 7841TIP3    H223467   2.406   3.547   4.281
 7842TIP3   OH223468   0.780   3.773   5.510
 7842TIP3    H123469   0.859   3.795   5.560
 7842TIP3    H223470   0.709   3.815   5.558
 7843TIP3   OH223471   1.159   2.100   6.388
 7843TIP3    H123472   1.098   2.026   6.390
 7843TIP3    H223473   1.104   2.176   6.370
 7844TIP3   OH223474   5.840   0.715   4.325
 7844TIP3    H123475   5.838   0.682   4.415
 7844TIP3    H223476   5.772   0.783   4.323
 7845TIP3   OH223477   5.835   1.350   0.861
 7845TIP3    H123478   5.812   1.293   0.788
 7845TIP3    H223479   5.762   1.411   0.868
 7846TIP3   OH223480   6.987   1.500   1.503
 7846TIP3    H123481   7.043   1.422   1.501
 7846TIP3    H223482   6.928   1.486   1.577
 7847TIP3   OH223483   5.126   6.121   1.371
 7847TIP3    H123484   5.194   6.163   1.423
 7847TIP3    H223485   5.106   6.184   1.301
 7848TIP3   OH223486   3.986   2.695   1.583
 7848TIP3    H123487   4.070   2.715   1.625
 7848TIP3    H223488   4.006   2.692   1.489
 7849TIP3   OH223489   5.699   7.651   4.833
 7849TIP3    H123490   5.690   7.613   4.745
 7849TIP3    H223491   5.697   7.745   4.819
 7850TIP3   OH223492   2.478   4.832   1.987
 7850TIP3    H123493   2.409   4.782   1.944
 7850TIP3    H223494   2.447   4.922   1.984
 7851TIP3   OH223495   2.189   7.491   5.408
 7851TIP3    H123496   2.149   7.569   5.445
 7851TIP3    H223497   2.274   7.484   5.450
 7852TIP3   OH223498   2.279   4.929   4.598
 7852TIP3    H123499   2.309   4.921   4.508
 7852TIP3    H223500   2.265   5.023   4.611
 7853TIP3   OH223501   0.570   6.519   4.075
 7853TIP3    H123502   0.638   6.479   4.021
 7853TIP3    H223503   0.504   6.550   4.012
 7854TIP3   OH223504   0.402   7.356   5.583
 7854TIP3    H123505   0.497   7.353   5.568
 7854TIP3    H223506   0.364   7.362   5.496
 7855TIP3   OH223507   0.802   5.812   4.012
 7855TIP3    H123508   0.762   5.897   4.031
 7855TIP3    H223509   0.732   5.760   3.973
 7856TIP3   OH223510   2.788   5.536   4.569
 7856TIP3    H123511   2.765   5.495   4.652
 7856TIP3    H223512   2.729   5.611   4.561
 7857TIP3   OH223513   1.630   4.702   0.625
 7857TIP3    H123514   1.613   4.765   0.695
 7857TIP3    H223515   1.694   4.641   0.664
 7858TIP3   OH223516   0.765   3.816   3.528
 7858TIP3    H123517   0.803   3.837   3.614
 7858TIP3    H223518   0.682   3.862   3.527
 7859TIP3   OH223519   4.401   6.314   2.134
 7859TIP3    H123520   4.317   6.309   2.088
 7859TIP3    H223521   4.394   6.391   2.190
 7860TIP3   OH223522   0.920   5.060   5.537
 7860TIP3    H123523   1.010   5.076   5.508
 7860TIP3    H223524   0.922   5.079   5.631
 7861TIP3   OH223525   3.594   3.597   2.832
 7861TIP3    H123526   3.511   3.571   2.873
 7861TIP3    H223527   3.582   3.575   2.739
 7862TIP3   OH223528   7.382   2.851   1.056
 7862TIP3    H123529   7.393   2.759   1.033
 7862TIP3    H223530   7.356   2.849   1.148
 7863TIP3   OH223531   5.931   6.747   5.460
 7863TIP3    H123532   5.915   6.836   5.428
 7863TIP3    H223533   6.024   6.746   5.483
 7864TIP3   OH223534   2.227   0.446   5.975
 7864TIP3    H123535   2.253   0.492   5.895
 7864TIP3    H223536   2.303   0.393   5.998
 7865TIP3   OH223537   5.697   5.184   0.113
 7865TIP3    H123538   5.662   5.196   0.024
 7865TIP3    H223539   5.681   5.268   0.156
 7866TIP3   OH223540   2.407   4.185   6.083
 7866TIP3    H123541   2.477   4.177   6.019
 7866TIP3    H223542   2.451   4.184   6.168
 7867TIP3   OH223543   0.601   1.779   4.136
 7867TIP3    H123544   0.512   1.765   4.169
 7867TIP3    H223545   0.630   1.692   4.108
 7868TIP3   OH223546   2.548   2.632   5.409
 7868TIP3    H123547   2.551   2.715   5.361
 7868TIP3    H223548   2.608   2.575   5.361
 7869TIP3   OH223549   6.820   0.384   3.725
 7869TIP3    H123550   6.808   0.290   3.712
 7869TIP3    H223551   6.800   0.423   3.640
 7870TIP3   OH223552   1.084   3.906   2.458
 7870TIP3    H123553   1.011   3.915   2.398
 7870TIP3    H223554   1.046   3.923   2.545
 7871TIP3   OH223555   2.440   0.292   5.937
 7871TIP3    H123556   2.517   0.335   5.973
 7871TIP3    H223557   2.474   0.214   5.894
 7872TIP3   OH223558   3.698   0.001   3.747
 7872TIP3    H123559   3.794  -0.003   3.747
 7872TIP3    H223560   3.678   0.082   3.794
 7873TIP3   OH223561   6.993   2.666   3.739
 7873TIP3    H123562   6.940   2.731   3.786
 7873TIP3    H223563   6.937   2.637   3.666
 7874TIP3   OH223564   5.037   1.600   6.063
 7874TIP3    H123565   5.116   1.552   6.086
 7874TIP3    H223566   5.023   1.580   5.970
 7875TIP3   OH223567   0.583   5.887   6.508
 7875TIP3    H123568   0.488   5.895   6.494
 7875TIP3    H223569   0.607   5.968   6.554
 7876TIP3   OH223570   2.216   3.632   5.287
 7876TIP3    H123571   2.213   3.580   5.368
 7876TIP3    H223572   2.126   3.631   5.255
 7877TIP3   OH223573   4.497   3.855   4.154
 7877TIP3    H123574   4.505   3.941   4.195
 7877TIP3    H223575   4.404   3.847   4.134
 7878TIP3   OH223576   4.831   0.107   0.463
 7878TIP3    H123577   4.857   0.086   0.374
 7878TIP3    H223578   4.749   0.155   0.454
 7879TIP3   OH223579   5.817   3.742   5.013
 7879TIP3    H123580   5.857   3.678   4.954
 7879TIP3    H223581   5.723   3.731   5.001
 7880TIP3   OH223582   3.148   5.310   2.866
 7880TIP3    H123583   3.085   5.255   2.912
 7880TIP3    H223584   3.099   5.389   2.844
 7881TIP3   OH223585   0.530   5.632   0.916
 7881TIP3    H123586   0.569   5.552   0.952
 7881TIP3    H223587   0.465   5.601   0.853
 7882TIP3   OH223588   8.094   6.003   0.559
 7882TIP3    H123589   8.149   6.002   0.637
 7882TIP3    H223590   8.154   6.019   0.487
 7883TIP3   OH223591   8.128   1.427   3.743
 7883TIP3    H123592   8.080   1.414   3.661
 7883TIP3    H223593   8.204   1.481   3.718
 7884TIP3   OH223594   4.597   6.537   4.904
 7884TIP3    H123595   4.518   6.510   4.952
 7884TIP3    H223596   4.665   6.543   4.971
 7885TIP3   OH223597   4.143   0.167   1.655
 7885TIP3    H123598   4.087   0.150   1.730
 7885TIP3    H223599   4.146   0.263   1.649
 7886TIP3   OH223600   5.054   7.392   4.158
 7886TIP3    H123601   5.035   7.302   4.132
 7886TIP3    H223602   5.092   7.384   4.246
 7887TIP3   OH223603   6.503   3.609   2.308
 7887TIP3    H123604   6.568   3.678   2.293
 7887TIP3    H223605   6.544   3.530   2.273
 7888TIP3   OH223606   0.526   4.842   3.992
 7888TIP3    H123607   0.592   4.896   3.950
 7888TIP3    H223608   0.574   4.765   4.022
 7889TIP3   OH223609   6.277   0.511   2.789
 7889TIP3    H123610   6.273   0.469   2.875
 7889TIP3    H223611   6.185   0.530   2.768
 7890TIP3   OH223612   7.458   2.898   6.301
 7890TIP3    H123613   7.520   2.837   6.340
 7890TIP3    H223614   7.396   2.917   6.372
 7891TIP3   OH223615   1.403   5.653   6.612
 7891TIP3    H123616   1.333   5.594   6.581
 7891TIP3    H223617   1.356   5.728   6.649
 7892TIP3   OH223618   5.312   6.443   3.123
 7892TIP3    H123619   5.371   6.389   3.069
 7892TIP3    H223620   5.225   6.428   3.086
 7893TIP3   OH223621   7.215   0.819   4.452
 7893TIP3    H123622   7.131   0.859   4.473
 7893TIP3    H223623   7.192   0.730   4.423
 7894TIP3   OH223624   0.551   6.099   0.699
 7894TIP3    H123625   0.585   6.066   0.782
 7894TIP3    H223626   0.626   6.141   0.658
 7895TIP3   OH223627   0.912   7.009   2.480
 7895TIP3    H123628   0.984   7.052   2.526
 7895TIP3    H223629   0.833   7.041   2.524
 7896TIP3   OH223630   2.155   0.661   3.307
 7896TIP3    H123631   2.189   0.708   3.383
 7896TIP3    H223632   2.069   0.700   3.291
 7897TIP3   OH223633   5.120   3.665   6.596
 7897TIP3    H123634   5.074   3.653   6.513
 7897TIP3    H223635   5.050   3.676   6.661
 7898TIP3   OH223636   0.246   2.505   2.927
 7898TIP3    H123637   0.306   2.446   2.883
 7898TIP3    H223638   0.302   2.573   2.965
 7899TIP3   OH223639   0.096   1.880   4.214
 7899TIP3    H123640   0.168   1.918   4.163
 7899TIP3    H223641   0.124   1.790   4.231
 7900TIP3   OH223642   1.903   2.958   3.961
 7900TIP3    H123643   1.816   2.921   3.979
 7900TIP3    H223644   1.933   2.990   4.046
 7901TIP3   OH223645   2.491  -0.024   6.216
 7901TIP3    H123646   2.414   0.031   6.228
 7901TIP3    H223647   2.461  -0.097   6.162
 7902TIP3   OH223648   2.034   6.495   6.546
 7902TIP3    H123649   2.012   6.411   6.587
 7902TIP3    H223650   1.962   6.553   6.569
 7903TIP3   OH223651   6.045   0.574   0.970
 7903TIP3    H123652   6.131   0.601   0.939
 7903TIP3    H223653   6.052   0.573   1.065
 7904TIP3   OH223654   4.019   3.667   1.145
 7904TIP3    H123655   4.036   3.694   1.055
 7904TIP3    H223656   3.932   3.628   1.144
 7905TIP3   OH223657   0.850   0.629   1.039
 7905TIP3    H123658   0.944   0.630   1.023
 7905TIP3    H223659   0.840   0.592   1.126
 7906TIP3   OH223660   2.139   1.539   4.859
 7906TIP3    H123661   2.201   1.608   4.835
 7906TIP3    H223662   2.102   1.509   4.775
 7907TIP3   OH223663   8.140   7.788   5.072
 7907TIP3    H123664   8.110   7.821   4.988
 7907TIP3    H223665   8.134   7.863   5.131
 7908TIP3   OH223666   1.354   7.551   2.893
 7908TIP3    H123667   1.377   7.517   2.980
 7908TIP3    H223668   1.347   7.473   2.838
 7909TIP3   OH223669   4.601   6.794   3.357
 7909TIP3    H123670   4.515   6.805   3.317
 7909TIP3    H223671   4.639   6.882   3.357
 7910TIP3   OH223672   1.256   1.021   6.287
 7910TIP3    H123673   1.260   1.060   6.200
 7910TIP3    H223674   1.236   1.094   6.346
 7911TIP3   OH223675   4.405   1.905   0.425
 7911TIP3    H123676   4.353   1.826   0.439
 7911TIP3    H223677   4.373   1.967   0.491
 7912TIP3   OH223678   3.022   1.354   0.460
 7912TIP3    H123679   3.100   1.356   0.406
 7912TIP3    H223680   2.965   1.422   0.424
 7913TIP3   OH223681   3.208   2.017   2.378
 7913TIP3    H123682   3.299   2.011   2.350
 7913TIP3    H223683   3.200   1.954   2.450
 7914TIP3   OH223684   2.869   0.492   5.981
 7914TIP3    H123685   2.897   0.560   5.920
 7914TIP3    H223686   2.939   0.488   6.046
 7915TIP3   OH223687   6.196   0.388   0.753
 7915TIP3    H123688   6.198   0.333   0.832
 7915TIP3    H223689   6.124   0.354   0.702
 7916TIP3   OH223690   7.053   4.488   0.353
 7916TIP3    H123691   7.146   4.508   0.343
 7916TIP3    H223692   7.010   4.574   0.352
 7917TIP3   OH223693   1.751   4.082   3.540
 7917TIP3    H123694   1.812   4.026   3.493
 7917TIP3    H223695   1.671   4.030   3.546
 7918TIP3   OH223696   1.376   6.213   1.842
 7918TIP3    H123697   1.441   6.201   1.773
 7918TIP3    H223698   1.390   6.139   1.901
 7919TIP3   OH223699   7.228   5.019   2.749
 7919TIP3    H123700   7.224   4.964   2.828
 7919TIP3    H223701   7.223   5.109   2.783
 7920TIP3   OH223702   8.099   3.947   1.982
 7920TIP3    H123703   8.092   3.856   1.952
 7920TIP3    H223704   8.193   3.965   1.982
 7921TIP3   OH223705   6.910   6.970   2.367
 7921TIP3    H123706   6.879   6.980   2.277
 7921TIP3    H223707   6.925   7.059   2.398
 7922TIP3   OH223708   1.472   0.208   5.619
 7922TIP3    H123709   1.437   0.151   5.687
 7922TIP3    H223710   1.420   0.288   5.624
 7923TIP3   OH223711   0.435   7.435   1.422
 7923TIP3    H123712   0.453   7.500   1.354
 7923TIP3    H223713   0.501   7.367   1.408
 7924TIP3   OH223714   5.599   2.147   1.939
 7924TIP3    H123715   5.515   2.105   1.922
 7924TIP3    H223716   5.657   2.110   1.872
 7925TIP3   OH223717   1.056   2.408   4.948
 7925TIP3    H123718   0.972   2.430   4.990
 7925TIP3    H223719   1.032   2.375   4.862
 7926TIP3   OH223720   3.481   3.673   1.120
 7926TIP3    H123721   3.500   3.683   1.213
 7926TIP3    H223722   3.417   3.742   1.101
 7927TIP3   OH223723   4.417   6.070   4.879
 7927TIP3    H123724   4.357   6.001   4.850
 7927TIP3    H223725   4.426   6.127   4.803
 7928TIP3   OH223726   4.417   2.540   4.439
 7928TIP3    H123727   4.409   2.627   4.399
 7928TIP3    H223728   4.479   2.553   4.511
 7929TIP3   OH223729   5.863   3.467   2.238
 7929TIP3    H123730   5.886   3.375   2.221
 7929TIP3    H223731   5.871   3.510   2.153
 7930TIP3   OH223732   5.292   0.689   0.846
 7930TIP3    H123733   5.231   0.629   0.804
 7930TIP3    H223734   5.370   0.637   0.862
 7931TIP3   OH223735   2.282   7.717   5.674
 7931TIP3    H123736   2.202   7.730   5.624
 7931TIP3    H223737   2.326   7.802   5.673
 7932TIP3   OH223738   1.611   4.419   3.602
 7932TIP3    H123739   1.630   4.352   3.537
 7932TIP3    H223740   1.683   4.413   3.665
 7933TIP3   OH223741   3.143   5.680   3.234
 7933TIP3    H123742   3.119   5.592   3.263
 7933TIP3    H223743   3.140   5.733   3.313
 7934TIP3   OH223744   0.699   6.202   0.114
 7934TIP3    H123745   0.708   6.108   0.104
 7934TIP3    H223746   0.788   6.236   0.109
 7935TIP3   OH223747   7.196   5.780   2.592
 7935TIP3    H123748   7.106   5.772   2.623
 7935TIP3    H223749   7.239   5.700   2.622
 7936TIP3   OH223750   6.365   2.266   0.269
 7936TIP3    H123751   6.316   2.348   0.279
 7936TIP3    H223752   6.383   2.238   0.358
 7937TIP3   OH223753   3.044   0.371   1.220
 7937TIP3    H123754   3.026   0.297   1.162
 7937TIP3    H223755   3.139   0.380   1.218
 7938TIP3   OH223756   0.142   7.847   3.170
 7938TIP3    H123757   0.182   7.775   3.122
 7938TIP3    H223758   0.125   7.914   3.104
 7939TIP3   OH223759   4.037   4.787   5.079
 7939TIP3    H123760   4.085   4.743   5.010
 7939TIP3    H223761   3.984   4.719   5.119
 7940TIP3   OH223762   7.658   0.295   2.307
 7940TIP3    H123763   7.727   0.299   2.241
 7940TIP3    H223764   7.673   0.212   2.352
 7941TIP3   OH223765   7.994   7.055   2.906
 7941TIP3    H123766   8.089   7.069   2.907
 7941TIP3    H223767   7.984   6.960   2.900
 7942TIP3   OH223768   6.546   2.768   5.933
 7942TIP3    H123769   6.638   2.778   5.909
 7942TIP3    H223770   6.544   2.787   6.026
 7943TIP3   OH223771   3.013   1.512   5.973
 7943TIP3    H123772   2.935   1.526   6.027
 7943TIP3    H223773   3.070   1.585   5.994
 7944TIP3   OH223774   6.510   3.195   1.500
 7944TIP3    H123775   6.453   3.133   1.455
 7944TIP3    H223776   6.493   3.279   1.457
 7945TIP3   OH223777   2.948   7.856   1.097
 7945TIP3    H123778   2.990   7.856   1.183
 7945TIP3    H223779   2.895   7.776   1.096
 7946TIP3   OH223780   6.791   7.586   2.815
 7946TIP3    H123781   6.815   7.495   2.801
 7946TIP3    H223782   6.769   7.592   2.907
 7947TIP3   OH223783   1.632   7.496   6.155
 7947TIP3    H123784   1.726   7.482   6.142
 7947TIP3    H223785   1.606   7.554   6.083
 7948TIP3   OH223786   1.472   0.609   3.636
 7948TIP3    H123787   1.477   0.676   3.704
 7948TIP3    H223788   1.551   0.621   3.584
 7949TIP3   OH223789   7.528   0.652   5.315
 7949TIP3    H123790   7.541   0.694   5.230
 7949TIP3    H223791   7.616   0.641   5.350
 7950TIP3   OH223792   7.096   4.250   3.689
 7950TIP3    H123793   7.065   4.267   3.779
 7950TIP3    H223794   7.046   4.174   3.660
 7951TIP3   OH223795   1.333   3.255   3.023
 7951TIP3    H123796   1.271   3.184   3.003
 7951TIP3    H223797   1.279   3.333   3.029
 7952TIP3   OH223798   5.929   0.061   4.989
 7952TIP3    H123799   5.856   0.086   4.933
 7952TIP3    H223800   5.889   0.031   5.070
 7953TIP3   OH223801   4.421   6.070   5.637
 7953TIP3    H123802   4.467   6.095   5.717
 7953TIP3    H223803   4.360   6.001   5.665
 7954TIP3   OH223804   2.024   6.936   1.058
 7954TIP3    H123805   1.958   6.942   1.127
 7954TIP3    H223806   2.057   7.026   1.048
 7955TIP3   OH223807   0.246   4.385   6.568
 7955TIP3    H123808   0.180   4.338   6.516
 7955TIP3    H223809   0.217   4.476   6.568
 7956TIP3   OH223810   2.345   5.269   1.526
 7956TIP3    H123811   2.422   5.318   1.496
 7956TIP3    H223812   2.382   5.191   1.568
 7957TIP3   OH223813   6.391   3.070   4.838
 7957TIP3    H123814   6.387   3.072   4.934
 7957TIP3    H223815   6.322   3.130   4.810
 7958TIP3   OH223816   0.996   7.792   4.442
 7958TIP3    H123817   1.090   7.806   4.456
 7958TIP3    H223818   0.956   7.878   4.454
 7959TIP3   OH223819   5.005   0.902   2.429
 7959TIP3    H123820   5.086   0.893   2.379
 7959TIP3    H223821   4.945   0.946   2.369
 7960TIP3   OH223822   3.556   1.041   1.413
 7960TIP3    H123823   3.612   1.062   1.339
 7960TIP3    H223824   3.607   0.978   1.465
 7961TIP3   OH223825   5.516   5.038   2.205
 7961TIP3    H123826   5.446   5.060   2.144
 7961TIP3    H223827   5.479   4.970   2.261
 7962TIP3   OH223828   7.813   6.919   2.519
 7962TIP3    H123829   7.870   6.967   2.459
 7962TIP3    H223830   7.766   6.857   2.464
 7963TIP3   OH223831   5.603   7.667   2.256
 7963TIP3    H123832   5.590   7.575   2.279
 7963TIP3    H223833   5.610   7.667   2.161
 7964TIP3   OH223834   6.598   7.401   4.268
 7964TIP3    H123835   6.602   7.467   4.337
 7964TIP3    H223836   6.618   7.449   4.187
 7965TIP3   OH223837   6.729   0.343   0.164
 7965TIP3    H123838   6.803   0.396   0.193
 7965TIP3    H223839   6.695   0.389   0.087
 7966TIP3   OH223840   2.048   4.958   1.565
 7966TIP3    H123841   2.054   4.991   1.476
 7966TIP3    H223842   2.132   4.915   1.581
 7967TIP3   OH223843   1.552   7.774   1.123
 7967TIP3    H123844   1.528   7.818   1.042
 7967TIP3    H223845   1.606   7.837   1.170
 7968TIP3   OH223846   1.863   4.988   3.801
 7968TIP3    H123847   1.919   4.986   3.878
 7968TIP3    H223848   1.851   4.896   3.778
 7969TIP3   OH223849   4.655   7.415   4.399
 7969TIP3    H123850   4.600   7.488   4.429
 7969TIP3    H223851   4.632   7.404   4.307
 7970TIP3   OH223852   3.887   7.028   6.738
 7970TIP3    H123853   3.981   7.037   6.718
 7970TIP3    H223854   3.847   7.103   6.694
 7971TIP3   OH223855   1.355   0.257   4.894
 7971TIP3    H123856   1.283   0.206   4.858
 7971TIP3    H223857   1.413   0.193   4.935
 7972TIP3   OH223858   7.178   2.310   6.578
 7972TIP3    H123859   7.187   2.280   6.487
 7972TIP3    H223860   7.103   2.261   6.612
 7973TIP3   OH223861   0.504   7.152   1.232
 7973TIP3    H123862   0.588   7.198   1.224
 7973TIP3    H223863   0.442   7.206   1.182
 7974TIP3   OH223864   0.540   0.605   4.011
 7974TIP3    H123865   0.627   0.601   3.971
 7974TIP3    H223866   0.490   0.536   3.968
 7975TIP3   OH223867   5.223   4.293   6.337
 7975TIP3    H123868   5.230   4.351   6.413
 7975TIP3    H223869   5.298   4.233   6.346
 7976TIP3   OH223870   3.546   1.778   1.310
 7976TIP3    H123871   3.590   1.757   1.228
 7976TIP3    H223872   3.461   1.734   1.303
 7977TIP3   OH223873   6.307   4.037   5.868
 7977TIP3    H123874   6.258   4.019   5.947
 7977TIP3    H223875   6.270   4.118   5.834
 7978TIP3   OH223876   2.844   1.249   6.608
 7978TIP3    H123877   2.796   1.185   6.556
 7978TIP3    H223878   2.931   1.210   6.621
 7979TIP3   OH223879   2.714   2.545   6.657
 7979TIP3    H123880   2.716   2.558   6.562
 7979TIP3    H223881   2.789   2.596   6.689
 7980TIP3   OH223882   7.287   2.368   0.057
 7980TIP3    H123883   7.364   2.345   0.005
 7980TIP3    H223884   7.254   2.284   0.089
 7981TIP3   OH223885   6.321   5.088   0.618
 7981TIP3    H123886   6.295   5.147   0.546
 7981TIP3    H223887   6.240   5.046   0.645
 7982TIP3   OH223888   4.797   6.578   2.269
 7982TIP3    H123889   4.882   6.621   2.258
 7982TIP3    H223890   4.739   6.625   2.209
 7983TIP3   OH223891   5.781   7.547   2.531
 7983TIP3    H123892   5.804   7.638   2.511
 7983TIP3    H223893   5.834   7.524   2.606
 7984TIP3   OH223894   2.634   3.896   3.160
 7984TIP3    H123895   2.707   3.899   3.223
 7984TIP3    H223896   2.565   3.848   3.206
 7985TIP3   OH223897   1.410   1.158   1.359
 7985TIP3    H123898   1.441   1.115   1.280
 7985TIP3    H223899   1.489   1.185   1.405
 7986TIP3   OH223900   3.933   5.778   1.553
 7986TIP3    H123901   3.872   5.704   1.551
 7986TIP3    H223902   3.956   5.788   1.645
 7987TIP3   OH223903   4.654   4.809   3.098
 7987TIP3    H123904   4.599   4.731   3.102
 7987TIP3    H223905   4.599   4.879   3.133
 7988TIP3   OH223906   6.277   4.367   1.949
 7988TIP3    H123907   6.320   4.365   2.035
 7988TIP3    H223908   6.271   4.275   1.923
 7989TIP3   OH223909   4.727   7.311   6.290
 7989TIP3    H123910   4.641   7.302   6.331
 7989TIP3    H223911   4.708   7.332   6.198
 7990TIP3   OH223912   2.067   3.099   3.816
 7990TIP3    H123913   2.084   3.037   3.744
 7990TIP3    H223914   1.992   3.061   3.862
 7991TIP3   OH223915   6.963   3.823   1.850
 7991TIP3    H123916   7.006   3.758   1.794
 7991TIP3    H223917   6.907   3.872   1.791
 7992TIP3   OH223918   4.499   4.427   2.301
 7992TIP3    H123919   4.569   4.426   2.365
 7992TIP3    H223920   4.537   4.470   2.224
 7993TIP3   OH223921   0.591   7.538   1.855
 7993TIP3    H123922   0.531   7.494   1.794
 7993TIP3    H223923   0.621   7.615   1.807
 7994TIP3   OH223924   2.154   6.127   5.040
 7994TIP3    H123925   2.211   6.164   4.972
 7994TIP3    H223926   2.214   6.078   5.097
 7995TIP3   OH223927   6.085   1.464   0.864
 7995TIP3    H123928   6.126   1.410   0.797
 7995TIP3    H223929   6.003   1.419   0.884
 7996TIP3   OH223930   5.339   3.662   2.702
 7996TIP3    H123931   5.426   3.633   2.727
 7996TIP3    H223932   5.284   3.584   2.709
 7997TIP3   OH223933   2.023   6.727   1.585
 7997TIP3    H123934   2.005   6.770   1.502
 7997TIP3    H223935   2.094   6.666   1.567
 7998TIP3   OH223936   0.693   4.445   3.204
 7998TIP3    H123937   0.742   4.464   3.284
 7998TIP3    H223938   0.628   4.515   3.199
 7999TIP3   OH223939   1.001   4.102   0.197
 7999TIP3    H123940   1.016   4.182   0.247
 7999TIP3    H223941   1.005   4.032   0.263
 8000TIP3   OH223942   4.088   6.615   3.961
 8000TIP3    H123943   4.081   6.680   4.031
 8000TIP3    H223944   4.181   6.614   3.939
 8001TIP3   OH223945   8.022   0.495   3.540
 8001TIP3    H123946   8.111   0.500   3.574
 8001TIP3    H223947   7.998   0.586   3.520
 8002TIP3   OH223948   2.161   2.897   0.275
 8002TIP3    H123949   2.126   2.929   0.358
 8002TIP3    H223950   2.083   2.879   0.222
 8003TIP3   OH223951   4.095   4.264   3.997
 8003TIP3    H123952   4.162   4.201   3.969
 8003TIP3    H223953   4.145   4.341   4.026
 8004TIP3   OH223954   4.681   5.194   1.373
 8004TIP3    H123955   4.710   5.231   1.456
 8004TIP3    H223956   4.657   5.103   1.395
 8005TIP3   OH223957   4.302   6.239   3.110
 8005TIP3    H123958   4.362   6.192   3.167
 8005TIP3    H223959   4.261   6.170   3.056
 8006TIP3   OH223960   0.724   0.220   2.181
 8006TIP3    H123961   0.670   0.293   2.214
 8006TIP3    H223962   0.812   0.256   2.176
 8007TIP3   OH223963   1.832   6.466   4.639
 8007TIP3    H123964   1.769   6.490   4.707
 8007TIP3    H223965   1.790   6.393   4.593
 8008TIP3   OH223966   4.324   3.907   0.845
 8008TIP3    H123967   4.366   3.895   0.760
 8008TIP3    H223968   4.307   4.001   0.851
 8009TIP3   OH223969   2.648   1.908   5.908
 8009TIP3    H123970   2.715   1.840   5.910
 8009TIP3    H223971   2.579   1.871   5.852
 8010TIP3   OH223972   7.997   1.069   5.240
 8010TIP3    H123973   8.001   1.018   5.159
 8010TIP3    H223974   8.088   1.074   5.270
 8011TIP3   OH223975   5.199   4.872   0.803
 8011TIP3    H123976   5.132   4.897   0.867
 8011TIP3    H223977   5.156   4.806   0.748
 8012TIP3   OH223978   4.563   0.445   0.764
 8012TIP3    H123979   4.582   0.522   0.712
 8012TIP3    H223980   4.613   0.458   0.845
 8013TIP3   OH223981   6.207   6.663   0.332
 8013TIP3    H123982   6.131   6.613   0.301
 8013TIP3    H223983   6.267   6.596   0.365
 8014TIP3   OH223984   0.508   2.978   6.586
 8014TIP3    H123985   0.417   2.997   6.607
 8014TIP3    H223986   0.523   2.889   6.619
 8015TIP3   OH223987   6.801   1.118   3.851
 8015TIP3    H123988   6.710   1.107   3.879
 8015TIP3    H223989   6.853   1.105   3.930
 8016TIP3   OH223990   5.081   6.185   5.507
 8016TIP3    H123991   5.055   6.121   5.574
 8016TIP3    H223992   5.019   6.171   5.436
 8017TIP3   OH223993   1.286   0.301   0.497
 8017TIP3    H123994   1.268   0.340   0.582
 8017TIP3    H223995   1.217   0.335   0.440
 8018TIP3   OH223996   7.125   1.987   5.108
 8018TIP3    H123997   7.140   1.899   5.143
 8018TIP3    H223998   7.040   1.980   5.064
 8019TIP3   OH223999   3.377   7.669   4.435
 8019TIP3    H124000   3.346   7.744   4.384
 8019TIP3    H224001   3.367   7.696   4.526
 8020TIP3   OH224002   8.139   6.222   3.713
 8020TIP3    H124003   8.094   6.138   3.709
 8020TIP3    H224004   8.069   6.286   3.727
 8021TIP3   OH224005   0.962   5.429   1.459
 8021TIP3    H124006   0.912   5.440   1.541
 8021TIP3    H224007   1.052   5.449   1.483
 8022TIP3   OH224008   7.424   1.120   2.518
 8022TIP3    H124009   7.405   1.028   2.498
 8022TIP3    H224010   7.507   1.138   2.473
 8023TIP3   OH224011   1.156   7.607   1.954
 8023TIP3    H124012   1.160   7.513   1.973
 8023TIP3    H224013   1.181   7.649   2.037
 8024TIP3   OH224014   1.668   4.184   5.857
 8024TIP3    H124015   1.588   4.236   5.864
 8024TIP3    H224016   1.640   4.099   5.823
 8025TIP3   OH224017   3.737   3.077   4.760
 8025TIP3    H124018   3.750   2.982   4.758
 8025TIP3    H224019   3.808   3.112   4.705
 8026TIP3   OH224020   2.554   2.971   3.328
 8026TIP3    H124021   2.616   2.899   3.317
 8026TIP3    H224022   2.472   2.937   3.291
 8027TIP3   OH224023   2.716   4.246   5.763
 8027TIP3    H124024   2.704   4.154   5.740
 8027TIP3    H224025   2.806   4.265   5.738
 8028TIP3   OH224026   2.095   2.500   5.249
 8028TIP3    H124027   2.137   2.439   5.188
 8028TIP3    H224028   2.023   2.449   5.288
 8029TIP3   OH224029   2.280   4.106   4.680
 8029TIP3    H124030   2.290   4.071   4.768
 8029TIP3    H224031   2.303   4.033   4.622
 8030TIP3   OH224032   4.891   6.543   2.943
 8030TIP3    H124033   4.927   6.630   2.962
 8030TIP3    H224034   4.844   6.553   2.861
 8031TIP3   OH224035   0.781   0.050   4.477
 8031TIP3    H124036   0.810  -0.020   4.419
 8031TIP3    H224037   0.719   0.008   4.537
 8032TIP3   OH224038   1.881   6.911   4.628
 8032TIP3    H124039   1.874   6.973   4.556
 8032TIP3    H224040   1.823   6.945   4.696
 8033TIP3   OH224041   1.767   4.591   6.453
 8033TIP3    H124042   1.687   4.542   6.432
 8033TIP3    H224043   1.799   4.622   6.368
 8034TIP3   OH224044   4.737   0.347   6.161
 8034TIP3    H124045   4.819   0.307   6.133
 8034TIP3    H224046   4.759   0.439   6.175
 8035TIP3   OH224047   6.692   2.180   0.494
 8035TIP3    H124048   6.703   2.113   0.561
 8035TIP3    H224049   6.655   2.132   0.419
 8036TIP3   OH224050   5.515   7.464   5.443
 8036TIP3    H124051   5.492   7.447   5.351
 8036TIP3    H224052   5.488   7.554   5.458
 8037TIP3   OH224053   3.050   1.076   6.603
 8037TIP3    H124054   3.084   1.042   6.521
 8037TIP3    H224055   3.019   0.998   6.650
 8038TIP3   OH224056   4.821   0.337   4.791
 8038TIP3    H124057   4.775   0.254   4.804
 8038TIP3    H224058   4.817   0.352   4.697
 8039TIP3   OH224059   3.469   5.723   1.908
 8039TIP3    H124060   3.515   5.806   1.918
 8039TIP3    H224061   3.437   5.724   1.818
 8040TIP3   OH224062   4.920   4.549   1.625
 8040TIP3    H124063   4.891   4.488   1.693
 8040TIP3    H224064   4.916   4.635   1.667
 8041TIP3   OH224065   6.127   5.680   2.093
 8041TIP3    H124066   6.035   5.664   2.074
 8041TIP3    H224067   6.162   5.595   2.118
 8042TIP3   OH224068   6.128   3.846   2.241
 8042TIP3    H124069   6.114   3.800   2.158
 8042TIP3    H224070   6.157   3.778   2.302
 8043TIP3   OH224071   3.341   4.707   5.536
 8043TIP3    H124072   3.329   4.714   5.442
 8043TIP3    H224073   3.421   4.756   5.554
 8044TIP3   OH224074   0.714   6.343   2.370
 8044TIP3    H124075   0.683   6.333   2.280
 8044TIP3    H224076   0.787   6.282   2.377
 8045TIP3   OH224077   4.074   4.300   3.228
 8045TIP3    H124078   4.058   4.235   3.160
 8045TIP3    H224079   4.060   4.252   3.310
 8046TIP3   OH224080   3.969   2.945   6.561
 8046TIP3    H124081   4.006   2.865   6.598
 8046TIP3    H224082   4.011   3.016   6.609
 8047TIP3   OH224083   4.808   6.720   6.042
 8047TIP3    H124084   4.826   6.675   6.124
 8047TIP3    H224085   4.716   6.703   6.024
 8048TIP3   OH224086   0.009   4.582   5.176
 8048TIP3    H124087   0.031   4.579   5.270
 8048TIP3    H224088   0.088   4.617   5.135
 8049TIP3   OH224089   4.660   2.284   6.261
 8049TIP3    H124090   4.638   2.365   6.217
 8049TIP3    H224091   4.575   2.244   6.280
 8050TIP3   OH224092   8.203   4.952   6.017
 8050TIP3    H124093   8.255   4.959   5.938
 8050TIP3    H224094   8.114   4.936   5.986
 8051TIP3   OH224095   5.355   1.148   4.254
 8051TIP3    H124096   5.286   1.182   4.311
 8051TIP3    H224097   5.428   1.129   4.312
 8052TIP3   OH224098   6.459   0.666   0.467
 8052TIP3    H124099   6.537   0.624   0.431
 8052TIP3    H224100   6.405   0.687   0.391
 8053TIP3   OH224101   6.990   3.674   5.344
 8053TIP3    H124102   7.063   3.646   5.288
 8053TIP3    H224103   7.033   3.700   5.427
 8054TIP3   OH224104   1.171   1.686   0.789
 8054TIP3    H124105   1.082   1.692   0.754
 8054TIP3    H224106   1.159   1.643   0.874
 8055TIP3   OH224107   1.754   0.382   3.767
 8055TIP3    H124108   1.668   0.355   3.733
 8055TIP3    H224109   1.768   0.328   3.844
 8056TIP3   OH224110   4.556   6.817   3.778
 8056TIP3    H124111   4.582   6.845   3.866
 8056TIP3    H224112   4.638   6.797   3.733
 8057TIP3   OH224113   1.435   4.335   5.786
 8057TIP3    H124114   1.381   4.326   5.864
 8057TIP3    H224115   1.445   4.430   5.775
 8058TIP3   OH224116   5.786   1.333   2.842
 8058TIP3    H124117   5.719   1.401   2.856
 8058TIP3    H224118   5.833   1.330   2.925
 8059TIP3   OH224119   5.166   3.828   2.438
 8059TIP3    H124120   5.131   3.865   2.520
 8059TIP3    H224121   5.140   3.891   2.371
 8060TIP3   OH224122   7.966   4.282   2.213
 8060TIP3    H124123   8.055   4.319   2.215
 8060TIP3    H224124   7.911   4.352   2.247
 8061TIP3   OH224125   5.718   0.244   5.768
 8061TIP3    H124126   5.673   0.237   5.853
 8061TIP3    H224127   5.786   0.310   5.782
 8062TIP3   OH224128   0.675   0.573   0.395
 8062TIP3    H124129   0.625   0.655   0.404
 8062TIP3    H224130   0.619   0.507   0.435
 8063TIP3   OH224131   0.163   7.257   3.335
 8063TIP3    H124132   0.082   7.305   3.354
 8063TIP3    H224133   0.152   7.174   3.380
 8064TIP3   OH224134   0.857   3.325   6.389
 8064TIP3    H124135   0.766   3.299   6.402
 8064TIP3    H224136   0.908   3.247   6.415
 8065TIP3   OH224137   7.443   1.993   5.281
 8065TIP3    H124138   7.493   1.917   5.252
 8065TIP3    H224139   7.396   2.022   5.203
 8066TIP3   OH224140   4.422   5.098   2.686
 8066TIP3    H124141   4.367   5.158   2.736
 8066TIP3    H224142   4.413   5.014   2.730
 8067TIP3   OH224143   4.950   2.582   0.620
 8067TIP3    H124144   5.038   2.556   0.649
 8067TIP3    H224145   4.916   2.633   0.694
 8068TIP3   OH224146   6.227   6.040   6.728
 8068TIP3    H124147   6.168   5.971   6.760
 8068TIP3    H224148   6.302   5.992   6.693
 8069TIP3   OH224149   1.996   0.272   4.190
 8069TIP3    H124150   1.992   0.261   4.095
 8069TIP3    H224151   1.908   0.300   4.214
 8070TIP3   OH224152   1.819   0.612   4.217
 8070TIP3    H124153   1.757   0.540   4.228
 8070TIP3    H224154   1.835   0.644   4.305
 8071TIP3   OH224155   5.370   7.424   1.367
 8071TIP3    H124156   5.465   7.431   1.360
 8071TIP3    H224157   5.355   7.353   1.430
 8072TIP3   OH224158   6.332   4.751   1.663
 8072TIP3    H124159   6.424   4.755   1.636
 8072TIP3    H224160   6.323   4.666   1.706
 8073TIP3   OH224161   7.965   7.273   3.860
 8073TIP3    H124162   8.004   7.189   3.834
 8073TIP3    H224163   7.905   7.294   3.788
 8074TIP3   OH224164   0.108   6.928   2.636
 8074TIP3    H124165   0.096   7.017   2.604
 8074TIP3    H224166   0.129   6.938   2.729
 8075TIP3   OH224167   0.103   2.662   0.231
 8075TIP3    H124168   0.177   2.600   0.228
 8075TIP3    H224169   0.025   2.606   0.225
 8076TIP3   OH224170   4.874   3.368   2.404
 8076TIP3    H124171   4.823   3.372   2.323
 8076TIP3    H224172   4.925   3.448   2.404
 8077TIP3   OH224173   2.698   4.114   6.096
 8077TIP3    H124174   2.794   4.113   6.090
 8077TIP3    H224175   2.680   4.185   6.157
 8078TIP3   OH224176   5.712   7.446   6.479
 8078TIP3    H124177   5.721   7.399   6.396
 8078TIP3    H224178   5.719   7.538   6.456
 8079TIP3   OH224179   0.026   7.538   0.695
 8079TIP3    H124180   0.067   7.488   0.625
 8079TIP3    H224181   0.040   7.629   0.670
 8080TIP3   OH224182   4.483   4.349   0.840
 8080TIP3    H124183   4.406   4.292   0.839
 8080TIP3    H224184   4.549   4.302   0.789
 8081TIP3   OH224185   5.797   4.057   4.567
 8081TIP3    H124186   5.884   4.089   4.591
 8081TIP3    H224187   5.789   3.973   4.613
 8082TIP3   OH224188   7.095   5.640   5.270
 8082TIP3    H124189   7.032   5.581   5.229
 8082TIP3    H224190   7.058   5.659   5.356
 8083TIP3   OH224191   0.913   6.612   0.775
 8083TIP3    H124192   0.953   6.694   0.747
 8083TIP3    H224193   0.819   6.630   0.774
 8084TIP3   OH224194   1.783   7.410   0.218
 8084TIP3    H124195   1.833   7.483   0.254
 8084TIP3    H224196   1.795   7.417   0.123
 8085TIP3   OH224197   7.522   6.821   5.663
 8085TIP3    H124198   7.516   6.751   5.729
 8085TIP3    H224199   7.457   6.886   5.691
 8086TIP3   OH224200   6.099   7.749   1.573
 8086TIP3    H124201   6.093   7.654   1.577
 8086TIP3    H224202   6.166   7.772   1.638
 8087TIP3   OH224203   2.645   5.232   5.839
 8087TIP3    H124204   2.559   5.259   5.808
 8087TIP3    H224205   2.695   5.313   5.846
 8088TIP3   OH224206   7.974   7.406   2.533
 8088TIP3    H124207   8.012   7.322   2.561
 8088TIP3    H224208   7.998   7.413   2.441
 8089TIP3   OH224209   2.791   1.285   6.040
 8089TIP3    H124210   2.804   1.235   5.959
 8089TIP3    H224211   2.778   1.375   6.010
 8090TIP3   OH224212   6.427   0.948   5.666
 8090TIP3    H124213   6.386   0.940   5.580
 8090TIP3    H224214   6.479   0.869   5.676
 8091TIP3   OH224215   5.990   6.532   0.237
 8091TIP3    H124216   5.899   6.550   0.211
 8091TIP3    H224217   6.021   6.468   0.173
 8092TIP3   OH224218   2.169   3.860   2.570
 8092TIP3    H124219   2.195   3.846   2.479
 8092TIP3    H224220   2.074   3.849   2.570
 8093TIP3   OH224221   5.672   0.184   0.698
 8093TIP3    H124222   5.661   0.091   0.681
 8093TIP3    H224223   5.677   0.224   0.611
 8094TIP3   OH224224   6.022   4.992   5.771
 8094TIP3    H124225   5.929   4.990   5.751
 8094TIP3    H224226   6.041   4.905   5.806
 8095TIP3   OH224227   7.188   5.029   5.800
 8095TIP3    H124228   7.100   5.064   5.809
 8095TIP3    H224229   7.238   5.069   5.871
 8096TIP3   OH224230   0.976   6.772   1.453
 8096TIP3    H124231   1.037   6.805   1.388
 8096TIP3    H224232   0.900   6.831   1.448
 8097TIP3   OH224233   2.143   1.454   4.532
 8097TIP3    H124234   2.082   1.470   4.460
 8097TIP3    H224235   2.132   1.361   4.553
 8098TIP3   OH224236   0.885   7.647   6.593
 8098TIP3    H124237   0.837   7.623   6.673
 8098TIP3    H224238   0.975   7.617   6.609
 8099TIP3   OH224239   3.294   5.356   5.942
 8099TIP3    H124240   3.204   5.344   5.972
 8099TIP3    H224241   3.298   5.310   5.858
 8100TIP3   OH224242   2.733   3.280   4.014
 8100TIP3    H124243   2.770   3.249   4.096
 8100TIP3    H224244   2.790   3.243   3.946
 8101TIP3   OH224245   8.320   0.087   0.893
 8101TIP3    H124246   8.325   0.175   0.929
 8101TIP3    H224247   8.306   0.031   0.970
 8102TIP3   OH224248   1.914   1.799   3.284
 8102TIP3    H124249   1.907   1.884   3.240
 8102TIP3    H224250   1.959   1.817   3.366
 8103TIP3   OH224251   6.194   5.195   0.228
 8103TIP3    H124252   6.099   5.190   0.227
 8103TIP3    H224253   6.215   5.255   0.299
 8104TIP3   OH224254   6.672   5.299   4.868
 8104TIP3    H124255   6.616   5.242   4.815
 8104TIP3    H224256   6.623   5.380   4.877
 8105TIP3   OH224257   4.478   4.630   2.658
 8105TIP3    H124258   4.530   4.693   2.608
 8105TIP3    H224259   4.543   4.576   2.703
 8106TIP3   OH224260   0.442   0.118   3.566
 8106TIP3    H124261   0.383   0.049   3.597
 8106TIP3    H224262   0.509   0.072   3.517
 8107TIP3   OH224263   6.085   6.246   0.500
 8107TIP3    H124264   6.063   6.158   0.467
 8107TIP3    H224265   6.141   6.230   0.575
 8108TIP3   OH224266   2.780   4.040   2.653
 8108TIP3    H124267   2.755   4.104   2.586
 8108TIP3    H224268   2.742   3.958   2.623
 8109TIP3   OH224269   0.908   0.449   4.275
 8109TIP3    H124270   0.879   0.396   4.349
 8109TIP3    H224271   0.860   0.413   4.200
 8110TIP3   OH224272   4.206   1.069   1.729
 8110TIP3    H124273   4.251   1.151   1.747
 8110TIP3    H224274   4.159   1.049   1.810
 8111TIP3   OH224275   7.963   2.863   1.921
 8111TIP3    H124276   7.980   2.776   1.884
 8111TIP3    H224277   8.050   2.903   1.928
 8112TIP3   OH224278   8.175   1.928   5.054
 8112TIP3    H124279   8.242   1.891   5.112
 8112TIP3    H224280   8.096   1.879   5.074
 8113TIP3   OH224281   7.340   3.577   3.061
 8113TIP3    H124282   7.372   3.499   3.016
 8113TIP3    H224283   7.410   3.642   3.050
 8114TIP3   OH224284   6.972   5.721   2.810
 8114TIP3    H124285   6.941   5.740   2.899
 8114TIP3    H224286   6.895   5.734   2.755
 8115TIP3   OH224287   2.117   2.274   2.820
 8115TIP3    H124288   2.203   2.267   2.862
 8115TIP3    H224289   2.098   2.184   2.791
 8116TIP3   OH224290   8.161   0.172   6.157
 8116TIP3    H124291   8.123   0.224   6.228
 8116TIP3    H224292   8.221   0.112   6.201
 8117TIP3   OH224293   7.410   5.293   0.665
 8117TIP3    H124294   7.455   5.209   0.655
 8117TIP3    H224295   7.455   5.351   0.604
 8118TIP3   OH224296   5.587   0.790   3.658
 8118TIP3    H124297   5.532   0.803   3.581
 8118TIP3    H224298   5.558   0.857   3.720
 8119TIP3   OH224299   5.270   3.266   6.047
 8119TIP3    H124300   5.269   3.328   5.974
 8119TIP3    H224301   5.183   3.273   6.086
 8120TIP3   OH224302   6.788   7.281   0.070
 8120TIP3    H124303   6.879   7.309   0.084
 8120TIP3    H224304   6.741   7.314   0.147
 8121TIP3   OH224305   0.703   4.669   0.476
 8121TIP3    H124306   0.683   4.690   0.384
 8121TIP3    H224307   0.796   4.649   0.476
 8122TIP3   OH224308   0.693   2.622   1.644
 8122TIP3    H124309   0.648   2.691   1.693
 8122TIP3    H224310   0.662   2.541   1.684
 8123TIP3   OH224311   8.197   4.302   5.092
 8123TIP3    H124312   8.236   4.388   5.101
 8123TIP3    H224313   8.111   4.310   5.134
 8124TIP3   OH224314   4.917   6.429   4.328
 8124TIP3    H124315   4.915   6.523   4.345
 8124TIP3    H224316   4.825   6.402   4.328
 8125TIP3   OH224317   4.705   5.585   5.421
 8125TIP3    H124318   4.741   5.674   5.424
 8125TIP3    H224319   4.711   5.554   5.511
 8126TIP3   OH224320   2.462   2.899   2.996
 8126TIP3    H124321   2.443   2.931   3.084
 8126TIP3    H224322   2.555   2.914   2.984
 8127TIP3   OH224323   4.686   4.126   6.663
 8127TIP3    H124324   4.744   4.055   6.637
 8127TIP3    H224325   4.672   4.177   6.583
 8128TIP3   OH224326   1.483   1.289   5.768
 8128TIP3    H124327   1.451   1.348   5.835
 8128TIP3    H224328   1.570   1.322   5.747
 8129TIP3   OH224329   7.426   7.064   5.050
 8129TIP3    H124330   7.330   7.060   5.047
 8129TIP3    H224331   7.452   6.979   5.083
 8130TIP3   OH224332   4.230   7.251   6.647
 8130TIP3    H124333   4.169   7.243   6.573
 8130TIP3    H224334   4.211   7.338   6.683
 8131TIP3   OH224335   0.528   4.769   6.339
 8131TIP3    H124336   0.519   4.755   6.433
 8131TIP3    H224337   0.534   4.864   6.329
 8132TIP3   OH224338   2.127   2.209   1.189
 8132TIP3    H124339   2.042   2.174   1.217
 8132TIP3    H224340   2.135   2.181   1.097
 8133TIP3   OH224341   3.671   4.036   3.033
 8133TIP3    H124342   3.581   4.006   3.015
 8133TIP3    H224343   3.726   3.970   2.991
 8134TIP3   OH224344   6.030   5.953   0.509
 8134TIP3    H124345   5.985   5.898   0.444
 8134TIP3    H224346   5.969   5.957   0.582
 8135TIP3   OH224347   6.381   2.016   1.881
 8135TIP3    H124348   6.424   2.101   1.897
 8135TIP3    H224349   6.417   1.958   1.947
 8136TIP3   OH224350   6.074   0.411   5.492
 8136TIP3    H124351   6.053   0.337   5.435
 8136TIP3    H224352   6.046   0.488   5.443
 8137TIP3   OH224353   5.647   3.700   3.318
 8137TIP3    H124354   5.642   3.696   3.223
 8137TIP3    H224355   5.625   3.791   3.340
 8138TIP3   OH224356   2.188   4.167   5.058
 8138TIP3    H124357   2.227   4.085   5.089
 8138TIP3    H224358   2.105   4.173   5.105
 8139TIP3   OH224359   6.989   0.419   5.173
 8139TIP3    H124360   6.975   0.510   5.147
 8139TIP3    H224361   6.903   0.378   5.166
 8140TIP3   OH224362   0.242   5.574   4.023
 8140TIP3    H124363   0.184   5.512   4.067
 8140TIP3    H224364   0.202   5.660   4.041
 8141TIP3   OH224365   4.323   7.770   6.562
 8141TIP3    H124366   4.263   7.728   6.500
 8141TIP3    H224367   4.271   7.783   6.641
 8142TIP3   OH224368   2.134   1.340   3.677
 8142TIP3    H124369   2.177   1.320   3.761
 8142TIP3    H224370   2.043   1.315   3.691
 8143TIP3   OH224371   3.288   2.753   2.712
 8143TIP3    H124372   3.368   2.801   2.691
 8143TIP3    H224373   3.260   2.788   2.797
 8144TIP3   OH224374   5.559   7.074   4.417
 8144TIP3    H124375   5.600   7.155   4.447
 8144TIP3    H224376   5.471   7.101   4.389
 8145TIP3   OH224377   5.370   3.996   3.765
 8145TIP3    H124378   5.460   4.024   3.779
 8145TIP3    H224379   5.378   3.912   3.719
 8146TIP3   OH224380   6.782   0.067   5.981
 8146TIP3    H124381   6.773   0.008   5.906
 8146TIP3    H224382   6.771   0.155   5.944
 8147TIP3   OH224383   4.676   4.997   2.836
 8147TIP3    H124384   4.699   4.927   2.775
 8147TIP3    H224385   4.626   5.059   2.784
 8148TIP3   OH224386   0.192   6.753   2.436
 8148TIP3    H124387   0.165   6.804   2.512
 8148TIP3    H224388   0.286   6.771   2.428
 8149TIP3   OH224389   8.194   4.217   0.964
 8149TIP3    H124390   8.124   4.160   0.995
 8149TIP3    H224391   8.268   4.159   0.949
 8150TIP3   OH224392   5.050   0.938   5.938
 8150TIP3    H124393   5.090   1.023   5.957
 8150TIP3    H224394   5.022   0.945   5.847
 8151TIP3   OH224395   5.835   1.101   1.435
 8151TIP3    H124396   5.822   1.178   1.490
 8151TIP3    H224397   5.768   1.108   1.368
 8152TIP3   OH224398   0.466   3.693   0.333
 8152TIP3    H124399   0.535   3.736   0.282
 8152TIP3    H224400   0.443   3.757   0.401
 8153TIP3   OH224401   0.465   5.700   2.587
 8153TIP3    H124402   0.490   5.778   2.539
 8153TIP3    H224403   0.518   5.702   2.667
 8154TIP3   OH224404   5.446   2.807   1.232
 8154TIP3    H124405   5.371   2.851   1.192
 8154TIP3    H224406   5.518   2.821   1.170
 8155TIP3   OH224407   1.102   6.712   0.039
 8155TIP3    H124408   1.066   6.658   0.110
 8155TIP3    H224409   1.173   6.761   0.081
 8156TIP3   OH224410   2.953   5.790   2.874
 8156TIP3    H124411   2.947   5.875   2.918
 8156TIP3    H224412   2.872   5.745   2.898
 8157TIP3   OH224413   2.012   0.148   0.652
 8157TIP3    H124414   2.091   0.115   0.608
 8157TIP3    H224415   1.945   0.146   0.584
 8158TIP3   OH224416   2.860   0.948   0.876
 8158TIP3    H124417   2.829   0.898   0.952
 8158TIP3    H224418   2.910   1.020   0.914
 8159TIP3   OH224419   1.431   5.587   3.073
 8159TIP3    H124420   1.475   5.671   3.082
 8159TIP3    H224421   1.349   5.598   3.121
 8160TIP3   OH224422   3.214   5.506   2.306
 8160TIP3    H124423   3.246   5.571   2.244
 8160TIP3    H224424   3.236   5.422   2.266
 8161TIP3   OH224425   0.029   7.821   5.903
 8161TIP3    H124426   0.004   7.747   5.959
 8161TIP3    H224427   0.123   7.813   5.893
 8162TIP3   OH224428   5.809   0.624   2.237
 8162TIP3    H124429   5.863   0.546   2.221
 8162TIP3    H224430   5.722   0.590   2.255
 8163TIP3   OH224431   8.006   0.468   4.215
 8163TIP3    H124432   7.929   0.442   4.165
 8163TIP3    H224433   7.984   0.445   4.306
 8164TIP3   OH224434   5.142   1.207   6.166
 8164TIP3    H124435   5.162   1.114   6.168
 8164TIP3    H224436   5.210   1.248   6.219
 8165TIP3   OH224437   6.936   7.313   3.527
 8165TIP3    H124438   6.907   7.333   3.437
 8165TIP3    H224439   6.904   7.387   3.579
 8166TIP3   OH224440   6.045   2.158   6.687
 8166TIP3    H124441   6.105   2.084   6.685
 8166TIP3    H224442   5.969   2.125   6.737
 8167TIP3   OH224443   4.493   6.701   5.704
 8167TIP3    H124444   4.476   6.768   5.638
 8167TIP3    H224445   4.588   6.687   5.699
 8168TIP3   OH224446   5.412   1.312   2.966
 8168TIP3    H124447   5.429   1.218   2.953
 8168TIP3    H224448   5.426   1.327   3.059
 8169TIP3   OH224449   2.101   5.931   6.430
 8169TIP3    H124450   2.192   5.960   6.423
 8169TIP3    H224451   2.052   5.991   6.374
 8170TIP3   OH224452   5.274   6.709   3.806
 8170TIP3    H124453   5.209   6.779   3.809
 8170TIP3    H224454   5.348   6.743   3.857
 8171TIP3   OH224455  -0.016   2.577   1.228
 8171TIP3    H124456   0.024   2.497   1.262
 8171TIP3    H224457   0.053   2.643   1.232
 8172TIP3   OH224458   6.901   3.094   5.193
 8172TIP3    H124459   6.859   3.142   5.264
 8172TIP3    H224460   6.949   3.161   5.144
 8173TIP3   OH224461   6.083   0.245   2.636
 8173TIP3    H124462   6.043   0.318   2.683
 8173TIP3    H224463   6.107   0.183   2.705
 8174TIP3   OH224464   6.751   7.025   6.489
 8174TIP3    H124465   6.781   6.939   6.517
 8174TIP3    H224466   6.830   7.072   6.464
 8175TIP3   OH224467   6.636   4.416   5.760
 8175TIP3    H124468   6.547   4.450   5.770
 8175TIP3    H224469   6.690   4.494   5.744
 8176TIP3   OH224470   6.556   3.176   4.496
 8176TIP3    H124471   6.613   3.251   4.481
 8176TIP3    H224472   6.572   3.151   4.587
 8177TIP3   OH224473   1.114   7.570   6.073
 8177TIP3    H124474   1.075   7.533   6.153
 8177TIP3    H224475   1.057   7.644   6.051
 8178TIP3   OH224476   7.861   0.564   1.344
 8178TIP3    H124477   7.781   0.572   1.291
 8178TIP3    H224478   7.926   0.617   1.299
 8179TIP3   OH224479   6.113   4.574   5.723
 8179TIP3    H124480   6.110   4.563   5.818
 8179TIP3    H224481   6.204   4.597   5.705
 8180TIP3   OH224482   1.297   5.507   1.163
 8180TIP3    H124483   1.329   5.425   1.125
 8180TIP3    H224484   1.367   5.536   1.220
 8181TIP3   OH224485   4.844   4.473   1.878
 8181TIP3    H124486   4.892   4.542   1.923
 8181TIP3    H224487   4.858   4.395   1.931
 8182TIP3   OH224488   4.351   3.512   6.219
 8182TIP3    H124489   4.432   3.562   6.229
 8182TIP3    H224490   4.350   3.485   6.127
 8183TIP3   OH224491   3.294   2.332   0.473
 8183TIP3    H124492   3.297   2.289   0.559
 8183TIP3    H224493   3.386   2.350   0.453
 8184TIP3   OH224494   0.355   1.632   0.280
 8184TIP3    H124495   0.391   1.545   0.299
 8184TIP3    H224496   0.361   1.641   0.185
 8185TIP3   OH224497   3.474   0.859   4.561
 8185TIP3    H124498   3.380   0.870   4.574
 8185TIP3    H224499   3.490   0.891   4.472
 8186TIP3   OH224500   3.216   6.215   1.573
 8186TIP3    H124501   3.132   6.223   1.618
 8186TIP3    H224502   3.232   6.303   1.537
 8187TIP3   OH224503   0.498   5.892   6.050
 8187TIP3    H124504   0.559   5.832   6.007
 8187TIP3    H224505   0.529   5.898   6.140
 8188TIP3   OH224506   1.572   5.695   4.339
 8188TIP3    H124507   1.660   5.681   4.374
 8188TIP3    H224508   1.514   5.666   4.410
 8189TIP3   OH224509   8.119   3.933   0.312
 8189TIP3    H124510   8.045   3.880   0.284
 8189TIP3    H224511   8.083   4.020   0.327
 8190TIP3   OH224512   4.606   0.799   2.763
 8190TIP3    H124513   4.642   0.822   2.849
 8190TIP3    H224514   4.680   0.805   2.703
 8191TIP3   OH224515   1.403   7.267   6.084
 8191TIP3    H124516   1.355   7.339   6.044
 8191TIP3    H224517   1.467   7.241   6.018
 8192TIP3   OH224518   5.461   0.778   3.207
 8192TIP3    H124519   5.425   0.861   3.176
 8192TIP3    H224520   5.458   0.785   3.302
 8193TIP3   OH224521   0.003   2.519   4.095
 8193TIP3    H124522   0.014   2.468   4.015
 8193TIP3    H224523  -0.085   2.497   4.125
 8194TIP3   OH224524   6.027   3.051   4.031
 8194TIP3    H124525   5.946   3.077   3.988
 8194TIP3    H224526   6.057   2.974   3.982
 8195TIP3   OH224527   5.995   6.723   6.275
 8195TIP3    H124528   6.011   6.817   6.285
 8195TIP3    H224529   5.907   6.709   6.309
 8196TIP3   OH224530   1.631   2.831   4.442
 8196TIP3    H124531   1.684   2.752   4.449
 8196TIP3    H224532   1.653   2.881   4.521
 8197TIP3   OH224533   5.180   5.717   0.100
 8197TIP3    H124534   5.134   5.644   0.059
 8197TIP3    H224535   5.267   5.683   0.120
 8198TIP3   OH224536   0.559   6.607   2.903
 8198TIP3    H124537   0.626   6.540   2.892
 8198TIP3    H224538   0.520   6.588   2.989
 8199TIP3   OH224539   3.912   3.012   4.154
 8199TIP3    H124540   3.871   3.006   4.068
 8199TIP3    H224541   3.919   3.106   4.172
 8200TIP3   OH224542   4.718   0.077   3.180
 8200TIP3    H124543   4.659   0.130   3.126
 8200TIP3    H224544   4.731  -0.003   3.130
 8201TIP3   OH224545   0.937   7.367   1.450
 8201TIP3    H124546   0.999   7.421   1.500
 8201TIP3    H224547   0.984   7.284   1.436
 8202TIP3   OH224548   2.098   7.751   5.272
 8202TIP3    H124549   2.157   7.698   5.218
 8202TIP3    H224550   2.033   7.688   5.305
 8203TIP3   OH224551   8.182   5.377   5.384
 8203TIP3    H124552   8.274   5.352   5.378
 8203TIP3    H224553   8.141   5.337   5.307
 8204TIP3   OH224554   5.897   5.695   3.588
 8204TIP3    H124555   5.945   5.638   3.528
 8204TIP3    H224556   5.926   5.783   3.566
 8205TIP3   OH224557   2.635   3.314   2.692
 8205TIP3    H124558   2.605   3.223   2.688
 8205TIP3    H224559   2.573   3.363   2.637
 8206TIP3   OH224560   3.774   6.589   3.051
 8206TIP3    H124561   3.756   6.514   3.108
 8206TIP3    H224562   3.787   6.551   2.964
 8207TIP3   OH224563   7.675   2.536   4.599
 8207TIP3    H124564   7.619   2.522   4.522
 8207TIP3    H224565   7.680   2.631   4.608
 8208TIP3   OH224566   3.115   4.238   1.339
 8208TIP3    H124567   3.136   4.263   1.428
 8208TIP3    H224568   3.155   4.152   1.328
 8209TIP3   OH224569   2.722   6.731   6.767
 8209TIP3    H124570   2.670   6.736   6.687
 8209TIP3    H224571   2.725   6.638   6.789
 8210TIP3   OH224572   2.441   1.346   1.373
 8210TIP3    H124573   2.385   1.388   1.438
 8210TIP3    H224574   2.438   1.253   1.396
 8211TIP3   OH224575   3.352   7.246   4.655
 8211TIP3    H124576   3.397   7.215   4.577
 8211TIP3    H224577   3.403   7.210   4.728
 8212TIP3   OH224578   5.427   5.649   0.105
 8212TIP3    H124579   5.446   5.685   0.192
 8212TIP3    H224580   5.512   5.619   0.073
 8213TIP3   OH224581   5.724   4.268   6.306
 8213TIP3    H124582   5.777   4.208   6.358
 8213TIP3    H224583   5.635   4.232   6.311
 8214TIP3   OH224584   6.929   1.985   4.915
 8214TIP3    H124585   6.914   1.999   4.821
 8214TIP3    H224586   6.855   1.932   4.943
 8215TIP3   OH224587   7.357   6.408   3.158
 8215TIP3    H124588   7.275   6.389   3.202
 8215TIP3    H224589   7.350   6.501   3.134
 8216TIP3   OH224590   2.126   1.962   0.421
 8216TIP3    H124591   2.042   1.978   0.465
 8216TIP3    H224592   2.140   1.867   0.431
 8217TIP3   OH224593   4.254   0.222   2.950
 8217TIP3    H124594   4.180   0.204   3.008
 8217TIP3    H224595   4.230   0.181   2.867
 8218TIP3   OH224596   3.104   4.861   4.306
 8218TIP3    H124597   3.058   4.846   4.223
 8218TIP3    H224598   3.184   4.810   4.298
 8219TIP3   OH224599   6.685   2.951   0.860
 8219TIP3    H124600   6.770   2.922   0.826
 8219TIP3    H224601   6.647   2.872   0.899
 8220TIP3   OH224602   4.226   5.465   0.672
 8220TIP3    H124603   4.250   5.519   0.748
 8220TIP3    H224604   4.282   5.388   0.679
 8221TIP3   OH224605   6.644   3.032   4.259
 8221TIP3    H124606   6.670   3.090   4.330
 8221TIP3    H224607   6.572   3.077   4.215
 8222TIP3   OH224608   0.318   1.779   4.755
 8222TIP3    H124609   0.329   1.873   4.771
 8222TIP3    H224610   0.230   1.759   4.787
 8223TIP3   OH224611   1.612   0.022   6.208
 8223TIP3    H124612   1.612   0.078   6.286
 8223TIP3    H224613   1.522  -0.007   6.200
 8224TIP3   OH224614   6.312   6.868   0.991
 8224TIP3    H124615   6.222   6.837   0.983
 8224TIP3    H224616   6.365   6.791   0.971
 8225TIP3   OH224617   2.505   2.042   4.460
 8225TIP3    H124618   2.513   1.956   4.418
 8225TIP3    H224619   2.413   2.065   4.449
 8226TIP3   OH224620   2.457   1.958   0.540
 8226TIP3    H124621   2.480   1.889   0.478
 8226TIP3    H224622   2.374   1.930   0.577
 8227TIP3   OH224623   8.002   4.034   1.620
 8227TIP3    H124624   8.049   4.065   1.697
 8227TIP3    H224625   7.910   4.047   1.642
 8228TIP3   OH224626   1.572   3.180   0.888
 8228TIP3    H124627   1.572   3.268   0.926
 8228TIP3    H224628   1.524   3.126   0.951
 8229TIP3   OH224629   2.866   0.861   6.248
 8229TIP3    H124630   2.925   0.786   6.237
 8229TIP3    H224631   2.918   0.936   6.219
 8230TIP3   OH224632   4.560   7.685   5.592
 8230TIP3    H124633   4.651   7.662   5.574
 8230TIP3    H224634   4.516   7.601   5.605
 8231TIP3   OH224635   2.330   0.979   2.141
 8231TIP3    H124636   2.256   1.006   2.087
 8231TIP3    H224637   2.300   0.898   2.183
 8232TIP3   OH224638   3.311   0.319   3.358
 8232TIP3    H124639   3.332   0.405   3.393
 8232TIP3    H224640   3.217   0.323   3.341
 8233TIP3   OH224641   6.741   1.164   0.741
 8233TIP3    H124642   6.836   1.171   0.749
 8233TIP3    H224643   6.722   1.196   0.653
 8234TIP3   OH224644   5.048   2.485   3.073
 8234TIP3    H124645   5.128   2.532   3.097
 8234TIP3    H224646   5.000   2.475   3.155
 8235TIP3   OH224647   7.552   0.468   5.665
 8235TIP3    H124648   7.493   0.541   5.682
 8235TIP3    H224649   7.610   0.465   5.741
 8236TIP3   OH224650   6.155   1.839   4.969
 8236TIP3    H124651   6.117   1.927   4.973
 8236TIP3    H224652   6.168   1.823   4.875
 8237TIP3   OH224653   5.852   4.056   1.995
 8237TIP3    H124654   5.832   4.150   1.991
 8237TIP3    H224655   5.835   4.024   1.907
 8238TIP3   OH224656   7.231   3.447   0.279
 8238TIP3    H124657   7.256   3.437   0.371
 8238TIP3    H224658   7.138   3.467   0.282
 8239TIP3   OH224659   5.333   4.802   4.169
 8239TIP3    H124660   5.332   4.897   4.182
 8239TIP3    H224661   5.398   4.770   4.231
 8240TIP3   OH224662   0.365   5.050   0.806
 8240TIP3    H124663   0.446   5.014   0.767
 8240TIP3    H224664   0.396   5.115   0.868
 8241TIP3   OH224665   4.473   5.647   6.701
 8241TIP3    H124666   4.420   5.671   6.777
 8241TIP3    H224667   4.420   5.674   6.626
 8242TIP3   OH224668   3.135   0.954   1.728
 8242TIP3    H124669   3.070   1.023   1.715
 8242TIP3    H224670   3.095   0.875   1.690
 8243TIP3   OH224671   4.262   5.276   0.956
 8243TIP3    H124672   4.212   5.356   0.971
 8243TIP3    H224673   4.272   5.272   0.861
 8244TIP3   OH224674   2.276   6.047   2.255
 8244TIP3    H124675   2.202   6.005   2.298
 8244TIP3    H224676   2.236   6.107   2.193
 8245TIP3   OH224677   8.318   5.560   2.111
 8245TIP3    H124678   8.241   5.533   2.061
 8245TIP3    H224679   8.337   5.485   2.167
 8246TIP3   OH224680   4.107   6.135   4.907
 8246TIP3    H124681   4.034   6.112   4.851
 8246TIP3    H224682   4.138   6.051   4.941
 8247TIP3   OH224683   0.527   3.290   0.972
 8247TIP3    H124684   0.541   3.264   1.063
 8247TIP3    H224685   0.544   3.384   0.971
 8248TIP3   OH224686   6.395   3.584   1.472
 8248TIP3    H124687   6.344   3.654   1.432
 8248TIP3    H224688   6.399   3.516   1.404
 8249TIP3   OH224689   2.963   6.288   0.463
 8249TIP3    H124690   2.969   6.370   0.514
 8249TIP3    H224691   3.048   6.246   0.475
 8250TIP3   OH224692   1.465   2.590   4.815
 8250TIP3    H124693   1.478   2.577   4.721
 8250TIP3    H224694   1.552   2.616   4.848
 8251TIP3   OH224695   3.031   1.586   4.383
 8251TIP3    H124696   2.974   1.644   4.332
 8251TIP3    H224697   3.065   1.643   4.452
 8252TIP3   OH224698   1.818   2.747   0.727
 8252TIP3    H124699   1.796   2.830   0.684
 8252TIP3    H224700   1.883   2.770   0.793
 8253TIP3   OH224701   1.206   6.600   6.349
 8253TIP3    H124702   1.115   6.595   6.319
 8253TIP3    H224703   1.255   6.628   6.271
 8254TIP3   OH224704   0.584   7.567   3.031
 8254TIP3    H124705   0.674   7.551   3.061
 8254TIP3    H224706   0.566   7.494   2.972
 8255TIP3   OH224707   1.754   5.756   5.603
 8255TIP3    H124708   1.742   5.756   5.508
 8255TIP3    H224709   1.742   5.847   5.629
 8256TIP3   OH224710   0.295   7.690   0.139
 8256TIP3    H124711   0.229   7.689   0.069
 8256TIP3    H224712   0.355   7.760   0.113
 8257TIP3   OH224713   8.023   7.140   6.844
 8257TIP3    H124714   7.972   7.180   6.773
 8257TIP3    H224715   7.983   7.054   6.856
 8258TIP3   OH224716   1.967   3.897   5.953
 8258TIP3    H124717   1.910   3.854   6.017
 8258TIP3    H224718   2.048   3.914   6.002
 8259TIP3   OH224719   8.194   1.013   1.148
 8259TIP3    H124720   8.206   1.048   1.236
 8259TIP3    H224721   8.263   0.946   1.140
 8260TIP3   OH224722   2.330   4.050   1.722
 8260TIP3    H124723   2.256   4.105   1.747
 8260TIP3    H224724   2.403   4.110   1.713
 8261TIP3   OH224725   1.962   5.276   2.240
 8261TIP3    H124726   1.932   5.196   2.283
 8261TIP3    H224727   1.979   5.337   2.311
 8262TIP3   OH224728   7.086   5.701   1.936
 8262TIP3    H124729   7.038   5.620   1.920
 8262TIP3    H224730   7.148   5.679   2.005
 8263TIP3   OH224731   4.254   5.336   4.703
 8263TIP3    H124732   4.263   5.311   4.611
 8263TIP3    H224733   4.173   5.293   4.732
 8264TIP3   OH224734   8.125   2.202   4.543
 8264TIP3    H124735   8.071   2.268   4.587
 8264TIP3    H224736   8.205   2.197   4.595
 8265TIP3   OH224737   3.917   1.369   4.708
 8265TIP3    H124738   3.886   1.336   4.793
 8265TIP3    H224739   3.907   1.295   4.649
 8266TIP3   OH224740   5.549   7.544   0.322
 8266TIP3    H124741   5.568   7.538   0.229
 8266TIP3    H224742   5.455   7.562   0.327
 8267TIP3   OH224743   6.337   2.057   1.348
 8267TIP3    H124744   6.366   2.107   1.424
 8267TIP3    H224745   6.251   2.022   1.373
 8268TIP3   OH224746   4.384   7.565   1.572
 8268TIP3    H124747   4.318   7.523   1.516
 8268TIP3    H224748   4.383   7.657   1.545
 8269TIP3   OH224749   0.552   6.209   0.372
 8269TIP3    H124750   0.609   6.211   0.295
 8269TIP3    H224751   0.557   6.298   0.407
 8270TIP3   OH224752   4.890   5.886   3.494
 8270TIP3    H124753   4.890   5.980   3.475
 8270TIP3    H224754   4.982   5.863   3.501
 8271TIP3   OH224755   2.792   1.156   6.286
 8271TIP3    H124756   2.705   1.121   6.306
 8271TIP3    H224757   2.781   1.198   6.200
 8272TIP3   OH224758   1.268   7.839   4.023
 8272TIP3    H124759   1.232   7.851   3.935
 8272TIP3    H224760   1.195   7.807   4.076
 8273TIP3   OH224761   8.217   1.563   2.190
 8273TIP3    H124762   8.193   1.530   2.104
 8273TIP3    H224763   8.298   1.518   2.212
 8274TIP3   OH224764   7.900   4.971   6.475
 8274TIP3    H124765   7.943   4.919   6.407
 8274TIP3    H224766   7.821   4.921   6.497
 8275TIP3   OH224767   7.672   2.282   3.825
 8275TIP3    H124768   7.723   2.217   3.777
 8275TIP3    H224769   7.612   2.319   3.760
 8276TIP3   OH224770   4.371   6.744   0.302
 8276TIP3    H124771   4.461   6.776   0.313
 8276TIP3    H224772   4.373   6.655   0.337
 8277TIP3   OH224773   1.724   1.962   3.735
 8277TIP3    H124774   1.724   2.051   3.702
 8277TIP3    H224775   1.636   1.948   3.770
 8278TIP3   OH224776   0.234   5.964   3.257
 8278TIP3    H124777   0.191   5.878   3.257
 8278TIP3    H224778   0.265   5.975   3.347
 8279TIP3   OH224779   6.127   5.632   5.865
 8279TIP3    H124780   6.220   5.649   5.880
 8279TIP3    H224781   6.101   5.698   5.800
 8280TIP3   OH224782   5.687   6.007   2.262
 8280TIP3    H124783   5.639   5.940   2.214
 8280TIP3    H224784   5.776   6.002   2.227
 8281TIP3   OH224785   6.280   1.611   0.337
 8281TIP3    H124786   6.188   1.602   0.312
 8281TIP3    H224787   6.327   1.618   0.254
 8282TIP3   OH224788   4.774   2.090   3.802
 8282TIP3    H124789   4.723   2.099   3.721
 8282TIP3    H224790   4.827   2.012   3.788
 8283TIP3   OH224791   5.595   5.024   4.535
 8283TIP3    H124792   5.637   5.087   4.477
 8283TIP3    H224793   5.630   4.939   4.507
 8284TIP3   OH224794   4.476   1.629   2.764
 8284TIP3    H124795   4.500   1.545   2.724
 8284TIP3    H224796   4.384   1.618   2.790
 8285TIP3   OH224797   1.349   7.261   0.050
 8285TIP3    H124798   1.405   7.244   0.126
 8285TIP3    H224799   1.286   7.326   0.082
 8286TIP3   OH224800   1.010   1.168   1.703
 8286TIP3    H124801   0.964   1.232   1.647
 8286TIP3    H224802   1.075   1.220   1.751
 8287TIP3   OH224803   1.546   3.552   5.883
 8287TIP3    H124804   1.496   3.499   5.945
 8287TIP3    H224805   1.633   3.560   5.922
 8288TIP3   OH224806   6.298   4.346   1.457
 8288TIP3    H124807   6.214   4.343   1.413
 8288TIP3    H224808   6.279   4.383   1.544
 8289TIP3   OH224809   3.939   5.207   1.989
 8289TIP3    H124810   3.851   5.210   1.951
 8289TIP3    H224811   3.997   5.196   1.914
 8290TIP3   OH224812   4.171   2.419   0.811
 8290TIP3    H124813   4.077   2.409   0.798
 8290TIP3    H224814   4.207   2.332   0.795
 8291TIP3   OH224815   8.038   6.504   6.168
 8291TIP3    H124816   7.966   6.525   6.109
 8291TIP3    H224817   8.071   6.419   6.138
 8292TIP3   OH224818   7.702   1.342   1.482
 8292TIP3    H124819   7.751   1.342   1.400
 8292TIP3    H224820   7.619   1.384   1.461
 8293TIP3   OH224821   5.569   2.774   1.729
 8293TIP3    H124822   5.657   2.803   1.753
 8293TIP3    H224823   5.524   2.854   1.700
 8294TIP3   OH224824   1.575   2.917   2.570
 8294TIP3    H124825   1.603   2.963   2.649
 8294TIP3    H224826   1.480   2.932   2.566
 8295TIP3   OH224827   0.365   3.831   2.879
 8295TIP3    H124828   0.277   3.810   2.910
 8295TIP3    H224829   0.406   3.746   2.863
 8296TIP3   OH224830   2.394   1.560   5.639
 8296TIP3    H124831   2.397   1.508   5.719
 8296TIP3    H224832   2.481   1.551   5.601
 8297TIP3   OH224833   2.920   2.680   2.212
 8297TIP3    H124834   3.008   2.707   2.239
 8297TIP3    H224835   2.935   2.617   2.142
 8298TIP3   OH224836   4.640   6.654   1.389
 8298TIP3    H124837   4.716   6.688   1.435
 8298TIP3    H224838   4.565   6.694   1.433
 8299TIP3   OH224839   5.868   1.416   6.424
 8299TIP3    H124840   5.779   1.428   6.390
 8299TIP3    H224841   5.883   1.492   6.480
 8300TIP3   OH224842   2.028   7.432   4.347
 8300TIP3    H124843   2.045   7.466   4.435
 8300TIP3    H224844   2.114   7.402   4.316
 8301TIP3   OH224845   4.645   4.800   5.536
 8301TIP3    H124846   4.550   4.806   5.527
 8301TIP3    H224847   4.660   4.790   5.630
 8302TIP3   OH224848   5.599   6.157   0.671
 8302TIP3    H124849   5.694   6.157   0.682
 8302TIP3    H224850   5.569   6.237   0.713
 8303TIP3   OH224851   1.614   2.670   0.040
 8303TIP3    H124852   1.557   2.719  -0.020
 8303TIP3    H224853   1.699   2.712   0.033
 8304TIP3   OH224854   5.629   4.826   0.182
 8304TIP3    H124855   5.599   4.914   0.160
 8304TIP3    H224856   5.661   4.789   0.100
 8305TIP3   OH224857   4.365   7.549   3.462
 8305TIP3    H124858   4.311   7.476   3.432
 8305TIP3    H224859   4.320   7.581   3.540
 8306TIP3   OH224860   3.019   0.874   5.336
 8306TIP3    H124861   2.959   0.937   5.295
 8306TIP3    H224862   3.027   0.803   5.273
 8307TIP3   OH224863   8.216   3.343   3.867
 8307TIP3    H124864   8.149   3.306   3.924
 8307TIP3    H224865   8.260   3.410   3.921
 8308TIP3   OH224866   1.880   4.565   5.441
 8308TIP3    H124867   1.844   4.652   5.461
 8308TIP3    H224868   1.943   4.548   5.511
 8309TIP3   OH224869   6.429   2.838   1.724
 8309TIP3    H124870   6.514   2.861   1.762
 8309TIP3    H224871   6.371   2.910   1.752
 8310TIP3   OH224872   4.090   4.080   1.090
 8310TIP3    H124873   4.015   4.098   1.033
 8310TIP3    H224874   4.051   4.065   1.176
 8311TIP3   OH224875   6.052   5.511   1.445
 8311TIP3    H124876   5.986   5.523   1.514
 8311TIP3    H224877   6.088   5.424   1.462
 8312TIP3   OH224878   4.477   4.079   2.755
 8312TIP3    H124879   4.406   4.031   2.799
 8312TIP3    H224880   4.434   4.124   2.683
 8313TIP3   OH224881   1.783   6.021   5.728
 8313TIP3    H124882   1.721   6.049   5.660
 8313TIP3    H224883   1.772   6.085   5.798
 8314TIP3   OH224884   5.815   1.638   5.156
 8314TIP3    H124885   5.768   1.558   5.134
 8314TIP3    H224886   5.889   1.640   5.096
 8315TIP3   OH224887   1.383   2.521   4.553
 8315TIP3    H124888   1.351   2.610   4.534
 8315TIP3    H224889   1.394   2.481   4.466
 8316TIP3   OH224890   7.150   6.040   0.951
 8316TIP3    H124891   7.243   6.019   0.940
 8316TIP3    H224892   7.117   6.049   0.861
 8317TIP3   OH224893   1.167   4.630   1.155
 8317TIP3    H124894   1.193   4.665   1.070
 8317TIP3    H224895   1.216   4.682   1.219
 8318TIP3   OH224896   4.832   4.224   1.325
 8318TIP3    H124897   4.858   4.308   1.364
 8318TIP3    H224898   4.782   4.180   1.393
 8319TIP3   OH224899   0.924   1.132   4.805
 8319TIP3    H124900   0.958   1.062   4.859
 8319TIP3    H224901   0.857   1.091   4.751
 8320TIP3   OH224902   3.963   0.314   2.125
 8320TIP3    H124903   4.020   0.263   2.068
 8320TIP3    H224904   3.948   0.257   2.200
 8321TIP3   OH224905   6.323   1.945   4.708
 8321TIP3    H124906   6.276   1.884   4.651
 8321TIP3    H224907   6.312   2.030   4.665
 8322TIP3   OH224908   5.541   3.141   2.595
 8322TIP3    H124909   5.526   3.125   2.688
 8322TIP3    H224910   5.577   3.229   2.591
 8323TIP3   OH224911   7.970   1.174   2.228
 8323TIP3    H124912   7.950   1.081   2.228
 8323TIP3    H224913   8.066   1.178   2.229
 8324TIP3   OH224914   4.048   3.791   2.072
 8324TIP3    H124915   3.991   3.769   1.998
 8324TIP3    H224916   3.988   3.809   2.144
 8325TIP3   OH224917   7.272   4.480   2.173
 8325TIP3    H124918   7.186   4.520   2.167
 8325TIP3    H224919   7.328   4.549   2.209
 8326TIP3   OH224920   4.891   0.571   6.197
 8326TIP3    H124921   4.881   0.666   6.188
 8326TIP3    H224922   4.907   0.557   6.290
 8327TIP3   OH224923   3.348   1.995   3.343
 8327TIP3    H124924   3.283   1.945   3.393
 8327TIP3    H224925   3.339   1.964   3.254
 8328TIP3   OH224926   2.698   4.418   3.968
 8328TIP3    H124927   2.776   4.452   4.010
 8328TIP3    H224928   2.645   4.495   3.948
 8329TIP3   OH224929   7.042   4.215   3.100
 8329TIP3    H124930   6.949   4.196   3.088
 8329TIP3    H224931   7.060   4.189   3.191
 8330TIP3   OH224932   0.551   5.540   5.299
 8330TIP3    H124933   0.634   5.568   5.337
 8330TIP3    H224934   0.495   5.618   5.303
 8331TIP3   OH224935   3.913   6.270   0.648
 8331TIP3    H124936   3.822   6.244   0.634
 8331TIP3    H224937   3.911   6.324   0.727
 8332TIP3   OH224938   6.459   7.757   2.006
 8332TIP3    H124939   6.404   7.711   2.070
 8332TIP3    H224940   6.541   7.774   2.053
 8333TIP3   OH224941   0.534   6.848   4.467
 8333TIP3    H124942   0.566   6.933   4.438
 8333TIP3    H224943   0.515   6.801   4.386
 8334TIP3   OH224944   2.432   6.777   3.017
 8334TIP3    H124945   2.451   6.870   3.007
 8334TIP3    H224946   2.482   6.751   3.095
 8335TIP3   OH224947   5.566   3.176   4.190
 8335TIP3    H124948   5.492   3.188   4.249
 8335TIP3    H224949   5.546   3.230   4.114
 8336TIP3   OH224950   6.706   4.879   6.659
 8336TIP3    H124951   6.712   4.966   6.619
 8336TIP3    H224952   6.770   4.881   6.730
 8337TIP3   OH224953   4.319   7.644   5.172
 8337TIP3    H124954   4.370   7.689   5.105
 8337TIP3    H224955   4.300   7.711   5.237
 8338TIP3   OH224956   6.122   5.322   3.306
 8338TIP3    H124957   6.035   5.288   3.326
 8338TIP3    H224958   6.163   5.253   3.254
 8339TIP3   OH224959   2.645   0.419   6.313
 8339TIP3    H124960   2.658   0.327   6.291
 8339TIP3    H224961   2.731   0.447   6.346
 8340TIP3   OH224962   4.611   1.344   4.440
 8340TIP3    H124963   4.617   1.434   4.409
 8340TIP3    H224964   4.594   1.352   4.534
 8341TIP3   OH224965   1.614   1.845   2.604
 8341TIP3    H124966   1.591   1.811   2.518
 8341TIP3    H224967   1.589   1.776   2.665
 8342TIP3   OH224968   2.672   7.196   3.469
 8342TIP3    H124969   2.753   7.199   3.417
 8342TIP3    H224970   2.633   7.283   3.457
 8343TIP3   OH224971   7.547   6.884   2.928
 8343TIP3    H124972   7.561   6.978   2.934
 8343TIP3    H224973   7.463   6.875   2.882
 8344TIP3   OH224974   3.658   6.808   0.795
 8344TIP3    H124975   3.567   6.779   0.799
 8344TIP3    H224976   3.673   6.853   0.878
 8345TIP3   OH224977   3.505   7.108   0.294
 8345TIP3    H124978   3.462   7.186   0.258
 8345TIP3    H224979   3.443   7.037   0.282
 8346TIP3   OH224980   0.073   3.479   3.147
 8346TIP3    H124981  -0.020   3.503   3.152
 8346TIP3    H224982   0.075   3.385   3.164
 8347TIP3   OH224983   2.950   6.137   1.667
 8347TIP3    H124984   2.916   6.095   1.746
 8347TIP3    H224985   2.968   6.064   1.607
 8348TIP3   OH224986   4.574   3.243   4.216
 8348TIP3    H124987   4.559   3.333   4.245
 8348TIP3    H224988   4.595   3.251   4.123
 8349TIP3   OH224989   7.595   2.835   4.065
 8349TIP3    H124990   7.658   2.764   4.078
 8349TIP3    H224991   7.596   2.851   3.971
 8350TIP3   OH224992   1.208   4.572   0.367
 8350TIP3    H124993   1.270   4.534   0.430
 8350TIP3    H224994   1.138   4.609   0.421
 8351TIP3   OH224995   7.126   5.501   0.351
 8351TIP3    H124996   7.037   5.471   0.365
 8351TIP3    H224997   7.168   5.495   0.437
 8352TIP3   OH224998   5.724   2.385   5.931
 8352TIP3    H124999   5.731   2.437   5.851
 8352TIP3    H225000   5.762   2.301   5.908
 8353TIP3   OH225001   6.487   6.075   3.323
 8353TIP3    H125002   6.567   6.039   3.283
 8353TIP3    H225003   6.519   6.131   3.395
 8354TIP3   OH225004   0.159   4.280   1.866
 8354TIP3    H125005   0.234   4.338   1.854
 8354TIP3    H225006   0.171   4.242   1.953
 8355TIP3   OH225007   3.067   0.745   0.259
 8355TIP3    H125008   2.985   0.785   0.229
 8355TIP3    H225009   3.131   0.766   0.191
 8356TIP3   OH225010   1.186   5.363   3.102
 8356TIP3    H125011   1.190   5.405   3.188
 8356TIP3    H225012   1.173   5.436   3.041
 8357TIP3   OH225013   1.238   3.127   5.860
 8357TIP3    H125014   1.186   3.185   5.805
 8357TIP3    H225015   1.225   3.160   5.949
 8358TIP3   OH225016   1.191   4.958   2.512
 8358TIP3    H125017   1.205   5.018   2.585
 8358TIP3    H225018   1.275   4.913   2.502
 8359TIP3   OH225019   3.305   0.465   0.312
 8359TIP3    H125020   3.321   0.522   0.237
 8359TIP3    H225021   3.371   0.396   0.305
 8360TIP3   OH225022   6.077   3.414   0.449
 8360TIP3    H125023   6.035   3.420   0.535
 8360TIP3    H225024   6.128   3.332   0.453
 8361TIP3   OH225025   5.711   6.565   4.332
 8361TIP3    H125026   5.760   6.570   4.414
 8361TIP3    H225027   5.741   6.484   4.290
 8362TIP3   OH225028   4.582   3.888   5.882
 8362TIP3    H125029   4.629   3.970   5.866
 8362TIP3    H225030   4.648   3.820   5.870
 8363TIP3   OH225031   5.542   1.474   5.680
 8363TIP3    H125032   5.498   1.400   5.721
 8363TIP3    H225033   5.541   1.454   5.586
 8364TIP3   OH225034   3.754   6.946   5.234
 8364TIP3    H125035   3.746   6.943   5.139
 8364TIP3    H225036   3.841   6.909   5.251
 8365TIP3   OH225037   7.100   4.334   4.293
 8365TIP3    H125038   7.139   4.249   4.269
 8365TIP3    H225039   7.112   4.389   4.216
 8366TIP3   OH225040   0.324   5.908   5.592
 8366TIP3    H125041   0.293   5.918   5.681
 8366TIP3    H225042   0.416   5.881   5.602
 8367TIP3   OH225043   4.460   5.312   3.068
 8367TIP3    H125044   4.411   5.330   2.988
 8367TIP3    H225045   4.399   5.334   3.139
 8368TIP3   OH225046   8.032   6.683   2.308
 8368TIP3    H125047   8.050   6.626   2.383
 8368TIP3    H225048   8.089   6.759   2.322
 8369TIP3   OH225049   1.704   5.272   5.118
 8369TIP3    H125050   1.737   5.344   5.170
 8369TIP3    H225051   1.722   5.194   5.170
 8370TIP3   OH225052   0.183   2.327   5.852
 8370TIP3    H125053   0.261   2.372   5.817
 8370TIP3    H225054   0.182   2.242   5.807
 8371TIP3   OH225055   7.475   4.772   0.628
 8371TIP3    H125056   7.435   4.764   0.714
 8371TIP3    H225057   7.428   4.708   0.574
 8372TIP3   OH225058   6.701   1.856   5.000
 8372TIP3    H125059   6.646   1.872   5.077
 8372TIP3    H225060   6.642   1.813   4.938
 8373TIP3   OH225061   4.036   0.829   6.666
 8373TIP3    H125062   4.093   0.782   6.605
 8373TIP3    H225063   4.097   0.871   6.728
 8374TIP3   OH225064   2.769   6.182   3.775
 8374TIP3    H125065   2.732   6.237   3.843
 8374TIP3    H225066   2.806   6.107   3.821
 8375TIP3   OH225067   5.586   1.486   0.930
 8375TIP3    H125068   5.550   1.489   0.841
 8375TIP3    H225069   5.510   1.495   0.987
 8376TIP3   OH225070   4.182   7.743   2.611
 8376TIP3    H125071   4.234   7.773   2.686
 8376TIP3    H225072   4.112   7.691   2.650
 8377TIP3   OH225073   1.752   6.113   2.348
 8377TIP3    H125074   1.683   6.109   2.415
 8377TIP3    H225075   1.768   6.021   2.325
 8378TIP3   OH225076   2.055   1.255   3.091
 8378TIP3    H125077   1.999   1.196   3.041
 8378TIP3    H225078   2.006   1.337   3.095
 8379TIP3   OH225079   3.702   6.325   2.495
 8379TIP3    H125080   3.717   6.413   2.461
 8379TIP3    H225081   3.767   6.271   2.450
 8380TIP3   OH225082   5.900   1.873   2.303
 8380TIP3    H125083   5.924   1.965   2.310
 8380TIP3    H225084   5.983   1.826   2.307
 8381TIP3   OH225085   1.347   6.693   6.147
 8381TIP3    H125086   1.296   6.721   6.071
 8381TIP3    H225087   1.394   6.772   6.174
 8382TIP3   OH225088   1.637   4.616   0.060
 8382TIP3    H125089   1.680   4.696   0.031
 8382TIP3    H225090   1.693   4.546   0.026
 8383TIP3   OH225091   2.641   0.001   3.307
 8383TIP3    H125092   2.726   0.027   3.271
 8383TIP3    H225093   2.623   0.066   3.375
 8384TIP3   OH225094   2.336   5.170   3.308
 8384TIP3    H125095   2.342   5.256   3.266
 8384TIP3    H225096   2.419   5.160   3.354
 8385TIP3   OH225097   2.631   2.060   1.627
 8385TIP3    H125098   2.665   2.136   1.673
 8385TIP3    H225099   2.551   2.037   1.675
 8386TIP3   OH225100   6.477   7.172   5.875
 8386TIP3    H125101   6.539   7.117   5.827
 8386TIP3    H225102   6.505   7.166   5.966
 8387TIP3   OH225103   1.817   2.316   2.392
 8387TIP3    H125104   1.878   2.340   2.462
 8387TIP3    H225105   1.816   2.220   2.394
 8388TIP3   OH225106   1.677   1.645   2.800
 8388TIP3    H125107   1.662   1.552   2.817
 8388TIP3    H225108   1.619   1.690   2.862
 8389TIP3   OH225109   2.207   4.665   4.469
 8389TIP3    H125110   2.207   4.610   4.548
 8389TIP3    H225111   2.122   4.709   4.471
 8390TIP3   OH225112   1.568   3.112   2.783
 8390TIP3    H125113   1.500   3.179   2.785
 8390TIP3    H225114   1.615   3.123   2.866
 8391TIP3   OH225115   6.845   7.086   5.096
 8391TIP3    H125116   6.856   7.032   5.017
 8391TIP3    H225117   6.762   7.057   5.133
 8392TIP3   OH225118   1.888   1.929   4.928
 8392TIP3    H125119   1.851   2.013   4.901
 8392TIP3    H225120   1.888   1.876   4.848
 8393TIP3   OH225121   7.034   1.061   3.611
 8393TIP3    H125122   6.964   1.012   3.568
 8393TIP3    H225123   6.989   1.131   3.659
 8394TIP3   OH225124   0.936   3.059   1.798
 8394TIP3    H125125   0.978   3.073   1.883
 8394TIP3    H225126   0.990   2.993   1.755
 8395TIP3   OH225127   5.570   2.451  -0.020
 8395TIP3    H125128   5.483   2.427  -0.053
 8395TIP3    H225129   5.559   2.456   0.075
 8396TIP3   OH225130   6.641   1.132   5.327
 8396TIP3    H125131   6.663   1.122   5.420
 8396TIP3    H225132   6.547   1.153   5.328
 8397TIP3   OH225133   1.107   4.688   4.342
 8397TIP3    H125134   1.022   4.682   4.387
 8397TIP3    H225135   1.168   4.642   4.399
 8398TIP3   OH225136   3.377   0.300   3.661
 8398TIP3    H125137   3.305   0.363   3.662
 8398TIP3    H225138   3.384   0.271   3.752
 8399TIP3   OH225139   6.917   2.496   5.931
 8399TIP3    H125140   6.834   2.474   5.973
 8399TIP3    H225141   6.968   2.541   5.999
 8400TIP3   OH225142   0.909   5.419   2.896
 8400TIP3    H125143   0.837   5.392   2.954
 8400TIP3    H225144   0.882   5.504   2.862
 8401TIP3   OH225145   0.881   1.332   6.531
 8401TIP3    H125146   0.925   1.359   6.612
 8401TIP3    H225147   0.866   1.238   6.543
 8402TIP3   OH225148   0.493   3.630   5.496
 8402TIP3    H125149   0.581   3.653   5.523
 8402TIP3    H225150   0.448   3.714   5.484
 8403TIP3   OH225151   1.974   3.670   0.395
 8403TIP3    H125152   1.958   3.739   0.330
 8403TIP3    H225153   2.052   3.699   0.442
 8404TIP3   OH225154   5.968   1.113   4.039
 8404TIP3    H125155   5.983   1.019   4.027
 8404TIP3    H225156   5.899   1.134   3.976
 8405TIP3   OH225157   4.878   4.256   5.440
 8405TIP3    H125158   4.959   4.307   5.442
 8405TIP3    H225159   4.892   4.186   5.504
 8406TIP3   OH225160   2.738   6.764   1.642
 8406TIP3    H125161   2.705   6.816   1.714
 8406TIP3    H225162   2.758   6.678   1.681
 8407TIP3   OH225163   6.798   4.983   1.306
 8407TIP3    H125164   6.735   4.995   1.377
 8407TIP3    H225165   6.881   5.014   1.341
 8408TIP3   OH225166   3.066   6.495   6.072
 8408TIP3    H125167   3.137   6.436   6.046
 8408TIP3    H225168   3.067   6.493   6.168
 8409TIP3   OH225169   0.544   6.252   1.443
 8409TIP3    H125170   0.588   6.198   1.378
 8409TIP3    H225171   0.485   6.191   1.489
 8410TIP3   OH225172   2.695   1.033   4.103
 8410TIP3    H125173   2.706   1.128   4.111
 8410TIP3    H225174   2.777   0.997   4.136
 8411TIP3   OH225175   2.831   7.236   4.315
 8411TIP3    H125176   2.835   7.319   4.362
 8411TIP3    H225177   2.922   7.211   4.303
 8412TIP3   OH225178   7.889   3.840   5.696
 8412TIP3    H125179   7.910   3.932   5.680
 8412TIP3    H225180   7.870   3.804   5.609
 8413TIP3   OH225181   3.295   7.334   6.261
 8413TIP3    H125182   3.362   7.381   6.212
 8413TIP3    H225183   3.329   7.245   6.270
 8414TIP3   OH225184   2.564   2.521   3.442
 8414TIP3    H125185   2.513   2.502   3.521
 8414TIP3    H225186   2.541   2.450   3.382
 8415TIP3   OH225187   2.623   2.651   1.075
 8415TIP3    H125188   2.607   2.559   1.099
 8415TIP3    H225189   2.712   2.651   1.040
 8416TIP3   OH225190   7.098   1.191   1.765
 8416TIP3    H125191   7.019   1.212   1.715
 8416TIP3    H225192   7.068   1.131   1.834
 8417TIP3   OH225193   1.297   2.934   3.048
 8417TIP3    H125194   1.262   2.962   2.963
 8417TIP3    H225195   1.330   2.846   3.032
 8418TIP3   OH225196   7.685   4.939   4.188
 8418TIP3    H125197   7.599   4.930   4.148
 8418TIP3    H225198   7.747   4.940   4.114
 8419TIP3   OH225199   4.492   6.793   4.248
 8419TIP3    H125200   4.483   6.813   4.341
 8419TIP3    H225201   4.570   6.739   4.241
 8420TIP3   OH225202   5.131   7.309   2.644
 8420TIP3    H125203   5.061   7.320   2.708
 8420TIP3    H225204   5.115   7.378   2.579
 8421TIP3   OH225205   4.167   6.395   4.237
 8421TIP3    H125206   4.247   6.352   4.206
 8421TIP3    H225207   4.096   6.336   4.213
 8422TIP3   OH225208   6.667   3.399   5.137
 8422TIP3    H125209   6.757   3.392   5.171
 8422TIP3    H225210   6.617   3.438   5.209
 8423TIP3   OH225211   4.586   2.017   1.524
 8423TIP3    H125212   4.560   1.925   1.531
 8423TIP3    H225213   4.608   2.042   1.614
 8424TIP3   OH225214   7.422   2.075   1.520
 8424TIP3    H125215   7.352   2.105   1.578
 8424TIP3    H225216   7.503   2.102   1.565
 8425TIP3   OH225217   2.592   6.879   5.801
 8425TIP3    H125218   2.611   6.861   5.893
 8425TIP3    H225219   2.657   6.945   5.776
 8426TIP3   OH225220   2.899   5.146   5.771
 8426TIP3    H125221   2.813   5.167   5.807
 8426TIP3    H225222   2.880   5.113   5.683
 8427TIP3   OH225223   3.329   5.367   2.030
 8427TIP3    H125224   3.316   5.442   1.972
 8427TIP3    H225225   3.353   5.296   1.971
 8428TIP3   OH225226   7.364   7.482   2.371
 8428TIP3    H125227   7.342   7.389   2.378
 8428TIP3    H225228   7.438   7.484   2.310
 8429TIP3   OH225229   3.503   0.130   0.514
 8429TIP3    H125230   3.421   0.084   0.532
 8429TIP3    H225231   3.551   0.071   0.456
 8430TIP3   OH225232   6.656   6.606   3.131
 8430TIP3    H125233   6.724   6.614   3.063
 8430TIP3    H225234   6.691   6.540   3.191
 8431TIP3   OH225235   7.382   0.727   3.457
 8431TIP3    H125236   7.371   0.823   3.457
 8431TIP3    H225237   7.293   0.693   3.452
 8432TIP3   OH225238   7.116   5.972   5.344
 8432TIP3    H125239   7.166   5.946   5.266
 8432TIP3    H225240   7.150   5.916   5.413
 8433TIP3   OH225241   7.276   6.319   6.517
 8433TIP3    H125242   7.246   6.234   6.483
 8433TIP3    H225243   7.297   6.370   6.439
 8434TIP3   OH225244   5.586   3.358   2.036
 8434TIP3    H125245   5.678   3.368   2.012
 8434TIP3    H225246   5.540   3.414   1.973
 8435TIP3   OH225247   1.939   6.556   3.150
 8435TIP3    H125248   1.877   6.485   3.165
 8435TIP3    H225249   2.001   6.521   3.087
 8436TIP3   OH225250   6.243   5.107   2.933
 8436TIP3    H125251   6.214   5.066   2.851
 8436TIP3    H225252   6.325   5.149   2.911
 8437TIP3   OH225253   3.765   6.351   3.707
 8437TIP3    H125254   3.779   6.299   3.785
 8437TIP3    H225255   3.844   6.337   3.654
 8438TIP3   OH225256   8.180   4.671   4.092
 8438TIP3    H125257   8.118   4.735   4.127
 8438TIP3    H225258   8.237   4.650   4.165
 8439TIP3   OH225259   8.151   7.056   6.125
 8439TIP3    H125260   8.163   7.024   6.035
 8439TIP3    H225261   8.194   7.141   6.126
 8440TIP3   OH225262   6.270   3.381   1.634
 8440TIP3    H125263   6.307   3.460   1.594
 8440TIP3    H225264   6.231   3.412   1.716
 8441TIP3   OH225265   4.268   1.030   4.133
 8441TIP3    H125266   4.176   1.031   4.159
 8441TIP3    H225267   4.316   1.014   4.215
 8442TIP3   OH225268   1.994   5.410   4.980
 8442TIP3    H125269   2.007   5.315   4.972
 8442TIP3    H225270   1.980   5.424   5.074
 8443TIP3   OH225271   6.312   4.440   1.094
 8443TIP3    H125272   6.355   4.522   1.120
 8443TIP3    H225273   6.237   4.433   1.154
 8444TIP3   OH225274   4.129   2.249   2.804
 8444TIP3    H125275   4.177   2.291   2.875
 8444TIP3    H225276   4.070   2.188   2.848
 8445TIP3   OH225277   6.854   6.824   2.105
 8445TIP3    H125278   6.883   6.748   2.054
 8445TIP3    H225279   6.867   6.898   2.046
 8446TIP3   OH225280   6.762   2.269   3.397
 8446TIP3    H125281   6.846   2.314   3.407
 8446TIP3    H225282   6.697   2.339   3.406
 8447TIP3   OH225283   8.327   0.207   3.865
 8447TIP3    H125284   8.340   0.295   3.902
 8447TIP3    H225285   8.233   0.192   3.873
 8448TIP3   OH225286   1.895   6.767   5.141
 8448TIP3    H125287   1.933   6.766   5.053
 8448TIP3    H225288   1.802   6.748   5.126
 8449TIP3   OH225289   1.710   5.510   1.639
 8449TIP3    H125290   1.682   5.571   1.571
 8449TIP3    H225291   1.677   5.425   1.611
 8450TIP3   OH225292   0.757   2.812   5.683
 8450TIP3    H125293   0.760   2.733   5.629
 8450TIP3    H225294   0.764   2.884   5.619
 8451TIP3   OH225295   5.417   5.801   6.630
 8451TIP3    H125296   5.357   5.824   6.559
 8451TIP3    H225297   5.502   5.835   6.602
 8452TIP3   OH225298   5.345   0.804   6.651
 8452TIP3    H125299   5.284   0.843   6.714
 8452TIP3    H225300   5.377   0.878   6.599
 8453TIP3   OH225301   0.009   4.678   0.436
 8453TIP3    H125302   0.031   4.695   0.528
 8453TIP3    H225303  -0.080   4.713   0.427
 8454TIP3   OH225304   3.813   4.426   0.068
 8454TIP3    H125305   3.805   4.458  -0.022
 8454TIP3    H225306   3.726   4.435   0.105
 8455TIP3   OH225307   0.927   0.678   0.465
 8455TIP3    H125308   0.848   0.650   0.418
 8455TIP3    H225309   0.904   0.671   0.557
 8456TIP3   OH225310   1.583   3.122   1.907
 8456TIP3    H125311   1.582   3.114   2.003
 8456TIP3    H225312   1.637   3.200   1.890
 8457TIP3   OH225313   5.117   6.521   5.089
 8457TIP3    H125314   5.163   6.462   5.148
 8457TIP3    H225315   5.046   6.468   5.051
 8458TIP3   OH225316   1.718   3.667   4.115
 8458TIP3    H125317   1.786   3.719   4.073
 8458TIP3    H225318   1.763   3.590   4.148
 8459TIP3   OH225319   1.267   2.512   3.397
 8459TIP3    H125320   1.214   2.587   3.424
 8459TIP3    H225321   1.289   2.529   3.306
 8460TIP3   OH225322   6.795   1.337   4.300
 8460TIP3    H125323   6.796   1.362   4.393
 8460TIP3    H225324   6.767   1.245   4.301
 8461TIP3   OH225325   5.942   7.161   2.495
 8461TIP3    H125326   5.968   7.080   2.540
 8461TIP3    H225327   5.957   7.142   2.402
 8462TIP3   OH225328   4.882   4.702   3.850
 8462TIP3    H125329   4.905   4.655   3.770
 8462TIP3    H225330   4.821   4.644   3.896
 8463TIP3   OH225331   0.684   4.403   0.180
 8463TIP3    H125332   0.663   4.476   0.121
 8463TIP3    H225333   0.600   4.362   0.199
 8464TIP3   OH225334   1.077   5.072   0.447
 8464TIP3    H125335   1.160   5.063   0.400
 8464TIP3    H225336   1.081   5.158   0.487
 8465TIP3   OH225337   1.528   3.108   5.241
 8465TIP3    H125338   1.535   3.013   5.231
 8465TIP3    H225339   1.435   3.126   5.232
 8466TIP3   OH225340   6.436   4.970   0.882
 8466TIP3    H125341   6.368   5.000   0.822
 8466TIP3    H225342   6.437   5.036   0.952
 8467TIP3   OH225343   2.724   7.261   3.070
 8467TIP3    H125344   2.634   7.277   3.100
 8467TIP3    H225345   2.757   7.194   3.130
 8468TIP3   OH225346   1.250   5.923   4.003
 8468TIP3    H125347   1.340   5.900   3.984
 8468TIP3    H225348   1.218   5.851   4.059
 8469TIP3   OH225349  -0.017   3.802   0.049
 8469TIP3    H125350   0.020   3.798   0.137
 8469TIP3    H225351   0.046   3.755  -0.006
 8470TIP3   OH225352   5.061   4.779   1.044
 8470TIP3    H125353   4.968   4.791   1.026
 8470TIP3    H225354   5.082   4.849   1.106
 8471TIP3   OH225355   7.659   6.126   1.784
 8471TIP3    H125356   7.646   6.221   1.782
 8471TIP3    H225357   7.596   6.091   1.721
 8472TIP3   OH225358   6.901  -0.003   0.983
 8472TIP3    H125359   6.857   0.079   0.960
 8472TIP3    H225360   6.990   0.008   0.950
 8473TIP3   OH225361   6.982   3.140   0.619
 8473TIP3    H125362   7.003   3.094   0.537
 8473TIP3    H225363   6.966   3.069   0.682
 8474TIP3   OH225364   2.841   3.412   6.278
 8474TIP3    H125365   2.770   3.474   6.293
 8474TIP3    H225366   2.812   3.360   6.203
 8475TIP3   OH225367   3.375   7.360   2.146
 8475TIP3    H125368   3.324   7.359   2.227
 8475TIP3    H225369   3.464   7.382   2.174
 8476TIP3   OH225370   5.726   7.321   6.226
 8476TIP3    H125371   5.744   7.357   6.139
 8476TIP3    H225372   5.659   7.254   6.211
 8477TIP3   OH225373   7.797   1.606   6.348
 8477TIP3    H125374   7.776   1.592   6.441
 8477TIP3    H225375   7.885   1.570   6.337
 8478TIP3   OH225376   4.808   7.553   6.443
 8478TIP3    H125377   4.795   7.467   6.402
 8478TIP3    H225378   4.844   7.607   6.373
 8479TIP3   OH225379   7.214   5.985   6.661
 8479TIP3    H125380   7.152   5.970   6.732
 8479TIP3    H225381   7.160   5.993   6.583
 8480TIP3   OH225382   1.970   6.061   6.246
 8480TIP3    H125383   1.926   6.139   6.213
 8480TIP3    H225384   1.951   5.993   6.180
 8481TIP3   OH225385   0.459   7.374   5.085
 8481TIP3    H125386   0.399   7.381   5.159
 8481TIP3    H225387   0.471   7.279   5.073
 8482TIP3   OH225388   5.393   2.819   3.477
 8482TIP3    H125389   5.409   2.824   3.383
 8482TIP3    H225390   5.344   2.738   3.489
 8483TIP3   OH225391   0.014   7.011   4.818
 8483TIP3    H125392   0.037   6.918   4.812
 8483TIP3    H225393  -0.081   7.013   4.811
 8484TIP3   OH225394   1.497   5.302   2.903
 8484TIP3    H125395   1.528   5.310   2.813
 8484TIP3    H225396   1.442   5.379   2.917
 8485TIP3   OH225397   1.629   3.907   2.553
 8485TIP3    H125398   1.606   3.848   2.625
 8485TIP3    H225399   1.628   3.994   2.591
 8486TIP3   OH225400   7.583   1.495   2.298
 8486TIP3    H125401   7.496   1.526   2.323
 8486TIP3    H225402   7.636   1.574   2.295
 8487TIP3   OH225403   1.596   3.927   5.778
 8487TIP3    H125404   1.555   3.868   5.841
 8487TIP3    H225405   1.527   3.948   5.715
 8488TIP3   OH225406   2.379   4.950   4.358
 8488TIP3    H125407   2.456   4.927   4.306
 8488TIP3    H225408   2.354   5.037   4.327
 8489TIP3   OH225409   5.945   1.840   1.793
 8489TIP3    H125410   5.951   1.867   1.885
 8489TIP3    H225411   6.029   1.864   1.755
 8490TIP3   OH225412   5.723   6.332   3.803
 8490TIP3    H125413   5.718   6.422   3.836
 8490TIP3    H225414   5.688   6.279   3.875
 8491TIP3   OH225415   6.779   0.309   0.518
 8491TIP3    H125416   6.843   0.241   0.537
 8491TIP3    H225417   6.694   0.263   0.522
 8492TIP3   OH225418   8.140   3.442   5.956
 8492TIP3    H125419   8.123   3.535   5.940
 8492TIP3    H225420   8.227   3.440   5.995
 8493TIP3   OH225421   6.105   0.665   4.205
 8493TIP3    H125422   6.061   0.741   4.244
 8493TIP3    H225423   6.034   0.611   4.171
 8494TIP3   OH225424   0.786   7.303   3.410
 8494TIP3    H125425   0.826   7.356   3.478
 8494TIP3    H225426   0.759   7.223   3.455
 8495TIP3   OH225427   1.476   4.644   5.760
 8495TIP3    H125428   1.494   4.664   5.668
 8495TIP3    H225429   1.553   4.675   5.808
 8496TIP3   OH225430   4.841   4.821   1.352
 8496TIP3    H125431   4.919   4.869   1.381
 8496TIP3    H225432   4.779   4.831   1.424
 8497TIP3   OH225433   4.302   0.505   3.330
 8497TIP3    H125434   4.258   0.575   3.282
 8497TIP3    H225435   4.366   0.470   3.268
 8498TIP3   OH225436   1.850   4.335   2.323
 8498TIP3    H125437   1.824   4.252   2.283
 8498TIP3    H225438   1.790   4.399   2.286
 8499TIP3   OH225439   3.775   6.912   1.032
 8499TIP3    H125440   3.707   6.890   1.095
 8499TIP3    H225441   3.855   6.871   1.066
 8500TIP3   OH225442   4.259   4.925   3.664
 8500TIP3    H125443   4.290   4.934   3.574
 8500TIP3    H225444   4.165   4.913   3.656
 8501TIP3   OH225445   6.370   2.167   5.781
 8501TIP3    H125446   6.361   2.212   5.865
 8501TIP3    H225447   6.336   2.079   5.797
 8502TIP3   OH225448   3.414   6.116   1.804
 8502TIP3    H125449   3.472   6.188   1.778
 8502TIP3    H225450   3.336   6.128   1.750
 8503TIP3   OH225451   0.154   3.609   3.388
 8503TIP3    H125452   0.149   3.540   3.321
 8503TIP3    H225453   0.073   3.600   3.438
 8504TIP3   OH225454   0.339   4.028   3.129
 8504TIP3    H125455   0.308   3.964   3.192
 8504TIP3    H225456   0.401   3.980   3.074
 8505TIP3   OH225457   7.121   6.874   0.496
 8505TIP3    H125458   7.130   6.778   0.501
 8505TIP3    H225459   7.145   6.904   0.584
 8506TIP3   OH225460   7.608   5.452   6.093
 8506TIP3    H125461   7.636   5.470   6.004
 8506TIP3    H225462   7.668   5.502   6.148
 8507TIP3   OH225463   0.593   1.044   0.814
 8507TIP3    H125464   0.526   1.111   0.828
 8507TIP3    H225465   0.561   0.968   0.863
 8508TIP3   OH225466   3.160   5.239   2.581
 8508TIP3    H125467   3.196   5.151   2.591
 8508TIP3    H225468   3.122   5.260   2.666
 8509TIP3   OH225469   1.559   1.288   4.029
 8509TIP3    H125470   1.644   1.246   4.015
 8509TIP3    H225471   1.518   1.235   4.098
 8510TIP3   OH225472   3.781   7.495   6.488
 8510TIP3    H125473   3.818   7.581   6.507
 8510TIP3    H225474   3.692   7.499   6.523
 8511TIP3   OH225475   5.523   1.032   5.779
 8511TIP3    H125476   5.526   1.072   5.692
 8511TIP3    H225477   5.457   0.963   5.772
 8512TIP3   OH225478   0.567   6.738   2.156
 8512TIP3    H125479   0.652   6.772   2.185
 8512TIP3    H225480   0.512   6.741   2.234
 8513TIP3   OH225481   7.999   5.750   5.967
 8513TIP3    H125482   7.994   5.757   5.872
 8513TIP3    H225483   7.908   5.744   5.996
 8514TIP3   OH225484   1.138   2.257   3.500
 8514TIP3    H125485   1.182   2.342   3.493
 8514TIP3    H225486   1.135   2.240   3.594
 8515TIP3   OH225487   7.996   3.724   1.826
 8515TIP3    H125488   7.902   3.725   1.809
 8515TIP3    H225489   8.007   3.659   1.896
 8516TIP3   OH225490   1.076   6.462   3.611
 8516TIP3    H125491   1.168   6.448   3.588
 8516TIP3    H225492   1.057   6.551   3.582
 8517TIP3   OH225493   0.594   4.866   4.685
 8517TIP3    H125494   0.644   4.948   4.681
 8517TIP3    H225495   0.522   4.886   4.744
 8518TIP3   OH225496   3.949   1.925   1.279
 8518TIP3    H125497   3.905   1.975   1.210
 8518TIP3    H225498   4.011   1.987   1.318
 8519TIP3   OH225499   1.971   3.555   2.715
 8519TIP3    H125500   1.897   3.546   2.775
 8519TIP3    H225501   1.933   3.590   2.635
 8520TIP3   OH225502   1.924   1.610   0.031
 8520TIP3    H125503   1.851   1.659  -0.007
 8520TIP3    H225504   2.001   1.663   0.010
 8521TIP3   OH225505   1.058   0.846   1.275
 8521TIP3    H125506   1.105   0.848   1.359
 8521TIP3    H225507   0.967   0.863   1.298
 8522TIP3   OH225508   2.648   1.216   0.742
 8522TIP3    H125509   2.734   1.218   0.701
 8522TIP3    H225510   2.666   1.219   0.836
 8523TIP3   OH225511   7.908   6.722   1.855
 8523TIP3    H125512   7.949   6.708   1.770
 8523TIP3    H225513   7.963   6.675   1.918
 8524TIP3   OH225514   5.759   0.278   2.979
 8524TIP3    H125515   5.810   0.199   2.996
 8524TIP3    H225516   5.680   0.267   3.031
 8525TIP3   OH225517   5.829   5.458   2.906
 8525TIP3    H125518   5.885   5.386   2.876
 8525TIP3    H225519   5.759   5.462   2.841
 8526TIP3   OH225520   3.808   4.738   3.553
 8526TIP3    H125521   3.777   4.662   3.601
 8526TIP3    H225522   3.729   4.791   3.539
 8527TIP3   OH225523   4.831   3.887   5.227
 8527TIP3    H125524   4.746   3.864   5.264
 8527TIP3    H225525   4.888   3.813   5.250
 8528TIP3   OH225526   0.304   0.724   2.721
 8528TIP3    H125527   0.380   0.704   2.776
 8528TIP3    H225528   0.318   0.814   2.692
 8529TIP3   OH225529   0.098   1.684   1.680
 8529TIP3    H125530   0.022   1.693   1.623
 8529TIP3    H225531   0.154   1.620   1.636
 8530TIP3   OH225532   1.211   4.198   5.293
 8530TIP3    H125533   1.232   4.239   5.376
 8530TIP3    H225534   1.167   4.116   5.317
 8531TIP3   OH225535   2.865   2.591   2.572
 8531TIP3    H125536   2.807   2.527   2.532
 8531TIP3    H225537   2.817   2.673   2.569
 8532TIP3   OH225538   5.448   3.979   6.568
 8532TIP3    H125539   5.377   4.029   6.608
 8532TIP3    H225540   5.499   3.946   6.642
 8533TIP3   OH225541   5.816   2.796   4.065
 8533TIP3    H125542   5.890   2.826   4.013
 8533TIP3    H225543   5.781   2.722   4.017
 8534TIP3   OH225544   7.196   2.327   3.706
 8534TIP3    H125545   7.225   2.240   3.735
 8534TIP3    H225546   7.163   2.369   3.785
 8535TIP3   OH225547   0.381   0.054   3.188
 8535TIP3    H125548   0.301   0.035   3.139
 8535TIP3    H225549   0.354   0.118   3.254
 8536TIP3   OH225550   5.686   1.168   4.764
 8536TIP3    H125551   5.594   1.178   4.787
 8536TIP3    H225552   5.718   1.099   4.822
 8537TIP3   OH225553   2.891   4.250   4.349
 8537TIP3    H125554   2.927   4.276   4.264
 8537TIP3    H225555   2.869   4.157   4.338
 8538TIP3   OH225556   2.883   6.178   0.902
 8538TIP3    H125557   2.840   6.160   0.818
 8538TIP3    H225558   2.813   6.213   0.957
 8539TIP3   OH225559   4.773   3.659   2.331
 8539TIP3    H125560   4.730   3.628   2.411
 8539TIP3    H225561   4.729   3.611   2.260
 8540TIP3   OH225562   2.957   5.836   0.180
 8540TIP3    H125563   2.951   5.790   0.097
 8540TIP3    H225564   3.043   5.879   0.177
 8541TIP3   OH225565   4.036   7.393   0.262
 8541TIP3    H125566   4.027   7.472   0.314
 8541TIP3    H225567   4.088   7.334   0.316
 8542TIP3   OH225568   4.225   3.853   1.172
 8542TIP3    H125569   4.158   3.784   1.163
 8542TIP3    H225570   4.179   3.934   1.152
 8543TIP3   OH225571   6.840   3.156   6.333
 8543TIP3    H125572   6.756   3.197   6.353
 8543TIP3    H225573   6.902   3.228   6.331
 8544TIP3   OH225574   1.604   6.509   2.829
 8544TIP3    H125575   1.523   6.510   2.778
 8544TIP3    H225576   1.640   6.597   2.818
 8545TIP3   OH225577   3.062   3.921   4.920
 8545TIP3    H125578   3.016   3.995   4.880
 8545TIP3    H225579   3.007   3.897   4.995
 8546TIP3   OH225580   7.760   0.769   3.489
 8546TIP3    H125581   7.713   0.849   3.465
 8546TIP3    H225582   7.788   0.783   3.579
 8547TIP3   OH225583   2.283   5.904   5.463
 8547TIP3    H125584   2.231   5.951   5.527
 8547TIP3    H225585   2.372   5.938   5.475
 8548TIP3   OH225586   5.111   3.437   2.223
 8548TIP3    H125587   5.056   3.400   2.154
 8548TIP3    H225588   5.093   3.383   2.300
 8549TIP3   OH225589   2.029   4.701   0.263
 8549TIP3    H125590   2.044   4.776   0.322
 8549TIP3    H225591   2.059   4.732   0.178
 8550TIP3   OH225592   3.624   1.167   6.592
 8550TIP3    H125593   3.575   1.149   6.672
 8550TIP3    H225594   3.687   1.095   6.586
 8551TIP3   OH225595   1.648   5.546   3.631
 8551TIP3    H125596   1.719   5.551   3.696
 8551TIP3    H225597   1.690   5.509   3.554
 8552TIP3   OH225598   5.932   6.688   3.034
 8552TIP3    H125599   5.944   6.641   2.952
 8552TIP3    H225600   5.865   6.638   3.080
 8553TIP3   OH225601   2.455   6.624   4.159
 8553TIP3    H125602   2.493   6.641   4.245
 8553TIP3    H225603   2.365   6.597   4.177
 8554TIP3   OH225604   2.013   4.501   2.634
 8554TIP3    H125605   1.976   4.582   2.598
 8554TIP3    H225606   2.107   4.519   2.643
 8555TIP3   OH225607   2.607   5.118   3.968
 8555TIP3    H125608   2.572   5.117   3.880
 8555TIP3    H225609   2.571   5.197   4.008
 8556TIP3   OH225610   4.444   7.083   6.520
 8556TIP3    H125611   4.374   7.124   6.570
 8556TIP3    H225612   4.462   7.143   6.448
 8557TIP3   OH225613   1.882   0.168   6.631
 8557TIP3    H125614   1.815   0.177   6.698
 8557TIP3    H225615   1.946   0.237   6.651
 8558TIP3   OH225616   2.641   0.983   4.546
 8558TIP3    H125617   2.689   0.921   4.491
 8558TIP3    H225618   2.612   0.931   4.621
 8559TIP3   OH225619   7.607   4.345   0.983
 8559TIP3    H125620   7.610   4.370   0.890
 8559TIP3    H225621   7.613   4.428   1.030
 8560TIP3   OH225622   4.940   3.219   3.666
 8560TIP3    H125623   4.898   3.156   3.608
 8560TIP3    H225624   4.873   3.286   3.682
 8561TIP3   OH225625   7.604   3.314   4.658
 8561TIP3    H125626   7.607   3.410   4.649
 8561TIP3    H225627   7.515   3.296   4.688
 8562TIP3   OH225628   7.889   0.246   3.575
 8562TIP3    H125629   7.961   0.308   3.572
 8562TIP3    H225630   7.815   0.297   3.607
 8563TIP3   OH225631   7.050   4.587   3.919
 8563TIP3    H125632   7.113   4.554   3.983
 8563TIP3    H225633   6.965   4.571   3.959
 8564TIP3   OH225634   0.038   5.510   3.389
 8564TIP3    H125635   0.097   5.449   3.345
 8564TIP3    H225636   0.077   5.523   3.476
 8565TIP3   OH225637   3.964   1.645   0.508
 8565TIP3    H125638   3.911   1.651   0.429
 8565TIP3    H225639   3.903   1.663   0.579
 8566TIP3   OH225640   2.861   5.217   6.155
 8566TIP3    H125641   2.804   5.141   6.167
 8566TIP3    H225642   2.882   5.246   6.244
 8567TIP3   OH225643   0.560   5.373   2.714
 8567TIP3    H125644   0.621   5.424   2.659
 8567TIP3    H225645   0.560   5.286   2.674
 8568TIP3   OH225646   0.651   1.196   0.572
 8568TIP3    H125647   0.599   1.274   0.590
 8568TIP3    H225648   0.610   1.127   0.625
 8569TIP3   OH225649   6.618   7.498   6.034
 8569TIP3    H125650   6.629   7.403   6.031
 8569TIP3    H225651   6.605   7.517   6.127
 8570TIP3   OH225652   2.334   4.742   1.763
 8570TIP3    H125653   2.246   4.705   1.757
 8570TIP3    H225654   2.390   4.679   1.717
 8571TIP3   OH225655   5.694   2.140   3.605
 8571TIP3    H125656   5.626   2.205   3.589
 8571TIP3    H225657   5.650   2.071   3.656
 8572TIP3   OH225658   6.208   4.548   4.537
 8572TIP3    H125659   6.118   4.546   4.569
 8572TIP3    H225660   6.209   4.490   4.461
 8573TIP3   OH225661   2.659   3.953   5.723
 8573TIP3    H125662   2.618   3.986   5.643
 8573TIP3    H225663   2.587   3.914   5.773
 8574TIP3   OH225664   3.078   1.282   2.322
 8574TIP3    H125665   3.051   1.274   2.230
 8574TIP3    H225666   3.168   1.314   2.317
 8575TIP3   OH225667   5.408   4.176   2.184
 8575TIP3    H125668   5.475   4.168   2.252
 8575TIP3    H225669   5.369   4.089   2.178
 8576TIP3   OH225670   5.365   6.495   4.716
 8576TIP3    H125671   5.349   6.563   4.782
 8576TIP3    H225672   5.278   6.477   4.680
 8577TIP3   OH225673   0.492   3.100   5.187
 8577TIP3    H125674   0.533   3.020   5.153
 8577TIP3    H225675   0.417   3.115   5.130
 8578TIP3   OH225676   8.093   1.899   2.231
 8578TIP3    H125677   8.054   1.825   2.185
 8578TIP3    H225678   8.174   1.865   2.268
 8579TIP3   OH225679   5.049   7.073   4.574
 8579TIP3    H125680   5.035   7.120   4.491
 8579TIP3    H225681   5.043   7.141   4.641
 8580TIP3   OH225682   2.449   3.752   4.010
 8580TIP3    H125683   2.513   3.689   3.975
 8580TIP3    H225684   2.500   3.830   4.027
 8581TIP3   OH225685   5.781   4.436   1.321
 8581TIP3    H125686   5.756   4.524   1.349
 8581TIP3    H225687   5.699   4.387   1.320
 8582TIP3   OH225688   0.721   6.624   5.353
 8582TIP3    H125689   0.712   6.661   5.265
 8582TIP3    H225690   0.633   6.629   5.391
 8583TIP3   OH225691   2.971   1.405   0.785
 8583TIP3    H125692   2.972   1.320   0.742
 8583TIP3    H225693   2.967   1.469   0.714
 8584TIP3   OH225694   5.849   0.876   4.798
 8584TIP3    H125695   5.829   0.867   4.891
 8584TIP3    H225696   5.796   0.810   4.755
 8585TIP3   OH225697   7.745   5.844   6.051
 8585TIP3    H125698   7.702   5.778   5.997
 8585TIP3    H225699   7.692   5.922   6.041
 8586TIP3   OH225700   5.484   5.075   0.758
 8586TIP3    H125701   5.511   4.983   0.761
 8586TIP3    H225702   5.566   5.124   0.760
 8587TIP3   OH225703   4.807   1.637   5.058
 8587TIP3    H125704   4.818   1.667   5.148
 8587TIP3    H225705   4.815   1.716   5.005
 8588TIP3   OH225706   6.042   7.157   1.845
 8588TIP3    H125707   6.112   7.110   1.799
 8588TIP3    H225708   6.084   7.191   1.924
 8589TIP3   OH225709   6.518   0.745   5.318
 8589TIP3    H125710   6.539   0.796   5.239
 8589TIP3    H225711   6.600   0.703   5.342
 8590TIP3   OH225712   1.645   6.797   5.535
 8590TIP3    H125713   1.573   6.744   5.500
 8590TIP3    H225714   1.711   6.795   5.466
 8591TIP3   OH225715   5.824   7.436   1.055
 8591TIP3    H125716   5.835   7.437   0.960
 8591TIP3    H225717   5.913   7.438   1.090
 8592TIP3   OH225718   2.691   4.686   5.404
 8592TIP3    H125719   2.697   4.603   5.357
 8592TIP3    H225720   2.608   4.680   5.452
 8593TIP3   OH225721   5.303   5.878   3.961
 8593TIP3    H125722   5.356   5.916   4.031
 8593TIP3    H225723   5.364   5.821   3.913
 8594TIP3   OH225724   7.337   5.595   5.652
 8594TIP3    H125725   7.318   5.537   5.727
 8594TIP3    H225726   7.251   5.618   5.618
 8595TIP3   OH225727   7.784   4.861   2.203
 8595TIP3    H125728   7.731   4.820   2.272
 8595TIP3    H225729   7.832   4.930   2.248
 8596TIP3   OH225730   5.293   1.787   1.526
 8596TIP3    H125731   5.387   1.790   1.541
 8596TIP3    H225732   5.259   1.733   1.597
 8597TIP3   OH225733   4.228   7.345   3.380
 8597TIP3    H125734   4.268   7.260   3.400
 8597TIP3    H225735   4.171   7.328   3.305
 8598TIP3   OH225736   3.189   6.304   0.221
 8598TIP3    H125737   3.139   6.278   0.144
 8598TIP3    H225738   3.164   6.240   0.288
 8599TIP3   OH225739   7.433   0.461   6.373
 8599TIP3    H125740   7.359   0.453   6.433
 8599TIP3    H225741   7.488   0.385   6.391
 8600TIP3   OH225742   4.146   1.804   0.722
 8600TIP3    H125743   4.166   1.721   0.765
 8600TIP3    H225744   4.231   1.836   0.691
 8601TIP3   OH225745   8.030   6.311   4.479
 8601TIP3    H125746   8.004   6.396   4.514
 8601TIP3    H225747   8.121   6.301   4.508
 8602TIP3   OH225748   7.277   4.862   0.356
 8602TIP3    H125749   7.287   4.832   0.266
 8602TIP3    H225750   7.187   4.838   0.380
 8603TIP3   OH225751   7.540   0.140   4.637
 8603TIP3    H125752   7.507   0.127   4.548
 8603TIP3    H225753   7.631   0.113   4.633
 8604TIP3   OH225754   6.100   6.690   6.020
 8604TIP3    H125755   6.065   6.711   6.107
 8604TIP3    H225756   6.024   6.695   5.962
 8605TIP3   OH225757   7.521   4.434   4.522
 8605TIP3    H125758   7.607   4.472   4.505
 8605TIP3    H225759   7.516   4.428   4.618
 8606TIP3   OH225760   6.490   4.372   0.425
 8606TIP3    H125761   6.455   4.284   0.429
 8606TIP3    H225762   6.566   4.370   0.484
 8607TIP3   OH225763   1.470   2.501   1.358
 8607TIP3    H125764   1.547   2.555   1.371
 8607TIP3    H225765   1.396   2.556   1.386
 8608TIP3   OH225766   7.493   3.051   3.267
 8608TIP3    H125767   7.403   3.031   3.239
 8608TIP3    H225768   7.505   3.143   3.244
 8609TIP3   OH225769   5.982   1.919   4.237
 8609TIP3    H125770   6.016   2.005   4.215
 8609TIP3    H225771   5.996   1.867   4.158
 8610TIP3   OH225772   1.596   1.200   3.004
 8610TIP3    H125773   1.533   1.270   2.987
 8610TIP3    H225774   1.600   1.194   3.099
 8611TIP3   OH225775   4.825   2.798   6.238
 8611TIP3    H125776   4.787   2.759   6.159
 8611TIP3    H225777   4.908   2.836   6.208
 8612TIP3   OH225778   2.798   5.751   3.572
 8612TIP3    H125779   2.825   5.843   3.566
 8612TIP3    H225780   2.877   5.701   3.553
 8613TIP3   OH225781   6.685   3.836   3.231
 8613TIP3    H125782   6.768   3.799   3.201
 8613TIP3    H225783   6.649   3.770   3.290
 8614TIP3   OH225784   5.090   7.792   6.704
 8614TIP3    H125785   5.118   7.749   6.624
 8614TIP3    H225786   5.147   7.757   6.772
 8615TIP3   OH225787   2.266   1.985   6.236
 8615TIP3    H125788   2.267   2.062   6.294
 8615TIP3    H225789   2.356   1.976   6.206
 8616TIP3   OH225790   2.816   7.105   1.758
 8616TIP3    H125791   2.895   7.072   1.801
 8616TIP3    H225792   2.843   7.120   1.667
 8617TIP3   OH225793   8.144   6.262   6.117
 8617TIP3    H125794   8.096   6.201   6.173
 8617TIP3    H225795   8.235   6.234   6.123
 8618TIP3   OH225796   5.906   2.439   5.160
 8618TIP3    H125797   5.933   2.408   5.246
 8618TIP3    H225798   5.921   2.534   5.163
 8619TIP3   OH225799   0.115   6.956   0.115
 8619TIP3    H125800   0.068   6.966   0.198
 8619TIP3    H225801   0.107   6.863   0.094
 8620TIP3   OH225802   2.560   6.793   0.402
 8620TIP3    H125803   2.606   6.719   0.363
 8620TIP3    H225804   2.467   6.777   0.382
 8621TIP3   OH225805   7.443   3.975   0.295
 8621TIP3    H125806   7.402   3.903   0.344
 8621TIP3    H225807   7.384   4.049   0.308
 8622TIP3   OH225808   3.887   7.817   3.447
 8622TIP3    H125809   3.973   7.860   3.445
 8622TIP3    H225810   3.905   7.727   3.422
 8623TIP3   OH225811   4.156   2.939   3.728
 8623TIP3    H125812   4.085   2.994   3.761
 8623TIP3    H225813   4.224   3.000   3.701
 8624TIP3   OH225814   0.964   6.206   3.577
 8624TIP3    H125815   0.997   6.290   3.611
 8624TIP3    H225816   1.043   6.157   3.553
 8625TIP3   OH225817   4.866   0.902   6.654
 8625TIP3    H125818   4.792   0.852   6.620
 8625TIP3    H225819   4.888   0.964   6.584
 8626TIP3   OH225820   2.468   1.916   2.816
 8626TIP3    H125821   2.450   2.009   2.804
 8626TIP3    H225822   2.562   1.912   2.833
 8627TIP3   OH225823   5.219   0.649   6.214
 8627TIP3    H125824   5.130   0.653   6.250
 8627TIP3    H225825   5.206   0.634   6.120
 8628TIP3   OH225826   2.440   2.430   0.384
 8628TIP3    H125827   2.481   2.344   0.376
 8628TIP3    H225828   2.390   2.425   0.466
 8629TIP3   OH225829   1.976   3.749   1.395
 8629TIP3    H125830   2.046   3.809   1.370
 8629TIP3    H225831   1.896   3.795   1.370
 8630TIP3   OH225832   6.844   7.661   0.131
 8630TIP3    H125833   6.899   7.583   0.123
 8630TIP3    H225834   6.785   7.656   0.055
 8631TIP3   OH225835   4.494   5.205   2.434
 8631TIP3    H125836   4.482   5.299   2.446
 8631TIP3    H225837   4.481   5.168   2.521
 8632TIP3   OH225838   1.830   5.238   3.732
 8632TIP3    H125839   1.819   5.143   3.741
 8632TIP3    H225840   1.857   5.268   3.819
 8633TIP3   OH225841   2.965   0.824   6.694
 8633TIP3    H125842   2.883   0.786   6.663
 8633TIP3    H225843   3.033   0.773   6.651
 8634TIP3   OH225844   3.305   1.737   5.280
 8634TIP3    H125845   3.379   1.787   5.245
 8634TIP3    H225846   3.315   1.742   5.375
 8635TIP3   OH225847   5.691   2.451   0.294
 8635TIP3    H125848   5.691   2.524   0.232
 8635TIP3    H225849   5.599   2.438   0.316
 8636TIP3   OH225850   4.519   0.225   6.298
 8636TIP3    H125851   4.578   0.295   6.269
 8636TIP3    H225852   4.571   0.177   6.363
 8637TIP3   OH225853   2.928   7.446   1.880
 8637TIP3    H125854   2.915   7.526   1.830
 8637TIP3    H225855   2.965   7.384   1.817
 8638TIP3   OH225856   5.849   2.378   3.715
 8638TIP3    H125857   5.816   2.289   3.705
 8638TIP3    H225858   5.827   2.421   3.632
 8639TIP3   OH225859   0.272   3.319   4.037
 8639TIP3    H125860   0.262   3.360   4.123
 8639TIP3    H225861   0.190   3.272   4.024
 8640TIP3   OH225862   5.477   6.390   5.326
 8640TIP3    H125863   5.515   6.303   5.313
 8640TIP3    H225864   5.468   6.426   5.237
 8641TIP3   OH225865   4.899   4.981   2.170
 8641TIP3    H125866   4.844   5.009   2.243
 8641TIP3    H225867   4.970   5.046   2.167
 8642TIP3   OH225868   5.738   6.454   1.174
 8642TIP3    H125869   5.761   6.443   1.267
 8642TIP3    H225870   5.747   6.548   1.159
 8643TIP3   OH225871   4.226   6.875   1.281
 8643TIP3    H125872   4.286   6.859   1.208
 8643TIP3    H225873   4.279   6.922   1.345
 8644TIP3   OH225874   8.014   4.486   0.502
 8644TIP3    H125875   7.933   4.441   0.476
 8644TIP3    H225876   8.054   4.429   0.567
 8645TIP3   OH225877   6.402   0.017   4.353
 8645TIP3    H125878   6.334   0.002   4.418
 8645TIP3    H225879   6.478   0.046   4.403
 8646TIP3   OH225880   7.285   7.609   6.153
 8646TIP3    H125881   7.248   7.697   6.163
 8646TIP3    H225882   7.251   7.578   6.069
 8647TIP3   OH225883   2.396   5.675   4.014
 8647TIP3    H125884   2.445   5.755   3.998
 8647TIP3    H225885   2.389   5.670   4.109
 8648TIP3   OH225886   4.648   0.029   1.394
 8648TIP3    H125887   4.741   0.051   1.384
 8648TIP3    H225888   4.603   0.113   1.380
 8649TIP3   OH225889   7.745   3.013   3.236
 8649TIP3    H125890   7.777   3.060   3.159
 8649TIP3    H225891   7.650   3.025   3.234
 8650TIP3   OH225892   6.500   1.782   0.438
 8650TIP3    H125893   6.438   1.851   0.416
 8650TIP3    H225894   6.516   1.793   0.532
 8651TIP3   OH225895   4.645   2.541   3.458
 8651TIP3    H125896   4.618   2.466   3.405
 8651TIP3    H225897   4.567   2.564   3.509
 8652TIP3   OH225898   6.567   3.029   6.599
 8652TIP3    H125899   6.602   3.052   6.685
 8652TIP3    H225900   6.639   3.047   6.538
 8653TIP3   OH225901   5.480   1.444   3.496
 8653TIP3    H125902   5.409   1.483   3.548
 8653TIP3    H225903   5.560   1.479   3.535
 8654TIP3   OH225904   5.812   4.853   2.270
 8654TIP3    H125905   5.838   4.945   2.257
 8654TIP3    H225906   5.856   4.806   2.200
 8655TIP3   OH225907   3.445   7.716   1.549
 8655TIP3    H125908   3.496   7.755   1.619
 8655TIP3    H225909   3.508   7.701   1.478
 8656TIP3   OH225910   8.150   7.611   4.731
 8656TIP3    H125911   8.059   7.610   4.703
 8656TIP3    H225912   8.157   7.688   4.789
 8657TIP3   OH225913   7.756   6.066   2.050
 8657TIP3    H125914   7.664   6.072   2.074
 8657TIP3    H225915   7.760   6.107   1.963
 8658TIP3   OH225916   5.049   7.391   1.465
 8658TIP3    H125917   5.061   7.316   1.523
 8658TIP3    H225918   5.063   7.356   1.377
 8659TIP3   OH225919   7.732   3.270   6.108
 8659TIP3    H125920   7.823   3.247   6.127
 8659TIP3    H225921   7.686   3.187   6.106
 8660TIP3   OH225922   6.391   7.703   6.609
 8660TIP3    H125923   6.362   7.675   6.696
 8660TIP3    H225924   6.386   7.624   6.555
 8661TIP3   OH225925   0.317   4.119   2.054
 8661TIP3    H125926   0.399   4.083   2.021
 8661TIP3    H225927   0.334   4.136   2.147
 8662TIP3   OH225928   7.472   6.774   5.092
 8662TIP3    H125929   7.537   6.704   5.089
 8662TIP3    H225930   7.461   6.793   5.185
 8663TIP3   OH225931   3.372   3.358   6.660
 8663TIP3    H125932   3.384   3.289   6.595
 8663TIP3    H225933   3.459   3.373   6.697
 8664TIP3   OH225934   3.344   1.183   3.253
 8664TIP3    H125935   3.378   1.135   3.329
 8664TIP3    H225936   3.339   1.117   3.184
 8665TIP3   OH225937   3.107   2.991   5.147
 8665TIP3    H125938   3.135   2.908   5.110
 8665TIP3    H225939   3.042   3.025   5.085
 8666TIP3   OH225940   5.008   3.433   5.134
 8666TIP3    H125941   5.087   3.475   5.101
 8666TIP3    H225942   4.954   3.418   5.057
 8667TIP3   OH225943   3.615   0.626   4.607
 8667TIP3    H125944   3.573   0.704   4.569
 8667TIP3    H225945   3.674   0.660   4.674
 8668TIP3   OH225946   6.815   1.057   4.253
 8668TIP3    H125947   6.750   0.992   4.226
 8668TIP3    H225948   6.888   1.043   4.193
 8669TIP3   OH225949   4.210   7.152   0.836
 8669TIP3    H125950   4.162   7.232   0.860
 8669TIP3    H225951   4.295   7.163   0.879
 8670TIP3   OH225952   8.261   3.887   3.074
 8670TIP3    H125953   8.234   3.964   3.024
 8670TIP3    H225954   8.213   3.893   3.156
 8671TIP3   OH225955   5.634   6.153   1.702
 8671TIP3    H125956   5.557   6.114   1.660
 8671TIP3    H225957   5.652   6.232   1.650
 8672TIP3   OH225958   5.144   0.187   5.945
 8672TIP3    H125959   5.120   0.152   5.859
 8672TIP3    H225960   5.239   0.178   5.949
 8673TIP3   OH225961   0.362   2.819   1.900
 8673TIP3    H125962   0.432   2.873   1.937
 8673TIP3    H225963   0.326   2.772   1.975
 8674TIP3   OH225964   1.893   3.112   4.439
 8674TIP3    H125965   1.839   3.181   4.477
 8674TIP3    H225966   1.909   3.051   4.511
 8675TIP3   OH225967   1.136   0.081   5.155
 8675TIP3    H125968   1.215   0.056   5.203
 8675TIP3    H225969   1.147   0.175   5.139
 8676TIP3   OH225970   2.930   2.799   4.389
 8676TIP3    H125971   2.989   2.724   4.395
 8676TIP3    H225972   2.909   2.807   4.296
 8677TIP3   OH225973   3.740   0.941   5.297
 8677TIP3    H125974   3.660   0.993   5.286
 8677TIP3    H225975   3.809   0.996   5.259
 8678TIP3   OH225976   6.632   2.510   5.283
 8678TIP3    H125977   6.618   2.455   5.360
 8678TIP3    H225978   6.680   2.454   5.222
 8679TIP3   OH225979   7.457   6.029   0.833
 8679TIP3    H125980   7.426   5.980   0.909
 8679TIP3    H225981   7.552   6.033   0.844
 8680TIP3   OH225982   6.849   1.298   0.179
 8680TIP3    H125983   6.758   1.295   0.208
 8680TIP3    H225984   6.900   1.278   0.258
 8681TIP3   OH225985   4.806   3.611   1.099
 8681TIP3    H125986   4.784   3.526   1.138
 8681TIP3    H225987   4.780   3.675   1.165
 8682TIP3   OH225988   7.380   0.435   5.411
 8682TIP3    H125989   7.338   0.436   5.497
 8682TIP3    H225990   7.404   0.526   5.394
 8683TIP3   OH225991   5.558   6.897   1.660
 8683TIP3    H125992   5.615   6.859   1.727
 8683TIP3    H225993   5.487   6.938   1.710
 8684TIP3   OH225994   6.018   7.712   3.764
 8684TIP3    H125995   5.993   7.777   3.828
 8684TIP3    H225996   5.936   7.687   3.722
 8685TIP3   OH225997   6.703   3.815   2.304
 8685TIP3    H125998   6.707   3.895   2.357
 8685TIP3    H225999   6.787   3.771   2.320
 8686TIP3   OH226000   4.401   4.938   2.330
 8686TIP3    H126001   4.429   5.029   2.337
 8686TIP3    H226002   4.416   4.915   2.238
 8687TIP3   OH226003   1.686   2.210   0.624
 8687TIP3    H126004   1.591   2.201   0.617
 8687TIP3    H226005   1.717   2.211   0.534
 8688TIP3   OH226006   5.944   0.264   1.283
 8688TIP3    H126007   5.929   0.170   1.299
 8688TIP3    H226008   5.916   0.307   1.364
 8689TIP3   OH226009   2.021   0.610   0.244
 8689TIP3    H126010   1.968   0.563   0.180
 8689TIP3    H226011   2.081   0.663   0.191
 8690TIP3   OH226012   1.763   3.595   2.493
 8690TIP3    H126013   1.685   3.633   2.533
 8690TIP3    H226014   1.729   3.536   2.425
 8691TIP3   OH226015   0.963   7.588   4.606
 8691TIP3    H126016   0.986   7.659   4.546
 8691TIP3    H226017   0.870   7.602   4.625
 8692TIP3   OH226018   1.431   6.164   4.427
 8692TIP3    H126019   1.448   6.087   4.372
 8692TIP3    H226020   1.343   6.148   4.463
 8693TIP3   OH226021   2.119   0.298   6.644
 8693TIP3    H126022   2.175   0.364   6.686
 8693TIP3    H226023   2.123   0.320   6.551
 8694TIP3   OH226024   2.304   1.231   4.256
 8694TIP3    H126025   2.351   1.172   4.315
 8694TIP3    H226026   2.320   1.318   4.292
 8695TIP3   OH226027   0.739   5.108   2.763
 8695TIP3    H126028   0.808   5.135   2.702
 8695TIP3    H226029   0.658   5.119   2.713
 8696TIP3   OH226030   5.565   0.129   6.480
 8696TIP3    H126031   5.630   0.195   6.504
 8696TIP3    H226032   5.480   0.170   6.500
 8697TIP3   OH226033   4.375   4.663   3.922
 8697TIP3    H126034   4.404   4.628   3.838
 8697TIP3    H226035   4.329   4.744   3.900
 8698TIP3   OH226036   4.835   1.729   5.312
 8698TIP3    H126037   4.749   1.761   5.338
 8698TIP3    H226038   4.888   1.736   5.392
 8699TIP3   OH226039   7.922   1.481   0.485
 8699TIP3    H126040   7.976   1.480   0.565
 8699TIP3    H226041   7.951   1.560   0.439
 8700TIP3   OH226042   1.599   3.733   2.096
 8700TIP3    H126043   1.583   3.811   2.043
 8700TIP3    H226044   1.516   3.684   2.092
 8701TIP3   OH226045   5.865   7.634   5.175
 8701TIP3    H126046   5.918   7.558   5.200
 8701TIP3    H226047   5.898   7.660   5.089
 8702TIP3   OH226048   0.051   6.138   1.214
 8702TIP3    H126049  -0.028   6.166   1.169
 8702TIP3    H226050   0.115   6.208   1.196
 8703TIP3   OH226051   0.410   4.427   1.124
 8703TIP3    H126052   0.395   4.431   1.030
 8703TIP3    H226053   0.505   4.419   1.132
 8704TIP3   OH226054   6.834   6.461   4.151
 8704TIP3    H126055   6.757   6.432   4.200
 8704TIP3    H226056   6.869   6.534   4.201
 8705TIP3   OH226057   3.950   0.090   1.865
 8705TIP3    H126058   3.944   0.020   1.799
 8705TIP3    H226059   4.000   0.051   1.937
 8706TIP3   OH226060   2.820   6.242   2.917
 8706TIP3    H126061   2.906   6.268   2.885
 8706TIP3    H226062   2.798   6.308   2.983
 8707TIP3   OH226063   6.255   5.683   1.403
 8707TIP3    H126064   6.175   5.632   1.393
 8707TIP3    H226065   6.275   5.713   1.314
 8708TIP3   OH226066   5.072   7.768   1.086
 8708TIP3    H126067   5.045   7.784   1.176
 8708TIP3    H226068   5.136   7.697   1.092
 8709TIP3   OH226069   2.190   4.004   3.212
 8709TIP3    H126070   2.166   3.927   3.160
 8709TIP3    H226071   2.249   4.054   3.156
 8710TIP3   OH226072   6.438   3.071   5.563
 8710TIP3    H126073   6.498   3.125   5.616
 8710TIP3    H226074   6.394   3.015   5.626
 8711TIP3   OH226075   1.453   4.838   2.492
 8711TIP3    H126076   1.485   4.793   2.571
 8711TIP3    H226077   1.466   4.774   2.422
 8712TIP3   OH226078   1.683   1.432   6.590
 8712TIP3    H126079   1.729   1.486   6.525
 8712TIP3    H226080   1.738   1.438   6.668
 8713TIP3   OH226081   2.303   5.063   3.993
 8713TIP3    H126082   2.249   5.109   3.928
 8713TIP3    H226083   2.275   4.971   3.986
 8714TIP3   OH226084   3.596   1.572   3.893
 8714TIP3    H126085   3.615   1.599   3.803
 8714TIP3    H226086   3.682   1.555   3.931
 8715TIP3   OH226087   8.086   6.805   0.214
 8715TIP3    H126088   8.082   6.722   0.167
 8715TIP3    H226089   7.998   6.841   0.207
 8716TIP3   OH226090   2.439   5.681   4.872
 8716TIP3    H126091   2.352   5.716   4.890
 8716TIP3    H226092   2.428   5.625   4.796
 8717TIP3   OH226093   5.798   5.476   0.452
 8717TIP3    H126094   5.864   5.500   0.517
 8717TIP3    H226095   5.729   5.541   0.463
 8718TIP3   OH226096   0.012   1.166   1.387
 8718TIP3    H126097  -0.058   1.127   1.440
 8718TIP3    H226098   0.070   1.207   1.451
 8719TIP3   OH226099   4.379   3.220   4.876
 8719TIP3    H126100   4.334   3.219   4.792
 8719TIP3    H226101   4.467   3.252   4.857
 8720TIP3   OH226102   7.641   7.619   5.390
 8720TIP3    H126103   7.611   7.700   5.349
 8720TIP3    H226104   7.724   7.599   5.348
 8721TIP3   OH226105   7.371   7.192   2.346
 8721TIP3    H126106   7.377   7.143   2.263
 8721TIP3    H226107   7.455   7.176   2.389
 8722TIP3   OH226108   0.703   4.978   0.355
 8722TIP3    H126109   0.743   4.904   0.309
 8722TIP3    H226110   0.609   4.959   0.351
 8723TIP3   OH226111   5.004   2.304   1.722
 8723TIP3    H126112   5.050   2.376   1.764
 8723TIP3    H226113   5.042   2.298   1.635
 8724TIP3   OH226114   0.398   6.821   5.098
 8724TIP3    H126115   0.441   6.765   5.034
 8724TIP3    H226116   0.448   6.809   5.179
 8725TIP3   OH226117   3.742   2.478   5.295
 8725TIP3    H126118   3.709   2.494   5.383
 8725TIP3    H226119   3.822   2.428   5.308
 8726TIP3   OH226120   1.066   3.154   3.032
 8726TIP3    H126121   1.080   3.237   3.078
 8726TIP3    H226122   0.985   3.118   3.070
 8727TIP3   OH226123   5.882   5.609   2.532
 8727TIP3    H126124   5.957   5.565   2.491
 8727TIP3    H226125   5.827   5.538   2.565
 8728TIP3   OH226126   5.972   5.463   4.643
 8728TIP3    H126127   6.038   5.445   4.577
 8728TIP3    H226128   5.891   5.476   4.594
 8729TIP3   OH226129   2.979   6.548   1.400
 8729TIP3    H126130   3.046   6.615   1.409
 8729TIP3    H226131   2.899   6.597   1.379
 8730TIP3   OH226132   4.142   3.091   1.637
 8730TIP3    H126133   4.159   3.185   1.631
 8730TIP3    H226134   4.219   3.055   1.680
 8731TIP3   OH226135   3.420   3.156   4.132
 8731TIP3    H126136   3.347   3.195   4.085
 8731TIP3    H226137   3.442   3.219   4.200
 8732TIP3   OH226138   6.177   7.446   5.126
 8732TIP3    H126139   6.183   7.542   5.128
 8732TIP3    H226140   6.092   7.429   5.084
 8733TIP3   OH226141   5.498   2.425   0.500
 8733TIP3    H126142   5.554   2.413   0.576
 8733TIP3    H226143   5.485   2.520   0.494
 8734TIP3   OH226144   5.920   7.406   0.804
 8734TIP3    H126145   5.885   7.427   0.717
 8734TIP3    H226146   6.015   7.404   0.792
 8735TIP3   OH226147   1.503   7.629   3.414
 8735TIP3    H126148   1.432   7.573   3.381
 8735TIP3    H226149   1.547   7.575   3.480
 8736TIP3   OH226150   7.983   7.516   0.315
 8736TIP3    H126151   7.949   7.460   0.245
 8736TIP3    H226152   7.996   7.601   0.273
 8737TIP3   OH226153   6.589   6.004   5.091
 8737TIP3    H126154   6.562   5.960   5.011
 8737TIP3    H226155   6.512   6.052   5.120
 8738TIP3   OH226156   6.266   1.330   1.978
 8738TIP3    H126157   6.304   1.276   1.909
 8738TIP3    H226158   6.191   1.372   1.937
 8739TIP3   OH226159   7.082   3.287   5.053
 8739TIP3    H126160   7.112   3.319   5.138
 8739TIP3    H226161   7.130   3.340   4.990
 8740TIP3   OH226162   0.906   2.316   4.735
 8740TIP3    H126163   0.877   2.256   4.667
 8740TIP3    H226164   0.887   2.271   4.817
 8741TIP3   OH226165   4.384   3.296   0.349
 8741TIP3    H126166   4.315   3.235   0.373
 8741TIP3    H226167   4.427   3.319   0.432
 8742TIP3   OH226168   7.517   7.641   3.570
 8742TIP3    H126169   7.544   7.675   3.484
 8742TIP3    H226170   7.599   7.618   3.613
 8743TIP3   OH226171   3.721   6.705   4.016
 8743TIP3    H126172   3.733   6.760   4.093
 8743TIP3    H226173   3.705   6.768   3.945
 8744TIP3   OH226174   2.622   5.123   1.504
 8744TIP3    H126175   2.620   5.027   1.505
 8744TIP3    H226176   2.630   5.146   1.412
 8745TIP3   OH226177   0.217   0.183   6.493
 8745TIP3    H126178   0.207   0.268   6.452
 8745TIP3    H226179   0.305   0.185   6.531
 8746TIP3   OH226180   2.243   1.557   3.195
 8746TIP3    H126181   2.282   1.636   3.159
 8746TIP3    H226182   2.273   1.555   3.286
 8747TIP3   OH226183   2.213   1.629   4.158
 8747TIP3    H126184   2.223   1.696   4.091
 8747TIP3    H226185   2.175   1.554   4.113
 8748TIP3   OH226186   1.663   3.068   0.295
 8748TIP3    H126187   1.655   3.145   0.350
 8748TIP3    H226188   1.610   3.089   0.218
 8749TIP3   OH226189   4.109   3.411   6.532
 8749TIP3    H126190   4.189   3.368   6.563
 8749TIP3    H226191   4.068   3.445   6.611
 8750TIP3   OH226192   5.030   2.217   0.983
 8750TIP3    H126193   4.993   2.301   0.955
 8750TIP3    H226194   5.107   2.205   0.929
 8751TIP3   OH226195   1.499   1.682   5.238
 8751TIP3    H126196   1.573   1.633   5.273
 8751TIP3    H226197   1.539   1.751   5.184
 8752TIP3   OH226198   3.561   2.755   0.471
 8752TIP3    H126199   3.638   2.799   0.434
 8752TIP3    H226200   3.566   2.772   0.565
 8753TIP3   OH226201   0.222   7.225   2.664
 8753TIP3    H126202   0.275   7.223   2.744
 8753TIP3    H226203   0.158   7.295   2.681
 8754TIP3   OH226204   3.181   0.897   0.751
 8754TIP3    H126205   3.142   0.840   0.817
 8754TIP3    H226206   3.160   0.854   0.668
 8755TIP3   OH226207   7.833   3.027   0.550
 8755TIP3    H126208   7.841   3.067   0.637
 8755TIP3    H226209   7.847   2.933   0.566
 8756TIP3   OH226210   2.656   1.402   2.181
 8756TIP3    H126211   2.694   1.444   2.258
 8756TIP3    H226212   2.654   1.309   2.203
 8757TIP3   OH226213   4.067   3.810   3.882
 8757TIP3    H126214   4.011   3.788   3.807
 8757TIP3    H226215   4.016   3.787   3.959
 8758TIP3   OH226216   1.498   3.709   4.583
 8758TIP3    H126217   1.575   3.657   4.562
 8758TIP3    H226218   1.531   3.782   4.635
 8759TIP3   OH226219   7.194   2.994   2.656
 8759TIP3    H126220   7.135   2.942   2.602
 8759TIP3    H226221   7.280   2.982   2.616
 8760TIP3   OH226222   1.802   0.310   2.853
 8760TIP3    H126223   1.714   0.344   2.841
 8760TIP3    H226224   1.848   0.380   2.900
 8761TIP3   OH226225   0.204   0.245   3.390
 8761TIP3    H126226   0.119   0.245   3.347
 8761TIP3    H226227   0.183   0.246   3.484
 8762TIP3   OH226228   7.659   1.186   6.209
 8762TIP3    H126229   7.583   1.243   6.222
 8762TIP3    H226230   7.631   1.100   6.238
 8763TIP3   OH226231   2.092   6.123   4.355
 8763TIP3    H126232   2.174   6.170   4.344
 8763TIP3    H226233   2.026   6.191   4.367
 8764TIP3   OH226234   0.775   6.873   4.164
 8764TIP3    H126235   0.771   6.864   4.069
 8764TIP3    H226236   0.751   6.965   4.180
 8765TIP3   OH226237   4.283   1.614   4.199
 8765TIP3    H126238   4.291   1.530   4.244
 8765TIP3    H226239   4.333   1.603   4.118
 8766TIP3   OH226240   1.659   0.164   5.984
 8766TIP3    H126241   1.672   0.108   6.061
 8766TIP3    H226242   1.680   0.252   6.014
 8767TIP3   OH226243   1.460   6.890   1.783
 8767TIP3    H126244   1.527   6.880   1.851
 8767TIP3    H226245   1.446   6.801   1.751
 8768TIP3   OH226246   7.685   7.014   5.040
 8768TIP3    H126247   7.601   7.057   5.054
 8768TIP3    H226248   7.739   7.080   4.998
 8769TIP3   OH226249   4.881   5.592   3.680
 8769TIP3    H126250   4.892   5.530   3.753
 8769TIP3    H226251   4.953   5.654   3.691
 8770TIP3   OH226252   7.203   6.566   3.368
 8770TIP3    H126253   7.295   6.546   3.383
 8770TIP3    H226254   7.159   6.536   3.448
 8771TIP3   OH226255   7.954   0.839   1.622
 8771TIP3    H126256   8.023   0.773   1.613
 8771TIP3    H226257   7.884   0.794   1.667
 8772TIP3   OH226258   6.001   4.101   1.721
 8772TIP3    H126259   5.996   4.157   1.643
 8772TIP3    H226260   5.909   4.079   1.740
 8773TIP3   OH226261   0.515   0.945   5.287
 8773TIP3    H126262   0.440   1.004   5.281
 8773TIP3    H226263   0.477   0.858   5.272
 8774TIP3   OH226264   6.601  -0.039   6.204
 8774TIP3    H126265   6.542   0.013   6.259
 8774TIP3    H226266   6.629   0.021   6.135
 8775TIP3   OH226267   3.675   1.741   1.057
 8775TIP3    H126268   3.763   1.714   1.029
 8775TIP3    H226269   3.618   1.668   1.033
 8776TIP3   OH226270   7.105   1.958   3.114
 8776TIP3    H126271   7.130   1.962   3.206
 8776TIP3    H226272   7.024   2.009   3.109
 8777TIP3   OH226273   1.645   4.591   4.700
 8777TIP3    H126274   1.566   4.645   4.698
 8777TIP3    H226275   1.659   4.571   4.792
 8778TIP3   OH226276   1.604   7.405   1.381
 8778TIP3    H126277   1.659   7.336   1.417
 8778TIP3    H226278   1.657   7.484   1.386
 8779TIP3   OH226279   5.340   6.237   2.468
 8779TIP3    H126280   5.415   6.268   2.417
 8779TIP3    H226281   5.306   6.163   2.417
 8780TIP3   OH226282   5.450   5.379   2.084
 8780TIP3    H126283   5.363   5.343   2.068
 8780TIP3    H226284   5.434   5.463   2.127
 8781TIP3   OH226285   1.783   3.212   1.172
 8781TIP3    H126286   1.805   3.288   1.119
 8781TIP3    H226287   1.753   3.249   1.255
 8782TIP3   OH226288   3.049   7.770   5.229
 8782TIP3    H126289   2.985   7.841   5.223
 8782TIP3    H226290   3.054   7.750   5.323
 8783TIP3   OH226291   0.273   0.632   2.407
 8783TIP3    H126292   0.353   0.595   2.445
 8783TIP3    H226293   0.298   0.721   2.382
 8784TIP3   OH226294   6.158   4.939   4.395
 8784TIP3    H126295   6.210   4.962   4.472
 8784TIP3    H226296   6.080   4.993   4.401
 8785TIP3   OH226297   4.659   4.611   5.801
 8785TIP3    H126298   4.715   4.662   5.861
 8785TIP3    H226299   4.576   4.659   5.799
 8786TIP3   OH226300   0.913   6.429   0.569
 8786TIP3    H126301   0.917   6.494   0.639
 8786TIP3    H226302   0.927   6.480   0.489
 8787TIP3   OH226303   5.095   2.903   1.766
 8787TIP3    H126304   5.148   2.965   1.817
 8787TIP3    H226305   5.160   2.846   1.724
 8788TIP3   OH226306   5.052   7.113   4.207
 8788TIP3    H126307   5.006   7.061   4.140
 8788TIP3    H226308   4.982   7.156   4.256
 8789TIP3   OH226309   5.707   7.287   5.149
 8789TIP3    H126310   5.687   7.376   5.121
 8789TIP3    H226311   5.794   7.293   5.189
 8790TIP3   OH226312   4.683   2.452   5.594
 8790TIP3    H126313   4.768   2.415   5.573
 8790TIP3    H226314   4.624   2.417   5.527
 8791TIP3   OH226315   2.657   6.694   3.986
 8791TIP3    H126316   2.574   6.679   4.032
 8791TIP3    H226317   2.703   6.757   4.041
 8792TIP3   OH226318   7.893   3.915   3.028
 8792TIP3    H126319   7.872   4.008   3.036
 8792TIP3    H226320   7.932   3.907   2.941
 8793TIP3   OH226321   1.886   4.101   1.435
 8793TIP3    H126322   1.944   4.153   1.378
 8793TIP3    H226323   1.802   4.099   1.389
 8794TIP3   OH226324   1.034   6.509   1.375
 8794TIP3    H126325   1.023   6.603   1.392
 8794TIP3    H226326   1.126   6.498   1.354
 8795TIP3   OH226327   6.201   1.836   5.242
 8795TIP3    H126328   6.288   1.798   5.238
 8795TIP3    H226329   6.175   1.846   5.150
 8796TIP3   OH226330   6.936   6.940   0.285
 8796TIP3    H126331   7.001   6.933   0.215
 8796TIP3    H226332   6.985   6.918   0.365
 8797TIP3   OH226333   4.816   5.637   2.326
 8797TIP3    H126334   4.873   5.672   2.394
 8797TIP3    H226335   4.734   5.618   2.371
 8798TIP3   OH226336   0.252   1.716   3.485
 8798TIP3    H126337   0.174   1.684   3.531
 8798TIP3    H226338   0.257   1.809   3.508
 8799TIP3   OH226339   0.443   5.102   1.442
 8799TIP3    H126340   0.538   5.115   1.441
 8799TIP3    H226341   0.429   5.028   1.383
 8800TIP3   OH226342   3.890   2.982   1.744
 8800TIP3    H126343   3.898   2.961   1.651
 8800TIP3    H226344   3.978   3.007   1.771
 8801TIP3   OH226345   2.062   4.848   3.509
 8801TIP3    H126346   2.113   4.916   3.553
 8801TIP3    H226347   1.971   4.869   3.530
 8802TIP3   OH226348   2.703   7.708   0.811
 8802TIP3    H126349   2.746   7.633   0.772
 8802TIP3    H226350   2.674   7.761   0.737
 8803TIP3   OH226351   3.064   2.404   0.694
 8803TIP3    H126352   3.140   2.433   0.744
 8803TIP3    H226353   3.045   2.316   0.727
 8804TIP3   OH226354   0.027   5.316   0.873
 8804TIP3    H126355   0.006   5.255   0.944
 8804TIP3    H226356   0.092   5.376   0.911
 8805TIP3   OH226357   5.567   3.497   4.911
 8805TIP3    H126358   5.613   3.544   4.842
 8805TIP3    H226359   5.538   3.566   4.971
 8806TIP3   OH226360   6.299   0.643   3.497
 8806TIP3    H126361   6.311   0.676   3.586
 8806TIP3    H226362   6.356   0.699   3.443
 8807TIP3   OH226363   5.420   0.992   2.948
 8807TIP3    H126364   5.492   0.931   2.963
 8807TIP3    H226365   5.394   0.976   2.857
 8808TIP3   OH226366   5.245   1.598   0.664
 8808TIP3    H126367   5.186   1.561   0.731
 8808TIP3    H226368   5.223   1.691   0.661
 8809TIP3   OH226369   1.951   1.598   5.877
 8809TIP3    H126370   1.926   1.667   5.938
 8809TIP3    H226371   2.013   1.640   5.818
 8810TIP3   OH226372   1.986   0.496   4.483
 8810TIP3    H126373   2.062   0.516   4.537
 8810TIP3    H226374   1.934   0.577   4.485
 8811TIP3   OH226375   1.845   4.876   1.081
 8811TIP3    H126376   1.766   4.853   1.130
 8811TIP3    H226377   1.896   4.795   1.079
 8812TIP3   OH226378   0.812   6.745   6.647
 8812TIP3    H126379   0.827   6.651   6.659
 8812TIP3    H226380   0.717   6.755   6.646
 8813TIP3   OH226381   2.612   3.519   2.095
 8813TIP3    H126382   2.608   3.473   2.179
 8813TIP3    H226383   2.524   3.556   2.084
 8814TIP3   OH226384   6.875   4.630   4.882
 8814TIP3    H126385   6.896   4.597   4.795
 8814TIP3    H226386   6.911   4.719   4.884
 8815TIP3   OH226387   6.008   5.262   4.430
 8815TIP3    H126388   6.037   5.264   4.339
 8815TIP3    H226389   6.076   5.309   4.478
 8816TIP3   OH226390   1.246   6.357   5.974
 8816TIP3    H126391   1.295   6.437   5.990
 8816TIP3    H226392   1.154   6.383   5.981
 8817TIP3   OH226393   4.641   6.433   3.826
 8817TIP3    H126394   4.714   6.416   3.766
 8817TIP3    H226395   4.573   6.371   3.798
 8818TIP3   OH226396   4.127   0.116   5.959
 8818TIP3    H126397   4.102   0.028   5.931
 8818TIP3    H226398   4.199   0.103   6.020
 8819TIP3   OH226399   5.783   1.217   6.079
 8819TIP3    H126400   5.700   1.217   6.127
 8819TIP3    H226401   5.799   1.309   6.058
 8820TIP3   OH226402   4.299   0.967   1.482
 8820TIP3    H126403   4.360   0.903   1.519
 8820TIP3    H226404   4.257   1.006   1.559
 8821TIP3   OH226405   6.370   7.467   6.461
 8821TIP3    H126406   6.429   7.477   6.387
 8821TIP3    H226407   6.284   7.449   6.421
 8822TIP3   OH226408   4.475   3.350   2.343
 8822TIP3    H126409   4.417   3.366   2.269
 8822TIP3    H226410   4.475   3.432   2.392
 8823TIP3   OH226411   6.120   1.631   2.005
 8823TIP3    H126412   6.092   1.575   1.933
 8823TIP3    H226413   6.040   1.649   2.054
 8824TIP3   OH226414   3.253   5.591   5.590
 8824TIP3    H126415   3.223   5.512   5.545
 8824TIP3    H226416   3.209   5.589   5.675
 8825TIP3   OH226417   1.286   5.709   4.933
 8825TIP3    H126418   1.377   5.695   4.908
 8825TIP3    H226419   1.291   5.776   5.002
 8826TIP3   OH226420   5.323   2.947   5.453
 8826TIP3    H126421   5.261   3.005   5.407
 8826TIP3    H226422   5.267   2.882   5.495
 8827TIP3   OH226423   5.988   2.393   5.406
 8827TIP3    H126424   5.962   2.343   5.483
 8827TIP3    H226425   6.022   2.475   5.441
 8828TIP3   OH226426   3.165   3.664   3.848
 8828TIP3    H126427   3.236   3.727   3.858
 8828TIP3    H226428   3.145   3.636   3.938
 8829TIP3   OH226429   5.342   4.651   1.110
 8829TIP3    H126430   5.396   4.582   1.071
 8829TIP3    H226431   5.272   4.665   1.046
 8830TIP3   OH226432   0.930   5.156   5.785
 8830TIP3    H126433   1.024   5.168   5.793
 8830TIP3    H226434   0.898   5.156   5.875
 8831TIP3   OH226435   7.530   2.043   5.839
 8831TIP3    H126436   7.613   2.090   5.828
 8831TIP3    H226437   7.551   1.970   5.897
 8832TIP3   OH226438   6.383   5.830   4.641
 8832TIP3    H126439   6.289   5.834   4.662
 8832TIP3    H226440   6.388   5.764   4.572
 8833TIP3   OH226441   5.602   4.300   5.211
 8833TIP3    H126442   5.569   4.387   5.186
 8833TIP3    H226443   5.675   4.319   5.269
 8834TIP3   OH226444   7.591   2.149   3.574
 8834TIP3    H126445   7.524   2.165   3.508
 8834TIP3    H226446   7.670   2.128   3.523
 8835TIP3   OH226447   7.285   1.756   2.630
 8835TIP3    H126448   7.310   1.696   2.700
 8835TIP3    H226449   7.275   1.700   2.553
 8836TIP3   OH226450   3.591   6.868   3.798
 8836TIP3    H126451   3.518   6.856   3.738
 8836TIP3    H226452   3.648   6.932   3.755
 8837TIP3   OH226453   4.266   2.158   0.795
 8837TIP3    H126454   4.242   2.105   0.871
 8837TIP3    H226455   4.347   2.119   0.763
 8838TIP3   OH226456   3.668   5.611   4.952
 8838TIP3    H126457   3.628   5.524   4.955
 8838TIP3    H226458   3.762   5.595   4.965
 8839TIP3   OH226459   4.787   4.239   3.670
 8839TIP3    H126460   4.724   4.169   3.690
 8839TIP3    H226461   4.742   4.320   3.695
 8840TIP3   OH226462   5.527   5.392   6.596
 8840TIP3    H126463   5.515   5.447   6.673
 8840TIP3    H226464   5.621   5.400   6.575
 8841TIP3   OH226465   0.017   5.911   1.629
 8841TIP3    H126466   0.021   5.846   1.700
 8841TIP3    H226467  -0.009   5.992   1.673
 8842TIP3   OH226468   7.814   0.065   4.228
 8842TIP3    H126469   7.779  -0.024   4.233
 8842TIP3    H226470   7.776   0.102   4.148
 8843TIP3   OH226471   0.841   1.986   5.766
 8843TIP3    H126472   0.892   2.060   5.736
 8843TIP3    H226473   0.873   1.911   5.715
 8844TIP3   OH226474   7.859   0.834   3.737
 8844TIP3    H126475   7.891   0.914   3.778
 8844TIP3    H226476   7.901   0.763   3.786
 8845TIP3   OH226477   5.356   2.489   6.611
 8845TIP3    H126478   5.268   2.521   6.631
 8845TIP3    H226479   5.391   2.553   6.549
 8846TIP3   OH226480   4.853   4.153   5.158
 8846TIP3    H126481   4.854   4.193   5.245
 8846TIP3    H226482   4.870   4.060   5.174
 8847TIP3   OH226483   0.630   3.717   6.533
 8847TIP3    H126484   0.662   3.696   6.621
 8847TIP3    H226485   0.545   3.760   6.548
 8848TIP3   OH226486   4.515   1.140   6.296
 8848TIP3    H126487   4.510   1.228   6.333
 8848TIP3    H226488   4.444   1.138   6.231
 8849TIP3   OH226489   1.003   1.860   1.218
 8849TIP3    H126490   1.050   1.832   1.139
 8849TIP3    H226491   1.024   1.953   1.227
 8850TIP3   OH226492   2.379   4.711   0.321
 8850TIP3    H126493   2.448   4.776   0.308
 8850TIP3    H226494   2.334   4.738   0.400
 8851TIP3   OH226495   0.707   5.206   6.566
 8851TIP3    H126496   0.784   5.249   6.530
 8851TIP3    H226497   0.651   5.278   6.596
 8852TIP3   OH226498   0.141   7.065   0.533
 8852TIP3    H126499   0.070   7.071   0.597
 8852TIP3    H226500   0.143   6.972   0.508
 8853TIP3   OH226501   4.754   0.613   5.900
 8853TIP3    H126502   4.840   0.575   5.920
 8853TIP3    H226503   4.733   0.579   5.813
 8854TIP3   OH226504   3.768   1.604   4.139
 8854TIP3    H126505   3.703   1.629   4.204
 8854TIP3    H226506   3.829   1.677   4.135
 8855TIP3   OH226507   5.980   1.055   2.210
 8855TIP3    H126508   6.041   1.128   2.223
 8855TIP3    H226509   6.013   0.985   2.266
 8856TIP3   OH226510   3.204   5.324   3.174
 8856TIP3    H126511   3.114   5.326   3.143
 8856TIP3    H226512   3.255   5.289   3.101
 8857TIP3   OH226513   3.096   2.105   0.784
 8857TIP3    H126514   3.126   2.124   0.873
 8857TIP3    H226515   3.176   2.093   0.733
 8858TIP3   OH226516   6.324   3.699   1.715
 8858TIP3    H126517   6.360   3.650   1.641
 8858TIP3    H226518   6.281   3.633   1.769
 8859TIP3   OH226519   5.117   0.829   0.215
 8859TIP3    H126520   5.143   0.793   0.300
 8859TIP3    H226521   5.089   0.752   0.164
 8860TIP3   OH226522   4.019   4.151   6.043
 8860TIP3    H126523   3.959   4.084   6.012
 8860TIP3    H226524   3.965   4.210   6.095
 8861TIP3   OH226525   4.271   3.982   3.828
 8861TIP3    H126526   4.231   3.921   3.890
 8861TIP3    H226527   4.258   3.941   3.743
 8862TIP3   OH226528   3.095   6.667   3.137
 8862TIP3    H126529   3.056   6.606   3.074
 8862TIP3    H226530   3.022   6.695   3.191
 8863TIP3   OH226531   0.135   6.322   5.457
 8863TIP3    H126532   0.119   6.228   5.454
 8863TIP3    H226533   0.231   6.330   5.460
 8864TIP3   OH226534   1.544   0.645   6.226
 8864TIP3    H126535   1.508   0.698   6.298
 8864TIP3    H226536   1.511   0.687   6.147
 8865TIP3   OH226537   7.661   6.621   2.692
 8865TIP3    H126538   7.723   6.605   2.763
 8865TIP3    H226539   7.695   6.571   2.618
 8866TIP3   OH226540   7.210   4.424   4.558
 8866TIP3    H126541   7.170   4.397   4.475
 8866TIP3    H226542   7.299   4.389   4.554
 8867TIP3   OH226543   1.477   1.585   2.175
 8867TIP3    H126544   1.496   1.673   2.207
 8867TIP3    H226545   1.526   1.528   2.234
 8868TIP3   OH226546   7.832   4.589   2.374
 8868TIP3    H126547   7.865   4.608   2.286
 8868TIP3    H226548   7.883   4.646   2.431
 8869TIP3   OH226549   2.760   4.183   3.848
 8869TIP3    H126550   2.852   4.204   3.836
 8869TIP3    H226551   2.719   4.268   3.868
 8870TIP3   OH226552   4.864   4.506   0.491
 8870TIP3    H126553   4.915   4.577   0.531
 8870TIP3    H226554   4.911   4.484   0.411
 8871TIP3   OH226555   4.415   0.961   4.364
 8871TIP3    H126556   4.414   0.954   4.460
 8871TIP3    H226557   4.404   0.871   4.333
 8872TIP3   OH226558   8.339   4.981   1.936
 8872TIP3    H126559   8.336   4.896   1.892
 8872TIP3    H226560   8.251   5.016   1.927
 8873TIP3   OH226561   2.725   3.779   2.638
 8873TIP3    H126562   2.687   3.802   2.723
 8873TIP3    H226563   2.741   3.685   2.643
 8874TIP3   OH226564   2.690   2.191   5.944
 8874TIP3    H126565   2.597   2.179   5.923
 8874TIP3    H226566   2.725   2.102   5.949
 8875TIP3   OH226567   0.482   6.225   2.433
 8875TIP3    H126568   0.459   6.267   2.516
 8875TIP3    H226569   0.573   6.250   2.417
 8876TIP3   OH226570   2.034   2.707   6.238
 8876TIP3    H126571   2.007   2.779   6.181
 8876TIP3    H226572   1.961   2.697   6.299
 8877TIP3   OH226573   1.547   5.006   1.680
 8877TIP3    H126574   1.479   4.938   1.686
 8877TIP3    H226575   1.590   5.004   1.765
 8878TIP3   OH226576   6.287   0.760   0.991
 8878TIP3    H126577   6.257   0.843   1.028
 8878TIP3    H226578   6.294   0.777   0.897
 8879TIP3   OH226579   8.107   0.688   4.946
 8879TIP3    H126580   8.158   0.759   4.985
 8879TIP3    H226581   8.169   0.617   4.936
 8880TIP3   OH226582   7.889   0.272   0.282
 8880TIP3    H126583   7.961   0.334   0.279
 8880TIP3    H226584   7.824   0.313   0.339
 8881TIP3   OH226585   4.685   7.087   2.198
 8881TIP3    H126586   4.734   7.086   2.281
 8881TIP3    H226587   4.606   7.037   2.216
 8882TIP3   OH226588   4.734   1.326   3.529
 8882TIP3    H126589   4.821   1.289   3.515
 8882TIP3    H226590   4.749   1.420   3.543
 8883TIP3   OH226591   1.042   5.309   0.562
 8883TIP3    H126592   1.093   5.369   0.508
 8883TIP3    H226593   0.964   5.359   0.587
 8884TIP3   OH226594   6.119   0.292   5.005
 8884TIP3    H126595   6.048   0.356   5.006
 8884TIP3    H226596   6.075   0.208   5.019
 8885TIP3   OH226597   1.194   5.296   3.737
 8885TIP3    H126598   1.152   5.259   3.659
 8885TIP3    H226599   1.244   5.370   3.704
 8886TIP3   OH226600   2.747   6.385   2.289
 8886TIP3    H126601   2.722   6.477   2.295
 8886TIP3    H226602   2.726   6.349   2.375
 8887TIP3   OH226603   7.818   7.153   4.404
 8887TIP3    H126604   7.804   7.217   4.334
 8887TIP3    H226605   7.730   7.124   4.428
 8888TIP3   OH226606   0.683   1.649   0.360
 8888TIP3    H126607   0.700   1.600   0.280
 8888TIP3    H226608   0.767   1.687   0.384
 8889TIP3   OH226609   5.613   4.619   6.180
 8889TIP3    H126610   5.528   4.598   6.143
 8889TIP3    H226611   5.597   4.695   6.236
 8890TIP3   OH226612   0.238   2.771   6.067
 8890TIP3    H126613   0.186   2.700   6.029
 8890TIP3    H226614   0.248   2.834   5.996
 8891TIP3   OH226615   4.854   1.479   3.104
 8891TIP3    H126616   4.813   1.399   3.071
 8891TIP3    H226617   4.919   1.448   3.167
 8892TIP3   OH226618   6.433  -0.026   3.602
 8892TIP3    H126619   6.517  -0.030   3.557
 8892TIP3    H226620   6.450   0.027   3.680
 8893TIP3   OH226621   4.719   6.774   1.132
 8893TIP3    H126622   4.785   6.714   1.096
 8893TIP3    H226623   4.698   6.737   1.217
 8894TIP3   OH226624   4.589   6.669   4.630
 8894TIP3    H126625   4.659   6.611   4.600
 8894TIP3    H226626   4.563   6.634   4.715
 8895TIP3   OH226627   2.154   0.571   6.183
 8895TIP3    H126628   2.176   0.524   6.103
 8895TIP3    H226629   2.197   0.656   6.173
 8896TIP3   OH226630   7.444   1.497   1.621
 8896TIP3    H126631   7.405   1.437   1.684
 8896TIP3    H226632   7.526   1.525   1.662
 8897TIP3   OH226633   4.224   0.147   0.023
 8897TIP3    H126634   4.202   0.239   0.039
 8897TIP3    H226635   4.282   0.149  -0.053
 8898TIP3   OH226636   1.740   6.383   1.986
 8898TIP3    H126637   1.744   6.308   1.928
 8898TIP3    H226638   1.793   6.358   2.062
 8899TIP3   OH226639   2.879   4.489   2.452
 8899TIP3    H126640   2.876   4.569   2.505
 8899TIP3    H226641   2.972   4.475   2.435
 8900TIP3   OH226642   3.155   4.778   6.180
 8900TIP3    H126643   3.064   4.752   6.170
 8900TIP3    H226644   3.164   4.804   6.272
 8901TIP3   OH226645   0.776   6.222   4.790
 8901TIP3    H126646   0.838   6.294   4.776
 8901TIP3    H226647   0.831   6.145   4.802
 8902TIP3   OH226648   1.580   2.762   3.438
 8902TIP3    H126649   1.600   2.715   3.357
 8902TIP3    H226650   1.666   2.788   3.472
 8903TIP3   OH226651   1.595   1.236   3.681
 8903TIP3    H126652   1.530   1.207   3.745
 8903TIP3    H226653   1.600   1.330   3.692
 8904TIP3   OH226654   1.265   5.130   2.725
 8904TIP3    H126655   1.352   5.167   2.712
 8904TIP3    H226656   1.209   5.205   2.746
 8905TIP3   OH226657   2.959   6.821   0.991
 8905TIP3    H126658   2.866   6.829   0.969
 8905TIP3    H226659   3.005   6.835   0.909
 8906TIP3   OH226660   3.553   4.722   0.695
 8906TIP3    H126661   3.534   4.774   0.773
 8906TIP3    H226662   3.566   4.786   0.625
 8907TIP3   OH226663   2.731   1.968   3.507
 8907TIP3    H126664   2.636   1.963   3.516
 8907TIP3    H226665   2.763   1.977   3.597
 8908TIP3   OH226666   0.696   6.444   1.574
 8908TIP3    H126667   0.673   6.534   1.551
 8908TIP3    H226668   0.632   6.390   1.529
 8909TIP3   OH226669   6.093   2.223   0.707
 8909TIP3    H126670   6.065   2.199   0.619
 8909TIP3    H226671   6.020   2.273   0.744
 8910TIP3   OH226672   3.036   6.192   5.211
 8910TIP3    H126673   2.974   6.152   5.150
 8910TIP3    H226674   3.007   6.283   5.217
 8911TIP3   OH226675   7.655   4.049   5.213
 8911TIP3    H126676   7.742   4.073   5.245
 8911TIP3    H226677   7.640   4.107   5.138
 8912TIP3   OH226678   8.025   1.391   6.007
 8912TIP3    H126679   7.941   1.346   6.001
 8912TIP3    H226680   8.049   1.407   5.915
 8913TIP3   OH226681   7.004   0.985   4.070
 8913TIP3    H126682   7.028   0.949   3.985
 8913TIP3    H226683   7.052   0.932   4.134
 8914TIP3   OH226684   7.746   5.360   3.594
 8914TIP3    H126685   7.726   5.334   3.684
 8914TIP3    H226686   7.668   5.336   3.544
 8915TIP3   OH226687   3.044   3.409   3.458
 8915TIP3    H126688   3.127   3.413   3.410
 8915TIP3    H226689   3.053   3.477   3.525
 8916TIP3   OH226690   4.794   4.743   1.103
 8916TIP3    H126691   4.817   4.779   1.189
 8916TIP3    H226692   4.702   4.718   1.112
 8917TIP3   OH226693   3.656   3.086   0.642
 8917TIP3    H126694   3.739   3.082   0.595
 8917TIP3    H226695   3.675   3.140   0.719
 8918TIP3   OH226696   6.103   6.396   5.577
 8918TIP3    H126697   6.143   6.373   5.661
 8918TIP3    H226698   6.071   6.313   5.542
 8919TIP3   OH226699   7.648   4.777   1.670
 8919TIP3    H126700   7.743   4.769   1.676
 8919TIP3    H226701   7.632   4.870   1.655
 8920TIP3   OH226702   1.570   2.190   5.073
 8920TIP3    H126703   1.568   2.221   5.163
 8920TIP3    H226704   1.480   2.201   5.041
 8921TIP3   OH226705   7.599   3.359   3.988
 8921TIP3    H126706   7.547   3.306   4.049
 8921TIP3    H226707   7.669   3.397   4.042
 8922TIP3   OH226708   5.161   6.973   3.815
 8922TIP3    H126709   5.179   7.065   3.833
 8922TIP3    H226710   5.071   6.971   3.783
 8923TIP3   OH226711   0.380   5.855   1.891
 8923TIP3    H126712   0.333   5.802   1.955
 8923TIP3    H226713   0.340   5.942   1.899
 8924TIP3   OH226714   3.008   7.272   2.696
 8924TIP3    H126715   3.049   7.356   2.715
 8924TIP3    H226716   2.997   7.231   2.782
 8925TIP3   OH226717   1.617   1.926   3.431
 8925TIP3    H126718   1.573   1.988   3.489
 8925TIP3    H226719   1.703   1.965   3.416
 8926TIP3   OH226720   7.896   6.050   0.947
 8926TIP3    H126721   7.964   6.117   0.954
 8926TIP3    H226722   7.920   5.985   1.014
 8927TIP3   OH226723   4.598   4.452   0.366
 8927TIP3    H126724   4.556   4.511   0.304
 8927TIP3    H226725   4.679   4.498   0.391
 8928TIP3   OH226726   3.760   2.550   1.923
 8928TIP3    H126727   3.815   2.512   1.854
 8928TIP3    H226728   3.756   2.644   1.902
 8929TIP3   OH226729   5.329   2.418   2.358
 8929TIP3    H126730   5.398   2.461   2.409
 8929TIP3    H226731   5.327   2.467   2.276
 8930TIP3   OH226732   1.648   6.312   0.893
 8930TIP3    H126733   1.718   6.286   0.832
 8930TIP3    H226734   1.667   6.404   0.913
 8931TIP3   OH226735   4.576   2.842   4.576
 8931TIP3    H126736   4.657   2.822   4.529
 8931TIP3    H226737   4.605   2.862   4.665
 8932TIP3   OH226738   4.061   1.860   1.604
 8932TIP3    H126739   4.058   1.781   1.551
 8932TIP3    H226740   4.130   1.843   1.668
 8933TIP3   OH226741   4.884   4.628   4.851
 8933TIP3    H126742   4.897   4.597   4.761
 8933TIP3    H226743   4.973   4.639   4.884
 8934TIP3   OH226744   8.003   3.787   2.546
 8934TIP3    H126745   8.098   3.790   2.535
 8934TIP3    H226746   7.985   3.697   2.573
 8935TIP3   OH226747   0.439   5.223   1.055
 8935TIP3    H126748   0.425   5.304   1.104
 8935TIP3    H226749   0.507   5.176   1.105
 8936TIP3   OH226750   1.165   2.226   0.317
 8936TIP3    H126751   1.222   2.243   0.392
 8936TIP3    H226752   1.124   2.141   0.337
 8937TIP3   OH226753   7.261   5.798   5.096
 8937TIP3    H126754   7.188   5.767   5.150
 8937TIP3    H226755   7.337   5.795   5.153
 8938TIP3   OH226756   7.356   1.209   6.705
 8938TIP3    H126757   7.432   1.263   6.728
 8938TIP3    H226758   7.282   1.252   6.749
 8939TIP3   OH226759   6.893   2.509   1.319
 8939TIP3    H126760   6.906   2.442   1.386
 8939TIP3    H226761   6.836   2.467   1.254
 8940TIP3   OH226762   8.183   3.537   4.622
 8940TIP3    H126763   8.151   3.465   4.676
 8940TIP3    H226764   8.114   3.550   4.557
 8941TIP3   OH226765   3.816   1.116   5.568
 8941TIP3    H126766   3.797   1.146   5.479
 8941TIP3    H226767   3.824   1.196   5.619
 8942TIP3   OH226768   4.051   1.171   1.961
 8942TIP3    H126769   3.983   1.236   1.976
 8942TIP3    H226770   4.124   1.199   2.016
 8943TIP3   OH226771   1.617   6.155   5.952
 8943TIP3    H126772   1.555   6.089   5.983
 8943TIP3    H226773   1.582   6.184   5.868
 8944TIP3   OH226774   2.576   2.469   2.117
 8944TIP3    H126775   2.488   2.469   2.155
 8944TIP3    H226776   2.596   2.562   2.104
 8945TIP3   OH226777   3.389   0.607   6.505
 8945TIP3    H126778   3.364   0.515   6.510
 8945TIP3    H226779   3.357   0.645   6.587
 8946TIP3   OH226780   0.869   3.706   1.114
 8946TIP3    H126781   0.931   3.759   1.065
 8946TIP3    H226782   0.921   3.631   1.146
 8947TIP3   OH226783   7.257   4.362   0.862
 8947TIP3    H126784   7.215   4.277   0.875
 8947TIP3    H226785   7.317   4.348   0.789
 8948TIP3   OH226786   2.070   2.697   4.946
 8948TIP3    H126787   1.977   2.674   4.949
 8948TIP3    H226788   2.082   2.762   5.015
 8949TIP3   OH226789   5.608   2.366   1.746
 8949TIP3    H126790   5.605   2.314   1.827
 8949TIP3    H226791   5.541   2.326   1.690
 8950TIP3   OH226792   0.797   1.911   3.640
 8950TIP3    H126793   0.810   1.891   3.548
 8950TIP3    H226794   0.702   1.918   3.650
 8951TIP3   OH226795   7.999   1.988   3.250
 8951TIP3    H126796   8.071   2.050   3.259
 8951TIP3    H226797   8.040   1.902   3.258
 8952TIP3   OH226798   0.262   4.500   5.894
 8952TIP3    H126799   0.181   4.455   5.868
 8952TIP3    H226800   0.233   4.581   5.935
 8953TIP3   OH226801   8.158   3.143   3.113
 8953TIP3    H126802   8.237   3.165   3.164
 8953TIP3    H226803   8.190   3.125   3.025
 8954TIP3   OH226804   0.423   5.488   3.111
 8954TIP3    H126805   0.377   5.500   3.195
 8954TIP3    H226806   0.376   5.545   3.050
 8955TIP3   OH226807   2.111   4.262   3.411
 8955TIP3    H126808   2.015   4.267   3.406
 8955TIP3    H226809   2.129   4.231   3.499
 8956TIP3   OH226810   2.264   7.327   4.237
 8956TIP3    H126811   2.352   7.359   4.258
 8956TIP3    H226812   2.274   7.278   4.155
 8957TIP3   OH226813   1.833   7.565   5.358
 8957TIP3    H126814   1.825   7.577   5.264
 8957TIP3    H226815   1.744   7.547   5.388
 8958TIP3   OH226816   6.398   2.993   5.849
 8958TIP3    H126817   6.461   2.924   5.869
 8958TIP3    H226818   6.445   3.074   5.869
 8959TIP3   OH226819   5.599   4.391   0.559
 8959TIP3    H126820   5.566   4.325   0.620
 8959TIP3    H226821   5.543   4.467   0.573
 8960TIP3   OH226822   4.948   4.571   6.451
 8960TIP3    H126823   4.855   4.595   6.456
 8960TIP3    H226824   4.995   4.648   6.481
 8961TIP3   OH226825   3.359   4.544   1.000
 8961TIP3    H126826   3.280   4.505   1.036
 8961TIP3    H226827   3.370   4.626   1.048
 8962TIP3   OH226828   5.855   7.469   6.725
 8962TIP3    H126829   5.824   7.460   6.635
 8962TIP3    H226830   5.819   7.394   6.771
 8963TIP3   OH226831   7.550   2.989   4.520
 8963TIP3    H126832   7.489   3.059   4.540
 8963TIP3    H226833   7.496   2.911   4.510
 8964TIP3   OH226834   8.322   6.617   2.700
 8964TIP3    H126835   8.342   6.627   2.793
 8964TIP3    H226836   8.260   6.687   2.680
 8965TIP3   OH226837   4.467   0.538   1.049
 8965TIP3    H126838   4.487   0.608   1.112
 8965TIP3    H226839   4.551   0.494   1.034
 8966TIP3   OH226840   3.184   5.216   2.309
 8966TIP3    H126841   3.095   5.181   2.305
 8966TIP3    H226842   3.197   5.238   2.402
 8967TIP3   OH226843   1.061   1.692   1.687
 8967TIP3    H126844   1.085   1.662   1.600
 8967TIP3    H226845   1.040   1.785   1.675
 8968TIP3   OH226846   3.800   1.094   6.203
 8968TIP3    H126847   3.892   1.100   6.176
 8968TIP3    H226848   3.754   1.069   6.123
 8969TIP3   OH226849   0.225   3.736   5.192
 8969TIP3    H126850   0.275   3.818   5.198
 8969TIP3    H226851   0.289   3.668   5.213
 8970TIP3   OH226852   6.077   6.215   1.174
 8970TIP3    H126853   6.063   6.120   1.181
 8970TIP3    H226854   6.105   6.241   1.261
 8971TIP3   OH226855   6.186   6.432   3.943
 8971TIP3    H126856   6.259   6.483   3.978
 8971TIP3    H226857   6.116   6.442   4.007
 8972TIP3   OH226858   1.750   0.316   4.045
 8972TIP3    H126859   1.735   0.225   4.069
 8972TIP3    H226860   1.666   0.359   4.059
 8973TIP3   OH226861   6.510   3.343   3.581
 8973TIP3    H126862   6.521   3.287   3.657
 8973TIP3    H226863   6.504   3.431   3.616
 8974TIP3   OH226864   4.798   4.359   4.452
 8974TIP3    H126865   4.717   4.403   4.426
 8974TIP3    H226866   4.838   4.332   4.369
 8975TIP3   OH226867   6.880   2.627   2.714
 8975TIP3    H126868   6.850   2.579   2.637
 8975TIP3    H226869   6.946   2.570   2.754
 8976TIP3   OH226870   5.501   6.182   6.370
 8976TIP3    H126871   5.569   6.244   6.399
 8976TIP3    H226872   5.532   6.097   6.399
 8977TIP3   OH226873   0.600   3.336   2.834
 8977TIP3    H126874   0.541   3.319   2.761
 8977TIP3    H226875   0.627   3.250   2.864
 8978TIP3   OH226876   8.077   5.643   3.239
 8978TIP3    H126877   8.049   5.552   3.227
 8978TIP3    H226878   8.171   5.637   3.251
 8979TIP3   OH226879   6.450   1.806   3.843
 8979TIP3    H126880   6.472   1.868   3.774
 8979TIP3    H226881   6.534   1.768   3.868
 8980TIP3   OH226882   1.520   5.450   1.380
 8980TIP3    H126883   1.559   5.412   1.301
 8980TIP3    H226884   1.561   5.402   1.452
 8981TIP3   OH226885   4.882   2.311   2.180
 8981TIP3    H126886   4.965   2.271   2.154
 8981TIP3    H226887   4.852   2.258   2.253
 8982TIP3   OH226888   5.147   2.704   5.456
 8982TIP3    H126889   5.136   2.685   5.549
 8982TIP3    H226890   5.065   2.675   5.416
 8983TIP3   OH226891   4.192   5.382   2.258
 8983TIP3    H126892   4.154   5.432   2.186
 8983TIP3    H226893   4.226   5.448   2.318
 8984TIP3   OH226894   1.148   3.033   0.723
 8984TIP3    H126895   1.211   3.103   0.707
 8984TIP3    H226896   1.199   2.952   0.714
 8985TIP3   OH226897   0.694   5.113   3.463
 8985TIP3    H126898   0.747   5.160   3.398
 8985TIP3    H226899   0.675   5.178   3.530
 8986TIP3   OH226900   7.294   4.472   6.787
 8986TIP3    H126901   7.215   4.418   6.784
 8986TIP3    H226902   7.268   4.554   6.745
 8987TIP3   OH226903   5.415   3.494   5.926
 8987TIP3    H126904   5.489   3.438   5.902
 8987TIP3    H226905   5.384   3.530   5.842
 8988TIP3   OH226906   1.768   5.082   5.329
 8988TIP3    H126907   1.862   5.078   5.345
 8988TIP3    H226908   1.730   5.113   5.411
 8989TIP3   OH226909   3.400   4.366   6.317
 8989TIP3    H126910   3.342   4.374   6.241
 8989TIP3    H226911   3.341   4.361   6.392
 8990TIP3   OH226912   5.004   1.577   5.781
 8990TIP3    H126913   4.952   1.497   5.777
 8990TIP3    H226914   5.095   1.547   5.779
 8991TIP3   OH226915   5.705   4.826   0.991
 8991TIP3    H126916   5.685   4.821   1.084
 8991TIP3    H226917   5.621   4.812   0.948
 8992TIP3   OH226918   1.058   1.313   0.890
 8992TIP3    H126919   1.090   1.265   0.814
 8992TIP3    H226920   1.014   1.247   0.944
 8993TIP3   OH226921   3.426   0.885   4.968
 8993TIP3    H126922   3.448   0.868   5.060
 8993TIP3    H226923   3.385   0.971   4.969
 8994TIP3   OH226924   0.819   6.837   1.903
 8994TIP3    H126925   0.906   6.822   1.866
 8994TIP3    H226926   0.800   6.929   1.884
 8995TIP3   OH226927   0.433   0.222   4.769
 8995TIP3    H126928   0.484   0.245   4.691
 8995TIP3    H226929   0.453   0.291   4.832
 8996TIP3   OH226930   5.757   6.906   0.034
 8996TIP3    H126931   5.725   6.896  -0.056
 8996TIP3    H226932   5.685   6.874   0.088
 8997TIP3   OH226933   2.559   0.088   0.837
 8997TIP3    H126934   2.509   0.098   0.918
 8997TIP3    H226935   2.563  -0.006   0.822
 8998TIP3   OH226936   0.382   3.062   5.443
 8998TIP3    H126937   0.335   2.980   5.429
 8998TIP3    H226938   0.397   3.097   5.355
 8999TIP3   OH226939   0.249   2.752   4.380
 8999TIP3    H126940   0.275   2.720   4.467
 8999TIP3    H226941   0.214   2.840   4.397
 9000TIP3   OH226942   7.087   1.195   5.243
 9000TIP3    H126943   7.009   1.227   5.198
 9000TIP3    H226944   7.055   1.160   5.326
 9001TIP3   OH226945   6.103   1.526   5.319
 9001TIP3    H126946   6.100   1.431   5.309
 9001TIP3    H226947   6.136   1.558   5.235
 9002TIP3   OH226948   1.952   2.293   3.031
 9002TIP3    H126949   1.865   2.321   3.001
 9002TIP3    H226950   2.006   2.295   2.952
 9003TIP3   OH226951   0.604   5.819   5.511
 9003TIP3    H126952   0.577   5.893   5.456
 9003TIP3    H226953   0.663   5.858   5.575
 9004TIP3   OH226954   4.413   1.837   1.031
 9004TIP3    H126955   4.398   1.760   1.085
 9004TIP3    H226956   4.414   1.804   0.941
 9005TIP3   OH226957   8.212   2.057   0.940
 9005TIP3    H126958   8.295   2.021   0.972
 9005TIP3    H226959   8.237   2.112   0.866
 9006TIP3   OH226960   6.612   6.944   4.865
 9006TIP3    H126961   6.557   6.908   4.796
 9006TIP3    H226962   6.694   6.966   4.821
 9007TIP3   OH226963   2.782   1.525   6.570
 9007TIP3    H126964   2.701   1.559   6.531
 9007TIP3    H226965   2.771   1.430   6.568
 9008TIP3   OH226966   4.200   5.542   0.966
 9008TIP3    H126967   4.218   5.630   0.997
 9008TIP3    H226968   4.107   5.543   0.944
 9009TIP3   OH226969   4.723   3.733   4.719
 9009TIP3    H126970   4.802   3.680   4.706
 9009TIP3    H226971   4.662   3.703   4.652
 9010TIP3   OH226972   5.490   1.125   2.176
 9010TIP3    H126973   5.544   1.085   2.244
 9010TIP3    H226974   5.506   1.219   2.184
 9011TIP3   OH226975   3.994   1.388   0.818
 9011TIP3    H126976   4.026   1.395   0.729
 9011TIP3    H226977   4.067   1.352   0.868
 9012TIP3   OH226978   6.214   7.817   4.129
 9012TIP3    H126979   6.262   7.752   4.180
 9012TIP3    H226980   6.185   7.881   4.193
 9013TIP3   OH226981   4.034   5.320   3.055
 9013TIP3    H126982   3.966   5.287   3.114
 9013TIP3    H226983   4.033   5.414   3.069
 9014TIP3   OH226984   8.000   1.336   3.185
 9014TIP3    H126985   7.954   1.417   3.160
 9014TIP3    H226986   8.093   1.359   3.178
 9015TIP3   OH226987   7.243   0.431   5.675
 9015TIP3    H126988   7.166   0.485   5.692
 9015TIP3    H226989   7.228   0.351   5.725
 9016TIP3   OH226990   1.406   3.837   5.971
 9016TIP3    H126991   1.388   3.750   6.007
 9016TIP3    H226992   1.387   3.896   6.044
 9017TIP3   OH226993   5.644   7.220   1.707
 9017TIP3    H126994   5.691   7.145   1.744
 9017TIP3    H226995   5.673   7.295   1.760
 9018TIP3   OH226996   6.619   3.988   5.236
 9018TIP3    H126997   6.672   4.055   5.193
 9018TIP3    H226998   6.563   4.036   5.297
 9019TIP3   OH226999   2.413   6.145   0.769
 9019TIP3    H127000   2.440   6.220   0.715
 9019TIP3    H227001   2.479   6.078   0.750
 9020TIP3   OH227002   4.345   4.595   0.957
 9020TIP3    H127003   4.324   4.511   0.997
 9020TIP3    H227004   4.424   4.578   0.905
 9021TIP3   OH227005   7.203   4.773   4.741
 9021TIP3    H127006   7.254   4.835   4.793
 9021TIP3    H227007   7.133   4.744   4.800
 9022TIP3   OH227008   6.884   0.141   0.116
 9022TIP3    H127009   6.960   0.179   0.160
 9022TIP3    H227010   6.818   0.210   0.117
 9023TIP3   OH227011   6.416   1.034   3.398
 9023TIP3    H127012   6.433   1.030   3.492
 9023TIP3    H227013   6.468   1.109   3.368
 9024TIP3   OH227014   4.865   5.346   0.165
 9024TIP3    H127015   4.847   5.400   0.242
 9024TIP3    H227016   4.946   5.301   0.186
 9025TIP3   OH227017   3.330   4.402   4.741
 9025TIP3    H127018   3.288   4.371   4.661
 9025TIP3    H227019   3.342   4.496   4.727
 9026TIP3   OH227020   7.378   0.579   2.089
 9026TIP3    H127021   7.457   0.573   2.034
 9026TIP3    H227022   7.369   0.493   2.128
 9027TIP3   OH227023   6.118   2.490   6.715
 9027TIP3    H127024   6.122   2.418   6.778
 9027TIP3    H227025   6.208   2.499   6.684
 9028TIP3   OH227026   4.548   1.800   6.061
 9028TIP3    H127027   4.480   1.751   6.015
 9028TIP3    H227028   4.562   1.752   6.142
 9029TIP3   OH227029   4.276   6.330   5.479
 9029TIP3    H127030   4.211   6.262   5.500
 9029TIP3    H227031   4.320   6.347   5.563
 9030TIP3   OH227032   1.597   3.530   5.274
 9030TIP3    H127033   1.676   3.574   5.245
 9030TIP3    H227034   1.528   3.596   5.265
 9031TIP3   OH227035   2.146   4.057   4.390
 9031TIP3    H127036   2.219   4.009   4.429
 9031TIP3    H227037   2.126   4.009   4.309
 9032TIP3   OH227038   4.575   5.590   4.346
 9032TIP3    H127039   4.587   5.685   4.348
 9032TIP3    H227040   4.535   5.573   4.261
 9033TIP3   OH227041   4.174   1.754   1.195
 9033TIP3    H127042   4.110   1.802   1.248
 9033TIP3    H227043   4.245   1.734   1.255
 9034TIP3   OH227044   4.620   2.050   2.200
 9034TIP3    H127045   4.586   2.117   2.141
 9034TIP3    H227046   4.562   2.054   2.276
 9035TIP3   OH227047   8.206   7.492   6.749
 9035TIP3    H127048   8.232   7.491   6.657
 9035TIP3    H227049   8.201   7.400   6.774
 9036TIP3   OH227050   8.178   7.453   4.963
 9036TIP3    H127051   8.193   7.502   4.883
 9036TIP3    H227052   8.099   7.402   4.946
 9037TIP3   OH227053   2.240   0.378   2.613
 9037TIP3    H127054   2.203   0.456   2.655
 9037TIP3    H227055   2.228   0.308   2.678
 9038TIP3   OH227056   5.985   7.063   0.092
 9038TIP3    H127057   5.894   7.034   0.085
 9038TIP3    H227058   5.993   7.131   0.025
 9039TIP3   OH227059   4.591   2.055   4.795
 9039TIP3    H127060   4.651   2.007   4.737
 9039TIP3    H227061   4.515   2.074   4.740
 9040TIP3   OH227062   2.400   0.855   0.270
 9040TIP3    H127063   2.416   0.901   0.188
 9040TIP3    H227064   2.405   0.762   0.247
 9041TIP3   OH227065   1.394   7.046   4.319
 9041TIP3    H127066   1.338   6.969   4.324
 9041TIP3    H227067   1.481   7.015   4.345
 9042TIP3   OH227068   6.235   3.483   3.212
 9042TIP3    H127069   6.211   3.391   3.204
 9042TIP3    H227070   6.328   3.482   3.231
 9043TIP3   OH227071   6.774   3.912   3.835
 9043TIP3    H127072   6.760   3.823   3.805
 9043TIP3    H227073   6.697   3.933   3.888
 9044TIP3   OH227074   7.856   4.368   1.822
 9044TIP3    H127075   7.797   4.327   1.758
 9044TIP3    H227076   7.799   4.388   1.896
 9045TIP3   OH227077   2.026   5.954   2.360
 9045TIP3    H127078   2.025   5.874   2.412
 9045TIP3    H227079   1.967   5.936   2.287
 9046TIP3   OH227080   2.657   6.499   1.375
 9046TIP3    H127081   2.565   6.498   1.351
 9046TIP3    H227082   2.693   6.420   1.334
 9047TIP3   OH227083   2.060   3.132   0.885
 9047TIP3    H127084   2.091   3.217   0.852
 9047TIP3    H227085   1.979   3.115   0.836
 9048TIP3   OH227086   4.901   1.565   6.419
 9048TIP3    H127087   4.880   1.636   6.480
 9048TIP3    H227088   4.856   1.589   6.338
 9049TIP3   OH227089   4.583   1.212   1.942
 9049TIP3    H127090   4.549   1.132   1.983
 9049TIP3    H227091   4.595   1.273   2.015
 9050TIP3   OH227092   8.236   4.290   5.459
 9050TIP3    H127093   8.185   4.215   5.427
 9050TIP3    H227094   8.190   4.366   5.422
 9051TIP3   OH227095   7.631   0.151   0.189
 9051TIP3    H127096   7.546   0.191   0.170
 9051TIP3    H227097   7.693   0.224   0.190
 9052TIP3   OH227098   2.646   7.472   6.501
 9052TIP3    H127099   2.594   7.460   6.422
 9052TIP3    H227100   2.603   7.543   6.548
 9053TIP3   OH227101   4.863   2.821   1.545
 9053TIP3    H127102   4.931   2.866   1.494
 9053TIP3    H227103   4.883   2.845   1.636
 9054TIP3   OH227104   1.201   6.938   1.879
 9054TIP3    H127105   1.296   6.928   1.875
 9054TIP3    H227106   1.172   6.932   1.788
 9055TIP3   OH227107   6.241   1.056   0.179
 9055TIP3    H127108   6.180   1.124   0.207
 9055TIP3    H227109   6.188   0.976   0.178
 9056TIP3   OH227110   3.431   5.796   5.531
 9056TIP3    H127111   3.386   5.712   5.531
 9056TIP3    H227112   3.476   5.800   5.447
 9057TIP3   OH227113   6.693   6.450   5.999
 9057TIP3    H127114   6.669   6.469   5.909
 9057TIP3    H227115   6.624   6.489   6.052
 9058TIP3   OH227116   5.335   5.903   5.133
 9058TIP3    H127117   5.275   5.952   5.077
 9058TIP3    H227118   5.342   5.956   5.212
 9059TIP3   OH227119   2.498   5.189   0.769
 9059TIP3    H127120   2.501   5.195   0.865
 9059TIP3    H227121   2.581   5.149   0.745
 9060TIP3   OH227122   6.395   4.065   4.248
 9060TIP3    H127123   6.449   4.129   4.203
 9060TIP3    H227124   6.342   4.025   4.179
 9061TIP3   OH227125   3.642   4.751   0.032
 9061TIP3    H127126   3.568   4.724   0.086
 9061TIP3    H227127   3.603   4.801  -0.040
 9062TIP3   OH227128   5.240   4.874   1.805
 9062TIP3    H127129   5.147   4.853   1.818
 9062TIP3    H227130   5.261   4.839   1.719
 9063TIP3   OH227131   2.142   4.374   5.385
 9063TIP3    H127132   2.065   4.317   5.377
 9063TIP3    H227133   2.192   4.336   5.457
 9064TIP3   OH227134   6.627   5.914   2.819
 9064TIP3    H127135   6.601   5.914   2.911
 9064TIP3    H227136   6.693   5.983   2.813
 9065TIP3   OH227137   3.638   7.443   2.640
 9065TIP3    H127138   3.606   7.477   2.557
 9065TIP3    H227139   3.572   7.470   2.704
 9066TIP3   OH227140   1.170   7.017   0.030
 9066TIP3    H127141   1.214   7.100   0.015
 9066TIP3    H227142   1.205   6.987   0.115
 9067TIP3   OH227143   2.861   5.036   4.919
 9067TIP3    H127144   2.915   5.114   4.907
 9067TIP3    H227145   2.912   4.981   4.978
 9068TIP3   OH227146   4.629   6.762   5.191
 9068TIP3    H127147   4.567   6.697   5.160
 9068TIP3    H227148   4.711   6.740   5.146
 9069TIP3   OH227149   3.830   2.495   3.493
 9069TIP3    H127150   3.758   2.544   3.531
 9069TIP3    H227151   3.817   2.405   3.524
 9070TIP3   OH227152   4.341   1.292   1.819
 9070TIP3    H127153   4.410   1.247   1.867
 9070TIP3    H227154   4.342   1.382   1.852
 9071TIP3   OH227155   7.187   3.481   4.536
 9071TIP3    H127156   7.105   3.459   4.578
 9071TIP3    H227157   7.231   3.396   4.524
 9072TIP3   OH227158   1.344   3.697   4.865
 9072TIP3    H127159   1.315   3.759   4.797
 9072TIP3    H227160   1.282   3.624   4.858
 9073TIP3   OH227161   6.034   2.427   2.721
 9073TIP3    H127162   6.062   2.346   2.762
 9073TIP3    H227163   6.090   2.494   2.760
 9074TIP3   OH227164   5.891   1.874   6.625
 9074TIP3    H127165   5.848   1.944   6.575
 9074TIP3    H227166   5.842   1.795   6.603
 9075TIP3   OH227167   7.158   2.267   3.432
 9075TIP3    H127168   7.081   2.301   3.387
 9075TIP3    H227169   7.146   2.292   3.523
 9076TIP3   OH227170   2.225   5.112   0.204
 9076TIP3    H127171   2.297   5.159   0.246
 9076TIP3    H227172   2.249   5.111   0.111
 9077TIP3   OH227173   4.028   3.205   5.526
 9077TIP3    H127174   3.971   3.264   5.574
 9077TIP3    H227175   3.996   3.207   5.436
 9078TIP3   OH227176   6.376   4.326   3.559
 9078TIP3    H127177   6.364   4.416   3.588
 9078TIP3    H227178   6.336   4.322   3.473
 9079TIP3   OH227179   7.931   6.566   5.012
 9079TIP3    H127180   7.933   6.569   5.108
 9079TIP3    H227181   8.011   6.611   4.985
 9080TIP3   OH227182   0.453   1.865   5.490
 9080TIP3    H127183   0.474   1.815   5.412
 9080TIP3    H227184   0.488   1.813   5.562
 9081TIP3   OH227185   7.503   6.117   5.493
 9081TIP3    H127186   7.505   6.213   5.492
 9081TIP3    H227187   7.465   6.095   5.578
 9082TIP3   OH227188   1.394   4.317   3.467
 9082TIP3    H127189   1.312   4.285   3.504
 9082TIP3    H227190   1.430   4.374   3.534
 9083TIP3   OH227191   7.297   6.214   0.669
 9083TIP3    H127192   7.345   6.154   0.726
 9083TIP3    H227193   7.294   6.296   0.718
 9084TIP3   OH227194   5.427   0.368   0.656
 9084TIP3    H127195   5.490   0.393   0.589
 9084TIP3    H227196   5.474   0.375   0.739
 9085TIP3   OH227197   1.853   7.644   5.100
 9085TIP3    H127198   1.903   7.722   5.076
 9085TIP3    H227199   1.770   7.653   5.053
 9086TIP3   OH227200   1.096   5.031   0.950
 9086TIP3    H127201   1.114   5.091   1.022
 9086TIP3    H227202   1.001   5.031   0.940
 9087TIP3   OH227203   0.516   6.111   5.657
 9087TIP3    H127204   0.595   6.164   5.670
 9087TIP3    H227205   0.530   6.034   5.712
 9088TIP3   OH227206   7.013   0.925   0.880
 9088TIP3    H127207   7.006   1.003   0.826
 9088TIP3    H227208   7.082   0.945   0.943
 9089TIP3   OH227209   5.697   5.820   6.206
 9089TIP3    H127210   5.606   5.848   6.192
 9089TIP3    H227211   5.738   5.828   6.121
 9090TIP3   OH227212   6.997   1.464   2.936
 9090TIP3    H127213   6.909   1.436   2.911
 9090TIP3    H227214   6.996   1.559   2.927
 9091TIP3   OH227215   1.908   5.505   3.142
 9091TIP3    H127216   1.972   5.442   3.109
 9091TIP3    H227217   1.823   5.468   3.119
 9092TIP3   OH227218   3.584   5.615   2.353
 9092TIP3    H127219   3.649   5.553   2.386
 9092TIP3    H227220   3.544   5.650   2.433
 9093TIP3   OH227221   0.512   4.088   5.903
 9093TIP3    H127222   0.438   4.116   5.956
 9093TIP3    H227223   0.587   4.133   5.941
 9094TIP3   OH227224   3.562   4.362   0.157
 9094TIP3    H127225   3.539   4.369   0.250
 9094TIP3    H227226   3.485   4.393   0.111
 9095TIP3   OH227227   6.276   4.513   0.195
 9095TIP3    H127228   6.337   4.494   0.267
 9095TIP3    H227229   6.190   4.512   0.236
 9096TIP3   OH227230   3.263   2.421   4.043
 9096TIP3    H127231   3.313   2.487   4.092
 9096TIP3    H227232   3.329   2.376   3.990
 9097TIP3   OH227233   7.982   1.017   0.453
 9097TIP3    H127234   8.026   0.931   0.451
 9097TIP3    H227235   7.905   1.006   0.399
 9098TIP3   OH227236   1.227   0.334   5.114
 9098TIP3    H127237   1.193   0.423   5.109
 9098TIP3    H227238   1.275   0.321   5.032
 9099TIP3   OH227239   2.159   1.412   6.112
 9099TIP3    H127240   2.145   1.492   6.163
 9099TIP3    H227241   2.106   1.346   6.156
 9100TIP3   OH227242   2.823   5.819   2.503
 9100TIP3    H127243   2.890   5.874   2.462
 9100TIP3    H227244   2.825   5.738   2.454
 9101TIP3   OH227245   2.140   1.038   1.149
 9101TIP3    H127246   2.115   0.956   1.107
 9101TIP3    H227247   2.221   1.018   1.196
 9102TIP3   OH227248   7.777   3.278   6.558
 9102TIP3    H127249   7.849   3.294   6.619
 9102TIP3    H227250   7.798   3.194   6.518
 9103TIP3   OH227251   1.484   0.022   2.263
 9103TIP3    H127252   1.427   0.053   2.333
 9103TIP3    H227253   1.546   0.093   2.248
 9104TIP3   OH227254   0.431   4.810   2.323
 9104TIP3    H127255   0.358   4.863   2.354
 9104TIP3    H227256   0.396   4.764   2.246
 9105TIP3   OH227257   5.571   5.677   4.103
 9105TIP3    H127258   5.536   5.761   4.134
 9105TIP3    H227259   5.586   5.691   4.009
 9106TIP3   OH227260   0.018   3.533   5.415
 9106TIP3    H127261  -0.028   3.615   5.432
 9106TIP3    H227262   0.095   3.536   5.471
 9107TIP3   OH227263   3.379   4.147   3.725
 9107TIP3    H127264   3.408   4.056   3.727
 9107TIP3    H227265   3.314   4.154   3.795
 9108TIP3   OH227266   1.773   5.885   1.565
 9108TIP3    H127267   1.752   5.813   1.505
 9108TIP3    H227268   1.751   5.964   1.516
 9109TIP3   OH227269   7.862   0.285   1.785
 9109TIP3    H127270   7.948   0.321   1.764
 9109TIP3    H227271   7.870   0.191   1.772
 9110TIP3   OH227272   7.335   7.090   3.157
 9110TIP3    H127273   7.372   7.169   3.196
 9110TIP3    H227274   7.409   7.030   3.151
 9111TIP3   OH227275   2.270   6.507   6.439
 9111TIP3    H127276   2.312   6.581   6.484
 9111TIP3    H227277   2.180   6.507   6.472
 9112TIP3   OH227278   1.378   1.473   4.055
 9112TIP3    H127279   1.305   1.459   3.996
 9112TIP3    H227280   1.437   1.399   4.038
 9113TIP3   OH227281   0.044   1.357   6.758
 9113TIP3    H127282  -0.009   1.397   6.689
 9113TIP3    H227283   0.050   1.264   6.733
 9114TIP3   OH227284   6.852   1.281   3.638
 9114TIP3    H127285   6.806   1.246   3.715
 9114TIP3    H227286   6.902   1.355   3.673
 9115TIP3   OH227287   4.467   3.588   2.468
 9115TIP3    H127288   4.453   3.661   2.407
 9115TIP3    H227289   4.535   3.620   2.527
 9116TIP3   OH227290   6.919   0.090   3.501
 9116TIP3    H127291   6.942   0.182   3.506
 9116TIP3    H227292   6.983   0.052   3.441
 9117TIP3   OH227293   5.747   1.556   2.283
 9117TIP3    H127294   5.696   1.619   2.334
 9117TIP3    H227295   5.811   1.521   2.344
 9118TIP3   OH227296   1.173   2.298   1.931
 9118TIP3    H127297   1.133   2.219   1.894
 9118TIP3    H227298   1.227   2.265   2.003
 9119TIP3   OH227299   4.871   0.275   6.419
 9119TIP3    H127300   4.787   0.235   6.441
 9119TIP3    H227301   4.906   0.219   6.349
 9120TIP3   OH227302   6.557   4.591   4.958
 9120TIP3    H127303   6.603   4.570   5.040
 9120TIP3    H227304   6.560   4.687   4.952
 9121TIP3   OH227305   6.552   1.365   5.892
 9121TIP3    H127306   6.517   1.281   5.921
 9121TIP3    H227307   6.475   1.418   5.872
 9122TIP3   OH227308   8.120   5.489   0.520
 9122TIP3    H127309   8.098   5.565   0.573
 9122TIP3    H227310   8.194   5.448   0.564
 9123TIP3   OH227311   1.638   6.546   5.973
 9123TIP3    H127312   1.675   6.499   5.898
 9123TIP3    H227313   1.660   6.637   5.958
 9124TIP3   OH227314   4.748   3.462   0.817
 9124TIP3    H127315   4.675   3.418   0.861
 9124TIP3    H227316   4.744   3.552   0.847
 9125TIP3   OH227317   7.504   5.182   5.386
 9125TIP3    H127318   7.436   5.186   5.453
 9125TIP3    H227319   7.576   5.234   5.423
 9126TIP3   OH227320   6.492   6.028   6.086
 9126TIP3    H127321   6.545   6.107   6.074
 9126TIP3    H227322   6.402   6.059   6.079
 9127TIP3   OH227323   2.241   1.916   4.793
 9127TIP3    H127324   2.158   1.871   4.779
 9127TIP3    H227325   2.238   1.992   4.735
 9128TIP3   OH227326   0.430   4.416   2.960
 9128TIP3    H127327   0.409   4.476   3.031
 9128TIP3    H227328   0.433   4.471   2.882
 9129TIP3   OH227329   7.820   3.834   5.015
 9129TIP3    H127330   7.763   3.911   5.010
 9129TIP3    H227331   7.886   3.857   5.081
 9130TIP3   OH227332   8.239   4.849   3.258
 9130TIP3    H127333   8.201   4.799   3.186
 9130TIP3    H227334   8.168   4.858   3.321
 9131TIP3   OH227335   1.420   0.658   4.855
 9131TIP3    H127336   1.481   0.652   4.928
 9131TIP3    H227337   1.433   0.577   4.806
 9132TIP3   OH227338   3.532   1.445   6.496
 9132TIP3    H127339   3.509   1.514   6.558
 9132TIP3    H227340   3.537   1.366   6.550
 9133TIP3   OH227341   4.096   0.895   5.386
 9133TIP3    H127342   4.074   0.903   5.479
 9133TIP3    H227343   4.025   0.941   5.341
 9134TIP3   OH227344   7.200   5.117   4.831
 9134TIP3    H127345   7.238   5.085   4.913
 9134TIP3    H227346   7.276   5.137   4.776
 9135TIP3   OH227347   3.941   4.198   5.762
 9135TIP3    H127348   3.985   4.160   5.837
 9135TIP3    H227349   4.002   4.264   5.728
 9136TIP3   OH227350   0.039   7.423   4.624
 9136TIP3    H127351  -0.024   7.486   4.660
 9136TIP3    H227352   0.122   7.447   4.665
 9137TIP3   OH227353   6.443   3.763   2.936
 9137TIP3    H127354   6.463   3.670   2.937
 9137TIP3    H227355   6.393   3.778   3.016
 9138TIP3   OH227356   1.887   4.496   5.165
 9138TIP3    H127357   1.922   4.582   5.142
 9138TIP3    H227358   1.886   4.496   5.261
 9139TIP3   OH227359   1.339   6.600   4.921
 9139TIP3    H127360   1.399   6.556   4.982
 9139TIP3    H227361   1.264   6.624   4.975
 9140TIP3   OH227362   0.085   7.033   3.486
 9140TIP3    H127363   0.058   7.051   3.575
 9140TIP3    H227364   0.054   6.944   3.468
 9141TIP3   OH227365   7.849   4.054   0.783
 9141TIP3    H127366   7.828   3.983   0.722
 9141TIP3    H227367   7.927   4.095   0.746
 9142TIP3   OH227368   5.639   2.095   2.235
 9142TIP3    H127369   5.613   2.074   2.145
 9142TIP3    H227370   5.722   2.141   2.225
 9143TIP3   OH227371   0.505   2.649   3.364
 9143TIP3    H127372   0.425   2.701   3.368
 9143TIP3    H227373   0.516   2.617   3.454
 9144TIP3   OH227374   1.079   2.628   2.431
 9144TIP3    H127375   1.044   2.686   2.499
 9144TIP3    H227376   1.173   2.627   2.447
 9145TIP3   OH227377   4.461   6.944   2.220
 9145TIP3    H127378   4.385   6.979   2.174
 9145TIP3    H227379   4.433   6.935   2.311
 9146TIP3   OH227380   0.011   1.785   2.352
 9146TIP3    H127381  -0.017   1.694   2.342
 9146TIP3    H227382   0.106   1.782   2.339
 9147TIP3   OH227383   3.203   1.266   4.595
 9147TIP3    H127384   3.118   1.288   4.634
 9147TIP3    H227385   3.207   1.318   4.515
 9148TIP3   OH227386   4.799   2.846   5.774
 9148TIP3    H127387   4.878   2.836   5.720
 9148TIP3    H227388   4.728   2.818   5.716
 9149TIP3   OH227389   4.243   3.613   4.047
 9149TIP3    H127390   4.174   3.590   3.985
 9149TIP3    H227391   4.222   3.703   4.074
 9150TIP3   OH227392   0.627   1.244   4.848
 9150TIP3    H127393   0.595   1.159   4.879
 9150TIP3    H227394   0.715   1.224   4.813
 9151TIP3   OH227395   6.006   4.736   0.587
 9151TIP3    H127396   5.968   4.814   0.546
 9151TIP3    H227397   5.938   4.705   0.646
 9152TIP3   OH227398   0.086   4.534   3.937
 9152TIP3    H127399   0.169   4.579   3.922
 9152TIP3    H227400   0.026   4.602   3.966
 9153TIP3   OH227401   3.942   3.288   0.734
 9153TIP3    H127402   3.948   3.241   0.817
 9153TIP3    H227403   3.889   3.231   0.678
 9154TIP3   OH227404   5.757   5.019   3.160
 9154TIP3    H127405   5.685   5.067   3.120
 9154TIP3    H227406   5.717   4.941   3.197
 9155TIP3   OH227407   0.397   0.581   1.151
 9155TIP3    H127408   0.452   0.549   1.223
 9155TIP3    H227409   0.457   0.633   1.097
 9156TIP3   OH227410   7.064   6.143   2.539
 9156TIP3    H127411   7.086   6.061   2.495
 9156TIP3    H227412   7.081   6.125   2.632
 9157TIP3   OH227413   6.115   5.952   4.717
 9157TIP3    H127414   6.075   5.913   4.795
 9157TIP3    H227415   6.068   5.912   4.643
 9158TIP3   OH227416   6.646   0.955   6.091
 9158TIP3    H127417   6.708   0.942   6.163
 9158TIP3    H227418   6.699   0.946   6.012
 9159TIP3   OH227419   2.152   7.545   6.214
 9159TIP3    H127420   2.228   7.583   6.258
 9159TIP3    H227421   2.130   7.468   6.266
 9160TIP3   OH227422   2.898   2.772   2.930
 9160TIP3    H127423   2.838   2.797   2.860
 9160TIP3    H227424   2.970   2.726   2.885
 9161TIP3   OH227425   5.912   4.297   4.179
 9161TIP3    H127426   5.904   4.283   4.084
 9161TIP3    H227427   5.954   4.217   4.211
 9162TIP3   OH227428   4.476   6.899   5.504
 9162TIP3    H127429   4.569   6.902   5.480
 9162TIP3    H227430   4.438   6.976   5.462
 9163TIP3   OH227431   5.420   2.882   0.089
 9163TIP3    H127432   5.464   2.963   0.062
 9163TIP3    H227433   5.426   2.826   0.012
 9164TIP3   OH227434  -0.028   1.408   3.103
 9164TIP3    H127435   0.036   1.479   3.109
 9164TIP3    H227436  -0.032   1.389   3.009
 9165TIP3   OH227437   7.109   7.538   1.938
 9165TIP3    H127438   7.107   7.443   1.926
 9165TIP3    H227439   7.137   7.550   2.029
 9166TIP3   OH227440   0.862   5.529   1.696
 9166TIP3    H127441   0.851   5.620   1.668
 9166TIP3    H227442   0.903   5.535   1.782
 9167TIP3   OH227443   6.645   5.228   5.494
 9167TIP3    H127444   6.665   5.321   5.490
 9167TIP3    H227445   6.563   5.222   5.542
 9168TIP3   OH227446   2.527   0.636   5.627
 9168TIP3    H127447   2.446   0.607   5.585
 9168TIP3    H227448   2.577   0.556   5.641
 9169TIP3   OH227449   6.356   7.479   4.102
 9169TIP3    H127450   6.269   7.502   4.067
 9169TIP3    H227451   6.371   7.390   4.071
 9170TIP3   OH227452   3.314   0.280   4.483
 9170TIP3    H127453   3.356   0.352   4.529
 9170TIP3    H227454   3.298   0.314   4.395
 9171TIP3   OH227455   3.062   1.424  -0.005
 9171TIP3    H127456   3.142   1.382  -0.036
 9171TIP3    H227457   3.093   1.496   0.050
 9172TIP3   OH227458   3.336   1.689   5.846
 9172TIP3    H127459   3.396   1.654   5.912
 9172TIP3    H227460   3.263   1.725   5.896
 9173TIP3   OH227461   5.966   0.856   1.451
 9173TIP3    H127462   5.993   0.870   1.542
 9173TIP3    H227463   5.885   0.906   1.441
 9174TIP3   OH227464   8.280   0.643   5.227
 9174TIP3    H127465   8.187   0.658   5.215
 9174TIP3    H227466   8.290   0.626   5.321
 9175TIP3   OH227467   3.671   4.217   5.695
 9175TIP3    H127468   3.760   4.188   5.717
 9175TIP3    H227469   3.670   4.309   5.720
 9176TIP3   OH227470   3.714   6.862   6.566
 9176TIP3    H127471   3.780   6.860   6.635
 9176TIP3    H227472   3.664   6.942   6.583
 9177TIP3   OH227473   2.347   7.683   6.335
 9177TIP3    H127474   2.436   7.701   6.302
 9177TIP3    H227475   2.355   7.693   6.430
 9178TIP3   OH227476   6.640   1.964   0.957
 9178TIP3    H127477   6.648   1.982   1.051
 9178TIP3    H227478   6.653   1.869   0.950
 9179TIP3   OH227479   0.231   6.322   4.107
 9179TIP3    H127480   0.274   6.368   4.179
 9179TIP3    H227481   0.212   6.235   4.143
 9180TIP3   OH227482   3.242   2.466   1.459
 9180TIP3    H127483   3.261   2.529   1.528
 9180TIP3    H227484   3.311   2.479   1.395
 9181TIP3   OH227485   7.445   0.552   3.684
 9181TIP3    H127486   7.418   0.591   3.601
 9181TIP3    H227487   7.363   0.521   3.723
 9182TIP3   OH227488   3.271   1.156   5.340
 9182TIP3    H127489   3.213   1.170   5.415
 9182TIP3    H227490   3.212   1.134   5.268
 9183TIP3   OH227491   5.191   5.707   2.345
 9183TIP3    H127492   5.118   5.712   2.408
 9183TIP3    H227493   5.150   5.717   2.260
 9184TIP3   OH227494   0.408   6.804   6.282
 9184TIP3    H127495   0.319   6.838   6.291
 9184TIP3    H227496   0.464   6.867   6.327
 9185TIP3   OH227497   3.668   1.695   3.641
 9185TIP3    H127498   3.602   1.690   3.572
 9185TIP3    H227499   3.661   1.785   3.674
 9186TIP3   OH227500   0.954   7.180   1.771
 9186TIP3    H127501   0.896   7.164   1.845
 9186TIP3    H227502   0.932   7.269   1.742
 9187TIP3   OH227503   7.664   6.402   4.675
 9187TIP3    H127504   7.598   6.338   4.649
 9187TIP3    H227505   7.718   6.356   4.740
 9188TIP3   OH227506   3.242   0.871   6.411
 9188TIP3    H127507   3.207   0.909   6.330
 9188TIP3    H227508   3.186   0.795   6.428
 9189TIP3   OH227509   5.508   1.512   6.582
 9189TIP3    H127510   5.488   1.560   6.663
 9189TIP3    H227511   5.527   1.423   6.611
 9190TIP3   OH227512   3.525   6.189   5.171
 9190TIP3    H127513   3.439   6.159   5.141
 9190TIP3    H227514   3.583   6.178   5.096
 9191TIP3   OH227515   3.791   2.699   6.576
 9191TIP3    H127516   3.846   2.771   6.546
 9191TIP3    H227517   3.803   2.631   6.510
 9192TIP3   OH227518   1.388   4.251   4.038
 9192TIP3    H127519   1.457   4.188   4.060
 9192TIP3    H227520   1.321   4.198   3.995
 9193TIP3   OH227521   5.446   3.886   2.218
 9193TIP3    H127522   5.535   3.878   2.252
 9193TIP3    H227523   5.405   3.802   2.237
 9194TIP3   OH227524   4.992   3.337   0.094
 9194TIP3    H127525   4.993   3.243   0.080
 9194TIP3    H227526   4.940   3.349   0.174
 9195TIP3   OH227527   1.839   1.241   5.032
 9195TIP3    H127528   1.758   1.255   4.984
 9195TIP3    H227529   1.882   1.327   5.032
 9196TIP3   OH227530   3.421   2.955   0.664
 9196TIP3    H127531   3.497   3.010   0.646
 9196TIP3    H227532   3.457   2.873   0.695
 9197TIP3   OH227533   5.864   5.212   3.324
 9197TIP3    H127534   5.840   5.144   3.260
 9197TIP3    H227535   5.785   5.224   3.377
 9198TIP3   OH227536   5.065   0.736   5.198
 9198TIP3    H127537   5.139   0.695   5.152
 9198TIP3    H227538   5.050   0.818   5.151
 9199TIP3   OH227539   1.001   1.331   2.401
 9199TIP3    H127540   0.912   1.358   2.423
 9199TIP3    H227541   1.058   1.383   2.458
 9200TIP3   OH227542   1.051   1.455   6.312
 9200TIP3    H127543   1.118   1.505   6.359
 9200TIP3    H227544   0.978   1.448   6.374
 9201TIP3   OH227545   2.426   6.567   2.518
 9201TIP3    H127546   2.423   6.557   2.422
 9201TIP3    H227547   2.425   6.478   2.551
 9202TIP3   OH227548   0.356   4.950   5.077
 9202TIP3    H127549   0.431   4.952   5.136
 9202TIP3    H227550   0.371   5.023   5.017
 9203TIP3   OH227551   7.748   0.213   5.894
 9203TIP3    H127552   7.825   0.157   5.881
 9203TIP3    H227553   7.757   0.281   5.828
 9204TIP3   OH227554   1.287   6.072   1.517
 9204TIP3    H127555   1.335   6.049   1.596
 9204TIP3    H227556   1.195   6.056   1.538
 9205TIP3   OH227557   3.491   2.241   4.996
 9205TIP3    H127558   3.513   2.312   4.935
 9205TIP3    H227559   3.564   2.179   4.987
 9206TIP3   OH227560   2.781   7.059   5.040
 9206TIP3    H127561   2.785   7.012   5.123
 9206TIP3    H227562   2.868   7.047   5.001
 9207TIP3   OH227563   0.609   3.944   3.055
 9207TIP3    H127564   0.632   4.036   3.068
 9207TIP3    H227565   0.565   3.943   2.970
 9208TIP3   OH227566   0.089   7.234   3.986
 9208TIP3    H127567   0.171   7.186   3.978
 9208TIP3    H227568   0.113   7.314   4.033
 9209TIP3   OH227569   4.862   5.928   6.257
 9209TIP3    H127570   4.846   5.837   6.233
 9209TIP3    H227571   4.855   5.976   6.174
 9210TIP3   OH227572   6.560   4.026   2.427
 9210TIP3    H127573   6.634   4.034   2.488
 9210TIP3    H227574   6.487   4.069   2.472
 9211TIP3   OH227575   0.636   0.881   2.723
 9211TIP3    H127576   0.718   0.911   2.682
 9211TIP3    H227577   0.659   0.868   2.815
 9212TIP3   OH227578   6.030   2.412   2.040
 9212TIP3    H127579   6.061   2.474   1.975
 9212TIP3    H227580   6.100   2.348   2.048
 9213TIP3   OH227581   0.439   7.016   6.422
 9213TIP3    H127582   0.363   7.055   6.465
 9213TIP3    H227583   0.508   7.020   6.488
 9214TIP3   OH227584   5.493   2.088   2.455
 9214TIP3    H127585   5.552   2.156   2.486
 9214TIP3    H227586   5.522   2.068   2.366
 9215TIP3   OH227587   2.636   4.329   6.572
 9215TIP3    H127588   2.610   4.385   6.645
 9215TIP3    H227589   2.728   4.351   6.558
 9216TIP3   OH227590   5.276   2.872   3.116
 9216TIP3    H127591   5.345   2.907   3.172
 9216TIP3    H227592   5.223   2.817   3.174
 9217TIP3   OH227593   3.142   6.670   6.582
 9217TIP3    H127594   3.134   6.716   6.666
 9217TIP3    H227595   3.148   6.740   6.517
 9218TIP3   OH227596   0.886   3.437   1.320
 9218TIP3    H127597   0.891   3.371   1.251
 9218TIP3    H227598   0.920   3.392   1.398
 9219TIP3   OH227599   0.944   5.994   0.420
 9219TIP3    H127600   0.910   6.051   0.489
 9219TIP3    H227601   1.012   5.942   0.463
 9220TIP3   OH227602   2.287   4.013   0.547
 9220TIP3    H127603   2.245   4.093   0.513
 9220TIP3    H227604   2.282   4.022   0.642
 9221TIP3   OH227605   3.381   5.501   6.174
 9221TIP3    H127606   3.366   5.454   6.093
 9221TIP3    H227607   3.389   5.593   6.147
 9222TIP3   OH227608   4.901   0.843   6.182
 9222TIP3    H127609   4.952   0.872   6.106
 9222TIP3    H227610   4.831   0.908   6.189
 9223TIP3   OH227611   0.975   2.984   4.791
 9223TIP3    H127612   0.941   2.928   4.861
 9223TIP3    H227613   0.937   2.949   4.711
 9224TIP3   OH227614   0.982   5.153   3.918
 9224TIP3    H127615   1.078   5.158   3.914
 9224TIP3    H227616   0.951   5.218   3.856
 9225TIP3   OH227617   7.833   3.773   0.995
 9225TIP3    H127618   7.761   3.815   0.948
 9225TIP3    H227619   7.790   3.724   1.065
 9226TIP3   OH227620   2.475   2.347   5.572
 9226TIP3    H127621   2.464   2.290   5.647
 9226TIP3    H227622   2.448   2.434   5.603
 9227TIP3   OH227623   1.080   2.782   1.998
 9227TIP3    H127624   1.043   2.770   2.086
 9227TIP3    H227625   1.039   2.713   1.945
 9228TIP3   OH227626   3.200   4.520   3.176
 9228TIP3    H127627   3.246   4.443   3.210
 9228TIP3    H227628   3.269   4.586   3.165
 9229TIP3   OH227629   7.417   2.603   0.952
 9229TIP3    H127630   7.464   2.559   1.023
 9229TIP3    H227631   7.348   2.541   0.927
 9230TIP3   OH227632   1.907   2.116   5.525
 9230TIP3    H127633   1.831   2.110   5.584
 9230TIP3    H227634   1.875   2.166   5.450
 9231TIP3   OH227635   8.021   4.160   6.320
 9231TIP3    H127636   7.953   4.118   6.267
 9231TIP3    H227637   8.002   4.254   6.314
 9232TIP3   OH227638   0.444   6.362   5.778
 9232TIP3    H127639   0.520   6.406   5.817
 9232TIP3    H227640   0.467   6.269   5.780
 9233TIP3   OH227641   6.471   3.980   1.939
 9233TIP3    H127642   6.379   3.986   1.911
 9233TIP3    H227643   6.467   3.938   2.025
 9234TIP3   OH227644   7.830   6.599   0.614
 9234TIP3    H127645   7.863   6.670   0.559
 9234TIP3    H227646   7.907   6.570   0.663
 9235TIP3   OH227647   6.756   7.211   1.791
 9235TIP3    H127648   6.729   7.273   1.724
 9235TIP3    H227649   6.699   7.135   1.777
 9236TIP3   OH227650   3.632   4.130   6.563
 9236TIP3    H127651   3.724   4.103   6.560
 9236TIP3    H227652   3.627   4.205   6.503
 9237TIP3   OH227653   0.934   6.668   6.286
 9237TIP3    H127654   0.967   6.726   6.217
 9237TIP3    H227655   0.843   6.695   6.299
 9238TIP3   OH227656   3.422   0.986   2.221
 9238TIP3    H127657   3.459   1.033   2.296
 9238TIP3    H227658   3.427   1.047   2.148
 9239TIP3   OH227659   1.243   5.837   0.266
 9239TIP3    H127660   1.261   5.929   0.246
 9239TIP3    H227661   1.200   5.839   0.352
 9240TIP3   OH227662   5.654   1.775   3.364
 9240TIP3    H127663   5.738   1.821   3.361
 9240TIP3    H227664   5.639   1.746   3.275
 9241TIP3   OH227665   1.401   0.839   3.192
 9241TIP3    H127666   1.393   0.829   3.097
 9241TIP3    H227667   1.471   0.778   3.216
 9242TIP3   OH227668   0.786   5.942   3.656
 9242TIP3    H127669   0.838   5.877   3.702
 9242TIP3    H227670   0.748   5.995   3.726
 9243TIP3   OH227671   3.640   0.144   0.767
 9243TIP3    H127672   3.608   0.187   0.846
 9243TIP3    H227673   3.563   0.135   0.711
 9244TIP3   OH227674   2.681   6.841   0.995
 9244TIP3    H127675   2.628   6.874   1.067
 9244TIP3    H227676   2.618   6.801   0.935
 9245TIP3   OH227677   5.902   4.629   6.520
 9245TIP3    H127678   5.828   4.590   6.565
 9245TIP3    H227679   5.929   4.564   6.456
 9246TIP3   OH227680   2.935   5.333   3.142
 9246TIP3    H127681   2.878   5.396   3.184
 9246TIP3    H227682   2.883   5.299   3.069
 9247TIP3   OH227683   0.473   1.833   0.421
 9247TIP3    H127684   0.423   1.764   0.377
 9247TIP3    H227685   0.555   1.790   0.447
 9248TIP3   OH227686   7.838   1.178   6.713
 9248TIP3    H127687   7.768   1.196   6.650
 9248TIP3    H227688   7.890   1.258   6.713
 9249TIP3   OH227689   7.814   0.111   5.184
 9249TIP3    H127690   7.886   0.140   5.129
 9249TIP3    H227691   7.856   0.065   5.257
 9250TIP3   OH227692   4.769   0.534   3.102
 9250TIP3    H127693   4.854   0.571   3.076
 9250TIP3    H227694   4.777   0.518   3.196
 9251TIP3   OH227695   6.676   5.225   5.962
 9251TIP3    H127696   6.742   5.287   5.993
 9251TIP3    H227697   6.632   5.195   6.041
 9252TIP3   OH227698   3.001   4.525   3.488
 9252TIP3    H127699   3.055   4.536   3.566
 9252TIP3    H227700   2.911   4.532   3.521
 9253TIP3   OH227701   5.666   4.553   6.687
 9253TIP3    H127702   5.581   4.522   6.655
 9253TIP3    H227703   5.670   4.645   6.661
 9254TIP3   OH227704   5.745   6.507   3.159
 9254TIP3    H127705   5.751   6.487   3.252
 9254TIP3    H227706   5.700   6.431   3.121
 9255TIP3   OH227707   2.312   7.827   6.666
 9255TIP3    H127708   2.300   7.921   6.684
 9255TIP3    H227709   2.224   7.790   6.674
 9256TIP3   OH227710   4.515   0.765   1.198
 9256TIP3    H127711   4.510   0.853   1.161
 9256TIP3    H227712   4.553   0.777   1.285
 9257TIP3   OH227713   6.563   3.572   1.903
 9257TIP3    H127714   6.620   3.635   1.949
 9257TIP3    H227715   6.518   3.625   1.837
 9258TIP3   OH227716   6.403   4.611   5.713
 9258TIP3    H127717   6.366   4.568   5.789
 9258TIP3    H227718   6.489   4.642   5.742
 9259TIP3   OH227719   0.386   1.432   2.676
 9259TIP3    H127720   0.381   1.491   2.751
 9259TIP3    H227721   0.412   1.347   2.713
 9260TIP3   OH227722   4.332   5.646   4.698
 9260TIP3    H127723   4.286   5.571   4.662
 9260TIP3    H227724   4.364   5.616   4.783
 9261TIP3   OH227725   1.092   4.956   4.636
 9261TIP3    H127726   1.027   4.971   4.568
 9261TIP3    H227727   1.128   5.043   4.655
 9262TIP3   OH227728   3.713   6.111   5.669
 9262TIP3    H127729   3.798   6.151   5.655
 9262TIP3    H227730   3.707   6.043   5.602
 9263TIP3   OH227731   0.743   3.418   2.308
 9263TIP3    H127732   0.724   3.356   2.378
 9263TIP3    H227733   0.669   3.479   2.310
 9264TIP3   OH227734   7.879   6.519   1.490
 9264TIP3    H127735   7.904   6.504   1.399
 9264TIP3    H227736   7.914   6.606   1.511
 9265TIP3   OH227737   2.408   0.915   2.595
 9265TIP3    H127738   2.423   0.866   2.676
 9265TIP3    H227739   2.438   1.004   2.614
 9266TIP3   OH227740   7.613   2.599   0.096
 9266TIP3    H127741   7.561   2.524   0.066
 9266TIP3    H227742   7.697   2.588   0.052
 9267TIP3   OH227743   3.842   3.234   6.305
 9267TIP3    H127744   3.883   3.194   6.382
 9267TIP3    H227745   3.773   3.290   6.341
 9268TIP3   OH227746   3.832   5.191   5.756
 9268TIP3    H127747   3.770   5.204   5.684
 9268TIP3    H227748   3.780   5.152   5.826
 9269TIP3   OH227749   7.551   1.753   5.219
 9269TIP3    H127750   7.497   1.744   5.140
 9269TIP3    H227751   7.632   1.706   5.199
 9270TIP3   OH227752   4.961   2.053   4.377
 9270TIP3    H127753   4.923   2.131   4.335
 9270TIP3    H227754   4.895   1.985   4.365
 9271TIP3   OH227755   7.679   4.816   0.970
 9271TIP3    H127756   7.767   4.800   0.939
 9271TIP3    H227757   7.644   4.884   0.912
 9272TIP3   OH227758   2.340   1.537   2.593
 9272TIP3    H127759   2.384   1.495   2.667
 9272TIP3    H227760   2.307   1.620   2.629
 9273TIP3   OH227761   7.111   1.585   1.246
 9273TIP3    H127762   7.091   1.664   1.196
 9273TIP3    H227763   7.066   1.597   1.329
 9274TIP3   OH227764   7.195   5.155   4.425
 9274TIP3    H127765   7.130   5.202   4.477
 9274TIP3    H227766   7.277   5.202   4.439
 9275TIP3   OH227767   7.783   0.359   5.458
 9275TIP3    H127768   7.863   0.321   5.422
 9275TIP3    H227769   7.746   0.411   5.387
 9276TIP3   OH227770   2.275   2.323   2.443
 9276TIP3    H127771   2.196   2.364   2.477
 9276TIP3    H227772   2.324   2.394   2.402
 9277TIP3   OH227773   1.023   3.755   4.948
 9277TIP3    H127774   1.065   3.767   5.033
 9277TIP3    H227775   1.035   3.662   4.929
 9278TIP3   OH227776   7.360   2.341   4.908
 9278TIP3    H127777   7.413   2.325   4.830
 9278TIP3    H227778   7.280   2.383   4.876
 9279TIP3   OH227779   3.534   3.972   0.357
 9279TIP3    H127780   3.455   3.964   0.303
 9279TIP3    H227781   3.501   3.998   0.443
 9280TIP3   OH227782   7.648   0.063   3.692
 9280TIP3    H127783   7.655   0.085   3.784
 9280TIP3    H227784   7.735   0.030   3.668
 9281TIP3   OH227785   0.657   6.756   4.717
 9281TIP3    H127786   0.625   6.750   4.627
 9281TIP3    H227787   0.681   6.848   4.728
 9282TIP3   OH227788   0.898   3.159   5.693
 9282TIP3    H127789   0.947   3.117   5.763
 9282TIP3    H227790   0.810   3.171   5.730
 9283TIP3   OH227791   6.616   2.140   5.427
 9283TIP3    H127792   6.683   2.133   5.359
 9283TIP3    H227793   6.535   2.154   5.378
 9284TIP3   OH227794   3.278   7.186   2.515
 9284TIP3    H127795   3.188   7.201   2.486
 9284TIP3    H227796   3.269   7.149   2.603
 9285TIP3   OH227797   3.857   4.752   0.216
 9285TIP3    H127798   3.812   4.736   0.133
 9285TIP3    H227799   3.805   4.705   0.281
 9286TIP3   OH227800   0.865   0.107   3.950
 9286TIP3    H127801   0.941   0.050   3.936
 9286TIP3    H227802   0.803   0.053   3.999
 9287TIP3   OH227803   4.934   1.237   3.807
 9287TIP3    H127804   4.845   1.270   3.798
 9287TIP3    H227805   4.958   1.258   3.898
 9288TIP3   OH227806   3.110   4.720   1.165
 9288TIP3    H127807   3.111   4.627   1.186
 9288TIP3    H227808   3.123   4.764   1.250
 9289TIP3   OH227809   1.063   1.330   1.198
 9289TIP3    H127810   1.108   1.247   1.180
 9289TIP3    H227811   0.970   1.308   1.192
 9290TIP3   OH227812   4.019   0.669   5.742
 9290TIP3    H127813   4.045   0.595   5.687
 9290TIP3    H227814   3.996   0.738   5.680
 9291TIP3   OH227815   1.485   3.903   6.718
 9291TIP3    H127816   1.476   3.965   6.645
 9291TIP3    H227817   1.440   3.946   6.791
 9292TIP3   OH227818   7.843   1.651   3.816
 9292TIP3    H127819   7.803   1.652   3.729
 9292TIP3    H227820   7.914   1.715   3.810
 9293TIP3   OH227821   3.716   6.596   5.026
 9293TIP3    H127822   3.660   6.668   4.996
 9293TIP3    H227823   3.660   6.546   5.085
 9294TIP3   OH227824   5.816   2.812   0.695
 9294TIP3    H127825   5.859   2.756   0.631
 9294TIP3    H227826   5.750   2.860   0.644
 9295TIP3   OH227827   2.073   2.036   2.727
 9295TIP3    H127828   2.105   1.948   2.748
 9295TIP3    H227829   1.982   2.022   2.700
 9296TIP3   OH227830   5.032   5.555   1.561
 9296TIP3    H127831   5.119   5.556   1.601
 9296TIP3    H227832   4.994   5.472   1.590
 9297TIP3   OH227833   3.745   5.205   1.271
 9297TIP3    H127834   3.755   5.111   1.252
 9297TIP3    H227835   3.651   5.218   1.279
 9298TIP3   OH227836   6.527   7.271   6.116
 9298TIP3    H127837   6.560   7.272   6.206
 9298TIP3    H227838   6.457   7.337   6.116
 9299TIP3   OH227839   1.977   1.180   5.297
 9299TIP3    H127840   1.929   1.163   5.217
 9299TIP3    H227841   1.971   1.099   5.348
 9300TIP3   OH227842   0.378   5.327   5.020
 9300TIP3    H127843   0.458   5.276   5.011
 9300TIP3    H227844   0.321   5.274   5.076
 9301TIP3   OH227845   7.042   2.788   6.760
 9301TIP3    H127846   7.114   2.725   6.765
 9301TIP3    H227847   7.002   2.771   6.675
 9302TIP3   OH227848   1.380   7.553   1.066
 9302TIP3    H127849   1.456   7.609   1.083
 9302TIP3    H227850   1.407   7.466   1.095
 9303TIP3   OH227851   5.397   0.874   4.751
 9303TIP3    H127852   5.489   0.897   4.740
 9303TIP3    H227853   5.398   0.779   4.762
 9304TIP3   OH227854   4.650   0.720   6.601
 9304TIP3    H127855   4.597   0.766   6.536
 9304TIP3    H227856   4.669   0.635   6.560
 9305TIP3   OH227857   4.422   0.603   6.315
 9305TIP3    H127858   4.487   0.545   6.356
 9305TIP3    H227859   4.444   0.601   6.222
 9306TIP3   OH227860   2.647   5.014   1.792
 9306TIP3    H127861   2.615   5.084   1.735
 9306TIP3    H227862   2.739   5.005   1.767
 9307TIP3   OH227863   6.731   6.268   2.596
 9307TIP3    H127864   6.733   6.363   2.609
 9307TIP3    H227865   6.790   6.253   2.522
 9308TIP3   OH227866   1.527   7.105   3.587
 9308TIP3    H127867   1.613   7.131   3.620
 9308TIP3    H227868   1.502   7.031   3.642
 9309TIP3   OH227869   1.786   1.975   2.764
 9309TIP3    H127870   1.779   2.062   2.723
 9309TIP3    H227871   1.741   1.917   2.703
 9310TIP3   OH227872   6.338   2.038   3.434
 9310TIP3    H127873   6.384   2.109   3.479
 9310TIP3    H227874   6.294   1.990   3.504
 9311TIP3   OH227875   6.194   6.688   5.245
 9311TIP3    H127876   6.185   6.668   5.338
 9311TIP3    H227877   6.128   6.756   5.229
 9312TIP3   OH227878   1.366   2.122   4.633
 9312TIP3    H127879   1.310   2.188   4.675
 9312TIP3    H227880   1.386   2.158   4.547
 9313TIP3   OH227881   0.873   6.249   6.506
 9313TIP3    H127882   0.810   6.205   6.449
 9313TIP3    H227883   0.929   6.298   6.447
 9314TIP3   OH227884   0.297   6.871   5.536
 9314TIP3    H127885   0.228   6.935   5.524
 9314TIP3    H227886   0.258   6.802   5.591
 9315TIP3   OH227887   7.811   1.398   3.914
 9315TIP3    H127888   7.821   1.479   3.865
 9315TIP3    H227889   7.729   1.408   3.961
 9316TIP3   OH227890   3.734   6.829   0.262
 9316TIP3    H127891   3.808   6.882   0.291
 9316TIP3    H227892   3.775   6.757   0.213
 9317TIP3   OH227893   4.347   3.091   4.292
 9317TIP3    H127894   4.413   3.145   4.247
 9317TIP3    H227895   4.321   3.026   4.227
 9318TIP3   OH227896   7.329   3.524   1.390
 9318TIP3    H127897   7.333   3.570   1.474
 9318TIP3    H227898   7.410   3.550   1.345
 9319TIP3   OH227899   6.646   3.320   6.506
 9319TIP3    H127900   6.711   3.374   6.551
 9319TIP3    H227901   6.581   3.301   6.573
 9320TIP3   OH227902   7.706   0.869   2.792
 9320TIP3    H127903   7.744   0.897   2.708
 9320TIP3    H227904   7.752   0.788   2.813
 9321TIP3   OH227905   3.084   1.021   0.419
 9321TIP3    H127906   3.012   0.995   0.476
 9321TIP3    H227907   3.120   0.939   0.386
 9322TIP3   OH227908   3.183   6.783   4.742
 9322TIP3    H127909   3.189   6.691   4.769
 9322TIP3    H227910   3.260   6.797   4.687
 9323TIP3   OH227911   0.350   2.045   4.841
 9323TIP3    H127912   0.297   2.121   4.816
 9323TIP3    H227913   0.440   2.075   4.835
 9324TIP3   OH227914   0.441   1.227   6.522
 9324TIP3    H127915   0.451   1.200   6.613
 9324TIP3    H227916   0.513   1.289   6.506
 9325TIP3   OH227917   7.755   2.663   3.770
 9325TIP3    H127918   7.749   2.629   3.681
 9325TIP3    H227919   7.688   2.732   3.774
 9326TIP3   OH227920   6.859   3.800   4.499
 9326TIP3    H127921   6.930   3.786   4.562
 9326TIP3    H227922   6.850   3.895   4.494
 9327TIP3   OH227923   5.687   0.133   1.675
 9327TIP3    H127924   5.679   0.038   1.683
 9327TIP3    H227925   5.773   0.153   1.710
 9328TIP3   OH227926   4.130   0.294   3.287
 9328TIP3    H127927   4.166   0.378   3.314
 9328TIP3    H227928   4.206   0.243   3.258
 9329TIP3   OH227929   7.799   2.318   4.471
 9329TIP3    H127930   7.868   2.336   4.407
 9329TIP3    H227931   7.803   2.392   4.532
 9330TIP3   OH227932   3.050   0.467   0.062
 9330TIP3    H127933   2.985   0.504   0.003
 9330TIP3    H227934   3.014   0.483   0.150
 9331TIP3   OH227935   4.555   2.302   4.422
 9331TIP3    H127936   4.516   2.218   4.395
 9331TIP3    H227937   4.492   2.368   4.394
 9332TIP3   OH227938   3.165   0.052   4.193
 9332TIP3    H127939   3.199   0.064   4.104
 9332TIP3    H227940   3.242   0.030   4.245
 9333TIP3   OH227941   4.517   5.892   0.201
 9333TIP3    H127942   4.539   5.874   0.110
 9333TIP3    H227943   4.587   5.949   0.232
 9334TIP3   OH227944   2.720   6.597   0.321
 9334TIP3    H127945   2.756   6.595   0.233
 9334TIP3    H227946   2.688   6.508   0.336
 9335TIP3   OH227947   4.212   3.365   4.657
 9335TIP3    H127948   4.216   3.449   4.705
 9335TIP3    H227949   4.171   3.387   4.574
 9336TIP3   OH227950   4.838   4.210   6.085
 9336TIP3    H127951   4.872   4.123   6.107
 9336TIP3    H227952   4.905   4.270   6.118
 9337TIP3   OH227953   6.368   4.701   1.161
 9337TIP3    H127954   6.439   4.752   1.200
 9337TIP3    H227955   6.296   4.764   1.153
 9338TIP3   OH227956   1.266   4.183   4.868
 9338TIP3    H127957   1.317   4.210   4.791
 9338TIP3    H227958   1.204   4.255   4.882
 9339TIP3   OH227959   0.276   4.626   1.709
 9339TIP3    H127960   0.272   4.602   1.801
 9339TIP3    H227961   0.221   4.561   1.665
 9340TIP3   OH227962   7.009   0.568   5.396
 9340TIP3    H127963   7.011   0.512   5.318
 9340TIP3    H227964   7.095   0.610   5.397
 9341TIP3   OH227965   4.579   0.505   4.203
 9341TIP3    H127966   4.669   0.472   4.194
 9341TIP3    H227967   4.585   0.569   4.274
 9342TIP3   OH227968   2.135   4.719   6.786
 9342TIP3    H127969   2.194   4.646   6.804
 9342TIP3    H227970   2.122   4.718   6.691
 9343TIP3   OH227971   2.868   7.094   4.684
 9343TIP3    H127972   2.895   7.046   4.762
 9343TIP3    H227973   2.947   7.142   4.657
 9344TIP3   OH227974   0.987   5.409   0.988
 9344TIP3    H127975   1.021   5.491   1.025
 9344TIP3    H227976   1.028   5.340   1.040
 9345TIP3   OH227977   7.409   1.814   0.127
 9345TIP3    H127978   7.433   1.802   0.035
 9345TIP3    H227979   7.486   1.854   0.167
 9346TIP3   OH227980   4.452   4.046   5.143
 9346TIP3    H127981   4.541   4.074   5.163
 9346TIP3    H227982   4.439   4.073   5.052
 9347TIP3   OH227983   0.472   2.351   3.356
 9347TIP3    H127984   0.386   2.310   3.342
 9347TIP3    H227985   0.466   2.435   3.312
 9348TIP3   OH227986   7.283   7.532   3.675
 9348TIP3    H127987   7.252   7.533   3.584
 9348TIP3    H227988   7.369   7.573   3.671
 9349TIP3   OH227989   1.567   1.750   0.179
 9349TIP3    H127990   1.493   1.739   0.120
 9349TIP3    H227991   1.554   1.683   0.246
 9350TIP3   OH227992   6.388   6.560   2.774
 9350TIP3    H127993   6.315   6.619   2.753
 9350TIP3    H227994   6.452   6.615   2.819
 9351TIP3   OH227995   2.777   7.253   2.526
 9351TIP3    H127996   2.848   7.268   2.588
 9351TIP3    H227997   2.792   7.316   2.456
 9352TIP3   OH227998   3.411   6.166   4.750
 9352TIP3    H127999   3.463   6.118   4.815
 9352TIP3    H228000   3.320   6.151   4.777
 9353TIP3   OH228001   6.279   7.556   0.447
 9353TIP3    H128002   6.265   7.644   0.481
 9353TIP3    H228003   6.213   7.545   0.379
 9354TIP3   OH228004   5.024   4.745   0.567
 9354TIP3    H128005   5.052   4.794   0.490
 9354TIP3    H228006   4.967   4.805   0.615
 9355TIP3   OH228007   6.770   7.560   3.076
 9355TIP3    H128008   6.847   7.510   3.100
 9355TIP3    H228009   6.706   7.542   3.145
 9356TIP3   OH228010   1.931   3.924   3.792
 9356TIP3    H128011   2.017   3.883   3.785
 9356TIP3    H228012   1.876   3.877   3.730
 9357TIP3   OH228013   2.065   4.983   2.125
 9357TIP3    H128014   1.999   4.984   2.055
 9357TIP3    H228015   2.114   4.902   2.111
 9358TIP3   OH228016   7.578   3.696   1.104
 9358TIP3    H128017   7.533   3.612   1.098
 9358TIP3    H228018   7.561   3.738   1.020
 9359TIP3   OH228019   2.940   4.507   6.193
 9359TIP3    H128020   2.893   4.462   6.123
 9359TIP3    H228021   2.890   4.588   6.207
 9360TIP3   OH228022   3.521   2.439   1.916
 9360TIP3    H128023   3.478   2.518   1.947
 9360TIP3    H228024   3.611   2.466   1.897
 9361TIP3   OH228025   4.989   1.684   0.949
 9361TIP3    H128026   4.936   1.717   0.877
 9361TIP3    H228027   5.041   1.613   0.911
 9362TIP3   OH228028   5.885   2.286   0.221
 9362TIP3    H128029   5.851   2.204   0.186
 9362TIP3    H228030   5.808   2.335   0.249
 9363TIP3   OH228031   3.604   5.801   6.281
 9363TIP3    H128032   3.634   5.756   6.360
 9363TIP3    H228033   3.522   5.844   6.307
 9364TIP3   OH228034   1.010   4.801   2.019
 9364TIP3    H128035   1.022   4.726   1.960
 9364TIP3    H228036   0.932   4.845   1.987
 9365TIP3   OH228037   6.059   5.565   3.401
 9365TIP3    H128038   6.061   5.495   3.335
 9365TIP3    H228039   6.146   5.603   3.398
 9366TIP3   OH228040   2.896   4.404   1.394
 9366TIP3    H128041   2.950   4.327   1.377
 9366TIP3    H228042   2.883   4.403   1.489
 9367TIP3   OH228043   6.429   3.505   2.942
 9367TIP3    H128044   6.420   3.411   2.931
 9367TIP3    H228045   6.463   3.516   3.031
 9368TIP3   OH228046   3.907   1.681   1.462
 9368TIP3    H128047   3.904   1.764   1.414
 9368TIP3    H228048   3.878   1.615   1.399
 9369TIP3   OH228049   5.491   7.625   0.731
 9369TIP3    H128050   5.511   7.679   0.654
 9369TIP3    H228051   5.424   7.674   0.778
 9370TIP3   OH228052   2.208   4.459   5.106
 9370TIP3    H128053   2.228   4.367   5.090
 9370TIP3    H228054   2.182   4.463   5.198
 9371TIP3   OH228055   1.418   1.421   6.497
 9371TIP3    H128056   1.458   1.391   6.416
 9371TIP3    H228057   1.492   1.440   6.555
 9372TIP3   OH228058   0.125   2.667   5.593
 9372TIP3    H128059   0.046   2.657   5.647
 9372TIP3    H228060   0.137   2.581   5.552
 9373TIP3   OH228061   5.195   0.139   3.431
 9373TIP3    H128062   5.174   0.217   3.483
 9373TIP3    H228063   5.114   0.116   3.387
 9374TIP3   OH228064   0.511   4.457   5.981
 9374TIP3    H128065   0.418   4.433   5.979
 9374TIP3    H228066   0.547   4.422   5.900
 9375TIP3   OH228067   5.907   6.178   2.696
 9375TIP3    H128068   5.942   6.183   2.607
 9375TIP3    H228069   5.823   6.224   2.691
 9376TIP3   OH228070   4.580   6.806   6.553
 9376TIP3    H128071   4.590   6.897   6.579
 9376TIP3    H228072   4.488   6.785   6.572
 9377TIP3   OH228073   4.481   5.904   0.866
 9377TIP3    H128074   4.532   5.831   0.831
 9377TIP3    H228075   4.473   5.885   0.959
 9378TIP3   OH228076   2.344   5.419   3.155
 9378TIP3    H128077   2.389   5.413   3.070
 9378TIP3    H228078   2.255   5.390   3.137
 9379TIP3   OH228079   8.265   5.529   3.745
 9379TIP3    H128080   8.328   5.460   3.767
 9379TIP3    H228081   8.189   5.481   3.712
 9380TIP3   OH228082   3.924   4.732   2.486
 9380TIP3    H128083   4.001   4.691   2.526
 9380TIP3    H228084   3.941   4.826   2.492
 9381TIP3   OH228085   0.320   5.575   6.508
 9381TIP3    H128086   0.247   5.522   6.477
 9381TIP3    H228087   0.279   5.651   6.548
 9382TIP3   OH228088   6.647   4.161   4.912
 9382TIP3    H128089   6.710   4.201   4.972
 9382TIP3    H228090   6.610   4.235   4.864
 9383TIP3   OH228091   1.802   2.209   4.905
 9383TIP3    H128092   1.813   2.267   4.830
 9383TIP3    H228093   1.709   2.216   4.927
 9384TIP3   OH228094   3.944   3.471   4.851
 9384TIP3    H128095   3.990   3.424   4.920
 9384TIP3    H228096   4.001   3.462   4.774
 9385TIP3   OH228097   7.193   0.161   4.449
 9385TIP3    H128098   7.177   0.125   4.537
 9385TIP3    H228099   7.216   0.253   4.465
 9386TIP3   OH228100   6.073   1.043   3.050
 9386TIP3    H128101   6.077   1.108   3.119
 9386TIP3    H228102   6.136   1.072   2.984
 9387TIP3   OH228103   0.540   3.112   4.812
 9387TIP3    H128104   0.457   3.106   4.763
 9387TIP3    H228105   0.549   3.026   4.853
 9388TIP3   OH228106   0.240   5.053   5.691
 9388TIP3    H128107   0.148   5.033   5.711
 9388TIP3    H228108   0.288   4.974   5.718
 9389TIP3   OH228109   2.320   6.509   6.733
 9389TIP3    H128110   2.336   6.587   6.680
 9389TIP3    H228111   2.328   6.436   6.672
 9390TIP3   OH228112   4.122   1.411   3.574
 9390TIP3    H128113   4.114   1.364   3.491
 9390TIP3    H228114   4.032   1.420   3.606
 9391TIP3   OH228115   1.268   3.079   4.485
 9391TIP3    H128116   1.211   3.097   4.410
 9391TIP3    H228117   1.357   3.086   4.449
 9392TIP3   OH228118   4.992   0.284   3.597
 9392TIP3    H128119   4.898   0.284   3.610
 9392TIP3    H228120   5.029   0.299   3.684
 9393TIP3   OH228121   8.063   6.269   6.639
 9393TIP3    H128122   8.034   6.322   6.565
 9393TIP3    H228123   7.983   6.232   6.675
 9394TIP3   OH228124   1.096   2.251   5.327
 9394TIP3    H128125   1.159   2.269   5.397
 9394TIP3    H228126   1.148   2.253   5.246
 9395TIP3   OH228127   7.203   5.291   3.533
 9395TIP3    H128128   7.141   5.348   3.577
 9395TIP3    H228129   7.235   5.343   3.459
 9396TIP3   OH228130   7.051   2.763   1.523
 9396TIP3    H128131   7.103   2.706   1.466
 9396TIP3    H228132   6.985   2.801   1.466
 9397TIP3   OH228133   4.067   7.398   2.233
 9397TIP3    H128134   4.080   7.325   2.293
 9397TIP3    H228135   4.134   7.385   2.165
 9398TIP3   OH228136   3.939   6.350   3.321
 9398TIP3    H128137   3.945   6.254   3.319
 9398TIP3    H228138   3.850   6.369   3.293
 9399TIP3   OH228139   6.029   3.736   6.019
 9399TIP3    H128140   6.062   3.670   6.080
 9399TIP3    H228141   6.005   3.687   5.940
 9400TIP3   OH228142   0.872   7.675   0.489
 9400TIP3    H128143   0.792   7.699   0.536
 9400TIP3    H228144   0.884   7.582   0.507
 9401TIP3   OH228145   4.582   0.168   2.964
 9401TIP3    H128146   4.611   0.142   2.877
 9401TIP3    H228147   4.488   0.149   2.964
 9402TIP3   OH228148   7.776   0.571   4.879
 9402TIP3    H128149   7.684   0.591   4.862
 9402TIP3    H228150   7.782   0.476   4.870
 9403TIP3   OH228151   4.305   3.688   1.990
 9403TIP3    H128152   4.228   3.739   1.965
 9403TIP3    H228153   4.351   3.744   2.054
 9404TIP3   OH228154   5.846   2.717   3.289
 9404TIP3    H128155   5.781   2.745   3.354
 9404TIP3    H228156   5.810   2.635   3.254
 9405TIP3   OH228157   6.646   4.607   3.332
 9405TIP3    H128158   6.722   4.665   3.339
 9405TIP3    H228159   6.674   4.526   3.375
 9406TIP3   OH228160   4.615   4.665   6.683
 9406TIP3    H128161   4.538   4.698   6.636
 9406TIP3    H228162   4.613   4.711   6.767
 9407TIP3   OH228163   3.266   1.873   1.715
 9407TIP3    H128164   3.250   1.948   1.773
 9407TIP3    H228165   3.194   1.877   1.651
 9408TIP3   OH228166   3.734   0.250   1.869
 9408TIP3    H128167   3.697   0.227   1.954
 9408TIP3    H228168   3.809   0.190   1.859
 9409TIP3   OH228169   7.294   3.719   4.214
 9409TIP3    H128170   7.204   3.735   4.240
 9409TIP3    H228171   7.345   3.728   4.295
 9410TIP3   OH228172   2.594   4.945   4.598
 9410TIP3    H128173   2.569   4.855   4.578
 9410TIP3    H228174   2.556   4.997   4.527
 9411TIP3   OH228175   4.535   0.615   6.042
 9411TIP3    H128176   4.477   0.635   5.969
 9411TIP3    H228177   4.623   0.628   6.007
 9412TIP3   OH228178   6.550   0.606   5.048
 9412TIP3    H128179   6.548   0.510   5.049
 9412TIP3    H228180   6.483   0.633   5.110
 9413TIP3   OH228181   0.334   2.243   1.634
 9413TIP3    H128182   0.297   2.193   1.561
 9413TIP3    H228183   0.373   2.176   1.690
 9414TIP3   OH228184   3.964   4.471   2.017
 9414TIP3    H128185   3.947   4.498   1.926
 9414TIP3    H228186   3.951   4.551   2.068
 9415TIP3   OH228187   6.489   5.904   1.356
 9415TIP3    H128188   6.476   5.843   1.429
 9415TIP3    H228189   6.568   5.872   1.312
 9416TIP3   OH228190   1.621   5.254   6.115
 9416TIP3    H128191   1.656   5.332   6.157
 9416TIP3    H228192   1.696   5.195   6.106
 9417TIP3   OH228193   7.299   7.164   2.881
 9417TIP3    H128194   7.290   7.110   2.802
 9417TIP3    H228195   7.267   7.108   2.952
 9418TIP3   OH228196   0.044   6.773   3.512
 9418TIP3    H128197  -0.030   6.757   3.454
 9418TIP3    H228198   0.050   6.694   3.566
 9419TIP3   OH228199   4.934   7.632   5.846
 9419TIP3    H128200   4.892   7.692   5.908
 9419TIP3    H228201   4.879   7.635   5.769
 9420TIP3   OH228202   6.754   3.039   1.407
 9420TIP3    H128203   6.673   3.079   1.374
 9420TIP3    H228204   6.777   2.974   1.341
 9421TIP3   OH228205   6.192   2.696   5.049
 9421TIP3    H128206   6.214   2.607   5.023
 9421TIP3    H228207   6.236   2.752   4.986
 9422TIP3   OH228208   5.830   3.070   0.397
 9422TIP3    H128209   5.885   2.999   0.364
 9422TIP3    H228210   5.841   3.141   0.333
 9423TIP3   OH228211   2.858   4.166   3.236
 9423TIP3    H128212   2.923   4.139   3.172
 9423TIP3    H228213   2.829   4.252   3.206
 9424TIP3   OH228214   0.399   3.327   2.665
 9424TIP3    H128215   0.413   3.284   2.581
 9424TIP3    H228216   0.372   3.416   2.642
 9425TIP3   OH228217   7.687   7.745   2.531
 9425TIP3    H128218   7.662   7.784   2.615
 9425TIP3    H228219   7.604   7.731   2.485
 9426TIP3   OH228220   3.972   0.366   3.994
 9426TIP3    H128221   3.947   0.379   4.085
 9426TIP3    H228222   4.064   0.392   3.991
 9427TIP3   OH228223   0.244   3.307   3.559
 9427TIP3    H128224   0.261   3.256   3.480
 9427TIP3    H228225   0.302   3.270   3.625
 9428TIP3   OH228226   0.531   1.858   3.527
 9428TIP3    H128227   0.509   1.800   3.599
 9428TIP3    H228228   0.451   1.908   3.511
 9429TIP3   OH228229   1.386   3.646   5.674
 9429TIP3    H128230   1.421   3.622   5.759
 9429TIP3    H228231   1.368   3.740   5.681
 9430TIP3   OH228232   0.598   7.540   1.213
 9430TIP3    H128233   0.679   7.517   1.168
 9430TIP3    H228234   0.622   7.611   1.272
 9431TIP3   OH228235   2.230   2.173   2.197
 9431TIP3    H128236   2.254   2.226   2.273
 9431TIP3    H228237   2.308   2.120   2.179
 9432TIP3   OH228238   0.351   1.033   0.178
 9432TIP3    H128239   0.383   1.082   0.253
 9432TIP3    H228240   0.388   1.079   0.102
 9433TIP3   OH228241   3.063   6.839   6.344
 9433TIP3    H128242   2.993   6.774   6.340
 9433TIP3    H228243   3.055   6.889   6.263
 9434TIP3   OH228244   2.755   0.188   1.413
 9434TIP3    H128245   2.776   0.170   1.321
 9434TIP3    H228246   2.773   0.281   1.424
 9435TIP3   OH228247   4.119   4.237   5.355
 9435TIP3    H128248   4.200   4.270   5.394
 9435TIP3    H228249   4.111   4.285   5.273
 9436TIP3   OH228250   1.691   3.751   0.396
 9436TIP3    H128251   1.609   3.712   0.367
 9436TIP3    H228252   1.723   3.799   0.320
 9437TIP3   OH228253   8.055   7.497   1.426
 9437TIP3    H128254   8.112   7.521   1.353
 9437TIP3    H228255   8.011   7.417   1.397
 9438TIP3   OH228256   4.505   0.963   5.336
 9438TIP3    H128257   4.470   0.879   5.367
 9438TIP3    H228258   4.465   1.028   5.393
 9439TIP3   OH228259   4.003   4.546   5.214
 9439TIP3    H128260   4.072   4.501   5.165
 9439TIP3    H228261   3.939   4.478   5.234
 9440TIP3   OH228262   2.865   6.067   0.330
 9440TIP3    H128263   2.932   6.001   0.314
 9440TIP3    H228264   2.908   6.131   0.387
 9441TIP3   OH228265   3.440   7.261   0.760
 9441TIP3    H128266   3.356   7.254   0.715
 9441TIP3    H228267   3.505   7.261   0.690
 9442TIP3   OH228268   1.570   4.125   5.437
 9442TIP3    H128269   1.639   4.189   5.418
 9442TIP3    H228270   1.616   4.041   5.439
 9443TIP3   OH228271   3.131   6.151   4.783
 9443TIP3    H128272   3.142   6.061   4.751
 9443TIP3    H228273   3.048   6.180   4.744
 9444TIP3   OH228274   4.033   0.636   5.222
 9444TIP3    H128275   4.018   0.688   5.301
 9444TIP3    H228276   4.083   0.694   5.165
 9445TIP3   OH228277   2.483   4.246   4.971
 9445TIP3    H128278   2.506   4.330   4.931
 9445TIP3    H228279   2.393   4.229   4.943
 9446TIP3   OH228280   4.058   6.106   6.006
 9446TIP3    H128281   4.110   6.149   5.938
 9446TIP3    H228282   4.047   6.017   5.973
 9447TIP3   OH228283   2.597   0.116   5.776
 9447TIP3    H128284   2.644   0.188   5.735
 9447TIP3    H228285   2.664   0.067   5.824
 9448TIP3   OH228286   4.321   1.372   4.309
 9448TIP3    H128287   4.237   1.326   4.312
 9448TIP3    H228288   4.362   1.354   4.393
 9449TIP3   OH228289   0.071   4.479   1.001
 9449TIP3    H128290   0.105   4.406   0.949
 9449TIP3    H228291   0.128   4.553   0.979
 9450TIP3   OH228292   7.013   1.182   0.402
 9450TIP3    H128293   6.977   1.102   0.440
 9450TIP3    H228294   7.106   1.181   0.427
 9451TIP3   OH228295   2.122   3.257   0.541
 9451TIP3    H128296   2.102   3.163   0.535
 9451TIP3    H228297   2.128   3.285   0.450
 9452TIP3   OH228298   7.969   6.021   2.523
 9452TIP3    H128299   7.980   6.116   2.532
 9452TIP3    H228300   7.998   5.985   2.607
 9453TIP3   OH228301   7.159   2.598   1.308
 9453TIP3    H128302   7.194   2.564   1.391
 9453TIP3    H228303   7.076   2.551   1.296
 9454TIP3   OH228304   5.192   3.104   3.538
 9454TIP3    H128305   5.098   3.120   3.532
 9454TIP3    H228306   5.199   3.024   3.590
 9455TIP3   OH228307   2.203   1.429   1.498
 9455TIP3    H128308   2.179   1.391   1.583
 9455TIP3    H228309   2.119   1.458   1.461
 9456TIP3   OH228310   7.080   4.589   5.640
 9456TIP3    H128311   7.045   4.614   5.726
 9456TIP3    H228312   7.149   4.653   5.623
 9457TIP3   OH228313   5.595   7.027   5.115
 9457TIP3    H128314   5.614   7.118   5.091
 9457TIP3    H228315   5.537   6.995   5.046
 9458TIP3   OH228316   3.805   3.969   4.559
 9458TIP3    H128317   3.814   4.062   4.579
 9458TIP3    H228318   3.718   3.946   4.594
 9459TIP3   OH228319   2.606   7.636   3.073
 9459TIP3    H128320   2.589   7.614   2.981
 9459TIP3    H228321   2.527   7.682   3.101
 9460TIP3   OH228322   7.399   4.383   2.754
 9460TIP3    H128323   7.433   4.442   2.822
 9460TIP3    H228324   7.315   4.421   2.730
 9461TIP3   OH228325   8.194   4.778   2.217
 9461TIP3    H128326   8.104   4.746   2.212
 9461TIP3    H228327   8.225   4.778   2.126
 9462TIP3   OH228328   5.191   3.486   4.759
 9462TIP3    H128329   5.172   3.562   4.704
 9462TIP3    H228330   5.204   3.415   4.696
 9463TIP3   OH228331   5.221   1.715   2.789
 9463TIP3    H128332   5.158   1.717   2.861
 9463TIP3    H228333   5.187   1.779   2.726
 9464TIP3   OH228334   6.693   5.650   1.531
 9464TIP3    H128335   6.737   5.615   1.454
 9464TIP3    H228336   6.759   5.707   1.572
 9465TIP3   OH228337   6.332   0.191   0.870
 9465TIP3    H128338   6.287   0.208   0.953
 9465TIP3    H228339   6.418   0.157   0.896
 9466TIP3   OH228340   5.367   0.820   5.738
 9466TIP3    H128341   5.418   0.747   5.704
 9466TIP3    H228342   5.286   0.819   5.686
 9467TIP3   OH228343   8.030   6.307   2.544
 9467TIP3    H128344   8.083   6.373   2.499
 9467TIP3    H228345   8.080   6.287   2.623
 9468TIP3   OH228346   4.560   7.176   5.690
 9468TIP3    H128347   4.576   7.083   5.674
 9468TIP3    H228348   4.518   7.179   5.776
 9469TIP3   OH228349   1.798   3.217   2.610
 9469TIP3    H128350   1.744   3.213   2.531
 9469TIP3    H228351   1.736   3.218   2.682
 9470TIP3   OH228352   4.483   0.752   2.387
 9470TIP3    H128353   4.437   0.836   2.385
 9470TIP3    H228354   4.456   0.708   2.306
 9471TIP3   OH228355   7.939   0.464   6.609
 9471TIP3    H128356   7.923   0.452   6.702
 9471TIP3    H228357   8.024   0.507   6.604
 9472TIP3   OH228358   3.735   5.949   2.782
 9472TIP3    H128359   3.755   6.005   2.856
 9472TIP3    H228360   3.640   5.956   2.771
 9473TIP3   OH228361   2.926   1.524   6.239
 9473TIP3    H128362   2.848   1.505   6.290
 9473TIP3    H228363   2.953   1.612   6.268
 9474TIP3   OH228364   7.814   6.200   2.265
 9474TIP3    H128365   7.800   6.138   2.194
 9474TIP3    H228366   7.784   6.154   2.344
 9475TIP3   OH228367   0.158   4.051   1.318
 9475TIP3    H128368   0.127   3.977   1.266
 9475TIP3    H228369   0.078   4.091   1.353
 9476TIP3   OH228370   7.482   7.590   6.750
 9476TIP3    H128371   7.491   7.601   6.845
 9476TIP3    H228372   7.536   7.660   6.713
 9477TIP3   OH228373   2.779   2.751   5.003
 9477TIP3    H128374   2.846   2.684   4.988
 9477TIP3    H228375   2.776   2.761   5.098
 9478TIP3   OH228376   2.000   0.136   6.282
 9478TIP3    H128377   1.930   0.201   6.275
 9478TIP3    H228378   1.966   0.071   6.343
 9479TIP3   OH228379   2.956   5.833   4.837
 9479TIP3    H128380   2.945   5.845   4.931
 9479TIP3    H228381   2.877   5.869   4.798
 9480TIP3   OH228382   6.852   4.992   2.753
 9480TIP3    H128383   6.775   4.943   2.781
 9480TIP3    H228384   6.887   5.030   2.833
 9481TIP3   OH228385   0.291   6.637   5.326
 9481TIP3    H128386   0.353   6.705   5.353
 9481TIP3    H228387   0.330   6.599   5.247
 9482TIP3   OH228388   4.998   4.246   3.944
 9482TIP3    H128389   4.998   4.214   3.854
 9482TIP3    H228390   5.082   4.293   3.952
 9483TIP3   OH228391   6.334   7.469   6.168
 9483TIP3    H128392   6.346   7.560   6.194
 9483TIP3    H228393   6.242   7.463   6.143
 9484TIP3   OH228394   0.903   4.139   6.205
 9484TIP3    H128395   0.953   4.111   6.282
 9484TIP3    H228396   0.818   4.096   6.216
 9485TIP3   OH228397   7.278   7.775   1.904
 9485TIP3    H128398   7.219   7.706   1.935
 9485TIP3    H228399   7.306   7.820   1.983
 9486TIP3   OH228400   3.465   3.477   3.904
 9486TIP3    H128401   3.386   3.423   3.905
 9486TIP3    H228402   3.452   3.540   3.974
 9487TIP3   OH228403   7.319   6.774   1.948
 9487TIP3    H128404   7.348   6.804   2.034
 9487TIP3    H228405   7.276   6.850   1.909
 9488TIP3   OH228406   2.954   4.692   3.807
 9488TIP3    H128407   2.873   4.721   3.849
 9488TIP3    H228408   2.988   4.771   3.765
 9489TIP3   OH228409   1.011   2.018   0.479
 9489TIP3    H128410   1.083   2.006   0.542
 9489TIP3    H228411   0.940   2.054   0.532
 9490TIP3   OH228412   0.088   1.329   6.085
 9490TIP3    H128413   0.139   1.381   6.146
 9490TIP3    H228414   0.079   1.244   6.128
 9491TIP3   OH228415   1.868   6.705   3.645
 9491TIP3    H128416   1.890   6.627   3.595
 9491TIP3    H228417   1.779   6.728   3.616
 9492TIP3   OH228418   7.548   5.455   0.496
 9492TIP3    H128419   7.636   5.489   0.484
 9492TIP3    H228420   7.510   5.456   0.408
 9493TIP3   OH228421   2.381   5.929   2.019
 9493TIP3    H128422   2.340   5.981   1.950
 9493TIP3    H228423   2.358   5.975   2.100
 9494TIP3   OH228424   1.051   3.617   0.151
 9494TIP3    H128425   0.958   3.623   0.171
 9494TIP3    H228426   1.075   3.528   0.176
 9495TIP3   OH228427   6.143   7.170   2.938
 9495TIP3    H128428   6.193   7.096   2.971
 9495TIP3    H228429   6.179   7.246   2.984
 9496TIP3   OH228430   0.519   1.668   5.312
 9496TIP3    H128431   0.588   1.630   5.258
 9496TIP3    H228432   0.455   1.598   5.321
 9497TIP3   OH228433   4.875   6.406   1.964
 9497TIP3    H128434   4.935   6.414   2.038
 9497TIP3    H228435   4.795   6.371   2.001
 9498TIP3   OH228436   0.719   1.290   3.871
 9498TIP3    H128437   0.650   1.224   3.870
 9498TIP3    H228438   0.725   1.320   3.780
 9499TIP3   OH228439   2.560   5.745   1.388
 9499TIP3    H128440   2.556   5.746   1.293
 9499TIP3    H228441   2.651   5.764   1.409
 9500TIP3   OH228442   8.204   2.564   2.873
 9500TIP3    H128443   8.120   2.593   2.909
 9500TIP3    H228444   8.212   2.473   2.903
 9501TIP3   OH228445   3.482   6.668   3.172
 9501TIP3    H128446   3.466   6.585   3.216
 9501TIP3    H228447   3.460   6.651   3.081
 9502TIP3   OH228448   5.819   3.001   3.780
 9502TIP3    H128449   5.880   2.990   3.708
 9502TIP3    H228450   5.755   2.930   3.768
 9503TIP3   OH228451   7.074   1.462   0.357
 9503TIP3    H128452   7.156   1.509   0.373
 9503TIP3    H228453   7.072   1.394   0.424
 9504TIP3   OH228454   2.804   7.430   2.306
 9504TIP3    H128455   2.824   7.483   2.229
 9504TIP3    H228456   2.751   7.487   2.362
 9505TIP3   OH228457   4.791   7.120   6.631
 9505TIP3    H128458   4.856   7.184   6.661
 9505TIP3    H228459   4.826   7.089   6.547
 9506TIP3   OH228460   1.327   6.830   0.187
 9506TIP3    H128461   1.377   6.772   0.245
 9506TIP3    H228462   1.355   6.805   0.098
 9507TIP3   OH228463   4.326   6.738   0.695
 9507TIP3    H128464   4.403   6.713   0.747
 9507TIP3    H228465   4.359   6.805   0.635
 9508TIP3   OH228466   5.064   5.430   6.104
 9508TIP3    H128467   5.042   5.463   6.191
 9508TIP3    H228468   5.144   5.379   6.117
 9509TIP3   OH228469   0.565   0.747   4.335
 9509TIP3    H128470   0.604   0.822   4.290
 9509TIP3    H228471   0.511   0.787   4.404
 9510TIP3   OH228472   8.211   5.933   1.375
 9510TIP3    H128473   8.249   5.901   1.457
 9510TIP3    H228474   8.286   5.959   1.322
 9511TIP3   OH228475   7.994   6.979   1.892
 9511TIP3    H128476   8.062   6.976   1.960
 9511TIP3    H228477   7.968   6.888   1.880
 9512TIP3   OH228478   1.718   4.811   5.018
 9512TIP3    H128479   1.789   4.756   4.986
 9512TIP3    H228480   1.719   4.800   5.113
 9513TIP3   OH228481   3.635   7.650   5.037
 9513TIP3    H128482   3.655   7.617   4.949
 9513TIP3    H228483   3.540   7.643   5.043
 9514TIP3   OH228484   3.867   2.128   1.053
 9514TIP3    H128485   3.781   2.093   1.078
 9514TIP3    H228486   3.877   2.102   0.961
 9515TIP3   OH228487   0.827   7.760   1.788
 9515TIP3    H128488   0.748   7.813   1.791
 9515TIP3    H228489   0.861   7.762   1.877
 9516TIP3   OH228490   1.051   1.453   5.753
 9516TIP3    H128491   1.112   1.395   5.708
 9516TIP3    H228492   1.073   1.444   5.846
 9517TIP3   OH228493   5.300   1.749   5.694
 9517TIP3    H128494   5.317   1.842   5.709
 9517TIP3    H228495   5.336   1.732   5.607
 9518TIP3   OH228496   7.500   6.162   5.158
 9518TIP3    H128497   7.570   6.225   5.137
 9518TIP3    H228498   7.443   6.209   5.218
 9519TIP3   OH228499   5.302   0.383   6.153
 9519TIP3    H128500   5.245   0.445   6.198
 9519TIP3    H228501   5.253   0.301   6.153
 9520TIP3   OH228502   0.493   0.081   6.653
 9520TIP3    H128503   0.533   0.127   6.580
 9520TIP3    H228504   0.508  -0.012   6.633
 9521TIP3   OH228505   5.243   6.969   2.881
 9521TIP3    H128506   5.240   7.054   2.924
 9521TIP3    H228507   5.250   6.906   2.953
 9522TIP3   OH228508   0.132   6.741   5.067
 9522TIP3    H128509   0.187   6.663   5.067
 9522TIP3    H228510   0.193   6.814   5.074
 9523TIP3   OH228511   1.346   3.860   1.654
 9523TIP3    H128512   1.365   3.952   1.632
 9523TIP3    H228513   1.430   3.826   1.686
 9524TIP3   OH228514   1.723   5.772   6.080
 9524TIP3    H128515   1.802   5.812   6.045
 9524TIP3    H228516   1.651   5.824   6.043
 9525TIP3   OH228517   4.718   5.422   3.090
 9525TIP3    H128518   4.691   5.471   3.168
 9525TIP3    H228519   4.649   5.358   3.077
 9526TIP3   OH228520   5.159   4.985   2.297
 9526TIP3    H128521   5.077   5.018   2.333
 9526TIP3    H228522   5.225   5.048   2.325
 9527TIP3   OH228523   6.170   4.845   5.991
 9527TIP3    H128524   6.253   4.799   5.990
 9527TIP3    H228525   6.127   4.816   6.071
 9528TIP3   OH228526   4.620   7.217   1.627
 9528TIP3    H128527   4.568   7.173   1.695
 9528TIP3    H228528   4.653   7.296   1.670
 9529TIP3   OH228529   3.902   2.820   3.742
 9529TIP3    H128530   3.947   2.765   3.806
 9529TIP3    H228531   3.899   2.907   3.783
 9530TIP3   OH228532   2.533   2.170   5.092
 9530TIP3    H128533   2.479   2.097   5.061
 9530TIP3    H228534   2.502   2.187   5.181
 9531TIP3   OH228535   0.016   5.997   6.497
 9531TIP3    H128536   0.001   6.087   6.467
 9531TIP3    H228537  -0.064   5.951   6.473
 9532TIP3   OH228538   7.908   0.768   4.274
 9532TIP3    H128539   7.958   0.688   4.259
 9532TIP3    H228540   7.953   0.811   4.347
 9533TIP3   OH228541   5.127   3.889   2.737
 9533TIP3    H128542   5.069   3.815   2.756
 9533TIP3    H228543   5.211   3.848   2.714
 9534TIP3   OH228544   2.854   1.642   3.088
 9534TIP3    H128545   2.857   1.707   3.158
 9534TIP3    H228546   2.900   1.567   3.124
 9535TIP3   OH228547   4.814   3.889   6.579
 9535TIP3    H128548   4.819   3.802   6.539
 9535TIP3    H228549   4.857   3.880   6.663
 9536TIP3   OH228550   8.217   3.746   3.858
 9536TIP3    H128551   8.170   3.706   3.932
 9536TIP3    H228552   8.305   3.708   3.862
 9537TIP3   OH228553   0.311   7.792   1.670
 9537TIP3    H128554   0.240   7.857   1.666
 9537TIP3    H228555   0.267   7.708   1.662
 9538TIP3   OH228556   6.566   1.260   0.206
 9538TIP3    H128557   6.538   1.224   0.122
 9538TIP3    H228558   6.543   1.353   0.202
 9539TIP3   OH228559   5.274   2.621   1.383
 9539TIP3    H128560   5.322   2.541   1.402
 9539TIP3    H228561   5.339   2.680   1.346
 9540TIP3   OH228562   8.112   6.264   1.140
 9540TIP3    H128563   8.018   6.271   1.153
 9540TIP3    H228564   8.147   6.347   1.172
 9541TIP3   OH228565   3.741   7.418   3.889
 9541TIP3    H128566   3.703   7.457   3.968
 9541TIP3    H228567   3.710   7.474   3.818
 9542TIP3   OH228568   7.878   7.191   2.028
 9542TIP3    H128569   7.923   7.202   2.112
 9542TIP3    H228570   7.941   7.142   1.974
 9543TIP3   OH228571   5.316   7.007   3.306
 9543TIP3    H128572   5.338   6.966   3.389
 9543TIP3    H228573   5.385   6.981   3.246
 9544TIP3   OH228574   3.797   6.116   0.921
 9544TIP3    H128575   3.727   6.180   0.937
 9544TIP3    H228576   3.876   6.170   0.910
 9545TIP3   OH228577   7.207   6.398   4.665
 9545TIP3    H128578   7.123   6.446   4.666
 9545TIP3    H228579   7.270   6.461   4.701
 9546TIP3   OH228580   4.376   6.372   1.851
 9546TIP3    H128581   4.376   6.378   1.756
 9546TIP3    H228582   4.284   6.364   1.875
 9547TIP3   OH228583   7.486   6.177   6.366
 9547TIP3    H128584   7.548   6.106   6.383
 9547TIP3    H228585   7.525   6.253   6.411
 9548TIP3   OH228586   0.806   6.594   3.817
 9548TIP3    H128587   0.865   6.523   3.843
 9548TIP3    H228588   0.855   6.674   3.835
 9549TIP3   OH228589   1.049   4.165   5.658
 9549TIP3    H128590   0.977   4.184   5.598
 9549TIP3    H228591   1.022   4.205   5.741
 9550TIP3   OH228592   2.364   3.352   5.832
 9550TIP3    H128593   2.431   3.286   5.815
 9550TIP3    H228594   2.282   3.308   5.808
 9551TIP3   OH228595   1.127   0.200   5.899
 9551TIP3    H128596   1.123   0.216   5.804
 9551TIP3    H228597   1.093   0.111   5.909
 9552TIP3   OH228598   2.056   5.867   5.311
 9552TIP3    H128599   1.979   5.921   5.326
 9552TIP3    H228600   2.120   5.898   5.375
 9553TIP3   OH228601   3.528   1.814   3.200
 9553TIP3    H128602   3.566   1.849   3.120
 9553TIP3    H228603   3.574   1.859   3.271
 9554TIP3   OH228604   3.460   4.276   4.368
 9554TIP3    H128605   3.450   4.195   4.317
 9554TIP3    H228606   3.380   4.281   4.420
 9555TIP3   OH228607   4.889   4.949   0.703
 9555TIP3    H128608   4.802   4.965   0.667
 9555TIP3    H228609   4.917   5.034   0.738
 9556TIP3   OH228610   8.059   2.078   5.747
 9556TIP3    H128611   8.146   2.049   5.774
 9556TIP3    H228612   8.008   2.080   5.828
 9557TIP3   OH228613   1.295   5.163   3.428
 9557TIP3    H128614   1.324   5.118   3.348
 9557TIP3    H228615   1.329   5.108   3.499
 9558TIP3   OH228616   7.549   7.106   6.603
 9558TIP3    H128617   7.506   7.175   6.653
 9558TIP3    H228618   7.565   7.144   6.517
 9559TIP3   OH228619   6.536   5.258   1.831
 9559TIP3    H128620   6.463   5.318   1.815
 9559TIP3    H228621   6.515   5.217   1.915
 9560TIP3   OH228622   7.936   6.431   1.778
 9560TIP3    H128623   7.979   6.436   1.692
 9560TIP3    H228624   7.842   6.427   1.757
 9561TIP3   OH228625   5.700   5.871   1.666
 9561TIP3    H128626   5.696   5.961   1.699
 9561TIP3    H228627   5.762   5.827   1.724
 9562TIP3   OH228628   1.673   4.337   0.024
 9562TIP3    H128629   1.599   4.366   0.077
 9562TIP3    H228630   1.737   4.304   0.087
 9563TIP3   OH228631   7.417   2.701   6.065
 9563TIP3    H128632   7.359   2.689   5.990
 9563TIP3    H228633   7.381   2.643   6.133
 9564TIP3   OH228634   5.874   1.737   0.247
 9564TIP3    H128635   5.873   1.793   0.169
 9564TIP3    H228636   5.782   1.716   0.263
 9565TIP3   OH228637   2.358   4.280   4.402
 9565TIP3    H128638   2.446   4.307   4.428
 9565TIP3    H228639   2.371   4.201   4.349
 9566TIP3   OH228640   6.147   4.920   5.058
 9566TIP3    H128641   6.171   4.898   5.148
 9566TIP3    H228642   6.054   4.944   5.064
 9567TIP3   OH228643   5.644   4.823   2.476
 9567TIP3    H128644   5.573   4.784   2.424
 9567TIP3    H228645   5.712   4.843   2.411
 9568TIP3   OH228646   2.007   0.210   3.866
 9568TIP3    H128647   2.048   0.135   3.908
 9568TIP3    H228648   1.919   0.181   3.844
 9569TIP3   OH228649   6.554   0.955   0.779
 9569TIP3    H128650   6.642   0.991   0.768
 9569TIP3    H228651   6.523   0.994   0.861
 9570TIP3   OH228652   7.044   0.585   3.579
 9570TIP3    H128653   7.056   0.665   3.528
 9570TIP3    H228654   6.962   0.547   3.547
 9571TIP3   OH228655   0.862   5.647   1.313
 9571TIP3    H128656   0.904   5.585   1.372
 9571TIP3    H228657   0.918   5.650   1.236
 9572TIP3   OH228658   1.974   4.675   3.889
 9572TIP3    H128659   2.029   4.620   3.943
 9572TIP3    H228660   1.891   4.681   3.937
 9573TIP3   OH228661   5.532   4.681   3.751
 9573TIP3    H128662   5.617   4.693   3.707
 9573TIP3    H228663   5.505   4.592   3.727
 9574TIP3   OH228664   1.802   6.650   6.429
 9574TIP3    H128665   1.814   6.714   6.499
 9574TIP3    H228666   1.718   6.609   6.448
 9575TIP3   OH228667   1.075   5.886   3.753
 9575TIP3    H128668   1.106   5.961   3.703
 9575TIP3    H228669   1.111   5.899   3.841
 9576TIP3   OH228670   6.073   0.968   2.465
 9576TIP3    H128671   6.117   0.892   2.505
 9576TIP3    H228672   5.980   0.945   2.468
 9577TIP3   OH228673   0.677   5.544   5.849
 9577TIP3    H128674   0.686   5.482   5.777
 9577TIP3    H228675   0.667   5.629   5.807
 9578TIP3   OH228676   5.085   7.352   1.073
 9578TIP3    H128677   5.136   7.280   1.111
 9578TIP3    H228678   5.005   7.356   1.126
 9579TIP3   OH228679   6.334   1.791   2.679
 9579TIP3    H128680   6.240   1.776   2.668
 9579TIP3    H228681   6.363   1.718   2.734
 9580TIP3   OH228682   4.483   3.432   5.300
 9580TIP3    H128683   4.489   3.501   5.234
 9580TIP3    H228684   4.403   3.384   5.278
 9581TIP3   OH228685   0.247   6.693   1.231
 9581TIP3    H128686   0.341   6.677   1.237
 9581TIP3    H228687   0.219   6.641   1.155
 9582TIP3   OH228688   1.662   4.667   1.877
 9582TIP3    H128689   1.709   4.646   1.796
 9582TIP3    H228690   1.655   4.583   1.923
 9583TIP3   OH228691   0.841   6.403   6.737
 9583TIP3    H128692   0.752   6.404   6.771
 9583TIP3    H228693   0.834   6.361   6.651
 9584TIP3   OH228694   4.237   5.023   5.912
 9584TIP3    H128695   4.308   4.965   5.941
 9584TIP3    H228696   4.249   5.029   5.817
 9585TIP3   OH228697   6.368   1.620   3.139
 9585TIP3    H128698   6.282   1.624   3.096
 9585TIP3    H228699   6.387   1.526   3.143
 9586TIP3   OH228700   2.177   1.818   1.244
 9586TIP3    H128701   2.237   1.887   1.215
 9586TIP3    H228702   2.233   1.757   1.292
 9587TIP3   OH228703   5.722   3.403   0.571
 9587TIP3    H128704   5.708   3.493   0.599
 9587TIP3    H228705   5.660   3.390   0.499
 9588TIP3   OH228706   2.170   3.551   4.518
 9588TIP3    H128707   2.172   3.634   4.566
 9588TIP3    H228708   2.233   3.563   4.447
 9589TIP3   OH228709   2.623   3.046   4.511
 9589TIP3    H128710   2.711   3.050   4.547
 9589TIP3    H228711   2.636   3.029   4.418
 9590TIP3   OH228712   1.584   3.159   3.980
 9590TIP3    H128713   1.498   3.121   3.997
 9590TIP3    H228714   1.637   3.133   4.055
 9591TIP3   OH228715   0.676   3.233   4.572
 9591TIP3    H128716   0.758   3.269   4.607
 9591TIP3    H228717   0.645   3.172   4.640
 9592TIP3   OH228718   7.366   6.768   5.352
 9592TIP3    H128719   7.426   6.712   5.402
 9592TIP3    H228720   7.279   6.738   5.376
 9593TIP3   OH228721   3.302   5.753   3.940
 9593TIP3    H128722   3.393   5.732   3.919
 9593TIP3    H228723   3.308   5.822   4.007
 9594TIP3   OH228724   2.085   0.225   5.801
 9594TIP3    H128725   2.146   0.295   5.826
 9594TIP3    H228726   2.085   0.165   5.876
 9595TIP3   OH228727   7.113   6.779   2.998
 9595TIP3    H128728   7.095   6.872   2.993
 9595TIP3    H228729   7.125   6.752   2.906
 9596TIP3   OH228730   5.576   5.864   0.674
 9596TIP3    H128731   5.552   5.956   0.680
 9596TIP3    H228732   5.522   5.820   0.739
 9597TIP3   OH228733   1.377   0.501   4.193
 9597TIP3    H128734   1.426   0.531   4.270
 9597TIP3    H228735   1.423   0.423   4.164
 9598TIP3   OH228736   2.585   0.600   4.602
 9598TIP3    H128737   2.660   0.546   4.628
 9598TIP3    H228738   2.553   0.559   4.521
 9599TIP3   OH228739   4.553   6.074   2.845
 9599TIP3    H128740   4.523   6.064   2.755
 9599TIP3    H228741   4.578   6.166   2.852
 9600TIP3   OH228742   7.520   0.642   4.798
 9600TIP3    H128743   7.475   0.577   4.745
 9600TIP3    H228744   7.459   0.716   4.802
 9601TIP3   OH228745   0.406   2.674   2.672
 9601TIP3    H128746   0.326   2.697   2.720
 9601TIP3    H228747   0.375   2.648   2.585
 9602TIP3   OH228748   2.737   5.785   5.075
 9602TIP3    H128749   2.687   5.711   5.040
 9602TIP3    H228750   2.824   5.749   5.093
 9603TIP3   OH228751   6.663   3.570   6.724
 9603TIP3    H128752   6.595   3.588   6.659
 9603TIP3    H228753   6.745   3.573   6.674
 9604TIP3   OH228754   6.826   6.706   4.997
 9604TIP3    H128755   6.764   6.671   4.934
 9604TIP3    H228756   6.880   6.768   4.947
 9605TIP3   OH228757   8.001   7.805   0.262
 9605TIP3    H128758   7.996   7.791   0.356
 9605TIP3    H228759   8.095   7.810   0.243
 9606TIP3   OH228760   1.007   0.334   0.676
 9606TIP3    H128761   1.038   0.295   0.758
 9606TIP3    H228762   1.039   0.424   0.679
 9607TIP3   OH228763   1.652   4.617   1.082
 9607TIP3    H128764   1.642   4.663   1.165
 9607TIP3    H228765   1.717   4.549   1.100
 9608TIP3   OH228766   8.190   0.589   6.569
 9608TIP3    H128767   8.271   0.632   6.597
 9608TIP3    H228768   8.163   0.638   6.491
 9609TIP3   OH228769   3.955   3.105   3.804
 9609TIP3    H128770   3.980   3.196   3.791
 9609TIP3    H228771   3.904   3.082   3.726
 9610TIP3   OH228772   6.356   1.621   5.394
 9610TIP3    H128773   6.264   1.599   5.381
 9610TIP3    H228774   6.368   1.621   5.489
 9611TIP3   OH228775   0.660   0.065   0.232
 9611TIP3    H128776   0.589   0.009   0.202
 9611TIP3    H228777   0.638   0.086   0.323
 9612TIP3   OH228778   3.823   0.744   4.766
 9612TIP3    H128779   3.777   0.796   4.832
 9612TIP3    H228780   3.876   0.683   4.817
 9613TIP3   OH228781   5.769   5.241   4.962
 9613TIP3    H128782   5.722   5.175   4.912
 9613TIP3    H228783   5.700   5.301   4.992
 9614TIP3   OH228784   1.578   5.041   5.861
 9614TIP3    H128785   1.646   5.103   5.838
 9614TIP3    H228786   1.523   5.035   5.783
 9615TIP3   OH228787   1.466   0.418   4.726
 9615TIP3    H128788   1.417   0.376   4.797
 9615TIP3    H228789   1.518   0.348   4.687
 9616TIP3   OH228790   4.324   0.328   6.481
 9616TIP3    H128791   4.384   0.315   6.408
 9616TIP3    H228792   4.247   0.276   6.459
 9617TIP3   OH228793   6.692   1.441   3.036
 9617TIP3    H128794   6.675   1.350   3.061
 9617TIP3    H228795   6.707   1.486   3.120
 9618TIP3   OH228796   0.510   3.144   2.489
 9618TIP3    H128797   0.445   3.108   2.429
 9618TIP3    H228798   0.541   3.069   2.539
 9619TIP3   OH228799   2.658   2.847   6.064
 9619TIP3    H128800   2.723   2.868   5.997
 9619TIP3    H228801   2.604   2.926   6.071
 9620TIP3   OH228802   6.042   1.506   4.191
 9620TIP3    H128803   6.113   1.497   4.128
 9620TIP3    H228804   6.019   1.416   4.214
 9621TIP3   OH228805   4.609   2.506   0.127
 9621TIP3    H128806   4.683   2.556   0.092
 9621TIP3    H228807   4.632   2.414   0.108
 9622TIP3   OH228808   5.350   3.233   2.087
 9622TIP3    H128809   5.318   3.270   2.170
 9622TIP3    H228810   5.427   3.285   2.066
 9623TIP3   OH228811   2.007   4.615   1.197
 9623TIP3    H128812   2.094   4.619   1.159
 9623TIP3    H228813   2.005   4.686   1.261
 9624TIP3   OH228814   4.677   4.561   3.986
 9624TIP3    H128815   4.646   4.471   3.995
 9624TIP3    H228816   4.600   4.615   4.005
 9625TIP3   OH228817   3.550   5.719   2.855
 9625TIP3    H128818   3.478   5.733   2.916
 9625TIP3    H228819   3.629   5.733   2.907
 9626TIP3   OH228820   6.861   3.805   2.835
 9626TIP3    H128821   6.875   3.882   2.780
 9626TIP3    H228822   6.897   3.830   2.920
 9627TIP3   OH228823   7.515   2.694   5.211
 9627TIP3    H128824   7.539   2.676   5.120
 9627TIP3    H228825   7.577   2.643   5.263
 9628TIP3   OH228826   1.801   4.746   6.188
 9628TIP3    H128827   1.728   4.805   6.171
 9628TIP3    H228828   1.796   4.679   6.119
 9629TIP3   OH228829   7.399   1.633   1.281
 9629TIP3    H128830   7.305   1.621   1.292
 9629TIP3    H228831   7.427   1.679   1.360
 9630TIP3   OH228832   2.356   0.255   1.415
 9630TIP3    H128833   2.318   0.235   1.501
 9630TIP3    H228834   2.421   0.323   1.433
 9631TIP3   OH228835   6.886   2.638   0.132
 9631TIP3    H128836   6.796   2.604   0.137
 9631TIP3    H228837   6.887   2.689   0.051
 9632TIP3   OH228838   5.680   6.087   4.773
 9632TIP3    H128839   5.638   6.001   4.781
 9632TIP3    H228840   5.614   6.142   4.732
 9633TIP3   OH228841   1.933   3.392   3.678
 9633TIP3    H128842   1.906   3.483   3.669
 9633TIP3    H228843   1.946   3.380   3.772
 9634TIP3   OH228844   8.253   0.740   0.052
 9634TIP3    H128845   8.161   0.759   0.068
 9634TIP3    H228846   8.300   0.810   0.098
 9635TIP3   OH228847   0.240   7.512   4.795
 9635TIP3    H128848   0.276   7.458   4.865
 9635TIP3    H228849   0.211   7.592   4.839
 9636TIP3   OH228850   7.982   1.639   5.528
 9636TIP3    H128851   8.019   1.653   5.615
 9636TIP3    H228852   8.004   1.719   5.479
 9637TIP3   OH228853   3.096   3.367   3.126
 9637TIP3    H128854   3.113   3.461   3.119
 9637TIP3    H228855   3.089   3.337   3.036
 9638TIP3   OH228856   2.679   7.105   0.474
 9638TIP3    H128857   2.606   7.167   0.475
 9638TIP3    H228858   2.664   7.048   0.549
 9639TIP3   OH228859   3.955   3.316   4.151
 9639TIP3    H128860   3.937   3.397   4.199
 9639TIP3    H228861   3.912   3.328   4.066
 9640TIP3   OH228862   6.180   3.427   4.732
 9640TIP3    H128863   6.114   3.438   4.664
 9640TIP3    H228864   6.254   3.385   4.688
 9641TIP3   OH228865   3.351   5.920   4.418
 9641TIP3    H128866   3.416   5.850   4.407
 9641TIP3    H228867   3.336   5.924   4.512
 9642TIP3   OH228868   3.713   1.283   5.384
 9642TIP3    H128869   3.694   1.351   5.449
 9642TIP3    H228870   3.629   1.239   5.369
 9643TIP3   OH228871   6.366   5.560   1.010
 9643TIP3    H128872   6.278   5.535   0.979
 9643TIP3    H228873   6.350   5.630   1.073
 9644TIP3   OH228874   2.628   5.099   2.563
 9644TIP3    H128875   2.603   5.108   2.655
 9644TIP3    H228876   2.550   5.067   2.519
 9645TIP3   OH228877   2.768   1.457   0.337
 9645TIP3    H128878   2.747   1.420   0.423
 9645TIP3    H228879   2.686   1.498   0.308
 9646TIP3   OH228880   3.758   6.929   4.190
 9646TIP3    H128881   3.812   6.953   4.266
 9646TIP3    H228882   3.808   6.961   4.115
 9647TIP3   OH228883   7.123   1.383   5.580
 9647TIP3    H128884   7.086   1.320   5.642
 9647TIP3    H228885   7.074   1.464   5.597
 9648TIP3   OH228886   0.710   7.596   5.256
 9648TIP3    H128887   0.639   7.631   5.203
 9648TIP3    H228888   0.694   7.501   5.257
 9649TIP3   OH228889   0.689   3.020   5.488
 9649TIP3    H128890   0.724   3.102   5.522
 9649TIP3    H228891   0.594   3.032   5.488
 9650TIP3   OH228892   1.964   3.046   3.073
 9650TIP3    H128893   2.017   3.123   3.055
 9650TIP3    H228894   1.978   3.028   3.166
 9651TIP3   OH228895   2.029   1.842   6.572
 9651TIP3    H128896   2.051   1.781   6.642
 9651TIP3    H228897   2.057   1.928   6.606
 9652TIP3   OH228898   0.786   2.819   4.272
 9652TIP3    H128899   0.727   2.744   4.264
 9652TIP3    H228900   0.763   2.876   4.198
 9653TIP3   OH228901   4.480   3.964   5.604
 9653TIP3    H128902   4.484   4.053   5.639
 9653TIP3    H228903   4.507   3.908   5.677
 9654TIP3   OH228904   2.336   3.193   5.050
 9654TIP3    H128905   2.426   3.197   5.019
 9654TIP3    H228906   2.338   3.235   5.136
 9655TIP3   OH228907   0.390   6.506   2.706
 9655TIP3    H128908   0.471   6.515   2.656
 9655TIP3    H228909   0.410   6.545   2.791
 9656TIP3   OH228910   2.627   2.810   0.395
 9656TIP3    H128911   2.633   2.890   0.343
 9656TIP3    H228912   2.657   2.741   0.336
 9657TIP3   OH228913   5.937   1.663   0.726
 9657TIP3    H128914   6.017   1.674   0.674
 9657TIP3    H228915   5.956   1.590   0.784
 9658TIP3   OH228916   6.177   1.879   4.472
 9658TIP3    H128917   6.219   1.822   4.408
 9658TIP3    H228918   6.143   1.953   4.421
 9659TIP3   OH228919   1.973   5.657   4.626
 9659TIP3    H128920   1.886   5.649   4.665
 9659TIP3    H228921   1.992   5.751   4.627
 9660TIP3   OH228922   0.432   0.087   1.396
 9660TIP3    H128923   0.477   0.041   1.466
 9660TIP3    H228924   0.406   0.171   1.434
 9661TIP3   OH228925   8.213   4.451   0.280
 9661TIP3    H128926   8.182   4.506   0.351
 9661TIP3    H228927   8.299   4.419   0.309
 9662TIP3   OH228928   6.936   6.422   4.485
 9662TIP3    H128929   6.891   6.350   4.441
 9662TIP3    H228930   6.971   6.475   4.414
 9663TIP3   OH228931   0.565   3.854   5.302
 9663TIP3    H128932   0.514   3.901   5.236
 9663TIP3    H228933   0.622   3.921   5.341
 9664TIP3   OH228934   2.902   1.880   1.359
 9664TIP3    H128935   2.992   1.901   1.386
 9664TIP3    H228936   2.851   1.958   1.382
 9665TIP3   OH228937   2.987   0.413   1.717
 9665TIP3    H128938   2.995   0.482   1.782
 9665TIP3    H228939   3.072   0.410   1.673
 9666TIP3   OH228940   3.698   7.728   5.289
 9666TIP3    H128941   3.678   7.709   5.197
 9666TIP3    H228942   3.730   7.645   5.324
 9667TIP3   OH228943   6.275   2.344   1.499
 9667TIP3    H128944   6.309   2.425   1.535
 9667TIP3    H228945   6.220   2.308   1.568
 9668TIP3   OH228946   7.832   0.995   5.952
 9668TIP3    H128947   7.754   0.941   5.968
 9668TIP3    H228948   7.797   1.075   5.914
 9669TIP3   OH228949   2.809   2.731   5.547
 9669TIP3    H128950   2.889   2.720   5.597
 9669TIP3    H228951   2.741   2.687   5.598
 9670TIP3   OH228952   7.746   3.880   4.000
 9670TIP3    H128953   7.832   3.914   4.027
 9670TIP3    H228954   7.723   3.931   3.923
 9671TIP3   OH228955   5.166   2.605   3.569
 9671TIP3    H128956   5.177   2.523   3.522
 9671TIP3    H228957   5.135   2.579   3.656
 9672TIP3   OH228958   0.052   2.288   1.745
 9672TIP3    H128959   0.043   2.365   1.802
 9672TIP3    H228960   0.146   2.278   1.733
 9673TIP3   OH228961   6.062   1.987   1.325
 9673TIP3    H128962   6.080   1.894   1.319
 9673TIP3    H228963   6.092   2.023   1.242
 9674TIP3   OH228964   4.476   7.078   1.937
 9674TIP3    H128965   4.533   7.154   1.953
 9674TIP3    H228966   4.535   7.011   1.904
 9675TIP3   OH228967   7.574   6.988   4.425
 9675TIP3    H128968   7.558   7.006   4.517
 9675TIP3    H228969   7.487   6.989   4.385
 9676TIP3   OH228970   0.763   1.390   4.273
 9676TIP3    H128971   0.715   1.453   4.219
 9676TIP3    H228972   0.841   1.438   4.302
 9677TIP3   OH228973   0.422   4.646   1.317
 9677TIP3    H128974   0.374   4.585   1.262
 9677TIP3    H228975   0.474   4.590   1.375
 9678TIP3   OH228976   7.390   2.392   5.202
 9678TIP3    H128977   7.369   2.364   5.113
 9678TIP3    H228978   7.484   2.412   5.200
 9679TIP3   OH228979   2.155   1.894   4.016
 9679TIP3    H128980   2.090   1.963   3.999
 9679TIP3    H228981   2.201   1.924   4.094
 9680TIP3   OH228982   4.776   0.038   5.030
 9680TIP3    H128983   4.842   0.070   4.968
 9680TIP3    H228984   4.824   0.030   5.113
 9681TIP3   OH228985   3.257   0.138   5.300
 9681TIP3    H128986   3.330   0.185   5.342
 9681TIP3    H228987   3.202   0.110   5.373
 9682TIP3   OH228988   7.419   0.739   4.071
 9682TIP3    H128989   7.482   0.717   4.140
 9682TIP3    H228990   7.472   0.780   4.002
 9683TIP3   OH228991   0.253   4.935   0.540
 9683TIP3    H128992   0.262   4.992   0.616
 9683TIP3    H228993   0.259   4.846   0.576
 9684TIP3   OH228994   6.906   3.712   5.817
 9684TIP3    H128995   6.988   3.711   5.768
 9684TIP3    H228996   6.850   3.771   5.766
 9685TIP3   OH228997   8.094   5.617   4.720
 9685TIP3    H128998   8.131   5.661   4.644
 9685TIP3    H228999   8.009   5.585   4.691
 9686TIP3   OH229000   7.369   1.613   3.885
 9686TIP3    H129001   7.396   1.663   3.808
 9686TIP3    H229002   7.346   1.679   3.950
 9687TIP3   OH229003   8.007   6.936   4.881
 9687TIP3    H129004   7.919   6.930   4.844
 9687TIP3    H229005   8.023   6.849   4.919
 9688TIP3   OH229006   5.428   7.506   3.696
 9688TIP3    H129007   5.435   7.464   3.610
 9688TIP3    H229008   5.491   7.459   3.751
 9689TIP3   OH229009   4.496   1.879   4.159
 9689TIP3    H129010   4.515   1.786   4.169
 9689TIP3    H229011   4.404   1.882   4.133
 9690TIP3   OH229012   7.998   5.275   5.203
 9690TIP3    H129013   8.079   5.269   5.153
 9690TIP3    H229014   7.940   5.328   5.148
 9691TIP3   OH229015   2.477   1.374   2.782
 9691TIP3    H129016   2.407   1.362   2.846
 9691TIP3    H229017   2.556   1.387   2.834
 9692TIP3   OH229018   5.140   4.089   5.375
 9692TIP3    H129019   5.231   4.069   5.350
 9692TIP3    H229020   5.099   4.004   5.389
 9693TIP3   OH229021   3.733   5.497   2.730
 9693TIP3    H129022   3.643   5.495   2.764
 9693TIP3    H229023   3.787   5.521   2.805
 9694TIP3   OH229024   4.421   4.590   3.673
 9694TIP3    H129025   4.345   4.594   3.614
 9694TIP3    H229026   4.489   4.639   3.627
 9695TIP3   OH229027   4.950   6.651   1.002
 9695TIP3    H129028   5.011   6.722   1.021
 9695TIP3    H229029   4.931   6.660   0.909
 9696TIP3   OH229030   2.910   7.258   5.300
 9696TIP3    H129031   2.970   7.331   5.316
 9696TIP3    H229032   2.904   7.213   5.384
 9697TIP3   OH229033   0.886   1.094   3.583
 9697TIP3    H129034   0.887   1.117   3.490
 9697TIP3    H229035   0.890   0.998   3.583
 9698TIP3   OH229036   3.154   4.211   5.877
 9698TIP3    H129037   3.128   4.302   5.860
 9698TIP3    H229038   3.144   4.167   5.793
 9699TIP3   OH229039   5.057   1.146   2.694
 9699TIP3    H129040   5.114   1.193   2.633
 9699TIP3    H229041   5.117   1.090   2.744
 9700TIP3   OH229042   0.689   5.442   2.462
 9700TIP3    H129043   0.631   5.487   2.400
 9700TIP3    H229044   0.762   5.411   2.408
 9701TIP3   OH229045   5.082   1.465   3.287
 9701TIP3    H129046   5.136   1.389   3.267
 9701TIP3    H229047   5.145   1.531   3.318
 9702TIP3   OH229048   8.218   0.934   6.261
 9702TIP3    H129049   8.272   0.882   6.320
 9702TIP3    H229050   8.189   1.008   6.313
 9703TIP3   OH229051   0.387   6.757   0.519
 9703TIP3    H129052   0.443   6.804   0.581
 9703TIP3    H229053   0.298   6.775   0.549
 9704TIP3   OH229054   4.274   4.077   5.939
 9704TIP3    H129055   4.186   4.109   5.961
 9704TIP3    H229056   4.296   4.017   6.010
 9705TIP3   OH229057   5.929   5.596   3.120
 9705TIP3    H129058   5.910   5.530   3.187
 9705TIP3    H229059   5.914   5.550   3.037
 9706TIP3   OH229060   1.510   5.924   4.016
 9706TIP3    H129061   1.545   6.013   4.020
 9706TIP3    H229062   1.580   5.873   3.975
 9707TIP3   OH229063   5.665   0.063   2.021
 9707TIP3    H129064   5.733   0.042   1.957
 9707TIP3    H229065   5.711   0.061   2.105
 9708TIP3   OH229066   3.297   3.377   1.300
 9708TIP3    H129067   3.372   3.332   1.259
 9708TIP3    H229068   3.250   3.307   1.345
 9709TIP3   OH229069   0.814   2.992   3.997
 9709TIP3    H129070   0.758   3.069   4.012
 9709TIP3    H229071   0.786   2.958   3.912
 9710TIP3   OH229072   3.536   2.381   4.766
 9710TIP3    H129073   3.524   2.292   4.732
 9710TIP3    H229074   3.626   2.405   4.741
 9711TIP3   OH229075   7.071   1.738   3.511
 9711TIP3    H129076   7.113   1.690   3.582
 9711TIP3    H229077   7.119   1.712   3.432
 9712TIP3   OH229078   0.283   0.767   0.090
 9712TIP3    H129079   0.302   0.789  -0.001
 9712TIP3    H229080   0.271   0.851   0.134
 9713TIP3   OH229081   4.378   1.225   1.131
 9713TIP3    H129082   4.294   1.231   1.178
 9713TIP3    H229083   4.444   1.221   1.200
 9714TIP3   OH229084   1.533   2.640   2.563
 9714TIP3    H129085   1.448   2.680   2.545
 9714TIP3    H229086   1.595   2.713   2.557
 9715TIP3   OH229087   3.914   0.976   4.642
 9715TIP3    H129088   4.007   0.953   4.644
 9715TIP3    H229089   3.868   0.893   4.654
 9716TIP3   OH229090   7.456   0.254   0.899
 9716TIP3    H129091   7.511   0.176   0.897
 9716TIP3    H229092   7.498   0.315   0.838
 9717TIP3   OH229093   1.864   6.485   5.041
 9717TIP3    H129094   1.796   6.520   5.098
 9717TIP3    H229095   1.892   6.404   5.084
 9718TIP3   OH229096   0.525   2.043   1.749
 9718TIP3    H129097   0.540   2.026   1.656
 9718TIP3    H229098   0.498   1.959   1.785
 9719TIP3   OH229099   0.465   3.788   0.949
 9719TIP3    H129100   0.462   3.859   1.012
 9719TIP3    H229101   0.377   3.751   0.950
 9720TIP3   OH229102   0.296   2.245   4.020
 9720TIP3    H129103   0.334   2.201   4.096
 9720TIP3    H229104   0.214   2.198   4.003
 9721TIP3   OH229105   3.220   2.167   5.905
 9721TIP3    H129106   3.202   2.259   5.885
 9721TIP3    H229107   3.227   2.164   6.000
 9722TIP3   OH229108   6.845   5.091   4.074
 9722TIP3    H129109   6.823   5.127   3.988
 9722TIP3    H229110   6.814   5.157   4.137
 9723TIP3   OH229111   0.284   5.454   0.373
 9723TIP3    H129112   0.272   5.537   0.419
 9723TIP3    H229113   0.237   5.390   0.426
 9724TIP3   OH229114   2.264   4.625   4.903
 9724TIP3    H129115   2.265   4.551   4.965
 9724TIP3    H229116   2.346   4.616   4.855
 9725TIP3   OH229117   2.193   1.088   1.899
 9725TIP3    H129118   2.282   1.065   1.872
 9725TIP3    H229119   2.138   1.060   1.826
 9726TIP3   OH229120   5.343   5.616   0.996
 9726TIP3    H129121   5.429   5.589   0.963
 9726TIP3    H229122   5.337   5.576   1.083
 9727TIP3   OH229123   2.410   0.668   1.451
 9727TIP3    H129124   2.405   0.583   1.495
 9727TIP3    H229125   2.377   0.731   1.515
 9728TIP3   OH229126   8.045   4.779   3.069
 9728TIP3    H129127   8.124   4.813   3.026
 9728TIP3    H229128   8.014   4.853   3.122
 9729TIP3   OH229129   4.312   2.681   2.687
 9729TIP3    H129130   4.268   2.658   2.604
 9729TIP3    H229131   4.266   2.759   2.717
 9730TIP3   OH229132   1.322   2.370   1.671
 9730TIP3    H129133   1.361   2.456   1.680
 9730TIP3    H229134   1.268   2.359   1.750
 9731TIP3   OH229135   1.717   5.769   5.344
 9731TIP3    H129136   1.653   5.723   5.289
 9731TIP3    H229137   1.787   5.795   5.283
 9732TIP3   OH229138   3.515   3.108   6.248
 9732TIP3    H129139   3.597   3.104   6.198
 9732TIP3    H229140   3.489   3.016   6.258
 9733TIP3   OH229141   4.208   7.424   5.697
 9733TIP3    H129142   4.146   7.477   5.748
 9733TIP3    H229143   4.291   7.432   5.744
 9734TIP3   OH229144   0.892   0.505   0.202
 9734TIP3    H129145   0.829   0.535   0.267
 9734TIP3    H229146   0.843   0.444   0.147
 9735TIP3   OH229147   1.095   0.373   0.342
 9735TIP3    H129148   1.104   0.461   0.305
 9735TIP3    H229149   1.053   0.322   0.272
 9736TIP3   OH229150   7.898   5.854   5.689
 9736TIP3    H129151   7.812   5.813   5.689
 9736TIP3    H229152   7.880   5.948   5.681
 9737TIP3   OH229153   3.943   0.787   3.827
 9737TIP3    H129154   4.025   0.786   3.878
 9737TIP3    H229155   3.949   0.710   3.771
 9738TIP3   OH229156   6.291   1.316   3.912
 9738TIP3    H129157   6.366   1.321   3.852
 9738TIP3    H229158   6.214   1.325   3.855
 9739TIP3   OH229159   5.409   2.176   0.067
 9739TIP3    H129160   5.371   2.180   0.155
 9739TIP3    H229161   5.390   2.262   0.029
 9740TIP3   OH229162   3.396   7.397   0.469
 9740TIP3    H129163   3.325   7.347   0.511
 9740TIP3    H229164   3.448   7.430   0.543
 9741TIP3   OH229165   1.413   6.943   3.930
 9741TIP3    H129166   1.336   7.000   3.936
 9741TIP3    H229167   1.386   6.863   3.975
 9742TIP3   OH229168   7.754   0.203   1.352
 9742TIP3    H129169   7.847   0.186   1.367
 9742TIP3    H229170   7.753   0.282   1.298
 9743TIP3   OH229171   1.916   0.784   3.379
 9743TIP3    H129172   1.850   0.774   3.310
 9743TIP3    H229173   1.924   0.878   3.391
 9744TIP3   OH229174   4.712   0.907   2.993
 9744TIP3    H129175   4.756   0.863   3.066
 9744TIP3    H229176   4.622   0.920   3.025
 9745TIP3   OH229177   0.356   1.630   4.231
 9745TIP3    H129178   0.288   1.576   4.191
 9745TIP3    H229179   0.390   1.576   4.302
 9746TIP3   OH229180   0.855   1.820   4.314
 9746TIP3    H129181   0.762   1.813   4.291
 9746TIP3    H229182   0.889   1.887   4.255
 9747TIP3   OH229183   3.569   5.020   6.736
 9747TIP3    H129184   3.605   4.954   6.795
 9747TIP3    H229185   3.554   4.974   6.654
 9748TIP3   OH229186   0.139   1.065   5.100
 9748TIP3    H129187   0.143   1.148   5.052
 9748TIP3    H229188   0.193   1.080   5.177
 9749TIP3   OH229189   2.403   7.656   3.379
 9749TIP3    H129190   2.445   7.735   3.415
 9749TIP3    H229191   2.406   7.669   3.284
 9750TIP3   OH229192   0.845   2.506   3.181
 9750TIP3    H129193   0.828   2.412   3.173
 9750TIP3    H229194   0.870   2.517   3.273
 9751TIP3   OH229195   7.860   6.771   3.326
 9751TIP3    H129196   7.821   6.763   3.239
 9751TIP3    H229197   7.786   6.792   3.383
 9752TIP3   OH229198   4.193   4.087   4.346
 9752TIP3    H129199   4.113   4.139   4.344
 9752TIP3    H229200   4.177   4.020   4.412
 9753TIP3   OH229201   2.324   7.591   0.191
 9753TIP3    H129202   2.276   7.600   0.108
 9753TIP3    H229203   2.401   7.538   0.168
 9754TIP3   OH229204   2.133   5.208   6.259
 9754TIP3    H129205   2.219   5.233   6.292
 9754TIP3    H229206   2.088   5.170   6.335
 9755TIP3   OH229207   2.457   2.906   6.348
 9755TIP3    H129208   2.435   2.998   6.335
 9755TIP3    H229209   2.405   2.860   6.282
 9756TIP3   OH229210   1.554   3.202   3.193
 9756TIP3    H129211   1.515   3.139   3.253
 9756TIP3    H229212   1.480   3.236   3.143
 9757TIP3   OH229213   6.269   4.598   2.857
 9757TIP3    H129214   6.257   4.527   2.920
 9757TIP3    H229215   6.188   4.598   2.805
 9758TIP3   OH229216   6.299   0.913   5.405
 9758TIP3    H129217   6.354   0.850   5.358
 9758TIP3    H229218   6.339   0.998   5.388
 9759TIP3   OH229219   3.644   4.963   4.452
 9759TIP3    H129220   3.553   4.970   4.481
 9759TIP3    H229221   3.659   4.869   4.443
 9760TIP3   OH229222   7.951   0.353   2.562
 9760TIP3    H129223   7.975   0.366   2.470
 9760TIP3    H229224   8.031   0.317   2.602
 9761TIP3   OH229225   2.746   1.925   0.317
 9761TIP3    H129226   2.803   1.916   0.394
 9761TIP3    H229227   2.674   1.864   0.334
 9762TIP3   OH229228   0.389   7.391   1.695
 9762TIP3    H129229   0.368   7.298   1.701
 9762TIP3    H229230   0.393   7.409   1.601
 9763TIP3   OH229231   2.657   7.762   0.017
 9763TIP3    H129232   2.575   7.720   0.043
 9763TIP3    H229233   2.715   7.689  -0.006
 9764TIP3   OH229234   5.521   0.514   4.463
 9764TIP3    H129235   5.443   0.509   4.519
 9764TIP3    H229236   5.488   0.546   4.379
 9765TIP3   OH229237   0.456   6.686   6.640
 9765TIP3    H129238   0.495   6.638   6.566
 9765TIP3    H229239   0.493   6.774   6.633
 9766TIP3   OH229240   7.024   2.369   1.570
 9766TIP3    H129241   6.999   2.303   1.506
 9766TIP3    H229242   7.012   2.326   1.655
 9767TIP3   OH229243   6.177   3.152   1.763
 9767TIP3    H129244   6.104   3.202   1.798
 9767TIP3    H229245   6.218   3.211   1.699
 9768TIP3   OH229246   3.718   2.086   4.894
 9768TIP3    H129247   3.770   2.039   4.829
 9768TIP3    H229248   3.780   2.106   4.964
 9769TIP3   OH229249   3.473   7.028   1.854
 9769TIP3    H129250   3.521   7.108   1.830
 9769TIP3    H229251   3.388   7.060   1.884
 9770TIP3   OH229252   6.640   2.525   4.932
 9770TIP3    H129253   6.664   2.459   4.997
 9770TIP3    H229254   6.691   2.501   4.854
 9771TIP3   OH229255   3.654   6.149   4.921
 9771TIP3    H129256   3.732   6.202   4.931
 9771TIP3    H229257   3.686   6.058   4.919
 9772TIP3   OH229258   2.819   5.009   6.376
 9772TIP3    H129259   2.737   4.959   6.369
 9772TIP3    H229260   2.793   5.089   6.421
 9773TIP3   OH229261   5.310   1.174   1.506
 9773TIP3    H129262   5.247   1.245   1.495
 9773TIP3    H229263   5.387   1.216   1.544
 9774TIP3   OH229264   3.068   3.390   6.427
 9774TIP3    H129265   3.074   3.303   6.466
 9774TIP3    H229266   3.005   3.380   6.355
 9775TIP3   OH229267   0.713   6.108   1.243
 9775TIP3    H129268   0.712   6.083   1.151
 9775TIP3    H229269   0.804   6.134   1.260
 9776TIP3   OH229270   7.469   7.542   3.243
 9776TIP3    H129271   7.514   7.621   3.271
 9776TIP3    H229272   7.529   7.501   3.181
 9777TIP3   OH229273   8.115   1.042   3.637
 9777TIP3    H129274   8.057   1.059   3.712
 9777TIP3    H229275   8.056   1.021   3.565
 9778TIP3   OH229276   1.293   2.107   3.764
 9778TIP3    H129277   1.206   2.108   3.805
 9778TIP3    H229278   1.347   2.159   3.824
 9779TIP3   OH229279   7.443   0.607   0.184
 9779TIP3    H129280   7.439   0.682   0.125
 9779TIP3    H229281   7.426   0.643   0.271
 9780TIP3   OH229282   3.205   4.739   2.885
 9780TIP3    H129283   3.260   4.735   2.807
 9780TIP3    H229284   3.119   4.766   2.853
 9781TIP3   OH229285   7.578   4.297   3.515
 9781TIP3    H129286   7.487   4.301   3.543
 9781TIP3    H229287   7.606   4.207   3.535
 9782TIP3   OH229288   8.157   6.237   4.865
 9782TIP3    H129289   8.114   6.152   4.853
 9782TIP3    H229290   8.198   6.231   4.951
 9783TIP3   OH229291   5.636   2.836   1.428
 9783TIP3    H129292   5.582   2.812   1.352
 9783TIP3    H229293   5.630   2.931   1.432
 9784TIP3   OH229294   0.265   3.099   2.009
 9784TIP3    H129295   0.240   3.007   1.995
 9784TIP3    H229296   0.189   3.149   1.982
 9785TIP3   OH229297   3.383   3.118   3.397
 9785TIP3    H129298   3.321   3.117   3.324
 9785TIP3    H229299   3.374   3.206   3.435
 9786TIP3   OH229300   1.163   5.737   5.646
 9786TIP3    H129301   1.145   5.729   5.740
 9786TIP3    H229302   1.084   5.778   5.611
 9787TIP3   OH229303   1.659   1.558   0.722
 9787TIP3    H129304   1.648   1.589   0.812
 9787TIP3    H229305   1.579   1.584   0.677
 9788TIP3   OH229306   3.945   5.571   6.452
 9788TIP3    H129307   3.976   5.616   6.374
 9788TIP3    H229308   3.867   5.619   6.479
 9789TIP3   OH229309   0.425   1.628   2.868
 9789TIP3    H129310   0.405   1.633   2.962
 9789TIP3    H229311   0.516   1.598   2.865
 9790TIP3   OH229312   1.420   6.429   4.697
 9790TIP3    H129313   1.346   6.429   4.636
 9790TIP3    H229314   1.424   6.520   4.729
 9791TIP3   OH229315   0.173   0.313   6.120
 9791TIP3    H129316   0.134   0.304   6.033
 9791TIP3    H229317   0.226   0.233   6.131
 9792TIP3   OH229318   4.341   3.442   2.962
 9792TIP3    H129319   4.344   3.360   3.012
 9792TIP3    H229320   4.298   3.504   3.021
 9793TIP3   OH229321   3.124   2.295   1.268
 9793TIP3    H129322   3.134   2.351   1.345
 9793TIP3    H229323   3.126   2.206   1.303
 9794TIP3   OH229324   8.105   0.164   5.120
 9794TIP3    H129325   8.103   0.087   5.176
 9794TIP3    H229326   8.100   0.238   5.180
 9795TIP3   OH229327   8.282   5.119   4.229
 9795TIP3    H129328   8.206   5.177   4.227
 9795TIP3    H229329   8.267   5.063   4.306
 9796TIP3   OH229330   2.952   7.092   1.476
 9796TIP3    H129331   3.028   7.057   1.428
 9796TIP3    H229332   2.950   7.185   1.452
 9797TIP3   OH229333   8.192   6.153   5.129
 9797TIP3    H129334   8.236   6.075   5.163
 9797TIP3    H229335   8.099   6.137   5.148
 9798TIP3   OH229336   0.553   5.084   1.800
 9798TIP3    H129337   0.549   5.150   1.730
 9798TIP3    H229338   0.559   5.000   1.754
 9799TIP3   OH229339   5.001   6.382   1.012
 9799TIP3    H129340   4.971   6.472   1.025
 9799TIP3    H229341   5.017   6.375   0.918
 9800TIP3   OH229342   0.458   3.360   4.472
 9800TIP3    H129343   0.450   3.446   4.513
 9800TIP3    H229344   0.550   3.336   4.485
 9801TIP3   OH229345   6.421   6.071   0.639
 9801TIP3    H129346   6.438   6.087   0.546
 9801TIP3    H229347   6.505   6.042   0.673
 9802TIP3   OH229348   3.141   5.912   4.682
 9802TIP3    H129349   3.081   5.889   4.753
 9802TIP3    H229350   3.138   5.836   4.623
 9803TIP3   OH229351   5.759   2.399   3.166
 9803TIP3    H129352   5.694   2.384   3.097
 9803TIP3    H229353   5.779   2.312   3.200
 9804TIP3   OH229354   6.607   7.598   4.467
 9804TIP3    H129355   6.628   7.582   4.559
 9804TIP3    H229356   6.616   7.693   4.457
 9805TIP3   OH229357   8.313   1.931   6.108
 9805TIP3    H129358   8.291   1.894   6.193
 9805TIP3    H229359   8.335   2.022   6.126
 9806TIP3   OH229360   2.327   0.592   3.091
 9806TIP3    H129361   2.396   0.656   3.104
 9806TIP3    H229362   2.245   0.641   3.102
 9807TIP3   OH229363   4.622   1.904   5.382
 9807TIP3    H129364   4.655   1.914   5.472
 9807TIP3    H229365   4.542   1.956   5.380
 9808TIP3   OH229366   1.280   7.690   2.577
 9808TIP3    H129367   1.316   7.727   2.658
 9808TIP3    H229368   1.296   7.596   2.585
 9809TIP3   OH229369   4.499   2.931   3.304
 9809TIP3    H129370   4.446   2.892   3.372
 9809TIP3    H229371   4.584   2.886   3.310
 9810TIP3   OH229372   0.707   2.002   3.021
 9810TIP3    H129373   0.763   1.951   3.080
 9810TIP3    H229374   0.689   1.943   2.948
 9811TIP3   OH229375   3.737   7.635   3.137
 9811TIP3    H129376   3.782   7.598   3.212
 9811TIP3    H229377   3.806   7.667   3.080
 9812TIP3   OH229378   5.987   5.110   3.604
 9812TIP3    H129379   6.030   5.088   3.687
 9812TIP3    H229380   5.982   5.028   3.557
 9813TIP3   OH229381   7.922   1.803   6.152
 9813TIP3    H129382   7.949   1.718   6.187
 9813TIP3    H229383   7.939   1.798   6.058
 9814TIP3   OH229384   8.144   0.513   1.106
 9814TIP3    H129385   8.168   0.465   1.027
 9814TIP3    H229386   8.224   0.513   1.159
 9815TIP3   OH229387   7.405   7.336   5.080
 9815TIP3    H129388   7.419   7.244   5.057
 9815TIP3    H229389   7.481   7.382   5.042
 9816TIP3   OH229390   2.928   2.158   4.787
 9816TIP3    H129391   2.892   2.165   4.876
 9816TIP3    H229392   2.851   2.139   4.732
 9817TIP3   OH229393   6.417   7.589   3.334
 9817TIP3    H129394   6.474   7.515   3.316
 9817TIP3    H229395   6.374   7.607   3.251
 9818TIP3   OH229396   2.821   1.852   5.107
 9818TIP3    H129397   2.875   1.788   5.152
 9818TIP3    H229398   2.759   1.882   5.173
 9819TIP3   OH229399   4.721   5.878   1.357
 9819TIP3    H129400   4.745   5.970   1.372
 9819TIP3    H229401   4.743   5.834   1.439
 9820TIP3   OH229402   3.913   7.768   2.198
 9820TIP3    H129403   3.956   7.724   2.125
 9820TIP3    H229404   3.904   7.701   2.265
 9821TIP3   OH229405   5.340   2.788   2.452
 9821TIP3    H129406   5.344   2.700   2.413
 9821TIP3    H229407   5.292   2.840   2.388
 9822TIP3   OH229408   6.800   6.183   3.620
 9822TIP3    H129409   6.809   6.114   3.555
 9822TIP3    H229410   6.705   6.199   3.626
 9823TIP3   OH229411   3.614   7.407   0.938
 9823TIP3    H129412   3.570   7.435   1.018
 9823TIP3    H229413   3.542   7.388   0.877
 9824TIP3   OH229414   7.301   3.422   5.915
 9824TIP3    H129415   7.372   3.484   5.932
 9824TIP3    H229416   7.221   3.474   5.926
 9825TIP3   OH229417   5.253   3.690   4.518
 9825TIP3    H129418   5.178   3.749   4.532
 9825TIP3    H229419   5.322   3.726   4.573
 9826TIP3   OH229420   7.668   3.941   1.480
 9826TIP3    H129421   7.653   4.022   1.430
 9826TIP3    H229422   7.657   3.967   1.571
 9827TIP3   OH229423   0.088   0.950   0.211
 9827TIP3    H129424   0.169   0.995   0.188
 9827TIP3    H229425   0.084   0.954   0.307
 9828TIP3   OH229426   1.051   3.098   2.766
 9828TIP3    H129427   1.044   3.138   2.853
 9828TIP3    H229428   0.961   3.096   2.733
 9829TIP3   OH229429   7.347   4.211   5.972
 9829TIP3    H129430   7.286   4.264   5.921
 9829TIP3    H229431   7.293   4.145   6.014
 9830TIP3   OH229432   3.492   6.038   6.067
 9830TIP3    H129433   3.519   6.128   6.087
 9830TIP3    H229434   3.403   6.032   6.101
 9831TIP3   OH229435   4.570   4.613   1.485
 9831TIP3    H129436   4.506   4.651   1.545
 9831TIP3    H229437   4.586   4.525   1.520
 9832TIP3   OH229438   0.445   5.412   4.636
 9832TIP3    H129439   0.373   5.416   4.573
 9832TIP3    H229440   0.459   5.318   4.650
 9833TIP3   OH229441   1.856   7.696   4.344
 9833TIP3    H129442   1.906   7.618   4.319
 9833TIP3    H229443   1.783   7.663   4.396
 9834TIP3   OH229444   1.825   2.489   3.980
 9834TIP3    H129445   1.789   2.546   4.048
 9834TIP3    H229446   1.748   2.459   3.931
 9835TIP3   OH229447   8.189   6.029   3.440
 9835TIP3    H129448   8.277   6.047   3.473
 9835TIP3    H229449   8.181   6.083   3.361
 9836TIP3   OH229450   5.810   0.522   0.840
 9836TIP3    H129451   5.733   0.575   0.864
 9836TIP3    H229452   5.881   0.557   0.895
 9837TIP3   OH229453   0.065   0.592   4.810
 9837TIP3    H129454   0.158   0.574   4.798
 9837TIP3    H229455   0.030   0.515   4.854
 9838TIP3   OH229456   1.803   7.419   3.160
 9838TIP3    H129457   1.765   7.499   3.124
 9838TIP3    H229458   1.889   7.445   3.192
 9839TIP3   OH229459   5.498   4.373   2.037
 9839TIP3    H129460   5.481   4.452   2.089
 9839TIP3    H229461   5.467   4.301   2.092
 9840TIP3   OH229462   2.958   7.652   4.193
 9840TIP3    H129463   3.033   7.683   4.142
 9840TIP3    H229464   2.981   7.671   4.284
 9841TIP3   OH229465   7.381   2.186   1.939
 9841TIP3    H129466   7.422   2.272   1.954
 9841TIP3    H229467   7.450   2.135   1.896
 9842TIP3   OH229468   0.628   4.219   0.938
 9842TIP3    H129469   0.624   4.148   0.874
 9842TIP3    H229470   0.675   4.182   1.013
 9843TIP3   OH229471   6.708   6.490   5.675
 9843TIP3    H129472   6.794   6.510   5.711
 9843TIP3    H229473   6.717   6.402   5.639
 9844TIP3   OH229474   0.281   0.310   2.542
 9844TIP3    H129475   0.255   0.227   2.583
 9844TIP3    H229476   0.322   0.360   2.613
 9845TIP3   OH229477   8.247   5.587   0.009
 9845TIP3    H129478   8.329   5.567   0.054
 9845TIP3    H229479   8.181   5.589   0.078
 9846TIP3   OH229480   3.677   0.721   6.577
 9846TIP3    H129481   3.611   0.712   6.508
 9846TIP3    H229482   3.750   0.666   6.547
 9847TIP3   OH229483   4.883   2.798   6.518
 9847TIP3    H129484   4.879   2.703   6.518
 9847TIP3    H229485   4.881   2.823   6.426
 9848TIP3   OH229486   1.543   0.941   4.302
 9848TIP3    H129487   1.485   0.888   4.357
 9848TIP3    H229488   1.554   0.890   4.222
 9849TIP3   OH229489   5.197   3.871   1.323
 9849TIP3    H129490   5.182   3.959   1.357
 9849TIP3    H229491   5.118   3.851   1.273
 9850TIP3   OH229492   6.928   0.484   5.698
 9850TIP3    H129493   6.879   0.403   5.714
 9850TIP3    H229494   6.862   0.546   5.667
 9851TIP3   OH229495   4.084   2.490   6.561
 9851TIP3    H129496   4.025   2.470   6.488
 9851TIP3    H229497   4.080   2.413   6.617
 9852TIP3   OH229498   2.334   0.774   4.797
 9852TIP3    H129499   2.383   0.852   4.772
 9852TIP3    H229500   2.339   0.772   4.893
 9853TIP3   OH229501   2.902   5.271   1.650
 9853TIP3    H129502   2.995   5.254   1.637
 9853TIP3    H229503   2.859   5.187   1.634
 9854TIP3   OH229504   5.142   5.649   4.548
 9854TIP3    H129505   5.075   5.692   4.601
 9854TIP3    H229506   5.224   5.665   4.594
 9855TIP3   OH229507   2.353   6.073   3.921
 9855TIP3    H129508   2.292   6.032   3.983
 9855TIP3    H229509   2.298   6.095   3.845
 9856TIP3   OH229510   5.240   1.126   1.777
 9856TIP3    H129511   5.260   1.141   1.685
 9856TIP3    H229512   5.212   1.212   1.810
 9857TIP3   OH229513   5.382   1.731   1.794
 9857TIP3    H129514   5.401   1.824   1.804
 9857TIP3    H229515   5.340   1.706   1.877
 9858TIP3   OH229516   4.950   4.731   2.041
 9858TIP3    H129517   4.949   4.818   2.080
 9858TIP3    H229518   5.035   4.695   2.065
 9859TIP3   OH229519   7.274   7.135   0.939
 9859TIP3    H129520   7.329   7.081   0.883
 9859TIP3    H229521   7.218   7.184   0.878
 9860TIP3   OH229522   3.499   4.940   2.803
 9860TIP3    H129523   3.591   4.958   2.820
 9860TIP3    H229524   3.496   4.850   2.773
 9861TIP3   OH229525   4.996   3.902   2.190
 9861TIP3    H129526   4.982   3.831   2.253
 9861TIP3    H229527   4.913   3.951   2.190
 9862TIP3   OH229528   3.358   1.108   4.024
 9862TIP3    H129529   3.428   1.162   3.989
 9862TIP3    H229530   3.292   1.170   4.053
 9863TIP3   OH229531   1.462   2.921   3.630
 9863TIP3    H129532   1.549   2.924   3.670
 9863TIP3    H229533   1.469   2.852   3.564
 9864TIP3   OH229534   1.415   1.016   0.769
 9864TIP3    H129535   1.476   1.090   0.759
 9864TIP3    H229536   1.403   0.983   0.680
 9865TIP3   OH229537   8.085   0.595   1.608
 9865TIP3    H129538   8.092   0.530   1.539
 9865TIP3    H229539   8.132   0.556   1.682
 9866TIP3   OH229540   4.316   1.616   6.345
 9866TIP3    H129541   4.224   1.642   6.337
 9866TIP3    H229542   4.318   1.557   6.420
 9867TIP3   OH229543   8.000   1.621   1.792
 9867TIP3    H129544   8.044   1.542   1.824
 9867TIP3    H229545   8.056   1.693   1.821
 9868TIP3   OH229546   2.662   4.071   2.925
 9868TIP3    H129547   2.742   4.080   2.872
 9868TIP3    H229548   2.688   4.014   2.997
 9869TIP3   OH229549   6.866   7.176   1.029
 9869TIP3    H129550   6.802   7.205   0.964
 9869TIP3    H229551   6.826   7.100   1.070
 9870TIP3   OH229552   7.697   4.443   5.626
 9870TIP3    H129553   7.676   4.452   5.719
 9870TIP3    H229554   7.641   4.507   5.582
 9871TIP3   OH229555   0.165   0.872   4.527
 9871TIP3    H129556   0.234   0.847   4.589
 9871TIP3    H229557   0.088   0.886   4.582
 9872TIP3   OH229558   4.410   5.374   4.442
 9872TIP3    H129559   4.465   5.451   4.425
 9872TIP3    H229560   4.321   5.408   4.445
 9873TIP3   OH229561   7.957   2.152   5.978
 9873TIP3    H129562   7.949   2.203   6.058
 9873TIP3    H229563   7.868   2.144   5.944
 9874TIP3   OH229564   6.401   3.928   4.781
 9874TIP3    H129565   6.410   4.023   4.780
 9874TIP3    H229566   6.416   3.902   4.690
 9875TIP3   OH229567   5.557   0.637   5.702
 9875TIP3    H129568   5.603   0.608   5.623
 9875TIP3    H229569   5.613   0.703   5.740
 9876TIP3   OH229570   5.550   2.959   5.623
 9876TIP3    H129571   5.627   2.971   5.566
 9876TIP3    H229572   5.476   2.962   5.563
 9877TIP3   OH229573   5.491   3.538   0.926
 9877TIP3    H129574   5.468   3.608   0.987
 9877TIP3    H229575   5.425   3.471   0.940
 9878TIP3   OH229576   5.336   0.994   0.147
 9878TIP3    H129577   5.270   0.937   0.187
 9878TIP3    H229578   5.320   1.080   0.187
 9879TIP3   OH229579   3.935   2.219   0.391
 9879TIP3    H129580   3.903   2.300   0.350
 9879TIP3    H229581   3.941   2.240   0.484
 9880TIP3   OH229582   1.903   5.844   1.194
 9880TIP3    H129583   1.977   5.833   1.254
 9880TIP3    H229584   1.910   5.935   1.164
 9881TIP3   OH229585   6.947   3.688   1.509
 9881TIP3    H129586   6.985   3.630   1.443
 9881TIP3    H229587   7.012   3.691   1.578
 9882TIP3   OH229588   1.943   2.891   5.467
 9882TIP3    H129589   1.992   2.808   5.466
 9882TIP3    H229590   1.852   2.864   5.472
 9883TIP3   OH229591   1.215   6.695   2.415
 9883TIP3    H129592   1.119   6.697   2.423
 9883TIP3    H229593   1.232   6.627   2.350
 9884TIP3   OH229594   6.898   6.671   4.354
 9884TIP3    H129595   6.836   6.647   4.423
 9884TIP3    H229596   6.873   6.760   4.329
 9885TIP3   OH229597   4.863   4.396   5.805
 9885TIP3    H129598   4.874   4.468   5.743
 9885TIP3    H229599   4.805   4.432   5.873
 9886TIP3   OH229600   1.262   3.774   2.624
 9886TIP3    H129601   1.250   3.859   2.666
 9886TIP3    H229602   1.249   3.792   2.531
 9887TIP3   OH229603   3.128   0.037   0.402
 9887TIP3    H129604   3.131   0.084   0.319
 9887TIP3    H229605   3.125  -0.055   0.377
 9888TIP3   OH229606   7.247   0.215   6.523
 9888TIP3    H129607   7.155   0.219   6.548
 9888TIP3    H229608   7.247   0.172   6.438
 9889TIP3   OH229609   5.934   0.501   1.510
 9889TIP3    H129610   6.008   0.449   1.541
 9889TIP3    H229611   5.917   0.564   1.580
 9890TIP3   OH229612   2.307   3.712   3.101
 9890TIP3    H129613   2.311   3.621   3.128
 9890TIP3    H229614   2.265   3.710   3.015
 9891TIP3   OH229615   8.060   3.586   3.666
 9891TIP3    H129616   8.125   3.517   3.658
 9891TIP3    H229617   8.107   3.660   3.702
 9892TIP3   OH229618   7.019   6.138   4.947
 9892TIP3    H129619   6.960   6.139   5.021
 9892TIP3    H229620   6.983   6.070   4.889
 9893TIP3   OH229621   5.675   3.855   5.629
 9893TIP3    H129622   5.745   3.811   5.581
 9893TIP3    H229623   5.597   3.803   5.611
 9894TIP3   OH229624   8.067   7.480   4.280
 9894TIP3    H129625   7.989   7.504   4.232
 9894TIP3    H229626   8.092   7.394   4.245
 9895TIP3   OH229627   3.610   0.722   6.010
 9895TIP3    H129628   3.695   0.682   6.027
 9895TIP3    H229629   3.617   0.810   6.047
 9896TIP3   OH229630   1.864  -0.029   5.593
 9896TIP3    H129631   1.957  -0.037   5.613
 9896TIP3    H229632   1.848   0.065   5.590
 9897TIP3   OH229633   4.966   4.155   3.152
 9897TIP3    H129634   5.034   4.144   3.087
 9897TIP3    H229635   4.963   4.250   3.169
 9898TIP3   OH229636   6.680   1.903   2.911
 9898TIP3    H129637   6.617   1.869   2.974
 9898TIP3    H229638   6.678   1.998   2.923
 9899TIP3   OH229639   5.389   5.259   0.935
 9899TIP3    H129640   5.445   5.335   0.916
 9899TIP3    H229641   5.421   5.190   0.878
 9900TIP3   OH229642   6.900   1.823   3.698
 9900TIP3    H129643   6.978   1.844   3.749
 9900TIP3    H229644   6.927   1.833   3.607
 9901TIP3   OH229645   7.368   5.595   6.521
 9901TIP3    H129646   7.408   5.520   6.477
 9901TIP3    H229647   7.274   5.580   6.514
 9902TIP3   OH229648   1.770   5.792   0.670
 9902TIP3    H129649   1.838   5.740   0.711
 9902TIP3    H229650   1.688   5.755   0.702
 9903TIP3   OH229651   3.028   5.046   5.976
 9903TIP3    H129652   2.978   5.060   5.896
 9903TIP3    H229653   2.994   5.111   6.038
 9904TIP3   OH229654   3.208   2.759   5.069
 9904TIP3    H129655   3.258   2.827   5.024
 9904TIP3    H229656   3.272   2.693   5.094
 9905TIP3   OH229657   2.936   7.352   1.380
 9905TIP3    H129658   2.916   7.330   1.289
 9905TIP3    H229659   3.029   7.332   1.390
 9906TIP3   OH229660   7.046   0.327   3.261
 9906TIP3    H129661   7.031   0.233   3.274
 9906TIP3    H229662   7.130   0.332   3.216
 9907TIP3   OH229663   3.719   6.832   3.141
 9907TIP3    H129664   3.758   6.758   3.093
 9907TIP3    H229665   3.628   6.807   3.154
 9908TIP3   OH229666   5.689   4.462   2.360
 9908TIP3    H129667   5.715   4.518   2.287
 9908TIP3    H229668   5.717   4.375   2.334
 9909TIP3   OH229669   3.464   6.730   2.430
 9909TIP3    H129670   3.405   6.802   2.408
 9909TIP3    H229671   3.468   6.677   2.350
 9910TIP3   OH229672   4.951   5.751   5.812
 9910TIP3    H129673   5.025   5.801   5.780
 9910TIP3    H229674   4.942   5.678   5.750
 9911TIP3   OH229675   4.854   2.088   6.203
 9911TIP3    H129676   4.856   2.070   6.109
 9911TIP3    H229677   4.779   2.147   6.215
 9912TIP3   OH229678   7.187   1.655   1.619
 9912TIP3    H129679   7.117   1.604   1.578
 9912TIP3    H229680   7.250   1.591   1.650
 9913TIP3   OH229681   2.605   1.941   6.660
 9913TIP3    H129682   2.555   1.904   6.587
 9913TIP3    H229683   2.580   1.889   6.736
 9914TIP3   OH229684   3.905   2.680   5.212
 9914TIP3    H129685   3.868   2.725   5.136
 9914TIP3    H229686   3.841   2.612   5.232
 9915TIP3   OH229687   6.515   0.233   0.506
 9915TIP3    H129688   6.467   0.264   0.429
 9915TIP3    H229689   6.491   0.295   0.575
 9916TIP3   OH229690   0.807   2.323   5.507
 9916TIP3    H129691   0.730   2.266   5.498
 9916TIP3    H229692   0.872   2.268   5.550
 9917TIP3   OH229693   4.109   7.455   6.501
 9917TIP3    H129694   4.196   7.426   6.471
 9917TIP3    H229695   4.092   7.534   6.450
 9918TIP3   OH229696   0.613   7.653   0.527
 9918TIP3    H129697   0.607   7.629   0.435
 9918TIP3    H229698   0.572   7.579   0.573
 9919TIP3   OH229699   3.086   3.135   6.525
 9919TIP3    H129700   3.080   3.084   6.445
 9919TIP3    H229701   3.180   3.154   6.535
 9920TIP3   OH229702   4.411   1.610   5.927
 9920TIP3    H129703   4.373   1.523   5.942
 9920TIP3    H229704   4.396   1.627   5.834
 9921TIP3   OH229705   5.144   3.407   5.760
 9921TIP3    H129706   5.057   3.385   5.794
 9921TIP3    H229707   5.145   3.370   5.671
 9922TIP3   OH229708   4.954   1.949   5.938
 9922TIP3    H129709   5.044   1.938   5.968
 9922TIP3    H229710   4.962   1.996   5.855
 9923TIP3   OH229711   0.077   6.399   2.262
 9923TIP3    H129712   0.153   6.389   2.320
 9923TIP3    H229713   0.115   6.425   2.178
 9924TIP3   OH229714   6.511   1.346   1.582
 9924TIP3    H129715   6.552   1.302   1.507
 9924TIP3    H229716   6.506   1.278   1.650
 9925TIP3   OH229717   1.135   3.501   4.803
 9925TIP3    H129718   1.120   3.496   4.708
 9925TIP3    H229719   1.164   3.413   4.828
 9926TIP3   OH229720   6.514   6.967   2.205
 9926TIP3    H129721   6.561   7.050   2.216
 9926TIP3    H229722   6.579   6.900   2.228
 9927TIP3   OH229723   4.328   7.283   3.698
 9927TIP3    H129724   4.374   7.349   3.750
 9927TIP3    H229725   4.272   7.335   3.639
 9928TIP3   OH229726   7.482   6.473   6.273
 9928TIP3    H129727   7.557   6.414   6.260
 9928TIP3    H229728   7.480   6.487   6.368
 9929TIP3   OH229729   1.461   6.031   5.081
 9929TIP3    H129730   1.519   6.098   5.117
 9929TIP3    H229731   1.421   6.071   5.005
 9930TIP3   OH229732   1.656   3.118   5.569
 9930TIP3    H129733   1.564   3.140   5.553
 9930TIP3    H229734   1.653   3.034   5.616
 9931TIP3   OH229735   0.255   0.512   4.087
 9931TIP3    H129736   0.244   0.554   4.002
 9931TIP3    H229737   0.219   0.424   4.074
 9932TIP3   OH229738   6.926   3.584   4.833
 9932TIP3    H129739   6.930   3.669   4.877
 9932TIP3    H229740   7.018   3.559   4.822
 9933TIP3   OH229741   3.360   4.143   6.050
 9933TIP3    H129742   3.291   4.156   5.985
 9933TIP3    H229743   3.316   4.102   6.124
 9934TIP3   OH229744   4.651   4.933   0.514
 9934TIP3    H129745   4.633   4.854   0.564
 9934TIP3    H229746   4.678   4.900   0.428
 9935TIP3   OH229747   7.328   5.313   2.318
 9935TIP3    H129748   7.234   5.329   2.312
 9935TIP3    H229749   7.368   5.400   2.315
 9936TIP3   OH229750   3.910   1.522   3.705
 9936TIP3    H129751   3.871   1.512   3.791
 9936TIP3    H229752   3.911   1.617   3.690
 9937TIP3   OH229753   1.027   7.350   6.580
 9937TIP3    H129754   1.054   7.272   6.531
 9937TIP3    H229755   0.947   7.324   6.625
 9938TIP3   OH229756   1.781   7.125   3.753
 9938TIP3    H129757   1.872   7.111   3.729
 9938TIP3    H229758   1.756   7.045   3.800
 9939TIP3   OH229759   1.822   3.078   5.218
 9939TIP3    H129760   1.740   3.082   5.267
 9939TIP3    H229761   1.891   3.080   5.285
 9940TIP3   OH229762   0.998   3.766   0.859
 9940TIP3    H129763   1.075   3.820   0.845
 9940TIP3    H229764   0.924   3.823   0.839
 9941TIP3   OH229765   7.735   5.551   3.039
 9941TIP3    H129766   7.752   5.552   3.133
 9941TIP3    H229767   7.754   5.462   3.012
 9942TIP3   OH229768   0.464   7.219   3.576
 9942TIP3    H129769   0.426   7.306   3.587
 9942TIP3    H229770   0.388   7.161   3.566
 9943TIP3   OH229771   4.084   0.958   0.506
 9943TIP3    H129772   4.166   0.920   0.537
 9943TIP3    H229773   4.096   0.969   0.412
 9944TIP3   OH229774   0.451   3.483   5.285
 9944TIP3    H129775   0.534   3.440   5.261
 9944TIP3    H229776   0.469   3.524   5.369
 9945TIP3   OH229777   4.191   6.918   0.440
 9945TIP3    H129778   4.146   6.834   0.454
 9945TIP3    H229779   4.280   6.894   0.415
 9946TIP3   OH229780   7.019   2.863   1.790
 9946TIP3    H129781   7.093   2.819   1.833
 9946TIP3    H229782   7.021   2.830   1.701
 9947TIP3   OH229783   6.682   3.145   0.017
 9947TIP3    H129784   6.589   3.139  -0.006
 9947TIP3    H229785   6.711   3.054   0.020
 9948TIP3   OH229786   2.742   0.544   3.133
 9948TIP3    H129787   2.802   0.577   3.065
 9948TIP3    H229788   2.703   0.466   3.094
 9949TIP3   OH229789   0.061   7.324   0.230
 9949TIP3    H129790   0.152   7.350   0.218
 9949TIP3    H229791   0.041   7.272   0.152
 9950TIP3   OH229792   3.735   7.581   0.757
 9950TIP3    H129793   3.753   7.495   0.717
 9950TIP3    H229794   3.747   7.643   0.685
 9951TIP3   OH229795   4.396   5.655   5.415
 9951TIP3    H129796   4.401   5.561   5.401
 9951TIP3    H229797   4.426   5.667   5.505
 9952TIP3   OH229798   3.292   2.678   3.551
 9952TIP3    H129799   3.263   2.587   3.564
 9952TIP3    H229800   3.247   2.728   3.618
 9953TIP3   OH229801   5.435   3.597   4.031
 9953TIP3    H129802   5.492   3.649   4.089
 9953TIP3    H229803   5.359   3.653   4.017
 9954TIP3   OH229804   7.206   7.072   1.873
 9954TIP3    H129805   7.245   7.082   1.786
 9954TIP3    H229806   7.136   7.138   1.875
 9955TIP3   OH229807   4.090   2.264   6.695
 9955TIP3    H129808   4.092   2.254   6.790
 9955TIP3    H229809   4.014   2.213   6.667
 9956TIP3   OH229810   3.103   1.316   2.895
 9956TIP3    H129811   3.012   1.308   2.922
 9956TIP3    H229812   3.123   1.409   2.903
 9957TIP3   OH229813   5.971   0.743   2.745
 9957TIP3    H129814   5.911   0.815   2.726
 9957TIP3    H229815   6.014   0.769   2.826
 9958TIP3   OH229816   8.043   0.229   3.954
 9958TIP3    H129817   8.012   0.233   4.044
 9958TIP3    H229818   8.001   0.151   3.918
 9959TIP3   OH229819   4.434   3.842   2.355
 9959TIP3    H129820   4.343   3.869   2.339
 9959TIP3    H229821   4.479   3.859   2.272
 9960TIP3   OH229822   4.292   0.817   5.215
 9960TIP3    H129823   4.228   0.880   5.249
 9960TIP3    H229824   4.328   0.776   5.294
 9961TIP3   OH229825   3.472   6.003   2.779
 9961TIP3    H129826   3.399   5.944   2.760
 9961TIP3    H229827   3.463   6.074   2.715
 9962TIP3   OH229828   5.491   4.658   1.733
 9962TIP3    H129829   5.493   4.641   1.828
 9962TIP3    H229830   5.399   4.669   1.712
 9963TIP3   OH229831   6.826   3.238   2.750
 9963TIP3    H129832   6.890   3.271   2.814
 9963TIP3    H229833   6.833   3.298   2.676
 9964TIP3   OH229834   5.696   0.615   4.003
 9964TIP3    H129835   5.741   0.586   3.924
 9964TIP3    H229836   5.638   0.542   4.025
 9965TIP3   OH229837   6.865   7.785   2.000
 9965TIP3    H129838   6.925   7.760   1.930
 9965TIP3    H229839   6.921   7.809   2.073
 9966TIP3   OH229840   6.606   4.241   1.253
 9966TIP3    H129841   6.533   4.185   1.280
 9966TIP3    H229842   6.574   4.330   1.267
 9967TIP3   OH229843   0.972   6.082   0.067
 9967TIP3    H129844   0.967   6.176   0.082
 9967TIP3    H229845   1.065   6.062   0.066
 9968TIP3   OH229846   2.235   7.718   1.010
 9968TIP3    H129847   2.227   7.634   1.054
 9968TIP3    H229848   2.301   7.704   0.943
 9969TIP3   OH229849   2.180   3.869   5.155
 9969TIP3    H129850   2.103   3.851   5.209
 9969TIP3    H229851   2.231   3.787   5.157
 9970TIP3   OH229852   8.011   0.006   2.829
 9970TIP3    H129853   7.939   0.065   2.848
 9970TIP3    H229854   7.977  -0.081   2.853
 9971TIP3   OH229855   3.143   4.438   1.138
 9971TIP3    H129856   3.100   4.434   1.053
 9971TIP3    H229857   3.105   4.366   1.188
 9972TIP3   OH229858   4.531   7.230   0.707
 9972TIP3    H129859   4.486   7.229   0.623
 9972TIP3    H229860   4.592   7.304   0.700
 9973TIP3   OH229861   6.739   2.519   3.828
 9973TIP3    H129862   6.800   2.448   3.808
 9973TIP3    H229863   6.773   2.558   3.908
 9974TIP3   OH229864   6.733   5.348   6.525
 9974TIP3    H129865   6.751   5.382   6.613
 9974TIP3    H229866   6.640   5.365   6.512
 9975TIP3   OH229867   2.938   2.471   0.020
 9975TIP3    H129868   3.014   2.509  -0.024
 9975TIP3    H229869   2.906   2.404  -0.040
 9976TIP3   OH229870   5.186   3.281   3.810
 9976TIP3    H129871   5.184   3.375   3.827
 9976TIP3    H229872   5.101   3.261   3.771
 9977TIP3   OH229873   5.373   1.731   2.072
 9977TIP3    H129874   5.313   1.804   2.085
 9977TIP3    H229875   5.442   1.746   2.137
 9978TIP3   OH229876   3.289   4.455   4.096
 9978TIP3    H129877   3.233   4.405   4.155
 9978TIP3    H229878   3.277   4.546   4.123
 9979TIP3   OH229879   6.649   5.563   4.343
 9979TIP3    H129880   6.680   5.641   4.390
 9979TIP3    H229881   6.609   5.508   4.410
 9980TIP3   OH229882   5.468   3.268   5.395
 9980TIP3    H129883   5.547   3.229   5.433
 9980TIP3    H229884   5.500   3.328   5.328
 9981TIP3   OH229885   3.261   3.680   1.348
 9981TIP3    H129886   3.282   3.596   1.307
 9981TIP3    H229887   3.339   3.702   1.400
 9982TIP3   OH229888   7.794   4.512   4.488
 9982TIP3    H129889   7.810   4.532   4.396
 9982TIP3    H229890   7.874   4.540   4.533
 9983TIP3   OH229891   7.511   5.371   6.426
 9983TIP3    H129892   7.552   5.286   6.439
 9983TIP3    H229893   7.521   5.389   6.333
 9984TIP3   OH229894   0.503   2.895   5.716
 9984TIP3    H129895   0.433   2.830   5.717
 9984TIP3    H229896   0.581   2.846   5.691
 9985TIP3   OH229897   5.879   6.044   4.972
 9985TIP3    H129898   5.806   6.049   4.911
 9985TIP3    H229899   5.873   5.956   5.009
 9986TIP3   OH229900   6.250   3.830   4.424
 9986TIP3    H129901   6.330   3.880   4.437
 9986TIP3    H229902   6.268   3.776   4.347
 9987TIP3   OH229903   3.903   2.289   0.683
 9987TIP3    H129904   3.808   2.295   0.671
 9987TIP3    H229905   3.915   2.216   0.743
 9988TIP3   OH229906   4.270   2.227   6.263
 9988TIP3    H129907   4.345   2.168   6.259
 9988TIP3    H229908   4.290   2.288   6.334
 9989TIP3   OH229909   2.687   5.885   6.173
 9989TIP3    H129910   2.647   5.828   6.107
 9989TIP3    H229911   2.677   5.973   6.137
 9990TIP3   OH229912   0.811   6.515   4.775
 9990TIP3    H129913   0.816   6.523   4.680
 9990TIP3    H229914   0.720   6.488   4.792
 9991TIP3   OH229915   2.785   3.984   3.633
 9991TIP3    H129916   2.751   4.061   3.677
 9991TIP3    H229917   2.880   3.998   3.630
 9992TIP3   OH229918   4.336   3.076   6.413
 9992TIP3    H129919   4.284   3.049   6.490
 9992TIP3    H229920   4.371   2.994   6.378
 9993TIP3   OH229921   5.399   3.960   5.034
 9993TIP3    H129922   5.309   3.945   5.063
 9993TIP3    H229923   5.390   4.018   4.958
 9994TIP3   OH229924   1.484   6.302   0.398
 9994TIP3    H129925   1.536   6.229   0.432
 9994TIP3    H229926   1.478   6.363   0.471
 9995TIP3   OH229927   3.700   1.919   4.607
 9995TIP3    H129928   3.767   1.893   4.671
 9995TIP3    H229929   3.748   1.927   4.525
 9996TIP3   OH229930   1.645   5.260   1.547
 9996TIP3    H129931   1.739   5.246   1.558
 9996TIP3    H229932   1.607   5.172   1.549
 9997TIP3   OH229933   7.995   2.156   3.702
 9997TIP3    H129934   7.985   2.247   3.675
 9997TIP3    H229935   8.071   2.124   3.652
 9998TIP3   OH229936   1.906   6.819   6.621
 9998TIP3    H129937   1.859   6.903   6.619
 9998TIP3    H229938   1.896   6.788   6.710
 9999TIP3   OH229939   6.517   1.076   4.877
 9999TIP3    H129940   6.564   1.098   4.797
 9999TIP3    H229941   6.469   1.155   4.900
10000TIP3   OH229942   4.302   5.838   5.760
10000TIP3    H129943   4.302   5.815   5.853
10000TIP3    H229944   4.270   5.759   5.715
10001TIP3   OH229945   5.514   3.278   6.788
10001TIP3    H129946   5.429   3.257   6.748
10001TIP3    H229947   5.561   3.194   6.790
10002TIP3   OH229948   7.096   7.671   0.241
10002TIP3    H129949   7.005   7.676   0.213
10002TIP3    H229950   7.145   7.649   0.162
10003TIP3   OH229951   1.810   1.081   1.987
10003TIP3    H129952   1.866   1.112   2.059
10003TIP3    H229953   1.829   0.987   1.982
10004TIP3   OH229954   7.174   4.046   6.102
10004TIP3    H129955   7.131   4.097   6.171
10004TIP3    H229956   7.185   3.959   6.140
10005TIP3   OH229957   7.518   6.828   4.138
10005TIP3    H129958   7.602   6.781   4.144
10005TIP3    H229959   7.503   6.837   4.043
10006TIP3   OH229960   6.876   4.614   1.818
10006TIP3    H129961   6.936   4.562   1.872
10006TIP3    H229962   6.816   4.550   1.781
10007TIP3   OH229963   4.405   2.130   2.384
10007TIP3    H129964   4.344   2.183   2.333
10007TIP3    H229965   4.357   2.107   2.464
10008TIP3   OH229966   2.972   0.094   6.124
10008TIP3    H129967   2.879   0.117   6.121
10008TIP3    H229968   3.015   0.161   6.071
10009TIP3   OH229969   1.140   6.782   1.250
10009TIP3    H129970   1.194   6.703   1.243
10009TIP3    H229971   1.127   6.810   1.159
10010TIP3   OH229972   2.679   4.586   5.788
10010TIP3    H129973   2.584   4.598   5.791
10010TIP3    H229974   2.715   4.672   5.807
10011TIP3   OH229975   1.398   1.423   2.956
10011TIP3    H129976   1.373   1.424   3.048
10011TIP3    H229977   1.394   1.515   2.929
10012TIP3   OH229978   6.428   6.673   5.081
10012TIP3    H129979   6.365   6.686   5.152
10012TIP3    H229980   6.480   6.598   5.109
10013TIP3   OH229981   7.739   2.523   2.955
10013TIP3    H129982   7.746   2.597   3.016
10013TIP3    H229983   7.710   2.563   2.873
10014TIP3   OH229984   5.558   1.523   3.895
10014TIP3    H129985   5.502   1.469   3.951
10014TIP3    H229986   5.497   1.566   3.835
10015TIP3   OH229987   5.602   7.377   2.339
10015TIP3    H129988   5.553   7.340   2.412
10015TIP3    H229989   5.679   7.418   2.380
10016TIP3   OH229990   6.626   6.213   3.937
10016TIP3    H129991   6.626   6.188   4.029
10016TIP3    H229992   6.587   6.301   3.935
10017TIP3   OH229993   3.561   3.691   1.396
10017TIP3    H129994   3.627   3.760   1.395
10017TIP3    H229995   3.548   3.672   1.488
10018TIP3   OH229996   0.708   4.959   5.726
10018TIP3    H129997   0.715   4.883   5.669
10018TIP3    H229998   0.795   4.999   5.724
10019TIP3   OH229999   6.002   6.872   2.207
10019TIP3    H130000   5.989   6.966   2.192
10019TIP3    H230001   6.092   6.866   2.241
10020TIP3   OH230002   2.142   7.260   4.829
10020TIP3    H130003   2.149   7.185   4.770
10020TIP3    H230004   2.052   7.258   4.861
10021TIP3   OH230005   2.126   3.336   1.797
10021TIP3    H130006   2.060   3.329   1.728
10021TIP3    H230007   2.139   3.430   1.809
10022TIP3   OH230008   4.529   4.628   0.148
10022TIP3    H130009   4.466   4.593   0.085
10022TIP3    H230010   4.531   4.722   0.131
10023TIP3   OH230011   3.595   7.031   2.925
10023TIP3    H130012   3.586   7.108   2.981
10023TIP3    H230013   3.539   6.965   2.966
10024TIP3   OH230014   6.206   7.553   3.592
10024TIP3    H130015   6.287   7.581   3.549
10024TIP3    H230016   6.187   7.624   3.655
10025TIP3   OH230017   1.645   0.863   1.542
10025TIP3    H130018   1.561   0.825   1.567
10025TIP3    H230019   1.710   0.800   1.573
10026TIP3   OH230020   7.589   7.218   3.926
10026TIP3    H130021   7.655   7.152   3.903
10026TIP3    H230022   7.612   7.244   4.015
10027TIP3   OH230023   6.419   2.816   6.499
10027TIP3    H130024   6.332   2.854   6.487
10027TIP3    H230025   6.475   2.892   6.521
10028TIP3   OH230026   1.127   3.959   5.446
10028TIP3    H130027   1.061   4.015   5.485
10028TIP3    H230028   1.127   3.879   5.499
10029TIP3   OH230029   3.849   0.515   6.154
10029TIP3    H130030   3.838   0.577   6.226
10029TIP3    H230031   3.800   0.437   6.181
10030TIP3   OH230032   5.591   7.139   3.079
10030TIP3    H130033   5.549   7.107   3.000
10030TIP3    H230034   5.679   7.102   3.078
10031TIP3   OH230035   0.563   1.749   1.142
10031TIP3    H130036   0.559   1.845   1.136
10031TIP3    H230037   0.634   1.731   1.204
10032TIP3   OH230038   7.073   1.967   6.472
10032TIP3    H130039   7.014   2.030   6.514
10032TIP3    H230040   7.051   1.974   6.379
10033TIP3   OH230041   1.700   7.296   5.595
10033TIP3    H130042   1.721   7.322   5.685
10033TIP3    H230043   1.700   7.200   5.598
10034TIP3   OH230044   7.592   6.395   2.362
10034TIP3    H130045   7.531   6.435   2.301
10034TIP3    H230046   7.623   6.316   2.317
10035TIP3   OH230047   4.115   4.311   1.570
10035TIP3    H130048   4.174   4.321   1.645
10035TIP3    H230049   4.104   4.400   1.536
10036TIP3   OH230050   4.522   1.786   6.369
10036TIP3    H130051   4.578   1.736   6.430
10036TIP3    H230052   4.437   1.742   6.374
10037TIP3   OH230053   7.005   6.745   1.219
10037TIP3    H130054   6.939   6.707   1.277
10037TIP3    H230055   6.968   6.736   1.131
10038TIP3   OH230056   4.091   1.104   2.934
10038TIP3    H130057   4.048   1.026   2.970
10038TIP3    H230058   4.077   1.172   3.000
10039TIP3   OH230059   2.738   5.629   2.975
10039TIP3    H130060   2.719   5.561   3.040
10039TIP3    H230061   2.652   5.657   2.944
10040TIP3   OH230062   5.532   4.237   4.391
10040TIP3    H130063   5.463   4.290   4.350
10040TIP3    H230064   5.503   4.227   4.482
10041TIP3   OH230065   1.754   3.575   4.486
10041TIP3    H130066   1.812   3.512   4.530
10041TIP3    H230067   1.784   3.661   4.516
10042TIP3   OH230068   5.019   2.696   3.314
10042TIP3    H130069   5.025   2.792   3.315
10042TIP3    H230070   5.059   2.668   3.396
10043TIP3   OH230071   2.433   0.250   6.587
10043TIP3    H130072   2.373   0.300   6.642
10043TIP3    H230073   2.483   0.316   6.539
10044TIP3   OH230074   4.669   6.703   6.305
10044TIP3    H130075   4.656   6.746   6.389
10044TIP3    H230076   4.754   6.660   6.313
10045TIP3   OH230077   1.109   2.069   2.549
10045TIP3    H130078   1.074   2.030   2.469
10045TIP3    H230079   1.097   2.163   2.537
10046TIP3   OH230080   6.360   3.550   5.364
10046TIP3    H130081   6.315   3.499   5.296
10046TIP3    H230082   6.444   3.506   5.376
10047TIP3   OH230083   4.123   0.546   4.236
10047TIP3    H130084   4.063   0.521   4.306
10047TIP3    H230085   4.202   0.493   4.252
10048TIP3   OH230086   1.168   1.360   1.805
10048TIP3    H130087   1.232   1.371   1.874
10048TIP3    H230088   1.196   1.420   1.736
10049TIP3   OH230089   5.810   4.704   5.112
10049TIP3    H130090   5.899   4.668   5.111
10049TIP3    H230091   5.817   4.786   5.064
10050TIP3   OH230092   2.247   4.836   1.145
10050TIP3    H130093   2.274   4.851   1.054
10050TIP3    H230094   2.329   4.819   1.191
10051TIP3   OH230095   6.572   6.068   5.409
10051TIP3    H130096   6.518   5.995   5.378
10051TIP3    H230097   6.662   6.036   5.402
10052TIP3   OH230098   0.982   2.382   3.738
10052TIP3    H130099   1.000   2.364   3.831
10052TIP3    H230100   0.963   2.296   3.701
10053TIP3   OH230101   8.011   2.478   1.736
10053TIP3    H130102   8.015   2.418   1.661
10053TIP3    H230103   8.058   2.556   1.706
10054TIP3   OH230104   4.224   6.272   1.232
10054TIP3    H130105   4.271   6.194   1.204
10054TIP3    H230106   4.288   6.343   1.228
10055TIP3   OH230107   6.975   1.378   6.156
10055TIP3    H130108   6.929   1.411   6.233
10055TIP3    H230109   6.935   1.293   6.139
10056TIP3   OH230110   2.653   4.738   2.400
10056TIP3    H130111   2.659   4.782   2.484
10056TIP3    H230112   2.722   4.777   2.347
10057TIP3   OH230113   4.408   6.442   5.678
10057TIP3    H130114   4.394   6.534   5.702
10057TIP3    H230115   4.502   6.428   5.694
10058TIP3   OH230116   3.405   7.720   3.601
10058TIP3    H130117   3.479   7.767   3.639
10058TIP3    H230118   3.422   7.722   3.507
10059TIP3   OH230119   4.366   6.616   3.899
10059TIP3    H130120   4.382   6.709   3.884
10059TIP3    H230121   4.415   6.572   3.830
10060TIP3   OH230122   3.352   7.685   5.343
10060TIP3    H130123   3.298   7.691   5.265
10060TIP3    H230124   3.415   7.756   5.334
10061TIP3   OH230125   5.633   4.299   6.025
10061TIP3    H130126   5.671   4.284   6.112
10061TIP3    H230127   5.695   4.358   5.982
10062TIP3   OH230128   0.104   4.226   2.297
10062TIP3    H130129   0.049   4.157   2.335
10062TIP3    H230130   0.043   4.299   2.283
10063TIP3   OH230131   5.142   5.461   0.016
10063TIP3    H130132   5.139   5.438   0.109
10063TIP3    H230133   5.214   5.407  -0.019
10064TIP3   OH230134   4.795   3.724   4.152
10064TIP3    H130135   4.809   3.808   4.108
10064TIP3    H230136   4.700   3.713   4.154
10065TIP3   OH230137   0.637   6.752   1.199
10065TIP3    H130138   0.715   6.707   1.232
10065TIP3    H230139   0.664   6.790   1.115
10066TIP3   OH230140   1.035   2.582   6.268
10066TIP3    H130141   1.070   2.667   6.297
10066TIP3    H230142   0.959   2.603   6.216
10067TIP3   OH230143   3.178   6.083   2.145
10067TIP3    H130144   3.270   6.107   2.157
10067TIP3    H230145   3.150   6.134   2.069
10068TIP3   OH230146   1.715   5.314   3.077
10068TIP3    H130147   1.634   5.338   3.031
10068TIP3    H230148   1.695   5.231   3.119
10069TIP3   OH230149   4.920   7.403   6.718
10069TIP3    H130150   4.829   7.424   6.742
10069TIP3    H230151   4.930   7.439   6.630
10070TIP3   OH230152   7.074   3.851   2.641
10070TIP3    H130153   7.131   3.869   2.716
10070TIP3    H230154   7.104   3.910   2.573
10071TIP3   OH230155   1.177   3.505   6.585
10071TIP3    H130156   1.122   3.491   6.508
10071TIP3    H230157   1.115   3.523   6.656
10072TIP3   OH230158   4.683   7.720   1.231
10072TIP3    H130159   4.778   7.724   1.241
10072TIP3    H230160   4.650   7.782   1.296
10073TIP3   OH230161   4.322   5.520   1.323
10073TIP3    H130162   4.409   5.482   1.310
10073TIP3    H230163   4.262   5.454   1.290
10074TIP3   OH230164   4.387   1.882   3.539
10074TIP3    H130165   4.325   1.814   3.565
10074TIP3    H230166   4.375   1.951   3.604
10075TIP3   OH230167   0.084   6.461   4.443
10075TIP3    H130168   0.150   6.493   4.504
10075TIP3    H230169   0.022   6.533   4.434
10076TIP3   OH230170   7.329   6.210   1.113
10076TIP3    H130171   7.404   6.231   1.058
10076TIP3    H230172   7.253   6.239   1.061
10077TIP3   OH230173   2.370   7.168   1.031
10077TIP3    H130174   2.275   7.166   1.040
10077TIP3    H230175   2.398   7.240   1.088
10078TIP3   OH230176   1.202   6.649   2.698
10078TIP3    H130177   1.191   6.738   2.664
10078TIP3    H230178   1.267   6.609   2.640
10079TIP3   OH230179   0.336   3.744   4.238
10079TIP3    H130180   0.316   3.822   4.186
10079TIP3    H230181   0.335   3.774   4.328
10080TIP3   OH230182   7.663   7.731   5.664
10080TIP3    H130183   7.752   7.709   5.689
10080TIP3    H230184   7.653   7.696   5.575
10081TIP3   OH230185   8.240   2.943   5.593
10081TIP3    H130186   8.154   2.933   5.635
10081TIP3    H230187   8.224   2.924   5.501
10082TIP3   OH230188   3.170   4.473   2.038
10082TIP3    H130189   3.197   4.387   2.007
10082TIP3    H230190   3.248   4.528   2.026
10083TIP3   OH230191   1.154   6.904   4.172
10083TIP3    H130192   1.174   6.941   4.086
10083TIP3    H230193   1.088   6.963   4.209
10084TIP3   OH230194   4.981   5.084   6.357
10084TIP3    H130195   5.014   5.169   6.385
10084TIP3    H230196   5.020   5.022   6.418
10085TIP3   OH230197   3.726   2.881   5.002
10085TIP3    H130198   3.758   2.851   4.917
10085TIP3    H230199   3.631   2.883   4.992
10086TIP3   OH230200   1.798   2.877   2.021
10086TIP3    H130201   1.888   2.843   2.027
10086TIP3    H230202   1.793   2.912   1.932
10087TIP3   OH230203   3.935   6.412   4.729
10087TIP3    H130204   3.977   6.433   4.645
10087TIP3    H230205   3.847   6.449   4.721
10088TIP3   OH230206   5.260   4.180   5.649
10088TIP3    H130207   5.210   4.140   5.719
10088TIP3    H230208   5.194   4.206   5.584
10089TIP3   OH230209   4.661   2.785   2.317
10089TIP3    H130210   4.696   2.720   2.257
10089TIP3    H230211   4.579   2.747   2.348
10090TIP3   OH230212   5.663   7.176   5.842
10090TIP3    H130213   5.659   7.214   5.755
10090TIP3    H230214   5.571   7.161   5.866
10091TIP3   OH230215   5.237   6.740   4.582
10091TIP3    H130216   5.313   6.681   4.586
10091TIP3    H230217   5.239   6.774   4.493
10092TIP3   OH230218   5.698   5.423   1.375
10092TIP3    H130219   5.668   5.507   1.342
10092TIP3    H230220   5.742   5.381   1.301
10093TIP3   OH230221   1.955   1.505   6.448
10093TIP3    H130222   1.907   1.444   6.393
10093TIP3    H230223   1.945   1.589   6.405
10094TIP3   OH230224   3.801   7.379   0.084
10094TIP3    H130225   3.881   7.390   0.136
10094TIP3    H230226   3.738   7.439   0.124
10095TIP3   OH230227   2.275   3.395   0.181
10095TIP3    H130228   2.247   3.445   0.105
10095TIP3    H230229   2.203   3.334   0.199
10096TIP3   OH230230   1.055   4.856   4.997
10096TIP3    H130231   1.117   4.878   5.067
10096TIP3    H230232   1.092   4.778   4.957
10097TIP3   OH230233   4.611   1.652   0.537
10097TIP3    H130234   4.606   1.565   0.497
10097TIP3    H230235   4.639   1.710   0.467
10098TIP3   OH230236   2.532   6.025   5.510
10098TIP3    H130237   2.581   6.106   5.497
10098TIP3    H230238   2.571   5.964   5.446
10099TIP3   OH230239   3.072   4.335   6.421
10099TIP3    H130240   3.046   4.244   6.407
10099TIP3    H230241   3.033   4.383   6.347
10100TIP3   OH230242   2.227   3.502   2.425
10100TIP3    H130243   2.160   3.558   2.387
10100TIP3    H230244   2.180   3.445   2.486
10101TIP3   OH230245   3.995   4.991   5.685
10101TIP3    H130246   3.939   4.946   5.622
10101TIP3    H230247   3.941   5.062   5.719
10102TIP3   OH230248   2.708   6.976   3.228
10102TIP3    H130249   2.711   6.994   3.322
10102TIP3    H230250   2.689   6.882   3.222
10103TIP3   OH230251   4.559   6.148   5.859
10103TIP3    H130252   4.479   6.197   5.879
10103TIP3    H230253   4.628   6.197   5.902
10104TIP3   OH230254   1.682   7.535   4.504
10104TIP3    H130255   1.587   7.534   4.498
10104TIP3    H230256   1.700   7.522   4.597
10105TIP3   OH230257   3.419   5.499   5.153
10105TIP3    H130258   3.342   5.539   5.194
10105TIP3    H230259   3.431   5.548   5.072
10106TIP3   OH230260   0.237   6.966   0.855
10106TIP3    H130261   0.171   7.008   0.800
10106TIP3    H230262   0.208   6.983   0.945
10107TIP3   OH230263   3.291   0.918   1.383
10107TIP3    H130264   3.269   0.844   1.439
10107TIP3    H230265   3.384   0.934   1.400
10108TIP3   OH230266   2.037   1.877   5.501
10108TIP3    H130267   2.045   1.899   5.408
10108TIP3    H230268   1.994   1.954   5.539
10109TIP3   OH230269   7.979   1.401   3.507
10109TIP3    H130270   7.923   1.328   3.481
10109TIP3    H230271   8.068   1.367   3.500
10110TIP3   OH230272   8.132   2.745   5.326
10110TIP3    H130273   8.109   2.681   5.393
10110TIP3    H230274   8.096   2.828   5.358
10111TIP3   OH230275   6.630   0.858   3.643
10111TIP3    H130276   6.581   0.938   3.664
10111TIP3    H230277   6.624   0.805   3.722
10112TIP3   OH230278   2.638   2.167   2.295
10112TIP3    H130279   2.622   2.121   2.378
10112TIP3    H230280   2.577   2.127   2.234
10113TIP3   OH230281   3.893   0.767   0.304
10113TIP3    H130282   3.884   0.681   0.344
10113TIP3    H230283   3.839   0.825   0.357
10114TIP3   OH230284   5.628   5.923   6.477
10114TIP3    H130285   5.723   5.929   6.486
10114TIP3    H230286   5.613   5.848   6.419
10115TIP3   OH230287   7.324   6.937   4.290
10115TIP3    H130288   7.251   6.877   4.304
10115TIP3    H230289   7.385   6.888   4.235
10116TIP3   OH230290   7.508   3.475   5.190
10116TIP3    H130291   7.466   3.399   5.150
10116TIP3    H230292   7.562   3.438   5.260
10117TIP3   OH230293   2.172   7.260   3.211
10117TIP3    H130294   2.127   7.204   3.148
10117TIP3    H230295   2.163   7.348   3.175
10118TIP3   OH230296   4.253   1.197   5.220
10118TIP3    H130297   4.195   1.253   5.168
10118TIP3    H230298   4.306   1.151   5.155
10119TIP3   OH230299   1.867   2.018   2.405
10119TIP3    H130300   1.821   2.032   2.488
10119TIP3    H230301   1.810   1.958   2.356
10120TIP3   OH230302   3.184   2.142   6.744
10120TIP3    H130303   3.277   2.128   6.762
10120TIP3    H230304   3.139   2.068   6.785
10121TIP3   OH230305   2.754   4.627   0.713
10121TIP3    H130306   2.792   4.649   0.798
10121TIP3    H230307   2.735   4.534   0.718
10122TIP3   OH230308   3.181   3.637   3.209
10122TIP3    H130309   3.216   3.576   3.274
10122TIP3    H230310   3.099   3.669   3.248
10123TIP3   OH230311   6.352   2.625   5.634
10123TIP3    H130312   6.383   2.709   5.666
10123TIP3    H230313   6.364   2.629   5.539
10124TIP3   OH230314   3.681   4.772   5.300
10124TIP3    H130315   3.663   4.724   5.219
10124TIP3    H230316   3.626   4.850   5.294
10125TIP3   OH230317   6.124   3.469   6.426
10125TIP3    H130318   6.125   3.519   6.508
10125TIP3    H230319   6.050   3.409   6.435
10126TIP3   OH230320   7.077   2.777   6.312
10126TIP3    H130321   7.092   2.715   6.383
10126TIP3    H230322   7.151   2.837   6.317
10127TIP3   OH230323   6.954   4.102   2.237
10127TIP3    H130324   6.872   4.148   2.221
10127TIP3    H230325   7.009   4.122   2.161
10128TIP3   OH230326   3.900   5.329   6.593
10128TIP3    H130327   3.910   5.408   6.541
10128TIP3    H230328   3.985   5.286   6.589
10129TIP3   OH230329   4.866   0.843   3.558
10129TIP3    H130330   4.905   0.853   3.644
10129TIP3    H230331   4.821   0.926   3.541
10130TIP3   OH230332   2.812   6.888   5.627
10130TIP3    H130333   2.824   6.880   5.533
10130TIP3    H230334   2.839   6.803   5.662
10131TIP3   OH230335   2.441   0.596   0.244
10131TIP3    H130336   2.430   0.501   0.246
10131TIP3    H230337   2.505   0.611   0.174
10132TIP3   OH230338   7.564   5.083   1.608
10132TIP3    H130339   7.511   5.133   1.671
10132TIP3    H230340   7.606   5.150   1.554
10133TIP3   OH230341   6.506   3.508   3.203
10133TIP3    H130342   6.534   3.549   3.284
10133TIP3    H230343   6.585   3.465   3.169
10134TIP3   OH230344   4.300   0.968   0.085
10134TIP3    H130345   4.317   1.061   0.072
10134TIP3    H230346   4.212   0.964   0.122
10135TIP3   OH230347   6.127   5.673   4.704
10135TIP3    H130348   6.200   5.649   4.760
10135TIP3    H230349   6.073   5.594   4.699
10136TIP3   OH230350   0.765   6.915   3.888
10136TIP3    H130351   0.736   7.006   3.894
10136TIP3    H230352   0.849   6.919   3.842
10137TIP3   OH230353   2.040   4.523   5.678
10137TIP3    H130354   2.039   4.557   5.768
10137TIP3    H230355   2.106   4.454   5.679
10138TIP3   OH230356   1.595   3.378   6.145
10138TIP3    H130357   1.554   3.414   6.224
10138TIP3    H230358   1.657   3.445   6.118
10139TIP3   OH230359   7.650   7.593   0.512
10139TIP3    H130360   7.671   7.652   0.440
10139TIP3    H230361   7.626   7.651   0.585
10140TIP3   OH230362   1.916   0.504   3.013
10140TIP3    H130363   1.978   0.471   3.077
10140TIP3    H230364   1.871   0.576   3.057
10141TIP3   OH230365   6.123   0.184   3.883
10141TIP3    H130366   6.124   0.278   3.869
10141TIP3    H230367   6.030   0.162   3.895
10142TIP3   OH230368   5.918   5.058   0.227
10142TIP3    H130369   5.837   5.080   0.181
10142TIP3    H230370   5.909   5.101   0.312
10143TIP3   OH230371   0.365   5.186   5.480
10143TIP3    H130372   0.334   5.125   5.547
10143TIP3    H230373   0.424   5.133   5.426
10144TIP3   OH230374   7.185   3.744   2.242
10144TIP3    H130375   7.259   3.682   2.242
10144TIP3    H230376   7.202   3.802   2.168
10145TIP3   OH230377   0.066   6.748   4.687
10145TIP3    H130378  -0.022   6.774   4.660
10145TIP3    H230379   0.123   6.779   4.617
10146TIP3   OH230380   5.605   4.270   0.285
10146TIP3    H130381   5.618   4.355   0.243
10146TIP3    H230382   5.545   4.286   0.357
10147TIP3   OH230383   6.805   3.361   1.529
10147TIP3    H130384   6.748   3.284   1.528
10147TIP3    H230385   6.761   3.424   1.472
10148TIP3   OH230386   5.871   0.724   6.396
10148TIP3    H130387   5.811   0.688   6.462
10148TIP3    H230388   5.815   0.736   6.319
10149TIP3   OH230389   0.182   1.545   4.581
10149TIP3    H130390   0.236   1.476   4.542
10149TIP3    H230391   0.242   1.619   4.591
10150TIP3   OH230392   3.373   2.937   5.466
10150TIP3    H130393   3.388   3.023   5.428
10150TIP3    H230394   3.278   2.926   5.465
10151TIP3   OH230395   7.130   5.383   1.848
10151TIP3    H130396   7.154   5.351   1.761
10151TIP3    H230397   7.039   5.411   1.839
10152TIP3   OH230398   3.689   5.171   3.810
10152TIP3    H130399   3.656   5.157   3.898
10152TIP3    H230400   3.622   5.134   3.752
10153TIP3   OH230401   6.695   3.713   5.266
10153TIP3    H130402   6.789   3.701   5.250
10153TIP3    H230403   6.682   3.808   5.264
10154TIP3   OH230404   2.330   3.307   2.166
10154TIP3    H130405   2.313   3.393   2.204
10154TIP3    H230406   2.330   3.247   2.241
10155TIP3   OH230407   6.264   6.817   5.829
10155TIP3    H130408   6.221   6.886   5.779
10155TIP3    H230409   6.197   6.787   5.890
10156TIP3   OH230410   2.658   0.986   3.370
10156TIP3    H130411   2.734   0.942   3.409
10156TIP3    H230412   2.615   0.919   3.318
10157TIP3   OH230413   4.984   2.555   5.943
10157TIP3    H130414   5.027   2.472   5.966
10157TIP3    H230415   4.891   2.535   5.945
10158TIP3   OH230416   3.181   4.850   0.932
10158TIP3    H130417   3.165   4.827   1.023
10158TIP3    H230418   3.197   4.944   0.933
10159TIP3   OH230419   6.372   2.297   2.414
10159TIP3    H130420   6.433   2.292   2.487
10159TIP3    H230421   6.402   2.230   2.352
10160TIP3   OH230422   7.313   0.127   2.528
10160TIP3    H130423   7.249   0.197   2.544
10160TIP3    H230424   7.394   0.160   2.566
10161TIP3   OH230425   0.523   2.598   1.354
10161TIP3    H130426   0.446   2.608   1.410
10161TIP3    H230427   0.589   2.558   1.409
10162TIP3   OH230428   1.787   6.815   2.266
10162TIP3    H130429   1.723   6.793   2.198
10162TIP3    H230430   1.821   6.901   2.240
10163TIP3   OH230431   2.383   4.323   0.902
10163TIP3    H130432   2.459   4.274   0.932
10163TIP3    H230433   2.386   4.405   0.951
10164TIP3   OH230434   5.588   5.670   0.476
10164TIP3    H130435   5.563   5.720   0.398
10164TIP3    H230436   5.581   5.733   0.548
10165TIP3   OH230437   1.343   4.207   1.411
10165TIP3    H130438   1.393   4.266   1.468
10165TIP3    H230439   1.270   4.261   1.379
10166TIP3   OH230440   0.936   2.537   2.915
10166TIP3    H130441   0.887   2.525   2.996
10166TIP3    H230442   0.983   2.455   2.902
10167TIP3   OH230443   3.265   1.667   1.486
10167TIP3    H130444   3.228   1.594   1.437
10167TIP3    H230445   3.190   1.707   1.530
10168TIP3   OH230446   3.422   0.410   5.634
10168TIP3    H130447   3.327   0.412   5.621
10168TIP3    H230448   3.443   0.496   5.671
10169TIP3   OH230449   6.645   5.507   2.894
10169TIP3    H130450   6.591   5.570   2.941
10169TIP3    H230451   6.587   5.432   2.879
10170TIP3   OH230452   7.646   2.392   5.147
10170TIP3    H130453   7.675   2.302   5.132
10170TIP3    H230454   7.675   2.440   5.069
10171TIP3   OH230455   4.171   4.779   6.111
10171TIP3    H130456   4.255   4.822   6.099
10171TIP3    H230457   4.138   4.764   6.023
10172TIP3   OH230458   1.555   2.420   2.351
10172TIP3    H130459   1.549   2.495   2.410
10172TIP3    H230460   1.646   2.390   2.360
10173TIP3   OH230461   0.516   0.509   5.465
10173TIP3    H130462   0.462   0.431   5.451
10173TIP3    H230463   0.460   0.568   5.516
10174TIP3   OH230464   0.289   0.324   1.186
10174TIP3    H130465   0.338   0.403   1.164
10174TIP3    H230466   0.289   0.321   1.281
10175TIP3   OH230467   3.981   2.723   3.990
10175TIP3    H130468   4.033   2.781   4.046
10175TIP3    H230469   4.012   2.635   4.011
10176TIP3   OH230470   0.066   5.666   2.561
10176TIP3    H130471   0.026   5.594   2.609
10176TIP3    H230472   0.016   5.743   2.587
10177TIP3   OH230473   8.099   2.142   0.537
10177TIP3    H130474   8.185   2.145   0.495
10177TIP3    H230475   8.088   2.051   0.563
10178TIP3   OH230476   3.912   3.099   3.527
10178TIP3    H130477   3.967   3.022   3.508
10178TIP3    H230478   3.846   3.098   3.458
10179TIP3   OH230479   1.815   1.361   1.900
10179TIP3    H130480   1.783   1.284   1.946
10179TIP3    H230481   1.869   1.327   1.829
10180TIP3   OH230482   5.713   6.221   3.055
10180TIP3    H130483   5.703   6.195   3.147
10180TIP3    H230484   5.805   6.245   3.047
10181TIP3   OH230485   6.892   2.918   3.291
10181TIP3    H130486   6.915   2.858   3.220
10181TIP3    H230487   6.819   2.970   3.257
10182TIP3   OH230488   0.895   2.167   4.957
10182TIP3    H130489   0.870   2.190   5.047
10182TIP3    H230490   0.942   2.084   4.966
10183TIP3   OH230491   4.693   2.325   4.850
10183TIP3    H130492   4.654   2.238   4.860
10183TIP3    H230493   4.621   2.386   4.867
10184TIP3   OH230494   6.071   7.345   1.150
10184TIP3    H130495   6.096   7.253   1.142
10184TIP3    H230496   6.153   7.393   1.144
10185TIP3   OH230497   4.154   0.111   2.729
10185TIP3    H130498   4.204   0.118   2.648
10185TIP3    H230499   4.065   0.137   2.705
10186TIP3   OH230500   3.136   3.131   6.220
10186TIP3    H130501   3.160   3.218   6.189
10186TIP3    H230502   3.219   3.092   6.249
10187TIP3   OH230503   2.184   0.247   1.217
10187TIP3    H130504   2.135   0.328   1.235
10187TIP3    H230505   2.233   0.230   1.297
10188TIP3   OH230506   1.969   3.731   3.546
10188TIP3    H130507   2.061   3.757   3.547
10188TIP3    H230508   1.966   3.656   3.486
10189TIP3   OH230509   7.511   0.314   6.649
10189TIP3    H130510   7.546   0.270   6.572
10189TIP3    H230511   7.417   0.319   6.634
10190TIP3   OH230512   4.119   3.316   5.015
10190TIP3    H130513   4.159   3.229   5.011
10190TIP3    H230514   4.117   3.336   5.109
10191TIP3   OH230515   7.549   3.364   0.360
10191TIP3    H130516   7.635   3.394   0.389
10191TIP3    H230517   7.560   3.270   0.347
10192TIP3   OH230518   5.314   1.613   3.741
10192TIP3    H130519   5.245   1.548   3.729
10192TIP3    H230520   5.271   1.686   3.786
10193TIP3   OH230521   0.544   2.434   4.527
10193TIP3    H130522   0.596   2.488   4.586
10193TIP3    H230523   0.485   2.385   4.584
10194TIP3   OH230524   6.188   3.349   2.248
10194TIP3    H130525   6.257   3.287   2.270
10194TIP3    H230526   6.126   3.299   2.195
10195TIP3   OH230527   6.367   1.077   0.586
10195TIP3    H130528   6.370   1.005   0.524
10195TIP3    H230529   6.432   1.054   0.653
10196TIP3   OH230530   8.037   4.252   3.071
10196TIP3    H130531   8.046   4.253   3.166
10196TIP3    H230532   7.953   4.210   3.055
10197TIP3   OH230533   5.435   1.001   1.019
10197TIP3    H130534   5.376   1.033   1.088
10197TIP3    H230535   5.378   0.990   0.942
10198TIP3   OH230536   5.854   2.943   6.730
10198TIP3    H130537   5.845   2.908   6.642
10198TIP3    H230538   5.786   3.010   6.736
10199TIP3   OH230539   7.420   1.631   3.383
10199TIP3    H130540   7.443   1.708   3.332
10199TIP3    H230541   7.333   1.606   3.352
10200TIP3   OH230542   7.666   5.884   3.047
10200TIP3    H130543   7.627   5.855   2.964
10200TIP3    H230544   7.730   5.950   3.022
10201TIP3   OH230545   4.245   2.551   0.539
10201TIP3    H130546   4.312   2.565   0.472
10201TIP3    H230547   4.208   2.466   0.518
10202TIP3   OH230548   1.684   3.867   5.430
10202TIP3    H130549   1.665   3.797   5.493
10202TIP3    H230550   1.684   3.823   5.345
10203TIP3   OH230551   7.151   5.099   2.477
10203TIP3    H130552   7.124   5.076   2.566
10203TIP3    H230553   7.145   5.195   2.475
10204TIP3   OH230554   8.174   2.448   5.074
10204TIP3    H130555   8.153   2.355   5.086
10204TIP3    H230556   8.111   2.494   5.130
10205TIP3   OH230557   0.407   6.658   3.126
10205TIP3    H130558   0.317   6.626   3.129
10205TIP3    H230559   0.428   6.675   3.218
10206TIP3   OH230560   5.622   6.468   6.072
10206TIP3    H130561   5.629   6.533   6.142
10206TIP3    H230562   5.576   6.514   6.001
10207TIP3   OH230563   1.096   0.928   3.699
10207TIP3    H130564   1.158   0.997   3.678
10207TIP3    H230565   1.066   0.948   3.787
10208TIP3   OH230566   6.712   0.258   2.858
10208TIP3    H130567   6.649   0.208   2.807
10208TIP3    H230568   6.667   0.279   2.939
10209TIP3   OH230569   3.534   4.146   0.595
10209TIP3    H130570   3.544   4.059   0.634
10209TIP3    H230571   3.540   4.206   0.669
10210TIP3   OH230572   7.661   4.765   4.615
10210TIP3    H130573   7.711   4.686   4.635
10210TIP3    H230574   7.618   4.789   4.697
10211TIP3   OH230575   0.962   2.549   4.326
10211TIP3    H130576   0.933   2.620   4.269
10211TIP3    H230577   1.004   2.592   4.400
10212TIP3   OH230578   5.094   5.353   2.284
10212TIP3    H130579   5.038   5.394   2.350
10212TIP3    H230580   5.180   5.347   2.326
10213TIP3   OH230581   0.793   1.825   1.384
10213TIP3    H130582   0.806   1.731   1.396
10213TIP3    H230583   0.849   1.848   1.310
10214TIP3   OH230584   1.551   3.821   6.338
10214TIP3    H130585   1.477   3.844   6.394
10214TIP3    H230586   1.524   3.740   6.295
10215TIP3   OH230587   5.801   0.755   1.267
10215TIP3    H130588   5.884   0.771   1.311
10215TIP3    H230589   5.758   0.688   1.320
10216TIP3   OH230590   1.798   0.598   2.700
10216TIP3    H130591   1.715   0.626   2.661
10216TIP3    H230592   1.853   0.577   2.624
10217TIP3   OH230593   3.771   0.768   6.274
10217TIP3    H130594   3.806   0.856   6.260
10217TIP3    H230595   3.678   0.781   6.288
10218TIP3   OH230596   2.845   1.374   4.895
10218TIP3    H130597   2.834   1.450   4.837
10218TIP3    H230598   2.936   1.378   4.924
10219TIP3   OH230599   0.839   1.004   2.575
10219TIP3    H130600   0.920   1.046   2.546
10219TIP3    H230601   0.769   1.062   2.544
10220TIP3   OH230602   7.139   5.943   1.769
10220TIP3    H130603   7.177   5.982   1.848
10220TIP3    H230604   7.127   5.851   1.792
10221TIP3   OH230605   6.845   7.405   2.027
10221TIP3    H130606   6.902   7.456   2.084
10221TIP3    H230607   6.758   7.413   2.066
10222TIP3   OH230608   2.301   1.199   0.969
10222TIP3    H130609   2.225   1.155   1.007
10222TIP3    H230610   2.350   1.231   1.045
10223TIP3   OH230611   3.409   5.769   1.272
10223TIP3    H130612   3.495   5.739   1.304
10223TIP3    H230613   3.393   5.850   1.320
10224TIP3   OH230614   5.260   2.956   4.390
10224TIP3    H130615   5.232   2.939   4.480
10224TIP3    H230616   5.278   2.869   4.353
10225TIP3   OH230617   7.554   7.028   4.704
10225TIP3    H130618   7.464   7.050   4.679
10225TIP3    H230619   7.573   7.085   4.779
10226TIP3   OH230620   7.316   4.914   5.363
10226TIP3    H130621   7.320   4.890   5.455
10226TIP3    H230622   7.224   4.935   5.347
10227TIP3   OH230623   7.967   4.374   5.697
10227TIP3    H130624   8.015   4.425   5.632
10227TIP3    H230625   7.876   4.401   5.685
10228TIP3   OH230626   4.945   5.267   3.565
10228TIP3    H130627   4.922   5.327   3.495
10228TIP3    H230628   4.967   5.324   3.639
10229TIP3   OH230629   4.858   4.218   2.376
10229TIP3    H130630   4.845   4.144   2.436
10229TIP3    H230631   4.818   4.189   2.294
10230TIP3   OH230632   3.716   3.918   1.370
10230TIP3    H130633   3.785   3.970   1.328
10230TIP3    H230634   3.636   3.968   1.355
10231TIP3   OH230635   4.185   2.753   6.587
10231TIP3    H130636   4.280   2.747   6.585
10231TIP3    H230637   4.155   2.662   6.592
10232TIP3   OH230638   0.038   6.562   1.569
10232TIP3    H130639   0.116   6.615   1.586
10232TIP3    H230640   0.042   6.492   1.634
10233TIP3   OH230641   6.624   4.400   4.770
10233TIP3    H130642   6.586   4.479   4.811
10233TIP3    H230643   6.712   4.427   4.744
10234TIP3   OH230644   5.895   2.943   5.675
10234TIP3    H130645   5.963   2.921   5.738
10234TIP3    H230646   5.920   3.028   5.640
10235TIP3   OH230647   1.808   3.109   0.779
10235TIP3    H130648   1.739   3.164   0.816
10235TIP3    H230649   1.778   3.088   0.691
10236TIP3   OH230650   2.487   0.239   4.528
10236TIP3    H130651   2.567   0.195   4.499
10236TIP3    H230652   2.492   0.326   4.487
10237TIP3   OH230653   0.338   2.566   5.245
10237TIP3    H130654   0.254   2.593   5.208
10237TIP3    H230655   0.399   2.568   5.171
10238TIP3   OH230656   0.884   2.337   0.790
10238TIP3    H130657   0.865   2.342   0.696
10238TIP3    H230658   0.801   2.356   0.833
10239TIP3   OH230659   7.137   0.372   2.092
10239TIP3    H130660   7.105   0.459   2.067
10239TIP3    H230661   7.228   0.386   2.117
10240TIP3   OH230662   7.451   5.617   4.804
10240TIP3    H130663   7.382   5.644   4.742
10240TIP3    H230664   7.403   5.575   4.876
10241TIP3   OH230665   3.540   0.128   3.448
10241TIP3    H130666   3.600   0.089   3.512
10241TIP3    H230667   3.491   0.192   3.499
10242TIP3   OH230668   2.983   0.375   2.073
10242TIP3    H130669   2.942   0.309   2.129
10242TIP3    H230670   2.961   0.458   2.115
10243TIP3   OH230671   3.985   0.843   1.375
10243TIP3    H130672   4.071   0.832   1.334
10243TIP3    H230673   3.942   0.759   1.361
10244TIP3   OH230674   5.458   0.849   4.352
10244TIP3    H130675   5.394   0.783   4.329
10244TIP3    H230676   5.524   0.845   4.283
10245TIP3   OH230677   2.692   2.333   4.310
10245TIP3    H130678   2.707   2.423   4.337
10245TIP3    H230679   2.597   2.324   4.306
10246TIP3   OH230680   5.066   5.894   3.210
10246TIP3    H130681   5.062   5.873   3.303
10246TIP3    H230682   5.157   5.921   3.195
10247TIP3   OH230683   5.794   2.298   2.161
10247TIP3    H130684   5.760   2.383   2.188
10247TIP3    H230685   5.865   2.319   2.100
10248TIP3   OH230686   5.661   2.937   5.351
10248TIP3    H130687   5.587   2.890   5.312
10248TIP3    H230688   5.681   3.006   5.288
10249TIP3   OH230689   6.475   7.675   5.036
10249TIP3    H130690   6.397   7.725   5.056
10249TIP3    H230691   6.545   7.720   5.083
10250TIP3   OH230692   1.193   7.655   4.203
10250TIP3    H130693   1.196   7.570   4.158
10250TIP3    H230694   1.113   7.650   4.257
10251TIP3   OH230695   6.234   4.911   6.341
10251TIP3    H130696   6.160   4.960   6.306
10251TIP3    H230697   6.198   4.861   6.414
10252TIP3   OH230698   1.225   2.191   5.082
10252TIP3    H130699   1.243   2.130   5.011
10252TIP3    H230700   1.172   2.260   5.043
10253TIP3   OH230701   1.504   1.263   0.223
10253TIP3    H130702   1.588   1.216   0.220
10253TIP3    H230703   1.520   1.343   0.174
10254TIP3   OH230704   3.325   0.554   0.062
10254TIP3    H130705   3.235   0.520   0.057
10254TIP3    H230706   3.314   0.648   0.072
10255TIP3   OH230707   2.192   4.493   1.815
10255TIP3    H130708   2.252   4.433   1.771
10255TIP3    H230709   2.235   4.513   1.899
10256TIP3   OH230710   3.481   5.096   0.046
10256TIP3    H130711   3.408   5.065   0.100
10256TIP3    H230712   3.554   5.103   0.107
10257TIP3   OH230713   2.224   5.310   2.164
10257TIP3    H130714   2.142   5.264   2.182
10257TIP3    H230715   2.214   5.342   2.074
10258TIP3   OH230716   5.129   6.273   0.401
10258TIP3    H130717   5.082   6.257   0.483
10258TIP3    H230718   5.142   6.186   0.364
10259TIP3   OH230719   1.301   4.950   3.588
10259TIP3    H130720   1.324   4.862   3.617
10259TIP3    H230721   1.207   4.956   3.604
10260TIP3   OH230722   3.920   5.842   3.592
10260TIP3    H130723   3.927   5.759   3.639
10260TIP3    H230724   3.950   5.822   3.503
10261TIP3   OH230725   6.180   1.909   1.683
10261TIP3    H130726   6.258   1.935   1.732
10261TIP3    H230727   6.132   1.992   1.669
10262TIP3   OH230728   6.810   0.790   2.730
10262TIP3    H130729   6.750   0.860   2.704
10262TIP3    H230730   6.811   0.795   2.826
10263TIP3   OH230731   7.287   5.645   0.954
10263TIP3    H130732   7.198   5.615   0.931
10263TIP3    H230733   7.345   5.580   0.915
10264TIP3   OH230734   0.725   5.331   4.453
10264TIP3    H130735   0.739   5.423   4.475
10264TIP3    H230736   0.704   5.332   4.360
10265TIP3   OH230737   4.902   7.327   3.450
10265TIP3    H130738   4.894   7.416   3.416
10265TIP3    H230739   4.830   7.318   3.511
10266TIP3   OH230740   7.289   0.356   3.108
10266TIP3    H130741   7.319   0.408   3.033
10266TIP3    H230742   7.369   0.338   3.158
10267TIP3   OH230743   5.938   4.948   1.036
10267TIP3    H130744   5.856   4.903   1.022
10267TIP3    H230745   5.918   5.014   1.103
10268TIP3   OH230746   0.002   1.454   6.362
10268TIP3    H130747   0.048   1.534   6.335
10268TIP3    H230748   0.071   1.398   6.397
10269TIP3   OH230749   8.093   1.796   3.842
10269TIP3    H130750   8.070   1.823   3.930
10269TIP3    H230751   8.129   1.874   3.800
10270TIP3   OH230752   3.667   5.218   1.969
10270TIP3    H130753   3.630   5.173   2.044
10270TIP3    H230754   3.600   5.210   1.901
10271TIP3   OH230755   8.096   5.719   0.659
10271TIP3    H130756   8.056   5.785   0.602
10271TIP3    H230757   8.125   5.769   0.736
10272TIP3   OH230758   1.708   5.564   4.089
10272TIP3    H130759   1.705   5.469   4.096
10272TIP3    H230760   1.657   5.595   4.163
10273TIP3   OH230761   0.319   1.959   2.021
10273TIP3    H130762   0.371   1.948   2.101
10273TIP3    H230763   0.237   1.913   2.039
10274TIP3   OH230764   0.097   0.453   2.247
10274TIP3    H130765   0.078   0.383   2.310
10274TIP3    H230766   0.170   0.500   2.286
10275TIP3   OH230767   0.180   2.829   3.820
10275TIP3    H130768   0.204   2.780   3.898
10275TIP3    H230769   0.176   2.764   3.750
10276TIP3   OH230770   4.780   4.574   5.413
10276TIP3    H130771   4.740   4.642   5.467
10276TIP3    H230772   4.811   4.621   5.335
10277TIP3   OH230773   2.169   3.405   6.159
10277TIP3    H130774   2.197   3.495   6.176
10277TIP3    H230775   2.218   3.352   6.223
10278TIP3   OH230776   2.320   7.210   0.738
10278TIP3    H130777   2.283   7.200   0.826
10278TIP3    H230778   2.278   7.289   0.703
10279TIP3   OH230779   4.040   3.353   0.024
10279TIP3    H130780   4.132   3.379   0.027
10279TIP3    H230781   4.005   3.381   0.109
10280TIP3   OH230782   3.194   6.167   5.644
10280TIP3    H130783   3.270   6.115   5.670
10280TIP3    H230784   3.222   6.258   5.657
10281TIP3   OH230785   5.713   0.759   1.989
10281TIP3    H130786   5.809   0.757   1.981
10281TIP3    H230787   5.686   0.832   1.933
10282TIP3   OH230788   1.014   0.878   6.341
10282TIP3    H130789   1.101   0.903   6.311
10282TIP3    H230790   0.954   0.919   6.278
10283TIP3   OH230791   6.109   1.543   4.487
10283TIP3    H130792   6.160   1.475   4.443
10283TIP3    H230793   6.064   1.589   4.417
10284TIP3   OH230794   6.182   2.152   1.134
10284TIP3    H130795   6.254   2.141   1.195
10284TIP3    H230796   6.205   2.229   1.082
10285TIP3   OH230797   8.164   0.791   5.607
10285TIP3    H130798   8.074   0.824   5.603
10285TIP3    H230799   8.191   0.805   5.698
10286TIP3   OH230800   6.577   2.021   5.661
10286TIP3    H130801   6.520   2.087   5.700
10286TIP3    H230802   6.572   2.038   5.567
10287TIP3   OH230803   0.172   6.200   2.600
10287TIP3    H130804   0.174   6.294   2.584
10287TIP3    H230805   0.156   6.161   2.515
10288TIP3   OH230806   0.523   0.810   0.483
10288TIP3    H130807   0.600   0.865   0.467
10288TIP3    H230808   0.468   0.863   0.541
10289TIP3   OH230809   6.330   7.199   5.651
10289TIP3    H130810   6.390   7.131   5.622
10289TIP3    H230811   6.349   7.209   5.745
10290TIP3   OH230812   0.207   2.741   1.259
10290TIP3    H130813   0.213   2.811   1.323
10290TIP3    H230814   0.248   2.777   1.180
10291TIP3   OH230815   5.083   6.190   6.526
10291TIP3    H130816   5.002   6.231   6.557
10291TIP3    H230817   5.128   6.163   6.606
10292TIP3   OH230818   3.565   7.716   2.914
10292TIP3    H130819   3.538   7.624   2.908
10292TIP3    H230820   3.625   7.718   2.989
10293TIP3   OH230821   1.318   7.776   4.999
10293TIP3    H130822   1.341   7.705   5.059
10293TIP3    H230823   1.241   7.817   5.038
10294TIP3   OH230824   7.608   2.867   4.940
10294TIP3    H130825   7.636   2.868   4.848
10294TIP3    H230826   7.534   2.807   4.942
10295TIP3   OH230827   2.633   7.416   5.837
10295TIP3    H130828   2.710   7.394   5.890
10295TIP3    H230829   2.669   7.451   5.755
10296TIP3   OH230830   4.211   2.951   6.023
10296TIP3    H130831   4.189   2.962   6.116
10296TIP3    H230832   4.155   2.881   5.993
10297TIP3   OH230833   5.827   3.630   2.028
10297TIP3    H130834   5.788   3.568   1.966
10297TIP3    H230835   5.752   3.680   2.061
10298TIP3   OH230836   2.871   3.247   5.259
10298TIP3    H130837   2.874   3.227   5.165
10298TIP3    H230838   2.960   3.231   5.290
10299TIP3   OH230839   5.483   4.979   1.867
10299TIP3    H130840   5.495   5.074   1.873
10299TIP3    H230841   5.388   4.968   1.857
10300TIP3   OH230842   1.250   2.507   3.792
10300TIP3    H130843   1.274   2.558   3.715
10300TIP3    H230844   1.170   2.461   3.767
10301TIP3   OH230845   3.657   7.014   5.903
10301TIP3    H130846   3.745   6.987   5.874
10301TIP3    H230847   3.672   7.097   5.949
10302TIP3   OH230848   8.241   0.780   2.766
10302TIP3    H130849   8.317   0.816   2.721
10302TIP3    H230850   8.186   0.856   2.784
10303TIP3   OH230851   2.556   7.858   4.196
10303TIP3    H130852   2.501   7.786   4.164
10303TIP3    H230853   2.602   7.821   4.272
10304TIP3   OH230854   3.178   3.906   3.435
10304TIP3    H130855   3.163   3.945   3.521
10304TIP3    H230856   3.100   3.854   3.418
10305TIP3   OH230857   3.946   7.275   2.911
10305TIP3    H130858   3.860   7.274   2.870
10305TIP3    H230859   4.008   7.282   2.838
10306TIP3   OH230860   0.388   6.093   1.639
10306TIP3    H130861   0.367   6.086   1.732
10306TIP3    H230862   0.305   6.113   1.596
10307TIP3   OH230863   5.037   3.957   0.199
10307TIP3    H130864   5.063   3.866   0.213
10307TIP3    H230865   5.113   3.997   0.157
10308TIP3   OH230866   7.095   6.444   5.403
10308TIP3    H130867   7.177   6.435   5.354
10308TIP3    H230868   7.115   6.409   5.490
10309TIP3   OH230869   6.318   5.661   3.409
10309TIP3    H130870   6.347   5.574   3.383
10309TIP3    H230871   6.386   5.692   3.469
10310TIP3   OH230872   6.255   0.225   6.538
10310TIP3    H130873   6.167   0.256   6.558
10310TIP3    H230874   6.310   0.263   6.607
10311TIP3   OH230875   1.643   7.076   4.749
10311TIP3    H130876   1.564   7.029   4.775
10311TIP3    H230877   1.648   7.150   4.810
10312TIP3   OH230878   5.636   0.466   2.845
10312TIP3    H130879   5.585   0.487   2.923
10312TIP3    H230880   5.705   0.407   2.877
10313TIP3   OH230881   2.937   7.675   1.689
10313TIP3    H130882   3.025   7.638   1.676
10313TIP3    H230883   2.890   7.654   1.609
10314TIP3   OH230884   4.051   7.414   4.031
10314TIP3    H130885   4.034   7.420   3.937
10314TIP3    H230886   3.975   7.454   4.072
10315TIP3   OH230887   2.022  -0.024   3.335
10315TIP3    H130888   2.011   0.035   3.261
10315TIP3    H230889   2.009   0.031   3.412
10316TIP3   OH230890   1.550   3.250   3.501
10316TIP3    H130891   1.466   3.204   3.504
10316TIP3    H230892   1.565   3.277   3.592
10317TIP3   OH230893   4.525   2.495   2.787
10317TIP3    H130894   4.466   2.559   2.747
10317TIP3    H230895   4.608   2.542   2.798
10318TIP3   OH230896   3.074   0.616   4.089
10318TIP3    H130897   3.049   0.599   4.180
10318TIP3    H230898   2.993   0.603   4.039
10319TIP3   OH230899   8.082   4.245   0.163
10319TIP3    H130900   8.116   4.328   0.198
10319TIP3    H230901   8.042   4.202   0.238
10320TIP3   OH230902   1.453   6.824   4.810
10320TIP3    H130903   1.492   6.793   4.728
10320TIP3    H230904   1.399   6.750   4.840
10321TIP3   OH230905   4.673   7.032   5.339
10321TIP3    H130906   4.761   7.024   5.376
10321TIP3    H230907   4.670   6.965   5.271
10322TIP3   OH230908   4.888   2.801   3.887
10322TIP3    H130909   4.841   2.720   3.865
10322TIP3    H230910   4.905   2.793   3.981
10323TIP3   OH230911   3.582   7.645   2.443
10323TIP3    H130912   3.590   7.716   2.506
10323TIP3    H230913   3.595   7.686   2.358
10324TIP3   OH230914   2.426   5.977   0.366
10324TIP3    H130915   2.385   5.999   0.283
10324TIP3    H230916   2.503   5.925   0.342
10325TIP3   OH230917   2.842   2.842   0.049
10325TIP3    H130918   2.849   2.819  -0.044
10325TIP3    H230919   2.796   2.768   0.089
10326TIP3   OH230920   1.410   2.649   1.655
10326TIP3    H130921   1.436   2.687   1.739
10326TIP3    H230922   1.410   2.723   1.594
10327TIP3   OH230923   5.687   0.655   2.633
10327TIP3    H130924   5.671   0.605   2.713
10327TIP3    H230925   5.645   0.604   2.564
10328TIP3   OH230926   0.292   4.231   4.496
10328TIP3    H130927   0.299   4.326   4.486
10328TIP3    H230928   0.247   4.203   4.416
10329TIP3   OH230929   7.022   2.230   4.834
10329TIP3    H130930   7.033   2.149   4.885
10329TIP3    H230931   7.081   2.219   4.759
10330TIP3   OH230932   7.741   0.391   4.608
10330TIP3    H130933   7.734   0.377   4.702
10330TIP3    H230934   7.832   0.417   4.595
10331TIP3   OH230935   3.591   4.470   1.953
10331TIP3    H130936   3.610   4.475   1.859
10331TIP3    H230937   3.631   4.388   1.981
10332TIP3   OH230938   3.483   2.864   3.391
10332TIP3    H130939   3.428   2.791   3.419
10332TIP3    H230940   3.423   2.938   3.382
10333TIP3   OH230941   6.812   6.119   0.202
10333TIP3    H130942   6.903   6.100   0.226
10333TIP3    H230943   6.790   6.196   0.253
10334TIP3   OH230944   1.016   4.007   4.576
10334TIP3    H130945   1.037   4.065   4.503
10334TIP3    H230946   0.987   4.066   4.646
10335TIP3   OH230947   0.696   5.814   0.814
10335TIP3    H130948   0.777   5.764   0.824
10335TIP3    H230949   0.627   5.753   0.841
10336TIP3   OH230950   3.731   2.804   3.304
10336TIP3    H130951   3.640   2.816   3.333
10336TIP3    H230952   3.727   2.820   3.210
10337TIP3   OH230953   0.327   1.805   1.775
10337TIP3    H130954   0.249   1.751   1.760
10337TIP3    H230955   0.294   1.886   1.814
10338TIP3   OH230956   5.338   6.500   0.768
10338TIP3    H130957   5.412   6.515   0.827
10338TIP3    H230958   5.375   6.445   0.698
10339TIP3   OH230959   6.824   5.160   5.176
10339TIP3    H130960   6.790   5.116   5.098
10339TIP3    H230961   6.796   5.106   5.249
10340TIP3   OH230962   1.397   2.278   2.936
10340TIP3    H130963   1.378   2.290   2.843
10340TIP3    H230964   1.379   2.186   2.952
10341TIP3   OH230965   6.945   2.530   4.595
10341TIP3    H130966   6.878   2.487   4.648
10341TIP3    H230967   6.905   2.540   4.509
10342TIP3   OH230968   3.973   1.572  -0.005
10342TIP3    H130969   4.032   1.646   0.010
10342TIP3    H230970   3.898   1.588   0.052
10343TIP3   OH230971   3.944   7.552   2.402
10343TIP3    H130972   4.035   7.540   2.430
10343TIP3    H230973   3.933   7.491   2.329
10344TIP3   OH230974   1.303   1.631   1.797
10344TIP3    H130975   1.224   1.663   1.754
10344TIP3    H230976   1.370   1.633   1.728
10345TIP3   OH230977   1.345   2.792   4.428
10345TIP3    H130978   1.436   2.810   4.453
10345TIP3    H230979   1.294   2.857   4.477
10346TIP3   OH230980   6.222   3.136   0.437
10346TIP3    H130981   6.307   3.149   0.395
10346TIP3    H230982   6.207   3.042   0.432
10347TIP3   OH230983   4.573   3.598   2.874
10347TIP3    H130984   4.587   3.679   2.825
10347TIP3    H230985   4.478   3.583   2.869
10348TIP3   OH230986   0.230   5.719   0.812
10348TIP3    H130987   0.220   5.671   0.894
10348TIP3    H230988   0.274   5.801   0.838
10349TIP3   OH230989   0.777   2.693   3.752
10349TIP3    H130990   0.716   2.620   3.766
10349TIP3    H230991   0.764   2.718   3.661
10350TIP3   OH230992   0.822   4.774   3.112
10350TIP3    H130993   0.857   4.686   3.103
10350TIP3    H230994   0.774   4.773   3.195
10351TIP3   OH230995   3.178   1.791   3.543
10351TIP3    H130996   3.261   1.773   3.500
10351TIP3    H230997   3.164   1.715   3.600
10352TIP3   OH230998   6.237   4.041   4.003
10352TIP3    H130999   6.167   3.978   3.985
10352TIP3    H231000   6.276   4.057   3.917
10353TIP3   OH231001   3.439   5.186   4.637
10353TIP3    H131002   3.388   5.129   4.580
10353TIP3    H231003   3.451   5.266   4.585
10354TIP3   OH231004   2.808   3.623   4.184
10354TIP3    H131005   2.776   3.709   4.212
10354TIP3    H231006   2.779   3.563   4.253
10355TIP3   OH231007   3.674   7.248   6.054
10355TIP3    H131008   3.724   7.328   6.035
10355TIP3    H231009   3.585   7.280   6.070
10356TIP3   OH231010   7.726   5.952   0.747
10356TIP3    H131011   7.705   5.869   0.790
10356TIP3    H231012   7.789   5.994   0.806
10357TIP3   OH231013   1.199   1.520   5.456
10357TIP3    H131014   1.199   1.485   5.367
10357TIP3    H231015   1.194   1.443   5.513
10358TIP3   OH231016   5.101   0.544   5.701
10358TIP3    H131017   5.055   0.479   5.647
10358TIP3    H231018   5.056   0.540   5.785
10359TIP3   OH231019   0.539   5.641   0.465
10359TIP3    H131020   0.526   5.685   0.381
10359TIP3    H231021   0.588   5.562   0.444
10360TIP3   OH231022   6.396   2.351   4.701
10360TIP3    H131023   6.303   2.356   4.679
10360TIP3    H231024   6.433   2.432   4.665
10361TIP3   OH231025   8.025   4.553   5.445
10361TIP3    H131026   8.107   4.601   5.452
10361TIP3    H231027   7.957   4.621   5.443
10362TIP3   OH231028   7.303   3.653   0.110
10362TIP3    H131029   7.391   3.617   0.097
10362TIP3    H231030   7.257   3.585   0.160
10363TIP3   OH231031   7.183   2.190   5.474
10363TIP3    H131032   7.183   2.127   5.546
10363TIP3    H231033   7.275   2.213   5.462
10364TIP3   OH231034   7.379   3.328   3.607
10364TIP3    H131035   7.342   3.383   3.538
10364TIP3    H231036   7.445   3.384   3.649
10365TIP3   OH231037   7.566   5.555   5.217
10365TIP3    H131038   7.518   5.638   5.225
10365TIP3    H231039   7.498   5.488   5.214
10366TIP3   OH231040   6.462   7.468   4.871
10366TIP3    H131041   6.482   7.535   4.937
10366TIP3    H231042   6.489   7.386   4.912
10367TIP3   OH231043   4.308   7.372   2.953
10367TIP3    H131044   4.365   7.419   3.014
10367TIP3    H231045   4.367   7.335   2.888
10368TIP3   OH231046   5.828   5.095   1.244
10368TIP3    H131047   5.867   5.078   1.330
10368TIP3    H231048   5.746   5.047   1.245
10369TIP3   OH231049   5.306   0.045   2.690
10369TIP3    H131050   5.377   0.107   2.669
10369TIP3    H231051   5.251   0.092   2.753
10370TIP3   OH231052   2.004   6.351   1.709
10370TIP3    H131053   2.094   6.346   1.676
10370TIP3    H231054   2.005   6.424   1.771
10371TIP3   OH231055   7.396   0.943   5.930
10371TIP3    H131056   7.356   1.030   5.930
10371TIP3    H231057   7.322   0.883   5.944
10372TIP3   OH231058   1.014   0.122   0.479
10372TIP3    H131059   0.978   0.159   0.560
10372TIP3    H231060   1.082   0.184   0.452
10373TIP3   OH231061   2.711   5.486   1.953
10373TIP3    H131062   2.732   5.555   2.017
10373TIP3    H231063   2.766   5.506   1.878
10374TIP3   OH231064   1.088   3.056   3.908
10374TIP3    H131065   1.003   3.059   3.953
10374TIP3    H231066   1.126   3.142   3.925
10375TIP3   OH231067   0.139   4.134   2.686
10375TIP3    H131068   0.189   4.175   2.757
10375TIP3    H231069   0.052   4.173   2.693
10376TIP3   OH231070   8.192   3.394   2.571
10376TIP3    H131071   8.116   3.452   2.578
10376TIP3    H231072   8.237   3.405   2.655
10377TIP3   OH231073   4.249   1.377   6.159
10377TIP3    H131074   4.268   1.436   6.232
10377TIP3    H231075   4.161   1.344   6.176
10378TIP3   OH231076   3.167   7.014   3.456
10378TIP3    H131077   3.137   6.964   3.532
10378TIP3    H231078   3.234   6.959   3.416
10379TIP3   OH231079   4.104   6.614   2.223
10379TIP3    H131080   4.146   6.532   2.199
10379TIP3    H231081   4.082   6.603   2.316
10380TIP3   OH231082   2.253   4.895   6.407
10380TIP3    H131083   2.179   4.952   6.425
10380TIP3    H231084   2.214   4.809   6.392
10381TIP3   OH231085   4.643   1.441   6.775
10381TIP3    H131086   4.566   1.397   6.738
10381TIP3    H231087   4.717   1.393   6.738
10382TIP3   OH231088   3.042   2.927   4.816
10382TIP3    H131089   3.131   2.914   4.782
10382TIP3    H231090   3.012   2.838   4.837
10383TIP3   OH231091   6.764   3.306   2.388
10383TIP3    H131092   6.838   3.255   2.353
10383TIP3    H231093   6.719   3.338   2.310
10384TIP3   OH231094   5.115   4.240   2.162
10384TIP3    H131095   5.204   4.254   2.130
10384TIP3    H231096   5.126   4.207   2.251
10385TIP3   OH231097   4.396   5.594   3.187
10385TIP3    H131098   4.473   5.546   3.216
10385TIP3    H231099   4.405   5.601   3.092
10386TIP3   OH231100   8.239   2.955   0.231
10386TIP3    H131101   8.232   2.888   0.299
10386TIP3    H231102   8.254   2.906   0.150
10387TIP3   OH231103   3.495   6.463   1.306
10387TIP3    H131104   3.459   6.515   1.234
10387TIP3    H231105   3.589   6.461   1.290
10388TIP3   OH231106   4.683   2.657   0.366
10388TIP3    H131107   4.775   2.670   0.345
10388TIP3    H231108   4.650   2.598   0.299
10389TIP3   OH231109   1.199   6.360   2.760
10389TIP3    H131110   1.149   6.356   2.678
10389TIP3    H231111   1.212   6.454   2.775
10390TIP3   OH231112   7.563   0.582   2.644
10390TIP3    H131113   7.619   0.557   2.717
10390TIP3    H231114   7.625   0.611   2.576
10391TIP3   OH231115   0.392   2.991   1.052
10391TIP3    H131116   0.454   3.062   1.066
10391TIP3    H231117   0.447   2.915   1.030
10392TIP3   OH231118   1.824   6.253   6.131
10392TIP3    H131119   1.898   6.311   6.111
10392TIP3    H231120   1.771   6.253   6.051
10393TIP3   OH231121   2.942   6.027   3.011
10393TIP3    H131122   2.864   6.080   2.992
10393TIP3    H231123   3.015   6.088   2.999
10394TIP3   OH231124   0.114   4.110   0.376
10394TIP3    H131125   0.047   4.047   0.402
10394TIP3    H231126   0.084   4.193   0.413
10395TIP3   OH231127   5.506   6.865   4.139
10395TIP3    H131128   5.479   6.885   4.228
10395TIP3    H231129   5.459   6.786   4.116
10396TIP3   OH231130   5.471   0.945   1.544
10396TIP3    H131131   5.498   0.908   1.460
10396TIP3    H231132   5.405   1.010   1.521
10397TIP3   OH231133   1.144   2.587   1.329
10397TIP3    H131134   1.054   2.613   1.348
10397TIP3    H231135   1.187   2.668   1.302
10398TIP3   OH231136   7.147   6.246   3.367
10398TIP3    H131137   7.167   6.153   3.383
10398TIP3    H231138   7.108   6.276   3.448
10399TIP3   OH231139   5.561   3.583   1.258
10399TIP3    H131140   5.468   3.575   1.236
10399TIP3    H231141   5.592   3.493   1.268
10400TIP3   OH231142   5.404   5.864   1.638
10400TIP3    H131143   5.349   5.934   1.673
10400TIP3    H231144   5.493   5.890   1.661
10401TIP3   OH231145   1.990   1.838   2.935
10401TIP3    H131146   1.938   1.900   2.884
10401TIP3    H231147   1.941   1.826   3.016
10402TIP3   OH231148   2.017   6.163   2.573
10402TIP3    H131149   2.107   6.196   2.575
10402TIP3    H231150   2.015   6.102   2.499
10403TIP3   OH231151   2.289   0.358   4.219
10403TIP3    H131152   2.196   0.352   4.242
10403TIP3    H231153   2.290   0.386   4.128
10404TIP3   OH231154   5.215   4.570   4.806
10404TIP3    H131155   5.280   4.527   4.750
10404TIP3    H231156   5.156   4.500   4.834
10405TIP3   OH231157   3.102   6.063   2.428
10405TIP3    H131158   3.052   6.133   2.470
10405TIP3    H231159   3.116   6.094   2.339
10406TIP3   OH231160   4.386   5.447   0.383
10406TIP3    H131161   4.458   5.439   0.445
10406TIP3    H231162   4.347   5.532   0.402
10407TIP3   OH231163   2.681   3.868   1.639
10407TIP3    H131164   2.638   3.801   1.586
10407TIP3    H231165   2.666   3.841   1.729
10408TIP3   OH231166   6.405   2.763   3.683
10408TIP3    H131167   6.341   2.725   3.742
10408TIP3    H231168   6.356   2.823   3.628
10409TIP3   OH231169   5.615   0.202   1.330
10409TIP3    H131170   5.703   0.226   1.360
10409TIP3    H231171   5.629   0.145   1.255
10410TIP3   OH231172   8.190   0.991   2.441
10410TIP3    H131173   8.200   1.028   2.354
10410TIP3    H231174   8.275   1.004   2.482
10411TIP3   OH231175   6.129   1.706   6.163
10411TIP3    H131176   6.131   1.801   6.153
10411TIP3    H231177   6.066   1.676   6.097
10412TIP3   OH231178   1.813   5.237   4.014
10412TIP3    H131179   1.836   5.189   4.093
10412TIP3    H231180   1.879   5.305   4.007
10413TIP3   OH231181   0.134   1.715   5.556
10413TIP3    H131182   0.135   1.619   5.555
10413TIP3    H231183   0.204   1.740   5.496
10414TIP3   OH231184   4.541   0.405   1.999
10414TIP3    H131185   4.619   0.358   1.968
10414TIP3    H231186   4.503   0.347   2.065
10415TIP3   OH231187   4.627   4.763   4.803
10415TIP3    H131188   4.690   4.723   4.863
10415TIP3    H231189   4.622   4.703   4.730
10416TIP3   OH231190   3.397   4.765   1.361
10416TIP3    H131191   3.417   4.672   1.372
10416TIP3    H231192   3.419   4.784   1.270
10417TIP3   OH231193   3.889   3.731   6.672
10417TIP3    H131194   3.795   3.741   6.686
10417TIP3    H231195   3.898   3.703   6.581
10418TIP3   OH231196   1.023   7.094   1.349
10418TIP3    H131197   1.116   7.076   1.337
10418TIP3    H231198   0.985   7.086   1.262
10419TIP3   OH231199   2.085   4.449   4.058
10419TIP3    H131200   2.016   4.393   4.095
10419TIP3    H231201   2.141   4.470   4.133
10420TIP3   OH231202   6.241   5.317   0.453
10420TIP3    H131203   6.257   5.408   0.430
10420TIP3    H231204   6.171   5.321   0.518
10421TIP3   OH231205   6.355   1.550   0.899
10421TIP3    H131206   6.261   1.540   0.885
10421TIP3    H231207   6.395   1.492   0.834
10422TIP3   OH231208   1.121   6.498   4.677
10422TIP3    H131209   1.126   6.591   4.699
10422TIP3    H231210   1.036   6.489   4.633
10423TIP3   OH231211   1.964   1.981   0.848
10423TIP3    H131212   1.879   2.022   0.865
10423TIP3    H231213   1.973   1.985   0.753
10424TIP3   OH231214   1.869   7.616   2.795
10424TIP3    H131215   1.867   7.648   2.705
10424TIP3    H231216   1.805   7.544   2.797
10425TIP3   OH231217   8.284   7.094   3.741
10425TIP3    H131218   8.201   7.071   3.782
10425TIP3    H231219   8.321   7.162   3.796
10426TIP3   OH231220   5.628   0.973   2.359
10426TIP3    H131221   5.703   0.917   2.380
10426TIP3    H231222   5.611   1.021   2.440
10427TIP3   OH231223   2.066   2.809   2.011
10427TIP3    H131224   2.077   2.877   1.945
10427TIP3    H231225   2.085   2.853   2.094
10428TIP3   OH231226   6.800   0.522   0.775
10428TIP3    H131227   6.714   0.563   0.781
10428TIP3    H231228   6.782   0.433   0.745
10429TIP3   OH231229   5.333   5.237   2.386
10429TIP3    H131230   5.421   5.219   2.354
10429TIP3    H231231   5.347   5.282   2.469
10430TIP3   OH231232   2.567   6.387   0.155
10430TIP3    H131233   2.607   6.469   0.126
10430TIP3    H231234   2.520   6.355   0.078
10431TIP3   OH231235   7.249   1.634   5.503
10431TIP3    H131236   7.309   1.559   5.498
10431TIP3    H231237   7.211   1.628   5.591
10432TIP3   OH231238   2.050   4.167   3.816
10432TIP3    H131239   1.998   4.233   3.864
10432TIP3    H231240   1.988   4.096   3.800
10433TIP3   OH231241   0.927   7.814   0.080
10433TIP3    H131242   1.017   7.843   0.093
10433TIP3    H231243   0.926   7.722   0.108
10434TIP3   OH231244   7.927   5.814   0.407
10434TIP3    H131245   7.970   5.892   0.443
10434TIP3    H231246   7.891   5.843   0.323
10435TIP3   OH231247   3.067   6.377   3.085
10435TIP3    H131248   3.111   6.295   3.063
10435TIP3    H231249   3.055   6.421   3.000
10436TIP3   OH231250   3.155   5.105   4.512
10436TIP3    H131251   3.135   5.188   4.555
10436TIP3    H231252   3.073   5.079   4.470
10437TIP3   OH231253   5.310   0.440   0.294
10437TIP3    H131254   5.358   0.410   0.217
10437TIP3    H231255   5.359   0.403   0.368
10438TIP3   OH231256   4.578   1.667   4.747
10438TIP3    H131257   4.489   1.685   4.719
10438TIP3    H231258   4.595   1.577   4.718
10439TIP3   OH231259   1.490   6.745   2.466
10439TIP3    H131260   1.518   6.767   2.378
10439TIP3    H231261   1.396   6.725   2.458
10440TIP3   OH231262   3.123   7.262   4.341
10440TIP3    H131263   3.172   7.181   4.330
10440TIP3    H231264   3.188   7.331   4.329
10441TIP3   OH231265   3.771   7.323   5.766
10441TIP3    H131266   3.846   7.309   5.824
10441TIP3    H231267   3.784   7.261   5.694
10442TIP3   OH231268   0.283   4.446   4.167
10442TIP3    H131269   0.350   4.443   4.098
10442TIP3    H231270   0.223   4.515   4.139
10443TIP3   OH231271   0.314   4.362   6.189
10443TIP3    H131272   0.410   4.360   6.190
10443TIP3    H231273   0.290   4.432   6.249
10444TIP3   OH231274   1.886   2.929   0.200
10444TIP3    H131275   1.804   2.963   0.237
10444TIP3    H231276   1.890   2.966   0.112
10445TIP3   OH231277   7.387   2.636   3.883
10445TIP3    H131278   7.427   2.605   3.964
10445TIP3    H231279   7.430   2.587   3.814
10446TIP3   OH231280   0.437   4.337   5.747
10446TIP3    H131281   0.347   4.346   5.716
10446TIP3    H231282   0.437   4.257   5.799
10447TIP3   OH231283   6.827   1.018   3.110
10447TIP3    H131284   6.860   0.932   3.136
10447TIP3    H231285   6.905   1.072   3.101
10448TIP3   OH231286   6.329   7.128   1.373
10448TIP3    H131287   6.313   7.092   1.460
10448TIP3    H231288   6.301   7.219   1.379
10449TIP3   OH231289   3.521   5.980   2.040
10449TIP3    H131290   3.460   5.998   1.969
10449TIP3    H231291   3.467   5.944   2.110
10450TIP3   OH231292   5.123   7.321   4.712
10450TIP3    H131293   5.115   7.408   4.674
10450TIP3    H231294   5.139   7.336   4.805
10451TIP3   OH231295   1.150   3.207   1.345
10451TIP3    H131296   1.201   3.258   1.282
10451TIP3    H231297   1.190   3.226   1.430
10452TIP3   OH231298   2.820   4.048   1.450
10452TIP3    H131299   2.910   4.045   1.481
10452TIP3    H231300   2.769   4.007   1.520
10453TIP3   OH231301   3.912   3.819   4.910
10453TIP3    H131302   3.900   3.815   5.005
10453TIP3    H231303   3.922   3.727   4.883
10454TIP3   OH231304   3.716   5.276   4.695
10454TIP3    H131305   3.627   5.250   4.717
10454TIP3    H231306   3.710   5.312   4.607
10455TIP3   OH231307   6.088   4.441  -0.008
10455TIP3    H131308   6.177   4.452   0.025
10455TIP3    H231309   6.031   4.476   0.061
10456TIP3   OH231310   1.429   6.936   6.335
10456TIP3    H131311   1.435   6.979   6.421
10456TIP3    H231312   1.518   6.939   6.300
10457TIP3   OH231313   0.157   3.948   6.362
10457TIP3    H131314   0.252   3.954   6.355
10457TIP3    H231315   0.141   3.901   6.443
10458TIP3   OH231316   0.297   2.451   0.873
10458TIP3    H131317   0.353   2.496   0.935
10458TIP3    H231318   0.218   2.429   0.923
10459TIP3   OH231319   2.799   5.184   0.429
10459TIP3    H131320   2.796   5.125   0.354
10459TIP3    H231321   2.790   5.127   0.505
10460TIP3   OH231322  -0.012   7.496   2.173
10460TIP3    H131323  -0.044   7.584   2.153
10460TIP3    H231324   0.054   7.509   2.241
10461TIP3   OH231325   3.928   2.099   1.514
10461TIP3    H131326   3.917   2.141   1.599
10461TIP3    H231327   3.980   2.021   1.532
10462TIP3   OH231328   5.309   2.702   4.526
10462TIP3    H131329   5.313   2.628   4.465
10462TIP3    H231330   5.285   2.663   4.610
10463TIP3   OH231331   0.965   3.475   5.703
10463TIP3    H131332   0.922   3.515   5.778
10463TIP3    H231333   0.898   3.420   5.663
10464TIP3   OH231334   8.075   0.080   1.089
10464TIP3    H131335   7.992   0.035   1.075
10464TIP3    H231336   8.052   0.172   1.101
10465TIP3   OH231337   7.922   4.966   3.234
10465TIP3    H131338   7.988   5.034   3.246
10465TIP3    H231339   7.867   4.972   3.312
10466TIP3   OH231340   6.794   4.377   5.980
10466TIP3    H131341   6.722   4.377   5.917
10466TIP3    H231342   6.803   4.285   6.005
10467TIP3   OH231343   0.757   5.931   2.559
10467TIP3    H131344   0.844   5.970   2.574
10467TIP3    H231345   0.704   5.964   2.632
10468TIP3   OH231346   0.652   7.762   3.212
10468TIP3    H131347   0.578   7.712   3.176
10468TIP3    H231348   0.727   7.736   3.158
10469TIP3   OH231349   1.286   4.836   2.126
10469TIP3    H131350   1.204   4.830   2.077
10469TIP3    H231351   1.289   4.927   2.156
10470TIP3   OH231352   4.711   4.467   0.982
10470TIP3    H131353   4.674   4.511   1.058
10470TIP3    H231354   4.640   4.412   0.949
10471TIP3   OH231355   4.385   4.088   0.299
10471TIP3    H131356   4.334   4.169   0.293
10471TIP3    H231357   4.338   4.026   0.244
10472TIP3   OH231358   3.879   6.880   4.921
10472TIP3    H131359   3.796   6.832   4.921
10472TIP3    H231360   3.937   6.825   4.868
10473TIP3   OH231361   8.110   5.253   4.858
10473TIP3    H131362   8.072   5.233   4.772
10473TIP3    H231363   8.046   5.312   4.899
10474TIP3   OH231364   3.029   7.486   0.916
10474TIP3    H131365   2.974   7.454   0.988
10474TIP3    H231366   3.103   7.529   0.959
10475TIP3   OH231367   5.290   0.949   0.497
10475TIP3    H131368   5.374   0.965   0.540
10475TIP3    H231369   5.284   0.853   0.493
10476TIP3   OH231370   6.374   0.310   4.090
10476TIP3    H131371   6.379   0.405   4.094
10476TIP3    H231372   6.302   0.287   4.149
10477TIP3   OH231373   5.277   5.091   4.642
10477TIP3    H131374   5.221   5.139   4.582
10477TIP3    H231375   5.359   5.079   4.594
10478TIP3   OH231376   8.184   6.390   5.320
10478TIP3    H131377   8.176   6.343   5.237
10478TIP3    H231378   8.263   6.355   5.360
10479TIP3   OH231379   8.122   6.938   5.868
10479TIP3    H131380   8.060   6.944   5.795
10479TIP3    H231381   8.207   6.955   5.829
10480TIP3   OH231382   3.271   3.693   0.217
10480TIP3    H131383   3.191   3.670   0.170
10480TIP3    H231384   3.266   3.788   0.227
10481TIP3   OH231385   0.072   1.090   0.956
10481TIP3    H131386   0.152   1.129   0.993
10481TIP3    H231387   0.003   1.116   1.017
10482TIP3   OH231388   3.057   2.399   4.808
10482TIP3    H131389   3.104   2.391   4.891
10482TIP3    H231390   3.005   2.318   4.802
10483TIP3   OH231391   6.747   4.245   2.949
10483TIP3    H131392   6.751   4.339   2.968
10483TIP3    H231393   6.659   4.219   2.976
10484TIP3   OH231394   7.652   0.665   3.095
10484TIP3    H131395   7.589   0.735   3.114
10484TIP3    H231396   7.637   0.599   3.162
10485TIP3   OH231397   2.220   5.603   1.250
10485TIP3    H131398   2.302   5.559   1.274
10485TIP3    H231399   2.214   5.676   1.312
10486TIP3   OH231400   0.259   3.158   5.043
10486TIP3    H131401   0.248   3.239   5.092
10486TIP3    H231402   0.254   3.184   4.951
10487TIP3   OH231403   1.206   1.572   6.512
10487TIP3    H131404   1.186   1.574   6.605
10487TIP3    H231405   1.295   1.538   6.507
10488TIP3   OH231406   4.932   6.167   3.394
10488TIP3    H131407   4.839   6.178   3.375
10488TIP3    H231408   4.976   6.185   3.311
10489TIP3   OH231409   2.724   2.615   0.162
10489TIP3    H131410   2.643   2.619   0.112
10489TIP3    H231411   2.786   2.570   0.105
10490TIP3   OH231412   7.824   1.622   3.513
10490TIP3    H131413   7.889   1.552   3.522
10490TIP3    H231414   7.877   1.701   3.500
10491TIP3   OH231415   6.474   5.946   0.968
10491TIP3    H131416   6.523   5.880   0.919
10491TIP3    H231417   6.385   5.940   0.935
10492TIP3   OH231418   1.377   0.533   1.511
10492TIP3    H131419   1.450   0.495   1.462
10492TIP3    H231420   1.395   0.510   1.602
10493TIP3   OH231421   2.607   6.397   2.742
10493TIP3    H131422   2.628   6.487   2.768
10493TIP3    H231423   2.530   6.375   2.794
10494TIP3   OH231424   1.158   5.503   6.502
10494TIP3    H131425   1.086   5.545   6.455
10494TIP3    H231426   1.179   5.425   6.450
10495TIP3   OH231427   5.896   1.264   1.111
10495TIP3    H131428   5.912   1.171   1.100
10495TIP3    H231429   5.875   1.295   1.022
10496TIP3   OH231430   2.810   3.944   3.362
10496TIP3    H131431   2.795   3.952   3.456
10496TIP3    H231432   2.812   4.034   3.330
10497TIP3   OH231433   5.734   3.401   1.056
10497TIP3    H131434   5.824   3.385   1.030
10497TIP3    H231435   5.683   3.385   0.976
10498TIP3   OH231436   0.562   1.798   5.935
10498TIP3    H131437   0.491   1.785   5.872
10498TIP3    H231438   0.628   1.847   5.885
10499TIP3   OH231439   0.465   6.755   2.447
10499TIP3    H131440   0.524   6.831   2.450
10499TIP3    H231441   0.485   6.706   2.527
10500TIP3   OH231442   6.082   1.454   1.800
10500TIP3    H131443   6.016   1.513   1.764
10500TIP3    H231444   6.104   1.396   1.727
10501TIP3   OH231445   2.682   1.730   6.179
10501TIP3    H131446   2.708   1.659   6.121
10501TIP3    H231447   2.753   1.737   6.242
10502TIP3   OH231448   2.171   0.936   5.224
10502TIP3    H131449   2.199   1.004   5.162
10502TIP3    H231450   2.101   0.890   5.179
10503TIP3   OH231451   7.316   4.469   1.687
10503TIP3    H131452   7.342   4.384   1.650
10503TIP3    H231453   7.395   4.501   1.730
10504TIP3   OH231454   1.017   6.101   1.564
10504TIP3    H131455   0.962   6.087   1.641
10504TIP3    H231456   0.989   6.185   1.529
10505TIP3   OH231457   0.330   1.510   2.406
10505TIP3    H131458   0.350   1.468   2.490
10505TIP3    H231459   0.289   1.440   2.354
10506TIP3   OH231460   6.179   0.617   6.708
10506TIP3    H131461   6.270   0.637   6.685
10506TIP3    H231462   6.130   0.694   6.682
10507TIP3   OH231463   7.136   4.049   0.873
10507TIP3    H131464   7.051   4.073   0.910
10507TIP3    H231465   7.118   4.032   0.780
10508TIP3   OH231466   3.399   2.553   1.218
10508TIP3    H131467   3.461   2.608   1.170
10508TIP3    H231468   3.422   2.464   1.194
10509TIP3   OH231469   2.014   4.417   4.904
10509TIP3    H131470   2.085   4.444   4.962
10509TIP3    H231471   1.943   4.392   4.963
10510TIP3   OH231472   3.716   4.580   3.752
10510TIP3    H131473   3.664   4.508   3.716
10510TIP3    H231474   3.699   4.578   3.846
10511TIP3   OH231475   5.163   4.937   4.453
10511TIP3    H131476   5.205   4.991   4.386
10511TIP3    H231477   5.223   4.940   4.527
10512TIP3   OH231478   1.850   6.089   5.406
10512TIP3    H131479   1.876   6.153   5.471
10512TIP3    H231480   1.782   6.037   5.448
10513TIP3   OH231481   4.179   0.914   4.716
10513TIP3    H131482   4.265   0.890   4.749
10513TIP3    H231483   4.125   0.925   4.794
10514TIP3   OH231484   3.022   3.285   1.962
10514TIP3    H131485   2.958   3.349   1.995
10514TIP3    H231486   3.097   3.294   2.021
10515TIP3   OH231487   7.626   4.516   1.433
10515TIP3    H131488   7.619   4.533   1.527
10515TIP3    H231489   7.539   4.537   1.399
10516TIP3   OH231490   7.539   0.284   2.600
10516TIP3    H131491   7.582   0.327   2.525
10516TIP3    H231492   7.612   0.257   2.656
10517TIP3   OH231493   2.216   1.721   0.409
10517TIP3    H131494   2.179   1.656   0.349
10517TIP3    H231495   2.309   1.722   0.388
10518TIP3   OH231496   8.298   4.756   4.851
10518TIP3    H131497   8.205   4.746   4.875
10518TIP3    H231498   8.342   4.684   4.895
10519TIP3   OH231499   5.396   7.237   1.555
10519TIP3    H131500   5.346   7.200   1.627
10519TIP3    H231501   5.481   7.261   1.594
10520TIP3   OH231502   4.127   1.217   0.607
10520TIP3    H131503   4.122   1.126   0.577
10520TIP3    H231504   4.194   1.216   0.675
10521TIP3   OH231505   5.724   5.431   2.282
10521TIP3    H131506   5.686   5.344   2.300
10521TIP3    H231507   5.652   5.492   2.301
10522TIP3   OH231508   2.205   0.657   4.347
10522TIP3    H131509   2.222   0.688   4.258
10522TIP3    H231510   2.117   0.619   4.341
10523TIP3   OH231511   0.135   6.198   6.078
10523TIP3    H131512   0.172   6.195   5.990
10523TIP3    H231513   0.160   6.115   6.117
10524TIP3   OH231514   0.653   3.356   0.314
10524TIP3    H131515   0.595   3.312   0.376
10524TIP3    H231516   0.728   3.297   0.305
10525TIP3   OH231517   8.294   2.645   4.891
10525TIP3    H131518   8.228   2.666   4.825
10525TIP3    H231519   8.264   2.562   4.929
10526TIP3   OH231520   0.485   0.859   1.561
10526TIP3    H131521   0.391   0.842   1.552
10526TIP3    H231522   0.504   0.843   1.653
10527TIP3   OH231523   5.760   7.461   1.577
10527TIP3    H131524   5.732   7.415   1.497
10527TIP3    H231525   5.833   7.408   1.610
10528TIP3   OH231526   3.217   3.171   4.507
10528TIP3    H131527   3.201   3.104   4.441
10528TIP3    H231528   3.271   3.128   4.573
10529TIP3   OH231529   6.453   3.622   3.623
10529TIP3    H131530   6.431   3.703   3.669
10529TIP3    H231531   6.405   3.627   3.540
10530TIP3   OH231532   4.123   0.917   2.100
10530TIP3    H131533   4.049   0.952   2.049
10530TIP3    H231534   4.107   0.948   2.189
10531TIP3   OH231535   8.264   2.423   6.325
10531TIP3    H131536   8.353   2.457   6.328
10531TIP3    H231537   8.254   2.389   6.236
10532TIP3   OH231538   3.054   4.017   1.593
10532TIP3    H131539   3.088   3.945   1.646
10532TIP3    H231540   3.020   4.080   1.656
10533TIP3   OH231541   0.269   2.103   5.377
10533TIP3    H131542   0.305   2.038   5.317
10533TIP3    H231543   0.193   2.060   5.416
10534TIP3   OH231544   2.504   3.128   1.676
10534TIP3    H131545   2.486   3.191   1.605
10534TIP3    H231546   2.455   3.162   1.751
10535TIP3   OH231547   5.719   3.781   5.922
10535TIP3    H131548   5.704   3.843   5.850
10535TIP3    H231549   5.788   3.723   5.889
10536TIP3   OH231550   3.235   0.939   4.684
10536TIP3    H131551   3.202   0.963   4.771
10536TIP3    H231552   3.254   1.023   4.642
10537TIP3   OH231553   6.624   5.379   4.564
10537TIP3    H131554   6.703   5.326   4.576
10537TIP3    H231555   6.572   5.332   4.499
10538TIP3   OH231556   7.620   1.066   1.573
10538TIP3    H131557   7.568   1.072   1.493
10538TIP3    H231558   7.649   1.156   1.590
10539TIP3   OH231559   5.956   5.287   5.415
10539TIP3    H131560   5.942   5.275   5.321
10539TIP3    H231561   6.002   5.371   5.422
10540TIP3   OH231562   1.073   5.687   4.761
10540TIP3    H131563   1.098   5.766   4.712
10540TIP3    H231564   1.139   5.678   4.829
10541TIP3   OH231565   5.681   3.086   1.890
10541TIP3    H131566   5.707   3.169   1.930
10541TIP3    H231567   5.600   3.106   1.843
10542TIP3   OH231568   0.410   6.707   3.634
10542TIP3    H131569   0.395   6.799   3.612
10542TIP3    H231570   0.459   6.710   3.716
10543TIP3   OH231571   3.081   4.234   3.442
10543TIP3    H131572   3.016   4.240   3.372
10543TIP3    H231573   3.074   4.317   3.489
10544TIP3   OH231574   4.374   0.362   4.249
10544TIP3    H131575   4.450   0.420   4.233
10544TIP3    H231576   4.354   0.326   4.162
10545TIP3   OH231577   3.851   4.493   1.763
10545TIP3    H131578   3.849   4.420   1.701
10545TIP3    H231579   3.800   4.562   1.720
10546TIP3   OH231580   5.310   7.173   4.236
10546TIP3    H131581   5.225   7.146   4.203
10546TIP3    H231582   5.293   7.255   4.282
10547TIP3   OH231583   7.711   1.973   2.846
10547TIP3    H131584   7.616   1.961   2.841
10547TIP3    H231585   7.730   1.973   2.940
10548TIP3   OH231586   4.356   0.911   3.910
10548TIP3    H131587   4.301   0.943   3.982
10548TIP3    H231588   4.446   0.922   3.942
10549TIP3   OH231589   0.617   7.580   6.061
10549TIP3    H131590   0.589   7.488   6.061
10549TIP3    H231591   0.622   7.604   6.154
10550TIP3   OH231592   0.076   7.307   3.060
10550TIP3    H131593   0.017   7.343   3.126
10550TIP3    H231594   0.154   7.281   3.109
10551TIP3   OH231595   6.405   1.524   4.140
10551TIP3    H131596   6.349   1.504   4.065
10551TIP3    H231597   6.480   1.465   4.131
10552TIP3   OH231598   3.950   5.856   4.489
10552TIP3    H131599   4.008   5.932   4.489
10552TIP3    H231600   3.964   5.816   4.403
10553TIP3   OH231601   6.999   0.053   0.494
10553TIP3    H131602   6.929  -0.008   0.521
10553TIP3    H231603   7.075   0.024   0.544
10554TIP3   OH231604   6.091   5.948   2.542
10554TIP3    H131605   6.104   5.930   2.635
10554TIP3    H231606   6.165   6.003   2.517
10555TIP3   OH231607   8.005   0.699   5.270
10555TIP3    H131608   7.975   0.758   5.339
10555TIP3    H231609   7.929   0.643   5.252
10556TIP3   OH231610   5.993   1.535   0.102
10556TIP3    H131611   6.083   1.544   0.071
10556TIP3    H231612   5.980   1.611   0.159
10557TIP3   OH231613   3.229   3.589   1.679
10557TIP3    H131614   3.159   3.643   1.644
10557TIP3    H231615   3.205   3.574   1.771
10558TIP3   OH231616   5.856   4.331   0.561
10558TIP3    H131617   5.877   4.336   0.468
10558TIP3    H231618   5.770   4.371   0.568
10559TIP3   OH231619   8.196   0.499   4.598
10559TIP3    H131620   8.240   0.563   4.653
10559TIP3    H231621   8.241   0.503   4.514
10560TIP3   OH231622   7.905   5.130   5.659
10560TIP3    H131623   7.969   5.090   5.599
10560TIP3    H231624   7.852   5.187   5.604
10561TIP3   OH231625   4.134   6.967   5.068
10561TIP3    H131626   4.137   6.882   5.110
10561TIP3    H231627   4.050   6.969   5.022
10562TIP3   OH231628   3.154   4.619   5.050
10562TIP3    H131629   3.185   4.529   5.040
10562TIP3    H231630   3.114   4.640   4.966
10563TIP3   OH231631   6.597   1.465   5.497
10563TIP3    H131632   6.648   1.386   5.511
10563TIP3    H231633   6.506   1.437   5.502
10564TIP3   OH231634   5.678   2.698   6.669
10564TIP3    H131635   5.624   2.634   6.716
10564TIP3    H231636   5.765   2.688   6.706
10565TIP3   OH231637   8.060   7.616   0.837
10565TIP3    H131638   8.143   7.572   0.816
10565TIP3    H231639   7.997   7.576   0.777
10566TIP3   OH231640   5.861   4.530   2.715
10566TIP3    H131641   5.897   4.613   2.683
10566TIP3    H231642   5.790   4.556   2.774
10567TIP3   OH231643   0.110   0.011   5.281
10567TIP3    H131644   0.170  -0.049   5.237
10567TIP3    H231645   0.023  -0.012   5.248
10568TIP3   OH231646   6.335   1.569   6.057
10568TIP3    H131647   6.257   1.589   6.108
10568TIP3    H231648   6.368   1.654   6.029
10569TIP3   OH231649   3.874   2.860   1.200
10569TIP3    H131650   3.807   2.883   1.264
10569TIP3    H231651   3.931   2.798   1.246
10570TIP3   OH231652   2.464   7.251   3.180
10570TIP3    H131653   2.470   7.271   3.273
10570TIP3    H231654   2.379   7.207   3.171
10571TIP3   OH231655   2.498   4.960   5.079
10571TIP3    H131656   2.577   4.919   5.115
10571TIP3    H231657   2.487   4.919   4.993
10572TIP3   OH231658   8.237   7.772   2.134
10572TIP3    H131659   8.271   7.810   2.053
10572TIP3    H231660   8.291   7.809   2.203
10573TIP3   OH231661   3.223   0.627   1.930
10573TIP3    H131662   3.299   0.569   1.921
10573TIP3    H231663   3.249   0.689   1.999
10574TIP3   OH231664   1.188   5.312   5.744
10574TIP3    H131665   1.132   5.389   5.756
10574TIP3    H231666   1.237   5.305   5.826
10575TIP3   OH231667   5.827   2.622   0.481
10575TIP3    H131668   5.792   2.593   0.397
10575TIP3    H231669   5.752   2.621   0.540
10576TIP3   OH231670   7.085   3.947   6.416
10576TIP3    H131671   6.998   3.984   6.399
10576TIP3    H231672   7.113   3.989   6.498
10577TIP3   OH231673   4.536   6.685   5.987
10577TIP3    H131674   4.457   6.732   6.015
10577TIP3    H231675   4.522   6.670   5.893
10578TIP3   OH231676   0.235   0.638   0.416
10578TIP3    H131677   0.199   0.593   0.339
10578TIP3    H231678   0.318   0.675   0.385
10579TIP3   OH231679   0.283   4.081   2.435
10579TIP3    H131680   0.239   4.092   2.520
10579TIP3    H231681   0.228   4.130   2.374
10580TIP3   OH231682   1.497   2.478   3.557
10580TIP3    H131683   1.424   2.491   3.497
10580TIP3    H231684   1.571   2.521   3.514
10581TIP3   OH231685   7.407   4.388   3.887
10581TIP3    H131686   7.356   4.314   3.920
10581TIP3    H231687   7.382   4.395   3.795
10582TIP3   OH231688   6.586   3.081   2.481
10582TIP3    H131689   6.566   3.028   2.403
10582TIP3    H231690   6.646   3.148   2.449
10583TIP3   OH231691   0.328   7.403   6.551
10583TIP3    H131692   0.306   7.362   6.468
10583TIP3    H231693   0.329   7.497   6.533
10584TIP3   OH231694   8.201   3.069   4.662
10584TIP3    H131695   8.242   3.088   4.578
10584TIP3    H231696   8.270   3.028   4.714
10585TIP3   OH231697   7.420   7.504   4.236
10585TIP3    H131698   7.425   7.526   4.143
10585TIP3    H231699   7.329   7.476   4.249
10586TIP3   OH231700   6.363   0.397   1.157
10586TIP3    H131701   6.417   0.321   1.179
10586TIP3    H231702   6.425   0.470   1.153
10587TIP3   OH231703   3.633   7.527   1.998
10587TIP3    H131704   3.726   7.513   1.978
10587TIP3    H231705   3.618   7.474   2.077
10588TIP3   OH231706   0.142   0.430   6.379
10588TIP3    H131707   0.055   0.457   6.409
10588TIP3    H231708   0.130   0.410   6.286
10589TIP3   OH231709   7.420   7.071   0.606
10589TIP3    H131710   7.427   7.144   0.667
10589TIP3    H231711   7.357   7.101   0.540
10590TIP3   OH231712   2.307   1.341   3.014
10590TIP3    H131713   2.335   1.431   3.032
10590TIP3    H231714   2.225   1.331   3.063
10591TIP3   OH231715   8.337   4.069   5.104
10591TIP3    H131716   8.384   4.060   5.021
10591TIP3    H231717   8.277   4.142   5.090
10592TIP3   OH231718   7.246   5.920   3.087
10592TIP3    H131719   7.338   5.902   3.067
10592TIP3    H231720   7.204   5.924   3.002
10593TIP3   OH231721   1.812   1.336   6.310
10593TIP3    H131722   1.797   1.402   6.243
10593TIP3    H231723   1.760   1.260   6.282
10594TIP3   OH231724   4.782   4.353   4.996
10594TIP3    H131725   4.825   4.274   5.027
10594TIP3    H231726   4.846   4.394   4.937
10595TIP3   OH231727   7.303   4.183   0.361
10595TIP3    H131728   7.322   4.271   0.327
10595TIP3    H231729   7.209   4.172   0.346
10596TIP3   OH231730   5.381   0.843   2.372
10596TIP3    H131731   5.476   0.856   2.373
10596TIP3    H231732   5.369   0.752   2.346
10597TIP3   OH231733   6.585   2.394   5.551
10597TIP3    H131734   6.506   2.406   5.602
10597TIP3    H231735   6.585   2.301   5.526
10598TIP3   OH231736   4.590   7.684   2.647
10598TIP3    H131737   4.567   7.765   2.601
10598TIP3    H231738   4.547   7.615   2.597
10599TIP3   OH231739   6.021   3.543   4.337
10599TIP3    H131740   6.051   3.567   4.425
10599TIP3    H231741   5.967   3.465   4.352
10600TIP3   OH231742   7.197   1.633   4.677
10600TIP3    H131743   7.145   1.563   4.638
10600TIP3    H231744   7.283   1.625   4.634
10601TIP3   OH231745   5.834   1.552   1.622
10601TIP3    H131746   5.781   1.607   1.679
10601TIP3    H231747   5.789   1.554   1.537
10602TIP3   OH231748   2.304   1.340   0.514
10602TIP3    H131749   2.320   1.370   0.603
10602TIP3    H231750   2.353   1.258   0.506
10603TIP3   OH231751   5.525   3.415   3.341
10603TIP3    H131752   5.524   3.496   3.392
10603TIP3    H231753   5.563   3.440   3.257
10604TIP3   OH231754   3.225   4.428   6.088
10604TIP3    H131755   3.189   4.465   6.169
10604TIP3    H231756   3.175   4.469   6.018
10605TIP3   OH231757   3.365   2.414   0.757
10605TIP3    H131758   3.305   2.475   0.801
10605TIP3    H231759   3.422   2.382   0.826
10606TIP3   OH231760   7.583   0.443   0.739
10606TIP3    H131761   7.618   0.524   0.776
10606TIP3    H231762   7.625   0.436   0.653
10607TIP3   OH231763   0.269   7.323   5.838
10607TIP3    H131764   0.272   7.231   5.865
10607TIP3    H231765   0.303   7.324   5.749
10608TIP3   OH231766   7.283   2.501   1.537
10608TIP3    H131767   7.206   2.445   1.546
10608TIP3    H231768   7.341   2.473   1.607
10609TIP3   OH231769   5.491   1.211   2.531
10609TIP3    H131770   5.495   1.307   2.525
10609TIP3    H231771   5.579   1.185   2.556
10610TIP3   OH231772   7.102   6.519   3.735
10610TIP3    H131773   7.081   6.602   3.777
10610TIP3    H231774   7.021   6.468   3.741
10611TIP3   OH231775   4.317   2.392   4.738
10611TIP3    H131776   4.282   2.444   4.666
10611TIP3    H231777   4.326   2.304   4.702
10612TIP3   OH231778   2.345   4.940   3.162
10612TIP3    H131779   2.257   4.961   3.133
10612TIP3    H231780   2.371   5.014   3.218
10613TIP3   OH231781   6.912   5.757   0.854
10613TIP3    H131782   6.967   5.773   0.777
10613TIP3    H231783   6.952   5.680   0.895
10614TIP3   OH231784   6.927   0.335   4.441
10614TIP3    H131785   6.952   0.261   4.497
10614TIP3    H231786   6.876   0.296   4.371
10615TIP3   OH231787   7.672   5.965   6.481
10615TIP3    H131788   7.751   5.952   6.533
10615TIP3    H231789   7.600   5.952   6.544
10616TIP3   OH231790   1.216   7.252   1.699
10616TIP3    H131791   1.130   7.213   1.715
10616TIP3    H231792   1.255   7.197   1.631
10617TIP3   OH231793   2.687   1.724   3.986
10617TIP3    H131794   2.659   1.747   4.075
10617TIP3    H231795   2.780   1.705   3.994
10618TIP3   OH231796   3.485   2.101   4.695
10618TIP3    H131797   3.554   2.066   4.751
10618TIP3    H231798   3.428   2.026   4.678
10619TIP3   OH231799   0.205   0.504   5.136
10619TIP3    H131800   0.142   0.571   5.161
10619TIP3    H231801   0.163   0.421   5.160
10620TIP3   OH231802   2.741   4.024   2.271
10620TIP3    H131803   2.722   3.937   2.235
10620TIP3    H231804   2.824   4.049   2.231
10621TIP3   OH231805   2.547   4.903   4.147
10621TIP3    H131806   2.483   4.953   4.096
10621TIP3    H231807   2.627   4.955   4.143
10622TIP3   OH231808   2.713   7.225   2.122
10622TIP3    H131809   2.742   7.300   2.172
10622TIP3    H231810   2.725   7.251   2.030
10623TIP3   OH231811   8.173   4.818   3.603
10623TIP3    H131812   8.142   4.732   3.577
10623TIP3    H231813   8.267   4.817   3.583
10624TIP3   OH231814   7.345   6.579   4.456
10624TIP3    H131815   7.313   6.490   4.474
10624TIP3    H231816   7.403   6.599   4.529
10625TIP3   OH231817   2.453   3.807   5.882
10625TIP3    H131818   2.523   3.756   5.922
10625TIP3    H231819   2.379   3.796   5.941
10626TIP3   OH231820   7.861   3.122   5.603
10626TIP3    H131821   7.799   3.179   5.558
10626TIP3    H231822   7.926   3.182   5.641
10627TIP3   OH231823   0.407   6.484   5.124
10627TIP3    H131824   0.316   6.473   5.096
10627TIP3    H231825   0.452   6.406   5.091
10628TIP3   OH231826   6.072   1.046   4.398
10628TIP3    H131827   5.996   1.100   4.378
10628TIP3    H231828   6.061   1.022   4.490
10629TIP3   OH231829   3.149   7.046   1.262
10629TIP3    H131830   3.164   6.961   1.220
10629TIP3    H231831   3.150   7.109   1.190
10630TIP3   OH231832   2.630   5.482   0.128
10630TIP3    H131833   2.654   5.435   0.207
10630TIP3    H231834   2.622   5.414   0.061
10631TIP3   OH231835   0.954   7.403   4.350
10631TIP3    H131836   1.011   7.414   4.426
10631TIP3    H231837   0.867   7.423   4.382
10632TIP3   OH231838   0.077   2.445   5.446
10632TIP3    H131839   0.078   2.491   5.362
10632TIP3    H231840   0.018   2.371   5.432
10633TIP3   OH231841   0.226   3.363   2.893
10633TIP3    H131842   0.273   3.352   2.811
10633TIP3    H231843   0.289   3.341   2.961
10634TIP3   OH231844   5.645   6.171   5.277
10634TIP3    H131845   5.607   6.134   5.197
10634TIP3    H231846   5.738   6.181   5.258
10635TIP3   OH231847   0.731   6.529   5.947
10635TIP3    H131848   0.703   6.582   5.872
10635TIP3    H231849   0.666   6.547   6.015
10636TIP3   OH231850   0.233   2.557   1.467
10636TIP3    H131851   0.144   2.523   1.480
10636TIP3    H231852   0.220   2.643   1.429
10637TIP3   OH231853   7.433   4.414   5.097
10637TIP3    H131854   7.370   4.480   5.124
10637TIP3    H231855   7.385   4.331   5.101
10638TIP3   OH231856   4.472   1.394   0.208
10638TIP3    H131857   4.380   1.367   0.217
10638TIP3    H231858   4.518   1.313   0.185
10639TIP3   OH231859   2.111   4.172   6.054
10639TIP3    H131860   2.207   4.175   6.056
10639TIP3    H231861   2.084   4.255   6.094
10640TIP3   OH231862   4.698   2.668   6.012
10640TIP3    H131863   4.724   2.706   5.928
10640TIP3    H231864   4.699   2.574   5.997
10641TIP3   OH231865   2.961   7.739   2.631
10641TIP3    H131866   2.880   7.775   2.594
10641TIP3    H231867   2.986   7.669   2.571
10642TIP3   OH231868   6.049   4.756   4.802
10642TIP3    H131869   6.118   4.814   4.834
10642TIP3    H231870   6.037   4.692   4.872
10643TIP3   OH231871   2.903   3.781   0.320
10643TIP3    H131872   2.873   3.696   0.350
10643TIP3    H231873   2.857   3.845   0.375
10644TIP3   OH231874   6.379   0.620   3.798
10644TIP3    H131875   6.475   0.619   3.809
10644TIP3    H231876   6.345   0.616   3.888
10645TIP3   OH231877   7.286   2.891   3.908
10645TIP3    H131878   7.289   2.918   3.816
10645TIP3    H231879   7.340   2.813   3.912
10646TIP3   OH231880   0.589   2.067   5.812
10646TIP3    H131881   0.557   2.080   5.723
10646TIP3    H231882   0.684   2.058   5.801
10647TIP3   OH231883   3.004   6.370   4.567
10647TIP3    H131884   3.050   6.395   4.487
10647TIP3    H231885   2.997   6.275   4.562
10648TIP3   OH231886   3.385   4.623   1.954
10648TIP3    H131887   3.468   4.589   1.988
10648TIP3    H231888   3.402   4.715   1.936
10649TIP3   OH231889   2.095   3.685   6.216
10649TIP3    H131890   2.075   3.617   6.280
10649TIP3    H231891   2.036   3.757   6.240
10650TIP3   OH231892   7.557   3.318   1.626
10650TIP3    H131893   7.491   3.383   1.649
10650TIP3    H231894   7.511   3.235   1.629
10651TIP3   OH231895   7.511   1.259   3.289
10651TIP3    H131896   7.600   1.251   3.255
10651TIP3    H231897   7.520   1.318   3.364
10652TIP3   OH231898   5.778   3.326   4.231
10652TIP3    H131899   5.714   3.275   4.182
10652TIP3    H231900   5.856   3.270   4.235
10653TIP3   OH231901   3.329   0.035   1.774
10653TIP3    H131902   3.296   0.108   1.827
10653TIP3    H231903   3.251  -0.001   1.731
10654TIP3   OH231904   2.870   2.584   6.100
10654TIP3    H131905   2.852   2.646   6.170
10654TIP3    H231906   2.800   2.519   6.107
10655TIP3   OH231907   8.113   6.913   4.168
10655TIP3    H131908   8.023   6.946   4.163
10655TIP3    H231909   8.136   6.918   4.261
10656TIP3   OH231910   3.551   4.846   3.479
10656TIP3    H131911   3.578   4.860   3.389
10656TIP3    H231912   3.526   4.754   3.483
10657TIP3   OH231913   5.476   2.799   5.190
10657TIP3    H131914   5.435   2.876   5.153
10657TIP3    H231915   5.473   2.734   5.120
10658TIP3   OH231916   3.837   0.802   1.074
10658TIP3    H131917   3.769   0.866   1.052
10658TIP3    H231918   3.789   0.727   1.109
10659TIP3   OH231919   4.995   6.148   5.802
10659TIP3    H131920   5.030   6.235   5.820
10659TIP3    H231921   5.054   6.088   5.848
10660TIP3   OH231922   0.934   6.690   2.804
10660TIP3    H131923   0.938   6.742   2.884
10660TIP3    H231924   1.026   6.675   2.780
10661TIP3   OH231925   1.962   3.240   2.057
10661TIP3    H131926   2.018   3.315   2.077
10661TIP3    H231927   2.021   3.176   2.016
10662TIP3   OH231928   8.259   3.029   2.888
10662TIP3    H131929   8.256   3.045   2.793
10662TIP3    H231930   8.283   2.937   2.895
10663TIP3   OH231931   4.264   0.339   0.889
10663TIP3    H131932   4.324   0.371   0.822
10663TIP3    H231933   4.287   0.389   0.967
10664TIP3   OH231934   4.072   0.954   2.402
10664TIP3    H131935   4.006   0.890   2.375
10664TIP3    H231936   4.031   1.004   2.472
10665TIP3   OH231937   1.615   2.005   0.304
10665TIP3    H131938   1.621   1.919   0.263
10665TIP3    H231939   1.556   1.992   0.378
10666TIP3   OH231940   8.000   6.748   5.372
10666TIP3    H131941   8.095   6.733   5.373
10666TIP3    H231942   7.962   6.663   5.394
10667TIP3   OH231943   4.619   5.820   4.163
10667TIP3    H131944   4.633   5.866   4.081
10667TIP3    H231945   4.538   5.770   4.150
10668TIP3   OH231946   0.108   0.784   2.156
10668TIP3    H131947   0.066   0.698   2.158
10668TIP3    H231948   0.047   0.839   2.106
10669TIP3   OH231949   7.666   4.546   3.493
10669TIP3    H131950   7.628   4.458   3.491
10669TIP3    H231951   7.717   4.551   3.412
10670TIP3   OH231952   0.998   0.972   5.047
10670TIP3    H131953   0.961   0.926   5.123
10670TIP3    H231954   1.091   0.947   5.048
10671TIP3   OH231955   4.537   0.084   4.834
10671TIP3    H131956   4.628   0.076   4.807
10671TIP3    H231957   4.535   0.053   4.925
10672TIP3   OH231958   6.143   4.748   3.825
10672TIP3    H131959   6.105   4.741   3.738
10672TIP3    H231960   6.097   4.682   3.877
10673TIP3   OH231961   5.009   0.340   1.508
10673TIP3    H131962   5.073   0.398   1.549
10673TIP3    H231963   4.930   0.394   1.500
10674TIP3   OH231964   3.166   0.801   5.094
10674TIP3    H131965   3.238   0.803   5.157
10674TIP3    H231966   3.188   0.729   5.034
10675TIP3   OH231967   6.165   2.745   3.327
10675TIP3    H131968   6.120   2.686   3.387
10675TIP3    H231969   6.098   2.769   3.262
10676TIP3   OH231970   3.097   3.127   0.653
10676TIP3    H131971   3.009   3.162   0.666
10676TIP3    H231972   3.086   3.054   0.593
10677TIP3   OH231973   7.684   2.452   1.207
10677TIP3    H131974   7.698   2.387   1.276
10677TIP3    H231975   7.604   2.497   1.233
10678TIP3   OH231976   6.287   6.163   4.654
10678TIP3    H131977   6.237   6.226   4.706
10678TIP3    H231978   6.239   6.081   4.663
10679TIP3   OH231979   5.888   2.402   4.454
10679TIP3    H131980   5.913   2.468   4.389
10679TIP3    H231981   5.842   2.335   4.403
10680TIP3   OH231982   8.019   5.710   1.540
10680TIP3    H131983   8.069   5.783   1.503
10680TIP3    H231984   8.008   5.650   1.466
10681TIP3   OH231985   5.466   1.755   2.899
10681TIP3    H131986   5.386   1.744   2.847
10681TIP3    H231987   5.441   1.814   2.970
10682TIP3   OH231988   7.644   5.517   4.000
10682TIP3    H131989   7.719   5.554   4.047
10682TIP3    H231990   7.601   5.593   3.959
10683TIP3   OH231991   6.818   1.551   0.098
10683TIP3    H131992   6.899   1.600   0.078
10683TIP3    H231993   6.849   1.466   0.127
10684TIP3   OH231994   7.333   5.673   2.907
10684TIP3    H131995   7.341   5.612   2.980
10684TIP3    H231996   7.415   5.663   2.858
10685TIP3   OH231997   2.967   5.959   4.214
10685TIP3    H131998   3.002   5.910   4.288
10685TIP3    H231999   2.891   6.004   4.249
10686TIP3   OH232000   3.233   7.205   0.561
10686TIP3    H132001   3.241   7.114   0.591
10686TIP3    H232002   3.139   7.223   0.563
10687TIP3   OH232003   7.427   2.737   2.126
10687TIP3    H132004   7.455   2.674   2.192
10687TIP3    H232005   7.331   2.738   2.133
10688TIP3   OH232006   2.947   2.076   3.124
10688TIP3    H132007   2.878   2.010   3.115
10688TIP3    H232008   2.973   2.071   3.216
10689TIP3   OH232009   3.410   5.152   5.749
10689TIP3    H132010   3.361   5.077   5.782
10689TIP3    H232011   3.493   5.149   5.796
10690TIP3   OH232012   6.685   4.411   5.428
10690TIP3    H132013   6.727   4.487   5.468
10690TIP3    H232014   6.591   4.423   5.444
10691TIP3   OH232015   2.937   6.224   0.100
10691TIP3    H132016   2.916   6.179   0.018
10691TIP3    H232017   2.896   6.170   0.168
10692TIP3   OH232018   3.591   2.883   4.153
10692TIP3    H132019   3.611   2.965   4.198
10692TIP3    H232020   3.640   2.889   4.071
10693TIP3   OH232021   5.066   3.906   4.346
10693TIP3    H132022   5.158   3.934   4.353
10693TIP3    H232023   5.070   3.820   4.304
10694TIP3   OH232024   1.768   0.158   2.641
10694TIP3    H132025   1.795   0.210   2.717
10694TIP3    H232026   1.790   0.068   2.665
10695TIP3   OH232027   1.133   1.375   4.290
10695TIP3    H132028   1.225   1.385   4.267
10695TIP3    H232029   1.120   1.281   4.298
10696TIP3   OH232030   3.758   4.287   3.483
10696TIP3    H132031   3.764   4.330   3.398
10696TIP3    H232032   3.781   4.195   3.465
10697TIP3   OH232033   2.296   2.745   6.194
10697TIP3    H132034   2.203   2.728   6.212
10697TIP3    H232035   2.296   2.782   6.105
10698TIP3   OH232036   6.929   1.699   5.213
10698TIP3    H132037   6.935   1.690   5.118
10698TIP3    H232038   7.016   1.727   5.240
10699TIP3   OH232039   0.403   4.677   2.663
10699TIP3    H132040   0.423   4.770   2.679
10699TIP3    H232041   0.319   4.678   2.619
10700TIP3   OH232042   7.183   6.554   0.102
10700TIP3    H132043   7.092   6.549   0.132
10700TIP3    H232044   7.223   6.473   0.134
10701TIP3   OH232045   2.711   5.006   3.685
10701TIP3    H132046   2.667   5.090   3.675
10701TIP3    H232047   2.646   4.942   3.656
10702TIP3   OH232048   1.397   3.752   4.171
10702TIP3    H132049   1.487   3.724   4.188
10702TIP3    H232050   1.392   3.760   4.076
10703TIP3   OH232051   6.603   6.397   0.623
10703TIP3    H132052   6.549   6.371   0.698
10703TIP3    H232053   6.673   6.450   0.660
10704TIP3   OH232054   6.753   2.531   2.451
10704TIP3    H132055   6.697   2.453   2.454
10704TIP3    H232056   6.692   2.604   2.460
10705TIP3   OH232057   7.620   3.160   1.179
10705TIP3    H132058   7.542   3.141   1.231
10705TIP3    H232059   7.688   3.180   1.243
10706TIP3   OH232060   2.351   7.527   1.708
10706TIP3    H132061   2.328   7.510   1.800
10706TIP3    H232062   2.418   7.596   1.713
10707TIP3   OH232063   0.651   6.015   2.777
10707TIP3    H132064   0.577   6.075   2.773
10707TIP3    H232065   0.718   6.064   2.825
10708TIP3   OH232066   2.705   4.439   3.131
10708TIP3    H132067   2.775   4.492   3.167
10708TIP3    H232068   2.743   4.398   3.054
10709TIP3   OH232069   0.090   2.064   3.914
10709TIP3    H132070   0.087   2.017   3.830
10709TIP3    H232071  -0.001   2.089   3.931
10710TIP3   OH232072   1.815   1.811   1.816
10710TIP3    H132073   1.791   1.753   1.889
10710TIP3    H232074   1.887   1.765   1.772
10711TIP3   OH232075   2.053   0.795   5.001
10711TIP3    H132076   2.045   0.734   5.074
10711TIP3    H232077   1.979   0.855   5.011
10712TIP3   OH232078   4.147   3.016   4.832
10712TIP3    H132079   4.074   3.036   4.773
10712TIP3    H232080   4.220   3.067   4.797
10713TIP3   OH232081   4.966   5.494   5.653
10713TIP3    H132082   4.986   5.401   5.655
10713TIP3    H232083   5.020   5.528   5.581
10714TIP3   OH232084   4.394   5.223   1.640
10714TIP3    H132085   4.477   5.259   1.671
10714TIP3    H232086   4.351   5.297   1.597
10715TIP3   OH232087   2.381   5.784   0.738
10715TIP3    H132088   2.417   5.713   0.791
10715TIP3    H232089   2.454   5.846   0.728
10716TIP3   OH232090   7.022   1.927   2.101
10716TIP3    H132091   6.979   1.874   2.168
10716TIP3    H232092   7.102   1.879   2.080
10717TIP3   OH232093   6.684   5.802   4.471
10717TIP3    H132094   6.777   5.826   4.462
10717TIP3    H232095   6.645   5.875   4.517
10718TIP3   OH232096   0.930   0.667   3.249
10718TIP3    H132097   0.896   0.732   3.188
10718TIP3    H232098   0.992   0.715   3.304
10719TIP3   OH232099   2.085   1.360   0.008
10719TIP3    H132100   2.052   1.445   0.037
10719TIP3    H232101   2.045   1.347  -0.078
10720TIP3   OH232102   7.257   6.198   1.387
10720TIP3    H132103   7.228   6.288   1.377
10720TIP3    H232104   7.289   6.173   1.300
10721TIP3   OH232105   7.830   3.912   4.268
10721TIP3    H132106   7.744   3.887   4.234
10721TIP3    H232107   7.861   3.834   4.314
10722TIP3   OH232108   3.797   5.322  -0.035
10722TIP3    H132109   3.885   5.331   0.003
10722TIP3    H232110   3.741   5.373   0.024
10723TIP3   OH232111   1.983   1.406   2.770
10723TIP3    H132112   1.978   1.468   2.697
10723TIP3    H232113   2.038   1.450   2.835
10724TIP3   OH232114   6.496   4.680   3.968
10724TIP3    H132115   6.525   4.665   4.059
10724TIP3    H232116   6.549   4.755   3.939
10725TIP3   OH232117   6.537   3.071   0.570
10725TIP3    H132118   6.540   3.124   0.490
10725TIP3    H232119   6.612   3.012   0.562
10726TIP3   OH232120   4.544   5.880   3.366
10726TIP3    H132121   4.588   5.816   3.422
10726TIP3    H232122   4.579   5.864   3.279
10727TIP3   OH232123   4.409   4.719   5.749
10727TIP3    H132124   4.338   4.784   5.751
10727TIP3    H232125   4.399   4.676   5.665
10728TIP3   OH232126   2.076   3.315   2.635
10728TIP3    H132127   2.007   3.252   2.614
10728TIP3    H232128   2.029   3.395   2.658
10729TIP3   OH232129   5.223   3.940   2.020
10729TIP3    H132130   5.144   3.941   2.074
10729TIP3    H232131   5.257   3.851   2.028
10730TIP3   OH232132   0.388   2.786   3.030
10730TIP3    H132133   0.423   2.715   3.084
10730TIP3    H232134   0.455   2.855   3.035
10731TIP3   OH232135   4.714   7.522   1.452
10731TIP3    H132136   4.807   7.526   1.430
10731TIP3    H232137   4.672   7.493   1.371
10732TIP3   OH232138   4.451   1.371   1.534
10732TIP3    H132139   4.445   1.370   1.629
10732TIP3    H232140   4.365   1.402   1.505
10733TIP3   OH232141   1.117   7.697   2.835
10733TIP3    H132142   1.063   7.618   2.837
10733TIP3    H232143   1.207   7.665   2.836
10734TIP3   OH232144   0.406   2.061   6.016
10734TIP3    H132145   0.364   2.147   6.016
10734TIP3    H232146   0.489   2.075   5.969
10735TIP3   OH232147   7.790   5.436   0.728
10735TIP3    H132148   7.775   5.350   0.689
10735TIP3    H232149   7.879   5.431   0.764
10736TIP3   OH232150   1.764   0.246   6.397
10736TIP3    H132151   1.805   0.206   6.475
10736TIP3    H232152   1.706   0.313   6.432
10737TIP3   OH232153   6.637   6.898   3.725
10737TIP3    H132154   6.685   6.959   3.668
10737TIP3    H232155   6.633   6.817   3.675
10738TIP3   OH232156   1.288   1.407   1.325
10738TIP3    H132157   1.327   1.321   1.339
10738TIP3    H232158   1.207   1.390   1.277
10739TIP3   OH232159   0.951   6.739   2.501
10739TIP3    H132160   0.890   6.717   2.430
10739TIP3    H232161   0.937   6.833   2.516
10740TIP3   OH232162   4.811   7.443   2.622
10740TIP3    H132163   4.873   7.497   2.671
10740TIP3    H232164   4.811   7.480   2.534
10741TIP3   OH232165   4.545   5.839   1.117
10741TIP3    H132166   4.578   5.851   1.206
10741TIP3    H232167   4.602   5.773   1.079
10742TIP3   OH232168   2.324   5.983   1.042
10742TIP3    H132169   2.309   5.899   0.999
10742TIP3    H232170   2.348   6.043   0.972
10743TIP3   OH232171   0.169   0.497   1.796
10743TIP3    H132172   0.099   0.432   1.798
10743TIP3    H232173   0.228   0.473   1.867
10744TIP3   OH232174   2.481   2.568   6.325
10744TIP3    H132175   2.417   2.497   6.331
10744TIP3    H232176   2.431   2.644   6.298
10745TIP3   OH232177   6.253   3.617   2.767
10745TIP3    H132178   6.292   3.698   2.733
10745TIP3    H232179   6.313   3.588   2.835
10746TIP3   OH232180   6.196   0.915   3.727
10746TIP3    H132181   6.135   0.884   3.794
10746TIP3    H232182   6.156   0.994   3.692
10747TIP3   OH232183   0.830   1.383   5.346
10747TIP3    H132184   0.922   1.387   5.320
10747TIP3    H232185   0.786   1.448   5.291
10748TIP3   OH232186   2.640   5.679   6.746
10748TIP3    H132187   2.642   5.713   6.835
10748TIP3    H232188   2.559   5.714   6.709
10749TIP3   OH232189   5.258   5.988   2.629
10749TIP3    H132190   5.194   5.921   2.606
10749TIP3    H232191   5.302   6.008   2.546
10750TIP3   OH232192   7.307   0.331   0.570
10750TIP3    H132193   7.347   0.254   0.611
10750TIP3    H232194   7.350   0.337   0.485
10751TIP3   OH232195   2.504   6.628   5.703
10751TIP3    H132196   2.516   6.718   5.733
10751TIP3    H232197   2.520   6.632   5.608
10752TIP3   OH232198   3.360   2.492   4.413
10752TIP3    H132199   3.405   2.468   4.332
10752TIP3    H232200   3.359   2.412   4.465
10753TIP3   OH232201   4.686   6.870   1.879
10753TIP3    H132202   4.768   6.902   1.919
10753TIP3    H232203   4.696   6.889   1.786
10754TIP3   OH232204   6.603   7.145   4.369
10754TIP3    H132205   6.573   7.232   4.344
10754TIP3    H232206   6.609   7.148   4.465
10755TIP3   OH232207   7.303   3.176   4.714
10755TIP3    H132208   7.305   3.214   4.626
10755TIP3    H232209   7.236   3.109   4.710
10756TIP3   OH232210   2.229   7.559   3.772
10756TIP3    H132211   2.253   7.565   3.864
10756TIP3    H232212   2.271   7.479   3.741
10757TIP3   OH232213   5.015   3.122   6.311
10757TIP3    H132214   5.046   3.208   6.281
10757TIP3    H232215   4.919   3.128   6.304
10758TIP3   OH232216   7.329   6.721   5.861
10758TIP3    H132217   7.332   6.802   5.912
10758TIP3    H232218   7.321   6.652   5.927
10759TIP3   OH232219   2.168   6.844   0.843
10759TIP3    H132220   2.255   6.856   0.881
10759TIP3    H232221   2.109   6.849   0.917
10760TIP3   OH232222   0.974   4.152   2.867
10760TIP3    H132223   0.969   4.224   2.804
10760TIP3    H232224   0.959   4.193   2.952
10761TIP3   OH232225   1.048   2.759   3.842
10761TIP3    H132226   1.030   2.850   3.819
10761TIP3    H232227   0.971   2.711   3.812
10762TIP3   OH232228   3.448   3.918   6.277
10762TIP3    H132229   3.537   3.919   6.314
10762TIP3    H232230   3.456   3.867   6.197
10763TIP3   OH232231   1.736   3.249   6.430
10763TIP3    H132232   1.789   3.194   6.372
10763TIP3    H232233   1.729   3.198   6.511
10764TIP3   OH232234   3.060   5.198   0.478
10764TIP3    H132235   2.971   5.230   0.489
10764TIP3    H232236   3.110   5.275   0.450
10765TIP3   OH232237   3.312   2.330   2.415
10765TIP3    H132238   3.363   2.411   2.418
10765TIP3    H232239   3.368   2.266   2.458
10766TIP3   OH232240   2.675   0.809   1.883
10766TIP3    H132241   2.715   0.776   1.964
10766TIP3    H232242   2.621   0.736   1.852
10767TIP3   OH232243   7.056   0.329   2.345
10767TIP3    H132244   7.022   0.241   2.361
10767TIP3    H232245   7.072   0.332   2.250
10768TIP3   OH232246   4.742   5.976   5.986
10768TIP3    H132247   4.652   5.944   5.977
10768TIP3    H232248   4.795   5.912   5.940
10769TIP3   OH232249   3.377   5.257   0.305
10769TIP3    H132250   3.316   5.184   0.294
10769TIP3    H232251   3.456   5.217   0.342
10770TIP3   OH232252   1.823   0.263   4.483
10770TIP3    H132253   1.870   0.201   4.540
10770TIP3    H232254   1.869   0.346   4.496
10771TIP3   OH232255   5.410   3.076   5.147
10771TIP3    H132256   5.466   3.108   5.218
10771TIP3    H232257   5.348   3.148   5.132
10772TIP3   OH232258   5.673   6.708   6.175
10772TIP3    H132259   5.735   6.781   6.184
10772TIP3    H232260   5.594   6.738   6.221
10773TIP3   OH232261   6.566   2.705   0.677
10773TIP3    H132262   6.627   2.755   0.623
10773TIP3    H232263   6.609   2.620   0.688
10774TIP3   OH232264   4.546   6.250   3.609
10774TIP3    H132265   4.584   6.259   3.522
10774TIP3    H232266   4.593   6.177   3.649
10775TIP3   OH232267   7.594   0.499   5.959
10775TIP3    H132268   7.656   0.468   6.024
10775TIP3    H232269   7.510   0.459   5.983
10776TIP3   OH232270   3.042   2.558   4.121
10776TIP3    H132271   3.125   2.524   4.088
10776TIP3    H232272   2.978   2.538   4.053
10777TIP3   OH232273   2.868   5.232   1.120
10777TIP3    H132274   2.779   5.224   1.153
10777TIP3    H232275   2.880   5.155   1.065
10778TIP3   OH232276   7.754   1.503   2.018
10778TIP3    H132277   7.668   1.464   2.031
10778TIP3    H232278   7.777   1.482   1.927
10779TIP3   OH232279   4.238   3.636   5.320
10779TIP3    H132280   4.292   3.627   5.242
10779TIP3    H232281   4.165   3.576   5.306
10780TIP3   OH232282   2.227   2.315   5.081
10780TIP3    H132283   2.306   2.300   5.133
10780TIP3    H232284   2.257   2.318   4.991
10781TIP3   OH232285   1.464   4.773   5.262
10781TIP3    H132286   1.555   4.798   5.250
10781TIP3    H232287   1.414   4.839   5.214
10782TIP3   OH232288   6.750   4.008   5.963
10782TIP3    H132289   6.757   4.072   5.892
10782TIP3    H232290   6.657   4.006   5.984
10783TIP3   OH232291   3.823   2.439   6.414
10783TIP3    H132292   3.777   2.355   6.411
10783TIP3    H232293   3.824   2.469   6.323
10784TIP3   OH232294   3.645   5.368   5.589
10784TIP3    H132295   3.691   5.299   5.542
10784TIP3    H232296   3.557   5.370   5.550
10785TIP3   OH232297   6.389   3.049   1.946
10785TIP3    H132298   6.392   3.133   1.900
10785TIP3    H232299   6.304   3.049   1.990
10786TIP3   OH232300   6.752   6.694   0.450
10786TIP3    H132301   6.710   6.759   0.507
10786TIP3    H232302   6.707   6.702   0.366
10787TIP3   OH232303   2.083   1.176   4.089
10787TIP3    H132304   2.152   1.157   4.152
10787TIP3    H232305   2.118   1.145   4.005
10788TIP3   OH232306   6.955   3.747   2.420
10788TIP3    H132307   7.009   3.778   2.492
10788TIP3    H232308   7.016   3.738   2.347
10789TIP3   OH232309   2.853   4.848   4.409
10789TIP3    H132310   2.788   4.880   4.346
10789TIP3    H232311   2.936   4.877   4.373
10790TIP3   OH232312   8.311   4.553   1.665
10790TIP3    H132313   8.239   4.496   1.693
10790TIP3    H232314   8.308   4.551   1.570
10791TIP3   OH232315   2.199   0.524   3.660
10791TIP3    H132316   2.177   0.614   3.684
10791TIP3    H232317   2.293   0.518   3.673
10792TIP3   OH232318   7.477   0.688   2.378
10792TIP3    H132319   7.564   0.673   2.416
10792TIP3    H232320   7.416   0.667   2.448
10793TIP3   OH232321   8.317   4.006   0.656
10793TIP3    H132322   8.294   3.917   0.680
10793TIP3    H232323   8.373   4.036   0.728
10794TIP3   OH232324   7.044   5.314   2.271
10794TIP3    H132325   7.011   5.322   2.361
10794TIP3    H232326   6.997   5.238   2.235
10795TIP3   OH232327   5.027   6.656   1.327
10795TIP3    H132328   4.996   6.724   1.386
10795TIP3    H232329   5.036   6.700   1.242
10796TIP3   OH232330   8.039   0.851   4.504
10796TIP3    H132331   8.012   0.788   4.571
10796TIP3    H232332   8.087   0.918   4.552
10797TIP3   OH232333   3.876   6.167   2.300
10797TIP3    H132334   3.844   6.084   2.336
10797TIP3    H232335   3.839   6.170   2.212
10798TIP3   OH232336   4.279   4.927   3.931
10798TIP3    H132337   4.185   4.940   3.939
10798TIP3    H232338   4.298   4.939   3.838
10799TIP3   OH232339   2.241   6.077   1.735
10799TIP3    H132340   2.180   6.039   1.672
10799TIP3    H232341   2.289   6.144   1.686
10800TIP3   OH232342   7.846   6.844   0.480
10800TIP3    H132343   7.897   6.921   0.505
10800TIP3    H232344   7.756   6.875   0.477
10801TIP3   OH232345   5.387   6.626   4.081
10801TIP3    H132346   5.395   6.551   4.141
10801TIP3    H232347   5.387   6.588   3.994
10802TIP3   OH232348   3.250   6.873   4.172
10802TIP3    H132349   3.269   6.953   4.222
10802TIP3    H232350   3.270   6.897   4.082
10803TIP3   OH232351   4.734   1.536   6.184
10803TIP3    H132352   4.704   1.504   6.099
10803TIP3    H232353   4.790   1.611   6.162
10804TIP3   OH232354   4.713   5.564   1.348
10804TIP3    H132355   4.631   5.607   1.372
10804TIP3    H232356   4.736   5.510   1.424
10805TIP3   OH232357   5.425   3.410   6.305
10805TIP3    H132358   5.395   3.404   6.214
10805TIP3    H232359   5.492   3.478   6.304
10806TIP3   OH232360   1.237   2.202   5.583
10806TIP3    H132361   1.273   2.241   5.663
10806TIP3    H232362   1.312   2.160   5.541
10807TIP3   OH232363   5.622   3.036  -0.017
10807TIP3    H132364   5.682   2.998   0.047
10807TIP3    H232365   5.643   2.991  -0.099
10808TIP3   OH232366   5.747   5.204   4.382
10808TIP3    H132367   5.839   5.204   4.409
10808TIP3    H232368   5.749   5.182   4.289
10809TIP3   OH232369   2.470   2.412   3.204
10809TIP3    H132370   2.483   2.328   3.162
10809TIP3    H232371   2.446   2.471   3.133
10810TIP3   OH232372   2.367   4.826   3.445
10810TIP3    H132373   2.389   4.800   3.534
10810TIP3    H232374   2.271   4.830   3.444
10811TIP3   OH232375   5.615   5.372   3.609
10811TIP3    H132376   5.530   5.374   3.651
10811TIP3    H232377   5.601   5.324   3.528
10812TIP3   OH232378   7.034   1.183   0.754
10812TIP3    H132379   7.111   1.136   0.722
10812TIP3    H232380   7.067   1.271   0.775
10813TIP3   OH232381   4.377   6.601   2.028
10813TIP3    H132382   4.398   6.517   1.987
10813TIP3    H232383   4.462   6.636   2.055
10814TIP3   OH232384   2.123   2.681   4.402
10814TIP3    H132385   2.096   2.590   4.412
10814TIP3    H232386   2.131   2.713   4.492
10815TIP3   OH232387   3.028   5.950   3.278
10815TIP3    H132388   3.113   5.931   3.238
10815TIP3    H232389   2.966   5.949   3.205
10816TIP3   OH232390   7.765   7.253   0.603
10816TIP3    H132391   7.721   7.251   0.688
10816TIP3    H232392   7.701   7.291   0.543
10817TIP3   OH232393   7.768   7.004   3.850
10817TIP3    H132394   7.836   7.042   3.795
10817TIP3    H232395   7.775   6.909   3.835
10818TIP3   OH232396   8.085   1.007   4.736
10818TIP3    H132397   8.014   0.949   4.764
10818TIP3    H232398   8.164   0.955   4.749
10819TIP3   OH232399   5.521   5.854   0.259
10819TIP3    H132400   5.568   5.908   0.195
10819TIP3    H232401   5.488   5.916   0.324
10820TIP3   OH232402   4.903   2.489   2.827
10820TIP3    H132403   4.953   2.498   2.908
10820TIP3    H232404   4.948   2.545   2.764
10821TIP3   OH232405   4.255   5.796   1.076
10821TIP3    H132406   4.312   5.863   1.113
10821TIP3    H232407   4.187   5.783   1.142
10822TIP3   OH232408   3.873   1.322   6.559
10822TIP3    H132409   3.883   1.310   6.654
10822TIP3    H232410   3.782   1.298   6.542
10823TIP3   OH232411   1.376   1.549   4.697
10823TIP3    H132412   1.342   1.572   4.610
10823TIP3    H232413   1.406   1.633   4.733
10824TIP3   OH232414   7.435   6.182   6.708
10824TIP3    H132415   7.350   6.146   6.684
10824TIP3    H232416   7.449   6.253   6.646
10825TIP3   OH232417   3.093   5.811   4.428
10825TIP3    H132418   3.105   5.720   4.400
10825TIP3    H232419   3.174   5.855   4.402
10826TIP3   OH232420   6.365   2.206   0.534
10826TIP3    H132421   6.330   2.289   0.567
10826TIP3    H232422   6.372   2.151   0.612
10827TIP3   OH232423   6.581   1.136   4.426
10827TIP3    H132424   6.534   1.059   4.397
10827TIP3    H232425   6.647   1.102   4.487
10828TIP3   OH232426   5.773   4.518   4.280
10828TIP3    H132427   5.831   4.576   4.232
10828TIP3    H232428   5.807   4.430   4.262
10829TIP3   OH232429   2.677   5.478   3.480
10829TIP3    H132430   2.606   5.510   3.536
10829TIP3    H232431   2.745   5.452   3.542
10830TIP3   OH232432   7.268   4.086   4.765
10830TIP3    H132433   7.317   4.015   4.807
10830TIP3    H232434   7.197   4.106   4.825
10831TIP3   OH232435   7.915   3.597   6.296
10831TIP3    H132436   7.835   3.589   6.244
10831TIP3    H232437   7.962   3.515   6.282
10832TIP3   OH232438   7.074   4.573   0.752
10832TIP3    H132439   7.073   4.648   0.692
10832TIP3    H232440   7.156   4.584   0.801
10833TIP3   OH232441   2.879   0.698   2.567
10833TIP3    H132442   2.794   0.691   2.523
10833TIP3    H232443   2.897   0.791   2.569
10834TIP3   OH232444   4.999   0.632   3.037
10834TIP3    H132445   5.013   0.626   2.942
10834TIP3    H232446   5.079   0.596   3.075
10835TIP3   OH232447   3.567   0.809   1.202
10835TIP3    H132448   3.619   0.882   1.235
10835TIP3    H232449   3.507   0.849   1.140
10836TIP3   OH232450   2.748   7.221   3.824
10836TIP3    H132451   2.657   7.218   3.796
10836TIP3    H232452   2.757   7.306   3.868
10837TIP3   OH232453   3.419   6.431   4.859
10837TIP3    H132454   3.490   6.408   4.920
10837TIP3    H232455   3.392   6.348   4.821
10838TIP3   OH232456   0.859   3.277   1.109
10838TIP3    H132457   0.835   3.320   1.028
10838TIP3    H232458   0.883   3.188   1.083
10839TIP3   OH232459   5.996   4.102   0.024
10839TIP3    H132460   5.990   4.177   0.084
10839TIP3    H232461   6.051   4.039   0.070
10840TIP3   OH232462   0.934   3.023   5.938
10840TIP3    H132463   0.987   3.100   5.960
10840TIP3    H232464   0.865   3.022   6.003
10841TIP3   OH232465   2.895   7.681   3.097
10841TIP3    H132466   2.845   7.717   3.170
10841TIP3    H232467   2.840   7.612   3.061
10842TIP3   OH232468   6.293   2.806   4.809
10842TIP3    H132469   6.347   2.882   4.829
10842TIP3    H232470   6.234   2.836   4.740
10843TIP3   OH232471   5.989   7.454   0.016
10843TIP3    H132472   6.042   7.402  -0.044
10843TIP3    H232473   5.997   7.408   0.100
10844TIP3   OH232474   1.112   6.062   5.067
10844TIP3    H132475   1.157   6.048   4.984
10844TIP3    H232476   1.139   6.150   5.095
10845TIP3   OH232477   4.984   0.442   5.163
10845TIP3    H132478   5.070   0.403   5.180
10845TIP3    H232479   5.002   0.535   5.152
10846TIP3   OH232480   4.464   3.732   0.121
10846TIP3    H132481   4.481   3.681   0.201
10846TIP3    H232482   4.542   3.720   0.067
10847TIP3   OH232483   7.006   5.174   6.808
10847TIP3    H132484   6.914   5.197   6.813
10847TIP3    H232485   7.048   5.251   6.768
10848TIP3   OH232486   4.261   4.616   4.576
10848TIP3    H132487   4.243   4.560   4.500
10848TIP3    H232488   4.194   4.592   4.640
10849TIP3   OH232489   3.216   7.460   6.585
10849TIP3    H132490   3.239   7.499   6.501
10849TIP3    H232491   3.253   7.519   6.650
10850TIP3   OH232492   6.917   3.640   3.492
10850TIP3    H132493   6.967   3.576   3.442
10850TIP3    H232494   6.974   3.718   3.496
10851TIP3   OH232495   8.248   0.757   3.038
10851TIP3    H132496   8.335   0.719   3.022
10851TIP3    H232497   8.211   0.770   2.951
10852TIP3   OH232498   1.098   3.577   2.544
10852TIP3    H132499   1.032   3.605   2.481
10852TIP3    H232500   1.097   3.645   2.611
10853TIP3   OH232501   1.591   3.828   1.772
10853TIP3    H132502   1.652   3.780   1.828
10853TIP3    H232503   1.647   3.890   1.724
10854TIP3   OH232504   5.872   4.770   1.789
10854TIP3    H132505   5.790   4.805   1.754
10854TIP3    H232506   5.873   4.799   1.880
10855TIP3   OH232507   3.481   5.221   1.282
10855TIP3    H132508   3.461   5.314   1.276
10855TIP3    H232509   3.432   5.191   1.359
10856TIP3   OH232510   5.802   6.290   2.183
10856TIP3    H132511   5.867   6.225   2.210
10856TIP3    H232512   5.784   6.269   2.091
10857TIP3   OH232513   6.231   7.693   5.493
10857TIP3    H132514   6.257   7.605   5.518
10857TIP3    H232515   6.195   7.731   5.573
10858TIP3   OH232516   5.409   6.698   5.998
10858TIP3    H132517   5.357   6.754   6.055
10858TIP3    H232518   5.382   6.723   5.909
10859TIP3   OH232519   2.885   3.163   4.996
10859TIP3    H132520   2.870   3.094   4.931
10859TIP3    H232521   2.959   3.213   4.962
10860TIP3   OH232522   4.892   2.478   0.919
10860TIP3    H132523   4.943   2.558   0.909
10860TIP3    H232524   4.844   2.469   0.837
10861TIP3   OH232525   6.351   2.614   6.681
10861TIP3    H132526   6.340   2.668   6.759
10861TIP3    H232527   6.344   2.676   6.608
10862TIP3   OH232528   4.793   5.238   4.396
10862TIP3    H132529   4.766   5.323   4.361
10862TIP3    H232530   4.841   5.260   4.476
10863TIP3   OH232531   3.013   0.599   6.231
10863TIP3    H132532   3.088   0.548   6.260
10863TIP3    H232533   2.939   0.564   6.281
10864TIP3   OH232534   1.066   0.094   1.547
10864TIP3    H132535   1.102   0.134   1.627
10864TIP3    H232536   0.984   0.142   1.531
10865TIP3   OH232537   2.948   2.035   6.004
10865TIP3    H132538   2.966   2.033   6.098
10865TIP3    H232539   2.987   2.117   5.974
10866TIP3   OH232540   2.005   3.022   4.208
10866TIP3    H132541   1.962   3.044   4.291
10866TIP3    H232542   2.075   3.087   4.199
10867TIP3   OH232543   3.046   4.043   3.685
10867TIP3    H132544   3.101   4.042   3.763
10867TIP3    H232545   3.058   4.131   3.648
10868TIP3   OH232546   6.167   7.405   0.686
10868TIP3    H132547   6.233   7.447   0.632
10868TIP3    H232548   6.216   7.344   0.741
10869TIP3   OH232549   0.845   1.717   0.950
10869TIP3    H132550   0.918   1.701   1.010
10869TIP3    H232551   0.848   1.643   0.889
10870TIP3   OH232552   7.721   1.661   6.596
10870TIP3    H132553   7.746   1.682   6.686
10870TIP3    H232554   7.699   1.746   6.556
10871TIP3   OH232555   0.026   2.406   0.964
10871TIP3    H132556  -0.026   2.485   0.978
10871TIP3    H232557  -0.004   2.371   0.880
10872TIP3   OH232558   1.606   2.432   3.830
10872TIP3    H132559   1.565   2.463   3.749
10872TIP3    H232560   1.534   2.424   3.892
10873TIP3   OH232561   1.648   7.463   2.743
10873TIP3    H132562   1.553   7.461   2.733
10873TIP3    H232563   1.673   7.371   2.756
10874TIP3   OH232564   3.139   6.503   3.552
10874TIP3    H132565   3.099   6.587   3.530
10874TIP3    H232566   3.097   6.477   3.634
10875TIP3   OH232567   3.933   0.110   3.461
10875TIP3    H132568   4.013   0.153   3.432
10875TIP3    H232569   3.877   0.181   3.493
10876TIP3   OH232570   5.999   7.503   5.474
10876TIP3    H132571   6.062   7.482   5.543
10876TIP3    H232572   6.016   7.594   5.452
10877TIP3   OH232573   7.688   0.644   6.589
10877TIP3    H132574   7.681   0.688   6.504
10877TIP3    H232575   7.781   0.624   6.597
10878TIP3   OH232576   6.289   6.179   3.162
10878TIP3    H132577   6.214   6.125   3.187
10878TIP3    H232578   6.365   6.125   3.182
10879TIP3   OH232579   6.742   5.902   6.525
10879TIP3    H132580   6.744   5.966   6.454
10879TIP3    H232581   6.733   5.818   6.481
10880TIP3   OH232582   7.564   6.064   0.160
10880TIP3    H132583   7.494   6.062   0.226
10880TIP3    H232584   7.641   6.031   0.205
10881TIP3   OH232585   5.531   1.114   3.550
10881TIP3    H132586   5.468   1.162   3.495
10881TIP3    H232587   5.480   1.086   3.626
10882TIP3   OH232588   5.918   0.028   3.106
10882TIP3    H132589   5.933   0.041   3.200
10882TIP3    H232590   5.861  -0.049   3.101
10883TIP3   OH232591   4.500   2.631   1.081
10883TIP3    H132592   4.493   2.541   1.113
10883TIP3    H232593   4.480   2.625   0.988
10884TIP3   OH232594   1.619   1.491   2.518
10884TIP3    H132595   1.548   1.550   2.544
10884TIP3    H232596   1.637   1.439   2.595
10885TIP3   OH232597   3.443   7.119   1.000
10885TIP3    H132598   3.411   7.207   1.022
10885TIP3    H232599   3.463   7.124   0.906
10886TIP3   OH232600   4.083   6.572   4.493
10886TIP3    H132601   4.071   6.544   4.403
10886TIP3    H232602   4.124   6.658   4.486
10887TIP3   OH232603   1.462   6.773   5.797
10887TIP3    H132604   1.518   6.815   5.861
10887TIP3    H232605   1.512   6.696   5.767
10888TIP3   OH232606   0.186   5.968   5.145
10888TIP3    H132607   0.182   5.883   5.101
10888TIP3    H232608   0.215   6.029   5.078
10889TIP3   OH232609   0.346   2.349   1.336
10889TIP3    H132610   0.298   2.420   1.379
10889TIP3    H232611   0.427   2.341   1.387
10890TIP3   OH232612   3.600   6.329   1.832
10890TIP3    H132613   3.667   6.333   1.900
10890TIP3    H232614   3.639   6.372   1.756
10891TIP3   OH232615   2.983   6.662   4.577
10891TIP3    H132616   3.060   6.680   4.630
10891TIP3    H232617   2.987   6.568   4.559
10892TIP3   OH232618   1.358   2.890   5.824
10892TIP3    H132619   1.284   2.830   5.840
10892TIP3    H232620   1.319   2.977   5.827
10893TIP3   OH232621   3.590   1.843   4.321
10893TIP3    H132622   3.636   1.923   4.343
10893TIP3    H232623   3.504   1.872   4.291
10894TIP3   OH232624   3.609   4.872   5.567
10894TIP3    H132625   3.658   4.814   5.509
10894TIP3    H232626   3.637   4.847   5.655
10895TIP3   OH232627   7.105   0.581   4.385
10895TIP3    H132628   7.180   0.526   4.359
10895TIP3    H232629   7.032   0.519   4.391
10896TIP3   OH232630   3.217   7.608   1.062
10896TIP3    H132631   3.253   7.648   1.142
10896TIP3    H232632   3.228   7.675   0.995
10897TIP3   OH232633   0.492   3.799   1.996
10897TIP3    H132634   0.582   3.773   2.015
10897TIP3    H232635   0.458   3.728   1.941
10898TIP3   OH232636   2.624   0.622   3.979
10898TIP3    H132637   2.667   0.610   4.064
10898TIP3    H232638   2.685   0.676   3.930
10899TIP3   OH232639   8.051   6.056   2.019
10899TIP3    H132640   7.966   6.038   2.059
10899TIP3    H232641   8.031   6.075   1.927
10900TIP3   OH232642   5.297   0.532   3.032
10900TIP3    H132643   5.351   0.605   3.063
10900TIP3    H232644   5.266   0.490   3.113
10901TIP3   OH232645   1.055   1.673   2.744
10901TIP3    H132646   1.136   1.722   2.761
10901TIP3    H232647   1.001   1.688   2.821
10902TIP3   OH232648   1.190   0.170   6.350
10902TIP3    H132649   1.210   0.247   6.297
10902TIP3    H232650   1.182   0.204   6.440
10903TIP3   OH232651   6.370   7.081   5.243
10903TIP3    H132652   6.294   7.029   5.216
10903TIP3    H232653   6.445   7.025   5.223
10904TIP3   OH232654   4.506   1.679   0.240
10904TIP3    H132655   4.586   1.721   0.273
10904TIP3    H232656   4.532   1.589   0.222
10905TIP3   OH232657   2.564   1.607   3.129
10905TIP3    H132658   2.491   1.668   3.118
10905TIP3    H232659   2.581   1.608   3.223
10906TIP3   OH232660   1.632   1.777   5.548
10906TIP3    H132661   1.699   1.745   5.487
10906TIP3    H232662   1.681   1.826   5.613
10907TIP3   OH232663   3.600   5.990   4.021
10907TIP3    H132664   3.612   5.988   3.926
10907TIP3    H232665   3.505   5.986   4.032
10908TIP3   OH232666   2.342   1.044   6.026
10908TIP3    H132667   2.263   1.008   5.985
10908TIP3    H232668   2.389   1.085   5.953
10909TIP3   OH232669   3.763   7.218   6.515
10909TIP3    H132670   3.698   7.219   6.585
10909TIP3    H232671   3.781   7.311   6.498
10910TIP3   OH232672   5.349   4.619   3.476
10910TIP3    H132673   5.268   4.578   3.507
10910TIP3    H232674   5.354   4.701   3.525
10911TIP3   OH232675   6.096   0.541   0.049
10911TIP3    H132676   6.040   0.471   0.081
10911TIP3    H232677   6.060   0.564  -0.037
10912TIP3   OH232678   4.643   4.553   4.328
10912TIP3    H132679   4.724   4.594   4.298
10912TIP3    H232680   4.583   4.563   4.253
10913TIP3   OH232681   5.550   1.028   0.598
10913TIP3    H132682   5.624   1.004   0.542
10913TIP3    H232683   5.579   1.108   0.642
10914TIP3   OH232684   0.014   0.286   2.451
10914TIP3    H132685   0.101   0.296   2.491
10914TIP3    H232686  -0.041   0.254   2.522
10915TIP3   OH232687   1.066   7.465   6.325
10915TIP3    H132688   1.140   7.405   6.332
10915TIP3    H232689   1.034   7.475   6.414
10916TIP3   OH232690   7.557   2.027   1.803
10916TIP3    H132691   7.635   1.976   1.824
10916TIP3    H232692   7.487   1.962   1.797
10917TIP3   OH232693   2.535   3.986   0.174
10917TIP3    H132694   2.485   4.062   0.142
10917TIP3    H232695   2.604   3.974   0.109
10918TIP3   OH232696   7.049   5.670   6.144
10918TIP3    H132697   7.000   5.604   6.193
10918TIP3    H232698   6.996   5.689   6.067
10919TIP3   OH232699   6.228   2.782   2.018
10919TIP3    H132700   6.299   2.730   2.056
10919TIP3    H232701   6.178   2.813   2.093
10920TIP3   OH232702   5.467   7.375   3.122
10920TIP3    H132703   5.484   7.441   3.055
10920TIP3    H232704   5.529   7.305   3.104
10921TIP3   OH232705   6.944   1.831   1.086
10921TIP3    H132706   6.867   1.776   1.074
10921TIP3    H232707   6.971   1.855   0.998
10922TIP3   OH232708   4.123   3.150   0.405
10922TIP3    H132709   4.060   3.212   0.367
10922TIP3    H232710   4.073   3.101   0.470
10923TIP3   OH232711   7.886   0.917   2.244
10923TIP3    H132712   7.813   0.892   2.187
10923TIP3    H232713   7.935   0.836   2.258
10924TIP3   OH232714   1.836   2.433   0.796
10924TIP3    H132715   1.890   2.400   0.724
10924TIP3    H232716   1.896   2.484   0.850
10925TIP3   OH232717   4.331   1.024   4.937
10925TIP3    H132718   4.257   0.979   4.977
10925TIP3    H232719   4.408   0.973   4.963
10926TIP3   OH232720   0.132   6.962   1.123
10926TIP3    H132721   0.165   7.028   1.183
10926TIP3    H232722   0.184   6.884   1.141
10927TIP3   OH232723   4.918   6.017   5.080
10927TIP3    H132724   4.833   6.052   5.051
10927TIP3    H232725   4.912   5.923   5.064
10928TIP3   OH232726   7.092   6.195   6.277
10928TIP3    H132727   7.119   6.148   6.199
10928TIP3    H232728   7.098   6.288   6.253
10929TIP3   OH232729   4.732   4.065   2.982
10929TIP3    H132730   4.684   4.119   3.045
10929TIP3    H232731   4.807   4.119   2.956
10930TIP3   OH232732   6.367   2.891   0.666
10930TIP3    H132733   6.390   2.959   0.603
10930TIP3    H232734   6.440   2.830   0.663
10931TIP3   OH232735   4.165   1.916   5.476
10931TIP3    H132736   4.211   1.856   5.417
10931TIP3    H232737   4.235   1.965   5.519
10932TIP3   OH232738   3.067   4.226   2.946
10932TIP3    H132739   3.107   4.196   3.027
10932TIP3    H232740   3.032   4.146   2.906
10933TIP3   OH232741   2.281   2.729   0.104
10933TIP3    H132742   2.248   2.806   0.151
10933TIP3    H232743   2.202   2.682   0.078
10934TIP3   OH232744   6.215   2.825   4.236
10934TIP3    H132745   6.279   2.882   4.277
10934TIP3    H232746   6.130   2.862   4.261
10935TIP3   OH232747   4.719   1.834   0.366
10935TIP3    H132748   4.806   1.851   0.330
10935TIP3    H232749   4.667   1.910   0.341
10936TIP3   OH232750   6.704   2.752   2.872
10936TIP3    H132751   6.789   2.718   2.845
10936TIP3    H232752   6.692   2.831   2.820
10937TIP3   OH232753   0.936   3.609   3.461
10937TIP3    H132754   0.929   3.528   3.512
10937TIP3    H232755   0.894   3.675   3.516
10938TIP3   OH232756   0.440   5.496   0.693
10938TIP3    H132757   0.350   5.483   0.664
10938TIP3    H232758   0.483   5.542   0.621
10939TIP3   OH232759   3.242   2.769   1.341
10939TIP3    H132760   3.150   2.754   1.362
10939TIP3    H232761   3.268   2.693   1.289
10940TIP3   OH232762   5.535   4.405   3.645
10940TIP3    H132763   5.575   4.380   3.561
10940TIP3    H232764   5.442   4.386   3.633
10941TIP3   OH232765   5.322   2.522   6.081
10941TIP3    H132766   5.370   2.506   5.999
10941TIP3    H232767   5.353   2.608   6.110
10942TIP3   OH232768   4.240   1.818   1.796
10942TIP3    H132769   4.269   1.909   1.799
10942TIP3    H232770   4.191   1.806   1.877
10943TIP3   OH232771   2.123   5.669   3.918
10943TIP3    H132772   2.211   5.706   3.924
10943TIP3    H232773   2.078   5.701   3.996
10944TIP3   OH232774   0.450   5.110   0.037
10944TIP3    H132775   0.484   5.174   0.100
10944TIP3    H232776   0.359   5.096   0.063
10945TIP3   OH232777   3.043   4.411   3.777
10945TIP3    H132778   2.953   4.409   3.744
10945TIP3    H232779   3.062   4.504   3.790
10946TIP3   OH232780   5.001   6.401   3.961
10946TIP3    H132781   5.059   6.409   3.885
10946TIP3    H232782   4.917   6.435   3.930
10947TIP3   OH232783   3.999   2.085   3.307
10947TIP3    H132784   3.953   2.054   3.229
10947TIP3    H232785   3.985   2.016   3.372
10948TIP3   OH232786   6.329   2.510   0.593
10948TIP3    H132787   6.273   2.500   0.516
10948TIP3    H232788   6.404   2.560   0.561
10949TIP3   OH232789   7.775   0.663   5.498
10949TIP3    H132790   7.792   0.660   5.592
10949TIP3    H232791   7.822   0.740   5.468
10950TIP3   OH232792   0.005   7.495   6.353
10950TIP3    H132793   0.079   7.451   6.311
10950TIP3    H232794  -0.048   7.424   6.389
10951TIP3   OH232795   0.012   3.452   3.600
10951TIP3    H132796   0.092   3.417   3.562
10951TIP3    H232797  -0.007   3.394   3.674
10952TIP3   OH232798   6.256   7.190   0.857
10952TIP3    H132799   6.277   7.116   0.800
10952TIP3    H232800   6.211   7.151   0.932
10953TIP3   OH232801   6.672   5.475   3.262
10953TIP3    H132802   6.747   5.421   3.288
10953TIP3    H232803   6.596   5.417   3.275
10954TIP3   OH232804   4.688   3.507   0.486
10954TIP3    H132805   4.689   3.489   0.580
10954TIP3    H232806   4.598   3.533   0.467
10955TIP3   OH232807   1.173   6.026   6.029
10955TIP3    H132808   1.078   6.038   6.025
10955TIP3    H232809   1.204   6.094   6.088
10956TIP3   OH232810   3.368   2.054   5.708
10956TIP3    H132811   3.328   2.013   5.632
10956TIP3    H232812   3.302   2.047   5.777
10957TIP3   OH232813   4.579   7.023   6.756
10957TIP3    H132814   4.507   7.082   6.734
10957TIP3    H232815   4.655   7.061   6.712
10958TIP3   OH232816   3.877   7.654   2.668
10958TIP3    H132817   3.819   7.731   2.666
10958TIP3    H232818   3.871   7.618   2.580
10959TIP3   OH232819   0.152   3.690   2.987
10959TIP3    H132820   0.134   3.616   3.045
10959TIP3    H232821   0.097   3.761   3.020
10960TIP3   OH232822   1.696   0.135   3.551
10960TIP3    H132823   1.644   0.136   3.632
10960TIP3    H232824   1.670   0.215   3.506
10961TIP3   OH232825   1.621   4.935   0.771
10961TIP3    H132826   1.577   4.968   0.849
10961TIP3    H232827   1.708   4.975   0.774
10962TIP3   OH232828   7.370   2.745   2.592
10962TIP3    H132829   7.368   2.734   2.497
10962TIP3    H232830   7.321   2.671   2.626
10963TIP3   OH232831   5.830   4.882   6.366
10963TIP3    H132832   5.880   4.943   6.311
10963TIP3    H232833   5.878   4.800   6.361
10964TIP3   OH232834   6.298   0.440   2.084
10964TIP3    H132835   6.305   0.415   2.176
10964TIP3    H232836   6.228   0.385   2.050
10965TIP3   OH232837   0.872   4.564   4.035
10965TIP3    H132838   0.825   4.624   4.091
10965TIP3    H232839   0.955   4.548   4.080
10966TIP3   OH232840   0.163   7.574   1.686
10966TIP3    H132841   0.154   7.600   1.777
10966TIP3    H232842   0.228   7.504   1.688
10967TIP3   OH232843   0.963   4.678   2.322
10967TIP3    H132844   0.895   4.613   2.303
10967TIP3    H232845   1.026   4.667   2.251
10968TIP3   OH232846   8.256   4.090   3.395
10968TIP3    H132847   8.303   4.108   3.314
10968TIP3    H232848   8.232   3.997   3.389
10969TIP3   OH232849   2.646   2.967   0.618
10969TIP3    H132850   2.637   2.902   0.549
10969TIP3    H232851   2.619   3.049   0.578
10970TIP3   OH232852   8.087   0.394   5.981
10970TIP3    H132853   8.129   0.448   6.049
10970TIP3    H232854   8.093   0.305   6.015
10971TIP3   OH232855   3.364   0.589   1.259
10971TIP3    H132856   3.318   0.641   1.325
10971TIP3    H232857   3.455   0.619   1.264
10972TIP3   OH232858   5.559   6.265   2.303
10972TIP3    H132859   5.575   6.175   2.274
10972TIP3    H232860   5.621   6.318   2.252
10973TIP3   OH232861   7.097   0.632   4.696
10973TIP3    H132862   7.102   0.726   4.681
10973TIP3    H232863   7.155   0.593   4.631
10974TIP3   OH232864   2.680   6.253   2.531
10974TIP3    H132865   2.629   6.312   2.586
10974TIP3    H232866   2.671   6.168   2.573
10975TIP3   OH232867   5.173   7.110   6.511
10975TIP3    H132868   5.189   7.094   6.604
10975TIP3    H232869   5.078   7.117   6.504
10976TIP3   OH232870   6.161   5.938   3.740
10976TIP3    H132871   6.124   6.021   3.767
10976TIP3    H232872   6.119   5.919   3.656
10977TIP3   OH232873   3.888   3.464   5.156
10977TIP3    H132874   3.801   3.480   5.119
10977TIP3    H232875   3.888   3.370   5.176
10978TIP3   OH232876   0.428   4.955   0.326
10978TIP3    H132877   0.412   4.887   0.261
10978TIP3    H232878   0.374   4.930   0.401
10979TIP3   OH232879   5.008   5.971   2.013
10979TIP3    H132880   5.020   6.052   1.964
10979TIP3    H232881   4.919   5.943   1.992
10980TIP3   OH232882   2.065   6.663   4.672
10980TIP3    H132883   2.018   6.735   4.629
10980TIP3    H232884   2.005   6.588   4.665
10981TIP3   OH232885   2.773   0.644   5.069
10981TIP3    H132886   2.854   0.598   5.048
10981TIP3    H232887   2.739   0.672   4.984
10982TIP3   OH232888   2.304   2.827   1.574
10982TIP3    H132889   2.237   2.793   1.633
10982TIP3    H232890   2.282   2.919   1.563
10983TIP3   OH232891   6.476   6.589   5.558
10983TIP3    H132892   6.433   6.514   5.517
10983TIP3    H232893   6.556   6.553   5.596
10984TIP3   OH232894   0.735   2.340   0.557
10984TIP3    H132895   0.720   2.277   0.486
10984TIP3    H232896   0.648   2.363   0.588
10985TIP3   OH232897   4.207   3.582   4.438
10985TIP3    H132898   4.265   3.657   4.424
10985TIP3    H232899   4.134   3.596   4.378
10986TIP3   OH232900   5.111   2.715   2.015
10986TIP3    H132901   5.136   2.797   1.974
10986TIP3    H232902   5.015   2.717   2.019
10987TIP3   OH232903   4.942   0.974   5.060
10987TIP3    H132904   4.861   0.938   5.095
10987TIP3    H232905   4.942   1.065   5.089
10988TIP3   OH232906   3.073   4.673   4.789
10988TIP3    H132907   3.155   4.663   4.740
10988TIP3    H232908   3.023   4.738   4.740
10989TIP3   OH232909   2.621   1.800   0.928
10989TIP3    H132910   2.675   1.721   0.939
10989TIP3    H232911   2.636   1.827   0.838
10990TIP3   OH232912   3.522   0.892   0.735
10990TIP3    H132913   3.507   0.935   0.651
10990TIP3    H232914   3.434   0.879   0.771
10991TIP3   OH232915   7.471   1.118   0.036
10991TIP3    H132916   7.565   1.112   0.015
10991TIP3    H232917   7.453   1.212   0.039
10992TIP3   OH232918   1.385   1.029   4.829
10992TIP3    H132919   1.319   1.068   4.886
10992TIP3    H232920   1.351   0.942   4.809
10993TIP3   OH232921   4.001   4.239   4.440
10993TIP3    H132922   3.975   4.283   4.359
10993TIP3    H232923   3.922   4.239   4.494
10994TIP3   OH232924   2.374   6.322   1.033
10994TIP3    H132925   2.333   6.308   0.948
10994TIP3    H232926   2.451   6.265   1.033
10995TIP3   OH232927   7.721   2.722   0.872
10995TIP3    H132928   7.727   2.815   0.893
10995TIP3    H232929   7.757   2.677   0.948
10996TIP3   OH232930   3.419  -0.008   6.601
10996TIP3    H132931   3.505  -0.046   6.619
10996TIP3    H232932   3.396   0.037   6.682
10997TIP3   OH232933   7.956   3.347   1.746
10997TIP3    H132934   7.878   3.399   1.765
10997TIP3    H232935   7.928   3.256   1.757
10998TIP3   OH232936   6.743   3.866   5.648
10998TIP3    H132937   6.680   3.864   5.576
10998TIP3    H232938   6.748   3.958   5.672
10999TIP3   OH232939   3.289   1.525   4.528
10999TIP3    H132940   3.209   1.546   4.481
10999TIP3    H232941   3.318   1.608   4.565
11000TIP3   OH232942   4.448   1.494   5.093
11000TIP3    H132943   4.380   1.451   5.040
11000TIP3    H232944   4.511   1.424   5.111
11001TIP3   OH232945   4.032   2.141   2.287
11001TIP3    H132946   4.085   2.170   2.212
11001TIP3    H232947   4.091   2.150   2.362
11002TIP3   OH232948   8.208   4.430   2.275
11002TIP3    H132949   8.228   4.501   2.213
11002TIP3    H232950   8.238   4.463   2.360
11003TIP3   OH232951   0.810   5.159   6.042
11003TIP3    H132952   0.717   5.161   6.018
11003TIP3    H232953   0.817   5.220   6.116
11004TIP3   OH232954   3.413   4.375   5.846
11004TIP3    H132955   3.363   4.388   5.927
11004TIP3    H232956   3.415   4.280   5.833
11005TIP3   OH232957   6.873   6.347   2.981
11005TIP3    H132958   6.852   6.433   2.944
11005TIP3    H232959   6.929   6.367   3.056
11006TIP3   OH232960   0.774   0.279   0.070
11006TIP3    H132961   0.779   0.239  -0.017
11006TIP3    H232962   0.719   0.219   0.121
11007TIP3   OH232963   5.831   0.735   3.740
11007TIP3    H132964   5.845   0.660   3.682
11007TIP3    H232965   5.740   0.760   3.724
11008TIP3   OH232966   6.724   4.303   6.627
11008TIP3    H132967   6.692   4.213   6.621
11008TIP3    H232968   6.750   4.326   6.538
11009TIP3   OH232969   5.174   6.921   1.600
11009TIP3    H132970   5.083   6.898   1.621
11009TIP3    H232971   5.226   6.851   1.638
11010TIP3   OH232972   7.909   7.644   5.742
11010TIP3    H132973   7.932   7.587   5.815
11010TIP3    H232974   7.970   7.718   5.749
11011TIP3   OH232975   6.297   2.809   2.831
11011TIP3    H132976   6.335   2.885   2.787
11011TIP3    H232977   6.210   2.799   2.793
11012TIP3   OH232978   7.820   4.881   5.765
11012TIP3    H132979   7.859   4.966   5.747
11012TIP3    H232980   7.857   4.855   5.849
11013TIP3   OH232981   1.593   0.605   4.570
11013TIP3    H132982   1.553   0.554   4.640
11013TIP3    H232983   1.564   0.695   4.586
11014TIP3   OH232984   3.664   3.207   0.895
11014TIP3    H132985   3.735   3.186   0.956
11014TIP3    H232986   3.627   3.288   0.929
11015TIP3   OH232987   2.179   2.140   1.795
11015TIP3    H132988   2.164   2.221   1.843
11015TIP3    H232989   2.176   2.071   1.861
11016TIP3   OH232990   3.618   5.848   4.530
11016TIP3    H132991   3.608   5.822   4.622
11016TIP3    H232992   3.707   5.884   4.526
11017TIP3   OH232993   2.598   1.521   5.434
11017TIP3    H132994   2.589   1.450   5.371
11017TIP3    H232995   2.692   1.539   5.437
11018TIP3   OH232996   7.093   3.040   0.111
11018TIP3    H132997   7.178   3.049   0.154
11018TIP3    H232998   7.052   3.126   0.120
11019TIP3   OH232999   7.925   6.488   5.296
11019TIP3    H133000   7.900   6.409   5.344
11019TIP3    H233001   8.018   6.499   5.316
11020TIP3   OH233002   1.795   2.947   2.401
11020TIP3    H133003   1.743   2.984   2.330
11020TIP3    H233004   1.733   2.932   2.472
11021TIP3   OH233005   3.512   6.950   4.075
11021TIP3    H133006   3.590   6.953   4.132
11021TIP3    H233007   3.547   6.941   3.987
11022TIP3   OH233008   6.973   6.528   4.722
11022TIP3    H133009   6.944   6.509   4.633
11022TIP3    H233010   6.920   6.472   4.778
11023TIP3   OH233011   6.169   1.213   2.830
11023TIP3    H133012   6.264   1.220   2.828
11023TIP3    H233013   6.143   1.199   2.739
11024TIP3   OH233014   7.016   4.231   0.401
11024TIP3    H133015   7.032   4.324   0.385
11024TIP3    H233016   6.927   4.217   0.367
11025TIP3   OH233017   8.162   0.873   4.025
11025TIP3    H133018   8.253   0.888   4.001
11025TIP3    H233019   8.144   0.938   4.093
11026TIP3   OH233020   2.167   0.033   4.013
11026TIP3    H133021   2.254   0.043   4.050
11026TIP3    H233022   2.113  -0.001   4.084
11027TIP3   OH233023   2.366   3.313   5.290
11027TIP3    H133024   2.298   3.332   5.354
11027TIP3    H233025   2.440   3.282   5.342
11028TIP3   OH233026   2.565   0.779   3.165
11028TIP3    H133027   2.601   0.843   3.102
11028TIP3    H233028   2.627   0.706   3.162
11029TIP3   OH233029   5.511   5.696   3.832
11029TIP3    H133030   5.494   5.756   3.760
11029TIP3    H233031   5.600   5.663   3.817
11030TIP3   OH233032   0.198   1.927   5.868
11030TIP3    H133033   0.281   1.958   5.906
11030TIP3    H233034   0.140   1.917   5.944
11031TIP3   OH233035   0.220   2.750   5.006
11031TIP3    H133036   0.137   2.725   4.967
11031TIP3    H233037   0.196   2.800   5.084
11032TIP3   OH233038   1.159   5.150   0.004
11032TIP3    H133039   1.149   5.062   0.039
11032TIP3    H233040   1.070   5.176  -0.021
11033TIP3   OH233041   2.515   4.840   0.735
11033TIP3    H133042   2.563   4.921   0.720
11033TIP3    H233043   2.576   4.771   0.711
11034TIP3   OH233044   5.284   2.505   4.731
11034TIP3    H133045   5.233   2.433   4.695
11034TIP3    H233046   5.336   2.466   4.801
11035TIP3   OH233047   4.093   2.334   3.230
11035TIP3    H133048   4.013   2.345   3.178
11035TIP3    H233049   4.087   2.244   3.263
11036TIP3   OH233050   1.758   6.240   0.261
11036TIP3    H133051   1.809   6.280   0.190
11036TIP3    H233052   1.686   6.301   0.276
11037TIP3   OH233053   0.405   4.912   1.243
11037TIP3    H133054   0.412   4.820   1.268
11037TIP3    H233055   0.417   4.912   1.148
11038TIP3   OH233056   7.950   7.584   4.524
11038TIP3    H133057   7.901   7.656   4.485
11038TIP3    H233058   8.002   7.549   4.452
11039TIP3   OH233059   4.520   2.944   6.628
11039TIP3    H133060   4.615   2.942   6.641
11039TIP3    H233061   4.506   3.012   6.562
11040TIP3   OH233062   7.098   5.779   1.422
11040TIP3    H133063   7.125   5.835   1.349
11040TIP3    H233064   7.163   5.796   1.490
11041TIP3   OH233065   1.735   4.257   4.793
11041TIP3    H133066   1.726   4.340   4.839
11041TIP3    H233067   1.705   4.191   4.855
11042TIP3   OH233068   5.180   4.487   4.489
11042TIP3    H133069   5.202   4.479   4.396
11042TIP3    H233070   5.260   4.461   4.535
11043TIP3   OH233071   6.591   1.656   4.527
11043TIP3    H133072   6.562   1.565   4.516
11043TIP3    H233073   6.678   1.649   4.566
11044TIP3   OH233074   4.208   7.157   0.324
11044TIP3    H133075   4.233   7.162   0.416
11044TIP3    H233076   4.214   7.064   0.303
11045TIP3   OH233077   2.930   1.867   4.858
11045TIP3    H133078   2.957   1.954   4.828
11045TIP3    H233079   2.882   1.883   4.939
11046TIP3   OH233080   2.802   0.882   0.601
11046TIP3    H133081   2.834   0.883   0.691
11046TIP3    H233082   2.806   0.974   0.574
11047TIP3   OH233083   5.742   2.985   4.244
11047TIP3    H133084   5.767   2.946   4.161
11047TIP3    H233085   5.675   3.050   4.221
11048TIP3   OH233086   3.508   5.799   6.767
11048TIP3    H133087   3.415   5.782   6.785
11048TIP3    H233088   3.507   5.864   6.696
11049TIP3   OH233089   1.968   5.342   0.959
11049TIP3    H133090   2.014   5.362   1.040
11049TIP3    H233091   2.027   5.371   0.890
11050TIP3   OH233092   1.982   7.315   5.470
11050TIP3    H133093   2.041   7.380   5.432
11050TIP3    H233094   1.897   7.358   5.472
11051TIP3   OH233095   4.797   1.799   4.348
11051TIP3    H133096   4.861   1.729   4.362
11051TIP3    H233097   4.717   1.753   4.323
11052TIP3   OH233098   7.231   3.285   1.221
11052TIP3    H133099   7.157   3.247   1.268
11052TIP3    H233100   7.194   3.358   1.172
11053TIP3   OH233101   6.684   3.880   6.235
11053TIP3    H133102   6.769   3.852   6.200
11053TIP3    H233103   6.622   3.861   6.164
11054TIP3   OH233104   7.957   1.150   0.032
11054TIP3    H133105   8.050   1.136   0.013
11054TIP3    H233106   7.956   1.210   0.107
11055TIP3   OH233107   7.293   1.395   0.568
11055TIP3    H133108   7.276   1.422   0.658
11055TIP3    H233109   7.328   1.306   0.576
11056TIP3   OH233110   0.716   5.613   0.071
11056TIP3    H133111   0.625   5.601   0.099
11056TIP3    H233112   0.746   5.690   0.120
11057TIP3   OH233113   3.664   4.614   0.376
11057TIP3    H133114   3.595   4.634   0.313
11057TIP3    H233115   3.654   4.520   0.393
11058TIP3   OH233116   6.159   6.385   5.839
11058TIP3    H133117   6.207   6.448   5.892
11058TIP3    H233118   6.074   6.375   5.882
11059TIP3   OH233119   5.130   1.246   2.201
11059TIP3    H133120   5.158   1.318   2.144
11059TIP3    H233121   5.152   1.274   2.289
11060TIP3   OH233122   7.067   0.355   4.076
11060TIP3    H133123   6.985   0.340   4.123
11060TIP3    H233124   7.043   0.356   3.984
11061TIP3   OH233125   5.228   2.899   0.283
11061TIP3    H133126   5.243   2.815   0.326
11061TIP3    H233127   5.290   2.900   0.210
11062TIP3   OH233128   0.970   2.416   5.887
11062TIP3    H133129   0.986   2.456   5.801
11062TIP3    H233130   1.038   2.454   5.944
11063TIP3   OH233131   6.511   4.274   1.630
11063TIP3    H133132   6.445   4.289   1.563
11063TIP3    H233133   6.522   4.179   1.634
11064TIP3   OH233134   1.555   3.821   5.031
11064TIP3    H133135   1.494   3.795   4.962
11064TIP3    H233136   1.519   3.784   5.111
11065TIP3   OH233137   2.431   2.333   5.289
11065TIP3    H133138   2.421   2.319   5.383
11065TIP3    H233139   2.508   2.390   5.281
11066TIP3   OH233140   7.752   5.311   1.090
11066TIP3    H133141   7.799   5.256   1.026
11066TIP3    H233142   7.768   5.269   1.174
11067TIP3   OH233143   5.171   5.389   5.276
11067TIP3    H133144   5.168   5.443   5.197
11067TIP3    H233145   5.082   5.392   5.311
11068TIP3   OH233146   2.890   1.877   1.973
11068TIP3    H133147   2.874   1.794   2.016
11068TIP3    H233148   2.975   1.906   2.005
11069TIP3   OH233149   4.784   5.045   0.029
11069TIP3    H133150   4.757   5.107   0.097
11069TIP3    H233151   4.766   5.090  -0.053
11070TIP3   OH233152   6.844   6.430   3.736
11070TIP3    H133153   6.778   6.435   3.805
11070TIP3    H233154   6.841   6.339   3.707
11071TIP3   OH233155   3.134   0.888   3.965
11071TIP3    H133156   3.172   0.822   3.907
11071TIP3    H233157   3.183   0.968   3.946
11072TIP3   OH233158   4.278   6.298   0.021
11072TIP3    H133159   4.360   6.249   0.036
11072TIP3    H233160   4.299   6.388   0.047
11073TIP3   OH233161   5.265   0.242   2.929
11073TIP3    H133162   5.177   0.266   2.955
11073TIP3    H233163   5.319   0.319   2.951
11074TIP3   OH233164   5.237   3.847   1.759
11074TIP3    H133165   5.197   3.901   1.690
11074TIP3    H233166   5.209   3.888   1.840
11075TIP3   OH233167   5.475   6.287   1.958
11075TIP3    H133168   5.548   6.236   1.923
11075TIP3    H233169   5.507   6.377   1.959
11076TIP3   OH233170   5.996   4.443   6.341
11076TIP3    H133171   5.904   4.427   6.320
11076TIP3    H233172   6.037   4.357   6.333
11077TIP3   OH233173   4.415   4.863   6.050
11077TIP3    H133174   4.492   4.850   5.994
11077TIP3    H233175   4.446   4.841   6.138
11078TIP3   OH233176   2.612   4.783   3.243
11078TIP3    H133177   2.654   4.744   3.167
11078TIP3    H233178   2.683   4.821   3.294
11079TIP3   OH233179   0.645   4.619   4.809
11079TIP3    H133180   0.660   4.652   4.897
11079TIP3    H233181   0.622   4.696   4.758
11080TIP3   OH233182   5.406   6.345   4.186
11080TIP3    H133183   5.424   6.315   4.097
11080TIP3    H233184   5.311   6.351   4.190
11081TIP3   OH233185   3.331   6.673   5.030
11081TIP3    H133186   3.399   6.620   5.072
11081TIP3    H233187   3.341   6.655   4.937
11082TIP3   OH233188   1.288   6.256   3.014
11082TIP3    H133189   1.324   6.169   2.997
11082TIP3    H233190   1.249   6.282   2.930
11083TIP3   OH233191   3.114   7.061   5.211
11083TIP3    H133192   3.193   7.112   5.226
11083TIP3    H233193   3.048   7.124   5.182
11084TIP3   OH233194   2.485   0.944   3.948
11084TIP3    H133195   2.543   0.967   3.875
11084TIP3    H233196   2.531   0.975   4.026
11085TIP3   OH233197   4.404   2.078   5.386
11085TIP3    H133198   4.391   2.068   5.292
11085TIP3    H233199   4.442   2.166   5.395
11086TIP3   OH233200   0.783   5.885   0.198
11086TIP3    H133201   0.860   5.908   0.251
11086TIP3    H233202   0.710   5.888   0.260
11087TIP3   OH233203   0.384   1.180   1.155
11087TIP3    H133204   0.350   1.241   1.220
11087TIP3    H233205   0.352   1.094   1.183
11088TIP3   OH233206   5.694   7.353   4.373
11088TIP3    H133207   5.641   7.430   4.354
11088TIP3    H233208   5.703   7.354   4.468
11089TIP3   OH233209   7.549   3.043   2.471
11089TIP3    H133210   7.498   3.106   2.419
11089TIP3    H233211   7.619   3.015   2.413
11090TIP3   OH233212   2.144   6.444   5.285
11090TIP3    H133213   2.072   6.396   5.244
11090TIP3    H233214   2.120   6.536   5.276
11091TIP3   OH233215   0.663   3.143   4.184
11091TIP3    H133216   0.621   3.229   4.189
11091TIP3    H233217   0.727   3.144   4.255
11092TIP3   OH233218   7.989   0.778   2.589
11092TIP3    H133219   8.035   0.763   2.672
11092TIP3    H233220   8.012   0.867   2.565
11093TIP3   OH233221   4.817   0.652   4.472
11093TIP3    H133222   4.835   0.706   4.549
11093TIP3    H233223   4.726   0.674   4.449
11094TIP3   OH233224   1.714   3.246   0.499
11094TIP3    H133225   1.672   3.315   0.551
11094TIP3    H233226   1.778   3.293   0.445
11095TIP3   OH233227   3.717   6.295   2.769
11095TIP3    H133228   3.750   6.311   2.681
11095TIP3    H233229   3.655   6.367   2.784
11096TIP3   OH233230   1.313   1.050   5.667
11096TIP3    H133231   1.366   1.120   5.703
11096TIP3    H233232   1.371   0.973   5.667
11097TIP3   OH233233   2.752   7.564   3.616
11097TIP3    H133234   2.815   7.492   3.616
11097TIP3    H233235   2.711   7.560   3.530
11098TIP3   OH233236   6.761   6.682   1.345
11098TIP3    H133237   6.670   6.661   1.365
11098TIP3    H233238   6.778   6.761   1.396
11099TIP3   OH233239   5.619   3.293   0.811
11099TIP3    H133240   5.678   3.314   0.738
11099TIP3    H233241   5.559   3.367   0.814
11100TIP3   OH233242   4.902   6.710   4.289
11100TIP3    H133243   4.826   6.666   4.250
11100TIP3    H233244   4.963   6.720   4.216
11101TIP3   OH233245   2.216   3.853   6.044
11101TIP3    H133246   2.264   3.894   6.116
11101TIP3    H233247   2.171   3.779   6.085
11102TIP3   OH233248   1.054   1.559   1.047
11102TIP3    H133249   1.087   1.496   1.111
11102TIP3    H233250   1.039   1.508   0.968
11103TIP3   OH233251   7.141   6.453   1.452
11103TIP3    H133252   7.107   6.528   1.500
11103TIP3    H233253   7.099   6.377   1.494
11104TIP3   OH233254   1.944   3.400   4.598
11104TIP3    H133255   2.007   3.332   4.622
11104TIP3    H233256   1.996   3.481   4.597
11105TIP3   OH233257   3.430   0.870   5.602
11105TIP3    H133258   3.367   0.942   5.607
11105TIP3    H233259   3.376   0.793   5.583
11106TIP3   OH233260   6.178   7.531   1.744
11106TIP3    H133261   6.256   7.475   1.740
11106TIP3    H233262   6.112   7.482   1.694
11107TIP3   OH233263   3.662   2.532   2.280
11107TIP3    H133264   3.699   2.462   2.333
11107TIP3    H233265   3.602   2.578   2.339
11108TIP3   OH233266   2.776   2.258   0.749
11108TIP3    H133267   2.825   2.311   0.812
11108TIP3    H233268   2.685   2.263   0.778
11109TIP3   OH233269   0.988   3.296   1.621
11109TIP3    H133270   1.076   3.270   1.598
11109TIP3    H233271   0.951   3.219   1.665
11110TIP3   OH233272   3.396   6.888   2.737
11110TIP3    H133273   3.346   6.957   2.780
11110TIP3    H233274   3.454   6.934   2.676
11111TIP3   OH233275   7.217   0.092   1.261
11111TIP3    H133276   7.174   0.172   1.291
11111TIP3    H233277   7.201   0.091   1.167
11112TIP3   OH233278   5.657   1.921   4.572
11112TIP3    H133279   5.724   1.870   4.526
11112TIP3    H233280   5.694   1.936   4.659
11113TIP3   OH233281   2.478   6.795   3.794
11113TIP3    H133282   2.541   6.770   3.861
11113TIP3    H233283   2.526   6.784   3.712
11114TIP3   OH233284   1.592   2.848   5.211
11114TIP3    H133285   1.512   2.807   5.176
11114TIP3    H233286   1.663   2.795   5.176
11115TIP3   OH233287   4.757   0.405   1.511
11115TIP3    H133288   4.755   0.493   1.549
11115TIP3    H233289   4.689   0.357   1.558
11116TIP3   OH233290   0.107   3.794   3.641
11116TIP3    H133291   0.115   3.703   3.671
11116TIP3    H233292   0.013   3.806   3.627
11117TIP3   OH233293   4.068   6.101   4.447
11117TIP3    H133294   4.157   6.135   4.432
11117TIP3    H233295   4.011   6.162   4.402
11118TIP3   OH233296   1.514   3.577   3.750
11118TIP3    H133297   1.532   3.558   3.658
11118TIP3    H233298   1.555   3.506   3.799
11119TIP3   OH233299   8.061   3.254   0.952
11119TIP3    H133300   8.082   3.262   0.859
11119TIP3    H233301   8.059   3.160   0.968
11120TIP3   OH233302   3.791   1.126   2.222
11120TIP3    H133303   3.761   1.167   2.141
11120TIP3    H233304   3.866   1.180   2.249
11121TIP3   OH233305   5.536   4.571   2.586
11121TIP3    H133306   5.598   4.589   2.515
11121TIP3    H233307   5.484   4.498   2.555
11122TIP3   OH233308   5.579   4.268   6.623
11122TIP3    H133309   5.537   4.232   6.701
11122TIP3    H233310   5.646   4.204   6.601
11123TIP3   OH233311   4.621   0.116   2.669
11123TIP3    H133312   4.573   0.051   2.618
11123TIP3    H233313   4.688   0.148   2.609
11124TIP3   OH233314   5.922   7.652   6.311
11124TIP3    H133315   5.873   7.708   6.370
11124TIP3    H233316   5.859   7.628   6.243
11125TIP3   OH233317   2.693   2.736   3.294
11125TIP3    H133318   2.684   2.696   3.207
11125TIP3    H233319   2.672   2.665   3.355
11126TIP3   OH233320   6.287   0.278   6.091
11126TIP3    H133321   6.292   0.369   6.120
11126TIP3    H233322   6.203   0.247   6.123
11127TIP3   OH233323   6.913   7.277   4.388
11127TIP3    H133324   6.945   7.220   4.458
11127TIP3    H233325   6.884   7.356   4.432
11128TIP3   OH233326   3.497   1.306   1.412
11128TIP3    H133327   3.436   1.330   1.342
11128TIP3    H233328   3.484   1.212   1.424
11129TIP3   OH233329   4.851   1.904   2.263
11129TIP3    H133330   4.770   1.950   2.241
11129TIP3    H233331   4.823   1.836   2.325
11130TIP3   OH233332   5.732   7.719   1.594
11130TIP3    H133333   5.725   7.624   1.587
11130TIP3    H233334   5.826   7.736   1.599
11131TIP3   OH233335   1.320   7.591   5.316
11131TIP3    H133336   1.362   7.659   5.368
11131TIP3    H233337   1.237   7.630   5.288
11132TIP3   OH233338   2.917   5.857   0.639
11132TIP3    H133339   2.899   5.951   0.639
11132TIP3    H233340   2.957   5.840   0.725
11133TIP3   OH233341   1.826   6.612   0.498
11133TIP3    H133342   1.880   6.652   0.566
11133TIP3    H233343   1.817   6.680   0.432
11134TIP3   OH233344   7.580   1.810   5.499
11134TIP3    H133345   7.617   1.728   5.531
11134TIP3    H233346   7.549   1.789   5.411
11135TIP3   OH233347   8.075   1.094   3.072
11135TIP3    H133348   8.053   1.174   3.120
11135TIP3    H233349   8.159   1.066   3.110
11136TIP3   OH233350   0.392   0.436   4.950
11136TIP3    H133351   0.308   0.459   4.990
11136TIP3    H233352   0.406   0.504   4.884
11137TIP3   OH233353   3.884   1.400   6.092
11137TIP3    H133354   3.803   1.349   6.095
11137TIP3    H233355   3.927   1.381   6.175
11138TIP3   OH233356   6.300   0.008   2.245
11138TIP3    H133357   6.357   0.075   2.207
11138TIP3    H233358   6.258   0.051   2.319
11139TIP3   OH233359   6.605   5.566   4.751
11139TIP3    H133360   6.685   5.617   4.739
11139TIP3    H233361   6.612   5.495   4.687
11140TIP3   OH233362   4.726   5.887   6.645
11140TIP3    H133363   4.786   5.952   6.607
11140TIP3    H233364   4.780   5.810   6.660
11141TIP3   OH233365   4.618   4.883   4.020
11141TIP3    H133366   4.542   4.918   4.066
11141TIP3    H233367   4.650   4.813   4.076
11142TIP3   OH233368   1.250   5.637   1.714
11142TIP3    H133369   1.271   5.598   1.629
11142TIP3    H233370   1.290   5.724   1.710
11143TIP3   OH233371   1.481   7.714   5.520
11143TIP3    H133372   1.455   7.805   5.534
11143TIP3    H233373   1.538   7.694   5.594
11144TIP3   OH233374   7.702   7.673   6.466
11144TIP3    H133375   7.691   7.724   6.546
11144TIP3    H233376   7.617   7.676   6.423
11145TIP3   OH233377   7.217   7.075   4.063
11145TIP3    H133378   7.239   7.030   3.981
11145TIP3    H233379   7.268   7.029   4.130
11146TIP3   OH233380   6.893   4.891   1.847
11146TIP3    H133381   6.987   4.909   1.842
11146TIP3    H233382   6.886   4.796   1.849
11147TIP3   OH233383   0.160   0.779   5.088
11147TIP3    H133384   0.156   0.875   5.089
11147TIP3    H233385   0.091   0.751   5.148
11148TIP3   OH233386   2.292   2.351   4.821
11148TIP3    H133387   2.246   2.276   4.785
11148TIP3    H233388   2.385   2.330   4.811
11149TIP3   OH233389   7.195   0.704   1.107
11149TIP3    H133390   7.215   0.797   1.093
11149TIP3    H233391   7.160   0.675   1.022
11150TIP3   OH233392   7.294   3.252   5.703
11150TIP3    H133393   7.295   3.301   5.786
11150TIP3    H233394   7.383   3.219   5.693
11151TIP3   OH233395   1.755   1.184   4.304
11151TIP3    H133396   1.722   1.136   4.228
11151TIP3    H233397   1.821   1.126   4.342
11152TIP3   OH233398   2.575   6.985   1.207
11152TIP3    H133399   2.646   7.005   1.268
11152TIP3    H233400   2.537   7.071   1.187
11153TIP3   OH233401   0.414  -0.017   4.957
11153TIP3    H133402   0.420  -0.083   4.887
11153TIP3    H233403   0.392   0.064   4.911
11154TIP3   OH233404   6.885   4.868   0.981
11154TIP3    H133405   6.931   4.801   1.032
11154TIP3    H233406   6.950   4.936   0.966
11155TIP3   OH233407   5.941   7.038   5.462
11155TIP3    H133408   5.966   7.127   5.437
11155TIP3    H233409   5.846   7.035   5.449
11156TIP3   OH233410   3.834   6.605   0.863
11156TIP3    H133411   3.914   6.656   0.850
11156TIP3    H233412   3.763   6.667   0.848
11157TIP3   OH233413   7.171   4.183   2.828
11157TIP3    H133414   7.175   4.120   2.900
11157TIP3    H233415   7.256   4.227   2.829
11158TIP3   OH233416   2.713   1.437   4.067
11158TIP3    H133417   2.644   1.491   4.027
11158TIP3    H233418   2.747   1.491   4.139
11159TIP3   OH233419   1.122   6.676   3.407
11159TIP3    H133420   1.158   6.640   3.325
11159TIP3    H233421   1.195   6.722   3.447
11160TIP3   OH233422   5.992   5.440   2.212
11160TIP3    H133423   5.900   5.465   2.222
11160TIP3    H233424   6.020   5.416   2.300
11161TIP3   OH233425   8.090   1.543   6.216
11161TIP3    H133426   8.060   1.490   6.142
11161TIP3    H233427   8.166   1.496   6.250
11162TIP3   OH233428   6.128   0.694   5.224
11162TIP3    H133429   6.040   0.656   5.215
11162TIP3    H233430   6.136   0.753   5.150
11163TIP3   OH233431   4.608   6.757   2.752
11163TIP3    H133432   4.695   6.728   2.724
11163TIP3    H233433   4.548   6.710   2.696
11164TIP3   OH233434   2.432   4.066   4.251
11164TIP3    H133435   2.512   4.036   4.207
11164TIP3    H233436   2.383   4.112   4.183
11165TIP3   OH233437   6.603   3.707   4.411
11165TIP3    H133438   6.698   3.717   4.415
11165TIP3    H233439   6.568   3.793   4.433
11166TIP3   OH233440   3.827   5.436   3.779
11166TIP3    H133441   3.769   5.361   3.764
11166TIP3    H233442   3.790   5.480   3.856
11167TIP3   OH233443   7.473   1.687   0.583
11167TIP3    H133444   7.467   1.594   0.565
11167TIP3    H233445   7.466   1.694   0.678
11168TIP3   OH233446   1.541   4.230   3.266
11168TIP3    H133447   1.486   4.238   3.344
11168TIP3    H233448   1.580   4.317   3.255
11169TIP3   OH233449   7.592   1.189   4.066
11169TIP3    H133450   7.663   1.253   4.076
11169TIP3    H233451   7.626   1.109   4.104
11170TIP3   OH233452   7.990   0.739   0.888
11170TIP3    H133453   8.002   0.812   0.828
11170TIP3    H233454   7.907   0.757   0.932
11171TIP3   OH233455   3.847   7.533   5.412
11171TIP3    H133456   3.920   7.487   5.370
11171TIP3    H233457   3.806   7.468   5.469
11172TIP3   OH233458   1.404   6.838   6.694
11172TIP3    H133459   1.473   6.812   6.633
11172TIP3    H233460   1.448   6.895   6.757
11173TIP3   OH233461   8.233   5.905   2.648
11173TIP3    H133462   8.268   5.979   2.597
11173TIP3    H233463   8.172   5.946   2.710
11174TIP3   OH233464   5.726   6.320   4.115
11174TIP3    H133465   5.644   6.328   4.162
11174TIP3    H233466   5.751   6.228   4.127
11175TIP3   OH233467   3.434   0.810   1.680
11175TIP3    H133468   3.353   0.831   1.727
11175TIP3    H233469   3.418   0.723   1.642
11176TIP3   OH233470   1.411   3.770   3.912
11176TIP3    H133471   1.474   3.704   3.881
11176TIP3    H233472   1.429   3.847   3.859
11177TIP3   OH233473   2.304   6.235   2.444
11177TIP3    H133474   2.322   6.152   2.401
11177TIP3    H233475   2.341   6.301   2.385
11178TIP3   OH233476   1.542   4.479   4.106
11178TIP3    H133477   1.496   4.406   4.064
11178TIP3    H233478   1.479   4.513   4.170
11179TIP3   OH233479   4.474   3.846   3.362
11179TIP3    H133480   4.546   3.790   3.392
11179TIP3    H233481   4.457   3.818   3.272
11180TIP3   OH233482   8.040   3.231   6.691
11180TIP3    H133483   8.100   3.164   6.658
11180TIP3    H233484   8.000   3.192   6.768
11181TIP3   OH233485   6.468   0.485   3.304
11181TIP3    H133486   6.510   0.546   3.365
11181TIP3    H233487   6.412   0.431   3.359
11182TIP3   OH233488   6.797   0.841   6.673
11182TIP3    H133489   6.876   0.787   6.667
11182TIP3    H233490   6.792   0.865   6.766
11183TIP3   OH233491   7.444   4.706   3.502
11183TIP3    H133492   7.422   4.727   3.592
11183TIP3    H233493   7.522   4.651   3.508
11184TIP3   OH233494   4.473   5.087   0.285
11184TIP3    H133495   4.384   5.068   0.314
11184TIP3    H233496   4.487   5.029   0.211
11185TIP3   OH233497   0.717   6.088   6.316
11185TIP3    H133498   0.719   6.005   6.363
11185TIP3    H233499   0.781   6.078   6.246
11186TIP3   OH233500   1.676   1.803   6.732
11186TIP3    H133501   1.588   1.779   6.760
11186TIP3    H233502   1.734   1.755   6.791
11187TIP3   OH233503   3.068   2.270   3.839
11187TIP3    H133504   3.041   2.216   3.913
11187TIP3    H233505   2.990   2.320   3.815
11188TIP3   OH233506   4.219   6.383   4.854
11188TIP3    H133507   4.146   6.320   4.851
11188TIP3    H233508   4.264   6.363   4.936
11189TIP3   OH233509   7.722   6.844   6.612
11189TIP3    H133510   7.728   6.874   6.703
11189TIP3    H233511   7.651   6.897   6.574
11190TIP3   OH233512   2.655   4.282   0.552
11190TIP3    H133513   2.702   4.306   0.632
11190TIP3    H233514   2.584   4.225   0.582
11191TIP3   OH233515   3.197   7.071   4.905
11191TIP3    H133516   3.170   7.013   4.833
11191TIP3    H233517   3.165   7.027   4.984
11192TIP3   OH233518   7.220   7.208   0.128
11192TIP3    H133519   7.303   7.164   0.106
11192TIP3    H233520   7.200   7.179   0.217
11193TIP3   OH233521   0.467   3.294   0.559
11193TIP3    H133522   0.408   3.239   0.506
11193TIP3    H233523   0.409   3.353   0.607
11194TIP3   OH233524   5.421   0.184   5.636
11194TIP3    H133525   5.413   0.267   5.683
11194TIP3    H233526   5.448   0.121   5.703
11195TIP3   OH233527   1.789   0.093   1.444
11195TIP3    H133528   1.868   0.058   1.402
11195TIP3    H233529   1.719   0.034   1.417
11196TIP3   OH233530   5.829   0.688   1.679
11196TIP3    H133531   5.807   0.780   1.693
11196TIP3    H233532   5.924   0.685   1.688
11197TIP3   OH233533   5.456   1.423   6.115
11197TIP3    H133534   5.446   1.347   6.058
11197TIP3    H233535   5.435   1.498   6.060
11198TIP3   OH233536   7.023   3.478   5.925
11198TIP3    H133537   6.976   3.551   5.885
11198TIP3    H233538   6.955   3.422   5.962
11199TIP3   OH233539   2.538   5.199   5.227
11199TIP3    H133540   2.503   5.119   5.186
11199TIP3    H233541   2.551   5.259   5.153
11200TIP3   OH233542   6.598   7.199   0.891
11200TIP3    H133543   6.539   7.172   0.961
11200TIP3    H233544   6.548   7.187   0.810
11201TIP3   OH233545   4.207   6.496   6.293
11201TIP3    H133546   4.300   6.503   6.271
11201TIP3    H233547   4.172   6.432   6.232
11202TIP3   OH233548   1.300   2.338   1.150
11202TIP3    H133549   1.394   2.317   1.151
11202TIP3    H233550   1.290   2.401   1.222
11203TIP3   OH233551   7.992   2.258   6.266
11203TIP3    H133552   7.943   2.335   6.238
11203TIP3    H233553   8.041   2.287   6.343
11204TIP3   OH233554   1.857   6.453   1.517
11204TIP3    H133555   1.869   6.383   1.453
11204TIP3    H233556   1.908   6.426   1.593
11205TIP3   OH233557   1.364   2.247   3.335
11205TIP3    H133558   1.366   2.319   3.272
11205TIP3    H233559   1.274   2.247   3.368
11206TIP3   OH233560   7.079   0.972   1.954
11206TIP3    H133561   7.031   0.943   1.876
11206TIP3    H233562   7.034   0.931   2.027
11207TIP3   OH233563   5.770   4.553   4.869
11207TIP3    H133564   5.775   4.527   4.961
11207TIP3    H233565   5.683   4.523   4.841
11208TIP3   OH233566   2.134   5.891   0.709
11208TIP3    H133567   2.065   5.844   0.755
11208TIP3    H233568   2.211   5.834   0.715
11209TIP3   OH233569   1.115   3.394   5.323
11209TIP3    H133570   1.148   3.428   5.406
11209TIP3    H233571   1.183   3.418   5.259
11210TIP3   OH233572   7.684   7.139   5.694
11210TIP3    H133573   7.612   7.077   5.690
11210TIP3    H233574   7.661   7.207   5.631
11211TIP3   OH233575   0.967   3.470   5.062
11211TIP3    H133576   1.021   3.487   5.139
11211TIP3    H233577   1.015   3.402   5.015
11212TIP3   OH233578   1.490   5.532   4.553
11212TIP3    H133579   1.563   5.476   4.580
11212TIP3    H233580   1.416   5.471   4.543
11213TIP3   OH233581   5.513   7.025   1.970
11213TIP3    H133582   5.593   6.987   1.933
11213TIP3    H233583   5.542   7.107   2.010
11214TIP3   OH233584   6.924   4.392   0.032
11214TIP3    H133585   6.907   4.481   0.063
11214TIP3    H233586   6.842   4.345   0.047
11215TIP3   OH233587   0.634   2.841   1.789
11215TIP3    H133588   0.659   2.922   1.744
11215TIP3    H233589   0.670   2.851   1.878
11216TIP3   OH233590   7.922   1.053   2.521
11216TIP3    H133591   8.004   1.036   2.475
11216TIP3    H233592   7.937   1.136   2.567
11217TIP3   OH233593   2.142   0.236   0.326
11217TIP3    H133594   2.196   0.292   0.381
11217TIP3    H233595   2.052   0.267   0.341
11218TIP3   OH233596   6.798   4.687   1.394
11218TIP3    H133597   6.836   4.763   1.350
11218TIP3    H233598   6.847   4.612   1.359
11219TIP3   OH233599   6.091   2.792   3.052
11219TIP3    H133600   6.062   2.703   3.033
11219TIP3    H233601   6.175   2.800   3.006
11220TIP3   OH233602   1.576   7.200   2.814
11220TIP3    H133603   1.559   7.155   2.896
11220TIP3    H233604   1.522   7.154   2.750
11221TIP3   OH233605   2.935   5.940   1.896
11221TIP3    H133606   2.883   5.874   1.941
11221TIP3    H233607   3.009   5.957   1.955
11222TIP3   OH233608   3.598   1.931   2.968
11222TIP3    H133609   3.555   1.928   2.882
11222TIP3    H233610   3.547   1.996   3.017
11223TIP3   OH233611   0.567   3.024   0.347
11223TIP3    H133612   0.538   3.088   0.283
11223TIP3    H233613   0.652   3.057   0.376
11224TIP3   OH233614   2.093   0.640   0.503
11224TIP3    H133615   2.188   0.641   0.513
11224TIP3    H233616   2.079   0.605   0.415
11225TIP3   OH233617   8.039   7.588   3.257
11225TIP3    H133618   7.945   7.603   3.250
11225TIP3    H233619   8.078   7.675   3.252
11226TIP3   OH233620   8.063   4.934   1.050
11226TIP3    H133621   7.994   4.902   1.108
11226TIP3    H233622   8.123   4.859   1.041
11227TIP3   OH233623   6.061   4.467   5.972
11227TIP3    H133624   5.971   4.498   5.972
11227TIP3    H233625   6.064   4.400   6.041
11228TIP3   OH233626   3.174   2.685   2.208
11228TIP3    H133627   3.258   2.725   2.231
11228TIP3    H233628   3.195   2.594   2.189
11229TIP3   OH233629   4.630   2.167   3.156
11229TIP3    H133630   4.660   2.232   3.092
11229TIP3    H233631   4.708   2.147   3.207
11230TIP3   OH233632   4.776   6.991   3.406
11230TIP3    H133633   4.848   7.003   3.468
11230TIP3    H233634   4.804   7.037   3.327
11231TIP3   OH233635   4.551   5.293   6.769
11231TIP3    H133636   4.464   5.333   6.771
11231TIP3    H233637   4.612   5.367   6.780
11232TIP3   OH233638   5.907   2.531   4.697
11232TIP3    H133639   5.828   2.499   4.654
11232TIP3    H233640   5.953   2.581   4.629
11233TIP3   OH233641   7.278   5.275   1.610
11233TIP3    H133642   7.371   5.294   1.613
11233TIP3    H233643   7.240   5.349   1.561
11234TIP3   OH233644   6.547   6.616   6.164
11234TIP3    H133645   6.623   6.658   6.205
11234TIP3    H233646   6.488   6.689   6.142
11235TIP3   OH233647   3.552   3.555   5.861
11235TIP3    H133648   3.514   3.523   5.942
11235TIP3    H233649   3.565   3.476   5.807
11236TIP3   OH233650   6.532   5.658   4.116
11236TIP3    H133651   6.585   5.588   4.155
11236TIP3    H233652   6.473   5.685   4.185
11237TIP3   OH233653   1.951   3.726   4.962
11237TIP3    H133654   1.965   3.810   4.919
11237TIP3    H233655   2.031   3.676   4.945
11238TIP3   OH233656   7.809   4.748   5.488
11238TIP3    H133657   7.722   4.708   5.501
11238TIP3    H233658   7.813   4.819   5.552
11239TIP3   OH233659   1.105   3.899   1.126
11239TIP3    H133660   1.190   3.934   1.099
11239TIP3    H233661   1.124   3.810   1.156
11240TIP3   OH233662   0.316   5.088   4.188
11240TIP3    H133663   0.280   5.003   4.163
11240TIP3    H233664   0.376   5.110   4.117
11241TIP3   OH233665   5.196   1.643   6.664
11241TIP3    H133666   5.226   1.625   6.753
11241TIP3    H233667   5.168   1.735   6.665
11242TIP3   OH233668   5.808   1.335   5.764
11242TIP3    H133669   5.771   1.248   5.748
11242TIP3    H233670   5.733   1.393   5.769
11243TIP3   OH233671   2.888   6.671   3.325
11243TIP3    H133672   2.908   6.578   3.325
11243TIP3    H233673   2.797   6.677   3.297
11244TIP3   OH233674   0.570   4.409   2.106
11244TIP3    H133675   0.602   4.476   2.167
11244TIP3    H233676   0.522   4.347   2.162
11245TIP3   OH233677   1.029   1.776  -0.019
11245TIP3    H133678   1.004   1.846   0.042
11245TIP3    H233679   1.034   1.697   0.035
11246TIP3   OH233680   5.266   6.389   5.504
11246TIP3    H133681   5.212   6.310   5.496
11246TIP3    H233682   5.320   6.389   5.425
11247TIP3   OH233683   5.559   0.882   0.273
11247TIP3    H133684   5.473   0.896   0.233
11247TIP3    H233685   5.593   0.971   0.287
11248TIP3   OH233686   4.363   6.334   5.930
11248TIP3    H133687   4.358   6.375   6.016
11248TIP3    H233688   4.368   6.408   5.869
11249TIP3   OH233689   7.618   2.317   0.309
11249TIP3    H133690   7.613   2.293   0.401
11249TIP3    H233691   7.660   2.403   0.309
11250TIP3   OH233692   8.111   6.375   2.217
11250TIP3    H133693   8.050   6.335   2.280
11250TIP3    H233694   8.194   6.380   2.264
11251TIP3   OH233695   2.358   3.220   1.889
11251TIP3    H133696   2.361   3.261   1.976
11251TIP3    H233697   2.281   3.258   1.847
11252TIP3   OH233698   7.218   6.801   1.657
11252TIP3    H133699   7.188   6.857   1.585
11252TIP3    H233700   7.149   6.734   1.665
11253TIP3   OH233701   3.277   2.416   2.758
11253TIP3    H133702   3.236   2.453   2.680
11253TIP3    H233703   3.353   2.368   2.725
11254TIP3   OH233704   2.930   2.095   2.574
11254TIP3    H133705   2.875   2.018   2.556
11254TIP3    H233706   2.908   2.119   2.664
11255TIP3   OH233707   4.556   0.257   1.668
11255TIP3    H133708   4.491   0.187   1.656
11255TIP3    H233709   4.509   0.325   1.717
11256TIP3   OH233710   3.474   6.333   0.192
11256TIP3    H133711   3.380   6.331   0.212
11256TIP3    H233712   3.478   6.357   0.099
11257TIP3   OH233713   5.436   7.329   2.544
11257TIP3    H133714   5.408   7.359   2.630
11257TIP3    H233715   5.354   7.309   2.498
11258TIP3   OH233716   1.203   1.134   4.422
11258TIP3    H133717   1.192   1.048   4.462
11258TIP3    H233718   1.172   1.195   4.490
11259TIP3   OH233719   5.193   0.737   5.539
11259TIP3    H133720   5.156   0.664   5.588
11259TIP3    H233721   5.202   0.704   5.449
11260TIP3   OH233722   3.146   3.282   4.903
11260TIP3    H133723   3.229   3.277   4.856
11260TIP3    H233724   3.148   3.367   4.947
11261TIP3   OH233725   1.506   2.479   0.218
11261TIP3    H133726   1.496   2.392   0.181
11261TIP3    H233727   1.526   2.536   0.143
11262TIP3   OH233728   1.105   1.130   3.925
11262TIP3    H133729   1.168   1.067   3.958
11262TIP3    H233730   1.037   1.133   3.993
11263TIP3   OH233731   7.620   0.341   4.370
11263TIP3    H133732   7.586   0.252   4.383
11263TIP3    H233733   7.660   0.364   4.453
11264TIP3   OH233734   0.607   0.518   2.778
11264TIP3    H133735   0.651   0.436   2.803
11264TIP3    H233736   0.572   0.553   2.860
11265TIP3   OH233737   6.435   0.770   6.397
11265TIP3    H133738   6.341   0.750   6.389
11265TIP3    H233739   6.451   0.771   6.491
11266TIP3   OH233740   0.930   0.411   2.225
11266TIP3    H133741   0.999   0.455   2.176
11266TIP3    H233742   0.862   0.477   2.236
11267TIP3   OH233743   0.785   2.797   6.803
11267TIP3    H133744   0.838   2.768   6.877
11267TIP3    H233745   0.832   2.873   6.768
11268TIP3   OH233746   0.391   7.154   6.705
11268TIP3    H133747   0.372   7.233   6.655
11268TIP3    H233748   0.410   7.186   6.794
11269TIP3   OH233749   7.391   5.449   0.265
11269TIP3    H133750   7.406   5.409   0.179
11269TIP3    H233751   7.296   5.459   0.271
11270TIP3   OH233752   2.470   6.778   1.555
11270TIP3    H133753   2.563   6.766   1.535
11270TIP3    H233754   2.467   6.860   1.604
11271TIP3   OH233755   4.549   5.023   6.609
11271TIP3    H133756   4.565   5.057   6.697
11271TIP3    H233757   4.512   4.936   6.623
11272TIP3   OH233758   3.453   0.155   0.061
11272TIP3    H133759   3.535   0.107   0.068
11272TIP3    H233760   3.450   0.210   0.140
11273TIP3   OH233761   5.251   0.099   5.212
11273TIP3    H133762   5.324   0.070   5.266
11273TIP3    H233763   5.223   0.020   5.164
11274TIP3   OH233764   4.818   4.216   4.749
11274TIP3    H133765   4.779   4.132   4.726
11274TIP3    H233766   4.805   4.271   4.672
11275TIP3   OH233767   2.300   5.247   5.567
11275TIP3    H133768   2.232   5.307   5.534
11275TIP3    H233769   2.271   5.223   5.655
11276TIP3   OH233770   4.270   7.725   4.849
11276TIP3    H133771   4.186   7.765   4.872
11276TIP3    H233772   4.252   7.631   4.848
11277TIP3   OH233773   7.459   0.979   2.901
11277TIP3    H133774   7.463   0.981   2.997
11277TIP3    H233775   7.549   0.960   2.874
11278TIP3   OH233776   6.446   1.039   3.712
11278TIP3    H133777   6.491   1.066   3.792
11278TIP3    H233778   6.375   0.982   3.742
11279TIP3   OH233779   5.730   1.234   0.613
11279TIP3    H133780   5.814   1.206   0.575
11279TIP3    H233781   5.684   1.276   0.540
11280TIP3   OH233782   5.381   2.032   1.802
11280TIP3    H133783   5.396   2.091   1.728
11280TIP3    H233784   5.286   2.035   1.815
11281TIP3   OH233785   5.354   5.131   0.231
11281TIP3    H133786   5.366   5.037   0.218
11281TIP3    H233787   5.413   5.153   0.303
11282TIP3   OH233788   7.448   0.853   0.555
11282TIP3    H133789   7.379   0.802   0.514
11282TIP3    H233790   7.518   0.856   0.490
11283TIP3   OH233791   0.966   7.226   4.847
11283TIP3    H133792   0.882   7.256   4.880
11283TIP3    H233793   1.015   7.306   4.828
11284TIP3   OH233794   7.118   2.423   1.989
11284TIP3    H133795   7.034   2.382   2.009
11284TIP3    H233796   7.180   2.350   1.982
11285TIP3   OH233797   3.767   1.304   1.962
11285TIP3    H133798   3.739   1.260   1.882
11285TIP3    H233799   3.687   1.342   1.998
11286TIP3   OH233800   2.611   3.011   0.184
11286TIP3    H133801   2.669   2.955   0.131
11286TIP3    H233802   2.607   3.093   0.135
11287TIP3   OH233803   1.916   1.820   3.573
11287TIP3    H133804   1.962   1.903   3.564
11287TIP3    H233805   1.837   1.841   3.623
11288TIP3   OH233806   5.736   7.739   6.562
11288TIP3    H133807   5.753   7.747   6.656
11288TIP3    H233808   5.745   7.828   6.528
11289TIP3   OH233809   0.399   0.950   2.598
11289TIP3    H133810   0.381   0.932   2.506
11289TIP3    H233811   0.484   0.910   2.615
11290TIP3   OH233812   0.790   6.907   3.000
11290TIP3    H133813   0.814   6.830   3.051
11290TIP3    H233814   0.869   6.962   3.002
11291TIP3   OH233815   0.810   5.863   3.038
11291TIP3    H133816   0.735   5.900   3.085
11291TIP3    H233817   0.819   5.774   3.073
11292TIP3   OH233818   3.613   6.305   0.920
11292TIP3    H133819   3.619   6.385   0.868
11292TIP3    H233820   3.520   6.284   0.921
11293TIP3   OH233821   7.323   1.566   0.268
11293TIP3    H133822   7.379   1.525   0.335
11293TIP3    H233823   7.375   1.638   0.234
11294TIP3   OH233824   6.143   0.216   3.568
11294TIP3    H133825   6.103   0.269   3.638
11294TIP3    H233826   6.132   0.126   3.598
11295TIP3   OH233827   5.584   5.275   5.267
11295TIP3    H133828   5.516   5.260   5.333
11295TIP3    H233829   5.665   5.281   5.318
11296TIP3   OH233830   2.138   5.185   3.479
11296TIP3    H133831   2.071   5.146   3.422
11296TIP3    H233832   2.216   5.192   3.424
11297TIP3   OH233833   5.138   4.193   5.001
11297TIP3    H133834   5.182   4.175   4.918
11297TIP3    H233835   5.136   4.109   5.045
11298TIP3   OH233836   1.309   2.811   2.553
11298TIP3    H133837   1.290   2.847   2.639
11298TIP3    H233838   1.262   2.868   2.492
11299TIP3   OH233839   8.177   1.446   4.599
11299TIP3    H133840   8.098   1.494   4.624
11299TIP3    H233841   8.151   1.396   4.522
11300TIP3   OH233842   6.019   1.382   3.021
11300TIP3    H133843   6.046   1.339   3.102
11300TIP3    H233844   6.057   1.328   2.952
11301TIP3   OH233845   3.806   4.092   0.349
11301TIP3    H133846   3.717   4.083   0.381
11301TIP3    H233847   3.820   4.186   0.342
11302TIP3   OH233848   2.177   7.137   5.783
11302TIP3    H133849   2.123   7.154   5.705
11302TIP3    H233850   2.240   7.070   5.755
11303TIP3   OH233851   1.456   2.580   5.910
11303TIP3    H133852   1.402   2.533   5.847
11303TIP3    H233853   1.510   2.513   5.951
11304TIP3   OH233854   6.216   3.657   3.481
11304TIP3    H133855   6.175   3.651   3.567
11304TIP3    H233856   6.210   3.568   3.446
11305TIP3   OH233857   0.370   1.458   1.241
11305TIP3    H133858   0.412   1.534   1.283
11305TIP3    H233859   0.421   1.444   1.161
11306TIP3   OH233860   3.670   5.548   3.225
11306TIP3    H133861   3.658   5.553   3.320
11306TIP3    H233862   3.589   5.585   3.189
11307TIP3   OH233863   7.285   5.613   2.091
11307TIP3    H133864   7.257   5.627   2.181
11307TIP3    H233865   7.381   5.606   2.096
11308TIP3   OH233866   3.047   5.675   1.380
11308TIP3    H133867   3.088   5.691   1.295
11308TIP3    H233868   3.032   5.580   1.382
11309TIP3   OH233869   0.633   1.166   1.322
11309TIP3    H133870   0.544   1.150   1.289
11309TIP3    H233871   0.620   1.204   1.409
11310TIP3   OH233872   5.155   1.743   3.437
11310TIP3    H133873   5.120   1.773   3.353
11310TIP3    H233874   5.243   1.781   3.441
11311TIP3   OH233875   4.098   0.214   6.322
11311TIP3    H133876   4.006   0.222   6.345
11311TIP3    H233877   4.105   0.254   6.235
11312TIP3   OH233878   7.149   3.115   3.354
11312TIP3    H133879   7.208   3.131   3.280
11312TIP3    H233880   7.073   3.072   3.316
11313TIP3   OH233881   6.245   4.211   4.479
11313TIP3    H133882   6.324   4.168   4.447
11313TIP3    H233883   6.178   4.190   4.413
11314TIP3   OH233884   3.186   6.833   5.624
11314TIP3    H133885   3.156   6.761   5.679
11314TIP3    H233886   3.274   6.853   5.655
11315TIP3   OH233887   7.165   3.729   5.652
11315TIP3    H133888   7.182   3.812   5.607
11315TIP3    H233889   7.214   3.664   5.601
11316TIP3   OH233890   6.797   3.973   2.557
11316TIP3    H133891   6.870   3.916   2.534
11316TIP3    H233892   6.833   4.030   2.626
11317TIP3   OH233893   2.890   3.725   1.290
11317TIP3    H133894   2.962   3.663   1.298
11317TIP3    H233895   2.863   3.743   1.381
11318TIP3   OH233896   7.898   7.051   2.308
11318TIP3    H133897   7.836   7.124   2.314
11318TIP3    H233898   7.893   7.024   2.216
11319TIP3   OH233899   7.649   4.888   2.439
11319TIP3    H133900   7.714   4.920   2.501
11319TIP3    H233901   7.572   4.942   2.455
11320TIP3   OH233902   5.115   1.461   0.074
11320TIP3    H133903   5.150   1.450   0.163
11320TIP3    H233904   5.190   1.445   0.017
11321TIP3   OH233905   0.369   2.050   6.570
11321TIP3    H133906   0.274   2.040   6.569
11321TIP3    H233907   0.386   2.132   6.524
11322TIP3   OH233908   2.167   7.604   4.838
11322TIP3    H133909   2.173   7.534   4.903
11322TIP3    H233910   2.192   7.683   4.887
11323TIP3   OH233911   2.564   2.341   4.865
11323TIP3    H133912   2.581   2.425   4.908
11323TIP3    H233913   2.585   2.275   4.932
11324TIP3   OH233914   7.335   4.162   5.075
11324TIP3    H133915   7.242   4.139   5.067
11324TIP3    H233916   7.381   4.079   5.070
11325TIP3   OH233917   4.853   6.195   4.079
11325TIP3    H133918   4.917   6.178   4.148
11325TIP3    H233919   4.892   6.265   4.027
11326TIP3   OH233920   6.556   2.806   3.326
11326TIP3    H133921   6.603   2.729   3.295
11326TIP3    H233922   6.512   2.840   3.249
11327TIP3   OH233923   0.692   7.397   4.165
11327TIP3    H133924   0.755   7.459   4.128
11327TIP3    H233925   0.710   7.398   4.259
11328TIP3   OH233926   8.114   1.740   3.248
11328TIP3    H133927   8.063   1.667   3.211
11328TIP3    H233928   8.146   1.707   3.331
11329TIP3   OH233929   1.981   6.774   0.275
11329TIP3    H133930   1.947   6.863   0.284
11329TIP3    H233931   2.072   6.780   0.303
11330TIP3   OH233932   3.916   1.101   4.891
11330TIP3    H133933   3.822   1.107   4.910
11330TIP3    H233934   3.920   1.069   4.801
11331TIP3   OH233935   5.534   1.319   1.591
11331TIP3    H133936   5.619   1.290   1.624
11331TIP3    H233937   5.499   1.376   1.660
11332TIP3   OH233938   7.851   5.633   5.188
11332TIP3    H133939   7.764   5.592   5.190
11332TIP3    H233940   7.850   5.694   5.262
11333TIP3   OH233941   5.840   2.143   5.905
11333TIP3    H133942   5.794   2.068   5.943
11333TIP3    H233943   5.907   2.166   5.970
11334TIP3   OH233944   5.334   3.214   4.348
11334TIP3    H133945   5.316   3.121   4.333
11334TIP3    H233946   5.263   3.260   4.304
11335TIP3   OH233947   5.052   1.213   1.048
11335TIP3    H133948   5.061   1.296   1.095
11335TIP3    H233949   4.958   1.204   1.033
11336TIP3   OH233950   5.965   6.920   2.622
11336TIP3    H133951   6.037   6.857   2.628
11336TIP3    H233952   5.923   6.917   2.708
11337TIP3   OH233953   3.133   5.853   1.194
11337TIP3    H133954   3.161   5.942   1.175
11337TIP3    H233955   3.212   5.800   1.179
11338TIP3   OH233956   5.317   7.183   5.147
11338TIP3    H133957   5.338   7.137   5.066
11338TIP3    H233958   5.365   7.135   5.214
11339TIP3   OH233959   3.472   6.677   4.707
11339TIP3    H133960   3.454   6.587   4.678
11339TIP3    H233961   3.514   6.718   4.631
11340TIP3   OH233962   0.886   6.592   1.154
11340TIP3    H133963   0.952   6.534   1.192
11340TIP3    H233964   0.845   6.540   1.085
11341TIP3   OH233965   5.152   7.801   3.564
11341TIP3    H133966   5.155   7.896   3.558
11341TIP3    H233967   5.197   7.770   3.485
11342TIP3   OH233968   4.138   5.794   5.409
11342TIP3    H133969   4.175   5.875   5.373
11342TIP3    H233970   4.206   5.728   5.397
11343TIP3   OH233971   5.759   1.898   5.109
11343TIP3    H133972   5.688   1.896   5.046
11343TIP3    H233973   5.790   1.807   5.113
11344TIP3   OH233974   7.792   2.842   2.471
11344TIP3    H133975   7.775   2.755   2.434
11344TIP3    H233976   7.817   2.825   2.562
11345TIP3   OH233977   7.332   3.901   2.049
11345TIP3    H133978   7.424   3.887   2.072
11345TIP3    H233979   7.333   3.911   1.953
11346TIP3   OH233980   5.525   2.474   3.963
11346TIP3    H133981   5.451   2.498   4.019
11346TIP3    H233982   5.499   2.504   3.876
11347TIP3   OH233983   1.232   2.901   1.270
11347TIP3    H133984   1.303   2.904   1.334
11347TIP3    H233985   1.275   2.880   1.187
11348TIP3   OH233986   7.695   5.988   1.496
11348TIP3    H133987   7.617   6.040   1.511
11348TIP3    H233988   7.676   5.938   1.416
11349TIP3   OH233989   4.110   6.582   2.492
11349TIP3    H133990   4.161   6.504   2.470
11349TIP3    H233991   4.175   6.650   2.508
11350TIP3   OH233992   1.581   7.263   0.275
11350TIP3    H133993   1.656   7.322   0.265
11350TIP3    H233994   1.522   7.309   0.335
11351TIP3   OH233995   1.896   6.808   3.935
11351TIP3    H133996   1.948   6.875   3.980
11351TIP3    H233997   1.813   6.851   3.917
11352TIP3   OH233998   2.974   4.154   4.609
11352TIP3    H133999   2.946   4.138   4.699
11352TIP3    H234000   2.908   4.213   4.573
11353TIP3   OH234001   2.105   2.063   6.706
11353TIP3    H134002   2.184   2.046   6.758
11353TIP3    H234003   2.101   2.158   6.698
11354TIP3   OH234004   1.152   1.099   0.705
11354TIP3    H134005   1.217   1.029   0.710
11354TIP3    H234006   1.069   1.055   0.685
11355TIP3   OH234007   1.258   3.151   3.405
11355TIP3    H134008   1.221   3.097   3.474
11355TIP3    H234009   1.329   3.098   3.369
11356TIP3   OH234010   1.328   4.278   3.102
11356TIP3    H134011   1.359   4.270   3.012
11356TIP3    H234012   1.400   4.245   3.156
11357TIP3   OH234013   8.175   3.831   3.353
11357TIP3    H134014   8.089   3.855   3.389
11357TIP3    H234015   8.178   3.736   3.362
11358TIP3   OH234016   6.392   1.316   6.423
11358TIP3    H134017   6.310   1.360   6.444
11358TIP3    H234018   6.457   1.356   6.481
11359TIP3   OH234019   5.908   1.552   3.319
11359TIP3    H134020   5.845   1.503   3.373
11359TIP3    H234021   5.889   1.525   3.230
11360TIP3   OH234022   8.211   0.216   3.317
11360TIP3    H134023   8.270   0.249   3.249
11360TIP3    H234024   8.139   0.278   3.319
11361TIP3   OH234025   3.328   6.344   2.386
11361TIP3    H134026   3.376   6.302   2.315
11361TIP3    H234027   3.272   6.408   2.342
11362TIP3   OH234028   1.832   0.745   2.338
11362TIP3    H134029   1.879   0.770   2.417
11362TIP3    H234030   1.758   0.806   2.334
11363TIP3   OH234031   7.801   5.038   2.604
11363TIP3    H134032   7.749   5.116   2.625
11363TIP3    H234033   7.891   5.063   2.627
11364TIP3   OH234034   5.569   3.976   3.423
11364TIP3    H134035   5.487   3.943   3.460
11364TIP3    H234036   5.630   3.975   3.496
11365TIP3   OH234037   2.576   6.961   1.769
11365TIP3    H134038   2.655   7.016   1.764
11365TIP3    H234039   2.544   6.973   1.858
11366TIP3   OH234040   3.755   5.797   1.790
11366TIP3    H134041   3.733   5.849   1.713
11366TIP3    H234042   3.835   5.838   1.824
11367TIP3   OH234043   1.124   2.306   1.460
11367TIP3    H134044   1.148   2.390   1.421
11367TIP3    H234045   1.169   2.305   1.545
11368TIP3   OH234046   6.254   1.508   2.799
11368TIP3    H134047   6.223   1.424   2.767
11368TIP3    H234048   6.175   1.554   2.826
11369TIP3   OH234049   0.625   3.707   4.963
11369TIP3    H134050   0.697   3.768   4.948
11369TIP3    H234051   0.560   3.731   4.897
11370TIP3   OH234052   6.963   2.078   1.678
11370TIP3    H134053   6.959   2.103   1.586
11370TIP3    H234054   6.872   2.062   1.702
11371TIP3   OH234055   0.511   3.986   3.570
11371TIP3    H134056   0.552   4.072   3.567
11371TIP3    H234057   0.418   4.004   3.586
11372TIP3   OH234058   7.408   0.344   1.365
11372TIP3    H134059   7.504   0.345   1.365
11372TIP3    H234060   7.383   0.380   1.280
11373TIP3   OH234061   1.062   2.234   2.845
11373TIP3    H134062   1.007   2.157   2.834
11373TIP3    H234063   1.109   2.218   2.927
11374TIP3   OH234064   3.486   3.353   3.167
11374TIP3    H134065   3.456   3.378   3.080
11374TIP3    H234066   3.522   3.265   3.155
11375TIP3   OH234067   6.331   3.066   6.175
11375TIP3    H134068   6.394   3.021   6.231
11375TIP3    H234069   6.385   3.120   6.118
11376TIP3   OH234070   8.128   6.747   0.713
11376TIP3    H134071   8.147   6.840   0.715
11376TIP3    H234072   8.189   6.711   0.649
11377TIP3   OH234073   4.125   1.878   2.625
11377TIP3    H134074   4.043   1.870   2.674
11377TIP3    H234075   4.193   1.863   2.691
11378TIP3   OH234076   6.068   2.854   3.849
11378TIP3    H134077   6.124   2.918   3.804
11378TIP3    H234078   6.021   2.810   3.778
11379TIP3   OH234079   7.367   5.733   0.525
11379TIP3    H134080   7.423   5.807   0.547
11379TIP3    H234081   7.397   5.663   0.583
11380TIP3   OH234082   4.601   6.590   1.807
11380TIP3    H134083   4.625   6.497   1.811
11380TIP3    H234084   4.680   6.633   1.776
11381TIP3   OH234085   0.400   3.162   3.086
11381TIP3    H134086   0.391   3.153   2.992
11381TIP3    H234087   0.478   3.112   3.108
11382TIP3   OH234088   7.262   5.028   3.185
11382TIP3    H134089   7.321   4.984   3.247
11382TIP3    H234090   7.248   4.963   3.116
11383TIP3   OH234091   7.621   5.108   6.491
11383TIP3    H134092   7.682   5.136   6.559
11383TIP3    H234093   7.677   5.087   6.416
11384TIP3   OH234094   0.433   4.474   4.390
11384TIP3    H134095   0.514   4.424   4.386
11384TIP3    H234096   0.383   4.447   4.313
11385TIP3   OH234097   6.488   3.865   0.642
11385TIP3    H134098   6.496   3.957   0.668
11385TIP3    H234099   6.551   3.855   0.571
11386TIP3   OH234100   2.913   5.724   6.019
11386TIP3    H134101   2.990   5.705   5.965
11386TIP3    H234102   2.903   5.819   6.014
11387TIP3   OH234103   2.306   2.493   4.152
11387TIP3    H134104   2.360   2.462   4.225
11387TIP3    H234105   2.311   2.588   4.157
11388TIP3   OH234106   4.100   1.312   3.333
11388TIP3    H134107   4.046   1.289   3.257
11388TIP3    H234108   4.190   1.304   3.301
11389TIP3   OH234109   1.882   7.316   4.852
11389TIP3    H134110   1.822   7.388   4.831
11389TIP3    H234111   1.838   7.268   4.923
11390TIP3   OH234112   7.663   5.936   5.380
11390TIP3    H134113   7.604   6.004   5.412
11390TIP3    H234114   7.661   5.946   5.285
11391TIP3   OH234115   4.092   1.297   4.998
11391TIP3    H134116   4.027   1.328   5.062
11391TIP3    H234117   4.046   1.230   4.948
11392TIP3   OH234118   5.757   5.593   3.840
11392TIP3    H134119   5.809   5.518   3.812
11392TIP3    H234120   5.785   5.665   3.783
11393TIP3   OH234121   0.330   4.595   5.564
11393TIP3    H134122   0.279   4.517   5.545
11393TIP3    H234123   0.388   4.570   5.635
11394TIP3   OH234124   4.198   5.170   2.432
11394TIP3    H134125   4.184   5.230   2.359
11394TIP3    H234126   4.289   5.185   2.458
11395TIP3   OH234127   4.170   0.744   2.822
11395TIP3    H134128   4.209   0.690   2.890
11395TIP3    H234129   4.169   0.688   2.744
11396TIP3   OH234130   0.372   5.873   3.767
11396TIP3    H134131   0.433   5.916   3.826
11396TIP3    H234132   0.307   5.832   3.824
11397TIP3   OH234133   1.666   7.053   6.186
11397TIP3    H134134   1.718   6.983   6.146
11397TIP3    H234135   1.609   7.084   6.116
11398TIP3   OH234136   6.679   4.392   3.819
11398TIP3    H134137   6.702   4.464   3.760
11398TIP3    H234138   6.584   4.393   3.822
11399TIP3   OH234139   2.564   3.743   1.868
11399TIP3    H134140   2.517   3.661   1.854
11399TIP3    H234141   2.496   3.806   1.893
11400TIP3   OH234142   3.149   5.541   3.971
11400TIP3    H134143   3.214   5.611   3.970
11400TIP3    H234144   3.193   5.467   3.929
11401TIP3   OH234145   2.561   2.597   4.967
11401TIP3    H134146   2.617   2.674   4.976
11401TIP3    H234147   2.483   2.628   4.921
11402TIP3   OH234148   0.388   3.805   2.272
11402TIP3    H134149   0.315   3.743   2.264
11402TIP3    H234150   0.425   3.809   2.185
11403TIP3   OH234151   0.951   1.733   0.371
11403TIP3    H134152   1.035   1.697   0.343
11403TIP3    H234153   0.970   1.824   0.394
11404TIP3   OH234154   1.950   5.531   2.667
11404TIP3    H134155   2.017   5.511   2.733
11404TIP3    H234156   1.872   5.553   2.718
11405TIP3   OH234157   1.699   1.155   4.573
11405TIP3    H134158   1.702   1.179   4.480
11405TIP3    H234159   1.667   1.233   4.617
11406TIP3   OH234160   5.398   5.205   1.612
11406TIP3    H134161   5.432   5.234   1.696
11406TIP3    H234162   5.460   5.137   1.584
11407TIP3   OH234163   2.911   4.157   6.703
11407TIP3    H134164   2.935   4.234   6.755
11407TIP3    H234165   2.901   4.087   6.769
11408TIP3   OH234166   1.591   2.963   6.297
11408TIP3    H134167   1.590   2.880   6.251
11408TIP3    H234168   1.623   3.026   6.233
11409TIP3   OH234169   1.036   2.316   2.485
11409TIP3    H134170   1.031   2.316   2.389
11409TIP3    H234171   0.963   2.372   2.513
11410TIP3   OH234172   5.233   5.440   4.046
11410TIP3    H134173   5.243   5.408   4.135
11410TIP3    H234174   5.318   5.425   4.005
11411TIP3   OH234175   6.633   4.365  -0.068
11411TIP3    H134176   6.635   4.424   0.008
11411TIP3    H234177   6.566   4.300  -0.046
11412TIP3   OH234178   3.331   3.436   0.337
11412TIP3    H134179   3.303   3.497   0.269
11412TIP3    H234180   3.293   3.472   0.418
11413TIP3   OH234181   4.523   1.546   3.440
11413TIP3    H134182   4.429   1.540   3.428
11413TIP3    H234183   4.558   1.558   3.352
11414TIP3   OH234184   1.703   5.047   4.354
11414TIP3    H134185   1.640   5.008   4.293
11414TIP3    H234186   1.654   5.116   4.398
11415TIP3   OH234187   7.816   7.053   1.116
11415TIP3    H134188   7.876   7.089   1.051
11415TIP3    H234189   7.743   7.018   1.065
11416TIP3   OH234190   0.666   1.194   5.599
11416TIP3    H134191   0.719   1.176   5.677
11416TIP3    H234192   0.692   1.282   5.572
11417TIP3   OH234193   1.503   6.117   3.315
11417TIP3    H134194   1.484   6.142   3.406
11417TIP3    H234195   1.573   6.175   3.288
11418TIP3   OH234196   7.566   1.960   3.795
11418TIP3    H134197   7.595   2.027   3.733
11418TIP3    H234198   7.554   1.881   3.742
11419TIP3   OH234199   8.066   0.219   1.580
11419TIP3    H134200   8.157   0.206   1.552
11419TIP3    H234201   8.018   0.233   1.499
11420TIP3   OH234202   0.683   7.487   0.298
11420TIP3    H134203   0.772   7.493   0.264
11420TIP3    H234204   0.690   7.433   0.376
11421TIP3   OH234205   4.038   0.420   5.585
11421TIP3    H134206   3.975   0.464   5.527
11421TIP3    H234207   4.024   0.327   5.569
11422TIP3   OH234208   0.839   2.051   4.605
11422TIP3    H134209   0.878   1.970   4.637
11422TIP3    H234210   0.748   2.027   4.585
11423TIP3   OH234211   3.707   6.243  -0.066
11423TIP3    H134212   3.763   6.275   0.005
11423TIP3    H234213   3.647   6.316  -0.084
11424TIP3   OH234214   1.425   0.781   5.699
11424TIP3    H134215   1.443   0.691   5.674
11424TIP3    H234216   1.509   0.816   5.729
11425TIP3   OH234217   3.499   4.893   6.482
11425TIP3    H134218   3.537   4.806   6.470
11425TIP3    H234219   3.474   4.921   6.394
11426TIP3   OH234220   7.728   2.328   1.443
11426TIP3    H134221   7.787   2.258   1.471
11426TIP3    H234222   7.664   2.334   1.513
11427TIP3   OH234223   7.041   2.135   0.311
11427TIP3    H134224   7.115   2.109   0.257
11427TIP3    H234225   6.968   2.144   0.250
11428TIP3   OH234226   7.165   2.802   2.173
11428TIP3    H134227   7.124   2.760   2.249
11428TIP3    H234228   7.175   2.894   2.198
11429TIP3   OH234229   5.960   4.555   4.658
11429TIP3    H134230   5.905   4.536   4.734
11429TIP3    H234231   5.990   4.645   4.672
11430TIP3   OH234232   5.795   7.266   2.683
11430TIP3    H134233   5.858   7.237   2.617
11430TIP3    H234234   5.716   7.287   2.634
11431TIP3   OH234235   0.312   5.133   4.446
11431TIP3    H134236   0.269   5.054   4.479
11431TIP3    H234237   0.300   5.129   4.351
11432TIP3   OH234238   5.755   2.663   6.031
11432TIP3    H134239   5.733   2.742   5.980
11432TIP3    H234240   5.692   2.598   6.002
11433TIP3   OH234241   2.604   5.726   1.123
11433TIP3    H134242   2.559   5.702   1.042
11433TIP3    H234243   2.696   5.734   1.099
11434TIP3   OH234244   7.576   6.443   6.533
11434TIP3    H134245   7.670   6.452   6.518
11434TIP3    H234246   7.554   6.512   6.596
11435TIP3   OH234247   4.475   6.472   6.176
11435TIP3    H134248   4.520   6.537   6.123
11435TIP3    H234249   4.500   6.492   6.266
11436TIP3   OH234250   7.017   2.818   2.517
11436TIP3    H134251   6.990   2.755   2.449
11436TIP3    H234252   6.961   2.797   2.592
11437TIP3   OH234253   2.147   4.348   1.509
11437TIP3    H134254   2.176   4.439   1.503
11437TIP3    H234255   2.098   4.333   1.427
11438TIP3   OH234256   4.138   2.868   2.721
11438TIP3    H134257   4.164   2.946   2.672
11438TIP3    H234258   4.042   2.868   2.717
11439TIP3   OH234259   7.955   5.977   1.216
11439TIP3    H134260   7.923   6.044   1.277
11439TIP3    H234261   8.039   5.950   1.253
11440TIP3   OH234262   1.657   0.377   3.420
11440TIP3    H134263   1.565   0.400   3.437
11440TIP3    H234264   1.662   0.368   3.325
11441TIP3   OH234265   4.167   1.975   0.976
11441TIP3    H134266   4.110   1.929   0.914
11441TIP3    H234267   4.220   1.906   1.016
11442TIP3   OH234268   3.186   2.435   6.793
11442TIP3    H134269   3.153   2.348   6.771
11442TIP3    H234270   3.223   2.468   6.711
11443TIP3   OH234271   3.030   2.144   5.580
11443TIP3    H134272   2.970   2.196   5.634
11443TIP3    H234273   2.983   2.132   5.498
11444TIP3   OH234274   3.733   3.266   0.036
11444TIP3    H134275   3.827   3.283   0.036
11444TIP3    H234276   3.712   3.243   0.126
11445TIP3   OH234277   6.350   2.150   4.482
11445TIP3    H134278   6.278   2.203   4.516
11445TIP3    H234279   6.335   2.148   4.387
11446TIP3   OH234280   1.324   5.437   5.213
11446TIP3    H134281   1.400   5.494   5.225
11446TIP3    H234282   1.264   5.461   5.283
11447TIP3   OH234283   3.813   2.039   2.402
11447TIP3    H134284   3.860   2.088   2.334
11447TIP3    H234285   3.872   2.037   2.476
11448TIP3   OH234286   0.641   2.199   3.780
11448TIP3    H134287   0.719   2.213   3.727
11448TIP3    H234288   0.661   2.122   3.833
11449TIP3   OH234289   4.846   1.789   2.528
11449TIP3    H134290   4.796   1.812   2.606
11449TIP3    H234291   4.883   1.702   2.547
11450TIP3   OH234292   3.969   5.441   2.105
11450TIP3    H134293   3.971   5.346   2.096
11450TIP3    H234294   3.887   5.467   2.064
11451TIP3   OH234295   4.086   3.778   0.188
11451TIP3    H134296   4.009   3.819   0.149
11451TIP3    H234297   4.129   3.733   0.115
11452TIP3   OH234298   6.238   3.519   5.629
11452TIP3    H134299   6.302   3.589   5.623
11452TIP3    H234300   6.283   3.442   5.594
11453TIP3   OH234301   3.506   2.360   5.982
11453TIP3    H134302   3.592   2.342   5.943
11453TIP3    H234303   3.452   2.285   5.959
11454TIP3   OH234304   8.258   1.114   2.214
11454TIP3    H134305   8.306   1.197   2.219
11454TIP3    H234306   8.282   1.078   2.129
11455TIP3   OH234307   5.064   6.414   0.747
11455TIP3    H134308   5.085   6.321   0.740
11455TIP3    H234309   5.149   6.458   0.742
11456TIP3   OH234310   2.640   6.852   6.059
11456TIP3    H134311   2.563   6.838   6.114
11456TIP3    H234312   2.711   6.810   6.108
11457TIP3   OH234313   1.058   3.345   3.922
11457TIP3    H134314   0.978   3.380   3.961
11457TIP3    H234315   1.122   3.415   3.930
11458TIP3   OH234316   6.375   6.614   3.604
11458TIP3    H134317   6.452   6.589   3.553
11458TIP3    H234318   6.398   6.699   3.642
11459TIP3   OH234319   5.315   2.358   3.752
11459TIP3    H134320   5.320   2.301   3.829
11459TIP3    H234321   5.223   2.380   3.744
11460TIP3   OH234322   4.906   1.666   3.536
11460TIP3    H134323   4.985   1.716   3.512
11460TIP3    H234324   4.859   1.655   3.454
11461TIP3   OH234325   3.080   4.072   6.483
11461TIP3    H134326   3.131   4.001   6.522
11461TIP3    H234327   3.016   4.095   6.550
11462TIP3   OH234328   0.019   1.639   4.393
11462TIP3    H134329  -0.042   1.571   4.364
11462TIP3    H234330   0.054   1.606   4.476
11463TIP3   OH234331   4.997   2.958   1.080
11463TIP3    H134332   4.951   3.020   1.136
11463TIP3    H234333   4.965   2.872   1.107
11464TIP3   OH234334   2.764   2.793   2.386
11464TIP3    H134335   2.788   2.886   2.389
11464TIP3    H234336   2.821   2.756   2.319
11465TIP3   OH234337   5.880   0.341   6.373
11465TIP3    H134338   5.931   0.386   6.441
11465TIP3    H234339   5.923   0.255   6.365
11466TIP3   OH234340   6.066   2.451   3.439
11466TIP3    H134341   6.118   2.420   3.513
11466TIP3    H234342   6.097   2.398   3.365
11467TIP3   OH234343   0.628   3.461   6.681
11467TIP3    H134344   0.696   3.503   6.734
11467TIP3    H234345   0.629   3.370   6.710
11468TIP3   OH234346   5.935   2.180   2.847
11468TIP3    H134347   5.858   2.230   2.822
11468TIP3    H234348   5.923   2.094   2.807
11469TIP3   OH234349   2.254   0.848   6.198
11469TIP3    H134350   2.281   0.936   6.174
11469TIP3    H234351   2.324   0.792   6.166
11470TIP3   OH234352   3.923   4.231   6.310
11470TIP3    H134353   3.844   4.180   6.294
11470TIP3    H234354   3.891   4.319   6.332
11471TIP3   OH234355   3.817   6.131   6.709
11471TIP3    H134356   3.745   6.157   6.652
11471TIP3    H234357   3.818   6.198   6.778
11472TIP3   OH234358   3.576   7.186   4.436
11472TIP3    H134359   3.574   7.090   4.433
11472TIP3    H234360   3.668   7.209   4.439
11473TIP3   OH234361   3.339   2.799   0.955
11473TIP3    H134362   3.414   2.739   0.954
11473TIP3    H234363   3.374   2.882   0.926
11474TIP3   OH234364   4.159   5.728   4.180
11474TIP3    H134365   4.064   5.733   4.187
11474TIP3    H234366   4.191   5.790   4.246
11475TIP3   OH234367   3.956   1.256   1.091
11475TIP3    H134368   3.952   1.183   1.028
11475TIP3    H234369   4.047   1.257   1.121
11476TIP3   OH234370   1.736   4.017   5.146
11476TIP3    H134371   1.738   3.922   5.133
11476TIP3    H234372   1.644   4.038   5.162
11477TIP3   OH234373   3.774   7.284   2.417
11477TIP3    H134374   3.827   7.207   2.437
11477TIP3    H234375   3.791   7.345   2.489
11478TIP3   OH234376   6.993   4.582   2.121
11478TIP3    H134377   7.059   4.598   2.053
11478TIP3    H234378   6.963   4.492   2.104
11479TIP3   OH234379   0.179   3.786   0.820
11479TIP3    H134380   0.201   3.713   0.878
11479TIP3    H234381   0.112   3.750   0.761
11480TIP3   OH234382   2.970   6.347   5.599
11480TIP3    H134383   2.946   6.315   5.686
11480TIP3    H234384   3.065   6.339   5.596
11481TIP3   OH234385   7.980   7.271   3.083
11481TIP3    H134386   7.933   7.350   3.057
11481TIP3    H234387   7.968   7.211   3.009
11482TIP3   OH234388   5.636   2.784   3.766
11482TIP3    H134389   5.571   2.828   3.821
11482TIP3    H234390   5.594   2.702   3.739
11483TIP3   OH234391   3.003   6.883   5.410
11483TIP3    H134392   3.037   6.935   5.337
11483TIP3    H234393   3.065   6.896   5.481
11484TIP3   OH234394   7.489   7.295   3.360
11484TIP3    H134395   7.451   7.380   3.342
11484TIP3    H234396   7.468   7.277   3.451
11485TIP3   OH234397   6.349   2.478   3.265
11485TIP3    H134398   6.284   2.542   3.297
11485TIP3    H234399   6.307   2.393   3.280
11486TIP3   OH234400   1.963   0.380   0.094
11486TIP3    H134401   1.957   0.307   0.033
11486TIP3    H234402   1.917   0.351   0.172
11487TIP3   OH234403   5.184   3.505   4.317
11487TIP3    H134404   5.232   3.553   4.384
11487TIP3    H234405   5.135   3.572   4.269
11488TIP3   OH234406   7.210   5.441   3.954
11488TIP3    H134407   7.149   5.376   3.920
11488TIP3    H234408   7.237   5.492   3.878
11489TIP3   OH234409   7.328   6.022   3.395
11489TIP3    H134410   7.329   5.990   3.305
11489TIP3    H234411   7.420   6.040   3.414
11490TIP3   OH234412   6.998   4.977   4.583
11490TIP3    H134413   7.055   4.930   4.522
11490TIP3    H234414   7.039   4.965   4.668
11491TIP3   OH234415   6.934   1.584   5.913
11491TIP3    H134416   6.924   1.580   5.818
11491TIP3    H234417   7.017   1.631   5.926
11492TIP3   OH234418   4.376   7.627   0.540
11492TIP3    H134419   4.448   7.587   0.492
11492TIP3    H234420   4.306   7.634   0.475
11493TIP3   OH234421   2.684   0.053   5.371
11493TIP3    H134422   2.731   0.134   5.389
11493TIP3    H234423   2.752  -0.008   5.341
11494TIP3   OH234424   2.870   6.495   0.112
11494TIP3    H134425   2.873   6.400   0.120
11494TIP3    H234426   2.911   6.512   0.026
11495TIP3   OH234427   3.034   4.866   2.647
11495TIP3    H134428   3.003   4.956   2.637
11495TIP3    H234429   3.129   4.874   2.657
11496TIP3   OH234430   0.468   2.244   2.294
11496TIP3    H134431   0.434   2.298   2.223
11496TIP3    H234432   0.447   2.293   2.374
11497TIP3   OH234433   5.921   4.947   4.611
11497TIP3    H134434   5.950   4.901   4.690
11497TIP3    H234435   5.901   5.036   4.640
11498TIP3   OH234436   3.837   2.188   4.553
11498TIP3    H134437   3.910   2.179   4.491
11498TIP3    H234438   3.860   2.130   4.625
11499TIP3   OH234439   4.603   1.944   3.337
11499TIP3    H134440   4.559   1.928   3.421
11499TIP3    H234441   4.589   2.037   3.320
11500TIP3   OH234442   7.764   4.358   4.858
11500TIP3    H134443   7.799   4.445   4.839
11500TIP3    H234444   7.670   4.373   4.872
11501TIP3   OH234445   6.684   1.183   0.459
11501TIP3    H134446   6.619   1.200   0.391
11501TIP3    H234447   6.675   1.089   0.478
11502TIP3   OH234448   1.454   5.195   0.390
11502TIP3    H134449   1.446   5.103   0.417
11502TIP3    H234450   1.400   5.202   0.312
11503TIP3   OH234451   4.481   5.812   1.994
11503TIP3    H134452   4.435   5.847   2.070
11503TIP3    H234453   4.430   5.841   1.918
11504TIP3   OH234454   4.475   0.057   3.737
11504TIP3    H134455   4.556   0.020   3.773
11504TIP3    H234456   4.470   0.145   3.775
11505TIP3   OH234457   1.725   3.181   2.988
11505TIP3    H134458   1.805   3.144   3.026
11505TIP3    H234459   1.665   3.188   3.062
11506TIP3   OH234460   4.283   0.819   6.218
11506TIP3    H134461   4.241   0.760   6.155
11506TIP3    H234462   4.301   0.764   6.294
11507TIP3   OH234463   4.301   3.124   1.965
11507TIP3    H134464   4.292   3.058   2.034
11507TIP3    H234465   4.293   3.075   1.883
11508TIP3   OH234466   4.192   0.650   2.185
11508TIP3    H134467   4.284   0.663   2.163
11508TIP3    H234468   4.144   0.705   2.124
11509TIP3   OH234469   3.966   1.063   5.161
11509TIP3    H134470   3.987   1.146   5.203
11509TIP3    H234471   3.934   1.087   5.074
11510TIP3   OH234472   3.667   3.829   2.704
11510TIP3    H134473   3.622   3.781   2.774
11510TIP3    H234474   3.668   3.920   2.734
11511TIP3   OH234475   4.551   2.268   0.846
11511TIP3    H134476   4.643   2.292   0.853
11511TIP3    H234477   4.507   2.351   0.826
11512TIP3   OH234478   6.038   1.555   4.993
11512TIP3    H134479   6.083   1.490   5.047
11512TIP3    H234480   6.086   1.637   5.010
11513TIP3   OH234481   4.313   1.277   2.997
11513TIP3    H134482   4.314   1.341   2.926
11513TIP3    H234483   4.289   1.194   2.955
11514TIP3   OH234484   4.970   5.514   3.028
11514TIP3    H134485   4.884   5.473   3.031
11514TIP3    H234486   4.952   5.606   3.010
11515TIP3   OH234487   4.704   1.058   3.501
11515TIP3    H134488   4.641   1.031   3.569
11515TIP3    H234489   4.712   1.152   3.513
11516TIP3   OH234490   0.732   3.650   5.274
11516TIP3    H134491   0.667   3.720   5.264
11516TIP3    H234492   0.774   3.668   5.358
11517TIP3   OH234493   1.879   7.654   0.304
11517TIP3    H134494   1.887   7.627   0.396
11517TIP3    H234495   1.816   7.725   0.305
11518TIP3   OH234496   0.050   0.332   1.000
11518TIP3    H134497   0.119   0.316   1.065
11518TIP3    H234498   0.089   0.395   0.940
11519TIP3   OH234499   7.259   2.254   6.305
11519TIP3    H134500   7.201   2.265   6.230
11519TIP3    H234501   7.327   2.194   6.274
11520TIP3   OH234502   4.487   7.337   2.743
11520TIP3    H134503   4.414   7.364   2.688
11520TIP3    H234504   4.564   7.352   2.688
11521TIP3   OH234505   7.725   2.805   2.996
11521TIP3    H134506   7.654   2.854   2.956
11521TIP3    H234507   7.735   2.843   3.083
11522TIP3   OH234508   3.465   0.379   4.694
11522TIP3    H134509   3.531   0.445   4.713
11522TIP3    H234510   3.411   0.375   4.772
11523TIP3   OH234511   6.848   7.299   4.876
11523TIP3    H134512   6.764   7.298   4.922
11523TIP3    H234513   6.910   7.332   4.941
11524TIP3   OH234514   4.628   3.206   0.223
11524TIP3    H134515   4.652   3.274   0.160
11524TIP3    H234516   4.535   3.222   0.242
11525TIP3   OH234517   2.606   5.840   5.310
11525TIP3    H134518   2.540   5.787   5.265
11525TIP3    H234519   2.686   5.827   5.258
11526TIP3   OH234520   3.612   2.120   5.446
11526TIP3    H134521   3.602   2.181   5.519
11526TIP3    H234522   3.525   2.116   5.406
11527TIP3   OH234523   5.082   5.766   3.732
11527TIP3    H134524   5.108   5.783   3.823
11527TIP3    H234525   5.075   5.853   3.692
11528TIP3   OH234526   1.912   6.124   3.771
11528TIP3    H134527   1.972   6.051   3.759
11528TIP3    H234528   1.898   6.129   3.866
11529TIP3   OH234529   7.123   3.052   6.678
11529TIP3    H134530   7.071   2.975   6.699
11529TIP3    H234531   7.204   3.017   6.640
11530TIP3   OH234532   2.551   4.587   1.630
11530TIP3    H134533   2.579   4.623   1.546
11530TIP3    H234534   2.545   4.493   1.616
11531TIP3   OH234535   5.874   2.722   4.894
11531TIP3    H134536   5.924   2.709   4.974
11531TIP3    H234537   5.901   2.649   4.837
11532TIP3   OH234538   8.156   6.479   1.363
11532TIP3    H134539   8.167   6.406   1.424
11532TIP3    H234540   8.210   6.549   1.399
11533TIP3   OH234541   1.574   6.453   3.356
11533TIP3    H134542   1.647   6.396   3.333
11533TIP3    H234543   1.604   6.541   3.333
11534TIP3   OH234544   2.687   5.842   0.325
11534TIP3    H134545   2.757   5.785   0.356
11534TIP3    H234546   2.724   5.930   0.331
11535TIP3   OH234547   8.119   5.492   1.944
11535TIP3    H134548   8.104   5.572   1.894
11535TIP3    H234549   8.031   5.461   1.967
11536TIP3   OH234550   4.512   6.525   3.276
11536TIP3    H134551   4.520   6.488   3.188
11536TIP3    H234552   4.602   6.522   3.311
11537TIP3   OH234553   7.633   2.389   5.654
11537TIP3    H134554   7.553   2.348   5.622
11537TIP3    H234555   7.668   2.437   5.579
11538TIP3   OH234556   0.003   3.205   6.199
11538TIP3    H134557   0.039   3.156   6.125
11538TIP3    H234558   0.041   3.293   6.190
11539TIP3   OH234559   5.098   5.899   1.529
11539TIP3    H134560   5.128   5.989   1.516
11539TIP3    H234561   5.124   5.878   1.618
11540TIP3   OH234562   1.373   2.735   5.088
11540TIP3    H134563   1.391   2.695   5.002
11540TIP3    H234564   1.281   2.760   5.084
11541TIP3   OH234565   3.446   6.253   2.156
11541TIP3    H134566   3.542   6.254   2.152
11541TIP3    H234567   3.419   6.305   2.080
11542TIP3   OH234568   3.919   3.377   2.916
11542TIP3    H134569   3.890   3.410   3.001
11542TIP3    H234570   3.965   3.451   2.876
11543TIP3   OH234571   3.506   1.893   5.200
11543TIP3    H134572   3.467   1.959   5.143
11543TIP3    H234573   3.569   1.943   5.253
11544TIP3   OH234574   7.148   1.693   0.602
11544TIP3    H134575   7.102   1.777   0.595
11544TIP3    H234576   7.203   1.689   0.524
11545TIP3   OH234577   7.619  -0.031   6.562
11545TIP3    H134578   7.688  -0.024   6.629
11545TIP3    H234579   7.621  -0.123   6.535
11546TIP3   OH234580   7.079   4.634   2.820
11546TIP3    H134581   7.068   4.704   2.756
11546TIP3    H234582   7.090   4.555   2.767
11547TIP3   OH234583   2.510   0.546   3.468
11547TIP3    H134584   2.444   0.615   3.479
11547TIP3    H234585   2.545   0.533   3.557
11548TIP3   OH234586   7.363   0.329   2.231
11548TIP3    H134587   7.327   0.245   2.202
11548TIP3    H234588   7.454   0.310   2.252
11549TIP3   OH234589   6.433   2.254   3.585
11549TIP3    H134590   6.344   2.288   3.599
11549TIP3    H234591   6.488   2.332   3.584
11550TIP3   OH234592   8.189   1.183   6.346
11550TIP3    H134593   8.104   1.175   6.304
11550TIP3    H234594   8.194   1.274   6.374
11551TIP3   OH234595   7.049   7.114   3.256
11551TIP3    H134596   7.041   7.208   3.237
11551TIP3    H234597   7.129   7.087   3.211
11552TIP3   OH234598   1.353   6.801   3.493
11552TIP3    H134599   1.437   6.838   3.463
11552TIP3    H234600   1.375   6.713   3.523
11553TIP3   OH234601   6.246   3.963   2.835
11553TIP3    H134602   6.308   4.016   2.785
11553TIP3    H234603   6.299   3.896   2.877
11554TIP3   OH234604   3.387   3.332   1.680
11554TIP3    H134605   3.304   3.289   1.703
11554TIP3    H234606   3.367   3.426   1.682
11555TIP3   OH234607   4.426   1.236   5.467
11555TIP3    H134608   4.347   1.284   5.490
11555TIP3    H234609   4.466   1.214   5.551
11556TIP3   OH234610   3.234   3.836   4.722
11556TIP3    H134611   3.176   3.886   4.779
11556TIP3    H234612   3.283   3.902   4.674
11557TIP3   OH234613   5.423   6.593   1.897
11557TIP3    H134614   5.381   6.667   1.939
11557TIP3    H234615   5.499   6.631   1.853
11558TIP3   OH234616   2.634   5.893   4.242
11558TIP3    H134617   2.632   5.925   4.151
11558TIP3    H234618   2.544   5.904   4.273
11559TIP3   OH234619   5.269   2.289   3.370
11559TIP3    H134620   5.283   2.365   3.313
11559TIP3    H234621   5.175   2.289   3.387
11560TIP3   OH234622   5.124   6.121   0.705
11560TIP3    H134623   5.131   6.058   0.632
11560TIP3    H234624   5.054   6.087   0.760
11561TIP3   OH234625   2.078   4.977   3.092
11561TIP3    H134626   2.032   4.960   3.174
11561TIP3    H234627   2.014   4.955   3.024
11562TIP3   OH234628   4.758   6.757   5.638
11562TIP3    H134629   4.809   6.745   5.557
11562TIP3    H234630   4.794   6.836   5.678
11563TIP3   OH234631   3.523   5.242   2.423
11563TIP3    H134632   3.495   5.321   2.377
11563TIP3    H234633   3.507   5.261   2.516
11564TIP3   OH234634   3.325   1.368   2.300
11564TIP3    H134635   3.364   1.454   2.316
11564TIP3    H234636   3.398   1.306   2.310
11565TIP3   OH234637   4.049   7.165   6.093
11565TIP3    H134638   4.088   7.101   6.153
11565TIP3    H234639   3.996   7.221   6.149
11566TIP3   OH234640   6.444   1.774   1.196
11566TIP3    H134641   6.492   1.831   1.136
11566TIP3    H234642   6.456   1.813   1.282
11567TIP3   OH234643   2.735   1.667   0.006
11567TIP3    H134644   2.662   1.672   0.067
11567TIP3    H234645   2.734   1.751  -0.040
11568TIP3   OH234646   7.831   0.162  -0.037
11568TIP3    H134647   7.845   0.254  -0.060
11568TIP3    H234648   7.806   0.164   0.056
11569TIP3   OH234649   0.123   3.126   6.541
11569TIP3    H134650   0.053   3.061   6.539
11569TIP3    H234651   0.162   3.117   6.628
11570TIP3   OH234652   7.215   0.115   6.254
11570TIP3    H134653   7.235   0.032   6.210
11570TIP3    H234654   7.121   0.126   6.244
11571TIP3   OH234655   2.544   0.124   4.806
11571TIP3    H134656   2.531   0.172   4.724
11571TIP3    H234657   2.591   0.185   4.862
11572TIP3   OH234658   0.464   4.039   2.692
11572TIP3    H134659   0.432   3.991   2.768
11572TIP3    H234660   0.435   4.129   2.706
11573TIP3   OH234661   3.665   3.306   5.825
11573TIP3    H134662   3.618   3.231   5.790
11573TIP3    H234663   3.688   3.280   5.914
11574TIP3   OH234664   7.030   6.012   6.468
11574TIP3    H134665   6.946   6.028   6.511
11574TIP3    H234666   7.041   6.087   6.408
11575TIP3   OH234667   7.161   3.896   0.210
11575TIP3    H134668   7.216   3.848   0.149
11575TIP3    H234669   7.155   3.984   0.174
11576TIP3   OH234670   7.681   4.069   0.418
11576TIP3    H134671   7.740   3.998   0.442
11576TIP3    H234672   7.614   4.027   0.364
11577TIP3   OH234673   3.858   4.646   2.917
11577TIP3    H134674   3.853   4.727   2.867
11577TIP3    H234675   3.856   4.675   3.008
11578TIP3   OH234676   5.083   3.919   4.665
11578TIP3    H134677   5.175   3.945   4.677
11578TIP3    H234678   5.045   3.992   4.616
11579TIP3   OH234679   0.105   0.863   4.261
11579TIP3    H134680   0.191   0.848   4.223
11579TIP3    H234681   0.119   0.861   4.355
11580TIP3   OH234682   4.042   1.680   6.224
11580TIP3    H134683   4.021   1.769   6.194
11580TIP3    H234684   4.050   1.629   6.143
11581TIP3   OH234685   1.195   6.498   3.169
11581TIP3    H134686   1.160   6.429   3.113
11581TIP3    H234687   1.268   6.535   3.119
11582TIP3   OH234688   5.917   6.311   1.468
11582TIP3    H134689   5.833   6.341   1.503
11582TIP3    H234690   5.972   6.390   1.467
11583TIP3   OH234691   1.627   3.802   0.103
11583TIP3    H134692   1.555   3.856   0.072
11583TIP3    H234693   1.705   3.837   0.059
11584TIP3   OH234694   5.461   6.067   5.600
11584TIP3    H134695   5.545   6.113   5.602
11584TIP3    H234696   5.440   6.050   5.692
11585TIP3   OH234697   7.945   2.121   2.330
11585TIP3    H134698   7.979   2.082   2.410
11585TIP3    H234699   7.939   2.048   2.268
11586TIP3   OH234700   5.518   2.917   3.243
11586TIP3    H134701   5.507   3.010   3.261
11586TIP3    H234702   5.585   2.913   3.175
11587TIP3   OH234703   6.846   7.026   5.596
11587TIP3    H134704   6.884   7.083   5.662
11587TIP3    H234705   6.870   7.066   5.512
11588TIP3   OH234706   3.892   5.717   6.202
11588TIP3    H134707   3.818   5.766   6.166
11588TIP3    H234708   3.888   5.632   6.158
11589TIP3   OH234709   7.413   5.183   6.783
11589TIP3    H134710   7.407   5.110   6.720
11589TIP3    H234711   7.505   5.208   6.780
11590TIP3   OH234712   3.688   6.989   4.714
11590TIP3    H134713   3.681   6.940   4.632
11590TIP3    H234714   3.781   6.986   4.735
11591TIP3   OH234715   0.072   2.734   3.126
11591TIP3    H134716   0.115   2.774   3.050
11591TIP3    H234717  -0.006   2.691   3.090
11592TIP3   OH234718   1.098   7.176   2.597
11592TIP3    H134719   1.162   7.247   2.599
11592TIP3    H234720   1.139   7.106   2.649
11593TIP3   OH234721   7.800   0.772   0.617
11593TIP3    H134722   7.725   0.744   0.670
11593TIP3    H234723   7.800   0.712   0.543
11594TIP3   OH234724   2.650   3.372   2.313
11594TIP3    H134725   2.731   3.376   2.364
11594TIP3    H234726   2.584   3.411   2.370
11595TIP3   OH234727   2.406   3.822   1.478
11595TIP3    H134728   2.374   3.862   1.397
11595TIP3    H234729   2.484   3.773   1.452
11596TIP3   OH234730   6.744   1.885   5.371
11596TIP3    H134731   6.807   1.813   5.370
11596TIP3    H234732   6.779   1.948   5.308
11597TIP3   OH234733   2.238   1.063   3.880
11597TIP3    H134734   2.318   1.017   3.907
11597TIP3    H234735   2.212   1.020   3.799
11598TIP3   OH234736   4.499   0.361   2.513
11598TIP3    H134737   4.461   0.410   2.585
11598TIP3    H234738   4.552   0.293   2.555
11599TIP3   OH234739   5.897   0.936   1.054
11599TIP3    H134740   5.815   0.953   1.008
11599TIP3    H234741   5.877   0.861   1.110
11600TIP3   OH234742   4.396   6.364   0.644
11600TIP3    H134743   4.475   6.332   0.688
11600TIP3    H234744   4.423   6.448   0.606
11601TIP3   OH234745   6.876   6.064   0.978
11601TIP3    H134746   6.958   6.077   1.025
11601TIP3    H234747   6.889   5.982   0.929
11602TIP3   OH234748   4.502   2.610   2.460
11602TIP3    H134749   4.488   2.622   2.554
11602TIP3    H234750   4.526   2.518   2.451
11603TIP3   OH234751   5.160   0.556   3.606
11603TIP3    H134752   5.123   0.579   3.521
11603TIP3    H234753   5.084   0.545   3.663
11604TIP3   OH234754   5.089   3.705   4.164
11604TIP3    H134755   5.135   3.740   4.088
11604TIP3    H234756   4.997   3.709   4.140
11605TIP3   OH234757   5.556   4.249   3.962
11605TIP3    H134758   5.580   4.207   4.044
11605TIP3    H234759   5.599   4.197   3.895
11606TIP3   OH234760   5.513   6.692   1.385
11606TIP3    H134761   5.576   6.686   1.313
11606TIP3    H234762   5.529   6.778   1.424
11607TIP3   OH234763   6.232   4.527   6.599
11607TIP3    H134764   6.184   4.492   6.674
11607TIP3    H234765   6.316   4.481   6.601
11608TIP3   OH234766   5.010   6.433   0.213
11608TIP3    H134767   5.055   6.366   0.264
11608TIP3    H234768   5.057   6.435   0.130
11609TIP3   OH234769   4.791   0.930   5.476
11609TIP3    H134770   4.723   0.956   5.414
11609TIP3    H234771   4.822   0.846   5.444
11610TIP3   OH234772   5.393   3.026   0.506
11610TIP3    H134773   5.305   2.994   0.486
11610TIP3    H234774   5.379   3.103   0.561
11611TIP3   OH234775   2.138   6.941   1.687
11611TIP3    H134776   2.046   6.950   1.662
11611TIP3    H234777   2.151   6.847   1.699
11612TIP3   OH234778   6.785   4.200   5.188
11612TIP3    H134779   6.864   4.173   5.235
11612TIP3    H234780   6.790   4.296   5.187
11613TIP3   OH234781   6.733   7.160   2.756
11613TIP3    H134782   6.658   7.121   2.801
11613TIP3    H234783   6.786   7.085   2.728
11614TIP3   OH234784   6.787   5.487   1.342
11614TIP3    H134785   6.805   5.420   1.408
11614TIP3    H234786   6.822   5.451   1.261
11615TIP3   OH234787   3.586   5.356   0.623
11615TIP3    H134788   3.528   5.356   0.547
11615TIP3    H234789   3.569   5.273   0.667
11616TIP3   OH234790   6.310   1.144   5.824
11616TIP3    H134791   6.230   1.100   5.852
11616TIP3    H234792   6.355   1.081   5.767
11617TIP3   OH234793   1.866   3.848   5.677
11617TIP3    H134794   1.776   3.865   5.706
11617TIP3    H234795   1.920   3.862   5.754
11618TIP3   OH234796   5.760   7.038   2.857
11618TIP3    H134797   5.666   7.055   2.856
11618TIP3    H234798   5.799   7.120   2.826
11619TIP3   OH234799   3.214   6.822   1.130
11619TIP3    H134800   3.131   6.797   1.090
11619TIP3    H234801   3.266   6.741   1.133
11620TIP3   OH234802   1.256   0.322   2.544
11620TIP3    H134803   1.342   0.285   2.523
11620TIP3    H234804   1.194   0.263   2.502
11621TIP3   OH234805   7.642   2.490   6.716
11621TIP3    H134806   7.616   2.450   6.633
11621TIP3    H234807   7.602   2.577   6.714
11622TIP3   OH234808   6.674   2.429   6.412
11622TIP3    H134809   6.763   2.455   6.386
11622TIP3    H234810   6.654   2.486   6.487
11623TIP3   OH234811   0.080   0.288   5.248
11623TIP3    H134812   0.115   0.202   5.270
11623TIP3    H234813   0.015   0.306   5.316
11624TIP3   OH234814   7.185   6.042   3.631
11624TIP3    H134815   7.103   5.994   3.614
11624TIP3    H234816   7.233   6.038   3.548
11625TIP3   OH234817   5.723   0.326   4.492
11625TIP3    H134818   5.797   0.386   4.481
11625TIP3    H234819   5.646   0.382   4.488
11626TIP3   OH234820   0.823   0.602   3.887
11626TIP3    H134821   0.897   0.619   3.946
11626TIP3    H234822   0.852   0.530   3.832
11627TIP3   OH234823   0.910   0.854   4.415
11627TIP3    H134824   0.938   0.763   4.420
11627TIP3    H234825   0.885   0.866   4.323
11628TIP3   OH234826   8.207   0.374   4.905
11628TIP3    H134827   8.172   0.328   4.828
11628TIP3    H234828   8.216   0.307   4.972
11629TIP3   OH234829   2.703   2.805   2.701
11629TIP3    H134830   2.682   2.885   2.653
11629TIP3    H234831   2.625   2.750   2.689
11630TIP3   OH234832   2.509   6.475   3.507
11630TIP3    H134833   2.566   6.540   3.548
11630TIP3    H234834   2.513   6.495   3.414
11631TIP3   OH234835   1.452   3.410   4.656
11631TIP3    H134836   1.414   3.424   4.743
11631TIP3    H234837   1.471   3.498   4.624
11632TIP3   OH234838   8.089   4.322   4.824
11632TIP3    H134839   8.152   4.382   4.784
11632TIP3    H234840   8.112   4.320   4.917
11633TIP3   OH234841   1.159   6.806   0.983
11633TIP3    H134842   1.109   6.769   0.910
11633TIP3    H234843   1.216   6.871   0.942
11634TIP3   OH234844   0.303   6.515   6.804
11634TIP3    H134845   0.343   6.565   6.733
11634TIP3    H234846   0.271   6.435   6.763
11635TIP3   OH234847   1.579   5.054   3.968
11635TIP3    H134848   1.521   5.115   3.922
11635TIP3    H234849   1.663   5.100   3.973
11636TIP3   OH234850   0.250   0.564   3.828
11636TIP3    H134851   0.257   0.650   3.786
11636TIP3    H234852   0.303   0.506   3.774
11637TIP3   OH234853   0.023   5.600   1.219
11637TIP3    H134854  -0.068   5.590   1.246
11637TIP3    H234855   0.068   5.633   1.297
11638TIP3   OH234856   5.843   5.193   5.629
11638TIP3    H134857   5.881   5.225   5.548
11638TIP3    H234858   5.785   5.122   5.603
11639TIP3   OH234859   7.676   1.794   4.005
11639TIP3    H134860   7.706   1.730   3.940
11639TIP3    H234861   7.627   1.858   3.955
11640TIP3   OH234862   3.439   4.479   1.402
11640TIP3    H134863   3.361   4.437   1.438
11640TIP3    H234864   3.472   4.417   1.337
11641TIP3   OH234865   6.963   7.213   6.064
11641TIP3    H134866   6.922   7.287   6.108
11641TIP3    H234867   7.055   7.240   6.052
11642TIP3   OH234868   6.708   0.447   6.065
11642TIP3    H134869   6.650   0.429   6.138
11642TIP3    H234870   6.786   0.486   6.104
11643TIP3   OH234871   1.075   7.116   6.471
11643TIP3    H134872   1.103   7.032   6.507
11643TIP3    H234873   1.059   7.099   6.378
11644TIP3   OH234874   0.953   7.160   3.696
11644TIP3    H134875   0.999   7.116   3.624
11644TIP3    H234876   0.863   7.127   3.690
11645TIP3   OH234877   6.688   5.979   4.147
11645TIP3    H134878   6.756   6.045   4.135
11645TIP3    H234879   6.732   5.906   4.190
11646TIP3   OH234880   5.100   1.660   1.729
11646TIP3    H134881   5.062   1.649   1.816
11646TIP3    H234882   5.136   1.574   1.707
11647TIP3   OH234883   5.571   1.249   6.691
11647TIP3    H134884   5.640   1.256   6.757
11647TIP3    H234885   5.496   1.214   6.738
11648TIP3   OH234886   4.815   2.363   3.972
11648TIP3    H134887   4.814   2.269   3.954
11648TIP3    H234888   4.765   2.401   3.900
11649TIP3   OH234889   7.936   2.335   0.340
11649TIP3    H134890   7.960   2.251   0.301
11649TIP3    H234891   7.918   2.315   0.432
11650TIP3   OH234892   6.965   5.918   4.579
11650TIP3    H134893   6.993   5.998   4.534
11650TIP3    H234894   7.040   5.895   4.634
11651TIP3   OH234895   3.740   1.114   3.443
11651TIP3    H134896   3.752   1.033   3.491
11651TIP3    H234897   3.767   1.093   3.353
11652TIP3   OH234898   7.557   4.155   4.397
11652TIP3    H134899   7.569   4.205   4.317
11652TIP3    H234900   7.538   4.221   4.464
11653TIP3   OH234901   2.686   2.742   2.058
11653TIP3    H134902   2.639   2.823   2.037
11653TIP3    H234903   2.762   2.770   2.108
11654TIP3   OH234904   7.088   7.655   4.159
11654TIP3    H134905   7.058   7.568   4.133
11654TIP3    H234906   7.044   7.671   4.242
11655TIP3   OH234907   6.671   0.825   4.159
11655TIP3    H134908   6.752   0.777   4.145
11655TIP3    H234909   6.630   0.782   4.234
11656TIP3   OH234910   6.150   6.727   4.134
11656TIP3    H134911   6.113   6.775   4.060
11656TIP3    H234912   6.098   6.755   4.209
11657TIP3   OH234913   3.035   5.900   5.147
11657TIP3    H134914   3.086   5.949   5.211
11657TIP3    H234915   2.965   5.959   5.121
11658TIP3   OH234916   5.990   5.822   6.503
11658TIP3    H134917   5.995   5.746   6.446
11658TIP3    H234918   5.980   5.785   6.591
11659TIP3   OH234919   0.172   0.725   1.595
11659TIP3    H134920   0.133   0.808   1.621
11659TIP3    H234921   0.153   0.666   1.668
11660TIP3   OH234922   2.246   3.443   5.543
11660TIP3    H134923   2.329   3.477   5.575
11660TIP3    H234924   2.199   3.415   5.622
11661TIP3   OH234925   4.154   1.441   0.262
11661TIP3    H134926   4.127   1.381   0.193
11661TIP3    H234927   4.086   1.433   0.329
11662TIP3   OH234928   5.503   7.303   6.590
11662TIP3    H134929   5.565   7.372   6.566
11662TIP3    H234930   5.446   7.294   6.513
11663TIP3   OH234931   1.060   1.643   1.417
11663TIP3    H134932   1.113   1.567   1.392
11663TIP3    H234933   1.048   1.691   1.335
11664TIP3   OH234934   2.399   1.787   6.481
11664TIP3    H134935   2.355   1.702   6.482
11664TIP3    H234936   2.332   1.848   6.450
11665TIP3   OH234937   6.866   1.572   6.347
11665TIP3    H134938   6.843   1.649   6.295
11665TIP3    H234939   6.927   1.606   6.413
11666TIP3   OH234940   5.711   5.219   0.792
11666TIP3    H134941   5.685   5.292   0.849
11666TIP3    H234942   5.801   5.239   0.766
11667TIP3   OH234943   2.961   3.966   4.386
11667TIP3    H134944   2.973   4.007   4.471
11667TIP3    H234945   3.038   3.910   4.374
11668TIP3   OH234946   1.558   6.205   2.779
11668TIP3    H134947   1.625   6.272   2.784
11668TIP3    H234948   1.571   6.152   2.858
11669TIP3   OH234949   5.211   7.825   5.851
11669TIP3    H134950   5.302   7.834   5.880
11669TIP3    H234951   5.194   7.731   5.857
11670TIP3   OH234952   1.529   1.944   0.844
11670TIP3    H134953   1.522   1.857   0.885
11670TIP3    H234954   1.456   1.993   0.882
11671TIP3   OH234955   2.532   6.955   2.645
11671TIP3    H134956   2.590   6.941   2.570
11671TIP3    H234957   2.520   7.050   2.648
11672TIP3   OH234958   1.041   1.974   4.143
11672TIP3    H134959   1.107   1.909   4.119
11672TIP3    H234960   1.082   2.028   4.210
11673TIP3   OH234961   2.207   1.253   6.348
11673TIP3    H134962   2.261   1.312   6.297
11673TIP3    H234963   2.251   1.245   6.432
11674TIP3   OH234964   0.899   1.761   6.184
11674TIP3    H134965   0.900   1.845   6.138
11674TIP3    H234966   0.979   1.717   6.155
11675TIP3   OH234967   1.614   7.341   2.401
11675TIP3    H134968   1.692   7.298   2.434
11675TIP3    H234969   1.548   7.328   2.469
11676TIP3   OH234970   3.470   4.345   0.412
11676TIP3    H134971   3.493   4.289   0.485
11676TIP3    H234972   3.416   4.414   0.450
11677TIP3   OH234973   3.743   5.928   2.494
11677TIP3    H134974   3.666   5.874   2.475
11677TIP3    H234975   3.740   5.942   2.589
11678TIP3   OH234976   4.360   2.139   3.122
11678TIP3    H134977   4.348   2.214   3.064
11678TIP3    H234978   4.455   2.132   3.133
11679TIP3   OH234979   4.849   5.672   6.145
11679TIP3    H134980   4.832   5.602   6.208
11679TIP3    H234981   4.834   5.631   6.060
11680TIP3   OH234982   3.491   0.649   5.744
11680TIP3    H134983   3.511   0.669   5.836
11680TIP3    H234984   3.489   0.734   5.701
11681TIP3   OH234985   4.443   6.453   3.013
11681TIP3    H134986   4.480   6.389   2.952
11681TIP3    H234987   4.376   6.405   3.060
11682TIP3   OH234988   1.727   0.380   6.140
11682TIP3    H134989   1.667   0.454   6.146
11682TIP3    H234990   1.752   0.363   6.231
11683TIP3   OH234991   4.773   6.360   5.082
11683TIP3    H134992   4.832   6.355   5.158
11683TIP3    H234993   4.716   6.284   5.092
11684TIP3   OH234994   6.727   0.567   0.422
11684TIP3    H134995   6.744   0.489   0.474
11684TIP3    H234996   6.765   0.547   0.336
11685TIP3   OH234997   3.093   3.112   5.660
11685TIP3    H134998   3.129   3.168   5.592
11685TIP3    H234999   3.071   3.171   5.732
11686TIP3   OH235000   5.126   0.270   6.703
11686TIP3    H135001   5.207   0.265   6.753
11686TIP3    H235002   5.150   0.316   6.622
11687TIP3   OH235003   0.249   4.674   0.935
11687TIP3    H135004   0.211   4.759   0.959
11687TIP3    H235005   0.343   4.685   0.949
11688TIP3   OH235006   3.926   0.550   6.458
11688TIP3    H135007   3.935   0.512   6.545
11688TIP3    H235008   4.004   0.604   6.447
11689TIP3   OH235009   0.294   5.382   2.441
11689TIP3    H135010   0.290   5.380   2.537
11689TIP3    H235011   0.351   5.456   2.421
11690TIP3   OH235012   4.224   5.996   4.035
11690TIP3    H135013   4.278   5.948   3.972
11690TIP3    H235014   4.168   5.929   4.074
11691TIP3   OH235015   5.003   5.226   3.087
11691TIP3    H135016   4.995   5.307   3.037
11691TIP3    H235017   4.963   5.159   3.030
11692TIP3   OH235018   1.509   7.066   3.224
11692TIP3    H135019   1.593   7.065   3.268
11692TIP3    H235020   1.464   7.143   3.261
11693TIP3   OH235021   1.048   0.380   6.093
11693TIP3    H135022   1.060   0.311   6.027
11693TIP3    H235023   1.137   0.397   6.126
11694TIP3   OH235024   4.895   2.509   6.529
11694TIP3    H135025   4.812   2.476   6.565
11694TIP3    H235026   4.899   2.473   6.441
11695TIP3   OH235027   4.074   6.870   1.525
11695TIP3    H135028   4.142   6.909   1.470
11695TIP3    H235029   4.056   6.936   1.591
11696TIP3   OH235030   6.331   0.105   4.611
11696TIP3    H135031   6.426   0.097   4.623
11696TIP3    H235032   6.294   0.052   4.682
11697TIP3   OH235033   0.570   4.444   2.563
11697TIP3    H135034   0.570   4.539   2.577
11697TIP3    H235035   0.618   4.409   2.638
11698TIP3   OH235036   6.380   6.749   4.814
11698TIP3    H135037   6.295   6.794   4.807
11698TIP3    H235038   6.401   6.753   4.908
11699TIP3   OH235039   5.180   0.518   0.678
11699TIP3    H135040   5.246   0.453   0.702
11699TIP3    H235041   5.105   0.467   0.648
11700TIP3   OH235042   3.954   5.026   2.185
11700TIP3    H135043   3.991   5.069   2.262
11700TIP3    H235044   3.925   5.099   2.129
11701TIP3   OH235045   4.530   6.266   0.270
11701TIP3    H135046   4.532   6.276   0.365
11701TIP3    H235047   4.466   6.197   0.254
11702TIP3   OH235048   0.520   6.903   2.998
11702TIP3    H135049   0.500   6.810   2.991
11702TIP3    H235050   0.613   6.905   3.022
11703TIP3   OH235051   2.268   3.164   6.040
11703TIP3    H135052   2.270   3.144   5.946
11703TIP3    H235053   2.209   3.238   6.048
11704TIP3   OH235054   4.220   4.916   3.129
11704TIP3    H135055   4.237   4.828   3.095
11704TIP3    H235056   4.304   4.945   3.165
11705TIP3   OH235057   7.162   5.244   2.887
11705TIP3    H135058   7.098   5.211   2.950
11705TIP3    H235059   7.140   5.337   2.878
11706TIP3   OH235060   1.923   1.451   4.166
11706TIP3    H135061   1.850   1.431   4.108
11706TIP3    H235062   1.976   1.371   4.168
11707TIP3   OH235063   4.348   4.335   5.498
11707TIP3    H135064   4.431   4.318   5.453
11707TIP3    H235065   4.362   4.303   5.587
11708TIP3   OH235066   4.710   7.307   3.644
11708TIP3    H135067   4.640   7.242   3.655
11708TIP3    H235068   4.735   7.330   3.734
11709TIP3   OH235069   1.072   0.717   0.110
11709TIP3    H135070   1.014   0.645   0.134
11709TIP3    H235071   1.139   0.718   0.178
11710TIP3   OH235072   4.483   0.274   5.455
11710TIP3    H135073   4.507   0.198   5.402
11710TIP3    H235074   4.518   0.349   5.407
11711TIP3   OH235075   6.234   1.268   0.417
11711TIP3    H135076   6.290   1.346   0.414
11711TIP3    H235077   6.281   1.207   0.474
11712TIP3   OH235078   6.240   0.518   6.206
11712TIP3    H135079   6.191   0.571   6.143
11712TIP3    H235080   6.206   0.545   6.291
11713TIP3   OH235081   1.051   0.099   2.821
11713TIP3    H135082   1.039   0.193   2.822
11713TIP3    H235083   1.032   0.071   2.911
11714TIP3   OH235084   4.341   3.250   6.663
11714TIP3    H135085   4.366   3.261   6.755
11714TIP3    H235086   4.424   3.234   6.617
11715TIP3   OH235087   2.941   5.438   2.155
11715TIP3    H135088   2.876   5.421   2.223
11715TIP3    H235089   3.025   5.420   2.197
11716TIP3   OH235090   3.355   2.661   4.174
11716TIP3    H135091   3.324   2.721   4.242
11716TIP3    H235092   3.446   2.688   4.158
11717TIP3   OH235093   2.881   6.508   2.083
11717TIP3    H135094   2.822   6.455   2.136
11717TIP3    H235095   2.867   6.598   2.113
11718TIP3   OH235096   4.998   7.360   5.820
11718TIP3    H135097   4.952   7.438   5.850
11718TIP3    H235098   4.943   7.287   5.848
11719TIP3   OH235099   1.195   1.858   1.026
11719TIP3    H135100   1.221   1.780   1.074
11719TIP3    H235101   1.206   1.930   1.088
11720TIP3   OH235102   2.513   7.030   2.959
11720TIP3    H135103   2.548   7.041   3.047
11720TIP3    H235104   2.587   7.044   2.901
11721TIP3   OH235105   7.624   6.826   2.106
11721TIP3    H135106   7.553   6.888   2.126
11721TIP3    H235107   7.665   6.809   2.191
11722TIP3   OH235108   4.258   5.968   5.228
11722TIP3    H135109   4.345   5.933   5.245
11722TIP3    H235110   4.273   6.058   5.198
11723TIP3   OH235111   4.082   0.546   1.071
11723TIP3    H135112   4.012   0.513   1.016
11723TIP3    H235113   4.102   0.633   1.036
11724TIP3   OH235114   6.195   0.694   1.967
11724TIP3    H135115   6.242   0.632   2.024
11724TIP3    H235116   6.129   0.733   2.023
11725TIP3   OH235117   7.263   5.559   3.709
11725TIP3    H135118   7.286   5.581   3.618
11725TIP3    H235119   7.207   5.632   3.737
11726TIP3   OH235120   3.246   0.404   1.632
11726TIP3    H135121   3.226   0.345   1.559
11726TIP3    H235122   3.286   0.480   1.591
11727TIP3   OH235123   0.758   2.534   6.703
11727TIP3    H135124   0.713   2.535   6.619
11727TIP3    H235125   0.783   2.625   6.718
11728TIP3   OH235126   3.647   5.313   0.913
11728TIP3    H135127   3.661   5.351   0.826
11728TIP3    H235128   3.734   5.317   0.954
11729TIP3   OH235129   6.698   7.164   2.260
11729TIP3    H135130   6.746   7.211   2.328
11729TIP3    H235131   6.764   7.143   2.194
11730TIP3   OH235132   2.306   4.303   2.196
11730TIP3    H135133   2.296   4.229   2.137
11730TIP3    H235134   2.374   4.275   2.258
11731TIP3   OH235135   2.994   0.574   2.279
11731TIP3    H135136   3.079   0.615   2.294
11731TIP3    H235137   2.975   0.528   2.361
11732TIP3   OH235138   5.130   2.356   6.036
11732TIP3    H135139   5.169   2.282   6.082
11732TIP3    H235140   5.186   2.431   6.059
11733TIP3   OH235141   0.708   1.537   4.026
11733TIP3    H135142   0.719   1.457   3.975
11733TIP3    H235143   0.763   1.602   3.982
11734TIP3   OH235144   3.551   0.344   0.249
11734TIP3    H135145   3.637   0.331   0.208
11734TIP3    H235146   3.569   0.346   0.343
11735TIP3   OH235147   1.667   4.487   4.950
11735TIP3    H135148   1.589   4.486   5.005
11735TIP3    H235149   1.740   4.496   5.011
11736TIP3   OH235150   0.311   4.475   2.410
11736TIP3    H135151   0.387   4.474   2.468
11736TIP3    H235152   0.309   4.388   2.371
11737TIP3   OH235153   3.959   6.412   0.418
11737TIP3    H135154   3.870   6.404   0.384
11737TIP3    H235155   3.965   6.344   0.485
11738TIP3   OH235156   5.294   7.413   4.354
11738TIP3    H135157   5.380   7.452   4.339
11738TIP3    H235158   5.249   7.475   4.411
11739TIP3   OH235159   3.747   1.161   0.091
11739TIP3    H135160   3.677   1.096   0.079
11739TIP3    H235161   3.704   1.235   0.135
11740TIP3   OH235162   8.196   7.313   2.742
11740TIP3    H135163   8.151   7.376   2.799
11740TIP3    H235164   8.210   7.236   2.797
11741TIP3   OH235165   6.765   4.219   3.224
11741TIP3    H135166   6.705   4.276   3.272
11741TIP3    H235167   6.708   4.163   3.172
11742TIP3   OH235168   1.130   3.610   1.048
11742TIP3    H135169   1.124   3.666   0.970
11742TIP3    H235170   1.144   3.522   1.013
11743TIP3   OH235171   1.126   7.387   4.706
11743TIP3    H135172   1.070   7.457   4.673
11743TIP3    H235173   1.194   7.377   4.640
11744TIP3   OH235174   2.219   6.579   4.899
11744TIP3    H135175   2.274   6.642   4.946
11744TIP3    H235176   2.163   6.632   4.843
11745TIP3   OH235177   5.004   2.545   4.457
11745TIP3    H135178   4.978   2.620   4.510
11745TIP3    H235179   4.922   2.504   4.431
11746TIP3   OH235180   6.289   5.346   4.720
11746TIP3    H135181   6.251   5.375   4.637
11746TIP3    H235182   6.317   5.428   4.762
11747TIP3   OH235183   8.001   2.016   6.721
11747TIP3    H135184   8.087   2.022   6.761
11747TIP3    H235185   7.941   2.046   6.789
11748TIP3   OH235186   6.036   3.234   4.278
11748TIP3    H135187   6.040   3.154   4.225
11748TIP3    H235188   6.123   3.273   4.269
11749TIP3   OH235189   4.026   5.906   6.852
11749TIP3    H135190   3.930   5.904   6.848
11749TIP3    H235191   4.053   5.913   6.760
11750TIP3   OH235192   7.844   3.489   4.046
11750TIP3    H135193   7.862   3.468   3.954
11750TIP3    H235194   7.915   3.548   4.071
11751TIP3   OH235195   0.737   1.505   2.490
11751TIP3    H135196   0.779   1.586   2.519
11751TIP3    H235197   0.675   1.532   2.423
11752TIP3   OH235198   5.660   3.529   5.525
11752TIP3    H135199   5.686   3.453   5.474
11752TIP3    H235200   5.632   3.593   5.459
11753TIP3   OH235201   3.282   6.185   5.026
11753TIP3    H135202   3.234   6.204   4.946
11753TIP3    H235203   3.216   6.187   5.095
11754TIP3   OH235204   1.844   6.284   2.743
11754TIP3    H135205   1.816   6.360   2.692
11754TIP3    H235206   1.904   6.236   2.686
11755TIP3   OH235207   1.924   6.041   4.129
11755TIP3    H135208   1.986   6.069   4.196
11755TIP3    H235209   1.840   6.080   4.156
11756TIP3   OH235210   7.966   5.900   2.270
11756TIP3    H135211   8.049   5.860   2.245
11756TIP3    H235212   7.984   5.943   2.354
11757TIP3   OH235213   5.198   6.413   2.036
11757TIP3    H135214   5.197   6.425   2.131
11757TIP3    H235215   5.289   6.393   2.016
11758TIP3   OH235216   0.256   7.497   2.621
11758TIP3    H135217   0.221   7.558   2.687
11758TIP3    H235218   0.351   7.499   2.635
11759TIP3   OH235219   4.273   4.478   2.860
11759TIP3    H135220   4.296   4.543   2.927
11759TIP3    H235221   4.357   4.438   2.836
11760TIP3   OH235222   7.867   3.581   5.189
11760TIP3    H135223   7.826   3.616   5.268
11760TIP3    H235224   7.901   3.657   5.143
11761TIP3   OH235225   1.910   3.429   0.670
11761TIP3    H135226   1.977   3.432   0.738
11761TIP3    H235227   1.926   3.347   0.623
11762TIP3   OH235228   3.607   2.590   6.740
11762TIP3    H135229   3.683   2.617   6.689
11762TIP3    H235230   3.643   2.561   6.824
11763TIP3   OH235231   4.307   5.246   3.307
11763TIP3    H135232   4.229   5.256   3.362
11763TIP3    H235233   4.310   5.153   3.287
11764TIP3   OH235234   7.435   3.468   1.091
11764TIP3    H135235   7.343   3.475   1.117
11764TIP3    H235236   7.446   3.375   1.068
11765TIP3   OH235237   4.782   0.749   1.142
11765TIP3    H135238   4.693   0.741   1.106
11765TIP3    H235239   4.769   0.746   1.237
11766TIP3   OH235240   1.062   6.735   5.653
11766TIP3    H135241   1.008   6.742   5.574
11766TIP3    H235242   1.141   6.785   5.632
11767TIP3   OH235243   6.140   7.529   2.821
11767TIP3    H135244   6.046   7.541   2.806
11767TIP3    H235245   6.182   7.583   2.755
11768TIP3   OH235246   5.763   6.524   3.428
11768TIP3    H135247   5.732   6.567   3.508
11768TIP3    H235248   5.853   6.555   3.417
11769TIP3   OH235249   2.588   7.426   0.822
11769TIP3    H135250   2.602   7.456   0.911
11769TIP3    H235251   2.631   7.341   0.818
11770TIP3   OH235252   1.732   4.692   5.882
11770TIP3    H135253   1.785   4.753   5.830
11770TIP3    H235254   1.751   4.606   5.845
11771TIP3   OH235255   0.719   5.079   3.906
11771TIP3    H135256   0.704   5.019   3.834
11771TIP3    H235257   0.813   5.073   3.923
11772TIP3   OH235258   6.932   7.206   0.352
11772TIP3    H135259   6.917   7.121   0.311
11772TIP3    H235260   6.854   7.257   0.331
11773TIP3   OH235261   3.779   5.527   5.778
11773TIP3    H135262   3.743   5.454   5.728
11773TIP3    H235263   3.829   5.577   5.714
11774TIP3   OH235264   7.253   0.732   5.050
11774TIP3    H135265   7.220   0.720   5.139
11774TIP3    H235266   7.239   0.647   5.008
11775TIP3   OH235267   2.541   1.027   4.905
11775TIP3    H135268   2.581   0.949   4.866
11775TIP3    H235269   2.615   1.080   4.935
11776TIP3   OH235270   4.322   6.122   0.425
11776TIP3    H135271   4.383   6.064   0.471
11776TIP3    H235272   4.236   6.100   0.462
11777TIP3   OH235273   4.115   4.726   6.587
11777TIP3    H135274   4.119   4.632   6.602
11777TIP3    H235275   4.025   4.750   6.609
11778TIP3   OH235276   7.657   4.683   6.041
11778TIP3    H135277   7.585   4.741   6.067
11778TIP3    H235278   7.736   4.736   6.053
11779TIP3   OH235279   3.667   1.308   5.810
11779TIP3    H135280   3.631   1.315   5.899
11779TIP3    H235281   3.605   1.355   5.755
11780TIP3   OH235282   3.911   3.000   0.567
11780TIP3    H135283   3.976   2.960   0.625
11780TIP3    H235284   3.876   2.927   0.516
11781TIP3   OH235285   5.822   6.688   5.967
11781TIP3    H135286   5.757   6.677   5.898
11781TIP3    H235287   5.774   6.672   6.048
11782TIP3   OH235288   4.085   4.689   4.087
11782TIP3    H135289   4.051   4.686   3.998
11782TIP3    H235290   4.137   4.609   4.096
11783TIP3   OH235291   6.625   5.774   0.823
11783TIP3    H135292   6.711   5.796   0.789
11783TIP3    H235293   6.627   5.679   0.835
11784TIP3   OH235294   1.170   6.487   1.666
11784TIP3    H135295   1.107   6.427   1.706
11784TIP3    H235296   1.144   6.492   1.574
11785TIP3   OH235297   7.666   4.585   1.119
11785TIP3    H135298   7.659   4.668   1.071
11785TIP3    H235299   7.581   4.577   1.163
11786TIP3   OH235300   0.249   7.368   6.275
11786TIP3    H135301   0.287   7.425   6.208
11786TIP3    H235302   0.261   7.280   6.240
11787TIP3   OH235303   6.752   4.849   0.292
11787TIP3    H135304   6.822   4.867   0.229
11787TIP3    H235305   6.710   4.770   0.260
11788TIP3   OH235306   4.723   7.553   2.894
11788TIP3    H135307   4.697   7.568   2.803
11788TIP3    H235308   4.650   7.586   2.945
11789TIP3   OH235309   8.025   4.879   4.207
11789TIP3    H135310   7.975   4.950   4.166
11789TIP3    H235311   8.017   4.896   4.301
11790TIP3   OH235312   7.244   1.301   6.457
11790TIP3    H135313   7.256   1.276   6.548
11790TIP3    H235314   7.153   1.329   6.451
11791TIP3   OH235315   1.031   3.391   0.580
11791TIP3    H135316   1.049   3.333   0.654
11791TIP3    H235317   1.024   3.478   0.618
11792TIP3   OH235318   2.781   3.241   5.651
11792TIP3    H135319   2.708   3.198   5.694
11792TIP3    H235320   2.807   3.182   5.580
11793TIP3   OH235321   2.384   7.339   6.712
11793TIP3    H135322   2.394   7.245   6.700
11793TIP3    H235323   2.330   7.367   6.638
11794TIP3   OH235324   5.807   2.544   1.748
11794TIP3    H135325   5.811   2.631   1.786
11794TIP3    H235326   5.736   2.500   1.795
11795TIP3   OH235327   7.034   4.860   0.707
11795TIP3    H135328   7.052   4.952   0.691
11795TIP3    H235329   6.976   4.859   0.783
11796TIP3   OH235330   3.460   7.824   5.931
11796TIP3    H135331   3.408   7.903   5.940
11796TIP3    H235332   3.551   7.855   5.921
11797TIP3   OH235333   6.574   6.437   5.132
11797TIP3    H135334   6.626   6.362   5.104
11797TIP3    H235335   6.634   6.487   5.189
11798TIP3   OH235336   1.535   4.956   4.858
11798TIP3    H135337   1.473   4.985   4.925
11798TIP3    H235338   1.605   4.912   4.908
11799TIP3   OH235339   7.052   2.234   5.250
11799TIP3    H135340   7.080   2.260   5.338
11799TIP3    H235341   7.090   2.147   5.237
11800TIP3   OH235342   7.710   3.318   5.838
11800TIP3    H135343   7.750   3.277   5.914
11800TIP3    H235344   7.665   3.247   5.793
11801TIP3   OH235345   4.572   4.121   3.197
11801TIP3    H135346   4.658   4.089   3.226
11801TIP3    H235347   4.509   4.068   3.246
11802TIP3   OH235348   5.203   7.620   2.542
11802TIP3    H135349   5.198   7.553   2.475
11802TIP3    H235350   5.186   7.702   2.496
11803TIP3   OH235351   5.237   3.031   3.901
11803TIP3    H135352   5.225   3.126   3.903
11803TIP3    H235353   5.182   3.003   3.827
11804TIP3   OH235354   1.921   1.485   1.444
11804TIP3    H135355   1.936   1.511   1.354
11804TIP3    H235356   1.835   1.442   1.442
11805TIP3   OH235357   3.860   2.240   3.528
11805TIP3    H135358   3.912   2.203   3.600
11805TIP3    H235359   3.891   2.194   3.450
11806TIP3   OH235360   5.744   3.894   2.267
11806TIP3    H135361   5.796   3.899   2.187
11806TIP3    H235362   5.794   3.836   2.325
11807TIP3   OH235363   7.434   2.945   4.240
11807TIP3    H135364   7.498   2.909   4.178
11807TIP3    H235365   7.408   2.870   4.294
11808TIP3   OH235366   4.675   0.470   6.467
11808TIP3    H135367   4.657   0.415   6.543
11808TIP3    H235368   4.739   0.420   6.416
11809TIP3   OH235369   3.259   1.595   2.605
11809TIP3    H135370   3.283   1.549   2.685
11809TIP3    H235371   3.341   1.608   2.558
11810TIP3   OH235372   2.401   6.168   4.577
11810TIP3    H135373   2.366   6.186   4.664
11810TIP3    H235374   2.350   6.225   4.519
11811TIP3   OH235375   7.814   5.340   1.456
11811TIP3    H135376   7.785   5.255   1.422
11811TIP3    H235377   7.810   5.330   1.551
11812TIP3   OH235378   6.401   2.344   1.252
11812TIP3    H135379   6.347   2.399   1.196
11812TIP3    H235380   6.354   2.341   1.336
11813TIP3   OH235381   3.675   4.915   3.238
11813TIP3    H135382   3.770   4.926   3.227
11813TIP3    H235383   3.652   4.845   3.176
11814TIP3   OH235384   2.372   4.159   3.063
11814TIP3    H135385   2.461   4.124   3.056
11814TIP3    H235386   2.342   4.166   2.973
11815TIP3   OH235387   0.265   5.214   2.941
11815TIP3    H135388   0.267   5.301   2.903
11815TIP3    H235389   0.198   5.219   3.010
11816TIP3   OH235390   6.133   4.599   3.424
11816TIP3    H135391   6.226   4.599   3.401
11816TIP3    H235392   6.104   4.510   3.407
11817TIP3   OH235393   5.218   0.279   4.089
11817TIP3    H135394   5.290   0.316   4.038
11817TIP3    H235395   5.259   0.215   4.147
11818TIP3   OH235396   1.596   0.424   4.344
11818TIP3    H135397   1.573   0.334   4.368
11818TIP3    H235398   1.621   0.465   4.427
11819TIP3   OH235399   1.322   1.638   1.138
11819TIP3    H135400   1.324   1.570   1.205
11819TIP3    H235401   1.334   1.591   1.055
11820TIP3   OH235402   7.289   5.095   3.719
11820TIP3    H135403   7.358   5.045   3.676
11820TIP3    H235404   7.284   5.176   3.668
11821TIP3   OH235405   6.054   1.253   5.977
11821TIP3    H135406   6.050   1.179   5.916
11821TIP3    H235407   5.969   1.253   6.021
11822TIP3   OH235408   7.701   1.914   6.298
11822TIP3    H135409   7.793   1.910   6.270
11822TIP3    H235410   7.705   1.952   6.385
11823TIP3   OH235411   6.231   2.459   2.933
11823TIP3    H135412   6.263   2.371   2.914
11823TIP3    H235413   6.310   2.508   2.959
11824TIP3   OH235414   7.783   4.315   0.473
11824TIP3    H135415   7.755   4.377   0.406
11824TIP3    H235416   7.737   4.234   0.451
11825TIP3   OH235417   0.703   3.390   4.891
11825TIP3    H135418   0.621   3.344   4.876
11825TIP3    H235419   0.759   3.365   4.817
11826TIP3   OH235420   1.939   4.065   6.565
11826TIP3    H135421   1.904   4.102   6.647
11826TIP3    H235422   1.968   3.977   6.589
11827TIP3   OH235423   5.894   0.376   6.079
11827TIP3    H135424   5.959   0.319   6.037
11827TIP3    H235425   5.905   0.360   6.173
11828TIP3   OH235426   5.297   0.373   5.205
11828TIP3    H135427   5.279   0.279   5.195
11828TIP3    H235428   5.392   0.378   5.218
11829TIP3   OH235429   0.383   1.595  -0.007
11829TIP3    H135430   0.478   1.608  -0.012
11829TIP3    H235431   0.346   1.669  -0.055
11830TIP3   OH235432   3.489   6.204   0.442
11830TIP3    H135433   3.453   6.254   0.368
11830TIP3    H235434   3.550   6.142   0.401
11831TIP3   OH235435   6.716   4.869   4.665
11831TIP3    H135436   6.806   4.881   4.637
11831TIP3    H235437   6.692   4.782   4.632
11832TIP3   OH235438   8.077   0.899   6.774
11832TIP3    H135439   8.108   0.910   6.864
11832TIP3    H235440   8.144   0.846   6.731
11833TIP3   OH235441   3.292   1.969   1.370
11833TIP3    H135442   3.216   2.012   1.408
11833TIP3    H235443   3.307   1.894   1.427
11834TIP3   OH235444   2.347   6.568   0.237
11834TIP3    H135445   2.399   6.489   0.221
11834TIP3    H235446   2.352   6.616   0.154
11835TIP3   OH235447   0.817   1.888   1.760
11835TIP3    H135448   0.727   1.859   1.746
11835TIP3    H235449   0.844   1.926   1.677
11836TIP3   OH235450   1.129   7.672   1.087
11836TIP3    H135451   1.151   7.764   1.079
11836TIP3    H235452   1.208   7.625   1.061
11837TIP3   OH235453   8.236   1.137   0.027
11837TIP3    H135454   8.312   1.150  -0.030
11837TIP3    H235455   8.267   1.075   0.094
11838TIP3   OH235456   6.647   7.291   1.544
11838TIP3    H135457   6.719   7.340   1.505
11838TIP3    H235458   6.635   7.216   1.486
11839TIP3   OH235459   5.254   6.080   4.168
11839TIP3    H135460   5.210   6.160   4.197
11839TIP3    H235461   5.220   6.011   4.225
11840TIP3   OH235462   3.969   0.156   4.772
11840TIP3    H135463   3.993   0.110   4.852
11840TIP3    H235464   3.874   0.145   4.766
11841TIP3   OH235465   6.054   6.131   5.548
11841TIP3    H135466   6.001   6.087   5.614
11841TIP3    H235467   6.056   6.070   5.474
11842TIP3   OH235468   8.346   3.880   4.418
11842TIP3    H135469   8.295   3.916   4.490
11842TIP3    H235470   8.292   3.897   4.340
11843TIP3   OH235471   6.640   3.373   6.224
11843TIP3    H135472   6.651   3.371   6.319
11843TIP3    H235473   6.571   3.438   6.209
11844TIP3   OH235474   3.754   1.207   3.704
11844TIP3    H135475   3.753   1.210   3.608
11844TIP3    H235476   3.846   1.217   3.728
11845TIP3   OH235477   2.755   3.826   0.574
11845TIP3    H135478   2.675   3.877   0.562
11845TIP3    H235479   2.731   3.738   0.546
11846TIP3   OH235480   6.099   2.625   5.822
11846TIP3    H135481   6.165   2.586   5.765
11846TIP3    H235482   6.016   2.609   5.777
11847TIP3   OH235483   0.619   0.335   0.993
11847TIP3    H135484   0.682   0.394   1.036
11847TIP3    H235485   0.598   0.270   1.060
11848TIP3   OH235486   6.665   4.866   3.699
11848TIP3    H135487   6.698   4.879   3.788
11848TIP3    H235488   6.719   4.924   3.645
11849TIP3   OH235489   6.700   5.215   0.877
11849TIP3    H135490   6.630   5.233   0.814
11849TIP3    H235491   6.704   5.119   0.882
11850TIP3   OH235492   0.995   1.289   3.746
11850TIP3    H135493   1.030   1.234   3.816
11850TIP3    H235494   0.964   1.227   3.679
11851TIP3   OH235495   5.983   0.019   0.916
11851TIP3    H135496   5.888   0.019   0.930
11851TIP3    H235497   6.015   0.092   0.969
11852TIP3   OH235498   3.284   0.837   3.512
11852TIP3    H135499   3.202   0.875   3.480
11852TIP3    H235500   3.351   0.899   3.485
11853TIP3   OH235501   2.976   0.161   3.493
11853TIP3    H135502   2.963   0.208   3.575
11853TIP3    H235503   2.928   0.211   3.428
11854TIP3   OH235504   1.753   3.544   2.879
11854TIP3    H135505   1.663   3.519   2.902
11854TIP3    H235506   1.804   3.521   2.957
11855TIP3   OH235507   7.452   5.839   1.666
11855TIP3    H135508   7.538   5.800   1.650
11855TIP3    H235509   7.391   5.767   1.658
11856TIP3   OH235510   3.243   2.229   6.187
11856TIP3    H135511   3.159   2.225   6.233
11856TIP3    H235512   3.289   2.303   6.227
11857TIP3   OH235513   2.448   1.212   4.735
11857TIP3    H135514   2.361   1.243   4.761
11857TIP3    H235515   2.454   1.124   4.773
11858TIP3   OH235516   2.231   4.748   2.141
11858TIP3    H135517   2.291   4.800   2.195
11858TIP3    H235518   2.283   4.673   2.112
11859TIP3   OH235519   3.564   6.522   6.008
11859TIP3    H135520   3.547   6.586   5.939
11859TIP3    H235521   3.482   6.517   6.057
11860TIP3   OH235522   5.427   1.342   1.177
11860TIP3    H135523   5.406   1.398   1.251
11860TIP3    H235524   5.395   1.390   1.100
11861TIP3   OH235525   2.874   1.220   2.981
11861TIP3    H135526   2.800   1.279   2.971
11861TIP3    H235527   2.871   1.193   3.073
11862TIP3   OH235528   5.456   4.637   2.831
11862TIP3    H135529   5.440   4.730   2.845
11862TIP3    H235530   5.488   4.631   2.741
11863TIP3   OH235531   2.642   0.071   6.654
11863TIP3    H135532   2.565   0.107   6.611
11863TIP3    H235533   2.700   0.045   6.583
11864TIP3   OH235534   3.448   5.536   6.738
11864TIP3    H135535   3.461   5.529   6.644
11864TIP3    H235536   3.490   5.618   6.763
11865TIP3   OH235537   1.106   6.616   2.130
11865TIP3    H135538   1.069   6.574   2.207
11865TIP3    H235539   1.059   6.578   2.056
11866TIP3   OH235540   1.451   3.520   2.851
11866TIP3    H135541   1.454   3.428   2.877
11866TIP3    H235542   1.360   3.535   2.824
11867TIP3   OH235543   5.750   4.745   3.548
11867TIP3    H135544   5.688   4.814   3.527
11867TIP3    H235545   5.723   4.671   3.493
11868TIP3   OH235546   7.023   1.068   5.461
11868TIP3    H135547   6.985   0.997   5.409
11868TIP3    H235548   6.977   1.063   5.545
11869TIP3   OH235549   5.875   7.144   0.603
11869TIP3    H135550   5.951   7.198   0.583
11869TIP3    H235551   5.848   7.110   0.517
11870TIP3   OH235552   3.955   6.554   2.777
11870TIP3    H135553   4.026   6.606   2.740
11870TIP3    H235554   3.875   6.602   2.755
11871TIP3   OH235555   0.520   4.773   0.968
11871TIP3    H135556   0.597   4.721   0.990
11871TIP3    H235557   0.552   4.838   0.905
11872TIP3   OH235558   1.965   5.025   4.280
11872TIP3    H135559   1.992   5.109   4.316
11872TIP3    H235560   1.869   5.025   4.287
11873TIP3   OH235561   3.490   3.085   3.098
11873TIP3    H135562   3.475   3.061   3.006
11873TIP3    H235563   3.414   3.049   3.144
11874TIP3   OH235564   3.472   3.721   3.493
11874TIP3    H135565   3.417   3.792   3.459
11874TIP3    H235566   3.437   3.641   3.455
11875TIP3   OH235567   2.455   7.513   1.996
11875TIP3    H135568   2.433   7.435   2.047
11875TIP3    H235569   2.530   7.551   2.041
11876TIP3   OH235570   6.612   3.220   5.735
11876TIP3    H135571   6.680   3.160   5.707
11876TIP3    H235572   6.657   3.303   5.750
11877TIP3   OH235573   3.808   5.589   0.365
11877TIP3    H135574   3.867   5.531   0.414
11877TIP3    H235575   3.805   5.670   0.416
11878TIP3   OH235576   6.652   7.101   4.095
11878TIP3    H135577   6.739   7.136   4.074
11878TIP3    H235578   6.638   7.126   4.186
11879TIP3   OH235579   2.981   2.599   6.692
11879TIP3    H135580   3.030   2.674   6.658
11879TIP3    H235581   3.041   2.557   6.754
11880TIP3   OH235582   3.700   5.668   6.505
11880TIP3    H135583   3.721   5.681   6.598
11880TIP3    H235584   3.647   5.589   6.504
11881TIP3   OH235585   0.811   4.735   1.049
11881TIP3    H135586   0.784   4.644   1.066
11881TIP3    H235587   0.826   4.738   0.955
11882TIP3   OH235588   1.536   0.913   5.206
11882TIP3    H135589   1.561   0.862   5.283
11882TIP3    H235590   1.531   1.003   5.237
11883TIP3   OH235591   4.892   0.137   4.303
11883TIP3    H135592   4.922   0.060   4.352
11883TIP3    H235593   4.930   0.211   4.350
11884TIP3   OH235594   1.658   1.876   0.625
11884TIP3    H135595   1.634   1.902   0.713
11884TIP3    H235596   1.594   1.920   0.568
11885TIP3   OH235597   5.458   7.715   6.481
11885TIP3    H135598   5.546   7.712   6.519
11885TIP3    H235599   5.472   7.704   6.387
11886TIP3   OH235600   0.555   2.112   0.767
11886TIP3    H135601   0.627   2.136   0.709
11886TIP3    H235602   0.596   2.061   0.837
11887TIP3   OH235603   1.296   2.021   2.938
11887TIP3    H135604   1.202   2.004   2.947
11887TIP3    H235605   1.332   2.003   3.025
11888TIP3   OH235606   3.237   2.173   4.220
11888TIP3    H135607   3.263   2.193   4.310
11888TIP3    H235608   3.184   2.248   4.194
11889TIP3   OH235609   5.777   5.698   1.065
11889TIP3    H135610   5.723   5.630   1.024
11889TIP3    H235611   5.740   5.709   1.152
11890TIP3   OH235612   3.942   4.592   0.509
11890TIP3    H135613   3.920   4.609   0.600
11890TIP3    H235614   3.956   4.678   0.470
11891TIP3   OH235615   0.233   2.749   3.388
11891TIP3    H135616   0.256   2.842   3.381
11891TIP3    H235617   0.175   2.733   3.314
11892TIP3   OH235618   2.013   7.160   4.319
11892TIP3    H135619   2.078   7.213   4.275
11892TIP3    H235620   1.991   7.209   4.399
11893TIP3   OH235621   3.532   2.393   4.218
11893TIP3    H135622   3.545   2.403   4.124
11893TIP3    H235623   3.581   2.314   4.241
11894TIP3   OH235624   5.915   1.741   3.688
11894TIP3    H135625   6.004   1.748   3.722
11894TIP3    H235626   5.921   1.772   3.598
11895TIP3   OH235627   3.311   0.209   4.948
11895TIP3    H135628   3.297   0.121   4.912
11895TIP3    H235629   3.258   0.266   4.892
11896TIP3   OH235630   6.412   7.447   5.273
11896TIP3    H135631   6.344   7.496   5.320
11896TIP3    H235632   6.366   7.408   5.199
11897TIP3   OH235633   4.377   4.806   4.915
11897TIP3    H135634   4.456   4.801   4.861
11897TIP3    H235635   4.311   4.841   4.856
11898TIP3   OH235636   1.925   5.535   1.796
11898TIP3    H135637   1.854   5.538   1.732
11898TIP3    H235638   1.909   5.454   1.846
11899TIP3   OH235639   6.381   5.860   2.684
11899TIP3    H135640   6.462   5.876   2.731
11899TIP3    H235641   6.361   5.768   2.700
11900TIP3   OH235642   4.497   3.115   5.682
11900TIP3    H135643   4.455   3.064   5.752
11900TIP3    H235644   4.427   3.130   5.618
11901TIP3   OH235645   6.536   1.565   2.834
11901TIP3    H135646   6.446   1.543   2.857
11901TIP3    H235647   6.586   1.545   2.913
11902TIP3   OH235648   6.988   3.076   5.879
11902TIP3    H135649   6.916   3.075   5.816
11902TIP3    H235650   7.067   3.067   5.825
11903TIP3   OH235651   0.026   2.861   6.501
11903TIP3    H135652   0.049   2.858   6.408
11903TIP3    H235653  -0.053   2.807   6.507
11904TIP3   OH235654   4.216   5.856   4.834
11904TIP3    H135655   4.250   5.782   4.783
11904TIP3    H235656   4.122   5.855   4.817
11905TIP3   OH235657   2.304   0.905   5.453
11905TIP3    H135658   2.236   0.914   5.386
11905TIP3    H235659   2.256   0.885   5.533
11906TIP3   OH235660   5.821   2.665   1.287
11906TIP3    H135661   5.796   2.746   1.333
11906TIP3    H235662   5.778   2.595   1.336
11907TIP3   OH235663   0.516   1.309   3.077
11907TIP3    H135664   0.542   1.232   3.126
11907TIP3    H235665   0.448   1.278   3.017
11908TIP3   OH235666   0.946   7.201   5.722
11908TIP3    H135667   0.921   7.169   5.635
11908TIP3    H235668   0.917   7.292   5.723
11909TIP3   OH235669   7.715   7.293   6.171
11909TIP3    H135670   7.658   7.346   6.116
11909TIP3    H235671   7.746   7.223   6.113
11910TIP3   OH235672   8.098   2.770   6.202
11910TIP3    H135673   8.183   2.813   6.197
11910TIP3    H235674   8.045   2.812   6.135
11911TIP3   OH235675   7.222   0.833   6.475
11911TIP3    H135676   7.240   0.852   6.567
11911TIP3    H235677   7.218   0.738   6.470
11912TIP3   OH235678   1.061   6.581   4.134
11912TIP3    H135679   1.072   6.505   4.190
11912TIP3    H235680   0.966   6.596   4.131
11913TIP3   OH235681   7.017   3.231   3.040
11913TIP3    H135682   6.952   3.253   3.107
11913TIP3    H235683   6.983   3.150   3.001
11914TIP3   OH235684   5.660   4.915   1.649
11914TIP3    H135685   5.590   4.943   1.708
11914TIP3    H235686   5.647   4.966   1.570
11915TIP3   OH235687   1.485   0.350   3.676
11915TIP3    H135688   1.404   0.324   3.720
11915TIP3    H235689   1.475   0.445   3.662
11916TIP3   OH235690   4.021   6.355   3.946
11916TIP3    H135691   4.052   6.446   3.943
11916TIP3    H235692   3.937   6.360   3.991
11917TIP3   OH235693   7.721   2.491   5.408
11917TIP3    H135694   7.796   2.549   5.399
11917TIP3    H235695   7.726   2.433   5.332
11918TIP3   OH235696   2.713   1.656   4.282
11918TIP3    H135697   2.708   1.630   4.374
11918TIP3    H235698   2.779   1.725   4.280
11919TIP3   OH235699   3.388   4.144   3.443
11919TIP3    H135700   3.303   4.102   3.434
11919TIP3    H235701   3.412   4.129   3.535
11920TIP3   OH235702   7.187   2.121   4.640
11920TIP3    H135703   7.140   2.160   4.566
11920TIP3    H235704   7.157   2.030   4.642
11921TIP3   OH235705   1.996   4.710   4.994
11921TIP3    H135706   2.077   4.686   4.948
11921TIP3    H235707   2.018   4.792   5.038
11922TIP3   OH235708   1.471   6.260   5.748
11922TIP3    H135709   1.386   6.302   5.735
11922TIP3    H235710   1.509   6.255   5.660
11923TIP3   OH235711   0.251   4.026   3.644
11923TIP3    H135712   0.186   4.097   3.639
11923TIP3    H235713   0.201   3.947   3.622
11924TIP3   OH235714   5.953   5.182   2.585
11924TIP3    H135715   6.016   5.238   2.540
11924TIP3    H235716   5.990   5.094   2.580
11925TIP3   OH235717   0.326   0.924   0.633
11925TIP3    H135718   0.270   0.991   0.594
11925TIP3    H235719   0.323   0.942   0.727
11926TIP3   OH235720   1.591   2.776   3.147
11926TIP3    H135721   1.575   2.848   3.085
11926TIP3    H235722   1.568   2.697   3.099
11927TIP3   OH235723   7.143   4.414   1.466
11927TIP3    H135724   7.173   4.476   1.532
11927TIP3    H235725   7.207   4.342   1.471
11928TIP3   OH235726   4.825   5.617   2.056
11928TIP3    H135727   4.825   5.616   2.152
11928TIP3    H235728   4.796   5.705   2.033
11929TIP3   OH235729   5.590   5.841   4.785
11929TIP3    H135730   5.645   5.770   4.750
11929TIP3    H235731   5.574   5.815   4.876
11930TIP3   OH235732   4.423   1.230   0.623
11930TIP3    H135733   4.417   1.141   0.588
11930TIP3    H235734   4.447   1.218   0.715
11931TIP3   OH235735   4.877   0.838   2.661
11931TIP3    H135736   4.935   0.866   2.732
11931TIP3    H235737   4.919   0.871   2.581
11932TIP3   OH235738   6.827   6.070   6.278
11932TIP3    H135739   6.776   6.112   6.209
11932TIP3    H235740   6.918   6.078   6.249
11933TIP3   OH235741   2.269   5.954   4.157
11933TIP3    H135742   2.230   5.867   4.147
11933TIP3    H235743   2.321   5.948   4.237
11934TIP3   OH235744   2.556   2.955   3.978
11934TIP3    H135745   2.519   3.029   3.930
11934TIP3    H235746   2.547   2.881   3.919
11935TIP3   OH235747   0.295   2.774   2.186
11935TIP3    H135748   0.249   2.691   2.175
11935TIP3    H235749   0.303   2.786   2.281
11936TIP3   OH235750  -0.067   4.200   1.747
11936TIP3    H135751   0.022   4.200   1.781
11936TIP3    H235752  -0.057   4.221   1.654
11937TIP3   OH235753   1.315   2.115   2.130
11937TIP3    H135754   1.398   2.157   2.108
11937TIP3    H235755   1.305   2.130   2.224
11938TIP3   OH235756   1.289   4.239   0.245
11938TIP3    H135757   1.293   4.207   0.155
11938TIP3    H235758   1.322   4.329   0.240
11939TIP3   OH235759   5.047   1.063   1.322
11939TIP3    H135760   5.013   1.081   1.410
11939TIP3    H235761   5.005   1.128   1.266
11940TIP3   OH235762   5.975   3.612   6.641
11940TIP3    H135763   5.890   3.569   6.633
11940TIP3    H235764   5.956   3.705   6.631
11941TIP3   OH235765   3.056   6.321   2.797
11941TIP3    H135766   3.105   6.244   2.823
11941TIP3    H235767   3.036   6.307   2.704
11942TIP3   OH235768   4.558   7.224   1.347
11942TIP3    H135769   4.570   7.240   1.441
11942TIP3    H235770   4.519   7.304   1.313
11943TIP3   OH235771   1.068   2.775   3.164
11943TIP3    H135772   1.046   2.708   3.099
11943TIP3    H235773   1.111   2.845   3.115
11944TIP3   OH235774   3.523   7.462   6.597
11944TIP3    H135775   3.517   7.410   6.677
11944TIP3    H235776   3.464   7.418   6.536
11945TIP3   OH235777   1.042   2.919   1.534
11945TIP3    H135778   0.977   2.859   1.572
11945TIP3    H235779   1.126   2.890   1.570
11946TIP3   OH235780   4.977   6.186   1.836
11946TIP3    H135781   4.975   6.271   1.879
11946TIP3    H235782   4.898   6.183   1.783
11947TIP3   OH235783   1.112   1.285   4.647
11947TIP3    H135784   1.159   1.295   4.729
11947TIP3    H235785   1.025   1.255   4.673
11948TIP3   OH235786   1.251   4.194   1.983
11948TIP3    H135787   1.181   4.256   2.002
11948TIP3    H235788   1.208   4.109   1.974
11949TIP3   OH235789   5.107   3.045   2.104
11949TIP3    H135790   5.119   3.014   2.194
11949TIP3    H235791   5.195   3.041   2.066
11950TIP3   OH235792   8.005   3.635   0.524
11950TIP3    H135793   7.970   3.561   0.574
11950TIP3    H235794   8.085   3.602   0.484
11951TIP3   OH235795   6.431   1.940   4.081
11951TIP3    H135796   6.448   1.896   3.997
11951TIP3    H235797   6.476   1.886   4.146
11952TIP3   OH235798   1.577   6.512   1.451
11952TIP3    H135799   1.660   6.467   1.467
11952TIP3    H235800   1.524   6.493   1.528
11953TIP3   OH235801   5.443   4.137   6.326
11953TIP3    H135802   5.475   4.062   6.275
11953TIP3    H235803   5.470   4.118   6.416
11954TIP3   OH235804   1.630   2.043   5.694
11954TIP3    H135805   1.627   2.136   5.717
11954TIP3    H235806   1.557   2.032   5.633
11955TIP3   OH235807   1.167   4.122  -0.003
11955TIP3    H135808   1.149   4.212  -0.032
11955TIP3    H235809   1.106   4.108   0.070
11956TIP3   OH235810   4.829   6.619   0.333
11956TIP3    H135811   4.889   6.575   0.273
11956TIP3    H235812   4.851   6.711   0.326
11957TIP3   OH235813   5.203   0.912   3.710
11957TIP3    H135814   5.110   0.898   3.726
11957TIP3    H235815   5.245   0.890   3.793
11958TIP3   OH235816   3.759   0.853   3.549
11958TIP3    H135817   3.723   0.809   3.625
11958TIP3    H235818   3.822   0.791   3.512
11959TIP3   OH235819   5.389   7.197   0.440
11959TIP3    H135820   5.468   7.149   0.466
11959TIP3    H235821   5.396   7.281   0.484
11960TIP3   OH235822   3.887   2.103   4.050
11960TIP3    H135823   3.978   2.083   4.071
11960TIP3    H235824   3.854   2.145   4.130
11961TIP3   OH235825   1.662   1.119   1.443
11961TIP3    H135826   1.747   1.105   1.402
11961TIP3    H235827   1.655   1.049   1.508
11962TIP3   OH235828   7.111   2.305   3.016
11962TIP3    H135829   7.191   2.353   3.034
11962TIP3    H235830   7.104   2.243   3.089
11963TIP3   OH235831   3.037   4.858   5.043
11963TIP3    H135832   2.981   4.825   5.113
11963TIP3    H235833   3.126   4.836   5.071
11964TIP3   OH235834   3.421   1.673   4.079
11964TIP3    H135835   3.465   1.717   4.152
11964TIP3    H235836   3.487   1.667   4.011
11965TIP3   OH235837   5.489   7.765   5.877
11965TIP3    H135838   5.495   7.749   5.971
11965TIP3    H235839   5.514   7.682   5.837
11966TIP3   OH235840   0.366   0.260   0.778
11966TIP3    H135841   0.446   0.288   0.734
11966TIP3    H235842   0.296   0.308   0.733
11967TIP3   OH235843   7.767   3.712   0.347
11967TIP3    H135844   7.728   3.697   0.261
11967TIP3    H235845   7.850   3.665   0.344
11968TIP3   OH235846   7.537   7.791   4.212
11968TIP3    H135847   7.470   7.723   4.211
11968TIP3    H235848   7.495   7.865   4.256
11969TIP3   OH235849   3.130   5.097   5.600
11969TIP3    H135850   3.222   5.101   5.625
11969TIP3    H235851   3.083   5.091   5.683
11970TIP3   OH235852   0.130   4.952   4.055
11970TIP3    H135853   0.061   4.922   3.997
11970TIP3    H235854   0.085   5.007   4.119
11971TIP3   OH235855   7.011   4.818   0.440
11971TIP3    H135856   6.924   4.855   0.422
11971TIP3    H235857   7.026   4.838   0.532
11972TIP3   OH235858   4.143   1.579   5.667
11972TIP3    H135859   4.151   1.537   5.753
11972TIP3    H235860   4.232   1.576   5.631
11973TIP3   OH235861   2.262   5.179   4.244
11973TIP3    H135862   2.214   5.262   4.248
11973TIP3    H235863   2.298   5.176   4.155
11974TIP3   OH235864   5.508   5.107   6.369
11974TIP3    H135865   5.576   5.131   6.432
11974TIP3    H235866   5.427   5.140   6.407
11975TIP3   OH235867   3.350   5.320   4.040
11975TIP3    H135868   3.301   5.356   4.114
11975TIP3    H235869   3.361   5.228   4.061
11976TIP3   OH235870   0.198   5.816   4.353
11976TIP3    H135871   0.214   5.807   4.259
11976TIP3    H235872   0.277   5.857   4.387
11977TIP3   OH235873   3.880   6.413   1.949
11977TIP3    H135874   3.831   6.447   2.024
11977TIP3    H235875   3.918   6.490   1.908
11978TIP3   OH235876   0.139   2.805   0.924
11978TIP3    H135877   0.140   2.858   1.004
11978TIP3    H235878   0.214   2.838   0.873
11979TIP3   OH235879   1.087   1.119   2.694
11979TIP3    H135880   1.138   1.120   2.613
11979TIP3    H235881   1.148   1.148   2.762
11980TIP3   OH235882   0.850   2.837   5.380
11980TIP3    H135883   0.803   2.919   5.390
11980TIP3    H235884   0.783   2.769   5.389
11981TIP3   OH235885   0.856   5.217   1.257
11981TIP3    H135886   0.799   5.157   1.306
11981TIP3    H235887   0.893   5.274   1.324
11982TIP3   OH235888   8.125   1.244   0.621
11982TIP3    H135889   8.065   1.230   0.548
11982TIP3    H235890   8.166   1.159   0.636
11983TIP3   OH235891   4.039   0.058   4.519
11983TIP3    H135892   4.131   0.079   4.505
11983TIP3    H235893   4.022   0.083   4.610
11984TIP3   OH235894   8.169   3.808   1.614
11984TIP3    H135895   8.100   3.873   1.602
11984TIP3    H235896   8.136   3.753   1.686
11985TIP3   OH235897   2.023   4.212   2.036
11985TIP3    H135898   1.937   4.176   2.056
11985TIP3    H235899   2.020   4.302   2.068
11986TIP3   OH235900   1.835   0.975   5.036
11986TIP3    H135901   1.845   1.069   5.023
11986TIP3    H235902   1.744   0.965   5.064
11987TIP3   OH235903   1.801   3.282   3.301
11987TIP3    H135904   1.721   3.253   3.257
11987TIP3    H235905   1.783   3.270   3.394
11988TIP3   OH235906  -0.001   7.416   5.946
11988TIP3    H135907   0.059   7.476   5.989
11988TIP3    H235908   0.055   7.357   5.896
11989TIP3   OH235909   8.100   3.072   4.093
11989TIP3    H135910   8.021   3.036   4.135
11989TIP3    H235911   8.086   3.057   4.000
11990TIP3   OH235912   7.395   4.295   0.612
11990TIP3    H135913   7.463   4.241   0.652
11990TIP3    H235914   7.357   4.239   0.544
11991TIP3   OH235915   4.269   7.057   2.769
11991TIP3    H135916   4.236   7.057   2.859
11991TIP3    H235917   4.362   7.036   2.778
11992TIP3   OH235918   2.520   1.913   3.268
11992TIP3    H135919   2.517   1.978   3.338
11992TIP3    H235920   2.504   1.829   3.311
11993TIP3   OH235921   0.033   3.624   1.991
11993TIP3    H135922   0.040   3.718   2.008
11993TIP3    H235923   0.086   3.583   2.059
11994TIP3   OH235924   7.565   3.696   1.391
11994TIP3    H135925   7.584   3.710   1.299
11994TIP3    H235926   7.622   3.757   1.437
11995TIP3   OH235927   5.459   1.054   1.920
11995TIP3    H135928   5.379   1.094   1.886
11995TIP3    H235929   5.453   1.065   2.015
11996TIP3   OH235930   0.077   3.459   6.074
11996TIP3    H135931   0.105   3.512   6.148
11996TIP3    H235932   0.155   3.450   6.020
11997TIP3   OH235933   5.021   6.828   5.907
11997TIP3    H135934   4.959   6.829   5.980
11997TIP3    H235935   5.022   6.737   5.878
11998TIP3   OH235936   1.985   6.242   5.576
11998TIP3    H135937   2.066   6.231   5.626
11998TIP3    H235938   1.977   6.337   5.564
11999TIP3   OH235939   5.563   6.711   5.486
11999TIP3    H135940   5.562   6.691   5.393
11999TIP3    H235941   5.472   6.728   5.509
12000TIP3   OH235942   6.249   0.353   4.562
12000TIP3    H135943   6.302   0.405   4.624
12000TIP3    H235944   6.301   0.273   4.548
12001TIP3   OH235945   1.124   5.424   4.194
12001TIP3    H135946   1.077   5.374   4.262
12001TIP3    H235947   1.198   5.368   4.172
12002TIP3   OH235948   3.889   1.701   1.952
12002TIP3    H135949   3.891   1.774   2.014
12002TIP3    H235950   3.806   1.712   1.905
12003TIP3   OH235951   1.316   0.149   3.025
12003TIP3    H135952   1.306   0.068   2.975
12003TIP3    H235953   1.384   0.129   3.089
12004TIP3   OH235954   1.728   4.041   0.497
12004TIP3    H135955   1.716   3.950   0.470
12004TIP3    H235956   1.796   4.074   0.439
12005TIP3   OH235957   3.211   3.954   6.680
12005TIP3    H135958   3.241   3.917   6.763
12005TIP3    H235959   3.291   3.972   6.631
12006TIP3   OH235960   6.944   5.568   2.173
12006TIP3    H135961   6.979   5.652   2.204
12006TIP3    H235962   6.997   5.502   2.218
12007TIP3   OH235963   7.165   7.450   5.473
12007TIP3    H135964   7.070   7.451   5.460
12007TIP3    H235965   7.178   7.413   5.560
12008TIP3   OH235966   6.348   3.348   4.535
12008TIP3    H135967   6.369   3.391   4.453
12008TIP3    H235968   6.415   3.280   4.545
12009TIP3   OH235969   7.158   3.355   5.318
12009TIP3    H135970   7.178   3.281   5.375
12009TIP3    H235971   7.063   3.365   5.323
12010TIP3   OH235972   3.026   2.837   1.911
12010TIP3    H135973   2.978   2.919   1.925
12010TIP3    H235974   3.116   2.865   1.892
12011TIP3   OH235975   6.915   3.520   3.953
12011TIP3    H135976   7.001   3.547   3.921
12011TIP3    H235977   6.930   3.432   3.987
12012TIP3   OH235978   2.709   6.138   4.332
12012TIP3    H135979   2.671   6.191   4.262
12012TIP3    H235980   2.683   6.049   4.311
12013TIP3   OH235981   0.852   5.364   6.397
12013TIP3    H135982   0.791   5.349   6.325
12013TIP3    H235983   0.854   5.459   6.407
12014TIP3   OH235984   0.825   3.423   4.090
12014TIP3    H135985   0.814   3.518   4.092
12014TIP3    H235986   0.736   3.388   4.081
12015TIP3   OH235987   2.617   5.385   0.384
12015TIP3    H135988   2.671   5.322   0.431
12015TIP3    H235989   2.625   5.466   0.434
12016TIP3   OH235990   1.504   4.231   2.865
12016TIP3    H135991   1.529   4.145   2.831
12016TIP3    H235992   1.586   4.270   2.896
12017TIP3   OH235993   0.641   0.747   3.738
12017TIP3    H135994   0.702   0.696   3.791
12017TIP3    H235995   0.593   0.682   3.686
12018TIP3   OH235996   1.740   7.178   1.991
12018TIP3    H135997   1.768   7.253   2.044
12018TIP3    H235998   1.696   7.217   1.915
12019TIP3   OH235999   6.430   6.828   6.039
12019TIP3    H136000   6.374   6.828   5.961
12019TIP3    H236001   6.507   6.878   6.014
12020TIP3   OH236002   3.389   5.689   2.167
12020TIP3    H136003   3.469   5.675   2.217
12020TIP3    H236004   3.418   5.692   2.076
12021TIP3   OH236005   1.924   7.729   6.703
12021TIP3    H136006   1.866   7.669   6.750
12021TIP3    H236007   1.979   7.672   6.649
12022TIP3   OH236008   4.252   5.648   0.154
12022TIP3    H136009   4.163   5.632   0.185
12022TIP3    H236010   4.287   5.713   0.215
12023TIP3   OH236011   0.607   5.495   1.315
12023TIP3    H136012   0.693   5.536   1.313
12023TIP3    H236013   0.571   5.520   1.401
12024TIP3   OH236014   5.900   5.497   4.902
12024TIP3    H136015   5.893   5.500   4.807
12024TIP3    H236016   5.867   5.410   4.926
12025TIP3   OH236017   1.966   5.434   5.255
12025TIP3    H136018   1.877   5.446   5.288
12025TIP3    H236019   2.005   5.370   5.315
12026TIP3   OH236020   6.735   1.088   4.650
12026TIP3    H136021   6.746   1.181   4.672
12026TIP3    H236022   6.768   1.041   4.727
12027TIP3   OH236023   5.780   6.109   1.362
12027TIP3    H136024   5.821   6.027   1.389
12027TIP3    H236025   5.841   6.177   1.388
12028TIP3   OH236026   2.621   5.792   3.334
12028TIP3    H136027   2.661   5.788   3.421
12028TIP3    H236028   2.557   5.721   3.335
12029TIP3   OH236029   6.929   7.688   4.841
12029TIP3    H136030   6.971   7.662   4.923
12029TIP3    H236031   6.863   7.753   4.868
12030TIP3   OH236032   5.223   6.433   3.821
12030TIP3    H136033   5.226   6.396   3.732
12030TIP3    H236034   5.224   6.527   3.808
12031TIP3   OH236035   5.039   3.591   2.480
12031TIP3    H136036   5.097   3.664   2.457
12031TIP3    H236037   4.962   3.604   2.425
12032TIP3   OH236038   2.228   3.379   1.462
12032TIP3    H136039   2.216   3.284   1.468
12032TIP3    H236040   2.313   3.395   1.503
12033TIP3   OH236041   2.709   0.169   6.252
12033TIP3    H136042   2.662   0.086   6.240
12033TIP3    H236043   2.780   0.149   6.313
12034TIP3   OH236044   5.877   1.785   1.108
12034TIP3    H136045   5.827   1.703   1.118
12034TIP3    H236046   5.968   1.757   1.108
12035TIP3   OH236047   2.505   0.959   5.263
12035TIP3    H136048   2.438   0.953   5.331
12035TIP3    H236049   2.521   1.053   5.253
12036TIP3   OH236050   5.368   7.678   4.485
12036TIP3    H136051   5.370   7.774   4.487
12036TIP3    H236052   5.277   7.656   4.505
12037TIP3   OH236053   5.723   3.818   2.599
12037TIP3    H136054   5.768   3.768   2.532
12037TIP3    H236055   5.698   3.753   2.665
12038TIP3   OH236056   7.639   1.508   5.890
12038TIP3    H136057   7.543   1.508   5.898
12038TIP3    H236058   7.670   1.521   5.980
12039TIP3   OH236059   5.497   2.302   3.549
12039TIP3    H136060   5.437   2.313   3.475
12039TIP3    H236061   5.444   2.323   3.625
12040TIP3   OH236062   5.397   3.755   0.687
12040TIP3    H136063   5.389   3.681   0.748
12040TIP3    H236064   5.394   3.833   0.743
12041TIP3   OH236065   1.751   4.045   2.792
12041TIP3    H136066   1.838   4.007   2.778
12041TIP3    H236067   1.692   3.970   2.789
12042TIP3   OH236068   7.394   1.258   3.631
12042TIP3    H136069   7.438   1.343   3.622
12042TIP3    H236070   7.385   1.246   3.725
12043TIP3   OH236071   5.872   7.696   4.115
12043TIP3    H136072   5.820   7.703   4.034
12043TIP3    H236073   5.879   7.786   4.146
12044TIP3   OH236074   1.501   7.094   6.556
12044TIP3    H136075   1.568   7.151   6.519
12044TIP3    H236076   1.435   7.154   6.591
12045TIP3   OH236077   0.283   6.118   1.886
12045TIP3    H136078   0.190   6.139   1.888
12045TIP3    H236079   0.322   6.177   1.951
12046TIP3   OH236080   8.252   2.773   4.255
12046TIP3    H136081   8.300   2.855   4.254
12046TIP3    H236082   8.295   2.719   4.189
12047TIP3   OH236083   1.139   0.658   1.467
12047TIP3    H136084   1.218   0.608   1.487
12047TIP3    H236085   1.108   0.621   1.383
12048TIP3   OH236086   7.588   0.182   5.328
12048TIP3    H136087   7.544   0.119   5.272
12048TIP3    H236088   7.678   0.185   5.295
12049TIP3   OH236089   0.140   6.898   6.245
12049TIP3    H136090   0.074   6.961   6.271
12049TIP3    H236091   0.090   6.821   6.216
12050TIP3   OH236092   0.174   6.693   4.172
12050TIP3    H136093   0.095   6.671   4.221
12050TIP3    H236094   0.154   6.778   4.132
12051TIP3   OH236095   2.882   4.667   0.959
12051TIP3    H136096   2.857   4.622   1.039
12051TIP3    H236097   2.964   4.711   0.979
12052TIP3   OH236098   1.392   0.678   5.404
12052TIP3    H136099   1.379   0.772   5.408
12052TIP3    H236100   1.483   0.665   5.431
12053TIP3   OH236101   5.559   3.625   4.653
12053TIP3    H136102   5.560   3.531   4.667
12053TIP3    H236103   5.550   3.636   4.558
12054TIP3   OH236104   7.850   4.963   6.736
12054TIP3    H136105   7.892   4.976   6.651
12054TIP3    H236106   7.923   4.964   6.798
12055TIP3   OH236107   7.170   2.305   4.166
12055TIP3    H136108   7.186   2.336   4.077
12055TIP3    H236109   7.253   2.266   4.194
12056TIP3   OH236110   7.128   5.513   2.810
12056TIP3    H136111   7.215   5.548   2.828
12056TIP3    H236112   7.071   5.590   2.811
12057TIP3   OH236113   0.676   0.264   5.437
12057TIP3    H136114   0.700   0.244   5.527
12057TIP3    H236115   0.645   0.354   5.440
12058TIP3   OH236116   6.185   2.580   1.844
12058TIP3    H136117   6.269   2.563   1.800
12058TIP3    H236118   6.195   2.669   1.878
12059TIP3   OH236119   7.234   1.302   0.146
12059TIP3    H136120   7.171   1.309   0.218
12059TIP3    H236121   7.267   1.391   0.135
12060TIP3   OH236122   4.511   3.776   6.488
12060TIP3    H136123   4.495   3.870   6.478
12060TIP3    H236124   4.487   3.739   6.403
12061TIP3   OH236125   7.834   2.334   2.503
12061TIP3    H136126   7.889   2.261   2.475
12061TIP3    H236127   7.761   2.293   2.549
12062TIP3   OH236128   1.420   0.877   3.466
12062TIP3    H136129   1.360   0.944   3.500
12062TIP3    H236130   1.408   0.880   3.371
12063TIP3   OH236131   7.376   4.538   6.006
12063TIP3    H136132   7.405   4.628   5.990
12063TIP3    H236133   7.440   4.484   5.960
12064TIP3   OH236134   1.204   1.675   0.323
12064TIP3    H136135   1.248   1.616   0.384
12064TIP3    H236136   1.221   1.636   0.237
12065TIP3   OH236137   0.823   2.020   6.048
12065TIP3    H136138   0.828   2.114   6.069
12065TIP3    H236139   0.840   2.015   5.954
12066TIP3   OH236140   5.327   7.307   5.763
12066TIP3    H136141   5.336   7.319   5.669
12066TIP3    H236142   5.233   7.306   5.779
12067TIP3   OH236143   5.489   7.108   2.844
12067TIP3    H136144   5.434   7.037   2.811
12067TIP3    H236145   5.441   7.188   2.822
12068TIP3   OH236146   1.686   5.388   3.392
12068TIP3    H136147   1.747   5.315   3.404
12068TIP3    H236148   1.618   5.354   3.334
12069TIP3   OH236149   7.643   0.782   5.972
12069TIP3    H136150   7.640   0.688   5.954
12069TIP3    H236151   7.581   0.821   5.910
12070TIP3   OH236152   7.931   7.836   1.799
12070TIP3    H136153   8.026   7.829   1.806
12070TIP3    H236154   7.905   7.757   1.752
12071TIP3   OH236155   0.322   4.924   3.393
12071TIP3    H136156   0.390   4.988   3.371
12071TIP3    H236157   0.338   4.901   3.484
12072TIP3   OH236158   1.615   7.022   0.957
12072TIP3    H136159   1.571   6.947   0.996
12072TIP3    H236160   1.665   7.061   1.029
12073TIP3   OH236161   5.672   1.782   0.614
12073TIP3    H136162   5.759   1.762   0.648
12073TIP3    H236163   5.685   1.794   0.520
12074TIP3   OH236164   1.710   5.853   1.861
12074TIP3    H136165   1.695   5.762   1.887
12074TIP3    H236166   1.761   5.847   1.780
12075TIP3   OH236167   1.186   4.096   3.319
12075TIP3    H136168   1.257   4.039   3.291
12075TIP3    H236169   1.176   4.159   3.248
12076TIP3   OH236170   4.373   0.995   2.350
12076TIP3    H136171   4.419   1.070   2.388
12076TIP3    H236172   4.289   0.993   2.395
12077TIP3   OH236173   6.814   4.488   5.146
12077TIP3    H136174   6.764   4.490   5.228
12077TIP3    H236175   6.853   4.575   5.139
12078TIP3   OH236176   5.926   3.513   1.212
12078TIP3    H136177   5.944   3.577   1.281
12078TIP3    H236178   5.840   3.477   1.235
12079TIP3   OH236179   0.238   2.510   1.742
12079TIP3    H136180   0.262   2.590   1.695
12079TIP3    H236181   0.292   2.441   1.703
12080TIP3   OH236182   2.177   5.858   2.670
12080TIP3    H136183   2.231   5.821   2.600
12080TIP3    H236184   2.239   5.907   2.725
12081TIP3   OH236185   5.539   6.982   2.328
12081TIP3    H136186   5.553   7.010   2.237
12081TIP3    H236187   5.599   6.908   2.340
12082TIP3   OH236188   0.411   6.316   5.363
12082TIP3    H136189   0.377   6.354   5.282
12082TIP3    H236190   0.462   6.386   5.403
12083TIP3   OH236191   5.599   6.037   5.898
12083TIP3    H136192   5.558   6.102   5.956
12083TIP3    H236193   5.571   5.953   5.932
12084TIP3   OH236194   0.654   7.296   4.649
12084TIP3    H136195   0.568   7.257   4.634
12084TIP3    H236196   0.665   7.296   4.744
12085TIP3   OH236197   7.212   2.589   4.284
12085TIP3    H136198   7.208   2.502   4.244
12085TIP3    H236199   7.162   2.645   4.224
12086TIP3   OH236200   0.833   1.381   1.594
12086TIP3    H136201   0.761   1.323   1.618
12086TIP3    H236202   0.862   1.419   1.677
12087TIP3   OH236203   2.725   1.863   3.024
12087TIP3    H136204   2.745   1.770   3.021
12087TIP3    H236205   2.670   1.873   3.103
12088TIP3   OH236206   4.020   5.252   4.859
12088TIP3    H136207   3.984   5.180   4.808
12088TIP3    H236208   4.008   5.225   4.950
12089TIP3   OH236209   4.369   1.552   1.891
12089TIP3    H136210   4.329   1.639   1.897
12089TIP3    H236211   4.462   1.567   1.904
12090TIP3   OH236212   4.179   2.921   4.147
12090TIP3    H136213   4.086   2.942   4.154
12090TIP3    H236214   4.213   2.983   4.082
12091TIP3   OH236215   0.538   1.581   2.267
12091TIP3    H136216   0.510   1.550   2.181
12091TIP3    H236217   0.458   1.579   2.320
12092TIP3   OH236218   7.207   7.018   5.478
12092TIP3    H136219   7.117   7.025   5.510
12092TIP3    H236220   7.200   6.966   5.397
12093TIP3   OH236221   4.840   3.101   2.489
12093TIP3    H136222   4.894   3.157   2.545
12093TIP3    H236223   4.830   3.151   2.408
12094TIP3   OH236224   6.200   0.642   1.395
12094TIP3    H136225   6.128   0.696   1.427
12094TIP3    H236226   6.161   0.587   1.327
12095TIP3   OH236227   2.515   5.209   3.724
12095TIP3    H136228   2.469   5.230   3.642
12095TIP3    H236229   2.495   5.281   3.783
12096TIP3   OH236230   1.458   2.140   1.691
12096TIP3    H136231   1.550   2.167   1.693
12096TIP3    H236232   1.409   2.222   1.693
12097TIP3   OH236233   3.940   4.823   4.283
12097TIP3    H136234   3.996   4.756   4.243
12097TIP3    H236235   3.984   4.905   4.263
12098TIP3   OH236236   5.826   1.976   3.145
12098TIP3    H136237   5.808   2.050   3.203
12098TIP3    H236238   5.749   1.919   3.154
12099TIP3   OH236239   3.321   0.595   3.404
12099TIP3    H136240   3.252   0.611   3.340
12099TIP3    H236241   3.327   0.676   3.454
12100TIP3   OH236242   0.573   2.680   4.366
12100TIP3    H136243   0.488   2.709   4.335
12100TIP3    H236244   0.553   2.602   4.419
12101TIP3   OH236245   0.501   0.204   6.416
12101TIP3    H136246   0.587   0.162   6.411
12101TIP3    H236247   0.518   0.289   6.456
12102TIP3   OH236248   6.967   2.090   3.636
12102TIP3    H136249   6.927   2.015   3.680
12102TIP3    H236250   6.928   2.167   3.678
12103TIP3   OH236251   3.894   4.087   0.035
12103TIP3    H136252   3.818   4.038   0.065
12103TIP3    H236253   3.945   4.104   0.115
12104TIP3   OH236254   3.654   6.010   1.639
12104TIP3    H136255   3.688   6.097   1.616
12104TIP3    H236256   3.598   6.025   1.715
12105TIP3   OH236257   2.374   7.182   5.991
12105TIP3    H136258   2.338   7.116   6.051
12105TIP3    H236259   2.299   7.210   5.939
12106TIP3   OH236260   4.814   2.308   4.258
12106TIP3    H136261   4.813   2.345   4.170
12106TIP3    H236262   4.735   2.253   4.261
12107TIP3   OH236263   2.304   3.921   4.907
12107TIP3    H136264   2.388   3.913   4.951
12107TIP3    H236265   2.239   3.896   4.973
12108TIP3   OH236266   7.146   4.058   0.571
12108TIP3    H136267   7.203   4.002   0.519
12108TIP3    H236268   7.106   4.117   0.507
12109TIP3   OH236269   4.484   3.066   2.260
12109TIP3    H136270   4.503   2.977   2.290
12109TIP3    H236271   4.395   3.083   2.288
12110TIP3   OH236272   3.023   5.476   2.511
12110TIP3    H136273   3.082   5.505   2.442
12110TIP3    H236274   3.046   5.384   2.525
12111TIP3   OH236275   0.922   1.040   6.552
12111TIP3    H136276   0.957   0.980   6.486
12111TIP3    H236277   0.995   1.058   6.611
12112TIP3   OH236278   5.527   3.297   0.071
12112TIP3    H136279   5.569   3.227   0.020
12112TIP3    H236280   5.434   3.275   0.069
12113TIP3   OH236281   5.614   2.059   1.388
12113TIP3    H136282   5.580   1.978   1.427
12113TIP3    H236283   5.618   2.041   1.294
12114TIP3   OH236284   0.100   6.105   4.303
12114TIP3    H136285   0.063   6.019   4.324
12114TIP3    H236286   0.050   6.166   4.358
12115TIP3   OH236287   7.888   1.794   2.720
12115TIP3    H136288   7.817   1.766   2.662
12115TIP3    H236289   7.844   1.842   2.790
12116TIP3   OH236290   0.754   2.360   2.645
12116TIP3    H136291   0.803   2.281   2.665
12116TIP3    H236292   0.758   2.413   2.724
12117TIP3   OH236293   7.301   3.039   0.296
12117TIP3    H136294   7.283   2.946   0.310
12117TIP3    H236295   7.334   3.070   0.380
12118TIP3   OH236296   6.989   3.230   1.348
12118TIP3    H136297   6.939   3.183   1.415
12118TIP3    H236298   6.975   3.323   1.369
12119TIP3   OH236299   2.144   4.003   2.200
12119TIP3    H136300   2.130   4.052   2.281
12119TIP3    H236301   2.108   4.059   2.132
12120TIP3   OH236302   1.085   6.434   4.925
12120TIP3    H136303   1.104   6.442   4.831
12120TIP3    H236304   1.163   6.394   4.962
12121TIP3   OH236305   7.397   4.753   3.763
12121TIP3    H136306   7.377   4.837   3.806
12121TIP3    H236307   7.438   4.700   3.832
12122TIP3   OH236308   6.944   5.119   2.099
12122TIP3    H136309   7.012   5.068   2.055
12122TIP3    H236310   6.949   5.205   2.057
12123TIP3   OH236311   0.931   5.100   2.582
12123TIP3    H136312   0.942   5.031   2.517
12123TIP3    H236313   0.944   5.181   2.533
12124TIP3   OH236314   6.172   5.303   1.135
12124TIP3    H136315   6.120   5.383   1.132
12124TIP3    H236316   6.118   5.241   1.184
12125TIP3   OH236317   0.586   5.685   3.758
12125TIP3    H136318   0.511   5.626   3.754
12125TIP3    H236319   0.557   5.764   3.712
12126TIP3   OH236320   7.011   6.679   6.463
12126TIP3    H136321   6.985   6.627   6.387
12126TIP3    H236322   7.080   6.737   6.429
12127TIP3   OH236323   3.947   5.249   4.326
12127TIP3    H136324   3.997   5.329   4.335
12127TIP3    H236325   4.008   5.187   4.286
12128TIP3   OH236326   6.087   0.250   3.069
12128TIP3    H136327   6.040   0.331   3.050
12128TIP3    H236328   6.018   0.186   3.087
12129TIP3   OH236329   5.248   6.341   2.724
12129TIP3    H136330   5.278   6.313   2.637
12129TIP3    H236331   5.318   6.396   2.757
12130TIP3   OH236332   2.052   3.256   0.266
12130TIP3    H136333   1.975   3.312   0.261
12130TIP3    H236334   2.019   3.171   0.295
12131TIP3   OH236335   5.191   4.559   2.452
12131TIP3    H136336   5.262   4.498   2.435
12131TIP3    H236337   5.182   4.561   2.547
12132TIP3   OH236338   5.356   4.805   1.476
12132TIP3    H136339   5.378   4.871   1.411
12132TIP3    H236340   5.439   4.780   1.515
12133TIP3   OH236341   1.300   0.708   4.029
12133TIP3    H136342   1.324   0.625   4.068
12133TIP3    H236343   1.256   0.684   3.947
12134TIP3   OH236344   7.252   3.135   3.990
12134TIP3    H136345   7.272   3.049   3.953
12134TIP3    H236346   7.316   3.147   4.060
12135TIP3   OH236347   7.249   2.486   2.630
12135TIP3    H136348   7.268   2.412   2.687
12135TIP3    H236349   7.211   2.447   2.551
12136TIP3   OH236350   2.322   7.033   4.441
12136TIP3    H136351   2.327   7.043   4.346
12136TIP3    H236352   2.399   7.079   4.475
12137TIP3   OH236353   6.359   3.156   3.065
12137TIP3    H136354   6.290   3.206   3.021
12137TIP3    H236355   6.440   3.183   3.021
12138TIP3   OH236356   7.929   6.039   3.362
12138TIP3    H136357   7.918   6.134   3.360
12138TIP3    H236358   8.000   6.023   3.424
12139TIP3   OH236359   4.517   5.004   3.728
12139TIP3    H136360   4.426   4.982   3.711
12139TIP3    H236361   4.534   4.969   3.816
12140TIP3   OH236362   8.203   3.238   0.722
12140TIP3    H136363   8.247   3.155   0.741
12140TIP3    H236364   8.135   3.215   0.658
12141TIP3   OH236365   3.763   2.685   4.199
12141TIP3    H136366   3.676   2.719   4.176
12141TIP3    H236367   3.806   2.670   4.115
12142TIP3   OH236368   8.003   7.505   5.953
12142TIP3    H136369   7.952   7.494   6.033
12142TIP3    H236370   8.094   7.501   5.983
12143TIP3   OH236371   0.406   4.320   3.238
12143TIP3    H136372   0.418   4.363   3.323
12143TIP3    H236373   0.464   4.244   3.242
12144TIP3   OH236374   3.184   1.797   4.511
12144TIP3    H136375   3.147   1.885   4.520
12144TIP3    H236376   3.278   1.810   4.516
12145TIP3   OH236377   4.431   2.190   3.783
12145TIP3    H136378   4.427   2.202   3.878
12145TIP3    H236379   4.393   2.104   3.767
12146TIP3   OH236380   7.547   4.126   3.983
12146TIP3    H136381   7.527   4.078   4.064
12146TIP3    H236382   7.467   4.175   3.964
12147TIP3   OH236383   0.486   3.525   5.779
12147TIP3    H136384   0.555   3.591   5.780
12147TIP3    H236385   0.438   3.542   5.697
12148TIP3   OH236386   7.070   1.877   5.524
12148TIP3    H136387   7.032   1.962   5.501
12148TIP3    H236388   7.149   1.871   5.470
12149TIP3   OH236389   6.884   0.177   1.370
12149TIP3    H136390   6.952   0.234   1.406
12149TIP3    H236391   6.817   0.237   1.337
12150TIP3   OH236392   6.163   7.200   5.403
12150TIP3    H136393   6.240   7.206   5.348
12150TIP3    H236394   6.197   7.207   5.493
12151TIP3   OH236395   6.100   4.344   3.307
12151TIP3    H136396   6.164   4.274   3.293
12151TIP3    H236397   6.025   4.319   3.253
12152TIP3   OH236398   7.665   2.887   5.551
12152TIP3    H136399   7.639   2.927   5.467
12152TIP3    H236400   7.591   2.831   5.574
12153TIP3   OH236401   7.063   5.591   4.377
12153TIP3    H136402   7.108   5.654   4.434
12153TIP3    H236403   7.030   5.524   4.437
12154TIP3   OH236404   7.358   1.854   4.051
12154TIP3    H136405   7.348   1.786   4.117
12154TIP3    H236406   7.365   1.935   4.101
12155TIP3   OH236407   6.074   3.734   1.998
12155TIP3    H136408   6.109   3.697   1.917
12155TIP3    H236409   5.987   3.695   2.007
12156TIP3   OH236410   2.653   5.616   5.982
12156TIP3    H136411   2.742   5.636   6.011
12156TIP3    H236412   2.663   5.582   5.893
12157TIP3   OH236413   0.217   1.399   5.705
12157TIP3    H136414   0.209   1.438   5.792
12157TIP3    H236415   0.311   1.393   5.690
12158TIP3   OH236416   7.349   2.414   3.090
12158TIP3    H136417   7.387   2.468   3.021
12158TIP3    H236418   7.327   2.477   3.160
12159TIP3   OH236419   4.382   1.197   2.701
12159TIP3    H136420   4.323   1.252   2.650
12159TIP3    H236421   4.334   1.115   2.714
12160TIP3   OH236422   2.418   1.738   5.382
12160TIP3    H136423   2.354   1.703   5.321
12160TIP3    H236424   2.473   1.663   5.405
12161TIP3   OH236425   6.343   4.379   5.279
12161TIP3    H136426   6.347   4.455   5.338
12161TIP3    H236427   6.391   4.310   5.325
12162TIP3   OH236428   4.030   7.620   0.837
12162TIP3    H136429   4.047   7.681   0.908
12162TIP3    H236430   3.965   7.559   0.874
12163TIP3   OH236431   1.427   0.799   2.687
12163TIP3    H136432   1.341   0.768   2.658
12163TIP3    H236433   1.489   0.749   2.635
12164TIP3   OH236434   5.954   4.277   3.580
12164TIP3    H136435   6.015   4.316   3.643
12164TIP3    H236436   5.984   4.309   3.495
12165TIP3   OH236437   0.868   0.927   1.758
12165TIP3    H136438   0.912   1.005   1.724
12165TIP3    H236439   0.936   0.860   1.760
12166TIP3   OH236440   6.528   6.466   1.693
12166TIP3    H136441   6.602   6.433   1.641
12166TIP3    H236442   6.566   6.490   1.777
12167TIP3   OH236443   3.589   7.198   1.492
12167TIP3    H136444   3.616   7.270   1.436
12167TIP3    H236445   3.604   7.119   1.440
12168TIP3   OH236446   7.105   6.649   5.047
12168TIP3    H136447   7.025   6.648   4.994
12168TIP3    H236448   7.133   6.558   5.050
12169TIP3   OH236449   7.469   1.099   0.355
12169TIP3    H136450   7.513   1.016   0.337
12169TIP3    H236451   7.446   1.133   0.268
12170TIP3   OH236452   7.797   0.798   6.393
12170TIP3    H136453   7.840   0.876   6.427
12170TIP3    H236454   7.726   0.831   6.339
12171TIP3   OH236455   4.755   7.014   2.955
12171TIP3    H136456   4.746   7.064   2.873
12171TIP3    H236457   4.676   7.036   3.005
12172TIP3   OH236458   3.423   5.655   3.169
12172TIP3    H136459   3.340   5.630   3.127
12172TIP3    H236460   3.420   5.750   3.175
12173TIP3   OH236461   7.987   7.108   0.563
12173TIP3    H136462   8.036   7.167   0.506
12173TIP3    H236463   7.900   7.148   0.570
12174TIP3   OH236464   7.247   2.175   0.908
12174TIP3    H136465   7.308   2.227   0.856
12174TIP3    H236466   7.250   2.088   0.869
12175TIP3   OH236467   6.363   6.322   4.350
12175TIP3    H136468   6.295   6.389   4.342
12175TIP3    H236469   6.320   6.241   4.323
12176TIP3   OH236470   3.666   4.884   0.469
12176TIP3    H136471   3.683   4.791   0.457
12176TIP3    H236472   3.729   4.912   0.535
12177TIP3   OH236473   2.210   3.173   3.306
12177TIP3    H136474   2.223   3.229   3.229
12177TIP3    H236475   2.160   3.227   3.367
12178TIP3   OH236476   7.215   5.741   0.274
12178TIP3    H136477   7.262   5.739   0.357
12178TIP3    H236478   7.174   5.654   0.267
12179TIP3   OH236479   3.888   1.809   3.810
12179TIP3    H136480   3.912   1.900   3.790
12179TIP3    H236481   3.797   1.814   3.839
12180TIP3   OH236482   1.044   4.939   3.663
12180TIP3    H136483   0.984   4.991   3.717
12180TIP3    H236484   1.015   4.849   3.676
12181TIP3   OH236485   1.139   0.610   5.068
12181TIP3    H136486   1.133   0.659   4.986
12181TIP3    H236487   1.058   0.630   5.113
12182TIP3   OH236488   7.474   4.207   1.770
12182TIP3    H136489   7.442   4.229   1.858
12182TIP3    H236490   7.430   4.125   1.749
12183TIP3   OH236491   6.780   3.970   0.951
12183TIP3    H136492   6.707   3.909   0.938
12183TIP3    H236493   6.846   3.941   0.888
12184TIP3   OH236494   7.155   1.687   3.246
12184TIP3    H136495   7.166   1.610   3.190
12184TIP3    H236496   7.120   1.754   3.187
12185TIP3   OH236497   6.621   6.500   1.945
12185TIP3    H136498   6.716   6.500   1.941
12185TIP3    H236499   6.600   6.558   2.019
12186TIP3   OH236500   0.909   2.802   0.264
12186TIP3    H136501   0.840   2.771   0.321
12186TIP3    H236502   0.977   2.735   0.269
12187TIP3   OH236503   3.964   6.788   3.789
12187TIP3    H136504   3.918   6.729   3.730
12187TIP3    H236505   3.997   6.732   3.859
12188TIP3   OH236506   6.873   7.544   2.315
12188TIP3    H136507   6.778   7.557   2.310
12188TIP3    H236508   6.903   7.613   2.374
12189TIP3   OH236509   8.221   2.595   3.650
12189TIP3    H136510   8.169   2.646   3.712
12189TIP3    H236511   8.308   2.636   3.653
12190TIP3   OH236512   7.809   0.996   3.023
12190TIP3    H136513   7.901   0.987   3.049
12190TIP3    H236514   7.807   0.960   2.934
12191TIP3   OH236515   7.995   1.033   3.385
12191TIP3    H136516   8.039   1.012   3.302
12191TIP3    H236517   7.915   1.078   3.358
12192TIP3   OH236518   5.702   5.972   3.744
12192TIP3    H136519   5.760   5.995   3.671
12192TIP3    H236520   5.619   5.949   3.702
12193TIP3   OH236521   3.223   3.573   4.587
12193TIP3    H136522   3.191   3.513   4.654
12193TIP3    H236523   3.204   3.660   4.623
12194TIP3   OH236524   3.037   1.865   3.835
12194TIP3    H136525   3.116   1.815   3.852
12194TIP3    H236526   3.025   1.919   3.914
12195TIP3   OH236527   0.844   7.474   3.119
12195TIP3    H136528   0.835   7.408   3.187
12195TIP3    H236529   0.932   7.458   3.082
12196TIP3   OH236530   1.040   4.916   1.580
12196TIP3    H136531   0.983   4.982   1.621
12196TIP3    H236532   1.119   4.917   1.634
12197TIP3   OH236533   6.279   1.348   0.710
12197TIP3    H136534   6.259   1.261   0.676
12197TIP3    H236535   6.350   1.380   0.655
12198TIP3   OH236536   4.780   5.079   3.331
12198TIP3    H136537   4.837   5.151   3.356
12198TIP3    H236538   4.784   5.018   3.405
12199TIP3   OH236539   0.226   5.655   1.427
12199TIP3    H136540   0.259   5.709   1.498
12199TIP3    H236541   0.303   5.611   1.392
12200TIP3   OH236542   0.318   7.104   6.194
12200TIP3    H136543   0.371   7.087   6.272
12200TIP3    H236544   0.252   7.034   6.195
12201TIP3   OH236545   4.917   2.589   2.462
12201TIP3    H136546   4.850   2.658   2.469
12201TIP3    H236547   4.885   2.532   2.393
12202TIP3   OH236548   8.003   6.783   2.876
12202TIP3    H136549   8.026   6.772   2.784
12202TIP3    H236550   7.947   6.708   2.896
12203TIP3   OH236551   4.169   3.904   4.549
12203TIP3    H136552   4.166   3.943   4.637
12203TIP3    H236553   4.092   3.847   4.546
12204TIP3   OH236554   2.617   7.775   6.318
12204TIP3    H136555   2.633   7.686   6.290
12204TIP3    H236556   2.655   7.780   6.406
12205TIP3   OH236557   6.061   1.771   4.696
12205TIP3    H136558   5.989   1.829   4.721
12205TIP3    H236559   6.099   1.812   4.618
12206TIP3   OH236560   6.506   1.829   5.250
12206TIP3    H136561   6.459   1.763   5.300
12206TIP3    H236562   6.596   1.826   5.282
12207TIP3   OH236563   7.879   0.656   2.929
12207TIP3    H136564   7.796   0.644   2.974
12207TIP3    H236565   7.876   0.592   2.857
12208TIP3   OH236566   5.945   0.543   3.552
12208TIP3    H136567   5.992   0.521   3.471
12208TIP3    H236568   5.900   0.462   3.577
12209TIP3   OH236569   0.490   5.486   3.548
12209TIP3    H136570   0.534   5.408   3.584
12209TIP3    H236571   0.428   5.512   3.616
12210TIP3   OH236572   2.684  -0.031   1.791
12210TIP3    H136573   2.770   0.006   1.809
12210TIP3    H236574   2.677  -0.030   1.695
12211TIP3   OH236575   3.040   0.970   2.018
12211TIP3    H136576   3.084   0.911   2.080
12211TIP3    H236577   3.064   0.937   1.932
12212TIP3   OH236578   0.311   0.323   5.429
12212TIP3    H136579   0.243   0.311   5.362
12212TIP3    H236580   0.350   0.236   5.439
12213TIP3   OH236581   4.346   0.930   5.668
12213TIP3    H136582   4.261   0.974   5.669
12213TIP3    H236583   4.409   1.000   5.686
12214TIP3   OH236584   3.497   0.562   3.166
12214TIP3    H136585   3.470   0.529   3.081
12214TIP3    H236586   3.415   0.583   3.211
12215TIP3   OH236587   7.343   7.298   3.953
12215TIP3    H136588   7.296   7.223   3.989
12215TIP3    H236589   7.434   7.269   3.947
12216TIP3   OH236590   0.147   6.175   1.499
12216TIP3    H136591   0.058   6.200   1.522
12216TIP3    H236592   0.149   6.181   1.403
12217TIP3   OH236593   6.541   6.293   4.762
12217TIP3    H136594   6.467   6.247   4.722
12217TIP3    H236595   6.610   6.292   4.696
12218TIP3   OH236596   5.378   3.236   3.009
12218TIP3    H136597   5.377   3.193   3.094
12218TIP3    H236598   5.417   3.171   2.950
12219TIP3   OH236599   1.637   0.801   0.377
12219TIP3    H136600   1.617   0.742   0.305
12219TIP3    H236601   1.714   0.764   0.419
12220TIP3   OH236602   5.526   7.133   0.095
12220TIP3    H136603   5.468   7.057   0.095
12220TIP3    H236604   5.538   7.154   0.003
12221TIP3   OH236605   1.159   1.081   1.141
12221TIP3    H136606   1.154   1.008   1.203
12221TIP3    H236607   1.253   1.093   1.126
12222TIP3   OH236608   2.094   4.201   2.385
12222TIP3    H136609   2.160   4.267   2.365
12222TIP3    H236610   2.012   4.237   2.351
12223TIP3   OH236611   3.149   0.606   3.178
12223TIP3    H136612   3.147   0.590   3.084
12223TIP3    H236613   3.108   0.529   3.217
12224TIP3   OH236614   0.573   0.981   3.529
12224TIP3    H136615   0.531   1.061   3.560
12224TIP3    H236616   0.557   0.917   3.598
12225TIP3   OH236617   0.497   2.536   3.063
12225TIP3    H136618   0.517   2.525   2.970
12225TIP3    H236619   0.481   2.447   3.095
12226TIP3   OH236620   2.839   2.980   6.549
12226TIP3    H136621   2.861   2.979   6.456
12226TIP3    H236622   2.773   2.912   6.559
12227TIP3   OH236623   7.495   7.330   4.662
12227TIP3    H136624   7.552   7.361   4.592
12227TIP3    H236625   7.450   7.409   4.694
12228TIP3   OH236626   2.396   4.681   5.823
12228TIP3    H136627   2.437   4.608   5.870
12228TIP3    H236628   2.452   4.756   5.842
12229TIP3   OH236629   4.745   4.827   5.242
12229TIP3    H136630   4.697   4.782   5.173
12229TIP3    H236631   4.685   4.829   5.316
12230TIP3   OH236632   5.103   2.526   6.745
12230TIP3    H136633   5.047   2.555   6.673
12230TIP3    H236634   5.054   2.454   6.786
12231TIP3   OH236635   5.102   0.588   0.073
12231TIP3    H136636   5.019   0.543   0.093
12231TIP3    H236637   5.150   0.526   0.018
12232TIP3   OH236638   4.770   0.023   4.703
12232TIP3    H136639   4.727   0.034   4.619
12232TIP3    H236640   4.805  -0.067   4.701
12233TIP3   OH236641   3.434   3.347   0.925
12233TIP3    H136642   3.389   3.301   0.855
12233TIP3    H236643   3.422   3.291   1.002
12234TIP3   OH236644   2.544   6.208   3.160
12234TIP3    H136645   2.474   6.250   3.209
12234TIP3    H236646   2.607   6.278   3.144
12235TIP3   OH236647   7.777   3.678   3.115
12235TIP3    H136648   7.824   3.754   3.082
12235TIP3    H236649   7.761   3.624   3.038
12236TIP3   OH236650   7.138   5.772   3.850
12236TIP3    H136651   7.182   5.836   3.905
12236TIP3    H236652   7.059   5.748   3.898
12237TIP3   OH236653   2.723   0.290   4.929
12237TIP3    H136654   2.669   0.356   4.972
12237TIP3    H236655   2.812   0.310   4.957
12238TIP3   OH236656   2.979   0.678   5.764
12238TIP3    H136657   2.909   0.688   5.700
12238TIP3    H236658   3.057   0.711   5.720
12239TIP3   OH236659   7.125   4.749   6.365
12239TIP3    H136660   7.128   4.810   6.291
12239TIP3    H236661   7.161   4.667   6.331
12240TIP3   OH236662   7.761   1.543   5.077
12240TIP3    H136663   7.808   1.504   5.151
12240TIP3    H236664   7.698   1.476   5.050
12241TIP3   OH236665   3.968   5.487   5.548
12241TIP3    H136666   4.007   5.431   5.615
12241TIP3    H236667   3.995   5.449   5.465
12242TIP3   OH236668   7.459   1.778   6.340
12242TIP3    H136669   7.548   1.800   6.313
12242TIP3    H236670   7.431   1.851   6.395
12243TIP3   OH236671   0.329   0.569   4.356
12243TIP3    H136672   0.345   0.653   4.313
12243TIP3    H236673   0.344   0.504   4.288
12244TIP3   OH236674   7.335   4.540   5.380
12244TIP3    H136675   7.251   4.498   5.397
12244TIP3    H236676   7.321   4.588   5.298
12245TIP3   OH236677   8.305   5.870   5.680
12245TIP3    H136678   8.224   5.835   5.644
12245TIP3    H236679   8.336   5.931   5.613
12246TIP3   OH236680   1.827   5.470   6.572
12246TIP3    H136681   1.870   5.540   6.522
12246TIP3    H236682   1.883   5.459   6.649
12247TIP3   OH236683   4.500   6.059   1.792
12247TIP3    H136684   4.561   6.006   1.740
12247TIP3    H236685   4.495   6.142   1.745
12248TIP3   OH236686   7.664   5.291   3.873
12248TIP3    H136687   7.632   5.374   3.908
12248TIP3    H236688   7.587   5.234   3.874
12249TIP3   OH236689   1.419   0.159   0.017
12249TIP3    H136690   1.430   0.206   0.100
12249TIP3    H236691   1.504   0.116   0.004
12250TIP3   OH236692   5.571   0.499   3.676
12250TIP3    H136693   5.529   0.482   3.760
12250TIP3    H236694   5.587   0.594   3.676
12251TIP3   OH236695   7.831   6.320   4.175
12251TIP3    H136696   7.791   6.399   4.139
12251TIP3    H236697   7.769   6.289   4.240
12252TIP3   OH236698   2.095   3.238   6.523
12252TIP3    H136699   2.113   3.147   6.501
12252TIP3    H236700   2.033   3.234   6.595
12253TIP3   OH236701   8.143   1.873   4.129
12253TIP3    H136702   8.106   1.844   4.213
12253TIP3    H236703   8.237   1.856   4.137
12254TIP3   OH236704   1.351   1.958   5.262
12254TIP3    H136705   1.286   2.005   5.209
12254TIP3    H236706   1.346   1.867   5.232
12255TIP3   OH236707   0.404   7.375   4.052
12255TIP3    H136708   0.492   7.402   4.080
12255TIP3    H236709   0.345   7.432   4.101
12256TIP3   OH236710   7.516   7.279   1.423
12256TIP3    H136711   7.547   7.211   1.363
12256TIP3    H236712   7.596   7.324   1.452
12257TIP3   OH236713   8.223   3.443   0.512
12257TIP3    H136714   8.213   3.366   0.568
12257TIP3    H236715   8.221   3.409   0.423
12258TIP3   OH236716   3.356   3.709   0.485
12258TIP3    H136717   3.329   3.718   0.393
12258TIP3    H236718   3.452   3.711   0.481
12259TIP3   OH236719   4.748   5.888   1.984
12259TIP3    H136720   4.773   5.904   1.893
12259TIP3    H236721   4.653   5.900   1.985
12260TIP3   OH236722   4.819   1.518   3.754
12260TIP3    H136723   4.843   1.558   3.671
12260TIP3    H236724   4.723   1.518   3.755
12261TIP3   OH236725   7.898   2.872   4.939
12261TIP3    H136726   7.806   2.850   4.957
12261TIP3    H236727   7.898   2.906   4.850
12262TIP3   OH236728   1.200   7.847   0.116
12262TIP3    H136729   1.263   7.906   0.076
12262TIP3    H236730   1.247   7.765   0.128
12263TIP3   OH236731   4.714   2.384   3.000
12263TIP3    H136732   4.745   2.411   2.914
12263TIP3    H236733   4.760   2.442   3.061
12264TIP3   OH236734   8.032   2.540   0.880
12264TIP3    H136735   8.070   2.501   0.801
12264TIP3    H236736   8.096   2.606   0.907
12265TIP3   OH236737   7.030   2.623   5.733
12265TIP3    H136738   7.081   2.559   5.684
12265TIP3    H236739   6.991   2.572   5.805
12266TIP3   OH236740   4.485   6.151   6.418
12266TIP3    H136741   4.401   6.196   6.410
12266TIP3    H236742   4.531   6.198   6.488
12267TIP3   OH236743   0.332   1.412   6.207
12267TIP3    H136744   0.307   1.402   6.299
12267TIP3    H236745   0.398   1.481   6.208
12268TIP3   OH236746   3.272   0.607   2.449
12268TIP3    H136747   3.350   0.648   2.411
12268TIP3    H236748   3.274   0.632   2.541
12269TIP3   OH236749   0.568   4.170   0.017
12269TIP3    H136750   0.601   4.095   0.065
12269TIP3    H236751   0.500   4.207   0.073
12270TIP3   OH236752   2.215   5.623   0.093
12270TIP3    H136753   2.150   5.674   0.142
12270TIP3    H236754   2.298   5.644   0.136
12271TIP3   OH236755   2.664   3.906   5.328
12271TIP3    H136756   2.614   3.949   5.398
12271TIP3    H236757   2.642   3.813   5.336
12272TIP3   OH236758   3.926   0.676   3.186
12272TIP3    H136759   3.889   0.633   3.263
12272TIP3    H236760   4.015   0.701   3.213
12273TIP3   OH236761   3.582   5.078   1.067
12273TIP3    H136762   3.588   5.149   1.002
12273TIP3    H236763   3.520   5.111   1.132
12274TIP3   OH236764   0.700   7.134   6.528
12274TIP3    H136765   0.679   7.198   6.459
12274TIP3    H236766   0.760   7.181   6.585
12275TIP3   OH236767   5.841   2.772   5.457
12275TIP3    H136768   5.875   2.802   5.541
12275TIP3    H236769   5.779   2.840   5.431
12276TIP3   OH236770   3.652   6.167   4.577
12276TIP3    H136771   3.639   6.130   4.490
12276TIP3    H236772   3.572   6.146   4.625
12277TIP3   OH236773   6.605   0.933   5.113
12277TIP3    H136774   6.585   0.989   5.037
12277TIP3    H236775   6.609   0.994   5.187
12278TIP3   OH236776   6.789   1.429   4.556
12278TIP3    H136777   6.837   1.508   4.580
12278TIP3    H236778   6.751   1.398   4.638
12279TIP3   OH236779   2.735   6.966   4.473
12279TIP3    H136780   2.776   7.013   4.546
12279TIP3    H236781   2.777   7.003   4.395
12280TIP3   OH236782   0.290   5.998   2.182
12280TIP3    H136783   0.223   6.056   2.147
12280TIP3    H236784   0.278   5.916   2.134
12281TIP3   OH236785   4.282   6.952   0.045
12281TIP3    H136786   4.188   6.969   0.037
12281TIP3    H236787   4.287   6.875   0.102
12282TIP3   OH236788   3.529   1.033   3.691
12282TIP3    H136789   3.604   1.076   3.732
12282TIP3    H236790   3.550   0.939   3.696
12283TIP3   OH236791   6.630   4.020   0.001
12283TIP3    H136792   6.554   4.019  -0.058
12283TIP3    H236793   6.597   3.982   0.082
12284TIP3   OH236794   4.224   6.208   6.429
12284TIP3    H136795   4.164   6.165   6.367
12284TIP3    H236796   4.183   6.195   6.514
12285TIP3   OH236797   0.544   4.874   1.644
12285TIP3    H136798   0.463   4.881   1.593
12285TIP3    H236799   0.611   4.850   1.581
12286TIP3   OH236800   6.065   5.809   5.121
12286TIP3    H136801   6.084   5.715   5.116
12286TIP3    H236802   5.984   5.819   5.072
12287TIP3   OH236803   2.137   7.541   3.163
12287TIP3    H136804   2.099   7.559   3.248
12287TIP3    H236805   2.114   7.617   3.109
12288TIP3   OH236806   1.814   1.543   4.440
12288TIP3    H136807   1.840   1.550   4.348
12288TIP3    H236808   1.737   1.486   4.439
12289TIP3   OH236809   3.890   0.174   0.693
12289TIP3    H136810   3.798   0.160   0.713
12289TIP3    H236811   3.937   0.118   0.755
12290TIP3   OH236812   1.498   6.474   2.329
12290TIP3    H136813   1.452   6.404   2.281
12290TIP3    H236814   1.556   6.513   2.264
12291TIP3   OH236815   0.692   2.037   5.434
12291TIP3    H136816   0.740   1.958   5.457
12291TIP3    H236817   0.600   2.009   5.432
12292TIP3   OH236818   1.674   6.962   4.356
12292TIP3    H136819   1.670   6.902   4.430
12292TIP3    H236820   1.762   6.950   4.320
12293TIP3   OH236821   2.453   1.652   3.382
12293TIP3    H136822   2.544   1.651   3.412
12293TIP3    H236823   2.410   1.584   3.434
12294TIP3   OH236824   2.006   4.332   4.353
12294TIP3    H136825   1.955   4.269   4.302
12294TIP3    H236826   1.941   4.396   4.383
12295TIP3   OH236827   3.005   7.568   2.151
12295TIP3    H136828   3.046   7.521   2.078
12295TIP3    H236829   3.071   7.631   2.179
12296TIP3   OH236830   6.897   3.067   1.140
12296TIP3    H136831   6.952   2.988   1.143
12296TIP3    H236832   6.923   3.116   1.218
12297TIP3   OH236833   0.566   4.412   1.814
12297TIP3    H136834   0.545   4.327   1.776
12297TIP3    H236835   0.580   4.395   1.907
12298TIP3   OH236836   0.284   5.726   2.364
12298TIP3    H136837   0.224   5.690   2.429
12298TIP3    H236838   0.339   5.786   2.414
12299TIP3   OH236839   0.060   0.786   0.548
12299TIP3    H136840   0.135   0.729   0.534
12299TIP3    H236841   0.090   0.874   0.525
12300TIP3   OH236842   1.695   5.490   6.248
12300TIP3    H136843   1.687   5.562   6.185
12300TIP3    H236844   1.789   5.487   6.268
12301TIP3   OH236845   2.453   2.184   6.673
12301TIP3    H136846   2.383   2.156   6.733
12301TIP3    H236847   2.513   2.109   6.670
12302TIP3   OH236848   7.883   3.415   3.791
12302TIP3    H136849   7.902   3.490   3.734
12302TIP3    H236850   7.850   3.348   3.731
12303TIP3   OH236851   5.987   6.155   3.255
12303TIP3    H136852   5.997   6.137   3.349
12303TIP3    H236853   5.902   6.197   3.248
12304TIP3   OH236854   3.461   5.179   1.791
12304TIP3    H136855   3.535   5.148   1.738
12304TIP3    H236856   3.384   5.144   1.745
12305TIP3   OH236857   1.195   4.825   6.186
12305TIP3    H136858   1.102   4.803   6.180
12305TIP3    H236859   1.236   4.745   6.218
12306TIP3   OH236860   7.110   3.472   2.454
12306TIP3    H136861   7.131   3.503   2.542
12306TIP3    H236862   7.090   3.379   2.464
12307TIP3   OH236863   5.614   7.238   5.565
12307TIP3    H136864   5.643   7.168   5.506
12307TIP3    H236865   5.587   7.308   5.507
12308TIP3   OH236866   6.022   3.328   5.450
12308TIP3    H136867   6.099   3.277   5.424
12308TIP3    H236868   6.044   3.419   5.430
12309TIP3   OH236869   1.413   3.737   5.248
12309TIP3    H136870   1.319   3.735   5.233
12309TIP3    H236871   1.435   3.830   5.256
12310TIP3   OH236872   1.296   4.619   2.729
12310TIP3    H136873   1.303   4.548   2.666
12310TIP3    H236874   1.216   4.600   2.779
12311TIP3   OH236875   3.572   0.896   0.245
12311TIP3    H136876   3.635   0.879   0.315
12311TIP3    H236877   3.626   0.905   0.166
12312TIP3   OH236878   2.284   6.265   4.831
12312TIP3    H136879   2.354   6.265   4.896
12312TIP3    H236880   2.242   6.350   4.840
12313TIP3   OH236881   1.026   0.573   6.309
12313TIP3    H136882   1.001   0.654   6.266
12313TIP3    H236883   1.007   0.505   6.244
12314TIP3   OH236884   0.682   3.806   2.649
12314TIP3    H136885   0.632   3.730   2.676
12314TIP3    H236886   0.622   3.880   2.661
12315TIP3   OH236887   1.036   5.501   5.870
12315TIP3    H136888   1.063   5.591   5.887
12315TIP3    H236889   1.014   5.466   5.956
12316TIP3   OH236890   1.315   0.742   1.918
12316TIP3    H136891   1.385   0.751   1.983
12316TIP3    H236892   1.253   0.812   1.939
12317TIP3   OH236893   2.454   5.669   0.213
12317TIP3    H136894   2.513   5.596   0.194
12317TIP3    H236895   2.513   5.741   0.235
12318TIP3   OH236896   5.096   4.621   4.117
12318TIP3    H136897   5.109   4.621   4.022
12318TIP3    H236898   5.151   4.692   4.148
12319TIP3   OH236899   1.423   4.658   2.301
12319TIP3    H136900   1.361   4.720   2.261
12319TIP3    H236901   1.377   4.575   2.302
12320TIP3   OH236902   0.891   5.095   4.501
12320TIP3    H136903   0.862   5.025   4.442
12320TIP3    H236904   0.824   5.163   4.492
12321TIP3   OH236905   6.425   3.382   1.298
12321TIP3    H136906   6.471   3.377   1.215
12321TIP3    H236907   6.350   3.324   1.287
12322TIP3   OH236908   7.099   2.845   1.066
12322TIP3    H136909   7.082   2.790   1.143
12322TIP3    H236910   7.194   2.858   1.066
12323TIP3   OH236911   5.671   7.236   2.108
12323TIP3    H136912   5.641   7.264   2.194
12323TIP3    H236913   5.667   7.315   2.054
12324TIP3   OH236914   1.988   3.013   3.346
12324TIP3    H136915   1.921   3.059   3.398
12324TIP3    H236916   2.071   3.049   3.377
12325TIP3   OH236917   0.358   5.284   2.130
12325TIP3    H136918   0.295   5.244   2.069
12325TIP3    H236919   0.307   5.352   2.174
12326TIP3   OH236920   2.370   3.877   6.263
12326TIP3    H136921   2.334   3.802   6.310
12326TIP3    H236922   2.322   3.952   6.297
12327TIP3   OH236923   0.383   7.700   6.560
12327TIP3    H136924   0.475   7.727   6.564
12327TIP3    H236925   0.357   7.717   6.469
12328TIP3   OH236926   1.960   2.537   1.434
12328TIP3    H136927   2.006   2.469   1.483
12328TIP3    H236928   1.908   2.489   1.369
12329TIP3   OH236929   5.433   2.300   5.617
12329TIP3    H136930   5.391   2.227   5.572
12329TIP3    H236931   5.527   2.287   5.602
12330TIP3   OH236932   0.615   5.980   4.134
12330TIP3    H136933   0.631   6.021   4.219
12330TIP3    H236934   0.570   5.897   4.155
12331TIP3   OH236935   0.324   1.052   3.681
12331TIP3    H136936   0.256   1.107   3.644
12331TIP3    H236937   0.371   1.109   3.742
12332TIP3   OH236938   4.674   7.621   4.883
12332TIP3    H136939   4.761   7.587   4.862
12332TIP3    H236940   4.621   7.543   4.898
12333TIP3   OH236941   4.334   0.032   1.531
12333TIP3    H136942   4.275   0.098   1.570
12333TIP3    H236943   4.364   0.072   1.449
12334TIP3   OH236944   2.815   4.362   4.744
12334TIP3    H136945   2.725   4.376   4.774
12334TIP3    H236946   2.827   4.426   4.674
12335TIP3   OH236947   3.575   3.910   0.730
12335TIP3    H136948   3.510   3.843   0.753
12335TIP3    H236949   3.656   3.860   0.715
12336TIP3   OH236950   7.095   6.054   5.764
12336TIP3    H136951   7.073   6.047   5.857
12336TIP3    H236952   7.158   5.983   5.749
12337TIP3   OH236953   8.194   7.776   1.522
12337TIP3    H136954   8.137   7.745   1.453
12337TIP3    H236955   8.227   7.860   1.491
12338TIP3   OH236956   0.072   7.758   5.603
12338TIP3    H136957   0.120   7.742   5.522
12338TIP3    H236958   0.009   7.827   5.580
12339TIP3   OH236959   7.810   0.180   2.865
12339TIP3    H136960   7.845   0.243   2.928
12339TIP3    H236961   7.716   0.181   2.879
12340TIP3   OH236962   5.958   2.602   6.506
12340TIP3    H136963   6.023   2.597   6.436
12340TIP3    H236964   6.002   2.564   6.582
12341TIP3   OH236965   0.792   0.465   4.872
12341TIP3    H136966   0.826   0.526   4.807
12341TIP3    H236967   0.754   0.520   4.940
12342TIP3   OH236968   1.831   7.614   1.099
12342TIP3    H136969   1.798   7.632   1.187
12342TIP3    H236970   1.811   7.694   1.049
12343TIP3   OH236971   4.087   0.474   2.358
12343TIP3    H136972   4.116   0.524   2.282
12343TIP3    H236973   4.010   0.522   2.389
12344TIP3   OH236974   4.974   4.910   5.508
12344TIP3    H136975   4.961   4.819   5.533
12344TIP3    H236976   5.034   4.907   5.434
12345TIP3   OH236977   1.751   5.820   3.939
12345TIP3    H136978   1.748   5.747   4.001
12345TIP3    H236979   1.844   5.837   3.926
12346TIP3   OH236980   2.684   7.419   1.486
12346TIP3    H136981   2.643   7.342   1.526
12346TIP3    H236982   2.769   7.388   1.456
12347TIP3   OH236983   3.587   0.601   4.004
12347TIP3    H136984   3.541   0.527   3.965
12347TIP3    H236985   3.526   0.675   3.992
12348TIP3   OH236986   0.259   4.658   3.079
12348TIP3    H136987   0.191   4.612   3.030
12348TIP3    H236988   0.238   4.641   3.171
12349TIP3   OH236989   0.267   7.055   3.115
12349TIP3    H136990   0.195   7.007   3.157
12349TIP3    H236991   0.294   7.119   3.181
12350TIP3   OH236992   2.737   0.820   6.503
12350TIP3    H136993   2.777   0.826   6.417
12350TIP3    H236994   2.702   0.908   6.519
12351TIP3   OH236995   3.521   2.344   3.930
12351TIP3    H136996   3.607   2.317   3.897
12351TIP3    H236997   3.460   2.282   3.890
12352TIP3   OH236998   1.753   5.136   1.856
12352TIP3    H136999   1.781   5.130   1.765
12352TIP3    H237000   1.815   5.082   1.904
12353TIP3   OH237001   3.896   0.464   3.437
12353TIP3    H137002   3.906   0.414   3.518
12353TIP3    H237003   3.807   0.446   3.408
12354TIP3   OH237004   2.822   1.167   0.499
12354TIP3    H137005   2.762   1.152   0.426
12354TIP3    H237006   2.880   1.236   0.468
12355TIP3   OH237007   1.329   6.183   4.035
12355TIP3    H137008   1.318   6.097   3.995
12355TIP3    H237009   1.248   6.197   4.086
12356TIP3   OH237010   2.420   7.329   4.688
12356TIP3    H137011   2.344   7.271   4.697
12356TIP3    H237012   2.391   7.399   4.630
12357TIP3   OH237013   1.088   4.939   3.069
12357TIP3    H137014   1.129   4.911   2.987
12357TIP3    H237015   1.052   5.025   3.049
12358TIP3   OH237016   2.284   4.501   3.882
12358TIP3    H137017   2.270   4.465   3.794
12358TIP3    H237018   2.214   4.463   3.935
12359TIP3   OH237019   4.913   2.491   6.263
12359TIP3    H137020   4.834   2.544   6.260
12359TIP3    H237021   4.941   2.483   6.172
12360TIP3   OH237022   6.456   4.577   5.441
12360TIP3    H137023   6.437   4.599   5.532
12360TIP3    H237024   6.486   4.659   5.402
12361TIP3   OH237025   4.320   4.910   0.869
12361TIP3    H137026   4.368   4.978   0.916
12361TIP3    H237027   4.365   4.828   0.891
12362TIP3   OH237028   7.831   2.104   3.436
12362TIP3    H137029   7.882   2.114   3.517
12362TIP3    H237030   7.893   2.066   3.374
12363TIP3   OH237031   8.161   5.409   6.748
12363TIP3    H137032   8.236   5.351   6.764
12363TIP3    H237033   8.146   5.404   6.654
12364TIP3   OH237034   1.692   0.860   5.739
12364TIP3    H137035   1.721   0.905   5.819
12364TIP3    H237036   1.758   0.792   5.725
12365TIP3   OH237037   0.365   3.473   6.544
12365TIP3    H137038   0.302   3.523   6.596
12365TIP3    H237039   0.443   3.467   6.600
12366TIP3   OH237040   6.504   7.023   5.540
12366TIP3    H137041   6.573   7.009   5.605
12366TIP3    H237042   6.515   6.952   5.477
12367TIP3   OH237043   3.649   2.262   6.719
12367TIP3    H137044   3.732   2.254   6.672
12367TIP3    H237045   3.601   2.329   6.671
12368TIP3   OH237046   0.492   6.414   1.763
12368TIP3    H137047   0.481   6.443   1.854
12368TIP3    H237048   0.584   6.433   1.743
12369TIP3   OH237049   4.026   1.345   6.319
12369TIP3    H137050   4.052   1.253   6.317
12369TIP3    H237051   3.975   1.354   6.399
12370TIP3   OH237052   4.143   1.012   3.321
12370TIP3    H137053   4.161   1.094   3.366
12370TIP3    H237054   4.067   0.976   3.366
12371TIP3   OH237055   1.546   1.712   6.333
12371TIP3    H137056   1.633   1.716   6.374
12371TIP3    H237057   1.525   1.619   6.331
12372TIP3   OH237058   2.531   0.590   1.809
12372TIP3    H137059   2.485   0.511   1.780
12372TIP3    H237060   2.479   0.662   1.772
12373TIP3   OH237061   3.023   6.544   2.497
12373TIP3    H137062   3.078   6.619   2.520
12373TIP3    H237063   2.933   6.574   2.509
12374TIP3   OH237064   3.876   7.036   2.192
12374TIP3    H137065   3.872   6.992   2.277
12374TIP3    H237066   3.788   7.025   2.156
12375TIP3   OH237067   1.254   6.559   6.615
12375TIP3    H137068   1.224   6.569   6.525
12375TIP3    H237069   1.291   6.471   6.619
12376TIP3   OH237070   7.759   4.409   0.209
12376TIP3    H137071   7.683   4.384   0.157
12376TIP3    H237072   7.824   4.436   0.145
12377TIP3   OH237073   1.665   5.575   0.782
12377TIP3    H137074   1.670   5.481   0.765
12377TIP3    H237075   1.688   5.584   0.875
12378TIP3   OH237076   0.771   4.621   6.322
12378TIP3    H137077   0.686   4.663   6.306
12378TIP3    H237078   0.809   4.672   6.394
12379TIP3   OH237079   2.370   3.093   6.645
12379TIP3    H137080   2.435   3.075   6.712
12379TIP3    H237081   2.363   3.188   6.643
12380TIP3   OH237082   2.775   4.396   3.660
12380TIP3    H137083   2.721   4.337   3.606
12380TIP3    H237084   2.738   4.483   3.646
12381TIP3   OH237085   1.197   1.357   0.301
12381TIP3    H137086   1.195   1.346   0.396
12381TIP3    H237087   1.261   1.292   0.271
12382TIP3   OH237088   4.174   6.986   3.025
12382TIP3    H137089   4.118   7.055   3.062
12382TIP3    H237090   4.113   6.921   2.992
12383TIP3   OH237091   5.853   1.368   3.508
12383TIP3    H137092   5.819   1.287   3.548
12383TIP3    H237093   5.798   1.437   3.544
12384TIP3   OH237094   0.959   0.194   1.263
12384TIP3    H137095   0.908   0.117   1.287
12384TIP3    H237096   1.047   0.176   1.297
12385TIP3   OH237097   7.180   5.595   2.348
12385TIP3    H137098   7.184   5.527   2.416
12385TIP3    H237099   7.157   5.675   2.396
12386TIP3   OH237100   6.164   5.204   0.887
12386TIP3    H137101   6.161   5.111   0.910
12386TIP3    H237102   6.161   5.249   0.971
12387TIP3   OH237103   0.613   2.345   5.090
12387TIP3    H137104   0.709   2.347   5.093
12387TIP3    H237105   0.587   2.313   5.176
12388TIP3   OH237106   7.442   0.337   0.306
12388TIP3    H137107   7.512   0.327   0.371
12388TIP3    H237108   7.470   0.412   0.253
12389TIP3   OH237109   2.856   7.800   4.791
12389TIP3    H137110   2.912   7.733   4.831
12389TIP3    H237111   2.917   7.863   4.753
12390TIP3   OH237112   0.843   3.846   1.941
12390TIP3    H137113   0.856   3.932   1.900
12390TIP3    H237114   0.918   3.794   1.910
12391TIP3   OH237115   6.290   0.905   1.828
12391TIP3    H137116   6.263   0.825   1.872
12391TIP3    H237117   6.333   0.957   1.897
12392TIP3   OH237118   7.992   0.299   0.840
12392TIP3    H137119   8.020   0.248   0.764
12392TIP3    H237120   8.061   0.365   0.850
12393TIP3   OH237121   4.013   4.398   2.532
12393TIP3    H137122   4.057   4.426   2.451
12393TIP3    H237123   4.040   4.463   2.597
12394TIP3   OH237124   5.377   5.960   1.945
12394TIP3    H137125   5.316   5.975   1.873
12394TIP3    H237126   5.344   6.014   2.017
12395TIP3   OH237127   7.232   4.113   4.258
12395TIP3    H137128   7.323   4.090   4.239
12395TIP3    H237129   7.223   4.096   4.352
12396TIP3   OH237130   8.156   0.207   2.667
12396TIP3    H137131   8.108   0.151   2.728
12396TIP3    H237132   8.235   0.233   2.714
12397TIP3   OH237133   8.224   2.342   2.589
12397TIP3    H137134   8.205   2.427   2.630
12397TIP3    H237135   8.206   2.278   2.659
12398TIP3   OH237136   5.554   7.350   0.771
12398TIP3    H137137   5.587   7.397   0.695
12398TIP3    H237138   5.509   7.416   0.824
12399TIP3   OH237139   3.525   7.443   2.884
12399TIP3    H137140   3.445   7.394   2.902
12399TIP3    H237141   3.594   7.392   2.927
12400TIP3   OH237142   2.819   7.343   6.047
12400TIP3    H137143   2.895   7.317   6.099
12400TIP3    H237144   2.752   7.279   6.070
12401TIP3   OH237145   2.578   6.043   1.200
12401TIP3    H137146   2.660   5.993   1.192
12401TIP3    H237147   2.516   5.997   1.144
12402TIP3   OH237148   4.538   4.769   6.274
12402TIP3    H137149   4.616   4.736   6.318
12402TIP3    H237150   4.476   4.696   6.278
12403TIP3   OH237151   5.548   5.250   1.855
12403TIP3    H137152   5.629   5.299   1.866
12403TIP3    H237153   5.488   5.288   1.920
12404TIP3   OH237154   2.285   3.457   0.633
12404TIP3    H137155   2.346   3.448   0.559
12404TIP3    H237156   2.216   3.393   0.615
12405TIP3   OH237157   3.906   2.385   4.021
12405TIP3    H137158   3.994   2.353   4.000
12405TIP3    H237159   3.865   2.400   3.936
12406TIP3   OH237160   8.105   2.191   5.090
12406TIP3    H137161   8.011   2.188   5.105
12406TIP3    H237162   8.129   2.100   5.068
12407TIP3   OH237163   1.928   0.514   0.938
12407TIP3    H137164   1.948   0.420   0.934
12407TIP3    H237165   1.911   0.539   0.847
12408TIP3   OH237166   3.918   0.498   2.646
12408TIP3    H137167   3.879   0.577   2.684
12408TIP3    H237168   4.013   0.513   2.651
12409TIP3   OH237169   2.241   7.739   4.432
12409TIP3    H137170   2.286   7.697   4.505
12409TIP3    H237171   2.236   7.671   4.364
12410TIP3   OH237172   7.620   6.760   0.814
12410TIP3    H137173   7.657   6.820   0.879
12410TIP3    H237174   7.650   6.794   0.730
12411TIP3   OH237175   1.164   4.937   5.260
12411TIP3    H137176   1.108   4.879   5.312
12411TIP3    H237177   1.200   4.999   5.323
12412TIP3   OH237178   4.955   3.858   1.195
12412TIP3    H137179   4.872   3.823   1.228
12412TIP3    H237180   4.950   3.845   1.100
12413TIP3   OH237181   6.403   5.114   1.117
12413TIP3    H137182   6.438   5.202   1.132
12413TIP3    H237183   6.315   5.117   1.155
12414TIP3   OH237184   4.119   4.713   0.230
12414TIP3    H137185   4.160   4.677   0.308
12414TIP3    H237186   4.030   4.735   0.257
12415TIP3   OH237187   3.319   1.146   1.024
12415TIP3    H137188   3.307   1.052   1.040
12415TIP3    H237189   3.293   1.158   0.933
12416TIP3   OH237190   0.432   3.019   3.830
12416TIP3    H137191   0.355   2.965   3.808
12416TIP3    H237192   0.480   3.026   3.748
12417TIP3   OH237193   3.955   3.721   5.180
12417TIP3    H137194   3.943   3.627   5.184
12417TIP3    H237195   3.866   3.757   5.182
12418TIP3   OH237196   5.220   1.395   1.847
12418TIP3    H137197   5.218   1.405   1.942
12418TIP3    H237198   5.314   1.398   1.825
12419TIP3   OH237199   4.986   4.890   6.741
12419TIP3    H137200   5.044   4.920   6.671
12419TIP3    H237201   4.951   4.970   6.779
12420TIP3   OH237202   5.506   6.764   0.128
12420TIP3    H137203   5.428   6.715   0.102
12420TIP3    H237204   5.478   6.817   0.202
12421TIP3   OH237205   0.153   2.760   2.840
12421TIP3    H137206   0.085   2.695   2.821
12421TIP3    H237207   0.222   2.710   2.885
12422TIP3   OH237208   6.865   6.962   6.761
12422TIP3    H137209   6.851   7.053   6.736
12422TIP3    H237210   6.792   6.914   6.721
12423TIP3   OH237211   3.317   3.559   2.351
12423TIP3    H137212   3.313   3.654   2.360
12423TIP3    H237213   3.411   3.539   2.345
12424TIP3   OH237214   0.554   6.719   1.796
12424TIP3    H137215   0.505   6.683   1.870
12424TIP3    H237216   0.628   6.764   1.837
12425TIP3   OH237217   6.832   2.265   3.787
12425TIP3    H137218   6.757   2.243   3.842
12425TIP3    H237219   6.908   2.248   3.843
12426TIP3   OH237220   0.963   0.347   2.749
12426TIP3    H137221   0.882   0.295   2.750
12426TIP3    H237222   0.948   0.416   2.813
12427TIP3   OH237223   7.773   7.282   1.552
12427TIP3    H137224   7.745   7.356   1.606
12427TIP3    H237225   7.852   7.250   1.594
12428TIP3   OH237226   3.893   5.629   1.290
12428TIP3    H137227   3.965   5.677   1.331
12428TIP3    H237228   3.903   5.539   1.322
12429TIP3   OH237229   7.267   0.898   2.701
12429TIP3    H137230   7.200   0.847   2.656
12429TIP3    H237231   7.318   0.834   2.749
12430TIP3   OH237232   2.705   1.141   1.996
12430TIP3    H137233   2.796   1.119   2.018
12430TIP3    H237234   2.663   1.158   2.080
12431TIP3   OH237235   3.023   0.931   2.354
12431TIP3    H137236   2.930   0.939   2.336
12431TIP3    H237237   3.055   1.022   2.358
12432TIP3   OH237238   6.365   2.965   2.615
12432TIP3    H137239   6.321   2.929   2.538
12432TIP3    H237240   6.442   3.011   2.579
12433TIP3   OH237241   5.592   7.104   0.644
12433TIP3    H137242   5.580   7.193   0.677
12433TIP3    H237243   5.684   7.084   0.663
12434TIP3   OH237244   4.291   5.367   6.810
12434TIP3    H137245   4.248   5.453   6.806
12434TIP3    H237246   4.242   5.313   6.749
12435TIP3   OH237247   1.440   7.688   0.080
12435TIP3    H137248   1.457   7.783   0.081
12435TIP3    H237249   1.441   7.662   0.172
12436TIP3   OH237250   3.114   1.398   4.885
12436TIP3    H137251   3.147   1.461   4.821
12436TIP3    H237252   3.165   1.415   4.964
12437TIP3   OH237253   1.878   6.342   4.021
12437TIP3    H137254   1.969   6.312   4.022
12437TIP3    H237255   1.882   6.434   3.994
12438TIP3   OH237256   2.123   3.421   1.202
12438TIP3    H137257   2.085   3.333   1.193
12438TIP3    H237258   2.167   3.419   1.287
12439TIP3   OH237259   2.556   2.403   1.151
12439TIP3    H137260   2.631   2.345   1.138
12439TIP3    H237261   2.484   2.345   1.175
12440TIP3   OH237262   6.018   7.312   5.794
12440TIP3    H137263   6.067   7.248   5.846
12440TIP3    H237264   6.081   7.346   5.731
12441TIP3   OH237265   0.665   4.894   3.720
12441TIP3    H137266   0.575   4.876   3.692
12441TIP3    H237267   0.719   4.862   3.648
12442TIP3   OH237268   3.988   5.452   0.551
12442TIP3    H137269   3.995   5.379   0.490
12442TIP3    H237270   4.077   5.463   0.585
12443TIP3   OH237271   4.567   0.141   4.403
12443TIP3    H137272   4.501   0.183   4.348
12443TIP3    H237273   4.581   0.055   4.362
12444TIP3   OH237274   5.798   4.030   3.614
12444TIP3    H137275   5.885   3.990   3.613
12444TIP3    H237276   5.815   4.125   3.609
12445TIP3   OH237277   6.188   7.737   5.101
12445TIP3    H137278   6.209   7.808   5.162
12445TIP3    H237279   6.107   7.765   5.059
12446TIP3   OH237280   6.469   4.168   5.439
12446TIP3    H137281   6.532   4.136   5.504
12446TIP3    H237282   6.384   4.163   5.483
12447TIP3   OH237283   6.317   5.049   2.480
12447TIP3    H137284   6.357   4.967   2.512
12447TIP3    H237285   6.245   5.020   2.425
12448TIP3   OH237286   4.291   2.079   1.774
12448TIP3    H137287   4.268   2.116   1.689
12448TIP3    H237288   4.386   2.088   1.779
12449TIP3   OH237289   1.215   7.102   6.213
12449TIP3    H137290   1.278   7.038   6.247
12449TIP3    H237291   1.269   7.170   6.174
12450TIP3   OH237292   6.233   3.195   3.310
12450TIP3    H137293   6.255   3.156   3.226
12450TIP3    H237294   6.202   3.122   3.364
12451TIP3   OH237295   2.785   4.969   0.235
12451TIP3    H137296   2.860   4.930   0.279
12451TIP3    H237297   2.790   4.937   0.145
12452TIP3   OH237298   3.773   7.337   3.406
12452TIP3    H137299   3.682   7.349   3.433
12452TIP3    H237300   3.819   7.312   3.486
12453TIP3   OH237301   0.440   5.938   2.390
12453TIP3    H137302   0.445   6.031   2.414
12453TIP3    H237303   0.408   5.939   2.300
12454TIP3   OH237304   2.893   3.200   4.226
12454TIP3    H137305   2.901   3.132   4.292
12454TIP3    H237306   2.968   3.187   4.168
12455TIP3   OH237307   2.528   5.436   4.399
12455TIP3    H137308   2.462   5.371   4.424
12455TIP3    H237309   2.603   5.417   4.455
12456TIP3   OH237310   1.397   1.663   2.548
12456TIP3    H137311   1.376   1.736   2.607
12456TIP3    H237312   1.325   1.661   2.485
12457TIP3   OH237313   4.962   7.717   0.112
12457TIP3    H137314   5.041   7.741   0.159
12457TIP3    H237315   4.912   7.799   0.106
12458TIP3   OH237316   1.422   7.802   3.194
12458TIP3    H137317   1.331   7.773   3.203
12458TIP3    H237318   1.468   7.762   3.268
12459TIP3   OH237319   6.902   0.608   1.480
12459TIP3    H137320   6.914   0.588   1.387
12459TIP3    H237321   6.855   0.533   1.515
12460TIP3   OH237322   7.909   1.012   6.512
12460TIP3    H137323   7.850   1.081   6.482
12460TIP3    H237324   7.922   1.031   6.605
12461TIP3   OH237325   6.732   2.373   6.734
12461TIP3    H137326   6.673   2.445   6.712
12461TIP3    H237327   6.776   2.401   6.814
12462TIP3   OH237328   1.829   3.850   4.535
12462TIP3    H137329   1.820   3.944   4.519
12462TIP3    H237330   1.912   3.841   4.582
12463TIP3   OH237331   1.713   0.666   1.744
12463TIP3    H137332   1.768   0.682   1.820
12463TIP3    H237333   1.640   0.613   1.776
12464TIP3   OH237334   0.709   1.794   2.216
12464TIP3    H137335   0.668   1.714   2.250
12464TIP3    H237336   0.766   1.763   2.146
12465TIP3   OH237337   4.198   0.650   6.003
12465TIP3    H137338   4.275   0.661   5.947
12465TIP3    H237339   4.127   0.633   5.942
12466TIP3   OH237340   4.784   3.915   3.553
12466TIP3    H137341   4.731   3.838   3.572
12466TIP3    H237342   4.792   3.960   3.638
12467TIP3   OH237343   6.580   4.921   2.803
12467TIP3    H137344   6.558   4.899   2.712
12467TIP3    H237345   6.552   5.012   2.813
12468TIP3   OH237346   1.950   6.888   4.305
12468TIP3    H137347   1.985   6.976   4.287
12468TIP3    H237348   2.027   6.835   4.325
12469TIP3   OH237349   6.057   5.948   1.249
12469TIP3    H137350   6.087   5.860   1.224
12469TIP3    H237351   6.029   5.938   1.341
12470TIP3   OH237352   6.788   2.786   5.096
12470TIP3    H137353   6.866   2.734   5.077
12470TIP3    H237354   6.741   2.789   5.012
12471TIP3   OH237355   8.272   5.234   6.161
12471TIP3    H137356   8.314   5.151   6.140
12471TIP3    H237357   8.229   5.219   6.245
12472TIP3   OH237358   7.922   1.316   5.325
12472TIP3    H137359   7.935   1.229   5.287
12472TIP3    H237360   7.827   1.323   5.335
12473TIP3   OH237361   3.768   4.028   1.629
12473TIP3    H137362   3.733   3.978   1.555
12473TIP3    H237363   3.814   3.963   1.682
12474TIP3   OH237364   4.933   6.372   3.653
12474TIP3    H137365   4.962   6.457   3.618
12474TIP3    H237366   4.941   6.312   3.580
12475TIP3   OH237367   1.487   5.531   6.014
12475TIP3    H137368   1.509   5.624   6.028
12475TIP3    H237369   1.453   5.502   6.099
12476TIP3   OH237370   0.880   0.925   5.778
12476TIP3    H137371   0.967   0.907   5.813
12476TIP3    H237372   0.831   0.962   5.851
12477TIP3   OH237373   4.736   1.890   4.642
12477TIP3    H137374   4.731   1.801   4.679
12477TIP3    H237375   4.733   1.877   4.547
12478TIP3   OH237376   6.119   2.008   0.202
12478TIP3    H137377   6.052   1.963   0.151
12478TIP3    H237378   6.174   2.051   0.135
12479TIP3   OH237379   0.468   1.442   2.044
12479TIP3    H137380   0.378   1.447   2.075
12479TIP3    H237381   0.505   1.366   2.088
12480TIP3   OH237382   4.412   1.349   3.240
12480TIP3    H137383   4.359   1.316   3.168
12480TIP3    H237384   4.462   1.421   3.203
12481TIP3   OH237385   2.361   0.638   0.540
12481TIP3    H137386   2.366   0.717   0.594
12481TIP3    H237387   2.401   0.663   0.457
12482TIP3   OH237388   2.458   1.862   5.649
12482TIP3    H137389   2.402   1.838   5.575
12482TIP3    H237390   2.427   1.807   5.721
12483TIP3   OH237391   1.605   6.409   5.535
12483TIP3    H137392   1.569   6.487   5.493
12483TIP3    H237393   1.600   6.428   5.628
12484TIP3   OH237394   7.110   4.007   2.437
12484TIP3    H137395   7.052   4.042   2.369
12484TIP3    H237396   7.182   4.070   2.441
12485TIP3   OH237397   7.546   1.423   0.007
12485TIP3    H137398   7.605   1.448  -0.064
12485TIP3    H237399   7.604   1.401   0.079
12486TIP3   OH237400   2.847   0.595   2.850
12486TIP3    H137401   2.870   0.621   2.761
12486TIP3    H237402   2.787   0.521   2.838
12487TIP3   OH237403   6.021   4.112   4.705
12487TIP3    H137404   6.104   4.157   4.687
12487TIP3    H237405   6.001   4.136   4.796
12488TIP3   OH237406   1.239   1.511   3.435
12488TIP3    H137407   1.296   1.587   3.422
12488TIP3    H237408   1.155   1.549   3.461
12489TIP3   OH237409   8.274   1.066   5.374
12489TIP3    H137410   8.318   0.981   5.381
12489TIP3    H237411   8.295   1.111   5.456
12490TIP3   OH237412   5.154   4.140   2.428
12490TIP3    H137413   5.245   4.143   2.458
12490TIP3    H237414   5.103   4.163   2.506
12491TIP3   OH237415   0.091   2.557   6.553
12491TIP3    H137416   0.001   2.586   6.563
12491TIP3    H237417   0.142   2.637   6.541
12492TIP3   OH237418   1.982   3.896   5.388
12492TIP3    H137419   1.951   3.837   5.457
12492TIP3    H237420   1.902   3.930   5.348
12493TIP3   OH237421   4.699   0.685   1.407
12493TIP3    H137422   4.790   0.697   1.434
12493TIP3    H237423   4.649   0.685   1.488
12494TIP3   OH237424   1.721   5.854   4.632
12494TIP3    H137425   1.694   5.898   4.713
12494TIP3    H237426   1.794   5.906   4.600
12495TIP3   OH237427   6.000   7.523   4.881
12495TIP3    H137428   6.081   7.502   4.835
12495TIP3    H237429   5.931   7.490   4.824
12496TIP3   OH237430   1.552   0.015   3.917
12496TIP3    H137431   1.562  -0.047   3.990
12496TIP3    H237432   1.501  -0.033   3.852
12497TIP3   OH237433   0.673   4.211   3.532
12497TIP3    H137434   0.750   4.246   3.488
12497TIP3    H237435   0.605   4.277   3.518
12498TIP3   OH237436   6.302   4.880   4.825
12498TIP3    H137437   6.259   4.954   4.783
12498TIP3    H237438   6.293   4.897   4.919
12499TIP3   OH237439   8.242   4.722   1.070
12499TIP3    H137440   8.295   4.642   1.067
12499TIP3    H237441   8.275   4.768   1.148
12500TIP3   OH237442   0.347   0.195   2.274
12500TIP3    H137443   0.398   0.265   2.233
12500TIP3    H237444   0.337   0.224   2.365
12501TIP3   OH237445   8.123   1.432   1.921
12501TIP3    H137446   8.046   1.376   1.909
12501TIP3    H237447   8.197   1.376   1.898
12502TIP3   OH237448   2.974   5.124   2.957
12502TIP3    H137449   2.894   5.071   2.963
12502TIP3    H237450   3.042   5.069   2.995
12503TIP3   OH237451   3.425   1.150   2.018
12503TIP3    H137452   3.482   1.224   1.999
12503TIP3    H237453   3.394   1.120   1.933
12504TIP3   OH237454   1.462   2.981   3.288
12504TIP3    H137455   1.503   2.910   3.339
12504TIP3    H237456   1.413   2.936   3.219
12505TIP3   OH237457   8.066   6.434   5.869
12505TIP3    H137458   8.160   6.432   5.885
12505TIP3    H237459   8.041   6.525   5.883
12506TIP3   OH237460   2.134   0.311   5.553
12506TIP3    H137461   2.106   0.259   5.628
12506TIP3    H237462   2.229   0.318   5.563
12507TIP3   OH237463   0.750   7.413  -0.086
12507TIP3    H137464   0.683   7.355  -0.050
12507TIP3    H237465   0.827   7.357  -0.096
12508TIP3   OH237466   2.759   1.027   5.542
12508TIP3    H137467   2.667   1.010   5.562
12508TIP3    H237468   2.764   1.022   5.447
12509TIP3   OH237469   2.972   3.804   0.055
12509TIP3    H137470   2.985   3.713   0.028
12509TIP3    H237471   2.940   3.797   0.145
12510TIP3   OH237472   6.387   5.742   5.575
12510TIP3    H137473   6.341   5.772   5.654
12510TIP3    H237474   6.475   5.718   5.606
12511TIP3   OH237475   5.232   5.848   2.855
12511TIP3    H137476   5.227   5.919   2.791
12511TIP3    H237477   5.216   5.769   2.804
12512TIP3   OH237478   2.664   6.339   0.966
12512TIP3    H137479   2.661   6.428   1.000
12512TIP3    H237480   2.635   6.348   0.875
12513TIP3   OH237481   3.734   2.738   1.469
12513TIP3    H137482   3.816   2.738   1.520
12513TIP3    H237483   3.706   2.646   1.471
12514TIP3   OH237484   6.566   7.645   1.459
12514TIP3    H137485   6.565   7.729   1.505
12514TIP3    H237486   6.613   7.663   1.378
12515TIP3   OH237487   2.042   3.036   2.470
12515TIP3    H137488   2.044   3.012   2.562
12515TIP3    H237489   1.949   3.038   2.447
12516TIP3   OH237490   0.706   1.492   2.787
12516TIP3    H137491   0.688   1.440   2.710
12516TIP3    H237492   0.738   1.429   2.852
12517TIP3   OH237493   8.304   4.949   5.763
12517TIP3    H137494   8.251   5.019   5.725
12517TIP3    H237495   8.286   4.872   5.709
12518TIP3   OH237496   0.275   3.571   2.540
12518TIP3    H137497   0.209   3.611   2.596
12518TIP3    H237498   0.340   3.639   2.526
12519TIP3   OH237499   4.398   1.553   5.595
12519TIP3    H137500   4.489   1.541   5.622
12519TIP3    H237501   4.402   1.616   5.524
12520TIP3   OH237502   6.048   1.903   5.672
12520TIP3    H137503   5.956   1.929   5.668
12520TIP3    H237504   6.081   1.920   5.583
12521TIP3   OH237505   1.514   4.130   4.994
12521TIP3    H137506   1.519   4.035   5.010
12521TIP3    H237507   1.434   4.141   4.942
12522TIP3   OH237508   0.400   7.466   0.544
12522TIP3    H137509   0.404   7.462   0.449
12522TIP3    H237510   0.324   7.411   0.567
12523TIP3   OH237511   5.204   6.075   5.958
12523TIP3    H137512   5.202   5.980   5.974
12523TIP3    H237513   5.294   6.101   5.978
12524TIP3   OH237514   7.100   4.674   4.501
12524TIP3    H137515   7.142   4.742   4.553
12524TIP3    H237516   7.149   4.594   4.521
12525TIP3   OH237517   6.083   5.620   3.819
12525TIP3    H137518   6.149   5.553   3.803
12525TIP3    H237519   6.036   5.627   3.737
12526TIP3   OH237520   1.617   3.525   0.149
12526TIP3    H137521   1.639   3.618   0.155
12526TIP3    H237522   1.524   3.521   0.167
12527TIP3   OH237523   6.179   1.852   3.237
12527TIP3    H137524   6.179   1.838   3.143
12527TIP3    H237525   6.260   1.900   3.255
12528TIP3   OH237526   4.822   7.325   1.192
12528TIP3    H137527   4.792   7.241   1.227
12528TIP3    H237528   4.742   7.370   1.165
12529TIP3   OH237529   3.854   7.079   3.141
12529TIP3    H137530   3.897   7.076   3.226
12529TIP3    H237531   3.801   7.000   3.137
12530TIP3   OH237532   2.455   4.626   6.615
12530TIP3    H137533   2.478   4.677   6.693
12530TIP3    H237534   2.492   4.677   6.542
12531TIP3   OH237535   2.318   4.441   2.685
12531TIP3    H137536   2.387   4.392   2.730
12531TIP3    H237537   2.308   4.397   2.601
12532TIP3   OH237538   0.613   2.139   4.772
12532TIP3    H137539   0.603   2.232   4.751
12532TIP3    H237540   0.696   2.133   4.819
12533TIP3   OH237541   2.167   2.693   3.844
12533TIP3    H137542   2.171   2.603   3.874
12533TIP3    H237543   2.128   2.741   3.918
12534TIP3   OH237544   8.188   7.286   1.929
12534TIP3    H137545   8.113   7.281   1.870
12534TIP3    H237546   8.222   7.374   1.916
12535TIP3   OH237547   2.766   2.916   3.603
12535TIP3    H137548   2.839   2.859   3.581
12535TIP3    H237549   2.688   2.862   3.592
12536TIP3   OH237550   3.052   5.625   3.515
12536TIP3    H137551   3.139   5.661   3.495
12536TIP3    H237552   3.069   5.558   3.582
12537TIP3   OH237553   4.674   3.999   4.657
12537TIP3    H137554   4.653   3.981   4.566
12537TIP3    H237555   4.679   3.912   4.698
12538TIP3   OH237556   6.764   6.878   3.252
12538TIP3    H137557   6.851   6.840   3.263
12538TIP3    H237558   6.711   6.808   3.215
12539TIP3   OH237559   4.319   4.816   2.801
12539TIP3    H137560   4.326   4.787   2.892
12539TIP3    H237561   4.364   4.748   2.750
12540TIP3   OH237562   5.411   1.148   4.833
12540TIP3    H137563   5.335   1.202   4.855
12540TIP3    H237564   5.374   1.067   4.798
12541TIP3   OH237565   3.170   3.936   2.175
12541TIP3    H137566   3.145   3.975   2.092
12541TIP3    H237567   3.092   3.888   2.204
12542TIP3   OH237568   3.101   0.344   5.195
12542TIP3    H137569   3.163   0.272   5.207
12542TIP3    H237570   3.139   0.416   5.244
12543TIP3   OH237571   2.771   7.401   4.545
12543TIP3    H137572   2.701   7.359   4.594
12543TIP3    H237573   2.847   7.399   4.603
12544TIP3   OH237574   4.727   1.209   1.709
12544TIP3    H137575   4.664   1.196   1.780
12544TIP3    H237576   4.786   1.276   1.742
12545TIP3   OH237577   1.019   7.453   2.729
12545TIP3    H137578   1.110   7.423   2.725
12545TIP3    H237579   0.971   7.379   2.765
12546TIP3   OH237580   7.244   0.555   6.189
12546TIP3    H137581   7.332   0.517   6.189
12546TIP3    H237582   7.209   0.535   6.276
12547TIP3   OH237583   2.196   6.536   4.249
12547TIP3    H137584   2.134   6.536   4.175
12547TIP3    H237585   2.173   6.614   4.299
12548TIP3   OH237586   5.702   3.500   0.086
12548TIP3    H137587   5.629   3.444   0.061
12548TIP3    H237588   5.761   3.442   0.134
12549TIP3   OH237589   1.953   3.973   3.368
12549TIP3    H137590   1.954   3.883   3.402
12549TIP3    H237591   2.043   3.988   3.338
12550TIP3   OH237592   0.698   7.776   4.385
12550TIP3    H137593   0.762   7.705   4.376
12550TIP3    H237594   0.724   7.840   4.319
12551TIP3   OH237595   3.810   0.481   1.988
12551TIP3    H137596   3.876   0.447   2.048
12551TIP3    H237597   3.784   0.405   1.935
12552TIP3   OH237598   5.248   7.153   2.341
12552TIP3    H137599   5.166   7.121   2.301
12552TIP3    H237600   5.305   7.076   2.343
12553TIP3   OH237601   4.470   5.633   6.414
12553TIP3    H137602   4.429   5.670   6.336
12553TIP3    H237603   4.509   5.709   6.458
12554TIP3   OH237604   7.252   0.700   5.336
12554TIP3    H137605   7.245   0.789   5.370
12554TIP3    H237606   7.338   0.670   5.366
12555TIP3   OH237607   4.673   2.150   5.814
12555TIP3    H137608   4.747   2.096   5.840
12555TIP3    H237609   4.632   2.102   5.742
12556TIP3   OH237610   5.332   7.012   1.416
12556TIP3    H137611   5.275   6.990   1.490
12556TIP3    H237612   5.399   7.068   1.455
12557TIP3   OH237613   2.436   2.150   1.167
12557TIP3    H137614   2.420   2.096   1.244
12557TIP3    H237615   2.378   2.114   1.100
12558TIP3   OH237616   2.928   4.857   4.087
12558TIP3    H137617   2.852   4.817   4.045
12558TIP3    H237618   2.927   4.948   4.059
12559TIP3   OH237619   3.606   1.726   1.893
12559TIP3    H137620   3.522   1.693   1.863
12559TIP3    H237621   3.643   1.771   1.817
12560TIP3   OH237622   8.249   6.028   2.964
12560TIP3    H137623   8.187   5.956   2.978
12560TIP3    H237624   8.256   6.071   3.050
12561TIP3   OH237625   8.248   0.946   1.996
12561TIP3    H137626   8.205   0.981   1.918
12561TIP3    H237627   8.202   0.864   2.014
12562TIP3   OH237628   6.468   2.556   3.017
12562TIP3    H137629   6.554   2.584   3.050
12562TIP3    H237630   6.419   2.531   3.095
12563TIP3   OH237631   1.754   5.328   2.453
12563TIP3    H137632   1.832   5.377   2.477
12563TIP3    H237633   1.691   5.394   2.426
12564TIP3   OH237634   3.623   5.403   1.509
12564TIP3    H137635   3.644   5.316   1.543
12564TIP3    H237636   3.536   5.422   1.545
12565TIP3   OH237637   6.580   1.258   3.498
12565TIP3    H137638   6.662   1.264   3.547
12565TIP3    H237639   6.512   1.282   3.561
12566TIP3   OH237640   3.976   5.927   5.164
12566TIP3    H137641   3.928   6.010   5.166
12566TIP3    H237642   4.023   5.924   5.248
12567TIP3   OH237643   0.311   4.678   3.881
12567TIP3    H137644   0.365   4.747   3.920
12567TIP3    H237645   0.364   4.599   3.888
12568TIP3   OH237646   2.798   3.019   5.455
12568TIP3    H137647   2.821   2.993   5.366
12568TIP3    H237648   2.831   2.948   5.510
12569TIP3   OH237649   4.629   6.877   4.027
12569TIP3    H137650   4.595   6.966   4.019
12569TIP3    H237651   4.564   6.832   4.081
12570TIP3   OH237652   1.353   0.231   0.838
12570TIP3    H137653   1.401   0.149   0.833
12570TIP3    H237654   1.418   0.299   0.820
12571TIP3   OH237655   5.975   2.523   2.997
12571TIP3    H137656   6.067   2.498   2.989
12571TIP3    H237657   5.936   2.455   3.052
12572TIP3   OH237658   3.774   4.967   2.885
12572TIP3    H137659   3.864   4.989   2.859
12572TIP3    H237660   3.747   5.041   2.940
12573TIP3   OH237661   1.808   4.111   2.180
12573TIP3    H137662   1.717   4.093   2.157
12573TIP3    H237663   1.844   4.027   2.207
12574TIP3   OH237664   3.752   5.893   4.983
12574TIP3    H137665   3.822   5.911   5.045
12574TIP3    H237666   3.723   5.805   5.005
12575TIP3   OH237667   3.028   0.955   4.912
12575TIP3    H137668   3.066   0.907   4.986
12575TIP3    H237669   2.998   0.887   4.852
12576TIP3   OH237670   7.716   2.510   2.163
12576TIP3    H137671   7.733   2.604   2.165
12576TIP3    H237672   7.746   2.479   2.248
12577TIP3   OH237673   3.030   1.475   1.982
12577TIP3    H137674   3.050   1.381   1.987
12577TIP3    H237675   3.062   1.501   1.896
12578TIP3   OH237676   6.109   0.020   5.556
12578TIP3    H137677   6.093  -0.055   5.499
12578TIP3    H237678   6.070   0.095   5.509
12579TIP3   OH237679   3.683   3.769   5.101
12579TIP3    H137680   3.598   3.807   5.077
12579TIP3    H237681   3.686   3.685   5.055
12580TIP3   OH237682   2.666   3.209   4.715
12580TIP3    H137683   2.639   3.128   4.671
12580TIP3    H237684   2.628   3.279   4.662
12581TIP3   OH237685   3.261   4.143   2.566
12581TIP3    H137686   3.165   4.153   2.566
12581TIP3    H237687   3.286   4.145   2.474
12582TIP3   OH237688   6.364   3.812   5.475
12582TIP3    H137689   6.340   3.719   5.469
12582TIP3    H237690   6.372   3.841   5.384
12583TIP3   OH237691   0.202   5.949   6.185
12583TIP3    H137692   0.140   5.907   6.244
12583TIP3    H237693   0.240   5.876   6.135
12584TIP3   OH237694   4.401   2.334   1.087
12584TIP3    H137695   4.422   2.263   1.148
12584TIP3    H237696   4.427   2.299   1.001
12585TIP3   OH237697   2.794   1.317   5.572
12585TIP3    H137698   2.832   1.355   5.492
12585TIP3    H237699   2.797   1.223   5.557
12586TIP3   OH237700   6.612   5.933   0.136
12586TIP3    H137701   6.665   5.854   0.127
12586TIP3    H237702   6.676   6.003   0.152
12587TIP3   OH237703   6.251   5.664   2.824
12587TIP3    H137704   6.200   5.646   2.745
12587TIP3    H237705   6.260   5.580   2.868
12588TIP3   OH237706   4.357   7.116   5.377
12588TIP3    H137707   4.273   7.117   5.331
12588TIP3    H237708   4.370   7.206   5.405
12589TIP3   OH237709   0.036   0.168   1.515
12589TIP3    H137710   0.073   0.129   1.594
12589TIP3    H237711   0.081   0.123   1.443
12590TIP3   OH237712   7.054   5.702   6.559
12590TIP3    H137713   7.022   5.626   6.509
12590TIP3    H237714   7.058   5.773   6.494
12591TIP3   OH237715   5.704   6.492   2.849
12591TIP3    H137716   5.772   6.475   2.914
12591TIP3    H237717   5.739   6.456   2.767
12592TIP3   OH237718   7.610   4.265   5.419
12592TIP3    H137719   7.518   4.241   5.431
12592TIP3    H237720   7.628   4.326   5.491
12593TIP3   OH237721   5.887   3.735   3.753
12593TIP3    H137722   5.869   3.645   3.725
12593TIP3    H237723   5.803   3.768   3.785
12594TIP3   OH237724   1.197   4.372   1.230
12594TIP3    H137725   1.195   4.455   1.183
12594TIP3    H237726   1.188   4.305   1.162
12595TIP3   OH237727   6.268   4.285   0.881
12595TIP3    H137728   6.307   4.342   0.947
12595TIP3    H237729   6.179   4.319   0.870
12596TIP3   OH237730   7.613   7.038   3.197
12596TIP3    H137731   7.614   6.946   3.169
12596TIP3    H237732   7.647   7.037   3.286
12597TIP3   OH237733   4.890   5.861   0.348
12597TIP3    H137734   4.801   5.898   0.339
12597TIP3    H237735   4.923   5.859   0.258
12598TIP3   OH237736   3.144   4.602   0.304
12598TIP3    H137737   3.074   4.620   0.240
12598TIP3    H237738   3.149   4.507   0.308
12599TIP3   OH237739   2.718   0.100   4.457
12599TIP3    H137740   2.689   0.101   4.366
12599TIP3    H237741   2.721   0.007   4.479
12600TIP3   OH237742   0.106   6.367   3.867
12600TIP3    H137743   0.156   6.373   3.948
12600TIP3    H237744   0.067   6.279   3.869
12601TIP3   OH237745   7.735   1.971   6.568
12601TIP3    H137746   7.817   1.982   6.617
12601TIP3    H237747   7.666   1.981   6.634
12602TIP3   OH237748   5.353   6.177   0.913
12602TIP3    H137749   5.295   6.138   0.848
12602TIP3    H237750   5.323   6.141   0.997
12603TIP3   OH237751   0.314   3.558   3.667
12603TIP3    H137752   0.353   3.568   3.580
12603TIP3    H237753   0.312   3.463   3.682
12604TIP3   OH237754   7.583   2.285   1.687
12604TIP3    H137755   7.589   2.236   1.769
12604TIP3    H237756   7.520   2.355   1.704
12605TIP3   OH237757   3.336   4.112   2.317
12605TIP3    H137758   3.393   4.155   2.254
12605TIP3    H237759   3.275   4.061   2.264
12606TIP3   OH237760   5.931   5.184   2.150
12606TIP3    H137761   5.994   5.164   2.082
12606TIP3    H237762   5.955   5.272   2.181
12607TIP3   OH237763   6.885   7.093   2.073
12607TIP3    H137764   6.834   7.137   2.005
12607TIP3    H237765   6.955   7.155   2.093
12608TIP3   OH237766   5.530   4.093   1.353
12608TIP3    H137767   5.577   4.013   1.380
12608TIP3    H237768   5.534   4.092   1.258
12609TIP3   OH237769   6.099   1.672   2.983
12609TIP3    H137770   6.039   1.602   3.008
12609TIP3    H237771   6.041   1.745   2.959
12610TIP3   OH237772   5.673   2.194   5.682
12610TIP3    H137773   5.722   2.113   5.699
12610TIP3    H237774   5.628   2.212   5.764
12611TIP3   OH237775   3.985   4.934   3.906
12611TIP3    H137776   3.978   4.850   3.860
12611TIP3    H237777   3.989   4.999   3.836
12612TIP3   OH237778   2.783   2.772   6.278
12612TIP3    H137779   2.732   2.786   6.198
12612TIP3    H237780   2.718   2.742   6.342
12613TIP3   OH237781   5.527   5.840   2.491
12613TIP3    H137782   5.515   5.895   2.414
12613TIP3    H237783   5.620   5.846   2.511
12614TIP3   OH237784   4.860   1.664   1.388
12614TIP3    H137785   4.903   1.593   1.435
12614TIP3    H237786   4.928   1.729   1.373
12615TIP3   OH237787   4.533   6.958   6.270
12615TIP3    H137788   4.504   6.991   6.355
12615TIP3    H237789   4.539   6.863   6.282
12616TIP3   OH237790   4.689   4.525   6.118
12616TIP3    H137791   4.715   4.522   6.211
12616TIP3    H237792   4.766   4.561   6.073
12617TIP3   OH237793   2.299   1.668   5.098
12617TIP3    H137794   2.349   1.666   5.017
12617TIP3    H237795   2.222   1.614   5.080
12618TIP3   OH237796   4.208   3.971   2.280
12618TIP3    H137797   4.202   3.942   2.189
12618TIP3    H237798   4.266   4.047   2.277
12619TIP3   OH237799   6.018   3.365   2.666
12619TIP3    H137800   6.083   3.299   2.640
12619TIP3    H237801   6.062   3.448   2.650
12620TIP3   OH237802   4.611   6.483   2.475
12620TIP3    H137803   4.553   6.533   2.417
12620TIP3    H237804   4.694   6.478   2.428
12621TIP3   OH237805   6.654   3.069   4.749
12621TIP3    H137806   6.585   3.038   4.808
12621TIP3    H237807   6.729   3.084   4.806
12622TIP3   OH237808   1.660   4.237   6.154
12622TIP3    H137809   1.644   4.208   6.064
12622TIP3    H237810   1.683   4.157   6.202
12623TIP3   OH237811   6.741   1.809   0.201
12623TIP3    H137812   6.755   1.864   0.124
12623TIP3    H237813   6.764   1.721   0.171
12624TIP3   OH237814   2.888   6.193   2.192
12624TIP3    H137815   2.861   6.271   2.241
12624TIP3    H237816   2.916   6.226   2.107
12625TIP3   OH237817   3.874   4.049   4.266
12625TIP3    H137818   3.895   4.046   4.360
12625TIP3    H237819   3.869   4.143   4.246
12626TIP3   OH237820   3.292   2.032   0.366
12626TIP3    H137821   3.348   2.051   0.441
12626TIP3    H237822   3.222   2.097   0.371
12627TIP3   OH237823   2.145   3.231   4.689
12627TIP3    H137824   2.194   3.193   4.615
12627TIP3    H237825   2.210   3.282   4.736
12628TIP3   OH237826   6.036   4.924   2.601
12628TIP3    H137827   6.114   4.891   2.646
12628TIP3    H237828   5.965   4.908   2.663
12629TIP3   OH237829   6.541   5.106   4.697
12629TIP3    H137830   6.568   5.022   4.660
12629TIP3    H237831   6.489   5.147   4.629
12630TIP3   OH237832   0.894   1.323   0.604
12630TIP3    H137833   0.822   1.262   0.619
12630TIP3    H237834   0.900   1.331   0.509
12631TIP3   OH237835   0.477   3.920   1.694
12631TIP3    H137836   0.406   3.921   1.630
12631TIP3    H237837   0.449   3.859   1.762
12632TIP3   OH237838   7.092   7.662   0.517
12632TIP3    H137839   7.095   7.661   0.422
12632TIP3    H237840   7.083   7.754   0.540
12633TIP3   OH237841   7.290   2.524   6.234
12633TIP3    H137842   7.298   2.429   6.228
12633TIP3    H237843   7.307   2.544   6.326
12634TIP3   OH237844   2.750   2.352   5.545
12634TIP3    H137845   2.764   2.439   5.582
12634TIP3    H237846   2.655   2.344   5.537
12635TIP3   OH237847   4.352   6.171   4.410
12635TIP3    H137848   4.427   6.118   4.438
12635TIP3    H237849   4.376   6.204   4.324
12636TIP3   OH237850   0.681   5.449   1.027
12636TIP3    H137851   0.670   5.460   1.121
12636TIP3    H237852   0.775   5.446   1.014
12637TIP3   OH237853   7.815   1.343   2.370
12637TIP3    H137854   7.874   1.291   2.316
12637TIP3    H237855   7.755   1.383   2.308
12638TIP3   OH237856   3.795   6.888   1.480
12638TIP3    H137857   3.887   6.872   1.504
12638TIP3    H237858   3.747   6.882   1.562
12639TIP3   OH237859   0.307   5.486   2.713
12639TIP3    H137860   0.383   5.428   2.716
12639TIP3    H237861   0.336   5.561   2.662
12640TIP3   OH237862   5.583   0.423   4.894
12640TIP3    H137863   5.553   0.333   4.906
12640TIP3    H237864   5.638   0.441   4.970
12641TIP3   OH237865   0.360   0.341   1.491
12641TIP3    H137866   0.376   0.435   1.497
12641TIP3    H237867   0.344   0.314   1.582
12642TIP3   OH237868   8.316   5.623   4.284
12642TIP3    H137869   8.289   5.636   4.194
12642TIP3    H237870   8.361   5.704   4.308
12643TIP3   OH237871   2.208   3.934   1.039
12643TIP3    H137872   2.243   3.846   1.052
12643TIP3    H237873   2.212   3.976   1.125
12644TIP3   OH237874   4.797   6.810   4.797
12644TIP3    H137875   4.782   6.905   4.794
12644TIP3    H237876   4.836   6.796   4.884
12645TIP3   OH237877   6.519   3.658   6.448
12645TIP3    H137878   6.592   3.692   6.396
12645TIP3    H237879   6.482   3.589   6.394
12646TIP3   OH237880   4.760   5.181   6.520
12646TIP3    H137881   4.815   5.128   6.462
12646TIP3    H237882   4.684   5.126   6.537
12647TIP3   OH237883   4.702   4.869   5.939
12647TIP3    H137884   4.674   4.957   5.912
12647TIP3    H237885   4.739   4.882   6.026
12648TIP3   OH237886   7.343   7.012   5.726
12648TIP3    H137887   7.288   7.012   5.805
12648TIP3    H237888   7.281   7.008   5.653
12649TIP3   OH237889   7.906   2.815   3.359
12649TIP3    H137890   7.973   2.818   3.291
12649TIP3    H237891   7.845   2.886   3.336
12650TIP3   OH237892   2.713   1.610   1.559
12650TIP3    H137893   2.732   1.693   1.604
12650TIP3    H237894   2.652   1.565   1.616
12651TIP3   OH237895   3.949   7.515   3.300
12651TIP3    H137896   3.902   7.436   3.326
12651TIP3    H237897   4.020   7.482   3.244
12652TIP3   OH237898   4.271   0.505   3.589
12652TIP3    H137899   4.358   0.513   3.628
12652TIP3    H237900   4.287   0.492   3.495
12653TIP3   OH237901   7.470   6.539   3.457
12653TIP3    H137902   7.519   6.467   3.417
12653TIP3    H237903   7.492   6.615   3.403
12654TIP3   OH237904   4.071   4.406   0.794
12654TIP3    H137905   4.061   4.434   0.885
12654TIP3    H237906   4.040   4.481   0.743
12655TIP3   OH237907   7.583   3.905   5.505
12655TIP3    H137908   7.539   3.852   5.438
12655TIP3    H237909   7.527   3.982   5.515
12656TIP3   OH237910   6.038   4.507   3.944
12656TIP3    H137911   5.949   4.478   3.925
12656TIP3    H237912   6.037   4.528   4.037
12657TIP3   OH237913   0.151   0.842   1.091
12657TIP3    H137914   0.222   0.784   1.121
12657TIP3    H237915   0.098   0.787   1.034
12658TIP3   OH237916   7.696   6.490   3.130
12658TIP3    H137917   7.636   6.415   3.127
12658TIP3    H237918   7.733   6.487   3.218
12659TIP3   OH237919   8.110   0.724   0.463
12659TIP3    H137920   8.195   0.756   0.491
12659TIP3    H237921   8.093   0.647   0.517
12660TIP3   OH237922   4.371   1.293   5.919
12660TIP3    H137923   4.291   1.276   5.868
12660TIP3    H237924   4.342   1.293   6.010
12661TIP3   OH237925   0.573   2.893   2.578
12661TIP3    H137926   0.616   2.846   2.507
12661TIP3    H237927   0.518   2.828   2.621
12662TIP3   OH237928   4.642   0.300   1.261
12662TIP3    H137929   4.666   0.341   1.344
12662TIP3    H237930   4.709   0.331   1.200
12663TIP3   OH237931   2.700   5.591   4.099
12663TIP3    H137932   2.650   5.625   4.024
12663TIP3    H237933   2.768   5.657   4.114
12664TIP3   OH237934   7.536   3.429   2.102
12664TIP3    H137935   7.553   3.521   2.082
12664TIP3    H237936   7.576   3.381   2.029
12665TIP3   OH237937   3.199   3.788   5.217
12665TIP3    H137938   3.257   3.719   5.185
12665TIP3    H237939   3.230   3.806   5.306
12666TIP3   OH237940   3.611   6.450   5.228
12666TIP3    H137941   3.665   6.454   5.307
12666TIP3    H237942   3.597   6.356   5.212
12667TIP3   OH237943   4.992   4.315   3.520
12667TIP3    H137944   5.045   4.253   3.569
12667TIP3    H237945   4.902   4.289   3.537
12668TIP3   OH237946   5.111   4.316   5.875
12668TIP3    H137947   5.102   4.267   5.956
12668TIP3    H237948   5.022   4.344   5.853
12669TIP3   OH237949   5.731   5.797   2.738
12669TIP3    H137950   5.802   5.785   2.675
12669TIP3    H237951   5.765   5.859   2.802
12670TIP3   OH237952   7.452   1.092   1.351
12670TIP3    H137953   7.448   1.181   1.319
12670TIP3    H237954   7.369   1.052   1.324
12671TIP3   OH237955   3.914   4.219   0.666
12671TIP3    H137956   3.846   4.262   0.614
12671TIP3    H237957   3.969   4.290   0.697
12672TIP3   OH237958   1.438   1.656   1.554
12672TIP3    H137959   1.501   1.725   1.572
12672TIP3    H237960   1.397   1.683   1.472
12673TIP3   OH237961   0.834   7.555   5.000
12673TIP3    H137962   0.927   7.533   5.008
12673TIP3    H237963   0.814   7.604   5.080
12674TIP3   OH237964   4.887   4.830   3.240
12674TIP3    H137965   4.856   4.919   3.257
12674TIP3    H237966   4.818   4.791   3.185
12675TIP3   OH237967   3.384   1.034   6.155
12675TIP3    H137968   3.449   1.066   6.217
12675TIP3    H237969   3.397   1.088   6.077
12676TIP3   OH237970   6.501   3.961   4.475
12676TIP3    H137971   6.460   4.001   4.397
12676TIP3    H237972   6.543   4.034   4.519
12677TIP3   OH237973   4.687   7.756   3.980
12677TIP3    H137974   4.649   7.835   3.941
12677TIP3    H237975   4.777   7.780   3.999
12678TIP3   OH237976   5.935   7.145   2.215
12678TIP3    H137977   6.005   7.207   2.196
12678TIP3    H237978   5.878   7.147   2.138
12679TIP3   OH237979   1.751   7.121   5.088
12679TIP3    H137980   1.818   7.053   5.092
12679TIP3    H237981   1.674   7.082   5.130
12680TIP3   OH237982   7.535   2.494   0.713
12680TIP3    H137983   7.629   2.481   0.724
12680TIP3    H237984   7.510   2.549   0.787
12681TIP3   OH237985   4.774   2.973   1.942
12681TIP3    H137986   4.824   3.033   1.887
12681TIP3    H237987   4.773   3.016   2.028
12682TIP3   OH237988   6.216   4.307   4.099
12682TIP3    H137989   6.126   4.320   4.130
12682TIP3    H237990   6.224   4.212   4.088
12683TIP3   OH237991   5.333   6.446   5.977
12683TIP3    H137992   5.380   6.529   5.989
12683TIP3    H237993   5.360   6.415   5.891
12684TIP3   OH237994   3.516   5.639   0.387
12684TIP3    H137995   3.590   5.588   0.355
12684TIP3    H237996   3.505   5.709   0.323
12685TIP3   OH237997   6.020   7.721   0.121
12685TIP3    H137998   6.004   7.637   0.076
12685TIP3    H237999   5.964   7.717   0.199
12686TIP3   OH238000   6.826   2.814   6.603
12686TIP3    H138001   6.804   2.866   6.526
12686TIP3    H238002   6.750   2.824   6.661
12687TIP3   OH238003   7.817   1.188   1.227
12687TIP3    H138004   7.838   1.102   1.263
12687TIP3    H238005   7.900   1.235   1.225
12688TIP3   OH238006   5.711   6.616   3.862
12688TIP3    H138007   5.765   6.625   3.941
12688TIP3    H238008   5.639   6.679   3.875
12689TIP3   OH238009   4.674   2.572   4.249
12689TIP3    H138010   4.686   2.477   4.243
12689TIP3    H238011   4.664   2.590   4.342
12690TIP3   OH238012   5.164   5.777   5.989
12690TIP3    H138013   5.070   5.771   5.972
12690TIP3    H238014   5.201   5.698   5.951
12691TIP3   OH238015   5.707   0.905   2.752
12691TIP3    H138016   5.694   0.878   2.843
12691TIP3    H238017   5.709   0.823   2.702
12692TIP3   OH238018   6.080   1.408   5.729
12692TIP3    H138019   6.103   1.358   5.808
12692TIP3    H238020   5.989   1.384   5.711
12693TIP3   OH238021   6.628   0.793   2.966
12693TIP3    H138022   6.539   0.759   2.980
12693TIP3    H238023   6.622   0.886   2.989
12694TIP3   OH238024   6.413   6.830   0.557
12694TIP3    H138025   6.376   6.743   0.542
12694TIP3    H238026   6.345   6.877   0.606
12695TIP3   OH238027   1.083   6.377   4.347
12695TIP3    H138028   1.174   6.393   4.374
12695TIP3    H238029   1.088   6.302   4.288
12696TIP3   OH238030   8.152   2.876   2.468
12696TIP3    H138031   8.192   2.789   2.469
12696TIP3    H238032   8.106   2.881   2.384
12697TIP3   OH238033   6.962   6.948   1.704
12697TIP3    H138034   7.030   6.952   1.771
12697TIP3    H238035   6.889   6.904   1.747
12698TIP3   OH238036   3.718   1.474   6.299
12698TIP3    H138037   3.789   1.515   6.348
12698TIP3    H238038   3.649   1.459   6.365
12699TIP3   OH238039   3.373   2.209   1.806
12699TIP3    H138040   3.397   2.202   1.713
12699TIP3    H238041   3.425   2.282   1.839
12700TIP3   OH238042   1.292   7.459   5.901
12700TIP3    H138043   1.240   7.510   5.963
12700TIP3    H238044   1.345   7.524   5.855
12701TIP3   OH238045   3.377   2.730   6.762
12701TIP3    H138046   3.412   2.800   6.817
12701TIP3    H238047   3.443   2.661   6.766
12702TIP3   OH238048   7.467   2.381   3.983
12702TIP3    H138049   7.533   2.417   3.924
12702TIP3    H238050   7.414   2.324   3.928
12703TIP3   OH238051   0.996   4.324   2.371
12703TIP3    H138052   0.912   4.370   2.370
12703TIP3    H238053   0.993   4.266   2.295
12704TIP3   OH238054   2.160   4.987   2.714
12704TIP3    H138055   2.130   5.078   2.721
12704TIP3    H238056   2.146   4.965   2.622
12705TIP3   OH238057   7.524   5.741   2.126
12705TIP3    H138058   7.619   5.732   2.124
12705TIP3    H238059   7.508   5.834   2.105
12706TIP3   OH238060   6.026   5.261   6.597
12706TIP3    H138061   6.009   5.168   6.611
12706TIP3    H238062   6.055   5.266   6.505
12707TIP3   OH238063   4.373   3.180   3.267
12707TIP3    H138064   4.366   3.160   3.173
12707TIP3    H238065   4.387   3.095   3.309
12708TIP3   OH238066   7.618   1.302   5.060
12708TIP3    H138067   7.645   1.221   5.103
12708TIP3    H238068   7.614   1.280   4.967
12709TIP3   OH238069   5.596   2.867   2.431
12709TIP3    H138070   5.616   2.952   2.469
12709TIP3    H238071   5.501   2.858   2.439
12710TIP3   OH238072   1.713   0.044   3.040
12710TIP3    H138073   1.709  -0.012   2.962
12710TIP3    H238074   1.801   0.082   3.038
12711TIP3   OH238075   1.754   4.315   2.878
12711TIP3    H138076   1.842   4.349   2.893
12711TIP3    H238077   1.767   4.229   2.839
12712TIP3   OH238078   5.560   5.684   1.260
12712TIP3    H138079   5.509   5.765   1.269
12712TIP3    H238080   5.510   5.632   1.196
12713TIP3   OH238081   3.617   6.460   0.618
12713TIP3    H138082   3.629   6.420   0.531
12713TIP3    H238083   3.698   6.508   0.634
12714TIP3   OH238084   1.907   3.022   1.400
12714TIP3    H138085   1.946   2.947   1.355
12714TIP3    H238086   1.815   3.021   1.374
12715TIP3   OH238087   8.307   6.383   0.032
12715TIP3    H138088   8.234   6.379  -0.031
12715TIP3    H238089   8.281   6.324   0.102
12716TIP3   OH238090   4.336   3.378   0.068
12716TIP3    H138091   4.361   3.369   0.160
12716TIP3    H238092   4.372   3.299   0.026
12717TIP3   OH238093   7.078   0.880   2.982
12717TIP3    H138094   7.111   0.817   2.918
12717TIP3    H238095   7.135   0.869   3.058
12718TIP3   OH238096   5.094   4.895   2.737
12718TIP3    H138097   5.052   4.826   2.687
12718TIP3    H238098   5.048   4.897   2.821
12719TIP3   OH238099   5.999   2.556   6.075
12719TIP3    H138100   6.041   2.548   5.989
12719TIP3    H238101   5.921   2.609   6.059
12720TIP3   OH238102   6.998   2.964   0.392
12720TIP3    H138103   7.076   2.920   0.426
12720TIP3    H238104   7.019   2.980   0.300
12721TIP3   OH238105   4.990   2.383   3.358
12721TIP3    H138106   4.948   2.304   3.326
12721TIP3    H238107   4.955   2.395   3.446
12722TIP3   OH238108   0.375   3.505   0.681
12722TIP3    H138109   0.287   3.520   0.645
12722TIP3    H238110   0.368   3.535   0.772
12723TIP3   OH238111   4.653   2.509   4.569
12723TIP3    H138112   4.664   2.517   4.664
12723TIP3    H238113   4.635   2.416   4.555
12724TIP3   OH238114   3.467   3.069   4.580
12724TIP3    H138115   3.559   3.088   4.600
12724TIP3    H238116   3.468   3.043   4.488
12725TIP3   OH238117   1.084   1.416   2.905
12725TIP3    H138118   1.119   1.327   2.903
12725TIP3    H238119   1.037   1.426   2.823
12726TIP3   OH238120   5.756   3.839   4.716
12726TIP3    H138121   5.691   3.782   4.675
12726TIP3    H238122   5.816   3.778   4.759
12727TIP3   OH238123   2.384   6.450   5.133
12727TIP3    H138124   2.311   6.466   5.192
12727TIP3    H238125   2.385   6.527   5.075
12728TIP3   OH238126   4.960   5.788   2.995
12728TIP3    H138127   4.991   5.825   3.077
12728TIP3    H238128   4.979   5.856   2.930
12729TIP3   OH238129   7.433   5.340   2.856
12729TIP3    H138130   7.344   5.306   2.865
12729TIP3    H238131   7.457   5.368   2.945
12730TIP3   OH238132   6.528   2.897   2.282
12730TIP3    H138133   6.593   2.899   2.212
12730TIP3    H238134   6.531   2.807   2.315
12731TIP3   OH238135   7.329   3.250   4.453
12731TIP3    H138136   7.408   3.272   4.403
12731TIP3    H238137   7.264   3.227   4.386
12732TIP3   OH238138   4.448   7.316   6.327
12732TIP3    H138139   4.372   7.340   6.275
12732TIP3    H238140   4.451   7.381   6.397
12733TIP3   OH238141   6.860   1.863   5.824
12733TIP3    H138142   6.915   1.843   5.899
12733TIP3    H238143   6.918   1.908   5.762
12734TIP3   OH238144   2.121   2.720   3.168
12734TIP3    H138145   2.140   2.653   3.102
12734TIP3    H238146   2.032   2.700   3.197
12735TIP3   OH238147   4.591   1.389   0.465
12735TIP3    H138148   4.564   1.375   0.374
12735TIP3    H238149   4.533   1.333   0.516
12736TIP3   OH238150   1.910   1.000   6.350
12736TIP3    H138151   1.982   1.000   6.287
12736TIP3    H238152   1.833   1.022   6.297
12737TIP3   OH238153   6.943   1.763   1.696
12737TIP3    H138154   6.951   1.828   1.627
12737TIP3    H238155   7.029   1.722   1.700
12738TIP3   OH238156   1.411   4.689   1.339
12738TIP3    H138157   1.403   4.679   1.434
12738TIP3    H238158   1.442   4.604   1.309
12739TIP3   OH238159   6.666   4.218   2.258
12739TIP3    H138160   6.654   4.150   2.324
12739TIP3    H238161   6.630   4.297   2.298
12740TIP3   OH238162   0.219   1.890   0.146
12740TIP3    H138163   0.254   1.942   0.218
12740TIP3    H238164   0.155   1.832   0.187
12741TIP3   OH238165   3.223   7.621   1.940
12741TIP3    H138166   3.206   7.714   1.926
12741TIP3    H238167   3.268   7.618   2.024
12742TIP3   OH238168   4.584   7.290   5.035
12742TIP3    H138169   4.648   7.248   4.978
12742TIP3    H238170   4.511   7.314   4.978
12743TIP3   OH238171   2.866   4.593   4.165
12743TIP3    H138172   2.783   4.592   4.214
12743TIP3    H238173   2.893   4.685   4.165
12744TIP3   OH238174   1.392   4.567   6.081
12744TIP3    H138175   1.362   4.574   6.172
12744TIP3    H238176   1.461   4.633   6.073
12745TIP3   OH238177   7.800   0.398   6.096
12745TIP3    H138178   7.775   0.331   6.033
12745TIP3    H238179   7.894   0.410   6.082
12746TIP3   OH238180   2.487   4.807   4.831
12746TIP3    H138181   2.504   4.833   4.740
12746TIP3    H238182   2.508   4.714   4.834
12747TIP3   OH238183   1.237   0.927   5.393
12747TIP3    H138184   1.213   1.001   5.337
12747TIP3    H238185   1.266   0.968   5.475
12748TIP3   OH238186   4.319   5.472   1.987
12748TIP3    H138187   4.272   5.545   2.028
12748TIP3    H238188   4.402   5.509   1.959
12749TIP3   OH238189   7.272   0.562   0.739
12749TIP3    H138190   7.308   0.502   0.804
12749TIP3    H238191   7.282   0.516   0.656
12750TIP3   OH238192   5.271   6.877   2.309
12750TIP3    H138193   5.365   6.898   2.315
12750TIP3    H238194   5.257   6.811   2.377
12751TIP3   OH238195   1.330   3.268   6.591
12751TIP3    H138196   1.262   3.335   6.594
12751TIP3    H238197   1.370   3.278   6.505
12752TIP3   OH238198   1.495   3.934   4.727
12752TIP3    H138199   1.403   3.934   4.751
12752TIP3    H238200   1.527   4.020   4.752
12753TIP3   OH238201   2.361   4.876   6.105
12753TIP3    H138202   2.337   4.889   6.196
12753TIP3    H238203   2.398   4.787   6.101
12754TIP3   OH238204   5.673   7.411   0.525
12754TIP3    H138205   5.700   7.327   0.487
12754TIP3    H238206   5.625   7.455   0.455
12755TIP3   OH238207   0.327   1.119   2.154
12755TIP3    H138208   0.287   1.206   2.153
12755TIP3    H238209   0.410   1.131   2.198
12756TIP3   OH238210   8.164   6.720   4.974
12756TIP3    H138211   8.216   6.727   4.894
12756TIP3    H238212   8.225   6.745   5.044
12757TIP3   OH238213   1.211   1.186   5.272
12757TIP3    H138214   1.198   1.280   5.260
12757TIP3    H238215   1.266   1.160   5.198
12758TIP3   OH238216   3.596   5.077   2.222
12758TIP3    H138217   3.661   5.018   2.260
12758TIP3    H238218   3.608   5.160   2.269
12759TIP3   OH238219   1.213   5.791   2.771
12759TIP3    H138220   1.305   5.768   2.760
12759TIP3    H238221   1.174   5.773   2.686
12760TIP3   OH238222   1.850   4.887   1.973
12760TIP3    H138223   1.914   4.840   1.919
12760TIP3    H238224   1.774   4.828   1.976
12761TIP3   OH238225   8.190   6.928   1.589
12761TIP3    H138226   8.242   6.968   1.658
12761TIP3    H238227   8.253   6.908   1.520
12762TIP3   OH238228   1.624   6.762   5.044
12762TIP3    H138229   1.576   6.801   4.971
12762TIP3    H238230   1.570   6.777   5.121
12763TIP3   OH238231   6.488   2.681   5.114
12763TIP3    H138232   6.528   2.598   5.086
12763TIP3    H238233   6.419   2.698   5.050
12764TIP3   OH238234   1.866   1.757   4.222
12764TIP3    H138235   1.841   1.763   4.130
12764TIP3    H238236   1.944   1.702   4.223
12765TIP3   OH238237   7.711   1.590   0.838
12765TIP3    H138238   7.635   1.647   0.843
12765TIP3    H238239   7.692   1.520   0.901
12766TIP3   OH238240   2.057   5.953   1.585
12766TIP3    H138241   2.105   5.913   1.512
12766TIP3    H238242   1.968   5.918   1.576
12767TIP3   OH238243   7.618   7.339   5.484
12767TIP3    H138244   7.535   7.323   5.440
12767TIP3    H238245   7.637   7.432   5.468
12768TIP3   OH238246   1.165   4.981   5.952
12768TIP3    H138247   1.219   5.059   5.965
12768TIP3    H238248   1.181   4.927   6.029
12769TIP3   OH238249   5.405   1.862   3.471
12769TIP3    H138250   5.444   1.863   3.559
12769TIP3    H238251   5.477   1.838   3.413
12770TIP3   OH238252   2.718   7.832   5.356
12770TIP3    H138253   2.663   7.801   5.428
12770TIP3    H238254   2.755   7.752   5.318
12771TIP3   OH238255   1.223   3.907   4.775
12771TIP3    H138256   1.161   3.940   4.710
12771TIP3    H238257   1.171   3.894   4.854
12772TIP3   OH238258   6.159   2.101   5.411
12772TIP3    H138259   6.079   2.133   5.370
12772TIP3    H238260   6.202   2.050   5.342
12773TIP3   OH238261   7.497   0.711   6.329
12773TIP3    H138262   7.424   0.722   6.391
12773TIP3    H238263   7.513   0.616   6.330
12774TIP3   OH238264   4.966   5.856   0.782
12774TIP3    H138265   5.001   5.794   0.846
12774TIP3    H238266   4.995   5.821   0.697
12775TIP3   OH238267   5.442   1.178   5.575
12775TIP3    H138268   5.353   1.146   5.588
12775TIP3    H238269   5.451   1.186   5.480
12776TIP3   OH238270   1.046   6.466   2.344
12776TIP3    H138271   1.010   6.466   2.433
12776TIP3    H238272   1.047   6.374   2.319
12777TIP3   OH238273   2.477   5.480   1.251
12777TIP3    H138274   2.488   5.498   1.344
12777TIP3    H238275   2.539   5.539   1.208
12778TIP3   OH238276   6.823   0.113   3.151
12778TIP3    H138277   6.766   0.188   3.137
12778TIP3    H238278   6.781   0.062   3.220
12779TIP3   OH238279   3.534   7.228   5.207
12779TIP3    H138280   3.608   7.277   5.172
12779TIP3    H238281   3.522   7.155   5.145
12780TIP3   OH238282   5.452   5.280   2.658
12780TIP3    H138283   5.506   5.218   2.609
12780TIP3    H238284   5.410   5.226   2.726
12781TIP3   OH238285   4.525   5.070   6.313
12781TIP3    H138286   4.562   4.992   6.271
12781TIP3    H238287   4.518   5.046   6.405
12782TIP3   OH238288   8.167   7.314   6.507
12782TIP3    H138289   8.076   7.331   6.529
12782TIP3    H238290   8.176   7.219   6.512
12783TIP3   OH238291   3.891   5.073   0.173
12783TIP3    H138292   3.895   5.082   0.078
12783TIP3    H238293   3.898   4.979   0.189
12784TIP3   OH238294   3.850   7.518   4.160
12784TIP3    H138295   3.879   7.575   4.231
12784TIP3    H238296   3.756   7.512   4.171
12785TIP3   OH238297   4.075   6.589   3.472
12785TIP3    H138298   3.997   6.631   3.435
12785TIP3    H238299   4.044   6.545   3.552
12786TIP3   OH238300   1.307   0.269   4.371
12786TIP3    H138301   1.291   0.304   4.458
12786TIP3    H238302   1.400   0.244   4.372
12787TIP3   OH238303   5.708   7.173   0.931
12787TIP3    H138304   5.655   7.233   0.878
12787TIP3    H238305   5.766   7.231   0.981
12788TIP3   OH238306   5.128   6.830   1.073
12788TIP3    H138307   5.082   6.914   1.073
12788TIP3    H238308   5.216   6.852   1.104
12789TIP3   OH238309   2.784   0.254   0.802
12789TIP3    H138310   2.714   0.193   0.823
12789TIP3    H238311   2.849   0.201   0.755
12790TIP3   OH238312   3.153   1.413   3.904
12790TIP3    H138313   3.207   1.414   3.983
12790TIP3    H238314   3.101   1.334   3.912
12791TIP3   OH238315   4.794   6.273   0.488
12791TIP3    H138316   4.747   6.281   0.571
12791TIP3    H238317   4.857   6.346   0.490
12792TIP3   OH238318   1.378   3.482   0.835
12792TIP3    H138319   1.293   3.438   0.836
12792TIP3    H238320   1.416   3.460   0.750
12793TIP3   OH238321   7.415   7.577   3.960
12793TIP3    H138322   7.396   7.629   3.882
12793TIP3    H238323   7.375   7.492   3.943
12794TIP3   OH238324   3.149   2.601   2.557
12794TIP3    H138325   3.054   2.604   2.567
12794TIP3    H238326   3.182   2.666   2.620
12795TIP3   OH238327   5.799   6.317   4.899
12795TIP3    H138328   5.890   6.287   4.901
12795TIP3    H238329   5.754   6.252   4.844
12796TIP3   OH238330   4.104   4.986   4.569
12796TIP3    H138331   4.009   4.989   4.571
12796TIP3    H238332   4.128   5.031   4.488
12797TIP3   OH238333   7.377   2.819   1.780
12797TIP3    H138334   7.325   2.782   1.851
12797TIP3    H238335   7.468   2.801   1.805
12798TIP3   OH238336   0.896   2.816   1.234
12798TIP3    H138337   0.801   2.821   1.222
12798TIP3    H238338   0.925   2.753   1.168
12799TIP3   OH238339   1.387   3.901   3.271
12799TIP3    H138340   1.479   3.894   3.246
12799TIP3    H238341   1.376   3.837   3.341
12800TIP3   OH238342   5.665   2.451   0.744
12800TIP3    H138343   5.631   2.514   0.808
12800TIP3    H238344   5.756   2.438   0.770
12801TIP3   OH238345   6.604   0.422   1.408
12801TIP3    H138346   6.658   0.430   1.486
12801TIP3    H238347   6.549   0.500   1.409
12802TIP3   OH238348   4.828   5.285   1.122
12802TIP3    H138349   4.766   5.278   1.194
12802TIP3    H238350   4.776   5.273   1.043
12803TIP3   OH238351   7.652   3.397   6.336
12803TIP3    H138352   7.662   3.365   6.247
12803TIP3    H238353   7.726   3.358   6.384
12804TIP3   OH238354   6.039   2.153   1.627
12804TIP3    H138355   5.994   2.160   1.544
12804TIP3    H238356   6.032   2.240   1.667
12805TIP3   OH238357   3.609   1.870   2.124
12805TIP3    H138358   3.610   1.800   2.058
12805TIP3    H238359   3.664   1.939   2.086
12806TIP3   OH238360   3.072   2.027   5.185
12806TIP3    H138361   3.001   2.090   5.172
12806TIP3    H238362   3.028   1.948   5.217
12807TIP3   OH238363   3.646   3.899   4.815
12807TIP3    H138364   3.641   3.808   4.783
12807TIP3    H238365   3.733   3.906   4.852
12808TIP3   OH238366   6.874   6.270   6.500
12808TIP3    H138367   6.863   6.234   6.412
12808TIP3    H238368   6.838   6.359   6.495
12809TIP3   OH238369   2.244   6.749   3.318
12809TIP3    H138370   2.320   6.730   3.263
12809TIP3    H238371   2.255   6.693   3.395
12810TIP3   OH238372   2.361   3.365   4.784
12810TIP3    H138373   2.424   3.418   4.834
12810TIP3    H238374   2.379   3.388   4.693
12811TIP3   OH238375   6.821   2.577   1.683
12811TIP3    H138376   6.908   2.558   1.648
12811TIP3    H238377   6.798   2.662   1.646
12812TIP3   OH238378   4.476   3.029   5.058
12812TIP3    H138379   4.567   3.058   5.069
12812TIP3    H238380   4.442   3.084   4.987
12813TIP3   OH238381   5.046   5.224   4.574
12813TIP3    H138382   5.031   5.139   4.615
12813TIP3    H238383   5.075   5.280   4.645
12814TIP3   OH238384   7.955   5.389   2.776
12814TIP3    H138385   7.967   5.319   2.711
12814TIP3    H238386   7.906   5.347   2.847
12815TIP3   OH238387   3.697   6.492   1.636
12815TIP3    H138388   3.743   6.558   1.689
12815TIP3    H238389   3.631   6.542   1.588
12816TIP3   OH238390   5.159   0.976   6.743
12816TIP3    H138391   5.174   0.996   6.651
12816TIP3    H238392   5.075   0.930   6.745
12817TIP3   OH238393   4.535   2.374   5.356
12817TIP3    H138394   4.626   2.372   5.326
12817TIP3    H238395   4.484   2.384   5.275
12818TIP3   OH238396   0.862   6.329   1.034
12818TIP3    H138397   0.882   6.256   1.093
12818TIP3    H238398   0.939   6.386   1.039
12819TIP3   OH238399   7.394   2.465   0.316
12819TIP3    H138400   7.364   2.466   0.225
12819TIP3    H238401   7.459   2.395   0.320
12820TIP3   OH238402   2.747   4.766   1.958
12820TIP3    H138403   2.658   4.794   1.937
12820TIP3    H238404   2.803   4.815   1.897
12821TIP3   OH238405   0.575   5.921   0.398
12821TIP3    H138406   0.546   6.010   0.417
12821TIP3    H238407   0.576   5.877   0.483
12822TIP3   OH238408   3.392   1.355   5.690
12822TIP3    H138409   3.300   1.376   5.702
12822TIP3    H238410   3.411   1.384   5.600
12823TIP3   OH238411   7.206   7.315   0.694
12823TIP3    H138412   7.113   7.337   0.683
12823TIP3    H238413   7.252   7.380   0.640
12824TIP3   OH238414   7.348   2.128   3.887
12824TIP3    H138415   7.412   2.077   3.838
12824TIP3    H238416   7.374   2.119   3.979
12825TIP3   OH238417   6.738   7.807   1.210
12825TIP3    H138418   6.830   7.804   1.183
12825TIP3    H238419   6.704   7.720   1.189
12826TIP3   OH238420   7.533   3.531   3.769
12826TIP3    H138421   7.475   3.593   3.814
12826TIP3    H238422   7.587   3.493   3.839
12827TIP3   OH238423   3.262   4.991   2.660
12827TIP3    H138424   3.323   4.955   2.724
12827TIP3    H238425   3.311   4.993   2.578
12828TIP3   OH238426   7.181   2.399   5.653
12828TIP3    H138427   7.249   2.354   5.704
12828TIP3    H238428   7.165   2.340   5.579
12829TIP3   OH238429   2.355   6.509   1.796
12829TIP3    H138430   2.327   6.418   1.788
12829TIP3    H238431   2.449   6.507   1.776
12830TIP3   OH238432   1.388   5.618   0.764
12830TIP3    H138433   1.322   5.550   0.751
12830TIP3    H238434   1.471   5.571   0.768
12831TIP3   OH238435   0.239   6.438   0.468
12831TIP3    H138436   0.233   6.468   0.378
12831TIP3    H238437   0.322   6.475   0.500
12832TIP3   OH238438   5.361   6.969   1.145
12832TIP3    H138439   5.360   6.962   1.240
12832TIP3    H238440   5.367   7.063   1.127
12833TIP3   OH238441   7.104   2.292   6.081
12833TIP3    H138442   7.008   2.288   6.075
12833TIP3    H238443   7.135   2.226   6.019
12834TIP3   OH238444   6.420   3.616   4.605
12834TIP3    H138445   6.405   3.522   4.614
12834TIP3    H238446   6.484   3.624   4.534
12835TIP3   OH238447   0.818   4.021   1.723
12835TIP3    H138448   0.752   4.068   1.672
12835TIP3    H238449   0.832   3.940   1.675
12836TIP3   OH238450   1.020   3.023   1.044
12836TIP3    H138451   1.111   3.051   1.037
12836TIP3    H238452   1.019   2.933   1.010
12837TIP3   OH238453   1.775   6.572   3.863
12837TIP3    H138454   1.820   6.599   3.783
12837TIP3    H238455   1.768   6.652   3.915
12838TIP3   OH238456   5.177   7.557   5.944
12838TIP3    H138457   5.141   7.469   5.953
12838TIP3    H238458   5.107   7.607   5.903
12839TIP3   OH238459   7.399   6.887   3.560
12839TIP3    H138460   7.378   6.945   3.633
12839TIP3    H238461   7.365   6.801   3.587
12840TIP3   OH238462   8.187   3.167   2.369
12840TIP3    H138463   8.164   3.235   2.432
12840TIP3    H238464   8.103   3.130   2.343
12841TIP3   OH238465   5.480   2.571   3.692
12841TIP3    H138466   5.481   2.569   3.597
12841TIP3    H238467   5.416   2.504   3.717
12842TIP3   OH238468   2.924   4.966   1.335
12842TIP3    H138469   2.968   4.881   1.339
12842TIP3    H238470   2.831   4.944   1.327
12843TIP3   OH238471   5.152   5.970   1.047
12843TIP3    H138472   5.069   6.018   1.044
12843TIP3    H238473   5.152   5.927   1.133
12844TIP3   OH238474   2.063   0.758   3.885
12844TIP3    H138475   2.141   0.756   3.941
12844TIP3    H238476   2.016   0.678   3.907
12845TIP3   OH238477   7.258   0.861   3.184
12845TIP3    H138478   7.255   0.957   3.190
12845TIP3    H238479   7.352   0.841   3.183
12846TIP3   OH238480   8.125   7.584   2.928
12846TIP3    H138481   8.140   7.678   2.914
12846TIP3    H238482   8.145   7.570   3.020
12847TIP3   OH238483   0.047   6.476   5.873
12847TIP3    H138484   0.108   6.411   5.838
12847TIP3    H238485   0.096   6.518   5.944
12848TIP3   OH238486   2.314   0.639   5.805
12848TIP3    H138487   2.391   0.643   5.748
12848TIP3    H238488   2.344   0.670   5.890
12849TIP3   OH238489   6.848   7.854   2.486
12849TIP3    H138490   6.754   7.860   2.471
12849TIP3    H238491   6.858   7.867   2.580
12850TIP3   OH238492   7.120   0.329   3.751
12850TIP3    H138493   7.182   0.276   3.701
12850TIP3    H238494   7.083   0.390   3.687
12851TIP3   OH238495   6.353   6.815   1.574
12851TIP3    H138496   6.432   6.845   1.619
12851TIP3    H238497   6.287   6.809   1.643
12852TIP3   OH238498   5.773   4.127   5.673
12852TIP3    H138499   5.774   4.032   5.678
12852TIP3    H238500   5.685   4.152   5.700
12853TIP3   OH238501   0.379   5.207   6.673
12853TIP3    H138502   0.433   5.263   6.729
12853TIP3    H238503   0.406   5.228   6.584
12854TIP3   OH238504   1.060   1.072   2.378
12854TIP3    H138505   1.150   1.085   2.408
12854TIP3    H238506   1.021   1.159   2.382
12855TIP3   OH238507   7.627   1.422   2.627
12855TIP3    H138508   7.536   1.418   2.598
12855TIP3    H238509   7.671   1.353   2.576
12856TIP3   OH238510   7.454   6.209   2.956
12856TIP3    H138511   7.423   6.291   2.918
12856TIP3    H238512   7.411   6.205   3.042
12857TIP3   OH238513   5.948   1.669   5.913
12857TIP3    H138514   5.893   1.747   5.915
12857TIP3    H238515   5.931   1.631   5.827
12858TIP3   OH238516   3.837   3.613   3.994
12858TIP3    H138517   3.773   3.682   3.975
12858TIP3    H238518   3.876   3.639   4.078
12859TIP3   OH238519   1.101   0.984   5.984
12859TIP3    H138520   1.099   0.890   5.969
12859TIP3    H238521   1.193   1.008   5.977
12860TIP3   OH238522   2.780   6.941   2.825
12860TIP3    H138523   2.698   6.897   2.806
12860TIP3    H238524   2.836   6.923   2.749
12861TIP3   OH238525   1.242   2.018   4.402
12861TIP3    H138526   1.198   1.958   4.462
12861TIP3    H238527   1.186   2.095   4.399
12862TIP3   OH238528   2.483   5.343   6.619
12862TIP3    H138529   2.546   5.346   6.691
12862TIP3    H238530   2.475   5.250   6.597
12863TIP3   OH238531   4.891   2.716   4.152
12863TIP3    H138532   4.893   2.763   4.236
12863TIP3    H238533   4.818   2.656   4.161
12864TIP3   OH238534   1.640   6.252   4.579
12864TIP3    H138535   1.571   6.198   4.541
12864TIP3    H238536   1.594   6.312   4.637
12865TIP3   OH238537   8.074   1.837   6.523
12865TIP3    H138538   8.056   1.893   6.598
12865TIP3    H238539   8.101   1.898   6.454
12866TIP3   OH238540   7.563   0.798   3.812
12866TIP3    H138541   7.639   0.811   3.755
12866TIP3    H238542   7.521   0.719   3.778
12867TIP3   OH238543   1.824   0.567   5.943
12867TIP3    H138544   1.839   0.498   6.008
12867TIP3    H238545   1.729   0.580   5.943
12868TIP3   OH238546   6.260   6.403   3.309
12868TIP3    H138547   6.339   6.454   3.293
12868TIP3    H238548   6.266   6.328   3.250
12869TIP3   OH238549   6.863   2.849   5.376
12869TIP3    H138550   6.933   2.897   5.419
12869TIP3    H238551   6.866   2.877   5.285
12870TIP3   OH238552   1.325   3.060   1.822
12870TIP3    H138553   1.284   3.025   1.901
12870TIP3    H238554   1.416   3.075   1.846
12871TIP3   OH238555   5.561   1.507   2.856
12871TIP3    H138556   5.502   1.432   2.865
12871TIP3    H238557   5.507   1.583   2.878
12872TIP3   OH238558   7.349   7.230   4.451
12872TIP3    H138559   7.277   7.188   4.499
12872TIP3    H238560   7.412   7.253   4.519
12873TIP3   OH238561   5.820   4.445   0.994
12873TIP3    H138562   5.871   4.367   0.969
12873TIP3    H238563   5.756   4.412   1.056
12874TIP3   OH238564   6.393   3.841   2.628
12874TIP3    H138565   6.480   3.827   2.591
12874TIP3    H238566   6.353   3.905   2.569
12875TIP3   OH238567   2.179   2.553   2.959
12875TIP3    H138568   2.268   2.587   2.950
12875TIP3    H238569   2.167   2.497   2.883
12876TIP3   OH238570   3.577   6.630   6.488
12876TIP3    H138571   3.594   6.721   6.464
12876TIP3    H238572   3.643   6.608   6.553
12877TIP3   OH238573   3.376   3.182   0.377
12877TIP3    H138574   3.341   3.180   0.466
12877TIP3    H238575   3.337   3.261   0.338
12878TIP3   OH238576   5.189   4.557   3.885
12878TIP3    H138577   5.152   4.563   3.797
12878TIP3    H238578   5.227   4.469   3.889
12879TIP3   OH238579   5.226   2.876   5.879
12879TIP3    H138580   5.182   2.930   5.813
12879TIP3    H238581   5.301   2.929   5.907
12880TIP3   OH238582   1.481   2.435   5.521
12880TIP3    H138583   1.424   2.452   5.596
12880TIP3    H238584   1.461   2.504   5.459
12881TIP3   OH238585   4.747   3.434   3.684
12881TIP3    H138586   4.679   3.367   3.681
12881TIP3    H238587   4.724   3.494   3.613
12882TIP3   OH238588   3.638   5.228   6.266
12882TIP3    H138589   3.549   5.197   6.284
12882TIP3    H238590   3.678   5.240   6.352
12883TIP3   OH238591   0.700   3.680   5.866
12883TIP3    H138592   0.741   3.764   5.886
12883TIP3    H238593   0.693   3.636   5.952
12884TIP3   OH238594   1.560   0.407   6.483
12884TIP3    H138595   1.496   0.476   6.465
12884TIP3    H238596   1.560   0.397   6.578
12885TIP3   OH238597   0.112   4.798   0.197
12885TIP3    H138598   0.024   4.806   0.161
12885TIP3    H238599   0.098   4.766   0.286
12886TIP3   OH238600   5.660   7.019   3.658
12886TIP3    H138601   5.715   6.986   3.587
12886TIP3    H238602   5.684   7.112   3.666
12887TIP3   OH238603   2.636   1.757   1.323
12887TIP3    H138604   2.630   1.704   1.402
12887TIP3    H238605   2.722   1.800   1.329
12888TIP3   OH238606   0.297   7.383   5.312
12888TIP3    H138607   0.235   7.433   5.365
12888TIP3    H238608   0.242   7.333   5.251
12889TIP3   OH238609   1.871   2.199   4.596
12889TIP3    H138610   1.822   2.222   4.517
12889TIP3    H238611   1.860   2.104   4.604
12890TIP3   OH238612  -0.019   0.137   4.155
12890TIP3    H138613   0.002   0.114   4.065
12890TIP3    H238614   0.044   0.206   4.177
12891TIP3   OH238615   5.503   2.697   0.474
12891TIP3    H138616   5.480   2.777   0.522
12891TIP3    H238617   5.564   2.727   0.407
12892TIP3   OH238618   1.087   3.711   1.465
12892TIP3    H138619   1.148   3.764   1.517
12892TIP3    H238620   1.143   3.646   1.422
12893TIP3   OH238621   3.868   7.704   3.893
12893TIP3    H138622   3.786   7.753   3.899
12893TIP3    H238623   3.858   7.632   3.954
12894TIP3   OH238624   2.259   4.604   1.478
12894TIP3    H138625   2.279   4.691   1.514
12894TIP3    H238626   2.332   4.586   1.418
12895TIP3   OH238627   7.769   5.132   5.212
12895TIP3    H138628   7.724   5.102   5.292
12895TIP3    H238629   7.839   5.189   5.244
12896TIP3   OH238630   4.201   1.351   2.505
12896TIP3    H138631   4.188   1.443   2.482
12896TIP3    H238632   4.117   1.309   2.486
12897TIP3   OH238633   7.433   0.920   4.581
12897TIP3    H138634   7.351   0.894   4.540
12897TIP3    H238635   7.417   0.909   4.675
12898TIP3   OH238636   3.345   1.641   1.816
12898TIP3    H138637   3.307   1.713   1.766
12898TIP3    H238638   3.300   1.562   1.782
12899TIP3   OH238639   0.277   6.667   0.267
12899TIP3    H138640   0.359   6.671   0.317
12899TIP3    H238641   0.301   6.621   0.186
12900TIP3   OH238642   2.014   6.260   6.723
12900TIP3    H138643   2.079   6.211   6.773
12900TIP3    H238644   1.985   6.199   6.655
12901TIP3   OH238645   5.480   0.149   3.079
12901TIP3    H138646   5.541   0.094   3.030
12901TIP3    H238647   5.410   0.169   3.016
12902TIP3   OH238648   5.684   2.349   6.571
12902TIP3    H138649   5.673   2.422   6.510
12902TIP3    H238650   5.676   2.389   6.658
12903TIP3   OH238651   4.012   0.704   4.494
12903TIP3    H138652   3.959   0.624   4.489
12903TIP3    H238653   4.102   0.673   4.497
12904TIP3   OH238654   3.675   0.983   0.971
12904TIP3    H138655   3.625   0.954   0.895
12904TIP3    H238656   3.662   1.078   0.973
12905TIP3   OH238657   2.969   3.227   3.848
12905TIP3    H138658   2.988   3.140   3.883
12905TIP3    H238659   2.958   3.213   3.754
12906TIP3   OH238660   7.919   4.662   1.846
12906TIP3    H138661   7.929   4.681   1.753
12906TIP3    H238662   7.952   4.740   1.890
12907TIP3   OH238663   7.883   4.844   1.258
12907TIP3    H138664   7.960   4.877   1.305
12907TIP3    H238665   7.873   4.754   1.291
12908TIP3   OH238666   6.623   6.958   5.766
12908TIP3    H138667   6.597   6.868   5.786
12908TIP3    H238668   6.708   6.950   5.723
12909TIP3   OH238669   4.056   3.303   2.621
12909TIP3    H138670   4.120   3.319   2.690
12909TIP3    H238671   3.975   3.281   2.668
12910TIP3   OH238672   1.035   3.044   0.232
12910TIP3    H138673   1.056   3.063   0.141
12910TIP3    H238674   1.001   2.955   0.231
12911TIP3   OH238675   4.746   4.499   0.042
12911TIP3    H138676   4.723   4.462  -0.044
12911TIP3    H238677   4.680   4.566   0.057
12912TIP3   OH238678   1.465   5.663   2.719
12912TIP3    H138679   1.547   5.656   2.767
12912TIP3    H238680   1.489   5.645   2.628
12913TIP3   OH238681   2.208   6.769   4.412
12913TIP3    H138682   2.268   6.837   4.443
12913TIP3    H238683   2.185   6.720   4.491
12914TIP3   OH238684   1.182   5.559   5.424
12914TIP3    H138685   1.166   5.565   5.519
12914TIP3    H238686   1.095   5.564   5.385
12915TIP3   OH238687   1.605   7.328   0.747
12915TIP3    H138688   1.638   7.416   0.765
12915TIP3    H238689   1.676   7.285   0.699
12916TIP3   OH238690   6.980   1.765   2.341
12916TIP3    H138691   6.957   1.678   2.371
12916TIP3    H238692   7.002   1.813   2.421
12917TIP3   OH238693   6.428   4.469   2.211
12917TIP3    H138694   6.425   4.375   2.192
12917TIP3    H238695   6.367   4.481   2.283
12918TIP3   OH238696   2.791   7.604   5.241
12918TIP3    H138697   2.806   7.529   5.184
12918TIP3    H238698   2.877   7.641   5.257
12919TIP3   OH238699   1.167   4.104   3.883
12919TIP3    H138700   1.149   4.018   3.920
12919TIP3    H238701   1.107   4.110   3.808
12920TIP3   OH238702   6.798   6.343   0.374
12920TIP3    H138703   6.723   6.367   0.429
12920TIP3    H238704   6.871   6.332   0.434
12921TIP3   OH238705   5.636   7.572   4.559
12921TIP3    H138706   5.543   7.593   4.551
12921TIP3    H238707   5.673   7.594   4.473
12922TIP3   OH238708   6.887   1.262   6.559
12922TIP3    H138709   6.816   1.248   6.621
12922TIP3    H238710   6.853   1.228   6.476
12923TIP3   OH238711   8.150   1.099   1.739
12923TIP3    H138712   8.187   1.156   1.807
12923TIP3    H238713   8.092   1.157   1.689
12924TIP3   OH238714   5.704   2.973   2.183
12924TIP3    H138715   5.660   2.930   2.256
12924TIP3    H238716   5.635   2.985   2.117
12925TIP3   OH238717   7.597   5.339   2.127
12925TIP3    H138718   7.543   5.277   2.078
12925TIP3    H238719   7.608   5.298   2.213
12926TIP3   OH238720   2.566   1.350   6.750
12926TIP3    H138721   2.565   1.298   6.831
12926TIP3    H238722   2.643   1.318   6.702
12927TIP3   OH238723   3.071   1.075   3.717
12927TIP3    H138724   3.063   1.090   3.811
12927TIP3    H238725   3.155   1.113   3.693
12928TIP3   OH238726   3.692   3.077   3.956
12928TIP3    H138727   3.704   3.172   3.955
12928TIP3    H238728   3.614   3.062   3.901
12929TIP3   OH238729   1.785   4.317   0.945
12929TIP3    H138730   1.716   4.334   0.880
12929TIP3    H238731   1.860   4.292   0.892
12930TIP3   OH238732   6.750   2.052   4.093
12930TIP3    H138733   6.748   2.075   4.185
12930TIP3    H238734   6.679   2.103   4.053
12931TIP3   OH238735   8.220   3.620   1.396
12931TIP3    H138736   8.296   3.601   1.451
12931TIP3    H238737   8.174   3.691   1.442
12932TIP3   OH238738   3.184   4.199   1.950
12932TIP3    H138739   3.166   4.118   1.903
12932TIP3    H238740   3.277   4.195   1.972
12933TIP3   OH238741   4.512   7.709   1.971
12933TIP3    H138742   4.560   7.775   2.021
12933TIP3    H238743   4.542   7.721   1.881
12934TIP3   OH238744   8.070   4.031   3.963
12934TIP3    H138745   8.057   4.081   3.883
12934TIP3    H238746   8.164   4.013   3.965
12935TIP3   OH238747   3.384   7.101   3.119
12935TIP3    H138748   3.446   7.063   3.182
12935TIP3    H238749   3.343   7.026   3.078
12936TIP3   OH238750   4.556   3.615   1.873
12936TIP3    H138751   4.597   3.697   1.846
12936TIP3    H238752   4.469   3.640   1.901
12937TIP3   OH238753   0.884   7.507   5.657
12937TIP3    H138754   0.977   7.485   5.648
12937TIP3    H238755   0.882   7.576   5.723
12938TIP3   OH238756   6.698   4.911   5.176
12938TIP3    H138757   6.680   4.915   5.082
12938TIP3    H238758   6.648   4.835   5.207
12939TIP3   OH238759   3.847   5.501   6.032
12939TIP3    H138760   3.755   5.496   6.058
12939TIP3    H238761   3.844   5.517   5.938
12940TIP3   OH238762   6.875   4.080   4.492
12940TIP3    H138763   6.835   4.140   4.429
12940TIP3    H238764   6.968   4.103   4.491
12941TIP3   OH238765   2.091   4.707   6.166
12941TIP3    H138766   2.130   4.624   6.193
12941TIP3    H238767   2.016   4.719   6.225
12942TIP3   OH238768   7.045   6.752   2.471
12942TIP3    H138769   7.004   6.831   2.436
12942TIP3    H238770   6.994   6.680   2.437
12943TIP3   OH238771   6.874   5.367   3.008
12943TIP3    H138772   6.941   5.431   3.033
12943TIP3    H238773   6.801   5.421   2.977
12944TIP3   OH238774   5.864   0.912   3.191
12944TIP3    H138775   5.925   0.851   3.234
12944TIP3    H238776   5.921   0.974   3.146
12945TIP3   OH238777   7.276   6.723   2.278
12945TIP3    H138778   7.334   6.722   2.355
12945TIP3    H238779   7.189   6.738   2.315
12946TIP3   OH238780   4.003   4.909   3.623
12946TIP3    H138781   3.981   4.999   3.602
12946TIP3    H238782   3.948   4.856   3.565
12947TIP3   OH238783   6.680   0.362   1.918
12947TIP3    H138784   6.692   0.409   2.000
12947TIP3    H238785   6.746   0.293   1.920
12948TIP3   OH238786   2.432   7.267   1.795
12948TIP3    H138787   2.400   7.349   1.757
12948TIP3    H238788   2.524   7.283   1.813
12949TIP3   OH238789   1.671   0.660   3.243
12949TIP3    H138790   1.655   0.572   3.209
12949TIP3    H238791   1.632   0.660   3.330
12950TIP3   OH238792   4.029   6.199   1.401
12950TIP3    H138793   4.110   6.214   1.352
12950TIP3    H238794   3.960   6.206   1.335
12951TIP3   OH238795   0.574   0.992   4.966
12951TIP3    H138796   0.534   1.056   5.026
12951TIP3    H238797   0.625   0.935   5.023
12952TIP3   OH238798   2.629   4.390   2.021
12952TIP3    H138799   2.705   4.424   1.974
12952TIP3    H238800   2.630   4.437   2.105
12953TIP3   OH238801   0.191   1.288   6.443
12953TIP3    H138802   0.262   1.247   6.493
12953TIP3    H238803   0.171   1.225   6.374
12954TIP3   OH238804   1.971   7.076   4.026
12954TIP3    H138805   2.045   7.129   3.995
12954TIP3    H238806   1.938   7.124   4.102
12955TIP3   OH238807   4.000   6.707   4.750
12955TIP3    H138808   3.971   6.758   4.675
12955TIP3    H238809   4.013   6.619   4.715
12956TIP3   OH238810   2.158   5.106   0.775
12956TIP3    H138811   2.067   5.133   0.763
12956TIP3    H238812   2.188   5.083   0.687
12957TIP3   OH238813   1.361   7.361   0.414
12957TIP3    H138814   1.279   7.333   0.372
12957TIP3    H238815   1.352   7.334   0.505
12958TIP3   OH238816   5.809   4.540   5.991
12958TIP3    H138817   5.759   4.584   6.059
12958TIP3    H238818   5.745   4.523   5.921
12959TIP3   OH238819   5.348   2.498   3.201
12959TIP3    H138820   5.412   2.454   3.144
12959TIP3    H238821   5.401   2.558   3.254
12960TIP3   OH238822   1.135   0.537   2.070
12960TIP3    H138823   1.127   0.617   2.121
12960TIP3    H238824   1.171   0.565   1.986
12961TIP3   OH238825   4.671   4.586   6.427
12961TIP3    H138826   4.648   4.614   6.515
12961TIP3    H238827   4.634   4.498   6.419
12962TIP3   OH238828   5.458   1.913   0.713
12962TIP3    H138829   5.544   1.876   0.696
12962TIP3    H238830   5.440   1.968   0.636
12963TIP3   OH238831   3.755   7.739   6.689
12963TIP3    H138832   3.821   7.680   6.723
12963TIP3    H238833   3.683   7.734   6.752
12964TIP3   OH238834   3.819   0.246   0.230
12964TIP3    H138835   3.861   0.274   0.312
12964TIP3    H238836   3.889   0.206   0.179
12965TIP3   OH238837   3.666   6.348   3.461
12965TIP3    H138838   3.694   6.358   3.552
12965TIP3    H238839   3.571   6.338   3.465
12966TIP3   OH238840   3.372   7.341   0.203
12966TIP3    H138841   3.367   7.350   0.298
12966TIP3    H238842   3.305   7.401   0.170
12967TIP3   OH238843   7.239   0.461   0.045
12967TIP3    H138844   7.288   0.526   0.096
12967TIP3    H238845   7.293   0.383   0.046
12968TIP3   OH238846   7.445   1.110   6.395
12968TIP3    H138847   7.360   1.149   6.374
12968TIP3    H238848   7.424   1.021   6.421
12969TIP3   OH238849   2.728   1.347   1.379
12969TIP3    H138850   2.754   1.432   1.415
12969TIP3    H238851   2.633   1.348   1.381
12970TIP3   OH238852   5.828   6.696   1.570
12970TIP3    H138853   5.913   6.679   1.530
12970TIP3    H238854   5.790   6.767   1.517
12971TIP3   OH238855   0.226   7.723   4.355
12971TIP3    H138856   0.135   7.728   4.324
12971TIP3    H238857   0.277   7.765   4.286
12972TIP3   OH238858   3.634   3.377   6.401
12972TIP3    H138859   3.550   3.360   6.359
12972TIP3    H238860   3.666   3.457   6.360
12973TIP3   OH238861   4.240   4.457   2.366
12973TIP3    H138862   4.237   4.552   2.352
12973TIP3    H238863   4.328   4.432   2.339
12974TIP3   OH238864   5.712   3.677   3.039
12974TIP3    H138865   5.806   3.670   3.021
12974TIP3    H238866   5.676   3.592   3.015
12975TIP3   OH238867   1.311   2.290   2.656
12975TIP3    H138868   1.227   2.245   2.647
12975TIP3    H238869   1.356   2.274   2.573
12976TIP3   OH238870   7.058   6.321   6.719
12976TIP3    H138871   6.995   6.288   6.656
12976TIP3    H238872   7.138   6.335   6.668
12977TIP3   OH238873   0.034   6.138   3.208
12977TIP3    H138874   0.058   6.216   3.258
12977TIP3    H238875   0.100   6.073   3.231
12978TIP3   OH238876   4.878   1.300   0.328
12978TIP3    H138877   4.843   1.376   0.281
12978TIP3    H238878   4.935   1.338   0.395
12979TIP3   OH238879   1.717   0.926   2.576
12979TIP3    H138880   1.805   0.902   2.605
12979TIP3    H238881   1.679   0.971   2.651
12980TIP3   OH238882   3.145   0.434   5.567
12980TIP3    H138883   3.149   0.340   5.582
12980TIP3    H238884   3.051   0.454   5.567
12981TIP3   OH238885   1.512   3.646   2.600
12981TIP3    H138886   1.427   3.690   2.601
12981TIP3    H238887   1.515   3.600   2.684
12982TIP3   OH238888   5.412   6.089   3.808
12982TIP3    H138889   5.317   6.104   3.816
12982TIP3    H238890   5.419   6.018   3.743
12983TIP3   OH238891   7.593   2.892   0.672
12983TIP3    H138892   7.512   2.911   0.719
12983TIP3    H238893   7.635   2.822   0.722
12984TIP3   OH238894   3.867   0.150   5.873
12984TIP3    H138895   3.843   0.236   5.838
12984TIP3    H238896   3.955   0.164   5.910
12985TIP3   OH238897   2.117   0.370   6.370
12985TIP3    H138898   2.070   0.300   6.326
12985TIP3    H238899   2.139   0.432   6.300
12986TIP3   OH238900   1.845   5.881   2.170
12986TIP3    H138901   1.905   5.829   2.117
12986TIP3    H238902   1.759   5.840   2.157
12987TIP3   OH238903   6.863   4.681   4.333
12987TIP3    H138904   6.946   4.663   4.377
12987TIP3    H238905   6.888   4.733   4.256
12988TIP3   OH238906   3.303   3.152   3.709
12988TIP3    H138907   3.351   3.077   3.743
12988TIP3    H238908   3.234   3.113   3.654
12989TIP3   OH238909   3.689   6.903   1.753
12989TIP3    H138910   3.604   6.942   1.771
12989TIP3    H238911   3.751   6.974   1.769
12990TIP3   OH238912   1.859   6.756   1.822
12990TIP3    H138913   1.827   6.731   1.735
12990TIP3    H238914   1.934   6.813   1.804
12991TIP3   OH238915   2.323   0.020   4.453
12991TIP3    H138916   2.355   0.100   4.495
12991TIP3    H238917   2.236   0.006   4.491
12992TIP3   OH238918   4.580   0.200   0.440
12992TIP3    H138919   4.499   0.219   0.393
12992TIP3    H238920   4.552   0.182   0.530
12993TIP3   OH238921   2.811   2.781   5.264
12993TIP3    H138922   2.897   2.741   5.270
12993TIP3    H238923   2.775   2.773   5.353
12994TIP3   OH238924   0.174   0.670   0.850
12994TIP3    H138925   0.214   0.712   0.774
12994TIP3    H238926   0.115   0.605   0.814
12995TIP3   OH238927   7.304   1.772   5.763
12995TIP3    H138928   7.325   1.831   5.691
12995TIP3    H238929   7.307   1.829   5.841
12996TIP3   OH238930   7.723   1.384   1.045
12996TIP3    H138931   7.653   1.408   1.106
12996TIP3    H238932   7.759   1.303   1.080
12997TIP3   OH238933   0.823   4.145   4.800
12997TIP3    H138934   0.890   4.212   4.809
12997TIP3    H238935   0.742   4.194   4.785
12998TIP3   OH238936   3.824   1.758   3.287
12998TIP3    H138937   3.864   1.811   3.218
12998TIP3    H238938   3.794   1.679   3.242
12999TIP3   OH238939   7.264   7.774   4.885
12999TIP3    H138940   7.241   7.726   4.965
12999TIP3    H238941   7.330   7.837   4.913
13000TIP3   OH238942   6.426   4.033   1.337
13000TIP3    H138943   6.375   3.957   1.309
13000TIP3    H238944   6.412   4.038   1.432
13001TIP3   OH238945   4.332   3.183   2.677
13001TIP3    H138946   4.417   3.177   2.633
13001TIP3    H238947   4.310   3.276   2.672
13002TIP3   OH238948   7.809   2.431   0.762
13002TIP3    H138949   7.783   2.360   0.821
13002TIP3    H238950   7.876   2.480   0.811
13003TIP3   OH238951   0.827   5.721   4.398
13003TIP3    H138952   0.896   5.655   4.390
13003TIP3    H238953   0.750   5.672   4.428
13004TIP3   OH238954   4.650   6.557   4.176
13004TIP3    H138955   4.643   6.514   4.091
13004TIP3    H238956   4.640   6.485   4.239
13005TIP3   OH238957   4.540   1.237   5.223
13005TIP3    H138958   4.468   1.248   5.286
13005TIP3    H238959   4.529   1.147   5.192
13006TIP3   OH238960   2.640   6.588   4.863
13006TIP3    H138961   2.551   6.592   4.900
13006TIP3    H238962   2.634   6.639   4.782
13007TIP3   OH238963   0.931   1.823   4.942
13007TIP3    H138964   1.014   1.778   4.927
13007TIP3    H238965   0.886   1.819   4.858
13008TIP3   OH238966   4.649   2.072   0.212
13008TIP3    H138967   4.715   2.091   0.145
13008TIP3    H238968   4.571   2.047   0.162
13009TIP3   OH238969   1.971   1.509   3.146
13009TIP3    H138970   1.933   1.584   3.192
13009TIP3    H238971   2.060   1.537   3.123
13010TIP3   OH238972   7.614   5.878   1.274
13010TIP3    H138973   7.683   5.814   1.293
13010TIP3    H238974   7.648   5.927   1.199
13011TIP3   OH238975   6.037   0.770   5.774
13011TIP3    H138976   5.946   0.744   5.757
13011TIP3    H238977   6.080   0.763   5.689
13012TIP3   OH238978   5.645   0.922   1.752
13012TIP3    H138979   5.592   0.982   1.804
13012TIP3    H238980   5.615   0.936   1.662
13013TIP3   OH238981   1.131   3.041   4.257
13013TIP3    H138982   1.074   2.983   4.308
13013TIP3    H238983   1.075   3.114   4.232
13014TIP3   OH238984   2.748   2.508   6.366
13014TIP3    H138985   2.664   2.516   6.320
13014TIP3    H238986   2.754   2.416   6.389
13015TIP3   OH238987   2.678   7.862   3.343
13015TIP3    H138988   2.676   7.896   3.253
13015TIP3    H238989   2.608   7.909   3.388
13016TIP3   OH238990   0.260   1.787   2.709
13016TIP3    H138991   0.268   1.784   2.613
13016TIP3    H238992   0.329   1.728   2.740
13017TIP3   OH238993   2.344   1.349  -0.033
13017TIP3    H138994   2.249   1.341  -0.032
13017TIP3    H238995   2.367   1.378   0.055
13018TIP3   OH238996   3.411   7.378   5.809
13018TIP3    H138997   3.496   7.358   5.770
13018TIP3    H238998   3.378   7.293   5.838
13019TIP3   OH238999   7.175   1.519   6.040
13019TIP3    H139000   7.103   1.466   6.073
13019TIP3    H239001   7.209   1.565   6.117
13020TIP3   OH239002   7.591   5.037   2.104
13020TIP3    H139003   7.520   5.024   2.167
13020TIP3    H239004   7.656   4.972   2.128
13021TIP3   OH239005   6.631   1.244   1.012
13021TIP3    H139006   6.658   1.244   0.920
13021TIP3    H239007   6.553   1.188   1.015
13022TIP3   OH239008   5.980   6.721   6.722
13022TIP3    H139009   6.006   6.749   6.634
13022TIP3    H239010   6.007   6.629   6.727
13023TIP3   OH239011   7.384   3.230   5.128
13023TIP3    H139012   7.332   3.153   5.151
13023TIP3    H239013   7.471   3.194   5.110
13024TIP3   OH239014   4.690   0.529   5.653
13024TIP3    H139015   4.602   0.528   5.617
13024TIP3    H239016   4.735   0.456   5.611
13025TIP3   OH239017   0.155   2.311   5.160
13025TIP3    H139018   0.175   2.265   5.241
13025TIP3    H239019   0.064   2.338   5.170
13026TIP3   OH239020   2.001   5.883   6.021
13026TIP3    H139021   1.985   5.840   5.937
13026TIP3    H239022   2.093   5.912   6.016
13027TIP3   OH239023   1.221   4.662   4.931
13027TIP3    H139024   1.283   4.605   4.976
13027TIP3    H239025   1.225   4.635   4.839
13028TIP3   OH239026   3.103   0.716   2.860
13028TIP3    H139027   3.084   0.808   2.846
13028TIP3    H239028   3.017   0.675   2.866
13029TIP3   OH239029   8.039   0.718   1.226
13029TIP3    H139030   8.104   0.742   1.291
13029TIP3    H239031   8.085   0.660   1.165
13030TIP3   OH239032   2.024   5.408   4.047
13030TIP3    H139033   2.021   5.394   4.141
13030TIP3    H239034   2.049   5.499   4.036
13031TIP3   OH239035   6.690   5.608   5.808
13031TIP3    H139036   6.641   5.553   5.869
13031TIP3    H239037   6.684   5.562   5.724
13032TIP3   OH239038   0.508   1.477   5.726
13032TIP3    H139039   0.599   1.486   5.697
13032TIP3    H239040   0.484   1.565   5.755
13033TIP3   OH239041   5.744   4.911   5.736
13033TIP3    H139042   5.782   4.837   5.689
13033TIP3    H239043   5.669   4.938   5.683
13034TIP3   OH239044   5.461   2.212   1.575
13034TIP3    H139045   5.413   2.277   1.524
13034TIP3    H239046   5.520   2.170   1.513
13035TIP3   OH239047   7.745   7.718   5.137
13035TIP3    H139048   7.768   7.780   5.207
13035TIP3    H239049   7.788   7.752   5.059
13036TIP3   OH239050   4.456   3.579   0.339
13036TIP3    H139051   4.423   3.492   0.316
13036TIP3    H239052   4.382   3.623   0.381
13037TIP3   OH239053   2.257   1.460   1.158
13037TIP3    H139054   2.307   1.414   1.226
13037TIP3    H239055   2.290   1.550   1.162
13038TIP3   OH239056   2.137   7.084   2.120
13038TIP3    H139057   2.221   7.052   2.089
13038TIP3    H239058   2.149   7.178   2.131
13039TIP3   OH239059   2.666   1.412   2.963
13039TIP3    H139060   2.648   1.467   3.039
13039TIP3    H239061   2.693   1.474   2.895
13040TIP3   OH239062   6.884   6.265   0.688
13040TIP3    H139063   6.857   6.356   0.701
13040TIP3    H239064   6.805   6.222   0.653
13041TIP3   OH239065   0.883   0.292   4.538
13041TIP3    H139066   0.865   0.200   4.518
13041TIP3    H239067   0.800   0.325   4.574
13042TIP3   OH239068   5.703   5.586   4.694
13042TIP3    H139069   5.681   5.525   4.765
13042TIP3    H239070   5.658   5.550   4.617
13043TIP3   OH239071   4.915   1.860   3.770
13043TIP3    H139072   4.882   1.795   3.709
13043TIP3    H239073   5.005   1.877   3.741
13044TIP3   OH239074   0.617   2.873   1.277
13044TIP3    H139075   0.590   2.808   1.342
13044TIP3    H239076   0.585   2.839   1.194
13045TIP3   OH239077   7.775   7.662   2.271
13045TIP3    H139078   7.741   7.748   2.297
13045TIP3    H239079   7.762   7.607   2.348
13046TIP3   OH239080   8.106   5.602   2.842
13046TIP3    H139081   8.036   5.544   2.814
13046TIP3    H239082   8.187   5.552   2.826
13047TIP3   OH239083   7.406   7.043   2.101
13047TIP3    H139084   7.337   7.051   2.035
13047TIP3    H239085   7.485   7.073   2.057
13048TIP3   OH239086   7.672   5.730   0.889
13048TIP3    H139087   7.751   5.694   0.929
13048TIP3    H239088   7.611   5.657   0.886
13049TIP3   OH239089   1.093   6.822   0.697
13049TIP3    H139090   1.060   6.904   0.733
13049TIP3    H239091   1.101   6.838   0.603
13050TIP3   OH239092   0.110   3.101   1.668
13050TIP3    H139093   0.115   3.168   1.736
13050TIP3    H239094   0.021   3.067   1.675
13051TIP3   OH239095   1.374   7.698   5.804
13051TIP3    H139096   1.469   7.710   5.795
13051TIP3    H239097   1.341   7.705   5.715
13052TIP3   OH239098   7.860   2.554   1.422
13052TIP3    H139099   7.799   2.604   1.477
13052TIP3    H239100   7.808   2.482   1.388
13053TIP3   OH239101   8.065   0.376   2.978
13053TIP3    H139102   8.026   0.442   3.037
13053TIP3    H239103   8.097   0.427   2.904
13054TIP3   OH239104   3.750   3.878   5.971
13054TIP3    H139105   3.778   3.893   6.061
13054TIP3    H239106   3.818   3.820   5.935
13055TIP3   OH239107   2.877   3.785   5.813
13055TIP3    H139108   2.859   3.709   5.758
13055TIP3    H239109   2.817   3.853   5.780
13056TIP3   OH239110   1.420   5.866   2.388
13056TIP3    H139111   1.378   5.788   2.352
13056TIP3    H239112   1.514   5.847   2.384
13057TIP3   OH239113   7.885   4.616   4.248
13057TIP3    H139114   7.904   4.697   4.201
13057TIP3    H239115   7.963   4.562   4.235
13058TIP3   OH239116   0.207   3.357   5.211
13058TIP3    H139117   0.290   3.388   5.245
13058TIP3    H239118   0.141   3.390   5.272
13059TIP3   OH239119   6.248   3.881   6.364
13059TIP3    H139120   6.331   3.925   6.347
13059TIP3    H239121   6.265   3.824   6.439
13060TIP3   OH239122   7.911   1.874   1.646
13060TIP3    H139123   7.856   1.838   1.717
13060TIP3    H239124   8.000   1.846   1.669
13061TIP3   OH239125   2.536   4.503   2.264
13061TIP3    H139126   2.507   4.450   2.339
13061TIP3    H239127   2.580   4.578   2.304
13062TIP3   OH239128   0.873   0.373   3.108
13062TIP3    H139129   0.931   0.317   3.159
13062TIP3    H239130   0.850   0.444   3.168
13063TIP3   OH239131   0.876   7.232   2.788
13063TIP3    H139132   0.795   7.240   2.738
13063TIP3    H239133   0.944   7.218   2.722
13064TIP3   OH239134   3.501   1.357   5.088
13064TIP3    H139135   3.416   1.394   5.112
13064TIP3    H239136   3.554   1.433   5.064
13065TIP3   OH239137   1.101   5.380   2.740
13065TIP3    H139138   1.145   5.460   2.767
13065TIP3    H239139   1.019   5.379   2.789
13066TIP3   OH239140   6.966   2.209   5.815
13066TIP3    H139141   6.976   2.177   5.726
13066TIP3    H239142   6.984   2.303   5.809
13067TIP3   OH239143   6.301   2.861   0.394
13067TIP3    H139144   6.372   2.814   0.350
13067TIP3    H239145   6.294   2.819   0.480
13068TIP3   OH239146   6.894   3.774   6.094
13068TIP3    H139147   6.880   3.823   6.013
13068TIP3    H239148   6.893   3.682   6.068
13069TIP3   OH239149   2.945   0.486   4.378
13069TIP3    H139150   2.990   0.405   4.352
13069TIP3    H239151   3.012   0.539   4.419
13070TIP3   OH239152   4.054   3.802   0.887
13070TIP3    H139153   4.147   3.799   0.865
13070TIP3    H239154   4.017   3.864   0.824
13071TIP3   OH239155   0.430   3.822   4.790
13071TIP3    H139156   0.446   3.916   4.778
13071TIP3    H239157   0.338   3.817   4.817
13072TIP3   OH239158   0.479   0.141   3.999
13072TIP3    H139159   0.524   0.168   3.919
13072TIP3    H239160   0.542   0.085   4.044
13073TIP3   OH239161   1.883   5.778   5.086
13073TIP3    H139162   1.971   5.746   5.105
13073TIP3    H239163   1.898   5.862   5.041
13074TIP3   OH239164   7.780   6.803   5.187
13074TIP3    H139165   7.750   6.869   5.124
13074TIP3    H239166   7.713   6.802   5.255
13075TIP3   OH239167   3.310   6.908   6.401
13075TIP3    H139168   3.317   6.893   6.496
13075TIP3    H239169   3.216   6.903   6.384
13076TIP3   OH239170   0.411   4.885   5.824
13076TIP3    H139171   0.395   4.841   5.908
13076TIP3    H239172   0.475   4.830   5.780
13077TIP3   OH239173   0.140   5.321   3.698
13077TIP3    H139174   0.187   5.270   3.764
13077TIP3    H239175   0.133   5.264   3.622
13078TIP3   OH239176   3.994   6.344   3.585
13078TIP3    H139177   3.977   6.346   3.491
13078TIP3    H239178   4.064   6.280   3.596
13079TIP3   OH239179   1.148   6.195   0.454
13079TIP3    H139180   1.091   6.271   0.452
13079TIP3    H239181   1.096   6.123   0.417
13080TIP3   OH239182   7.650   4.864   2.845
13080TIP3    H139183   7.654   4.934   2.779
13080TIP3    H239184   7.602   4.794   2.801
13081TIP3   OH239185   7.144   1.314   1.196
13081TIP3    H139186   7.049   1.312   1.208
13081TIP3    H239187   7.168   1.406   1.213
13082TIP3   OH239188   6.424   4.245   2.940
13082TIP3    H139189   6.331   4.249   2.961
13082TIP3    H239190   6.462   4.189   3.008
13083TIP3   OH239191   2.284   3.128   2.679
13083TIP3    H139192   2.192   3.147   2.694
13083TIP3    H239193   2.328   3.156   2.759
13084TIP3   OH239194   6.029   2.159   3.102
13084TIP3    H139195   5.992   2.071   3.107
13084TIP3    H239196   6.016   2.186   3.011
13085TIP3   OH239197   3.396   4.879   1.890
13085TIP3    H139198   3.354   4.904   1.808
13085TIP3    H239199   3.353   4.932   1.957
13086TIP3   OH239200   6.182   6.665   5.534
13086TIP3    H139201   6.274   6.669   5.557
13086TIP3    H239202   6.157   6.574   5.550
13087TIP3   OH239203   6.572   0.103   1.055
13087TIP3    H139204   6.644   0.154   1.016
13087TIP3    H239205   6.556   0.145   1.139
13088TIP3   OH239206   8.174   0.513   2.760
13088TIP3    H139207   8.183   0.608   2.773
13088TIP3    H239208   8.169   0.503   2.665
13089TIP3   OH239209   1.886   1.701   3.969
13089TIP3    H139210   1.961   1.725   3.915
13089TIP3    H239211   1.901   1.609   3.991
13090TIP3   OH239212   7.577   3.895   6.185
13090TIP3    H139213   7.573   3.837   6.261
13090TIP3    H239214   7.530   3.848   6.116
13091TIP3   OH239215   5.309   4.350   3.330
13091TIP3    H139216   5.318   4.434   3.373
13091TIP3    H239217   5.302   4.371   3.236
13092TIP3   OH239218   1.144   1.914   2.098
13092TIP3    H139219   1.201   1.991   2.107
13092TIP3    H239220   1.204   1.844   2.070
13093TIP3   OH239221   8.087   4.161   0.644
13093TIP3    H139222   8.169   4.111   0.644
13093TIP3    H239223   8.110   4.246   0.681
13094TIP3   OH239224   5.836   7.351   0.273
13094TIP3    H139225   5.909   7.354   0.334
13094TIP3    H239226   5.805   7.260   0.277
13095TIP3   OH239227   1.200   7.363   4.074
13095TIP3    H139228   1.254   7.428   4.028
13095TIP3    H239229   1.258   7.328   4.142
13096TIP3   OH239230   4.414   2.143   5.056
13096TIP3    H139231   4.473   2.117   4.986
13096TIP3    H239232   4.421   2.239   5.059
13097TIP3   OH239233   2.912   2.550   1.251
13097TIP3    H139234   2.905   2.579   1.160
13097TIP3    H239235   2.968   2.472   1.246
13098TIP3   OH239236   4.188   6.721   2.747
13098TIP3    H139237   4.263   6.662   2.754
13098TIP3    H239238   4.192   6.775   2.825
13099TIP3   OH239239   5.192   6.658   2.840
13099TIP3    H139240   5.273   6.688   2.883
13099TIP3    H239241   5.127   6.723   2.866
13100TIP3   OH239242   2.526   0.519   2.314
13100TIP3    H139243   2.592   0.490   2.376
13100TIP3    H239244   2.531   0.457   2.242
13101TIP3   OH239245   1.771   0.255   0.799
13101TIP3    H139246   1.801   0.171   0.833
13101TIP3    H239247   1.851   0.300   0.773
13102TIP3   OH239248   1.639   1.509   3.708
13102TIP3    H139249   1.664   1.557   3.628
13102TIP3    H239250   1.629   1.577   3.774
13103TIP3   OH239251   7.684   0.847   2.049
13103TIP3    H139252   7.662   0.825   1.959
13103TIP3    H239253   7.618   0.802   2.102
13104TIP3   OH239254   0.054   1.179   5.608
13104TIP3    H139255  -0.005   1.140   5.672
13104TIP3    H239256   0.101   1.247   5.657
13105TIP3   OH239257   2.149   4.621   0.667
13105TIP3    H139258   2.104   4.655   0.744
13105TIP3    H239259   2.190   4.698   0.627
13106TIP3   OH239260   4.223   2.540   4.020
13106TIP3    H139261   4.224   2.579   3.933
13106TIP3    H239262   4.216   2.446   4.004
13107TIP3   OH239263   2.143   6.728   5.253
13107TIP3    H139264   2.057   6.697   5.223
13107TIP3    H239265   2.158   6.809   5.204
13108TIP3   OH239266   5.911   3.064   2.403
13108TIP3    H139267   5.873   3.134   2.457
13108TIP3    H239268   5.928   3.106   2.318
13109TIP3   OH239269   5.078   0.779   4.730
13109TIP3    H139270   5.076   0.697   4.780
13109TIP3    H239271   5.133   0.837   4.783
13110TIP3   OH239272   3.582   2.907   5.990
13110TIP3    H139273   3.540   2.821   5.990
13110TIP3    H239274   3.529   2.959   5.929
13111TIP3   OH239275   1.805   2.472   1.184
13111TIP3    H139276   1.753   2.549   1.162
13111TIP3    H239277   1.754   2.398   1.151
13112TIP3   OH239278   6.149   5.297   4.204
13112TIP3    H139279   6.120   5.320   4.116
13112TIP3    H239280   6.242   5.320   4.207
13113TIP3   OH239281   3.728   1.258   2.961
13113TIP3    H139282   3.690   1.178   2.926
13113TIP3    H239283   3.653   1.315   2.979
13114TIP3   OH239284   7.815   3.110   2.816
13114TIP3    H139285   7.744   3.077   2.871
13114TIP3    H239286   7.844   3.034   2.766
13115TIP3   OH239287   7.543   5.939   0.513
13115TIP3    H139288   7.606   5.903   0.451
13115TIP3    H239289   7.594   5.950   0.594
13116TIP3   OH239290   6.176   5.956   2.831
13116TIP3    H139291   6.263   5.927   2.804
13116TIP3    H239292   6.154   5.899   2.905
13117TIP3   OH239293   3.750   4.229   4.535
13117TIP3    H139294   3.660   4.206   4.511
13117TIP3    H239295   3.740   4.285   4.612
13118TIP3   OH239296   0.791   1.332   1.147
13118TIP3    H139297   0.722   1.287   1.195
13118TIP3    H239298   0.760   1.334   1.056
13119TIP3   OH239299   6.736   0.073   4.388
13119TIP3    H139300   6.741   0.102   4.479
13119TIP3    H239301   6.773  -0.015   4.389
13120TIP3   OH239302   6.102   6.190   3.509
13120TIP3    H139303   6.179   6.195   3.567
13120TIP3    H239304   6.132   6.230   3.427
13121TIP3   OH239305   1.813   1.431   3.914
13121TIP3    H139306   1.780   1.481   3.839
13121TIP3    H239307   1.871   1.366   3.875
13122TIP3   OH239308   0.832   0.316   6.661
13122TIP3    H139309   0.843   0.295   6.754
13122TIP3    H239310   0.911   0.365   6.638
13123TIP3   OH239311   3.541   2.984   0.967
13123TIP3    H139312   3.599   2.924   1.015
13123TIP3    H239313   3.600   3.039   0.916
13124TIP3   OH239314   6.114   6.058   1.765
13124TIP3    H139315   6.180   5.989   1.761
13124TIP3    H239316   6.077   6.061   1.677
13125TIP3   OH239317   1.121   2.634   0.298
13125TIP3    H139318   1.163   2.610   0.380
13125TIP3    H239319   1.191   2.631   0.233
13126TIP3   OH239320   4.730   1.746   5.850
13126TIP3    H139321   4.673   1.760   5.926
13126TIP3    H239322   4.818   1.771   5.881
13127TIP3   OH239323   7.925   3.823   6.096
13127TIP3    H139324   7.960   3.771   6.023
13127TIP3    H239325   7.912   3.759   6.166
13128TIP3   OH239326   6.405   2.543   1.667
13128TIP3    H139327   6.441   2.631   1.676
13128TIP3    H239328   6.482   2.485   1.671
13129TIP3   OH239329   7.989   7.192   1.674
13129TIP3    H139330   7.992   7.118   1.736
13129TIP3    H239331   8.080   7.218   1.663
13130TIP3   OH239332   5.787   0.221   4.741
13130TIP3    H139333   5.771   0.247   4.650
13130TIP3    H239334   5.807   0.304   4.786
13131TIP3   OH239335   6.295   4.414   4.988
13131TIP3    H139336   6.370   4.472   4.996
13131TIP3    H239337   6.288   4.372   5.074
13132TIP3   OH239338   7.896   4.378   3.584
13132TIP3    H139339   7.825   4.388   3.647
13132TIP3    H239340   7.918   4.285   3.588
13133TIP3   OH239341   4.497   5.616   3.824
13133TIP3    H139342   4.553   5.544   3.852
13133TIP3    H239343   4.481   5.600   3.731
13134TIP3   OH239344  -0.005   4.495   3.172
13134TIP3    H139345  -0.001   4.506   3.077
13134TIP3    H239346   0.056   4.423   3.190
13135TIP3   OH239347   1.054   3.488   6.346
13135TIP3    H139348   0.972   3.444   6.370
13135TIP3    H239349   1.109   3.419   6.309
13136TIP3   OH239350   6.568   5.196   2.488
13136TIP3    H139351   6.544   5.288   2.482
13136TIP3    H239352   6.551   5.173   2.580
13137TIP3   OH239353   4.593   0.712   0.730
13137TIP3    H139354   4.613   0.776   0.798
13137TIP3    H239355   4.677   0.698   0.685
13138TIP3   OH239356   7.054   0.572   0.882
13138TIP3    H139357   7.129   0.585   0.824
13138TIP3    H239358   6.993   0.519   0.830
13139TIP3   OH239359   0.862   6.159   2.928
13139TIP3    H139360   0.914   6.234   2.957
13139TIP3    H239361   0.892   6.086   2.982
13140TIP3   OH239362   8.312   6.940   3.208
13140TIP3    H139363   8.255   7.017   3.220
13140TIP3    H239364   8.289   6.882   3.280
13141TIP3   OH239365   2.879   5.115   4.018
13141TIP3    H139366   2.785   5.130   4.008
13141TIP3    H239367   2.908   5.182   4.080
13142TIP3   OH239368   2.559   7.458   0.109
13142TIP3    H139369   2.625   7.471   0.177
13142TIP3    H239370   2.516   7.376   0.133
13143TIP3   OH239371   0.382   2.784   1.636
13143TIP3    H139372   0.373   2.794   1.730
13143TIP3    H239373   0.472   2.809   1.617
13144TIP3   OH239374   6.503   3.844   4.031
13144TIP3    H139375   6.512   3.915   4.094
13144TIP3    H239376   6.435   3.787   4.069
13145TIP3   OH239377   8.178   7.313   6.170
13145TIP3    H139378   8.112   7.376   6.200
13145TIP3    H239379   8.231   7.363   6.107
13146TIP3   OH239380   8.207   6.496   2.484
13146TIP3    H139381   8.235   6.555   2.554
13146TIP3    H239382   8.289   6.460   2.449
13147TIP3   OH239383   7.767   6.201   3.651
13147TIP3    H139384   7.722   6.240   3.726
13147TIP3    H239385   7.819   6.272   3.614
13148TIP3   OH239386   2.368   5.085   2.009
13148TIP3    H139387   2.414   5.168   1.998
13148TIP3    H239388   2.297   5.104   2.070
13149TIP3   OH239389   5.527   0.524   6.055
13149TIP3    H139390   5.486   0.483   5.978
13149TIP3    H239391   5.462   0.515   6.124
13150TIP3   OH239392   5.148   4.134   3.675
13150TIP3    H139393   5.118   4.059   3.624
13150TIP3    H239394   5.226   4.102   3.721
13151TIP3   OH239395   2.220   3.707   4.722
13151TIP3    H139396   2.226   3.630   4.778
13151TIP3    H239397   2.242   3.781   4.779
13152TIP3   OH239398   7.867   5.510   6.228
13152TIP3    H139399   7.881   5.595   6.270
13152TIP3    H239400   7.947   5.493   6.180
13153TIP3   OH239401   0.188   0.082   1.293
13153TIP3    H139402   0.265   0.052   1.341
13153TIP3    H239403   0.220   0.156   1.241
13154TIP3   OH239404   2.444   0.655   2.799
13154TIP3    H139405   2.441   0.742   2.838
13154TIP3    H239406   2.353   0.625   2.797
13155TIP3   OH239407   3.308   7.229   3.586
13155TIP3    H139408   3.246   7.187   3.528
13155TIP3    H239409   3.317   7.169   3.660
13156TIP3   OH239410   4.857   4.032   6.346
13156TIP3    H139411   4.849   3.980   6.426
13156TIP3    H239412   4.941   4.077   6.356
13157TIP3   OH239413   6.165   3.975   6.104
13157TIP3    H139414   6.191   3.927   6.182
13157TIP3    H239415   6.129   3.908   6.045
13158TIP3   OH239416   8.069   3.285   3.559
13158TIP3    H139417   7.993   3.267   3.504
13158TIP3    H239418   8.033   3.303   3.646
13159TIP3   OH239419   0.778   1.544   1.361
13159TIP3    H139420   0.811   1.496   1.285
13159TIP3    H239421   0.812   1.495   1.436
13160TIP3   OH239422   3.916   7.056   4.437
13160TIP3    H139423   3.941   7.115   4.366
13160TIP3    H239424   3.982   7.070   4.505
13161TIP3   OH239425   7.917   3.678   4.784
13161TIP3    H139426   7.950   3.711   4.868
13161TIP3    H239427   7.894   3.587   4.801
13162TIP3   OH239428   7.651   6.716   6.247
13162TIP3    H139429   7.597   6.766   6.308
13162TIP3    H239430   7.600   6.638   6.227
13163TIP3   OH239431   1.300   4.343   0.777
13163TIP3    H139432   1.380   4.291   0.776
13163TIP3    H239433   1.323   4.423   0.823
13164TIP3   OH239434   2.005   3.081   4.867
13164TIP3    H139435   2.056   3.141   4.812
13164TIP3    H239436   2.034   2.994   4.840
13165TIP3   OH239437   1.282   2.330   4.771
13165TIP3    H139438   1.224   2.402   4.798
13165TIP3    H239439   1.352   2.373   4.722
13166TIP3   OH239440   7.747   2.201   0.919
13166TIP3    H139441   7.827   2.182   0.968
13166TIP3    H239442   7.704   2.116   0.910
13167TIP3   OH239443   5.212   1.248   3.836
13167TIP3    H139444   5.127   1.204   3.842
13167TIP3    H239445   5.227   1.257   3.742
13168TIP3   OH239446   3.849   3.415   3.173
13168TIP3    H139447   3.822   3.472   3.246
13168TIP3    H239448   3.804   3.332   3.190
13169TIP3   OH239449   1.101   5.202   4.380
13169TIP3    H139450   1.143   5.119   4.357
13169TIP3    H239451   1.014   5.176   4.412
13170TIP3   OH239452   3.880   7.168   1.359
13170TIP3    H139453   3.878   7.073   1.367
13170TIP3    H239454   3.880   7.185   1.265
13171TIP3   OH239455   3.208   4.978   3.025
13171TIP3    H139456   3.211   4.907   2.960
13171TIP3    H239457   3.176   4.935   3.104
13172TIP3   OH239458   4.371   5.767   0.389
13172TIP3    H139459   4.447   5.732   0.435
13172TIP3    H239460   4.407   5.833   0.330
13173TIP3   OH239461   5.218   7.628   6.466
13173TIP3    H139462   5.305   7.663   6.485
13173TIP3    H239463   5.177   7.694   6.410
13174TIP3   OH239464   0.753   1.600   5.178
13174TIP3    H139465   0.716   1.565   5.098
13174TIP3    H239466   0.780   1.689   5.155
13175TIP3   OH239467   2.786   6.884   5.250
13175TIP3    H139468   2.860   6.889   5.310
13175TIP3    H239469   2.759   6.792   5.253
13176TIP3   OH239470   4.799   0.866   1.752
13176TIP3    H139471   4.736   0.869   1.824
13176TIP3    H239472   4.878   0.906   1.789
13177TIP3   OH239473   1.767   5.992   2.641
13177TIP3    H139474   1.743   6.083   2.623
13177TIP3    H239475   1.830   5.998   2.713
13178TIP3   OH239476   6.655   1.985   1.699
13178TIP3    H139477   6.574   2.028   1.725
13178TIP3    H239478   6.697   1.962   1.782
13179TIP3   OH239479   6.889   3.034   2.423
13179TIP3    H139480   6.877   3.006   2.332
13179TIP3    H239481   6.945   2.967   2.462
13180TIP3   OH239482   4.138   5.470   4.414
13180TIP3    H139483   4.075   5.484   4.485
13180TIP3    H239484   4.115   5.535   4.348
13181TIP3   OH239485   7.396   3.374   4.884
13181TIP3    H139486   7.358   3.325   4.811
13181TIP3    H239487   7.367   3.329   4.962
13182TIP3   OH239488   4.108   4.245   4.887
13182TIP3    H139489   4.150   4.196   4.817
13182TIP3    H239490   4.037   4.188   4.917
13183TIP3   OH239491   0.806   4.812   6.521
13183TIP3    H139492   0.878   4.875   6.521
13183TIP3    H239493   0.736   4.856   6.473
13184TIP3   OH239494   3.130   6.117   0.792
13184TIP3    H139495   3.125   6.176   0.716
13184TIP3    H239496   3.060   6.145   0.850
13185TIP3   OH239497   4.146   2.281   3.939
13185TIP3    H139498   4.214   2.252   3.879
13185TIP3    H239499   4.159   2.229   4.018
13186TIP3   OH239500   3.314   6.964   1.517
13186TIP3    H139501   3.292   7.047   1.558
13186TIP3    H239502   3.357   6.987   1.435
13187TIP3   OH239503   5.413   0.753   1.761
13187TIP3    H139504   5.444   0.813   1.693
13187TIP3    H239505   5.433   0.797   1.843
13188TIP3   OH239506   1.656   5.378   0.447
13188TIP3    H139507   1.580   5.322   0.457
13188TIP3    H239508   1.708   5.361   0.526
13189TIP3   OH239509   0.877   5.008   5.270
13189TIP3    H139510   0.894   5.004   5.364
13189TIP3    H239511   0.955   5.049   5.233
13190TIP3   OH239512   3.349   2.084   1.110
13190TIP3    H139513   3.263   2.113   1.080
13190TIP3    H239514   3.331   2.024   1.181
13191TIP3   OH239515   7.434   7.742   2.442
13191TIP3    H139516   7.347   7.782   2.453
13191TIP3    H239517   7.416   7.648   2.435
13192TIP3   OH239518   5.772   6.470   5.163
13192TIP3    H139519   5.752   6.415   5.087
13192TIP3    H239520   5.866   6.486   5.157
13193TIP3   OH239521   2.111   2.909   5.107
13193TIP3    H139522   2.038   2.966   5.083
13193TIP3    H239523   2.146   2.947   5.187
13194TIP3   OH239524   6.168   6.280   6.596
13194TIP3    H139525   6.174   6.198   6.644
13194TIP3    H239526   6.172   6.254   6.504
13195TIP3   OH239527   6.875   6.952   4.811
13195TIP3    H139528   6.920   6.883   4.761
13195TIP3    H239529   6.933   7.028   4.804
13196TIP3   OH239530   5.861   1.634   2.063
13196TIP3    H139531   5.788   1.670   2.013
13196TIP3    H239532   5.822   1.608   2.146
13197TIP3   OH239533   3.053   4.568   5.309
13197TIP3    H139534   3.105   4.589   5.232
13197TIP3    H239535   2.963   4.564   5.277
13198TIP3   OH239536   7.016   7.370   5.110
13198TIP3    H139537   7.076   7.297   5.124
13198TIP3    H239538   7.061   7.445   5.149
13199TIP3   OH239539   3.824   6.691   6.075
13199TIP3    H139540   3.745   6.650   6.111
13199TIP3    H239541   3.876   6.715   6.152
13200TIP3   OH239542   0.134   5.022   1.249
13200TIP3    H139543   0.222   4.987   1.232
13200TIP3    H239544   0.099   5.041   1.162
13201TIP3   OH239545   2.368   5.043   1.707
13201TIP3    H139546   2.382   5.097   1.784
13201TIP3    H239547   2.396   4.955   1.733
13202TIP3   OH239548   5.388   1.767   1.283
13202TIP3    H139549   5.339   1.801   1.357
13202TIP3    H239550   5.440   1.696   1.319
13203TIP3   OH239551   2.318   4.438   3.538
13203TIP3    H139552   2.371   4.477   3.468
13203TIP3    H239553   2.356   4.352   3.551
13204TIP3   OH239554   5.772   3.179   3.960
13204TIP3    H139555   5.685   3.220   3.961
13204TIP3    H239556   5.776   3.134   3.875
13205TIP3   OH239557   1.901   6.014   4.969
13205TIP3    H139558   1.984   6.051   4.997
13205TIP3    H239559   1.897   6.030   4.875
13206TIP3   OH239560   7.002   4.094   5.819
13206TIP3    H139561   7.055   4.064   5.893
13206TIP3    H239562   6.921   4.043   5.825
13207TIP3   OH239563   6.626   1.203   3.220
13207TIP3    H139564   6.618   1.254   3.300
13207TIP3    H239565   6.719   1.180   3.215
13208TIP3   OH239566   5.064   0.822   2.061
13208TIP3    H139567   5.079   0.841   1.968
13208TIP3    H239568   5.133   0.871   2.106
13209TIP3   OH239569   2.373   5.104   2.478
13209TIP3    H139570   2.287   5.082   2.514
13209TIP3    H239571   2.395   5.030   2.421
13210TIP3   OH239572   3.496   7.048   0.578
13210TIP3    H139573   3.497   6.957   0.547
13210TIP3    H239574   3.486   7.099   0.498
13211TIP3   OH239575   7.157   6.382   4.972
13211TIP3    H139576   7.098   6.417   4.904
13211TIP3    H239577   7.130   6.291   4.982
13212TIP3   OH239578   2.040   5.771   4.163
13212TIP3    H139579   1.989   5.730   4.232
13212TIP3    H239580   2.018   5.863   4.167
13213TIP3   OH239581   8.072   4.969   1.444
13213TIP3    H139582   8.058   5.055   1.483
13213TIP3    H239583   8.167   4.962   1.435
13214TIP3   OH239584   7.182   7.696   2.520
13214TIP3    H139585   7.103   7.683   2.469
13214TIP3    H239586   7.172   7.639   2.596
13215TIP3   OH239587   7.705   2.167   2.187
13215TIP3    H139588   7.741   2.215   2.113
13215TIP3    H239589   7.780   2.151   2.244
13216TIP3   OH239590   3.443   5.991   1.428
13216TIP3    H139591   3.512   6.009   1.491
13216TIP3    H239592   3.432   6.074   1.380
13217TIP3   OH239593   5.496   0.418   0.013
13217TIP3    H139594   5.521   0.326  -0.001
13217TIP3    H239595   5.457   0.445  -0.071
13218TIP3   OH239596   3.839   6.927   2.839
13218TIP3    H139597   3.878   7.014   2.851
13218TIP3    H239598   3.747   6.938   2.863
13219TIP3   OH239599   7.745   1.568   4.251
13219TIP3    H139600   7.770   1.478   4.271
13219TIP3    H239601   7.705   1.563   4.164
13220TIP3   OH239602   6.863   2.411   3.054
13220TIP3    H139603   6.952   2.397   3.022
13220TIP3    H239604   6.843   2.333   3.106
13221TIP3   OH239605   2.531   6.704   5.246
13221TIP3    H139606   2.542   6.633   5.309
13221TIP3    H239607   2.558   6.783   5.293
13222TIP3   OH239608   2.413   0.404   3.273
13222TIP3    H139609   2.457   0.456   3.339
13222TIP3    H239610   2.367   0.468   3.218
13223TIP3   OH239611   7.608   6.479   1.442
13223TIP3    H139612   7.587   6.403   1.388
13223TIP3    H239613   7.702   6.473   1.456
13224TIP3   OH239614   1.335   6.598   1.297
13224TIP3    H139615   1.398   6.564   1.361
13224TIP3    H239616   1.305   6.520   1.250
13225TIP3   OH239617   3.557   2.745   4.429
13225TIP3    H139618   3.645   2.743   4.392
13225TIP3    H239619   3.522   2.658   4.411
13226TIP3   OH239620   6.532   7.502   3.582
13226TIP3    H139621   6.508   7.411   3.596
13226TIP3    H239622   6.511   7.519   3.490
13227TIP3   OH239623   0.356   6.136   4.995
13227TIP3    H139624   0.441   6.178   5.008
13227TIP3    H239625   0.375   6.042   4.996
13228TIP3   OH239626   4.037   1.996   1.917
13228TIP3    H139627   4.124   2.025   1.889
13228TIP3    H239628   3.979   2.021   1.845
13229TIP3   OH239629   8.210   2.698   0.977
13229TIP3    H139630   8.229   2.686   1.070
13229TIP3    H239631   8.287   2.742   0.942
13230TIP3   OH239632   2.029   6.951   6.403
13230TIP3    H139633   1.968   6.904   6.347
13230TIP3    H239634   2.027   6.905   6.486
13231TIP3   OH239635   2.622   0.586   0.044
13231TIP3    H139636   2.682   0.603   0.117
13231TIP3    H239637   2.634   0.494   0.024
13232TIP3   OH239638   4.549   1.203   4.215
13232TIP3    H139639   4.484   1.147   4.259
13232TIP3    H239640   4.537   1.289   4.255
13233TIP3   OH239641   7.261   2.967   6.082
13233TIP3    H139642   7.327   2.900   6.101
13233TIP3    H239643   7.240   3.006   6.167
13234TIP3   OH239644   4.468   4.048   6.453
13234TIP3    H139645   4.523   4.118   6.419
13234TIP3    H239646   4.389   4.051   6.399
13235TIP3   OH239647   2.410   2.428   3.655
13235TIP3    H139648   2.319   2.456   3.647
13235TIP3    H239649   2.435   2.452   3.744
13236TIP3   OH239650   2.042   0.877   1.408
13236TIP3    H139651   1.981   0.822   1.458
13236TIP3    H239652   2.078   0.818   1.342
13237TIP3   OH239653   0.089   3.661   2.702
13237TIP3    H139654   0.132   3.652   2.787
13237TIP3    H239655   0.065   3.753   2.696
13238TIP3   OH239656   2.702   3.767   4.548
13238TIP3    H139657   2.776   3.747   4.604
13238TIP3    H239658   2.651   3.832   4.596
13239TIP3   OH239659   5.216   1.777   4.872
13239TIP3    H139660   5.203   1.682   4.869
13239TIP3    H239661   5.203   1.806   4.782
13240TIP3   OH239662   4.806   2.337   5.278
13240TIP3    H139663   4.860   2.339   5.199
13240TIP3    H239664   4.778   2.246   5.286
13241TIP3   OH239665   0.532   2.157   0.103
13241TIP3    H139666   0.477   2.163   0.024
13241TIP3    H239667   0.564   2.246   0.117
13242TIP3   OH239668   7.388   2.079   4.211
13242TIP3    H139669   7.323   2.024   4.254
13242TIP3    H239670   7.454   2.095   4.278
13243TIP3   OH239671   7.097   7.388   3.835
13243TIP3    H139672   7.136   7.462   3.788
13243TIP3    H239673   7.171   7.344   3.877
13244TIP3   OH239674   4.230   7.630   0.286
13244TIP3    H139675   4.244   7.567   0.215
13244TIP3    H239676   4.219   7.714   0.241
13245TIP3   OH239677   7.587   0.701   4.500
13245TIP3    H139678   7.545   0.770   4.550
13245TIP3    H239679   7.633   0.648   4.566
13246TIP3   OH239680   6.811   6.577   6.245
13246TIP3    H139681   6.815   6.644   6.176
13246TIP3    H239682   6.877   6.512   6.219
13247TIP3   OH239683   2.612   2.858   1.618
13247TIP3    H139684   2.571   2.903   1.692
13247TIP3    H239685   2.589   2.911   1.542
13248TIP3   OH239686   4.588   6.660   0.765
13248TIP3    H139687   4.651   6.607   0.715
13248TIP3    H239688   4.618   6.750   0.755
13249TIP3   OH239689   5.804   5.806   5.339
13249TIP3    H139690   5.711   5.816   5.357
13249TIP3    H239691   5.845   5.881   5.380
13250TIP3   OH239692   2.187   2.115   0.949
13250TIP3    H139693   2.224   2.029   0.971
13250TIP3    H239694   2.125   2.097   0.878
13251TIP3   OH239695   2.022   0.555   5.528
13251TIP3    H139696   2.098   0.552   5.470
13251TIP3    H239697   2.009   0.464   5.555
13252TIP3   OH239698   6.216   7.490   4.719
13252TIP3    H139699   6.219   7.431   4.644
13252TIP3    H239700   6.297   7.472   4.767
13253TIP3   OH239701   3.986   2.004   6.173
13253TIP3    H139702   3.934   2.084   6.176
13253TIP3    H239703   4.038   2.012   6.093
13254TIP3   OH239704   0.769   6.793   5.143
13254TIP3    H139705   0.814   6.772   5.062
13254TIP3    H239706   0.743   6.884   5.133
13255TIP3   OH239707   6.239   5.841   1.881
13255TIP3    H139708   6.334   5.853   1.880
13255TIP3    H239709   6.221   5.798   1.965
13256TIP3   OH239710   0.967   6.454   5.376
13256TIP3    H139711   0.938   6.387   5.438
13256TIP3    H239712   0.892   6.512   5.366
13257TIP3   OH239713   3.593   1.034   5.722
13257TIP3    H139714   3.551   0.970   5.665
13257TIP3    H239715   3.668   1.066   5.671
13258TIP3   OH239716   3.300   4.449   0.041
13258TIP3    H139717   3.274   4.417   0.127
13258TIP3    H239718   3.233   4.417  -0.019
13259TIP3   OH239719   1.143   0.314   4.100
13259TIP3    H139720   1.214   0.320   4.164
13259TIP3    H239721   1.073   0.367   4.138
13260TIP3   OH239722   0.392   4.091   4.724
13260TIP3    H139723   0.454   4.151   4.765
13260TIP3    H239724   0.355   4.141   4.652
13261TIP3   OH239725   6.848   0.930   3.478
13261TIP3    H139726   6.769   0.926   3.533
13261TIP3    H239727   6.822   0.888   3.396
13262TIP3   OH239728   6.292   1.907   2.989
13262TIP3    H139729   6.367   1.904   3.048
13262TIP3    H239730   6.275   1.816   2.966
13263TIP3   OH239731   4.662   0.905   5.918
13263TIP3    H139732   4.685   0.940   6.004
13263TIP3    H239733   4.692   0.815   5.919
13264TIP3   OH239734   7.952   4.417   6.316
13264TIP3    H139735   7.899   4.496   6.323
13264TIP3    H239736   8.042   4.448   6.315
13265TIP3   OH239737   2.400   6.275   0.406
13265TIP3    H139738   2.325   6.237   0.452
13265TIP3    H239739   2.371   6.280   0.315
13266TIP3   OH239740   4.920   3.238   2.098
13266TIP3    H139741   4.998   3.189   2.072
13266TIP3    H239742   4.862   3.172   2.136
13267TIP3   OH239743   6.583   4.042   6.630
13267TIP3    H139744   6.517   4.014   6.693
13267TIP3    H239745   6.655   3.981   6.642
13268TIP3   OH239746   1.541   0.871   3.742
13268TIP3    H139747   1.515   0.875   3.650
13268TIP3    H239748   1.512   0.954   3.779
13269TIP3   OH239749   6.043   0.415   6.572
13269TIP3    H139750   6.029   0.352   6.642
13269TIP3    H239751   6.101   0.481   6.610
13270TIP3   OH239752   5.230   6.906   6.056
13270TIP3    H139753   5.184   6.882   6.136
13270TIP3    H239754   5.164   6.897   5.987
13271TIP3   OH239755   2.071   1.015   5.906
13271TIP3    H139756   2.064   0.981   5.817
13271TIP3    H239757   2.048   1.108   5.898
13272TIP3   OH239758   1.775   7.064   1.184
13272TIP3    H139759   1.781   7.151   1.222
13272TIP3    H239760   1.757   7.006   1.258
13273TIP3   OH239761   1.054   4.699   0.548
13273TIP3    H139762   1.029   4.630   0.610
13273TIP3    H239763   1.073   4.775   0.603
13274TIP3   OH239764   3.674   2.056   1.352
13274TIP3    H139765   3.632   1.970   1.353
13274TIP3    H239766   3.753   2.045   1.405
13275TIP3   OH239767   3.855   7.360   2.052
13275TIP3    H139768   3.868   7.265   2.041
13275TIP3    H239769   3.907   7.382   2.129
13276TIP3   OH239770   6.417   1.661   6.320
13276TIP3    H139771   6.408   1.647   6.226
13276TIP3    H239772   6.487   1.601   6.347
13277TIP3   OH239773   3.300   6.653   4.343
13277TIP3    H139774   3.273   6.734   4.300
13277TIP3    H239775   3.394   6.648   4.328
13278TIP3   OH239776   1.916   5.613   4.375
13278TIP3    H139777   1.952   5.638   4.460
13278TIP3    H239778   1.930   5.518   4.371
13279TIP3   OH239779   7.702   0.077   2.440
13279TIP3    H139780   7.672   0.042   2.523
13279TIP3    H239781   7.798   0.076   2.445
13280TIP3   OH239782   7.093   0.774   3.386
13280TIP3    H139783   7.021   0.836   3.395
13280TIP3    H239784   7.133   0.795   3.302
13281TIP3   OH239785   7.681   4.479   6.312
13281TIP3    H139786   7.685   4.448   6.222
13281TIP3    H239787   7.587   4.492   6.329
13282TIP3   OH239788   2.473   5.963   4.861
13282TIP3    H139789   2.489   5.872   4.885
13282TIP3    H239790   2.552   5.990   4.814
13283TIP3   OH239791   5.620   5.037   2.683
13283TIP3    H139792   5.663   4.999   2.759
13283TIP3    H239793   5.591   4.962   2.631
13284TIP3   OH239794   3.329   0.855   6.711
13284TIP3    H139795   3.380   0.933   6.729
13284TIP3    H239796   3.292   0.870   6.623
13285TIP3   OH239797   6.027   4.653   4.269
13285TIP3    H139798   5.985   4.737   4.288
13285TIP3    H239799   6.022   4.604   4.351
13286TIP3   OH239800   7.341   1.374   4.192
13286TIP3    H139801   7.250   1.345   4.207
13286TIP3    H239802   7.390   1.336   4.265
13287TIP3   OH239803   2.205   4.864   5.837
13287TIP3    H139804   2.271   4.806   5.800
13287TIP3    H239805   2.230   4.876   5.928
13288TIP3   OH239806   4.885   2.861   2.956
13288TIP3    H139807   4.939   2.849   2.878
13288TIP3    H239808   4.875   2.956   2.964
13289TIP3   OH239809   5.555   3.433   3.050
13289TIP3    H139810   5.491   3.363   3.040
13289TIP3    H239811   5.503   3.514   3.052
13290TIP3   OH239812   6.045   7.317   4.071
13290TIP3    H139813   6.050   7.389   4.008
13290TIP3    H239814   5.951   7.306   4.086
13291TIP3   OH239815   1.468   7.634   6.351
13291TIP3    H139816   1.527   7.607   6.280
13291TIP3    H239817   1.527   7.653   6.424
13292TIP3   OH239818   0.281   5.688   6.114
13292TIP3    H139819   0.201   5.643   6.088
13292TIP3    H239820   0.349   5.649   6.058
13293TIP3   OH239821   2.606   3.189   5.361
13293TIP3    H139822   2.664   3.246   5.310
13293TIP3    H239823   2.664   3.122   5.398
13294TIP3   OH239824   6.343   5.483   2.048
13294TIP3    H139825   6.433   5.515   2.041
13294TIP3    H239826   6.316   5.465   1.958
13295TIP3   OH239827   4.644   1.572   5.669
13295TIP3    H139828   4.692   1.633   5.725
13295TIP3    H239829   4.700   1.563   5.592
13296TIP3   OH239830   7.732   6.737   3.827
13296TIP3    H139831   7.724   6.646   3.797
13296TIP3    H239832   7.642   6.770   3.825
13297TIP3   OH239833   8.253   3.459   2.302
13297TIP3    H139834   8.223   3.445   2.392
13297TIP3    H239835   8.178   3.437   2.248
13298TIP3   OH239836   3.448   6.771   6.201
13298TIP3    H139837   3.398   6.817   6.268
13298TIP3    H239838   3.428   6.678   6.216
13299TIP3   OH239839   4.877   6.594   4.623
13299TIP3    H139840   4.965   6.625   4.605
13299TIP3    H239841   4.841   6.660   4.683
13300TIP3   OH239842   0.792   3.909   4.917
13300TIP3    H139843   0.881   3.872   4.918
13300TIP3    H239844   0.799   3.986   4.861
13301TIP3   OH239845   5.208   3.858   5.689
13301TIP3    H139846   5.180   3.903   5.769
13301TIP3    H239847   5.127   3.840   5.642
13302TIP3   OH239848   0.662   2.725   4.050
13302TIP3    H139849   0.671   2.728   3.954
13302TIP3    H239850   0.578   2.683   4.065
13303TIP3   OH239851   2.843   2.407   3.727
13303TIP3    H139852   2.773   2.352   3.692
13303TIP3    H239853   2.804   2.495   3.731
13304TIP3   OH239854   3.794   4.382   5.210
13304TIP3    H139855   3.702   4.370   5.184
13304TIP3    H239856   3.796   4.357   5.303
13305TIP3   OH239857   1.342   5.755   1.418
13305TIP3    H139858   1.377   5.832   1.463
13305TIP3    H239859   1.321   5.785   1.330
13306TIP3   OH239860   4.578   1.866   1.988
13306TIP3    H139861   4.607   1.777   2.009
13306TIP3    H239862   4.594   1.915   2.068
13307TIP3   OH239863   1.126   3.004   3.645
13307TIP3    H139864   1.217   2.976   3.637
13307TIP3    H239865   1.117   3.031   3.736
13308TIP3   OH239866   1.150   5.240   1.137
13308TIP3    H139867   1.237   5.243   1.175
13308TIP3    H239868   1.091   5.253   1.212
13309TIP3   OH239869   0.889   6.797   3.467
13309TIP3    H139870   0.910   6.818   3.558
13309TIP3    H239871   0.967   6.752   3.434
13310TIP3   OH239872   7.190   2.682   1.943
13310TIP3    H139873   7.145   2.597   1.945
13310TIP3    H239874   7.181   2.716   2.032
13311TIP3   OH239875   4.890   4.641   6.793
13311TIP3    H139876   4.818   4.652   6.731
13311TIP3    H239877   4.928   4.728   6.802
13312TIP3   OH239878   3.686   5.585   5.312
13312TIP3    H139879   3.763   5.561   5.364
13312TIP3    H239880   3.614   5.535   5.350
13313TIP3   OH239881   0.841   3.150   0.365
13313TIP3    H139882   0.911   3.106   0.318
13313TIP3    H239883   0.866   3.144   0.457
13314TIP3   OH239884   2.724   1.556   5.961
13314TIP3    H139885   2.641   1.516   5.938
13314TIP3    H239886   2.783   1.536   5.888
13315TIP3   OH239887   0.519   6.622   3.372
13315TIP3    H139888   0.573   6.633   3.450
13315TIP3    H239889   0.456   6.554   3.395
13316TIP3   OH239890   6.755   4.581   0.535
13316TIP3    H139891   6.679   4.626   0.496
13316TIP3    H239892   6.749   4.602   0.629
13317TIP3   OH239893   2.814   0.463   4.657
13317TIP3    H139894   2.852   0.441   4.572
13317TIP3    H239895   2.821   0.383   4.709
13318TIP3   OH239896   1.351   4.695   0.164
13318TIP3    H139897   1.430   4.649   0.137
13318TIP3    H239898   1.329   4.658   0.249
13319TIP3   OH239899   4.768   3.813   2.792
13319TIP3    H139900   4.710   3.861   2.850
13319TIP3    H239901   4.831   3.878   2.762
13320TIP3   OH239902   0.963   1.255   5.066
13320TIP3    H139903   0.944   1.167   5.101
13320TIP3    H239904   0.953   1.245   4.971
13321TIP3   OH239905   8.055   0.103   2.032
13321TIP3    H139906   8.125   0.063   2.084
13321TIP3    H239907   8.075   0.196   2.033
13322TIP3   OH239908   1.489   3.473   1.076
13322TIP3    H139909   1.467   3.499   0.987
13322TIP3    H239910   1.584   3.478   1.080
13323TIP3   OH239911   0.507   2.446   0.648
13323TIP3    H139912   0.503   2.438   0.744
13323TIP3    H239913   0.510   2.540   0.632
13324TIP3   OH239914   3.101   1.892   2.156
13324TIP3    H139915   3.110   1.800   2.181
13324TIP3    H239916   3.130   1.941   2.233
13325TIP3   OH239917   7.260   3.821   2.865
13325TIP3    H139918   7.351   3.844   2.844
13325TIP3    H239919   7.245   3.860   2.951
13326TIP3   OH239920   0.892   4.166   3.188
13326TIP3    H139921   0.817   4.183   3.132
13326TIP3    H239922   0.882   4.226   3.262
13327TIP3   OH239923   6.448   6.714   6.545
13327TIP3    H139924   6.367   6.663   6.546
13327TIP3    H239925   6.461   6.739   6.637
13328TIP3   OH239926   0.817   1.795   5.455
13328TIP3    H139927   0.787   1.714   5.414
13328TIP3    H239928   0.838   1.853   5.382
13329TIP3   OH239929   4.650   1.672   6.605
13329TIP3    H139930   4.576   1.710   6.652
13329TIP3    H239931   4.669   1.591   6.651
13330TIP3   OH239932   3.411   6.008   0.201
13330TIP3    H139933   3.461   5.977   0.276
13330TIP3    H239934   3.475   6.051   0.145
13331TIP3   OH239935   7.078   3.395   3.431
13331TIP3    H139936   7.093   3.300   3.423
13331TIP3    H239937   7.154   3.435   3.389
13332TIP3   OH239938   4.060   3.495   3.853
13332TIP3    H139939   4.009   3.473   3.774
13332TIP3    H239940   4.000   3.549   3.905
13333TIP3   OH239941   0.566   6.725   3.881
13333TIP3    H139942   0.610   6.807   3.861
13333TIP3    H239943   0.636   6.663   3.898
13334TIP3   OH239944   7.373   3.692   1.591
13334TIP3    H139945   7.441   3.709   1.526
13334TIP3    H239946   7.416   3.638   1.658
13335TIP3   OH239947   0.908   1.515   3.573
13335TIP3    H139948   0.816   1.503   3.549
13335TIP3    H239949   0.921   1.459   3.649
13336TIP3   OH239950   1.036   7.772   1.591
13336TIP3    H139951   1.075   7.707   1.649
13336TIP3    H239952   0.955   7.798   1.635
13337TIP3   OH239953   1.319   5.043   6.495
13337TIP3    H139954   1.332   5.074   6.405
13337TIP3    H239955   1.357   5.112   6.549
13338TIP3   OH239956   8.179   1.935   4.764
13338TIP3    H139957   8.203   1.949   4.856
13338TIP3    H239958   8.178   1.840   4.753
13339TIP3   OH239959   5.812   6.201   0.244
13339TIP3    H139960   5.803   6.247   0.327
13339TIP3    H239961   5.724   6.203   0.207
13340TIP3   OH239962   0.978   6.055   1.269
13340TIP3    H139963   1.014   6.042   1.356
13340TIP3    H239964   1.016   5.983   1.217
13341TIP3   OH239965   8.230   6.215   2.748
13341TIP3    H139966   8.318   6.206   2.712
13341TIP3    H239967   8.228   6.154   2.822
13342TIP3   OH239968   5.496   5.578   2.947
13342TIP3    H139969   5.494   5.610   2.857
13342TIP3    H239970   5.409   5.538   2.960
13343TIP3   OH239971   6.638   5.258   3.959
13343TIP3    H139972   6.679   5.291   3.879
13343TIP3    H239973   6.676   5.311   4.029
13344TIP3   OH239974   2.820   5.123   3.276
13344TIP3    H139975   2.791   5.125   3.185
13344TIP3    H239976   2.900   5.176   3.277
13345TIP3   OH239977   7.859   1.993   4.753
13345TIP3    H139978   7.802   2.045   4.810
13345TIP3    H239979   7.839   1.902   4.776
13346TIP3   OH239980   6.676   0.569   0.026
13346TIP3    H139981   6.610   0.631   0.058
13346TIP3    H239982   6.734   0.621  -0.028
13347TIP3   OH239983   3.743   6.155   2.059
13347TIP3    H139984   3.669   6.094   2.060
13347TIP3    H239985   3.787   6.137   1.976
13348TIP3   OH239986   2.206   6.933   0.321
13348TIP3    H139987   2.216   6.983   0.403
13348TIP3    H239988   2.263   6.978   0.259
13349TIP3   OH239989   1.202   1.259   6.441
13349TIP3    H139990   1.155   1.308   6.373
13349TIP3    H239991   1.271   1.319   6.469
13350TIP3   OH239992   2.036   0.451   1.312
13350TIP3    H139993   1.964   0.489   1.262
13350TIP3    H239994   1.994   0.409   1.387
13351TIP3   OH239995   4.573   3.628   4.508
13351TIP3    H139996   4.535   3.542   4.492
13351TIP3    H239997   4.513   3.689   4.466
13352TIP3   OH239998   7.379   5.119   5.990
13352TIP3    H139999   7.474   5.130   5.978
13352TIP3    H240000   7.366   5.131   6.085
13353TIP3   OH240001   4.172   2.878   5.345
13353TIP3    H140002   4.170   2.887   5.440
13353TIP3    H240003   4.264   2.863   5.323
13354TIP3   OH240004   6.897   5.794   4.241
13354TIP3    H140005   6.923   5.721   4.297
13354TIP3    H240006   6.878   5.754   4.156
13355TIP3   OH240007   8.290   1.183   5.870
13355TIP3    H140008   8.245   1.111   5.914
13355TIP3    H240009   8.312   1.244   5.941
13356TIP3   OH240010   1.843   4.273   3.954
13356TIP3    H140011   1.788   4.205   3.914
13356TIP3    H240012   1.814   4.354   3.914
13357TIP3   OH240013   0.022   7.035   1.799
13357TIP3    H140014   0.115   7.029   1.823
13357TIP3    H240015  -0.018   7.087   1.869
13358TIP3   OH240016   4.738   6.393   1.422
13358TIP3    H140017   4.739   6.381   1.327
13358TIP3    H240018   4.710   6.483   1.435
13359TIP3   OH240019   0.738   6.251   5.744
13359TIP3    H140020   0.761   6.331   5.696
13359TIP3    H240021   0.765   6.269   5.834
13360TIP3   OH240022   6.166   6.008   0.151
13360TIP3    H140023   6.157   6.100   0.176
13360TIP3    H240024   6.096   5.963   0.199
13361TIP3   OH240025   7.050   3.424   3.700
13361TIP3    H140026   6.962   3.396   3.673
13361TIP3    H240027   7.101   3.422   3.619
13362TIP3   OH240028   7.120   6.405   4.255
13362TIP3    H140029   7.211   6.374   4.255
13362TIP3    H240030   7.109   6.446   4.169
13363TIP3   OH240031   4.652   1.449   5.936
13363TIP3    H140032   4.604   1.522   5.897
13363TIP3    H240033   4.594   1.374   5.929
13364TIP3   OH240034   6.908   1.808   4.367
13364TIP3    H140035   6.870   1.894   4.348
13364TIP3    H240036   6.862   1.748   4.308
13365TIP3   OH240037   5.992   4.693   1.356
13365TIP3    H140038   5.956   4.764   1.409
13365TIP3    H240039   6.016   4.626   1.420
13366TIP3   OH240040   3.713  -0.027   6.052
13366TIP3    H140041   3.778   0.032   6.012
13366TIP3    H240042   3.728  -0.018   6.146
13367TIP3   OH240043   5.710   5.392   2.652
13367TIP3    H140044   5.748   5.305   2.667
13367TIP3    H240045   5.616   5.380   2.670
13368TIP3   OH240046   4.166   5.788   6.314
13368TIP3    H140047   4.076   5.812   6.293
13368TIP3    H240048   4.220   5.852   6.268
13369TIP3   OH240049   6.723   0.027   5.256
13369TIP3    H140050   6.636  -0.011   5.269
13369TIP3    H240051   6.771   0.005   5.335
13370TIP3   OH240052   6.549   2.357   2.810
13370TIP3    H140053   6.463   2.319   2.793
13370TIP3    H240054   6.530   2.445   2.841
13371TIP3   OH240055   4.365   3.575   0.987
13371TIP3    H140056   4.289   3.536   1.031
13371TIP3    H240057   4.337   3.586   0.896
13372TIP3   OH240058   0.447   0.400   3.345
13372TIP3    H140059   0.539   0.422   3.364
13372TIP3    H240060   0.434   0.314   3.386
13373TIP3   OH240061   1.957   7.804   2.171
13373TIP3    H140062   2.018   7.835   2.104
13373TIP3    H240063   1.907   7.735   2.128
13374TIP3   OH240064   1.226   4.871   2.849
13374TIP3    H140065   1.251   4.804   2.785
13374TIP3    H240066   1.259   4.953   2.811
13375TIP3   OH240067   4.202   6.271   5.219
13375TIP3    H140068   4.210   6.340   5.285
13375TIP3    H240069   4.111   6.276   5.189
13376TIP3   OH240070   8.115   0.112   0.696
13376TIP3    H140071   8.179   0.103   0.767
13376TIP3    H240072   8.045   0.051   0.719
13377TIP3   OH240073   1.588   1.880   2.046
13377TIP3    H140074   1.640   1.805   2.018
13377TIP3    H240075   1.546   1.911   1.965
13378TIP3   OH240076   0.011   0.845   4.763
13378TIP3    H140077   0.069   0.880   4.830
13378TIP3    H240078   0.037   0.753   4.754
13379TIP3   OH240079   1.068   1.231   3.341
13379TIP3    H140080   1.011   1.229   3.264
13379TIP3    H240081   1.128   1.304   3.324
13380TIP3   OH240082   0.199   2.461   4.559
13380TIP3    H140083   0.199   2.383   4.614
13380TIP3    H240084   0.255   2.523   4.606
13381TIP3   OH240085   7.993   0.104   4.880
13381TIP3    H140086   8.071   0.121   4.826
13381TIP3    H240087   8.028   0.094   4.969
13382TIP3   OH240088   6.713   7.614   4.101
13382TIP3    H140089   6.703   7.687   4.162
13382TIP3    H240090   6.807   7.603   4.092
13383TIP3   OH240091   2.836   6.099   5.053
13383TIP3    H140092   2.817   6.159   4.981
13383TIP3    H240093   2.751   6.080   5.091
13384TIP3   OH240094   4.875   6.527   6.238
13384TIP3    H140095   4.967   6.512   6.261
13384TIP3    H240096   4.832   6.443   6.251
13385TIP3   OH240097   5.801   6.900   3.458
13385TIP3    H140098   5.855   6.874   3.383
13385TIP3    H240099   5.837   6.850   3.531
13386TIP3   OH240100   6.473   6.266   6.616
13386TIP3    H140101   6.514   6.331   6.559
13386TIP3    H240102   6.379   6.282   6.606
13387TIP3   OH240103   1.054   0.732   5.460
13387TIP3    H140104   1.134   0.786   5.462
13387TIP3    H240105   1.075   0.662   5.398
13388TIP3   OH240106   1.592   0.644   2.532
13388TIP3    H140107   1.632   0.558   2.515
13388TIP3    H240108   1.559   0.672   2.447
13389TIP3   OH240109   0.392   0.722   4.937
13389TIP3    H140110   0.462   0.691   4.995
13389TIP3    H240111   0.321   0.746   4.997
13390TIP3   OH240112   2.378   3.130   0.972
13390TIP3    H140113   2.409   3.068   0.906
13390TIP3    H240114   2.284   3.136   0.957
13391TIP3   OH240115   4.238   4.720   2.309
13391TIP3    H140116   4.302   4.727   2.239
13391TIP3    H240117   4.265   4.786   2.373
13392TIP3   OH240118   6.821   1.911   1.911
13392TIP3    H140119   6.881   1.937   1.981
13392TIP3    H240120   6.873   1.853   1.855
13393TIP3   OH240121   5.191   5.149   6.116
13393TIP3    H140122   5.273   5.100   6.108
13393TIP3    H240123   5.142   5.103   6.185
13394TIP3   OH240124   5.279   4.844   5.478
13394TIP3    H140125   5.373   4.835   5.494
13394TIP3    H240126   5.250   4.909   5.542
13395TIP3   OH240127   7.813   1.164   4.578
13395TIP3    H140128   7.819   1.107   4.655
13395TIP3    H240129   7.768   1.112   4.512
13396TIP3   OH240130   1.680   2.795   5.502
13396TIP3    H140131   1.631   2.820   5.581
13396TIP3    H240132   1.627   2.828   5.429
13397TIP3   OH240133   5.392   0.755   2.103
13397TIP3    H140134   5.346   0.822   2.153
13397TIP3    H240135   5.468   0.800   2.066
13398TIP3   OH240136   7.728   0.233   6.838
13398TIP3    H140137   7.709   0.141   6.855
13398TIP3    H240138   7.661   0.260   6.775
13399TIP3   OH240139   2.127   7.508   5.094
13399TIP3    H140140   2.135   7.418   5.125
13399TIP3    H240141   2.034   7.529   5.104
13400TIP3   OH240142   8.285   2.170   2.233
13400TIP3    H140143   8.190   2.171   2.225
13400TIP3    H240144   8.303   2.114   2.308
13401TIP3   OH240145   6.320   6.245   4.978
13401TIP3    H140146   6.400   6.274   4.935
13401TIP3    H240147   6.328   6.277   5.068
13402TIP3   OH240148   1.980   4.640   1.905
13402TIP3    H140149   2.040   4.576   1.866
13402TIP3    H240150   1.965   4.606   1.994
13403TIP3   OH240151   2.538   0.418   1.512
13403TIP3    H140152   2.532   0.355   1.583
13403TIP3    H240153   2.631   0.443   1.510
13404TIP3   OH240154   1.528   3.999   4.081
13404TIP3    H140155   1.618   3.976   4.057
13404TIP3    H240156   1.493   3.919   4.120
13405TIP3   OH240157   6.587   5.496   0.828
13405TIP3    H140158   6.502   5.500   0.871
13405TIP3    H240159   6.576   5.434   0.757
13406TIP3   OH240160   4.822   7.812   2.696
13406TIP3    H140161   4.888   7.753   2.733
13406TIP3    H240162   4.748   7.754   2.675
13407TIP3   OH240163   7.183   3.764   6.138
13407TIP3    H140164   7.221   3.731   6.220
13407TIP3    H240165   7.088   3.751   6.149
13408TIP3   OH240166   4.027   7.581   1.626
13408TIP3    H140167   4.046   7.531   1.547
13408TIP3    H240168   4.070   7.666   1.611
13409TIP3   OH240169   2.859   4.129   4.878
13409TIP3    H140170   2.850   4.222   4.859
13409TIP3    H240171   2.796   4.113   4.948
13410TIP3   OH240172   4.045   5.111   1.662
13410TIP3    H140173   4.037   5.024   1.703
13410TIP3    H240174   4.087   5.164   1.729
13411TIP3   OH240175   0.420   0.220   5.769
13411TIP3    H140176   0.380   0.307   5.771
13411TIP3    H240177   0.506   0.234   5.730
13412TIP3   OH240178   5.381   3.051   4.671
13412TIP3    H140179   5.336   3.129   4.640
13412TIP3    H240180   5.332   3.024   4.749
13413TIP3   OH240181   1.847   3.147   3.559
13413TIP3    H140182   1.891   3.200   3.626
13413TIP3    H240183   1.754   3.166   3.572
13414TIP3   OH240184   2.769   6.640   2.521
13414TIP3    H140185   2.711   6.651   2.446
13414TIP3    H240186   2.711   6.629   2.596
13415TIP3   OH240187   7.360   2.542   2.325
13415TIP3    H140188   7.416   2.469   2.353
13415TIP3    H240189   7.273   2.519   2.357
13416TIP3   OH240190   1.625   4.790   2.129
13416TIP3    H140191   1.578   4.744   2.199
13416TIP3    H240192   1.612   4.735   2.052
13417TIP3   OH240193   4.003   6.280   2.794
13417TIP3    H140194   3.926   6.250   2.745
13417TIP3    H240195   3.992   6.375   2.799
13418TIP3   OH240196   7.498   1.233   0.593
13418TIP3    H140197   7.510   1.186   0.511
13418TIP3    H240198   7.586   1.262   0.617
13419TIP3   OH240199   4.862   0.071   1.958
13419TIP3    H140200   4.904   0.151   1.989
13419TIP3    H240201   4.856   0.081   1.863
13420TIP3   OH240202   7.078   2.775   4.103
13420TIP3    H140203   7.145   2.808   4.043
13420TIP3    H240204   7.026   2.852   4.126
13421TIP3   OH240205   6.764   6.053   0.534
13421TIP3    H140206   6.823   5.981   0.511
13421TIP3    H240207   6.701   6.056   0.461
13422TIP3   OH240208   7.053   4.604   5.908
13422TIP3    H140209   7.139   4.616   5.947
13422TIP3    H240210   7.008   4.543   5.968
13423TIP3   OH240211   0.415   1.725   3.111
13423TIP3    H140212   0.490   1.744   3.167
13423TIP3    H240213   0.350   1.687   3.169
13424TIP3   OH240214   7.897   5.167   3.492
13424TIP3    H140215   7.941   5.225   3.430
13424TIP3    H240216   7.867   5.225   3.562
13425TIP3   OH240217   0.582   3.307   1.239
13425TIP3    H140218   0.676   3.311   1.223
13425TIP3    H240219   0.574   3.282   1.331
13426TIP3   OH240220   4.340   0.075   3.507
13426TIP3    H140221   4.330  -0.016   3.481
13426TIP3    H240222   4.386   0.072   3.590
13427TIP3   OH240223   1.188   2.635   4.815
13427TIP3    H140224   1.276   2.598   4.823
13427TIP3    H240225   1.132   2.573   4.861
13428TIP3   OH240226   0.908   6.674   3.127
13428TIP3    H140227   0.839   6.613   3.154
13428TIP3    H240228   0.987   6.643   3.173
13429TIP3   OH240229   3.258   0.224   1.440
13429TIP3    H140230   3.197   0.151   1.430
13429TIP3    H240231   3.273   0.255   1.351
13430TIP3   OH240232   7.161   0.135   0.952
13430TIP3    H140233   7.147   0.228   0.969
13430TIP3    H240234   7.255   0.128   0.936
13431TIP3   OH240235   0.694   3.600   0.918
13431TIP3    H140236   0.629   3.668   0.934
13431TIP3    H240237   0.769   3.625   0.971
13432TIP3   OH240238   6.756   0.444   2.666
13432TIP3    H140239   6.747   0.390   2.744
13432TIP3    H240240   6.764   0.534   2.700
13433TIP3   OH240241   7.127   6.366   2.094
13433TIP3    H140242   7.212   6.328   2.072
13433TIP3    H240243   7.127   6.371   2.190
13434TIP3   OH240244   4.254   7.006   6.217
13434TIP3    H140245   4.261   6.944   6.145
13434TIP3    H240246   4.342   7.011   6.253
13435TIP3   OH240247   0.424   4.729   6.074
13435TIP3    H140248   0.468   4.742   6.157
13435TIP3    H240249   0.460   4.646   6.041
13436TIP3   OH240250   4.614   3.220   3.609
13436TIP3    H140251   4.635   3.142   3.660
13436TIP3    H240252   4.583   3.187   3.525
13437TIP3   OH240253   7.140   0.149   5.741
13437TIP3    H140254   7.078   0.207   5.786
13437TIP3    H240255   7.202   0.122   5.808
13438TIP3   OH240256   4.210   6.735   5.702
13438TIP3    H140257   4.230   6.704   5.614
13438TIP3    H240258   4.295   6.759   5.739
13439TIP3   OH240259   7.278   1.820   2.096
13439TIP3    H140260   7.293   1.725   2.096
13439TIP3    H240261   7.308   1.849   2.182
13440TIP3   OH240262   2.861   5.429   3.690
13440TIP3    H140263   2.897   5.341   3.694
13440TIP3    H240264   2.874   5.465   3.778
13441TIP3   OH240265   0.728   6.471   3.195
13441TIP3    H140266   0.661   6.405   3.176
13441TIP3    H240267   0.680   6.545   3.232
13442TIP3   OH240268   1.673   4.312   0.636
13442TIP3    H140269   1.723   4.389   0.610
13442TIP3    H240270   1.719   4.239   0.595
13443TIP3   OH240271   6.245   2.697   1.410
13443TIP3    H140272   6.185   2.692   1.484
13443TIP3    H240273   6.201   2.649   1.340
13444TIP3   OH240274   5.138   2.055   1.213
13444TIP3    H140275   5.061   2.105   1.185
13444TIP3    H240276   5.202   2.070   1.144
13445TIP3   OH240277   5.171   1.317   2.521
13445TIP3    H140278   5.197   1.406   2.497
13445TIP3    H240279   5.247   1.263   2.497
13446TIP3   OH240280   7.133   5.699   3.319
13446TIP3    H140281   7.219   5.723   3.352
13446TIP3    H240282   7.080   5.778   3.330
13447TIP3   OH240283   4.382   2.661   2.217
13447TIP3    H140284   4.379   2.626   2.306
13447TIP3    H240285   4.437   2.599   2.169
13448TIP3   OH240286   1.190   1.448   3.878
13448TIP3    H140287   1.249   1.458   3.803
13448TIP3    H240288   1.114   1.401   3.843
13449TIP3   OH240289   4.609   6.366   0.012
13449TIP3    H140290   4.618   6.461   0.011
13449TIP3    H240291   4.643   6.339   0.098
13450TIP3   OH240292   8.111   5.452   2.455
13450TIP3    H140293   8.149   5.370   2.487
13450TIP3    H240294   8.171   5.520   2.487
13451TIP3   OH240295   1.855   7.281   1.360
13451TIP3    H140296   1.904   7.319   1.434
13451TIP3    H240297   1.883   7.332   1.284
13452TIP3   OH240298   6.467   4.152   2.692
13452TIP3    H140299   6.444   4.229   2.743
13452TIP3    H240300   6.511   4.094   2.755
13453TIP3   OH240301   3.478   2.548   1.656
13453TIP3    H140302   3.453   2.633   1.693
13453TIP3    H240303   3.472   2.488   1.730
13454TIP3   OH240304   8.197   7.358   3.281
13454TIP3    H140305   8.161   7.445   3.264
13454TIP3    H240306   8.121   7.300   3.277
13455TIP3   OH240307   2.523   2.549   0.743
13455TIP3    H140308   2.587   2.597   0.691
13455TIP3    H240309   2.459   2.517   0.680
13456TIP3   OH240310   5.436   5.559   2.361
13456TIP3    H140311   5.445   5.543   2.455
13456TIP3    H240312   5.364   5.621   2.354
13457TIP3   OH240313   7.823   6.950   4.661
13457TIP3    H140314   7.733   6.951   4.693
13457TIP3    H240315   7.818   6.902   4.578
13458TIP3   OH240316   1.238   3.313   1.948
13458TIP3    H140317   1.298   3.249   1.910
13458TIP3    H240318   1.163   3.262   1.976
13459TIP3   OH240319   6.385   1.219   5.369
13459TIP3    H140320   6.357   1.266   5.448
13459TIP3    H240321   6.342   1.264   5.297
13460TIP3   OH240322   6.184   6.711   4.528
13460TIP3    H140323   6.090   6.710   4.513
13460TIP3    H240324   6.201   6.635   4.585
13461TIP3   OH240325   7.141   0.166   0.264
13461TIP3    H140326   7.071   0.152   0.327
13461TIP3    H240327   7.218   0.186   0.318
13462TIP3   OH240328   3.572   7.775   1.922
13462TIP3    H140329   3.571   7.682   1.942
13462TIP3    H240330   3.614   7.816   1.997
13463TIP3   OH240331   6.620   2.847   4.514
13463TIP3    H140332   6.613   2.862   4.420
13463TIP3    H240333   6.628   2.935   4.552
13464TIP3   OH240334   5.423   4.585   3.092
13464TIP3    H140335   5.447   4.625   3.008
13464TIP3    H240336   5.360   4.647   3.130
13465TIP3   OH240337   4.009   1.049   3.876
13465TIP3    H140338   3.975   0.965   3.845
13465TIP3    H240339   4.055   1.086   3.800
13466TIP3   OH240340   5.287   6.676   2.565
13466TIP3    H140341   5.377   6.700   2.587
13466TIP3    H240342   5.250   6.643   2.646
13467TIP3   OH240343   5.460   1.904   4.302
13467TIP3    H140344   5.368   1.919   4.279
13467TIP3    H240345   5.474   1.958   4.380
13468TIP3   OH240346   6.236   5.420   2.915
13468TIP3    H140347   6.284   5.339   2.937
13468TIP3    H240348   6.144   5.397   2.928
13469TIP3   OH240349   5.524   4.103   0.707
13469TIP3    H140350   5.593   4.044   0.736
13469TIP3    H240351   5.450   4.085   0.765
13470TIP3   OH240352   3.888   7.431   1.001
13470TIP3    H140353   3.796   7.455   0.987
13470TIP3    H240354   3.886   7.336   1.012
13471TIP3   OH240355   4.784   0.034   0.192
13471TIP3    H140356   4.764  -0.045   0.242
13471TIP3    H240357   4.865   0.013   0.146
13472TIP3   OH240358   4.642   6.127   5.140
13472TIP3    H140359   4.596   6.135   5.224
13472TIP3    H240360   4.581   6.082   5.083
13473TIP3   OH240361   2.658   7.741   1.088
13473TIP3    H140362   2.667   7.732   0.993
13473TIP3    H240363   2.594   7.812   1.099
13474TIP3   OH240364   1.671   5.092   5.588
13474TIP3    H140365   1.613   5.165   5.568
13474TIP3    H240366   1.750   5.133   5.622
13475TIP3   OH240367   6.593   7.275   5.443
13475TIP3    H140368   6.532   7.319   5.384
13475TIP3    H240369   6.553   7.190   5.461
13476TIP3   OH240370   2.545   1.148   2.648
13476TIP3    H140371   2.529   1.227   2.701
13476TIP3    H240372   2.639   1.131   2.659
13477TIP3   OH240373   3.834   2.405   3.019
13477TIP3    H140374   3.847   2.440   2.930
13477TIP3    H240375   3.854   2.479   3.077
13478TIP3   OH240376   7.092   3.311   6.627
13478TIP3    H140377   7.097   3.217   6.645
13478TIP3    H240378   7.009   3.338   6.667
13479TIP3   OH240379   3.451   3.337   6.116
13479TIP3    H140380   3.469   3.409   6.177
13479TIP3    H240381   3.490   3.260   6.157
13480TIP3   OH240382   1.972   6.531   1.917
13480TIP3    H140383   1.904   6.486   1.968
13480TIP3    H240384   1.937   6.619   1.903
13481TIP3   OH240385   4.550   6.914   4.494
13481TIP3    H140386   4.564   6.842   4.555
13481TIP3    H240387   4.637   6.948   4.476
13482TIP3   OH240388   5.858   5.863   0.704
13482TIP3    H140389   5.763   5.880   0.705
13482TIP3    H240390   5.891   5.911   0.780
13483TIP3   OH240391   7.429   6.473   2.827
13483TIP3    H140392   7.487   6.501   2.756
13483TIP3    H240393   7.445   6.536   2.897
13484TIP3   OH240394   1.061   7.198   1.022
13484TIP3    H140395   1.065   7.257   1.097
13484TIP3    H240396   1.074   7.256   0.946
13485TIP3   OH240397   3.693   6.333   3.171
13485TIP3    H140398   3.671   6.348   3.263
13485TIP3    H240399   3.666   6.243   3.154
13486TIP3   OH240400   2.961   5.097   2.382
13486TIP3    H140401   2.925   5.139   2.460
13486TIP3    H240402   2.896   5.030   2.359
13487TIP3   OH240403   0.584   5.672   1.850
13487TIP3    H140404   0.632   5.680   1.768
13487TIP3    H240405   0.536   5.754   1.858
13488TIP3   OH240406   4.061   6.262   6.722
13488TIP3    H140407   4.128   6.220   6.777
13488TIP3    H240408   3.983   6.207   6.733
13489TIP3   OH240409   4.446   1.339   6.617
13489TIP3    H140410   4.359   1.298   6.617
13489TIP3    H240411   4.471   1.343   6.525
13490TIP3   OH240412   6.886   3.836   4.985
13490TIP3    H140413   6.868   3.890   5.062
13490TIP3    H240414   6.858   3.891   4.911
13491TIP3   OH240415   3.311   1.198   3.720
13491TIP3    H140416   3.359   1.266   3.767
13491TIP3    H240417   3.368   1.121   3.724
13492TIP3   OH240418   0.081   3.337   1.041
13492TIP3    H140419   0.049   3.427   1.053
13492TIP3    H240420   0.005   3.289   1.009
13493TIP3   OH240421   4.740   1.895   5.622
13493TIP3    H140422   4.828   1.875   5.591
13493TIP3    H240423   4.734   1.851   5.707
13494TIP3   OH240424   1.614   4.506   3.188
13494TIP3    H140425   1.630   4.587   3.237
13494TIP3    H240426   1.549   4.530   3.122
13495TIP3   OH240427   6.018   4.385   2.278
13495TIP3    H140428   5.987   4.302   2.240
13495TIP3    H240429   6.083   4.359   2.342
13496TIP3   OH240430   2.616   0.465   6.047
13496TIP3    H140431   2.707   0.463   6.020
13496TIP3    H240432   2.616   0.428   6.136
13497TIP3   OH240433   2.251   4.682   5.297
13497TIP3    H140434   2.171   4.630   5.304
13497TIP3    H240435   2.313   4.624   5.253
13498TIP3   OH240436  -0.031   4.521   6.272
13498TIP3    H140437  -0.001   4.440   6.229
13498TIP3    H240438   0.003   4.591   6.216
13499TIP3   OH240439   3.975   4.195   1.843
13499TIP3    H140440   3.989   4.283   1.879
13499TIP3    H240441   3.921   4.210   1.765
13500TIP3   OH240442   2.160   7.797   3.575
13500TIP3    H140443   2.227   7.850   3.619
13500TIP3    H240444   2.148   7.721   3.632
13501TIP3   OH240445   2.626   3.856   6.132
13501TIP3    H140446   2.671   3.937   6.108
13501TIP3    H240447   2.552   3.885   6.185
13502TIP3   OH240448   5.536   5.762   5.046
13502TIP3    H140449   5.465   5.824   5.058
13502TIP3    H240450   5.522   5.695   5.112
13503TIP3   OH240451   5.285   5.227   0.619
13503TIP3    H140452   5.316   5.152   0.670
13503TIP3    H240453   5.365   5.268   0.587
13504TIP3   OH240454   6.021   5.973   5.317
13504TIP3    H140455   5.987   6.048   5.269
13504TIP3    H240456   6.038   5.907   5.250
13505TIP3   OH240457   2.779   6.109   0.625
13505TIP3    H140458   2.705   6.110   0.564
13505TIP3    H240459   2.818   6.196   0.618
13506TIP3   OH240460   1.862   4.960   5.783
13506TIP3    H140461   1.863   5.051   5.754
13506TIP3    H240462   1.937   4.953   5.842
13507TIP3   OH240463   5.175   4.987   5.746
13507TIP3    H140464   5.219   4.916   5.793
13507TIP3    H240465   5.087   4.953   5.729
13508TIP3   OH240466   2.709   3.025   3.083
13508TIP3    H140467   2.800   3.036   3.110
13508TIP3    H240468   2.658   3.049   3.161
13509TIP3   OH240469   0.412   7.137   2.899
13509TIP3    H140470   0.357   7.145   2.977
13509TIP3    H240471   0.460   7.056   2.911
13510TIP3   OH240472   3.273   6.171   6.216
13510TIP3    H140473   3.199   6.117   6.244
13510TIP3    H240474   3.306   6.209   6.297
13511TIP3   OH240475   2.877   0.700   4.773
13511TIP3    H140476   2.856   0.612   4.740
13511TIP3    H240477   2.921   0.743   4.699
13512TIP3   OH240478   4.254   4.099   6.300
13512TIP3    H140479   4.251   4.191   6.273
13512TIP3    H240480   4.216   4.051   6.226
13513TIP3   OH240481   1.336   6.349   3.804
13513TIP3    H140482   1.369   6.276   3.751
13513TIP3    H240483   1.331   6.314   3.893
13514TIP3   OH240484   0.513   6.980   3.294
13514TIP3    H140485   0.517   7.075   3.295
13514TIP3    H240486   0.473   6.958   3.210
13515TIP3   OH240487   5.386   4.970   4.874
13515TIP3    H140488   5.314   4.983   4.812
13515TIP3    H240489   5.361   5.023   4.950
13516TIP3   OH240490   5.164   6.886   4.834
13516TIP3    H140491   5.080   6.928   4.853
13516TIP3    H240492   5.161   6.868   4.740
13517TIP3   OH240493   0.038   5.246   3.289
13517TIP3    H140494  -0.057   5.240   3.276
13517TIP3    H240495   0.074   5.237   3.201
13518TIP3   OH240496   3.301   1.114   4.953
13518TIP3    H140497   3.305   1.189   4.893
13518TIP3    H240498   3.227   1.132   5.010
13519TIP3   OH240499   1.202   2.015   4.890
13519TIP3    H140500   1.219   1.923   4.909
13519TIP3    H240501   1.200   2.020   4.794
13520TIP3   OH240502   4.270   5.157   4.390
13520TIP3    H140503   4.326   5.225   4.427
13520TIP3    H240504   4.227   5.199   4.315
13521TIP3   OH240505   0.870   1.033   6.126
13521TIP3    H140506   0.852   0.958   6.069
13521TIP3    H240507   0.937   1.083   6.079
13522TIP3   OH240508   2.871   4.985   1.636
13522TIP3    H140509   2.881   4.982   1.541
13522TIP3    H240510   2.912   4.904   1.667
13523TIP3   OH240511   7.285   4.647   5.137
13523TIP3    H140512   7.306   4.740   5.132
13523TIP3    H240513   7.262   4.622   5.047
13524TIP3   OH240514   7.760   7.307   2.313
13524TIP3    H140515   7.836   7.355   2.347
13524TIP3    H240516   7.716   7.369   2.256
13525TIP3   OH240517   1.855   2.033   3.125
13525TIP3    H140518   1.764   2.040   3.095
13525TIP3    H240519   1.900   2.103   3.078
13526TIP3   OH240520   1.399   7.052   1.577
13526TIP3    H140521   1.397   6.992   1.651
13526TIP3    H240522   1.400   6.996   1.500
13527TIP3   OH240523   5.131   4.177   4.543
13527TIP3    H140524   5.060   4.142   4.490
13527TIP3    H240525   5.159   4.256   4.498
13528TIP3   OH240526   3.326   4.009   0.145
13528TIP3    H140527   3.301   4.013   0.053
13528TIP3    H240528   3.244   4.021   0.193
13529TIP3   OH240529   7.649   1.889   2.120
13529TIP3    H140530   7.677   1.979   2.101
13529TIP3    H240531   7.664   1.842   2.039
13530TIP3   OH240532   0.881   7.729   5.449
13530TIP3    H140533   0.838   7.665   5.391
13530TIP3    H240534   0.869   7.692   5.537
13531TIP3   OH240535   1.558   5.029   2.913
13531TIP3    H140536   1.534   5.122   2.908
13531TIP3    H240537   1.492   4.990   2.971
13532TIP3   OH240538   7.467   1.293   2.885
13532TIP3    H140539   7.530   1.349   2.841
13532TIP3    H240540   7.448   1.337   2.968
13533TIP3   OH240541   5.983   5.288   3.955
13533TIP3    H140542   6.012   5.200   3.931
13533TIP3    H240543   5.942   5.322   3.876
13534TIP3   OH240544   1.319   2.192   5.939
13534TIP3    H140545   1.323   2.164   6.031
13534TIP3    H240546   1.316   2.111   5.889
13535TIP3   OH240547   0.469   6.514   5.546
13535TIP3    H140548   0.388   6.564   5.536
13535TIP3    H240549   0.454   6.460   5.624
13536TIP3   OH240550   4.109   6.751   6.352
13536TIP3    H140551   4.016   6.772   6.345
13536TIP3    H240552   4.115   6.658   6.333
13537TIP3   OH240553   5.425   6.956   5.682
13537TIP3    H140554   5.418   6.994   5.769
13537TIP3    H240555   5.482   7.017   5.634
13538TIP3   OH240556   5.546   7.134   4.069
13538TIP3    H140557   5.472   7.184   4.105
13538TIP3    H240558   5.535   7.046   4.105
13539TIP3   OH240559   0.367   4.545   4.672
13539TIP3    H140560   0.400   4.616   4.728
13539TIP3    H240561   0.427   4.545   4.597
13540TIP3   OH240562   7.309   0.976   3.892
13540TIP3    H140563   7.386   0.937   3.850
13540TIP3    H240564   7.324   1.071   3.885
13541TIP3   OH240565   0.552   3.362   4.086
13541TIP3    H140566   0.521   3.451   4.073
13541TIP3    H240567   0.472   3.309   4.085
13542TIP3   OH240568   1.421   5.631   0.215
13542TIP3    H140569   1.465   5.619   0.299
13542TIP3    H240570   1.354   5.696   0.232
13543TIP3   OH240571   1.621   7.636   6.576
13543TIP3    H140572   1.573   7.671   6.651
13543TIP3    H240573   1.700   7.598   6.614
13544TIP3   OH240574   6.699   2.780   4.810
13544TIP3    H140575   6.662   2.865   4.785
13544TIP3    H240576   6.626   2.720   4.807
13545TIP3   OH240577   0.451   6.846   1.361
13545TIP3    H140578   0.476   6.931   1.398
13545TIP3    H240579   0.505   6.837   1.283
13546TIP3   OH240580   6.158   0.718   6.392
13546TIP3    H140581   6.182   0.810   6.400
13546TIP3    H240582   6.063   0.717   6.401
13547TIP3   OH240583   6.298   5.417   0.757
13547TIP3    H140584   6.279   5.341   0.813
13547TIP3    H240585   6.236   5.484   0.786
13548TIP3   OH240586   7.333   1.373   1.865
13548TIP3    H140587   7.404   1.333   1.914
13548TIP3    H240588   7.266   1.304   1.858
13549TIP3   OH240589   3.075   2.853   1.067
13549TIP3    H140590   3.107   2.904   1.142
13549TIP3    H240591   3.152   2.846   1.010
13550TIP3   OH240592   4.365   0.931   2.790
13550TIP3    H140593   4.311   0.852   2.796
13550TIP3    H240594   4.452   0.899   2.764
13551TIP3   OH240595   2.157   6.202   2.081
13551TIP3    H140596   2.085   6.221   2.141
13551TIP3    H240597   2.115   6.156   2.008
13552TIP3   OH240598   1.321   4.320   6.025
13552TIP3    H140599   1.361   4.398   6.062
13552TIP3    H240600   1.237   4.351   5.990
13553TIP3   OH240601   3.188   6.600   0.213
13553TIP3    H140602   3.206   6.636   0.299
13553TIP3    H240603   3.174   6.506   0.228
13554TIP3   OH240604   7.540   7.361   0.425
13554TIP3    H140605   7.576   7.448   0.443
13554TIP3    H240606   7.448   7.367   0.451
13555TIP3   OH240607   7.812   5.181   0.643
13555TIP3    H140608   7.885   5.184   0.581
13555TIP3    H240609   7.796   5.087   0.657
13556TIP3   OH240610   0.606   5.312   3.006
13556TIP3    H140611   0.545   5.359   3.063
13556TIP3    H240612   0.584   5.342   2.918
13557TIP3   OH240613   3.089   1.623   2.210
13557TIP3    H140614   3.090   1.546   2.154
13557TIP3    H240615   3.033   1.598   2.284
13558TIP3   OH240616   5.531   0.993   3.815
13558TIP3    H140617   5.460   0.978   3.878
13558TIP3    H240618   5.602   1.030   3.868
13559TIP3   OH240619   2.711   3.142   1.041
13559TIP3    H140620   2.636   3.157   1.098
13559TIP3    H240621   2.689   3.062   0.992
13560TIP3   OH240622   2.381   2.335   2.870
13560TIP3    H140623   2.460   2.339   2.816
13560TIP3    H240624   2.414   2.320   2.959
13561TIP3   OH240625   3.214   0.423   6.306
13561TIP3    H140626   3.213   0.387   6.394
13561TIP3    H240627   3.229   0.348   6.249
13562TIP3   OH240628   4.331   7.356   5.133
13562TIP3    H140629   4.330   7.452   5.128
13562TIP3    H240630   4.424   7.333   5.129
13563TIP3   OH240631   1.948   0.438   2.513
13563TIP3    H140632   1.921   0.361   2.563
13563TIP3    H240633   2.044   0.435   2.514
13564TIP3   OH240634   6.757   2.896   1.877
13564TIP3    H140635   6.742   2.976   1.827
13564TIP3    H240636   6.842   2.864   1.847
13565TIP3   OH240637   4.754   3.377   2.743
13565TIP3    H140638   4.673   3.399   2.787
13565TIP3    H240639   4.734   3.298   2.693
13566TIP3   OH240640   2.159   2.143   5.673
13566TIP3    H140641   2.207   2.149   5.591
13566TIP3    H240642   2.086   2.084   5.654
13567TIP3   OH240643   1.771   3.531   6.465
13567TIP3    H140644   1.768   3.436   6.453
13567TIP3    H240645   1.686   3.553   6.504
13568TIP3   OH240646   4.814   6.997   3.731
13568TIP3    H140647   4.823   6.912   3.688
13568TIP3    H240648   4.742   7.040   3.686
13569TIP3   OH240649   0.140   4.144   5.361
13569TIP3    H140650   0.071   4.198   5.399
13569TIP3    H240651   0.100   4.105   5.284
13570TIP3   OH240652   5.107   7.605   4.525
13570TIP3    H140653   5.092   7.645   4.610
13570TIP3    H240654   5.042   7.645   4.467
13571TIP3   OH240655   1.564   2.464   4.260
13571TIP3    H140656   1.520   2.456   4.175
13571TIP3    H240657   1.620   2.542   4.250
13572TIP3   OH240658   6.608   3.120   1.109
13572TIP3    H140659   6.607   3.163   1.023
13572TIP3    H240660   6.699   3.096   1.123
13573TIP3   OH240661   0.873   4.900   6.075
13573TIP3    H140662   0.968   4.911   6.088
13573TIP3    H240663   0.840   4.989   6.065
13574TIP3   OH240664   4.297   4.661   3.044
13574TIP3    H140665   4.244   4.603   3.099
13574TIP3    H240666   4.387   4.643   3.071
13575TIP3   OH240667   2.160   2.211   5.932
13575TIP3    H140668   2.172   2.116   5.932
13575TIP3    H240669   2.163   2.235   5.840
13576TIP3   OH240670   1.567   5.155   3.237
13576TIP3    H140671   1.481   5.150   3.197
13576TIP3    H240672   1.562   5.097   3.313
13577TIP3   OH240673   3.871   2.863   2.709
13577TIP3    H140674   3.852   2.875   2.616
13577TIP3    H240675   3.793   2.895   2.754
13578TIP3   OH240676   7.780   3.731   2.266
13578TIP3    H140677   7.754   3.661   2.326
13578TIP3    H240678   7.875   3.720   2.257
13579TIP3   OH240679   7.339   4.255   6.451
13579TIP3    H140680   7.367   4.224   6.365
13579TIP3    H240681   7.246   4.273   6.441
13580TIP3   OH240682   3.508   5.065   3.630
13580TIP3    H140683   3.528   4.999   3.564
13580TIP3    H240684   3.445   5.024   3.688
13581TIP3   OH240685   4.224   7.508   4.670
13581TIP3    H140686   4.159   7.577   4.660
13581TIP3    H240687   4.221   7.461   4.586
13582TIP3   OH240688   3.962   7.226   3.623
13582TIP3    H140689   4.027   7.156   3.616
13582TIP3    H240690   4.003   7.291   3.680
13583TIP3   OH240691   6.328   0.390   2.355
13583TIP3    H140692   6.403   0.439   2.390
13583TIP3    H240693   6.342   0.301   2.385
13584TIP3   OH240694   2.063   5.165   4.903
13584TIP3    H140695   2.048   5.152   4.809
13584TIP3    H240696   2.157   5.184   4.909
13585TIP3   OH240697   5.287   6.158   2.127
13585TIP3    H140698   5.362   6.188   2.077
13585TIP3    H240699   5.217   6.219   2.103
13586TIP3   OH240700   2.413   2.399   4.374
13586TIP3    H140701   2.374   2.317   4.404
13586TIP3    H240702   2.463   2.432   4.448
13587TIP3   OH240703   3.636   3.821   6.698
13587TIP3    H140704   3.589   3.774   6.767
13587TIP3    H240705   3.570   3.874   6.655
13588TIP3   OH240706   7.212   1.157   4.547
13588TIP3    H140707   7.186   1.065   4.538
13588TIP3    H240708   7.181   1.183   4.634
13589TIP3   OH240709   7.434   7.507   0.017
13589TIP3    H140710   7.492   7.503   0.093
13589TIP3    H240711   7.424   7.416  -0.011
13590TIP3   OH240712   1.096   1.522   0.090
13590TIP3    H140713   1.109   1.458   0.161
13590TIP3    H240714   1.115   1.473   0.010
13591TIP3   OH240715   1.272   6.876   3.172
13591TIP3    H140716   1.341   6.937   3.198
13591TIP3    H240717   1.318   6.793   3.156
13592TIP3   OH240718   1.738   5.703   2.742
13592TIP3    H140719   1.747   5.779   2.684
13592TIP3    H240720   1.715   5.740   2.827
13593TIP3   OH240721   5.343   5.642   2.045
13593TIP3    H140722   5.264   5.654   2.097
13593TIP3    H240723   5.312   5.643   1.954
13594TIP3   OH240724   1.594   2.502   0.917
13594TIP3    H140725   1.641   2.501   0.834
13594TIP3    H240726   1.648   2.556   0.975
13595TIP3   OH240727   5.664   1.188   1.244
13595TIP3    H140728   5.582   1.234   1.224
13595TIP3    H240729   5.732   1.246   1.210
13596TIP3   OH240730   6.803   1.899   6.582
13596TIP3    H140731   6.728   1.902   6.640
13596TIP3    H240732   6.769   1.867   6.498
13597TIP3   OH240733   6.193   3.927   5.246
13597TIP3    H140734   6.168   3.844   5.206
13597TIP3    H240735   6.265   3.959   5.192
13598TIP3   OH240736   4.693   1.032   1.273
13598TIP3    H140737   4.743   1.015   1.352
13598TIP3    H240738   4.616   1.080   1.303
13599TIP3   OH240739   3.810   6.642   5.495
13599TIP3    H140740   3.722   6.653   5.529
13599TIP3    H240741   3.867   6.681   5.561
13600TIP3   OH240742   2.194   5.096   6.665
13600TIP3    H140743   2.279   5.082   6.709
13600TIP3    H240744   2.204   5.179   6.619
13601TIP3   OH240745   1.738   3.094   2.167
13601TIP3    H140746   1.816   3.142   2.139
13601TIP3    H240747   1.743   3.011   2.119
13602TIP3   OH240748   4.248   4.386   0.579
13602TIP3    H140749   4.287   4.474   0.581
13602TIP3    H240750   4.183   4.387   0.649
13603TIP3   OH240751   0.645   2.398   0.931
13603TIP3    H140752   0.577   2.341   0.966
13603TIP3    H240753   0.669   2.455   1.004
13604TIP3   OH240754   0.106   3.621   6.304
13604TIP3    H140755   0.111   3.543   6.360
13604TIP3    H240756   0.109   3.695   6.365
13605TIP3   OH240757   1.975   0.579   6.482
13605TIP3    H140758   2.020   0.502   6.449
13605TIP3    H240759   1.911   0.601   6.415
13606TIP3   OH240760   4.753   2.202   6.506
13606TIP3    H140761   4.739   2.295   6.528
13606TIP3    H240762   4.735   2.197   6.412
13607TIP3   OH240763   2.482   2.637   5.794
13607TIP3    H140764   2.486   2.715   5.850
13607TIP3    H240765   2.569   2.599   5.801
13608TIP3   OH240766   1.708   2.383   2.920
13608TIP3    H140767   1.762   2.461   2.908
13608TIP3    H240768   1.644   2.386   2.850
13609TIP3   OH240769   4.609   0.792   3.249
13609TIP3    H140770   4.540   0.830   3.195
13609TIP3    H240771   4.571   0.785   3.337
13610TIP3   OH240772   6.368   7.447   1.371
13610TIP3    H140773   6.336   7.495   1.295
13610TIP3    H240774   6.438   7.501   1.406
13611TIP3   OH240775   1.708   5.481   5.324
13611TIP3    H140776   1.684   5.523   5.406
13611TIP3    H240777   1.660   5.530   5.257
13612TIP3   OH240778   4.255   7.705   2.270
13612TIP3    H140779   4.233   7.650   2.345
13612TIP3    H240780   4.350   7.717   2.277
13613TIP3   OH240781   0.370   2.828   0.336
13613TIP3    H140782   0.416   2.910   0.320
13613TIP3    H240783   0.348   2.796   0.248
13614TIP3   OH240784   5.918   6.646   4.823
13614TIP3    H140785   5.936   6.739   4.806
13614TIP3    H240786   5.999   6.612   4.860
13615TIP3   OH240787   4.264   5.622   2.369
13615TIP3    H140788   4.251   5.680   2.443
13615TIP3    H240789   4.240   5.675   2.292
13616TIP3   OH240790   4.861   1.284   5.528
13616TIP3    H140791   4.843   1.211   5.468
13616TIP3    H240792   4.813   1.358   5.490
13617TIP3   OH240793   2.972   0.983   2.847
13617TIP3    H140794   2.919   0.999   2.769
13617TIP3    H240795   2.968   1.065   2.896
13618TIP3   OH240796   6.406   2.001   6.194
13618TIP3    H140797   6.390   2.031   6.284
13618TIP3    H240798   6.326   2.023   6.147
13619TIP3   OH240799   0.271   4.676   0.629
13619TIP3    H140800   0.342   4.626   0.588
13619TIP3    H240801   0.250   4.626   0.708
13620TIP3   OH240802   0.700   0.655   6.600
13620TIP3    H140803   0.720   0.747   6.588
13620TIP3    H240804   0.676   0.647   6.693
13621TIP3   OH240805   6.735   4.341   6.301
13621TIP3    H140806   6.656   4.361   6.250
13621TIP3    H240807   6.782   4.424   6.305
13622TIP3   OH240808   0.288   5.150   6.003
13622TIP3    H140809   0.378   5.170   5.977
13622TIP3    H240810   0.253   5.099   5.930
13623TIP3   OH240811   8.206   4.019   2.385
13623TIP3    H140812   8.124   3.995   2.343
13623TIP3    H240813   8.239   3.937   2.421
13624TIP3   OH240814   6.496   3.195   3.339
13624TIP3    H140815   6.524   3.258   3.406
13624TIP3    H240816   6.400   3.196   3.344
13625TIP3   OH240817   5.935   0.041   6.437
13625TIP3    H140818   5.878   0.016   6.510
13625TIP3    H240819   6.023   0.021   6.467
13626TIP3   OH240820   2.538   5.577   0.854
13626TIP3    H140821   2.594   5.561   0.778
13626TIP3    H240822   2.493   5.494   0.868
13627TIP3   OH240823   6.102   6.868   3.899
13627TIP3    H140824   6.192   6.849   3.874
13627TIP3    H240825   6.059   6.892   3.817
13628TIP3   OH240826   7.070   0.032   5.360
13628TIP3    H140827   7.044   0.106   5.415
13628TIP3    H240828   7.155   0.057   5.323
13629TIP3   OH240829   7.409   4.977   3.433
13629TIP3    H140830   7.410   4.886   3.462
13629TIP3    H240831   7.497   5.009   3.453
13630TIP3   OH240832   3.702   3.798   5.721
13630TIP3    H140833   3.656   3.783   5.803
13630TIP3    H240834   3.789   3.761   5.734
13631TIP3   OH240835  -0.022   5.972   0.793
13631TIP3    H140836  -0.056   6.059   0.816
13631TIP3    H240837   0.069   5.988   0.768
13632TIP3   OH240838   4.179   2.139   2.547
13632TIP3    H140839   4.175   2.183   2.632
13632TIP3    H240840   4.164   2.047   2.567
13633TIP3   OH240841   7.921   0.989   1.398
13633TIP3    H140842   7.928   0.933   1.476
13633TIP3    H240843   7.948   0.932   1.326
13634TIP3   OH240844   5.027   2.232   0.292
13634TIP3    H140845   4.994   2.167   0.230
13634TIP3    H240846   4.968   2.227   0.366
13635TIP3   OH240847   3.587   2.286   0.916
13635TIP3    H140848   3.568   2.313   1.006
13635TIP3    H240849   3.597   2.191   0.921
13636TIP3   OH240850   3.582   3.813   2.438
13636TIP3    H140851   3.623   3.802   2.523
13636TIP3    H240852   3.488   3.801   2.455
13637TIP3   OH240853   5.627   6.731   0.487
13637TIP3    H140854   5.639   6.753   0.579
13637TIP3    H240855   5.556   6.666   0.487
13638TIP3   OH240856   3.100   2.580   2.904
13638TIP3    H140857   3.149   2.517   2.851
13638TIP3    H240858   3.102   2.544   2.992
13639TIP3   OH240859   6.891   4.324   4.924
13639TIP3    H140860   6.867   4.391   4.988
13639TIP3    H240861   6.885   4.369   4.840
13640TIP3   OH240862   4.162   0.762   1.825
13640TIP3    H140863   4.252   0.731   1.835
13640TIP3    H240864   4.151   0.824   1.897
13641TIP3   OH240865   7.155   3.376   0.569
13641TIP3    H140866   7.198   3.291   0.561
13641TIP3    H240867   7.064   3.356   0.590
13642TIP3   OH240868   2.434   1.028   1.509
13642TIP3    H140869   2.372   1.004   1.578
13642TIP3    H240870   2.520   1.028   1.552
13643TIP3   OH240871   3.000   1.802   1.031
13643TIP3    H140872   2.979   1.888   0.994
13643TIP3    H240873   2.917   1.755   1.030
13644TIP3   OH240874   6.298   4.565   6.316
13644TIP3    H140875   6.285   4.657   6.296
13644TIP3    H240876   6.258   4.554   6.403
13645TIP3   OH240877   5.651   1.774   6.508
13645TIP3    H140878   5.632   1.681   6.523
13645TIP3    H240879   5.580   1.820   6.553
13646TIP3   OH240880   3.299   3.851   1.037
13646TIP3    H140881   3.266   3.930   0.993
13646TIP3    H240882   3.220   3.805   1.067
13647TIP3   OH240883   4.501   7.851   2.288
13647TIP3    H140884   4.578   7.856   2.232
13647TIP3    H240885   4.533   7.875   2.376
13648TIP3   OH240886   3.798   6.788   0.568
13648TIP3    H140887   3.791   6.789   0.663
13648TIP3    H240888   3.830   6.876   0.546
13649TIP3   OH240889   4.239   7.455   0.851
13649TIP3    H140890   4.320   7.506   0.857
13649TIP3    H240891   4.169   7.520   0.846
13650TIP3   OH240892   2.007   5.212   2.691
13650TIP3    H140893   2.014   5.246   2.602
13650TIP3    H240894   1.917   5.179   2.697
13651TIP3   OH240895   5.712   1.419   3.142
13651TIP3    H140896   5.618   1.407   3.155
13651TIP3    H240897   5.752   1.349   3.192
13652TIP3   OH240898   6.793   1.984  -0.030
13652TIP3    H140899   6.737   2.021  -0.099
13652TIP3    H240900   6.844   2.059   0.002
13653TIP3   OH240901   4.499   6.924   0.555
13653TIP3    H140902   4.485   7.012   0.590
13653TIP3    H240903   4.546   6.937   0.473
13654TIP3   OH240904   8.032   0.302   1.303
13654TIP3    H140905   7.974   0.375   1.279
13654TIP3    H240906   8.120   0.337   1.295
13655TIP3   OH240907   2.527   0.416   5.061
13655TIP3    H140908   2.540   0.453   5.148
13655TIP3    H240909   2.447   0.457   5.029
13656TIP3   OH240910   7.420   7.286   3.620
13656TIP3    H140911   7.390   7.370   3.655
13656TIP3    H240912   7.343   7.229   3.623
13657TIP3   OH240913   6.946   5.746   1.643
13657TIP3    H140914   6.986   5.750   1.556
13657TIP3    H240915   6.951   5.835   1.676
13658TIP3   OH240916   3.426   7.780   6.505
13658TIP3    H140917   3.490   7.719   6.541
13658TIP3    H240918   3.464   7.866   6.519
13659TIP3   OH240919   5.063   7.843   1.881
13659TIP3    H140920   5.135   7.876   1.936
13659TIP3    H240921   5.105   7.782   1.821
13660TIP3   OH240922   8.072   2.408   2.283
13660TIP3    H140923   7.992   2.371   2.321
13660TIP3    H240924   8.126   2.433   2.358
13661TIP3   OH240925   0.409   1.206   3.382
13661TIP3    H140926   0.325   1.239   3.350
13661TIP3    H240927   0.432   1.264   3.454
13662TIP3   OH240928   6.204   0.788   4.956
13662TIP3    H140929   6.211   0.694   4.944
13662TIP3    H240930   6.288   0.823   4.927
13663TIP3   OH240931   5.433   3.700   5.672
13663TIP3    H140932   5.365   3.763   5.691
13663TIP3    H240933   5.416   3.672   5.582
13664TIP3   OH240934   3.955   1.361   2.813
13664TIP3    H140935   3.983   1.278   2.774
13664TIP3    H240936   3.880   1.338   2.869
13665TIP3   OH240937   1.249   3.681   4.424
13665TIP3    H140938   1.276   3.741   4.354
13665TIP3    H240939   1.302   3.707   4.499
13666TIP3   OH240940   0.824   4.396   0.767
13666TIP3    H140941   0.755   4.345   0.724
13666TIP3    H240942   0.892   4.331   0.786
13667TIP3   OH240943   3.004   2.587   6.382
13667TIP3    H140944   2.909   2.584   6.366
13667TIP3    H240945   3.014   2.566   6.475
13668TIP3   OH240946   2.365   5.295   0.370
13668TIP3    H140947   2.454   5.326   0.357
13668TIP3    H240948   2.313   5.374   0.383
13669TIP3   OH240949   0.000   6.705   5.403
13669TIP3    H140950   0.035   6.633   5.453
13669TIP3    H240951   0.068   6.726   5.338
13670TIP3   OH240952   2.002   0.432   0.650
13670TIP3    H140953   2.052   0.351   0.645
13670TIP3    H240954   2.050   0.494   0.595
13671TIP3   OH240955   1.988   4.166   5.817
13671TIP3    H140956   1.898   4.139   5.838
13671TIP3    H240957   2.032   4.173   5.902
13672TIP3   OH240958   0.728   3.409   1.697
13672TIP3    H140959   0.760   3.496   1.672
13672TIP3    H240960   0.804   3.365   1.735
13673TIP3   OH240961   2.246   6.638   3.833
13673TIP3    H140962   2.323   6.581   3.839
13673TIP3    H240963   2.280   6.726   3.850
13674TIP3   OH240964   6.738   5.146   3.680
13674TIP3    H140965   6.751   5.240   3.689
13674TIP3    H240966   6.665   5.126   3.739
13675TIP3   OH240967   1.316   4.950   0.334
13675TIP3    H140968   1.373   4.895   0.280
13675TIP3    H240969   1.349   4.938   0.423
13676TIP3   OH240970   8.142   4.029   4.559
13676TIP3    H140971   8.126   3.985   4.642
13676TIP3    H240972   8.151   4.121   4.581
13677TIP3   OH240973   7.137   3.720   3.826
13677TIP3    H140974   7.196   3.658   3.869
13677TIP3    H240975   7.092   3.668   3.760
13678TIP3   OH240976   7.746   5.322   5.531
13678TIP3    H140977   7.838   5.345   5.540
13678TIP3    H240978   7.699   5.406   5.534
13679TIP3   OH240979   4.831   3.039   0.804
13679TIP3    H140980   4.840   2.953   0.764
13679TIP3    H240981   4.806   3.021   0.895
13680TIP3   OH240982   3.452   6.204   2.604
13680TIP3    H140983   3.538   6.237   2.580
13680TIP3    H240984   3.392   6.243   2.540
13681TIP3   OH240985   2.659   3.497   4.637
13681TIP3    H140986   2.593   3.458   4.579
13681TIP3    H240987   2.722   3.538   4.578
13682TIP3   OH240988   0.252   1.961   6.266
13682TIP3    H140989   0.329   1.944   6.212
13682TIP3    H240990   0.223   2.048   6.240
13683TIP3   OH240991   3.519   1.873   0.730
13683TIP3    H140992   3.573   1.851   0.805
13683TIP3    H240993   3.456   1.801   0.723
13684TIP3   OH240994   4.881   0.603   2.545
13684TIP3    H140995   4.847   0.687   2.576
13684TIP3    H240996   4.868   0.606   2.450
13685TIP3   OH240997   3.038   1.166   4.025
13685TIP3    H140998   3.032   1.238   4.087
13685TIP3    H240999   3.004   1.090   4.073
13686TIP3   OH241000   2.784   4.821   5.181
13686TIP3    H141001   2.759   4.786   5.266
13686TIP3    H241002   2.772   4.747   5.120
13687TIP3   OH241003   8.203   7.057   0.772
13687TIP3    H141004   8.135   7.089   0.713
13687TIP3    H241005   8.166   7.072   0.860
13688TIP3   OH241006   3.563   3.498   2.568
13688TIP3    H141007   3.471   3.484   2.549
13688TIP3    H241008   3.604   3.509   2.482
13689TIP3   OH241009   0.593   2.272   6.333
13689TIP3    H141010   0.570   2.347   6.278
13689TIP3    H241011   0.560   2.196   6.284
13690TIP3   OH241012   7.462   5.262   5.071
13690TIP3    H141013   7.546   5.266   5.025
13690TIP3    H241014   7.429   5.352   5.068
13691TIP3   OH241015   6.634   1.728   5.608
13691TIP3    H141016   6.617   1.644   5.564
13691TIP3    H241017   6.658   1.787   5.538
13692TIP3   OH241018   1.845   2.725   3.300
13692TIP3    H141019   1.791   2.779   3.241
13692TIP3    H241020   1.887   2.789   3.358
13693TIP3   OH241021   2.977   5.425   6.020
13693TIP3    H141022   2.929   5.349   6.051
13693TIP3    H241023   2.950   5.496   6.079
13694TIP3   OH241024   0.652   6.104   3.281
13694TIP3    H141025   0.609   6.031   3.237
13694TIP3    H241026   0.615   6.182   3.239
13695TIP3   OH241027   2.389   2.681   0.482
13695TIP3    H141028   2.465   2.720   0.439
13695TIP3    H241029   2.381   2.594   0.442
13696TIP3   OH241030   6.823   3.244   4.421
13696TIP3    H141031   6.887   3.176   4.441
13696TIP3    H241032   6.853   3.283   4.339
13697TIP3   OH241033   6.450   3.265   6.705
13697TIP3    H141034   6.409   3.234   6.786
13697TIP3    H241035   6.463   3.186   6.653
13698TIP3   OH241036   0.557   7.282   6.091
13698TIP3    H141037   0.578   7.275   5.998
13698TIP3    H241038   0.512   7.200   6.112
13699TIP3   OH241039   7.061   6.038   0.684
13699TIP3    H141040   6.982   6.091   0.690
13699TIP3    H241041   7.128   6.099   0.652
13700TIP3   OH241042   3.864   6.338   4.986
13700TIP3    H141043   3.906   6.347   4.900
13700TIP3    H241044   3.851   6.429   5.015
13701TIP3   OH241045   7.356   2.272   5.831
13701TIP3    H141046   7.371   2.337   5.899
13701TIP3    H241047   7.430   2.212   5.839
13702TIP3   OH241048   0.123   2.975   5.191
13702TIP3    H141049   0.189   3.032   5.150
13702TIP3    H241050   0.059   3.036   5.227
13703TIP3   OH241051   5.746   1.684   2.629
13703TIP3    H141052   5.712   1.682   2.719
13703TIP3    H241053   5.739   1.776   2.603
13704TIP3   OH241054   4.371   5.522   6.126
13704TIP3    H141055   4.433   5.518   6.053
13704TIP3    H241056   4.299   5.576   6.094
13705TIP3   OH241057   5.304   2.646   2.205
13705TIP3    H141058   5.374   2.654   2.140
13705TIP3    H241059   5.224   2.647   2.153
13706TIP3   OH241060   0.976   4.177   0.813
13706TIP3    H141061   1.024   4.188   0.896
13706TIP3    H241062   1.025   4.109   0.767
13707TIP3   OH241063   4.425   6.302   5.020
13707TIP3    H141064   4.437   6.214   4.982
13707TIP3    H241065   4.403   6.285   5.112
13708TIP3   OH241066   6.573   6.549   3.438
13708TIP3    H141067   6.655   6.576   3.479
13708TIP3    H241068   6.595   6.467   3.393
13709TIP3   OH241069   2.737   7.544   0.313
13709TIP3    H141070   2.793   7.499   0.376
13709TIP3    H241071   2.684   7.604   0.365
13710TIP3   OH241072   5.598   4.878   0.542
13710TIP3    H141073   5.529   4.817   0.568
13710TIP3    H241074   5.650   4.831   0.478
13711TIP3   OH241075   7.345   1.197   2.243
13711TIP3    H141076   7.350   1.106   2.272
13711TIP3    H241077   7.253   1.222   2.256
13712TIP3   OH241078   6.005   0.974   5.087
13712TIP3    H141079   6.055   1.046   5.125
13712TIP3    H241080   6.068   0.928   5.032
13713TIP3   OH241081   6.371   1.716   2.033
13713TIP3    H141082   6.343   1.784   2.095
13713TIP3    H241083   6.289   1.672   2.009
13714TIP3   OH241084  -0.050   3.829   5.201
13714TIP3    H141085   0.017   3.785   5.254
13714TIP3    H241086  -0.004   3.901   5.158
13715TIP3   OH241087   5.334   1.034   3.290
13715TIP3    H141088   5.268   0.968   3.267
13715TIP3    H241089   5.314   1.108   3.233
13716TIP3   OH241090   5.683   2.863   5.857
13716TIP3    H141091   5.604   2.882   5.806
13716TIP3    H241092   5.755   2.870   5.795
13717TIP3   OH241093   6.399   7.763   3.596
13717TIP3    H141094   6.463   7.782   3.527
13717TIP3    H241095   6.441   7.695   3.649
13718TIP3   OH241096   5.409   0.124   1.867
13718TIP3    H141097   5.492   0.084   1.892
13718TIP3    H241098   5.412   0.211   1.907
13719TIP3   OH241099   7.680   6.722   2.401
13719TIP3    H141100   7.740   6.652   2.375
13719TIP3    H241101   7.622   6.681   2.466
13720TIP3   OH241102   5.723   6.232   3.337
13720TIP3    H141103   5.681   6.317   3.349
13720TIP3    H241104   5.760   6.211   3.423
13721TIP3   OH241105   3.500   3.674   4.113
13721TIP3    H141106   3.503   3.624   4.195
13721TIP3    H241107   3.524   3.763   4.138
13722TIP3   OH241108   0.034   4.021   6.116
13722TIP3    H141109   0.045   3.960   6.043
13722TIP3    H241110   0.028   3.965   6.193
13723TIP3   OH241111   8.146   5.066   2.236
13723TIP3    H141112   8.173   4.974   2.235
13723TIP3    H241113   8.060   5.066   2.195
13724TIP3   OH241114   6.044   3.879   3.318
13724TIP3    H141115   6.039   3.900   3.411
13724TIP3    H241116   5.988   3.802   3.307
13725TIP3   OH241117   5.361   5.189   5.408
13725TIP3    H141118   5.307   5.239   5.347
13725TIP3    H241119   5.344   5.098   5.387
13726TIP3   OH241120   4.697   7.870   2.974
13726TIP3    H141121   4.720   7.852   2.883
13726TIP3    H241122   4.627   7.808   2.993
13727TIP3   OH241123   0.181   4.398   1.269
13727TIP3    H141124   0.119   4.408   1.197
13727TIP3    H241125   0.267   4.408   1.228
13728TIP3   OH241126   3.416   0.038   2.098
13728TIP3    H141127   3.400   0.038   2.192
13728TIP3    H241128   3.343   0.086   2.061
13729TIP3   OH241129   5.094   6.754   4.107
13729TIP3    H141130   5.173   6.706   4.086
13729TIP3    H241131   5.102   6.836   4.058
13730TIP3   OH241132   7.688   1.161   5.570
13730TIP3    H141133   7.777   1.197   5.574
13730TIP3    H241134   7.631   1.236   5.587
13731TIP3   OH241135   6.810   3.324   3.634
13731TIP3    H141136   6.834   3.232   3.620
13731TIP3    H241137   6.719   3.330   3.605
13732TIP3   OH241138   4.752   6.357   3.096
13732TIP3    H141139   4.808   6.429   3.066
13732TIP3    H241140   4.778   6.282   3.042
13733TIP3   OH241141   1.438   7.289   4.219
13733TIP3    H141142   1.420   7.199   4.246
13733TIP3    H241143   1.527   7.306   4.249
13734TIP3   OH241144   0.073   2.146   0.709
13734TIP3    H141145   0.154   2.172   0.665
13734TIP3    H241146   0.022   2.226   0.713
13735TIP3   OH241147   3.396   6.044   3.446
13735TIP3    H141148   3.488   6.018   3.445
13735TIP3    H241149   3.389   6.112   3.379
13736TIP3   OH241150   0.767   6.977   1.445
13736TIP3    H141151   0.693   7.025   1.406
13736TIP3    H241152   0.834   7.044   1.459
13737TIP3   OH241153   8.304   5.350   3.021
13737TIP3    H141154   8.341   5.438   3.025
13737TIP3    H241155   8.222   5.355   3.070
13738TIP3   OH241156   6.110   5.525   5.102
13738TIP3    H141157   6.198   5.507   5.071
13738TIP3    H241158   6.059   5.538   5.021
13739TIP3   OH241159   7.444   0.894   0.826
13739TIP3    H141160   7.421   0.875   0.735
13739TIP3    H241161   7.512   0.962   0.819
13740TIP3   OH241162   8.143   1.647   1.055
13740TIP3    H141163   8.090   1.586   1.003
13740TIP3    H241164   8.095   1.729   1.053
13741TIP3   OH241165   4.270   2.338   2.247
13741TIP3    H141166   4.215   2.344   2.170
13741TIP3    H241167   4.339   2.403   2.233
13742TIP3   OH241168   6.469   7.059   1.115
13742TIP3    H141169   6.414   7.090   1.187
13742TIP3    H241170   6.422   6.985   1.078
13743TIP3   OH241171   3.628   3.212   0.270
13743TIP3    H141172   3.656   3.215   0.361
13743TIP3    H241173   3.536   3.186   0.273
13744TIP3   OH241174   3.143   1.230   2.043
13744TIP3    H141175   3.111   1.140   2.041
13744TIP3    H241176   3.233   1.223   2.076
13745TIP3   OH241177   3.345   6.513   0.602
13745TIP3    H141178   3.438   6.498   0.614
13745TIP3    H241179   3.339   6.565   0.522
13746TIP3   OH241180   7.691   2.806   4.677
13746TIP3    H141181   7.630   2.856   4.623
13746TIP3    H241182   7.775   2.815   4.633
13747TIP3   OH241183   1.068   7.403   5.354
13747TIP3    H141184   1.134   7.469   5.374
13747TIP3    H241185   1.086   7.332   5.415
13748TIP3   OH241186   1.969   3.372   1.546
13748TIP3    H141187   1.907   3.425   1.496
13748TIP3    H241188   2.055   3.396   1.511
13749TIP3   OH241189   0.181   6.800   6.550
13749TIP3    H141190   0.215   6.864   6.488
13749TIP3    H241191   0.197   6.715   6.509
13750TIP3   OH241192   0.441   6.020   1.193
13750TIP3    H141193   0.476   6.105   1.166
13750TIP3    H241194   0.508   5.985   1.252
13751TIP3   OH241195   7.913   1.440   6.725
13751TIP3    H141196   7.890   1.500   6.796
13751TIP3    H241197   7.979   1.487   6.674
13752TIP3   OH241198   0.683   3.984   6.774
13752TIP3    H141199   0.734   4.058   6.805
13752TIP3    H241200   0.617   4.022   6.715
13753TIP3   OH241201   2.444   2.621   2.952
13753TIP3    H141202   2.437   2.714   2.972
13753TIP3    H241203   2.525   2.593   2.994
13754TIP3   OH241204   2.103   5.265   3.167
13754TIP3    H141205   2.108   5.184   3.115
13754TIP3    H241206   2.035   5.248   3.232
13755TIP3   OH241207   7.916   0.416   0.011
13755TIP3    H141208   7.860   0.493   0.006
13755TIP3    H241209   7.982   0.439   0.076
13756TIP3   OH241210   0.884   0.909   0.159
13756TIP3    H141211   0.956   0.847   0.163
13756TIP3    H241212   0.849   0.913   0.248
13757TIP3   OH241213   0.800   0.837   3.478
13757TIP3    H141214   0.719   0.876   3.510
13757TIP3    H241215   0.834   0.787   3.553
13758TIP3   OH241216   4.721   3.244   4.548
13758TIP3    H141217   4.699   3.274   4.636
13758TIP3    H241218   4.640   3.252   4.498
13759TIP3   OH241219   3.748   4.419   2.360
13759TIP3    H141220   3.838   4.451   2.358
13759TIP3    H241221   3.754   4.326   2.340
13760TIP3   OH241222   5.078   1.898   5.088
13760TIP3    H141223   4.992   1.900   5.045
13760TIP3    H241224   5.134   1.850   5.026
13761TIP3   OH241225   6.922   5.727   3.651
13761TIP3    H141226   6.962   5.653   3.605
13761TIP3    H241227   6.948   5.714   3.743
13762TIP3   OH241228   0.998   4.739   6.788
13762TIP3    H141229   0.936   4.754   6.718
13762TIP3    H241230   1.067   4.804   6.775
13763TIP3   OH241231   5.812   2.843   1.844
13763TIP3    H141232   5.907   2.847   1.835
13763TIP3    H241233   5.788   2.928   1.882
13764TIP3   OH241234   5.068   2.868   3.665
13764TIP3    H141235   5.097   2.778   3.649
13764TIP3    H241236   5.002   2.860   3.734
13765TIP3   OH241237   1.976   7.409   1.564
13765TIP3    H141238   1.955   7.351   1.637
13765TIP3    H241239   1.979   7.497   1.604
13766TIP3   OH241240   6.191   5.007   0.008
13766TIP3    H141241   6.194   5.049   0.094
13766TIP3    H241242   6.118   5.050  -0.037
13767TIP3   OH241243   3.105   2.233   6.479
13767TIP3    H141244   3.130   2.189   6.560
13767TIP3    H241245   3.137   2.323   6.490
13768TIP3   OH241246   5.681   1.075   0.955
13768TIP3    H141247   5.591   1.056   0.983
13768TIP3    H241248   5.674   1.151   0.898
13769TIP3   OH241249   7.172   5.201   4.112
13769TIP3    H141250   7.205   5.289   4.096
13769TIP3    H241251   7.175   5.191   4.207
13770TIP3   OH241252   5.308   7.340   6.405
13770TIP3    H141253   5.267   7.288   6.475
13770TIP3    H241254   5.261   7.423   6.407
13771TIP3   OH241255   0.145   1.065   0.441
13771TIP3    H141256   0.188   1.141   0.402
13771TIP3    H241257   0.093   1.101   0.513
13772TIP3   OH241258   2.145   6.961   2.532
13772TIP3    H141259   2.239   6.947   2.526
13772TIP3    H241260   2.134   7.056   2.529
13773TIP3   OH241261   3.372   5.480   1.292
13773TIP3    H141262   3.408   5.567   1.278
13773TIP3    H241263   3.353   5.447   1.204
13774TIP3   OH241264   0.929   0.608   3.590
13774TIP3    H141265   0.918   0.514   3.608
13774TIP3    H241266   1.014   0.613   3.547
13775TIP3   OH241267   6.826   5.729   0.523
13775TIP3    H141268   6.814   5.638   0.496
13775TIP3    H241269   6.913   5.730   0.564
13776TIP3   OH241270   0.669   0.400   1.646
13776TIP3    H141271   0.588   0.381   1.599
13776TIP3    H241272   0.664   0.493   1.666
13777TIP3   OH241273   7.395   2.181   6.707
13777TIP3    H141274   7.309   2.139   6.705
13777TIP3    H241275   7.377   2.270   6.737
13778TIP3   OH241276   3.260   0.178   3.034
13778TIP3    H141277   3.169   0.178   3.002
13778TIP3    H241278   3.311   0.148   2.958
13779TIP3   OH241279   4.231   3.285   2.194
13779TIP3    H141280   4.223   3.257   2.103
13779TIP3    H241281   4.193   3.374   2.195
13780TIP3   OH241282   3.509   5.561   3.465
13780TIP3    H141283   3.462   5.547   3.383
13780TIP3    H241284   3.504   5.476   3.510
13781TIP3   OH241285   0.620   7.246   1.537
13781TIP3    H141286   0.705   7.268   1.498
13781TIP3    H241287   0.599   7.322   1.592
13782TIP3   OH241288   4.680   0.609   1.732
13782TIP3    H141289   4.585   0.606   1.743
13782TIP3    H241290   4.701   0.702   1.724
13783TIP3   OH241291   4.285   2.890   2.107
13783TIP3    H141292   4.191   2.878   2.099
13783TIP3    H241293   4.319   2.805   2.132
13784TIP3   OH241294   4.235   3.901   4.136
13784TIP3    H141295   4.241   3.965   4.207
13784TIP3    H241296   4.142   3.879   4.130
13785TIP3   OH241297   4.851   1.228   5.150
13785TIP3    H141298   4.934   1.209   5.194
13785TIP3    H241299   4.801   1.278   5.214
13786TIP3   OH241300   5.856   3.805   5.424
13786TIP3    H141301   5.920   3.852   5.477
13786TIP3    H241302   5.907   3.743   5.373
13787TIP3   OH241303   1.562   0.897   4.608
13787TIP3    H141304   1.627   0.869   4.673
13787TIP3    H241305   1.597   0.978   4.572
13788TIP3   OH241306   3.811   0.317   1.226
13788TIP3    H141307   3.736   0.257   1.228
13788TIP3    H241308   3.773   0.401   1.202
13789TIP3   OH241309   4.949   0.071   3.337
13789TIP3    H141310   4.869   0.063   3.285
13789TIP3    H241311   4.924   0.039   3.424
13790TIP3   OH241312   6.520   6.784   5.373
13790TIP3    H141313   6.598   6.736   5.343
13790TIP3    H241314   6.489   6.734   5.448
13791TIP3   OH241315   0.772   3.267   2.016
13791TIP3    H141316   0.750   3.317   2.095
13791TIP3    H241317   0.689   3.262   1.968
13792TIP3   OH241318   6.862   6.221   1.218
13792TIP3    H141319   6.822   6.203   1.134
13792TIP3    H241320   6.881   6.134   1.255
13793TIP3   OH241321   3.039   4.387   0.890
13793TIP3    H141322   3.058   4.443   0.815
13793TIP3    H241323   3.062   4.299   0.860
13794TIP3   OH241324   6.446   3.357   4.873
13794TIP3    H141325   6.437   3.451   4.890
13794TIP3    H241326   6.538   3.345   4.851
13795TIP3   OH241327   2.802   0.070   0.248
13795TIP3    H141328   2.795  -0.024   0.231
13795TIP3    H241329   2.893   0.091   0.230
13796TIP3   OH241330   3.868   1.906   5.111
13796TIP3    H141331   3.821   1.981   5.147
13796TIP3    H241332   3.827   1.830   5.153
13797TIP3   OH241333   1.846   2.625   2.922
13797TIP3    H141334   1.901   2.609   2.846
13797TIP3    H241335   1.815   2.715   2.912
13798TIP3   OH241336   0.521   1.604   1.458
13798TIP3    H141337   0.605   1.580   1.420
13798TIP3    H241338   0.543   1.668   1.526
13799TIP3   OH241339   4.309   3.919   2.584
13799TIP3    H141340   4.269   4.003   2.562
13799TIP3    H241341   4.382   3.911   2.522
13800TIP3   OH241342   1.374   0.105   5.868
13800TIP3    H141343   1.291   0.139   5.902
13800TIP3    H241344   1.439   0.132   5.933
13801TIP3   OH241345   4.032   5.370   5.325
13801TIP3    H141346   4.004   5.331   5.242
13801TIP3    H241347   4.105   5.427   5.300
13802TIP3   OH241348   1.519   0.083   6.489
13802TIP3    H141349   1.566   0.162   6.515
13802TIP3    H241350   1.427   0.103   6.507
13803TIP3   OH241351   7.701   7.511   3.901
13803TIP3    H141352   7.696   7.448   3.830
13803TIP3    H241353   7.613   7.511   3.940
13804TIP3   OH241354   3.084   2.049   3.548
13804TIP3    H141355   3.091   1.955   3.563
13804TIP3    H241356   3.058   2.085   3.633
13805TIP3   OH241357   1.936   7.367   2.078
13805TIP3    H141358   1.924   7.356   2.172
13805TIP3    H241359   1.956   7.460   2.067
13806TIP3   OH241360   7.174   7.173   3.572
13806TIP3    H141361   7.114   7.245   3.590
13806TIP3    H241362   7.161   7.153   3.480
13807TIP3   OH241363   0.192   6.797   2.142
13807TIP3    H141364   0.106   6.778   2.106
13807TIP3    H241365   0.194   6.753   2.227
13808TIP3   OH241366   6.900   3.995   5.343
13808TIP3    H141367   6.882   4.043   5.424
13808TIP3    H241368   6.993   3.975   5.347
13809TIP3   OH241369   1.554   6.855   0.735
13809TIP3    H141370   1.604   6.876   0.656
13809TIP3    H241371   1.586   6.916   0.801
13810TIP3   OH241372   5.019   3.841   0.917
13810TIP3    H141373   5.010   3.891   0.836
13810TIP3    H241374   5.113   3.839   0.934
13811TIP3   OH241375   2.684   5.412   4.799
13811TIP3    H141376   2.607   5.444   4.848
13811TIP3    H241377   2.680   5.317   4.809
13812TIP3   OH241378   3.613   5.213   6.538
13812TIP3    H141379   3.590   5.132   6.584
13812TIP3    H241380   3.692   5.243   6.582
13813TIP3   OH241381   3.932   0.189   2.601
13813TIP3    H141382   3.943   0.282   2.620
13813TIP3    H241383   3.940   0.184   2.505
13814TIP3   OH241384   5.065   4.018   0.470
13814TIP3    H141385   5.035   4.025   0.380
13814TIP3    H241386   5.146   3.967   0.464
13815TIP3   OH241387   1.621   4.263   1.864
13815TIP3    H141388   1.642   4.187   1.918
13815TIP3    H241389   1.578   4.324   1.923
13816TIP3   OH241390   3.790   2.177   6.077
13816TIP3    H141391   3.764   2.248   6.019
13816TIP3    H241392   3.805   2.102   6.019
13817TIP3   OH241393   0.486   5.869   4.390
13817TIP3    H141394   0.433   5.890   4.467
13817TIP3    H241395   0.559   5.930   4.393
13818TIP3   OH241396   6.827   4.123   4.128
13818TIP3    H141397   6.878   4.042   4.127
13818TIP3    H241398   6.858   4.172   4.052
13819TIP3   OH241399   1.914   0.719   5.723
13819TIP3    H141400   1.947   0.662   5.654
13819TIP3    H241401   1.884   0.660   5.792
13820TIP3   OH241402   6.028   2.085   5.011
13820TIP3    H141403   5.977   2.104   5.090
13820TIP3    H241404   6.029   2.167   4.963
13821TIP3   OH241405   5.520   4.227   1.799
13821TIP3    H141406   5.521   4.289   1.872
13821TIP3    H241407   5.433   4.187   1.803
13822TIP3   OH241408   6.358   0.814   2.772
13822TIP3    H141409   6.377   0.730   2.814
13822TIP3    H241410   6.341   0.793   2.681
13823TIP3   OH241411   7.746   2.659   4.192
13823TIP3    H141412   7.833   2.694   4.175
13823TIP3    H241413   7.747   2.572   4.153
13824TIP3   OH241414   1.304   1.958   5.821
13824TIP3    H141415   1.316   1.866   5.843
13824TIP3    H241416   1.245   1.958   5.746
13825TIP3   OH241417   6.674   4.570   2.764
13825TIP3    H141418   6.768   4.558   2.748
13825TIP3    H241419   6.666   4.570   2.859
13826TIP3   OH241420   0.998   5.611   3.725
13826TIP3    H141421   1.066   5.622   3.658
13826TIP3    H241422   1.012   5.684   3.785
13827TIP3   OH241423   6.789   6.805   6.024
13827TIP3    H141424   6.725   6.781   5.957
13827TIP3    H241425   6.757   6.888   6.059
13828TIP3   OH241426   5.815   2.891   6.473
13828TIP3    H141427   5.858   2.947   6.409
13828TIP3    H241428   5.860   2.807   6.464
13829TIP3   OH241429   3.695   7.060   6.266
13829TIP3    H141430   3.718   7.095   6.352
13829TIP3    H241431   3.721   7.128   6.204
13830TIP3   OH241432   6.762   6.841   3.944
13830TIP3    H141433   6.727   6.887   3.868
13830TIP3    H241434   6.690   6.839   4.007
13831TIP3   OH241435   8.070   3.377   5.186
13831TIP3    H141436   8.149   3.418   5.221
13831TIP3    H241437   8.001   3.442   5.200
13832TIP3   OH241438   7.356   6.524   2.493
13832TIP3    H141439   7.407   6.443   2.500
13832TIP3    H241440   7.268   6.495   2.470
13833TIP3   OH241441   6.146   6.882   4.836
13833TIP3    H141442   6.057   6.889   4.803
13833TIP3    H241443   6.161   6.966   4.880
13834TIP3   OH241444   5.065   5.444   0.627
13834TIP3    H141445   5.075   5.461   0.720
13834TIP3    H241446   5.097   5.354   0.615
13835TIP3   OH241447   8.088   0.126   4.347
13835TIP3    H141448   8.167   0.124   4.294
13835TIP3    H241449   8.017   0.110   4.285
13836TIP3   OH241450   5.033   7.134   0.143
13836TIP3    H141451   4.958   7.181   0.109
13836TIP3    H241452   5.109   7.177   0.104
13837TIP3   OH241453   3.499   0.240   5.844
13837TIP3    H141454   3.563   0.193   5.790
13837TIP3    H241455   3.439   0.279   5.780
13838TIP3   OH241456   7.103   0.374   1.065
13838TIP3    H141457   7.058   0.410   0.988
13838TIP3    H241458   7.044   0.393   1.138
13839TIP3   OH241459   0.409   1.555   5.010
13839TIP3    H141460   0.317   1.541   4.986
13839TIP3    H241461   0.410   1.642   5.049
13840TIP3   OH241462   4.819   1.505   1.069
13840TIP3    H141463   4.750   1.557   1.111
13840TIP3    H241464   4.873   1.570   1.024
13841TIP3   OH241465   3.988   1.214   5.843
13841TIP3    H141466   3.957   1.274   5.775
13841TIP3    H241467   3.959   1.253   5.925
13842TIP3   OH241468   1.193   5.909   1.166
13842TIP3    H141469   1.255   5.879   1.099
13842TIP3    H241470   1.213   6.001   1.178
13843TIP3   OH241471   3.603   0.147   2.610
13843TIP3    H141472   3.686   0.118   2.649
13843TIP3    H241473   3.558   0.193   2.681
13844TIP3   OH241474   3.357   7.668   5.041
13844TIP3    H141475   3.293   7.599   5.061
13844TIP3    H241476   3.304   7.746   5.025
13845TIP3   OH241477   0.882   4.245   5.474
13845TIP3    H141478   0.793   4.228   5.443
13845TIP3    H241479   0.912   4.319   5.421
13846TIP3   OH241480   0.205   2.884   5.736
13846TIP3    H141481   0.119   2.914   5.766
13846TIP3    H241482   0.187   2.807   5.683
13847TIP3   OH241483   4.291   4.967   1.325
13847TIP3    H141484   4.336   5.009   1.398
13847TIP3    H241485   4.202   5.004   1.328
13848TIP3   OH241486   4.039   0.990   0.210
13848TIP3    H141487   3.999   1.068   0.247
13848TIP3    H241488   3.980   0.919   0.235
13849TIP3   OH241489   6.748   3.632   3.771
13849TIP3    H141490   6.784   3.604   3.686
13849TIP3    H241491   6.813   3.604   3.835
13850TIP3   OH241492   2.523   0.947   0.048
13850TIP3    H141493   2.594   0.934  -0.015
13850TIP3    H241494   2.443   0.952  -0.006
13851TIP3   OH241495   5.965   6.482   4.081
13851TIP3    H141496   5.921   6.565   4.095
13851TIP3    H241497   5.894   6.417   4.083
13852TIP3   OH241498   7.747   7.594   4.247
13852TIP3    H141499   7.823   7.639   4.211
13852TIP3    H241500   7.674   7.655   4.235
13853TIP3   OH241501   7.066   4.096   4.968
13853TIP3    H141502   7.004   4.059   4.906
13853TIP3    H241503   7.018   4.166   5.012
13854TIP3   OH241504   5.417   0.177   4.847
13854TIP3    H141505   5.497   0.130   4.826
13854TIP3    H241506   5.354   0.107   4.867
13855TIP3   OH241507   1.753   1.080   4.037
13855TIP3    H141508   1.797   1.087   3.953
13855TIP3    H241509   1.724   0.989   4.042
13856TIP3   OH241510   7.034   2.796   4.570
13856TIP3    H141511   7.005   2.804   4.661
13856TIP3    H241512   7.031   2.701   4.553
13857TIP3   OH241513   6.146   4.405   3.718
13857TIP3    H141514   6.232   4.440   3.744
13857TIP3    H241515   6.092   4.417   3.796
13858TIP3   OH241516   1.424   5.909   4.644
13858TIP3    H141517   1.431   5.843   4.713
13858TIP3    H241518   1.497   5.888   4.585
13859TIP3   OH241519   1.112   0.271   0.929
13859TIP3    H141520   1.119   0.292   1.022
13859TIP3    H241521   1.202   0.250   0.903
13860TIP3   OH241522   5.962   3.393   5.892
13860TIP3    H141523   6.053   3.413   5.869
13860TIP3    H241524   5.911   3.461   5.847
13861TIP3   OH241525   3.362   1.985   2.802
13861TIP3    H141526   3.293   2.000   2.867
13861TIP3    H241527   3.316   1.986   2.718
13862TIP3   OH241528   4.324   4.697   1.235
13862TIP3    H141529   4.332   4.702   1.140
13862TIP3    H241530   4.304   4.787   1.262
13863TIP3   OH241531   3.459   6.808   5.941
13863TIP3    H141532   3.440   6.798   6.034
13863TIP3    H241533   3.543   6.854   5.939
13864TIP3   OH241534   5.384   2.583   1.711
13864TIP3    H141535   5.437   2.503   1.703
13864TIP3    H241536   5.449   2.654   1.710
13865TIP3   OH241537   4.001   6.757   3.004
13865TIP3    H141538   3.943   6.686   3.033
13865TIP3    H241539   3.954   6.799   2.932
13866TIP3   OH241540   2.193   7.158   6.399
13866TIP3    H141541   2.245   7.139   6.477
13866TIP3    H241542   2.132   7.085   6.392
13867TIP3   OH241543   7.630   7.470   0.185
13867TIP3    H141544   7.613   7.420   0.265
13867TIP3    H241545   7.717   7.441   0.157
13868TIP3   OH241546   6.668   1.700   2.422
13868TIP3    H141547   6.619   1.626   2.458
13868TIP3    H241548   6.700   1.668   2.337
13869TIP3   OH241549   6.629   2.498   5.971
13869TIP3    H141550   6.608   2.466   6.059
13869TIP3    H241551   6.597   2.589   5.970
13870TIP3   OH241552   4.640   3.943   6.207
13870TIP3    H141553   4.627   4.014   6.144
13870TIP3    H241554   4.683   3.984   6.282
13871TIP3   OH241555   7.345   7.504   6.531
13871TIP3    H141556   7.387   7.531   6.613
13871TIP3    H241557   7.263   7.553   6.528
13872TIP3   OH241558   5.898   4.983   0.538
13872TIP3    H141559   5.897   5.070   0.498
13872TIP3    H241560   5.821   4.981   0.594
13873TIP3   OH241561   3.085   5.033   1.970
13873TIP3    H141562   3.147   5.058   2.039
13873TIP3    H241563   3.030   5.110   1.958
13874TIP3   OH241564   0.331   4.118   6.648
13874TIP3    H141565   0.396   4.124   6.577
13874TIP3    H241566   0.250   4.150   6.608
13875TIP3   OH241567   7.226   1.610   2.376
13875TIP3    H141568   7.201   1.521   2.352
13875TIP3    H241569   7.198   1.663   2.302
13876TIP3   OH241570   8.171   2.124   1.849
13876TIP3    H141571   8.246   2.174   1.818
13876TIP3    H241572   8.155   2.156   1.937
13877TIP3   OH241573   3.238   6.573   0.856
13877TIP3    H141574   3.261   6.569   0.763
13877TIP3    H241575   3.145   6.552   0.859
13878TIP3   OH241576   3.626   7.112   5.581
13878TIP3    H141577   3.710   7.140   5.544
13878TIP3    H241578   3.561   7.139   5.516
13879TIP3   OH241579   4.992   0.177   6.166
13879TIP3    H141580   5.031   0.159   6.081
13879TIP3    H241581   5.058   0.151   6.229
13880TIP3   OH241582   3.766   0.579   5.532
13880TIP3    H141583   3.789   0.671   5.546
13880TIP3    H241584   3.696   0.581   5.467
13881TIP3   OH241585   4.096   1.219   4.364
13881TIP3    H141586   4.040   1.297   4.362
13881TIP3    H241587   4.046   1.152   4.317
13882TIP3   OH241588   8.293   4.495   3.676
13882TIP3    H141589   8.280   4.493   3.771
13882TIP3    H241590   8.207   4.514   3.640
13883TIP3   OH241591   4.323   3.455   3.730
13883TIP3    H141592   4.231   3.466   3.752
13883TIP3    H241593   4.326   3.463   3.634
13884TIP3   OH241594   1.606   0.913   2.317
13884TIP3    H141595   1.641   0.917   2.406
13884TIP3    H241596   1.541   0.983   2.314
13885TIP3   OH241597   2.736   7.735   3.864
13885TIP3    H141598   2.736   7.678   3.788
13885TIP3    H241599   2.694   7.816   3.834
13886TIP3   OH241600   3.505   0.818   6.355
13886TIP3    H141601   3.454   0.896   6.335
13886TIP3    H241602   3.440   0.751   6.377
13887TIP3   OH241603   5.677   2.744   4.362
13887TIP3    H141604   5.706   2.809   4.299
13887TIP3    H241605   5.634   2.794   4.431
13888TIP3   OH241606   2.968   3.721   3.362
13888TIP3    H141607   2.904   3.788   3.336
13888TIP3    H241608   2.923   3.669   3.428
13889TIP3   OH241609   6.606   5.050   1.534
13889TIP3    H141610   6.664   5.081   1.603
13889TIP3    H241611   6.546   5.123   1.519
13890TIP3   OH241612   2.276   4.784   3.934
13890TIP3    H141613   2.279   4.693   3.905
13890TIP3    H241614   2.205   4.785   3.999
13891TIP3   OH241615   4.512   1.753   5.015
13891TIP3    H141616   4.529   1.731   4.924
13891TIP3    H241617   4.528   1.671   5.063
13892TIP3   OH241618   6.618   1.208   1.341
13892TIP3    H141619   6.690   1.207   1.278
13892TIP3    H241620   6.540   1.226   1.288
13893TIP3   OH241621   2.319   5.738   4.551
13893TIP3    H141622   2.298   5.651   4.518
13893TIP3    H241623   2.264   5.748   4.629
13894TIP3   OH241624   7.018   2.640   4.983
13894TIP3    H141625   7.056   2.597   4.906
13894TIP3    H241626   7.086   2.634   5.049
13895TIP3   OH241627   6.004   1.095   5.406
13895TIP3    H141628   6.066   1.147   5.354
13895TIP3    H241629   6.051   1.013   5.424
13896TIP3   OH241630   5.382   7.025   4.915
13896TIP3    H141631   5.321   6.953   4.901
13896TIP3    H241632   5.381   7.073   4.832
13897TIP3   OH241633   4.953   2.712   0.355
13897TIP3    H141634   4.959   2.631   0.406
13897TIP3    H241635   4.953   2.781   0.421
13898TIP3   OH241636   2.793   7.344   6.742
13898TIP3    H141637   2.728   7.396   6.694
13898TIP3    H241638   2.764   7.254   6.731
13899TIP3   OH241639   1.432   7.244   3.906
13899TIP3    H141640   1.468   7.157   3.921
13899TIP3    H241641   1.506   7.303   3.920
13900TIP3   OH241642   5.137   2.432   1.151
13900TIP3    H141643   5.071   2.499   1.139
13900TIP3    H241644   5.089   2.349   1.146
13901TIP3   OH241645   6.222   6.593   3.072
13901TIP3    H141646   6.185   6.526   3.130
13901TIP3    H241647   6.149   6.619   3.016
13902TIP3   OH241648   3.520   4.099   4.152
13902TIP3    H141649   3.473   4.170   4.108
13902TIP3    H241650   3.613   4.121   4.140
13903TIP3   OH241651   4.446   0.626   2.641
13903TIP3    H141652   4.491   0.668   2.714
13903TIP3    H241653   4.483   0.667   2.563
13904TIP3   OH241654   5.491   1.102   4.486
13904TIP3    H141655   5.484   1.011   4.457
13904TIP3    H241656   5.585   1.119   4.491
13905TIP3   OH241657   0.029   0.507   3.629
13905TIP3    H141658   0.057   0.577   3.688
13905TIP3    H241659   0.078   0.430   3.659
13906TIP3   OH241660   3.649   2.132   3.291
13906TIP3    H141661   3.722   2.083   3.254
13906TIP3    H241662   3.590   2.147   3.218
13907TIP3   OH241663   5.973   3.433   0.712
13907TIP3    H141664   5.987   3.380   0.790
13907TIP3    H241665   5.883   3.413   0.684
13908TIP3   OH241666   1.275   0.988   4.072
13908TIP3    H141667   1.347   1.031   4.117
13908TIP3    H241668   1.297   0.895   4.075
13909TIP3   OH241669   7.526   3.758   3.079
13909TIP3    H141670   7.530   3.846   3.042
13909TIP3    H241671   7.617   3.728   3.081
13910TIP3   OH241672   2.674   6.235   3.531
13910TIP3    H141673   2.638   6.319   3.501
13910TIP3    H241674   2.649   6.230   3.623
13911TIP3   OH241675   8.089   2.519   5.483
13911TIP3    H141676   8.038   2.450   5.526
13911TIP3    H241677   8.167   2.474   5.450
13912TIP3   OH241678   1.379   3.455   1.663
13912TIP3    H141679   1.471   3.450   1.687
13912TIP3    H241680   1.363   3.548   1.646
13913TIP3   OH241681   8.202   7.345   1.604
13913TIP3    H141682   8.176   7.388   1.523
13913TIP3    H241683   8.177   7.407   1.673
13914TIP3   OH241684   2.963   3.326   4.555
13914TIP3    H141685   2.924   3.241   4.575
13914TIP3    H241686   3.053   3.307   4.532
13915TIP3   OH241687   3.622   4.507   6.049
13915TIP3    H141688   3.645   4.530   5.959
13915TIP3    H241689   3.633   4.412   6.053
13916TIP3   OH241690  -0.041   4.203   1.471
13916TIP3    H141691   0.007   4.271   1.424
13916TIP3    H241692  -0.129   4.240   1.484
13917TIP3   OH241693   5.378   4.548   6.004
13917TIP3    H141694   5.369   4.634   5.963
13917TIP3    H241695   5.406   4.490   5.933
13918TIP3   OH241696   8.366   1.541   5.183
13918TIP3    H141697   8.336   1.525   5.273
13918TIP3    H241698   8.370   1.454   5.143
13919TIP3   OH241699   1.552   3.233   1.472
13919TIP3    H141700   1.560   3.172   1.546
13919TIP3    H241701   1.614   3.303   1.493
13920TIP3   OH241702   5.258   4.817   3.905
13920TIP3    H141703   5.267   4.826   3.999
13920TIP3    H241704   5.232   4.726   3.891
13921TIP3   OH241705   7.503   5.197   3.146
13921TIP3    H141706   7.576   5.139   3.125
13921TIP3    H241707   7.430   5.138   3.167
13922TIP3   OH241708   4.371   5.401   3.549
13922TIP3    H141709   4.298   5.342   3.531
13922TIP3    H241710   4.422   5.402   3.467
13923TIP3   OH241711   2.381   1.217   5.767
13923TIP3    H141712   2.360   1.197   5.675
13923TIP3    H241713   2.314   1.279   5.794
13924TIP3   OH241714   2.860   4.096   5.535
13924TIP3    H141715   2.954   4.113   5.538
13924TIP3    H241716   2.848   4.013   5.581
13925TIP3   OH241717   3.826   5.597   2.975
13925TIP3    H141718   3.921   5.608   2.978
13925TIP3    H241719   3.801   5.579   3.066
13926TIP3   OH241720   1.321   3.610   3.354
13926TIP3    H141721   1.383   3.539   3.336
13926TIP3    H241722   1.289   3.593   3.443
13927TIP3   OH241723   3.675   4.819   2.437
13927TIP3    H141724   3.622   4.766   2.377
13927TIP3    H241725   3.757   4.771   2.444
13928TIP3   OH241726   3.902   4.051   3.328
13928TIP3    H141727   3.925   4.044   3.235
13928TIP3    H241728   3.806   4.052   3.329
13929TIP3   OH241729   1.074   7.026   3.010
13929TIP3    H141730   1.109   7.115   3.012
13929TIP3    H241731   1.139   6.973   3.056
13930TIP3   OH241732   7.128   0.347   1.372
13930TIP3    H141733   7.118   0.442   1.381
13930TIP3    H241734   7.222   0.334   1.360
13931TIP3   OH241735   0.318   6.619   3.951
13931TIP3    H141736   0.249   6.619   4.017
13931TIP3    H241737   0.318   6.708   3.917
13932TIP3   OH241738   4.192   0.543   2.626
13932TIP3    H141739   4.183   0.532   2.531
13932TIP3    H241740   4.286   0.550   2.641
13933TIP3   OH241741   7.590   4.023   0.045
13933TIP3    H141742   7.582   4.002   0.138
13933TIP3    H241743   7.555   3.946   0.000
13934TIP3   OH241744   8.148   3.995   5.464
13934TIP3    H141745   8.109   3.999   5.552
13934TIP3    H241746   8.151   3.901   5.445
13935TIP3   OH241747   5.900   5.375   3.700
13935TIP3    H141748   5.822   5.377   3.644
13935TIP3    H241749   5.960   5.315   3.655
13936TIP3   OH241750   0.859   0.451   1.256
13936TIP3    H141751   0.933   0.495   1.298
13936TIP3    H241752   0.880   0.358   1.262
13937TIP3   OH241753   3.643   0.413   3.351
13937TIP3    H141754   3.613   0.389   3.439
13937TIP3    H241755   3.577   0.475   3.320
13938TIP3   OH241756   4.231   1.803   2.091
13938TIP3    H141757   4.146   1.813   2.133
13938TIP3    H241758   4.294   1.826   2.158
13939TIP3   OH241759   3.766   2.797   4.732
13939TIP3    H141760   3.675   2.765   4.735
13939TIP3    H241761   3.784   2.807   4.638
13940TIP3   OH241762   2.886   5.819   1.565
13940TIP3    H141763   2.910   5.773   1.645
13940TIP3    H241764   2.938   5.776   1.497
13941TIP3   OH241765   4.862   5.775   1.551
13941TIP3    H141766   4.892   5.686   1.567
13941TIP3    H241767   4.940   5.822   1.522
13942TIP3   OH241768   5.497   3.791   1.690
13942TIP3    H141769   5.402   3.797   1.704
13942TIP3    H241770   5.508   3.788   1.595
13943TIP3   OH241771   6.896   7.685   5.174
13943TIP3    H141772   6.939   7.689   5.259
13943TIP3    H241773   6.813   7.642   5.191
13944TIP3   OH241774   6.163   5.481   5.373
13944TIP3    H141775   6.256   5.501   5.381
13944TIP3    H241776   6.145   5.489   5.279
13945TIP3   OH241777   3.769   2.122   5.227
13945TIP3    H141778   3.825   2.197   5.208
13945TIP3    H241779   3.743   2.133   5.318
13946TIP3   OH241780   3.900   0.102   2.312
13946TIP3    H141781   3.864   0.102   2.224
13946TIP3    H241782   3.895   0.011   2.340
13947TIP3   OH241783   0.636   2.900   6.345
13947TIP3    H141784   0.588   2.948   6.412
13947TIP3    H241785   0.633   2.809   6.372
13948TIP3   OH241786   5.534   6.099   5.025
13948TIP3    H141787   5.562   6.151   4.950
13948TIP3    H241788   5.491   6.023   4.987
13949TIP3   OH241789   4.828   6.998   2.419
13949TIP3    H141790   4.896   7.015   2.484
13949TIP3    H241791   4.755   6.963   2.470
13950TIP3   OH241792   2.126   3.929   4.123
13950TIP3    H141793   2.128   3.844   4.079
13950TIP3    H241794   2.190   3.982   4.077
13951TIP3   OH241795   0.144   4.394   3.415
13951TIP3    H141796   0.190   4.380   3.498
13951TIP3    H241797   0.148   4.489   3.401
13952TIP3   OH241798   3.138   7.175   5.541
13952TIP3    H141799   3.096   7.141   5.620
13952TIP3    H241800   3.207   7.113   5.521
13953TIP3   OH241801   2.878   7.287   0.762
13953TIP3    H141802   2.952   7.339   0.791
13953TIP3    H241803   2.865   7.222   0.831
13954TIP3   OH241804   5.216   1.762   0.409
13954TIP3    H141805   5.266   1.840   0.434
13954TIP3    H241806   5.226   1.758   0.314
13955TIP3   OH241807   4.405   2.797   3.546
13955TIP3    H141808   4.331   2.745   3.515
13955TIP3    H241809   4.420   2.766   3.636
13956TIP3   OH241810   6.075   6.555   2.804
13956TIP3    H141811   6.114   6.609   2.735
13956TIP3    H241812   6.112   6.468   2.791
13957TIP3   OH241813   2.521   3.202   0.555
13957TIP3    H141814   2.441   3.157   0.526
13957TIP3    H241815   2.527   3.279   0.500
13958TIP3   OH241816   0.202   2.279   4.758
13958TIP3    H141817   0.243   2.291   4.844
13958TIP3    H241818   0.109   2.269   4.776
13959TIP3   OH241819   1.482   6.789   1.068
13959TIP3    H141820   1.481   6.700   1.033
13959TIP3    H241821   1.486   6.776   1.163
13960TIP3   OH241822   7.623   4.439   2.305
13960TIP3    H141823   7.551   4.489   2.345
13960TIP3    H241824   7.699   4.497   2.313
13961TIP3   OH241825   8.281   5.398   4.502
13961TIP3    H141826   8.296   5.492   4.507
13961TIP3    H241827   8.368   5.360   4.489
13962TIP3   OH241828   4.657   1.531   1.841
13962TIP3    H141829   4.752   1.519   1.842
13962TIP3    H241830   4.643   1.609   1.787
13963TIP3   OH241831   1.896   7.188   0.327
13963TIP3    H141832   1.879   7.262   0.270
13963TIP3    H241833   1.938   7.226   0.404
13964TIP3   OH241834   5.642   0.234   6.026
13964TIP3    H141835   5.663   0.189   6.108
13964TIP3    H241836   5.674   0.323   6.039
13965TIP3   OH241837   2.814   4.511   5.214
13965TIP3    H141838   2.788   4.419   5.224
13965TIP3    H241839   2.794   4.531   5.123
13966TIP3   OH241840   7.373   5.193   1.314
13966TIP3    H141841   7.321   5.206   1.393
13966TIP3    H241842   7.329   5.122   1.267
13967TIP3   OH241843   5.460   6.438   6.612
13967TIP3    H141844   5.491   6.348   6.600
13967TIP3    H241845   5.371   6.429   6.645
13968TIP3   OH241846   3.284   1.265   0.446
13968TIP3    H141847   3.372   1.232   0.462
13968TIP3    H241848   3.230   1.186   0.439
13969TIP3   OH241849   5.589   3.819   1.370
13969TIP3    H141850   5.683   3.804   1.384
13969TIP3    H241851   5.564   3.755   1.304
13970TIP3   OH241852   1.909   7.599   0.618
13970TIP3    H141853   1.870   7.557   0.694
13970TIP3    H241854   1.943   7.682   0.651
13971TIP3   OH241855   0.203   7.144   6.456
13971TIP3    H141856   0.117   7.105   6.441
13971TIP3    H241857   0.187   7.216   6.517
13972TIP3   OH241858   5.274   3.150   6.765
13972TIP3    H141859   5.193   3.160   6.716
13972TIP3    H241860   5.246   3.147   6.857
13973TIP3   OH241861   1.017   7.029   5.352
13973TIP3    H141862   1.000   7.052   5.261
13973TIP3    H241863   1.110   7.045   5.364
13974TIP3   OH241864   7.783   4.351   6.051
13974TIP3    H141865   7.875   4.373   6.062
13974TIP3    H241866   7.763   4.291   6.123
13975TIP3   OH241867   5.560   5.204   3.389
13975TIP3    H141868   5.549   5.110   3.404
13975TIP3    H241869   5.541   5.216   3.296
13976TIP3   OH241870   3.097   1.352   1.014
13976TIP3    H141871   3.052   1.352   0.929
13976TIP3    H241872   3.079   1.266   1.051
13977TIP3   OH241873   6.971   5.456   3.558
13977TIP3    H141874   6.909   5.422   3.623
13977TIP3    H241875   6.938   5.423   3.474
13978TIP3   OH241876   3.692   1.289   1.085
13978TIP3    H141877   3.786   1.275   1.098
13978TIP3    H241878   3.653   1.274   1.171
13979TIP3   OH241879   4.618   4.764   3.592
13979TIP3    H141880   4.583   4.852   3.607
13979TIP3    H241881   4.708   4.779   3.564
13980TIP3   OH241882   5.031   2.797   5.167
13980TIP3    H141883   5.066   2.789   5.256
13980TIP3    H241884   5.032   2.708   5.133
13981TIP3   OH241885   2.698   2.591   3.983
13981TIP3    H141886   2.698   2.601   4.078
13981TIP3    H241887   2.621   2.539   3.964
13982TIP3   OH241888   2.294   4.741   0.057
13982TIP3    H141889   2.323   4.756   0.147
13982TIP3    H241890   2.376   4.737   0.007
13983TIP3   OH241891   7.369   3.986   3.539
13983TIP3    H141892   7.462   3.973   3.520
13983TIP3    H241893   7.363   3.988   3.634
13984TIP3   OH241894   3.306   1.052   2.642
13984TIP3    H141895   3.282   1.140   2.616
13984TIP3    H241896   3.370   1.064   2.712
13985TIP3   OH241897   4.105   6.783   6.074
13985TIP3    H141898   4.017   6.808   6.046
13985TIP3    H241899   4.098   6.772   6.169
13986TIP3   OH241900   5.277   5.048   5.098
13986TIP3    H141901   5.202   4.995   5.072
13986TIP3    H241902   5.241   5.137   5.106
13987TIP3   OH241903   0.508   0.441   3.759
13987TIP3    H141904   0.514   0.499   3.684
13987TIP3    H241905   0.561   0.364   3.735
13988TIP3   OH241906   7.811   7.710   3.763
13988TIP3    H141907   7.783   7.622   3.786
13988TIP3    H241908   7.787   7.764   3.839
13989TIP3   OH241909   7.855   7.517   0.671
13989TIP3    H141910   7.890   7.447   0.616
13989TIP3    H241911   7.785   7.556   0.619
13990TIP3   OH241912   3.490   3.702   0.038
13990TIP3    H141913   3.448   3.735   0.117
13990TIP3    H241914   3.521   3.615   0.061
13991TIP3   OH241915   3.649   1.501   5.606
13991TIP3    H141916   3.589   1.509   5.532
13991TIP3    H241917   3.663   1.591   5.635
13992TIP3   OH241918   5.809   0.063   6.755
13992TIP3    H141919   5.733   0.109   6.789
13992TIP3    H241920   5.774  -0.018   6.718
13993TIP3   OH241921   6.217   7.092   0.331
13993TIP3    H141922   6.194   7.019   0.389
13993TIP3    H241923   6.185   7.066   0.245
13994TIP3   OH241924   3.644   4.861   6.051
13994TIP3    H141925   3.562   4.814   6.067
13994TIP3    H241926   3.708   4.817   6.106
13995TIP3   OH241927   2.747   6.384   5.005
13995TIP3    H141928   2.718   6.459   4.953
13995TIP3    H241929   2.666   6.345   5.039
13996TIP3   OH241930   2.054   4.742   0.886
13996TIP3    H141931   2.126   4.781   0.935
13996TIP3    H241932   1.995   4.814   0.867
13997TIP3   OH241933   3.307   5.668   0.062
13997TIP3    H141934   3.397   5.686   0.088
13997TIP3    H241935   3.255   5.681   0.142
13998TIP3   OH241936   8.056   1.957   5.472
13998TIP3    H141937   7.996   2.031   5.465
13998TIP3    H241938   8.101   1.970   5.556
13999TIP3   OH241939   7.383   1.525   5.864
13999TIP3    H141940   7.305   1.534   5.919
13999TIP3    H241941   7.382   1.604   5.809
14000TIP3   OH241942   5.106   7.467   3.172
14000TIP3    H141943   5.172   7.429   3.230
14000TIP3    H241944   5.031   7.485   3.229
14001TIP3   OH241945   6.635   2.668   3.616
14001TIP3    H141946   6.555   2.714   3.643
14001TIP3    H241947   6.675   2.639   3.698
14002TIP3   OH241948   0.587   4.609   3.679
14002TIP3    H141949   0.588   4.560   3.761
14002TIP3    H241950   0.621   4.695   3.702
14003TIP3   OH241951   6.394   5.707   0.174
14003TIP3    H141952   6.425   5.796   0.192
14003TIP3    H241953   6.378   5.705   0.080
14004TIP3   OH241954   3.702   1.132   1.761
14004TIP3    H141955   3.727   1.053   1.713
14004TIP3    H241956   3.606   1.129   1.764
14005TIP3   OH241957   5.030   7.106   3.528
14005TIP3    H141958   4.982   7.174   3.481
14005TIP3    H241959   5.050   7.146   3.613
14006TIP3   OH241960   3.298   0.362   2.581
14006TIP3    H141961   3.358   0.418   2.630
14006TIP3    H241962   3.254   0.422   2.520
14007TIP3   OH241963   3.328   6.924   0.178
14007TIP3    H141964   3.253   6.910   0.237
14007TIP3    H241965   3.345   6.838   0.140
14008TIP3   OH241966   2.376   7.373   5.776
14008TIP3    H141967   2.320   7.297   5.792
14008TIP3    H241968   2.455   7.357   5.828
14009TIP3   OH241969   3.068   1.269   6.138
14009TIP3    H141970   3.047   1.305   6.052
14009TIP3    H241971   2.994   1.296   6.193
14010TIP3   OH241972   2.955   7.672   4.505
14010TIP3    H141973   3.000   7.677   4.589
14010TIP3    H241974   2.976   7.755   4.461
14011TIP3   OH241975   1.749   0.644   3.804
14011TIP3    H141976   1.751   0.548   3.797
14011TIP3    H241977   1.755   0.675   3.714
14012TIP3   OH241978   8.144   6.752   6.443
14012TIP3    H141979   8.105   6.694   6.509
14012TIP3    H241980   8.202   6.695   6.392
14013TIP3   OH241981   5.164   0.790   1.617
14013TIP3    H141982   5.248   0.772   1.658
14013TIP3    H241983   5.182   0.790   1.523
14014TIP3   OH241984   3.195   0.567   5.327
14014TIP3    H141985   3.283   0.600   5.342
14014TIP3    H241986   3.161   0.547   5.415
14015TIP3   OH241987   2.427   5.938   1.519
14015TIP3    H141988   2.471   5.857   1.492
14015TIP3    H241989   2.470   5.962   1.601
14016TIP3   OH241990   5.243   7.683   1.737
14016TIP3    H141991   5.246   7.694   1.642
14016TIP3    H241992   5.220   7.591   1.750
14017TIP3   OH241993   5.761   6.809   2.366
14017TIP3    H141994   5.805   6.835   2.447
14017TIP3    H241995   5.822   6.833   2.297
14018TIP3   OH241996   5.318   5.444   6.426
14018TIP3    H141997   5.405   5.414   6.450
14018TIP3    H241998   5.327   5.539   6.417
14019TIP3   OH241999   6.297   3.628   4.892
14019TIP3    H142000   6.267   3.561   4.830
14019TIP3    H242001   6.350   3.688   4.839
14020TIP3   OH242002   7.459   0.140   4.365
14020TIP3    H142003   7.366   0.144   4.389
14020TIP3    H242004   7.463   0.073   4.296
14021TIP3   OH242005   6.286   0.842   3.251
14021TIP3    H142006   6.334   0.892   3.317
14021TIP3    H242007   6.196   0.839   3.283
14022TIP3   OH242008   1.215   6.636   5.904
14022TIP3    H142009   1.142   6.639   5.842
14022TIP3    H242010   1.285   6.684   5.861
14023TIP3   OH242011   6.620   2.656   0.064
14023TIP3    H142012   6.538   2.617   0.035
14023TIP3    H242013   6.673   2.665  -0.015
14024TIP3   OH242014   6.060   6.271   4.911
14024TIP3    H142015   6.013   6.188   4.923
14024TIP3    H242016   6.152   6.249   4.928
14025TIP3   OH242017   4.470   6.005   2.591
14025TIP3    H142018   4.548   5.991   2.537
14025TIP3    H242019   4.423   5.922   2.587
14026TIP3   OH242020   6.876   2.085   3.170
14026TIP3    H142021   6.847   2.093   3.261
14026TIP3    H242022   6.796   2.087   3.118
14027TIP3   OH242023   0.574   2.781   5.368
14027TIP3    H142024   0.566   2.762   5.275
14027TIP3    H242025   0.502   2.842   5.385
14028TIP3   OH242026   6.094   5.544   0.917
14028TIP3    H142027   6.013   5.512   0.878
14028TIP3    H242028   6.067   5.578   1.003
14029TIP3   OH242029   6.600   0.649   1.787
14029TIP3    H142030   6.562   0.561   1.796
14029TIP3    H242031   6.527   0.708   1.803
14030TIP3   OH242032   4.674   4.594   5.057
14030TIP3    H142033   4.731   4.517   5.070
14030TIP3    H242034   4.587   4.557   5.044
14031TIP3   OH242035   7.749   1.111   2.045
14031TIP3    H142036   7.730   1.020   2.065
14031TIP3    H242037   7.802   1.141   2.119
14032TIP3   OH242038   7.013   5.092   1.414
14032TIP3    H142039   7.050   5.087   1.325
14032TIP3    H242040   7.076   5.044   1.468
14033TIP3   OH242041   3.423   4.154   2.033
14033TIP3    H142042   3.504   4.140   1.984
14033TIP3    H242043   3.444   4.224   2.094
14034TIP3   OH242044   2.258   0.086   3.557
14034TIP3    H142045   2.164   0.092   3.574
14034TIP3    H242046   2.283   0.003   3.597
14035TIP3   OH242047   1.759   2.611   0.336
14035TIP3    H142048   1.748   2.699   0.301
14035TIP3    H242049   1.692   2.559   0.290
14036TIP3   OH242050   2.828   7.349   5.624
14036TIP3    H142051   2.864   7.275   5.672
14036TIP3    H242052   2.870   7.426   5.661
14037TIP3   OH242053   1.612   0.093   1.039
14037TIP3    H142054   1.706   0.081   1.024
14037TIP3    H242055   1.571   0.063   0.958
14038TIP3   OH242056   4.749   1.501   0.195
14038TIP3    H142057   4.790   1.537   0.117
14038TIP3    H242058   4.681   1.442   0.162
14039TIP3   OH242059   6.117   6.513   0.594
14039TIP3    H142060   6.027   6.541   0.610
14039TIP3    H242061   6.110   6.445   0.527
14040TIP3   OH242062   2.995   2.557   5.681
14040TIP3    H142063   2.962   2.504   5.753
14040TIP3    H242064   3.084   2.525   5.667
14041TIP3   OH242065   2.715   0.195   3.892
14041TIP3    H142066   2.650   0.222   3.826
14041TIP3    H242067   2.701   0.101   3.902
14042TIP3   OH242068   3.950   6.064   0.291
14042TIP3    H142069   3.997   5.994   0.337
14042TIP3    H242070   3.950   6.137   0.352
14043TIP3   OH242071   2.542   5.217   4.552
14043TIP3    H142072   2.456   5.234   4.591
14043TIP3    H242073   2.591   5.171   4.620
14044TIP3   OH242074   1.795   7.686   5.955
14044TIP3    H142075   1.834   7.600   5.974
14044TIP3    H242076   1.795   7.731   6.039
14045TIP3   OH242077   3.510   7.627   0.023
14045TIP3    H142078   3.496   7.721   0.033
14045TIP3    H242079   3.488   7.591   0.109
14046TIP3   OH242080   2.269   3.752   3.802
14046TIP3    H142081   2.330   3.778   3.872
14046TIP3    H242082   2.214   3.685   3.842
14047TIP3   OH242083   0.457   2.519   4.070
14047TIP3    H142084   0.435   2.428   4.049
14047TIP3    H242085   0.376   2.567   4.059
14048TIP3   OH242086   3.316   4.229   6.573
14048TIP3    H142087   3.236   4.190   6.539
14048TIP3    H242088   3.293   4.260   6.661
14049TIP3   OH242089   1.039   6.278   6.267
14049TIP3    H142090   1.131   6.295   6.244
14049TIP3    H242091   1.008   6.219   6.199
14050TIP3   OH242092   6.927   0.718   4.142
14050TIP3    H142093   6.925   0.647   4.077
14050TIP3    H242094   7.020   0.741   4.149
14051TIP3   OH242095   5.787   2.484   3.459
14051TIP3    H142096   5.760   2.436   3.381
14051TIP3    H242097   5.874   2.517   3.438
14052TIP3   OH242098   6.764   7.574   0.811
14052TIP3    H142099   6.688   7.530   0.773
14052TIP3    H242100   6.727   7.643   0.866
14053TIP3   OH242101   6.377   2.627   5.360
14053TIP3    H142102   6.397   2.663   5.273
14053TIP3    H242103   6.393   2.533   5.351
14054TIP3   OH242104   5.638   4.487   5.507
14054TIP3    H142105   5.693   4.412   5.483
14054TIP3    H242106   5.695   4.563   5.495
14055TIP3   OH242107   3.826   0.849   5.542
14055TIP3    H142108   3.801   0.859   5.450
14055TIP3    H242109   3.828   0.938   5.576
14056TIP3   OH242110   2.326   7.596   0.482
14056TIP3    H142111   2.419   7.620   0.479
14056TIP3    H242112   2.297   7.602   0.391
14057TIP3   OH242113   8.064   6.571   0.094
14057TIP3    H142114   8.137   6.513   0.073
14057TIP3    H242115   7.988   6.528   0.056
14058TIP3   OH242116   4.887   6.625   1.789
14058TIP3    H142117   4.957   6.677   1.827
14058TIP3    H242118   4.894   6.539   1.832
14059TIP3   OH242119   0.665   1.181   3.300
14059TIP3    H142120   0.590   1.126   3.324
14059TIP3    H242121   0.659   1.256   3.359
14060TIP3   OH242122   5.442   1.692   4.579
14060TIP3    H142123   5.439   1.597   4.571
14060TIP3    H242124   5.493   1.721   4.503
14061TIP3   OH242125   7.553   7.304   1.936
14061TIP3    H142126   7.593   7.357   1.867
14061TIP3    H242127   7.597   7.219   1.929
14062TIP3   OH242128   7.830   5.723   1.221
14062TIP3    H142129   7.832   5.712   1.126
14062TIP3    H242130   7.887   5.798   1.238
14063TIP3   OH242131   7.323   2.147   2.463
14063TIP3    H142132   7.369   2.071   2.427
14063TIP3    H242133   7.265   2.176   2.392
14064TIP3   OH242134   6.303   7.271   4.539
14064TIP3    H142135   6.304   7.180   4.567
14064TIP3    H242136   6.246   7.272   4.462
14065TIP3   OH242137   3.251   3.290   3.964
14065TIP3    H142138   3.207   3.249   3.889
14065TIP3    H242139   3.195   3.364   3.986
14066TIP3   OH242140   6.223   6.223   1.953
14066TIP3    H142141   6.248   6.290   1.889
14066TIP3    H242142   6.181   6.155   1.900
14067TIP3   OH242143   4.314   0.610   5.014
14067TIP3    H142144   4.311   0.705   5.026
14067TIP3    H242145   4.333   0.576   5.101
14068TIP3   OH242146   3.638   7.695   1.036
14068TIP3    H142147   3.669   7.676   0.948
14068TIP3    H242148   3.685   7.773   1.062
14069TIP3   OH242149   2.759   3.447   1.475
14069TIP3    H142150   2.750   3.353   1.461
14069TIP3    H242151   2.841   3.456   1.523
14070TIP3   OH242152   7.287   3.194   2.886
14070TIP3    H142153   7.225   3.130   2.852
14070TIP3    H242154   7.266   3.201   2.979
14071TIP3   OH242155   2.901   3.284   0.920
14071TIP3    H142156   2.825   3.235   0.951
14071TIP3    H242157   2.973   3.254   0.976
14072TIP3   OH242158   3.476   4.364   2.194
14072TIP3    H142159   3.527   4.427   2.144
14072TIP3    H242160   3.459   4.407   2.277
14073TIP3   OH242161   7.200   4.999   1.208
14073TIP3    H142162   7.232   4.962   1.126
14073TIP3    H242163   7.182   4.922   1.263
14074TIP3   OH242164   1.654   7.286   6.339
14074TIP3    H142165   1.646   7.349   6.267
14074TIP3    H242166   1.655   7.200   6.295
14075TIP3   OH242167   2.716   5.317   2.928
14075TIP3    H142168   2.675   5.258   2.991
14075TIP3    H242169   2.649   5.382   2.909
14076TIP3   OH242170   7.031   0.808   1.662
14076TIP3    H142171   6.961   0.802   1.727
14076TIP3    H242172   7.010   0.740   1.598
14077TIP3   OH242173   5.201   1.540   1.318
14077TIP3    H142174   5.162   1.619   1.281
14077TIP3    H242175   5.282   1.570   1.360
14078TIP3   OH242176   4.952   0.297   2.708
14078TIP3    H142177   4.938   0.275   2.616
14078TIP3    H242178   4.865   0.318   2.741
14079TIP3   OH242179   0.895   7.360   2.094
14079TIP3    H142180   0.981   7.343   2.056
14079TIP3    H242181   0.867   7.443   2.054
14080TIP3   OH242182   6.069   0.107   4.363
14080TIP3    H142183   6.085   0.200   4.347
14080TIP3    H242184   5.974   0.096   4.354
14081TIP3   OH242185   8.062   0.746   3.428
14081TIP3    H142186   8.017   0.830   3.434
14081TIP3    H242187   8.029   0.707   3.346
14082TIP3   OH242188   3.182   6.184   4.181
14082TIP3    H142189   3.134   6.263   4.207
14082TIP3    H242190   3.115   6.115   4.179
14083TIP3   OH242191   8.101   5.351   4.186
14083TIP3    H142192   8.089   5.392   4.101
14083TIP3    H242193   8.013   5.319   4.209
14084TIP3   OH242194   7.532   7.026   6.287
14084TIP3    H142195   7.477   7.069   6.221
14084TIP3    H242196   7.617   7.017   6.243
14085TIP3   OH242197   4.036   1.001   1.023
14085TIP3    H142198   4.074   1.002   1.111
14085TIP3    H242199   3.988   0.918   1.018
14086TIP3   OH242200   6.495   7.332   3.009
14086TIP3    H142201   6.495   7.393   2.935
14086TIP3    H242202   6.412   7.350   3.054
14087TIP3   OH242203   2.010   6.453   6.242
14087TIP3    H142204   2.028   6.441   6.335
14087TIP3    H242205   1.972   6.540   6.236
14088TIP3   OH242206   6.994   3.249   3.897
14088TIP3    H142207   7.057   3.177   3.894
14088TIP3    H242208   7.021   3.308   3.827
14089TIP3   OH242209   8.089   7.444   3.529
14089TIP3    H142210   8.089   7.348   3.522
14089TIP3    H242211   8.075   7.474   3.439
14090TIP3   OH242212   0.998   4.229   1.700
14090TIP3    H142213   0.953   4.269   1.625
14090TIP3    H242214   0.938   4.160   1.729
14091TIP3   OH242215   0.046   5.749   3.272
14091TIP3    H142216   0.050   5.662   3.311
14091TIP3    H242217  -0.003   5.802   3.335
14092TIP3   OH242218   6.878   5.316   1.550
14092TIP3    H142219   6.850   5.249   1.613
14092TIP3    H242220   6.928   5.268   1.485
14093TIP3   OH242221   5.364   2.792   6.143
14093TIP3    H142222   5.413   2.852   6.200
14093TIP3    H242223   5.408   2.800   6.058
14094TIP3   OH242224   4.029   6.505   1.235
14094TIP3    H142225   4.042   6.542   1.322
14094TIP3    H242226   4.081   6.424   1.235
14095TIP3   OH242227   6.098   6.600   3.700
14095TIP3    H142228   6.098   6.571   3.791
14095TIP3    H242229   6.188   6.588   3.671
14096TIP3   OH242230   6.066   0.819   3.394
14096TIP3    H142231   5.995   0.850   3.450
14096TIP3    H242232   6.104   0.746   3.441
14097TIP3   OH242233   2.083   0.783   1.091
14097TIP3    H142234   2.047   0.726   1.023
14097TIP3    H242235   2.167   0.744   1.114
14098TIP3   OH242236   7.409   3.697   4.454
14098TIP3    H142237   7.440   3.626   4.511
14098TIP3    H242238   7.468   3.770   4.474
14099TIP3   OH242239   0.775   2.059   2.233
14099TIP3    H142240   0.745   1.968   2.240
14099TIP3    H242241   0.786   2.074   2.139
14100TIP3   OH242242   3.725   0.196   5.319
14100TIP3    H142243   3.690   0.138   5.251
14100TIP3    H242244   3.757   0.272   5.270
14101TIP3   OH242245   2.817   1.617   4.761
14101TIP3    H142246   2.851   1.701   4.792
14101TIP3    H242247   2.722   1.626   4.766
14102TIP3   OH242248   2.171   1.754   2.147
14102TIP3    H142249   2.164   1.781   2.238
14102TIP3    H242250   2.129   1.668   2.144
14103TIP3   OH242251   3.492   2.307   0.181
14103TIP3    H142252   3.479   2.245   0.109
14103TIP3    H242253   3.412   2.359   0.182
14104TIP3   OH242254   0.814   0.858   5.519
14104TIP3    H142255   0.909   0.851   5.515
14104TIP3    H242256   0.796   0.899   5.603
14105TIP3   OH242257   4.178   7.672   3.648
14105TIP3    H142258   4.161   7.752   3.597
14105TIP3    H242259   4.249   7.697   3.707
14106TIP3   OH242260   5.529   4.690   4.331
14106TIP3    H142261   5.546   4.606   4.288
14106TIP3    H242262   5.607   4.705   4.385
14107TIP3   OH242263   0.320   6.297   0.188
14107TIP3    H142264   0.309   6.212   0.144
14107TIP3    H242265   0.322   6.275   0.281
14108TIP3   OH242266   6.077   7.411   6.087
14108TIP3    H142267   5.988   7.377   6.076
14108TIP3    H242268   6.087   7.475   6.017
14109TIP3   OH242269   3.421   0.454   2.930
14109TIP3    H142270   3.458   0.368   2.914
14109TIP3    H242271   3.405   0.490   2.843
14110TIP3   OH242272   4.170   4.349   0.277
14110TIP3    H142273   4.081   4.316   0.288
14110TIP3    H242274   4.189   4.394   0.360
14111TIP3   OH242275   5.524   2.397   3.009
14111TIP3    H142276   5.474   2.340   2.950
14111TIP3    H242277   5.530   2.481   2.962
14112TIP3   OH242278   4.672   4.274   6.384
14112TIP3    H142279   4.759   4.270   6.345
14112TIP3    H242280   4.612   4.251   6.313
14113TIP3   OH242281   0.876   7.481   1.098
14113TIP3    H142282   0.930   7.505   1.174
14113TIP3    H242283   0.921   7.520   1.024
14114TIP3   OH242284   0.872   7.347   2.390
14114TIP3    H142285   0.934   7.362   2.462
14114TIP3    H242286   0.920   7.293   2.328
14115TIP3   OH242287   5.807   7.693   3.594
14115TIP3    H142288   5.731   7.740   3.558
14115TIP3    H242289   5.837   7.637   3.522
14116TIP3   OH242290   2.223   5.570   2.274
14116TIP3    H142291   2.241   5.478   2.258
14116TIP3    H242292   2.252   5.614   2.194
14117TIP3   OH242293   7.012   5.569   4.933
14117TIP3    H142294   7.030   5.479   4.906
14117TIP3    H242295   6.976   5.561   5.021
14118TIP3   OH242296   7.828   6.265   2.876
14118TIP3    H142297   7.916   6.233   2.854
14118TIP3    H242298   7.804   6.213   2.953
14119TIP3   OH242299   1.526   4.097   2.099
14119TIP3    H142300   1.442   4.099   2.055
14119TIP3    H242301   1.516   4.159   2.171
14120TIP3   OH242302   0.092   1.802   5.174
14120TIP3    H142303   0.061   1.711   5.183
14120TIP3    H242304   0.181   1.794   5.142
14121TIP3   OH242305   4.634   1.393   4.708
14121TIP3    H142306   4.688   1.390   4.786
14121TIP3    H242307   4.553   1.349   4.732
14122TIP3   OH242308   4.498   2.826   0.820
14122TIP3    H142309   4.427   2.796   0.763
14122TIP3    H242310   4.458   2.832   0.907
14123TIP3   OH242311   7.628   0.922   6.215
14123TIP3    H142312   7.561   0.869   6.257
14123TIP3    H242313   7.628   0.893   6.123
14124TIP3   OH242314   5.498   1.853   6.085
14124TIP3    H142315   5.511   1.848   6.179
14124TIP3    H242316   5.469   1.765   6.060
14125TIP3   OH242317   5.491   5.437   4.899
14125TIP3    H142318   5.482   5.475   4.987
14125TIP3    H242319   5.432   5.489   4.844
14126TIP3   OH242320   5.935   0.565   4.800
14126TIP3    H142321   5.901   0.533   4.884
14126TIP3    H242322   6.024   0.595   4.821
14127TIP3   OH242323   7.234   3.060   2.242
14127TIP3    H142324   7.158   3.117   2.251
14127TIP3    H242325   7.308   3.117   2.265
14128TIP3   OH242326   4.212   0.130   5.661
14128TIP3    H142327   4.163   0.173   5.731
14128TIP3    H242328   4.301   0.165   5.670
14129TIP3   OH242329   3.975   2.797   3.468
14129TIP3    H142330   3.973   2.786   3.563
14129TIP3    H242331   3.894   2.755   3.438
14130TIP3   OH242332   4.358   6.234   4.123
14130TIP3    H142333   4.397   6.271   4.044
14130TIP3    H242334   4.335   6.144   4.098
14131TIP3   OH242335   2.419   1.627   6.188
14131TIP3    H142336   2.470   1.546   6.180
14131TIP3    H242337   2.481   1.691   6.221
14132TIP3   OH242338   5.914   0.295   0.721
14132TIP3    H142339   5.834   0.242   0.723
14132TIP3    H242340   5.889   0.377   0.764
14133TIP3   OH242341   5.730   5.151   6.511
14133TIP3    H142342   5.777   5.190   6.437
14133TIP3    H242343   5.793   5.091   6.550
14134TIP3   OH242344   8.292   6.123   1.826
14134TIP3    H142345   8.251   6.065   1.890
14134TIP3    H242346   8.266   6.211   1.853
14135TIP3   OH242347   6.196   5.070   3.206
14135TIP3    H142348   6.248   5.077   3.126
14135TIP3    H242349   6.249   5.015   3.264
14136TIP3   OH242350   8.212   5.527   6.295
14136TIP3    H142351   8.197   5.618   6.270
14136TIP3    H242352   8.224   5.480   6.213
14137TIP3   OH242353   5.411   1.823   5.192
14137TIP3    H142354   5.500   1.801   5.163
14137TIP3    H242355   5.403   1.917   5.176
14138TIP3   OH242356   2.274   6.002   0.144
14138TIP3    H142357   2.247   6.093   0.155
14138TIP3    H242358   2.200   5.960   0.101
14139TIP3   OH242359   0.070   4.227   6.402
14139TIP3    H142360   0.082   4.144   6.357
14139TIP3    H242361   0.084   4.293   6.334
14140TIP3   OH242362   1.790   4.599   0.382
14140TIP3    H142363   1.730   4.652   0.433
14140TIP3    H242364   1.850   4.662   0.343
14141TIP3   OH242365   2.078   0.257   0.954
14141TIP3    H142366   2.157   0.224   0.911
14141TIP3    H242367   2.100   0.258   1.047
14142TIP3   OH242368   5.557   0.215   0.943
14142TIP3    H142369   5.600   0.203   0.859
14142TIP3    H242370   5.611   0.168   1.006
14143TIP3   OH242371   1.893   0.823   2.067
14143TIP3    H142372   1.889   0.737   2.026
14143TIP3    H242373   1.905   0.805   2.160
14144TIP3   OH242374   8.248   4.657   5.735
14144TIP3    H142375   8.216   4.672   5.824
14144TIP3    H242376   8.274   4.565   5.734
14145TIP3   OH242377   1.194   1.696   4.996
14145TIP3    H142378   1.286   1.714   4.975
14145TIP3    H242379   1.177   1.745   5.076
14146TIP3   OH242380   8.032   4.447   1.569
14146TIP3    H142381   7.981   4.452   1.650
14146TIP3    H242382   7.975   4.488   1.503
14147TIP3   OH242383   1.197   5.424   0.799
14147TIP3    H142384   1.214   5.330   0.791
14147TIP3    H242385   1.115   5.429   0.849
14148TIP3   OH242386   3.259   5.915   2.630
14148TIP3    H142387   3.200   5.845   2.659
14148TIP3    H242388   3.209   5.962   2.563
14149TIP3   OH242389   5.020   3.049   5.062
14149TIP3    H142390   5.013   2.954   5.057
14149TIP3    H242391   5.044   3.077   4.974
14150TIP3   OH242392   6.002   4.809   2.072
14150TIP3    H142393   6.066   4.853   2.127
14150TIP3    H242394   6.036   4.720   2.062
14151TIP3   OH242395   2.018   0.631   5.212
14151TIP3    H142396   2.061   0.545   5.208
14151TIP3    H242397   1.935   0.614   5.256
14152TIP3   OH242398   3.213   5.854   6.147
14152TIP3    H142399   3.148   5.902   6.096
14152TIP3    H242400   3.267   5.810   6.081
14153TIP3   OH242401   5.246   6.733   6.539
14153TIP3    H142402   5.173   6.793   6.554
14153TIP3    H242403   5.248   6.678   6.618
14154TIP3   OH242404   2.991   6.107   6.288
14154TIP3    H142405   2.957   6.043   6.225
14154TIP3    H242406   2.914   6.156   6.317
14155TIP3   OH242407   0.419   3.600   4.600
14155TIP3    H142408   0.435   3.669   4.665
14155TIP3    H242409   0.332   3.620   4.565
14156TIP3   OH242410   4.926   2.304   5.024
14156TIP3    H142411   4.859   2.312   4.955
14156TIP3    H242412   4.983   2.233   4.994
14157TIP3   OH242413   1.670   0.207   1.747
14157TIP3    H142414   1.692   0.263   1.821
14157TIP3    H242415   1.662   0.119   1.785
14158TIP3   OH242416   6.992   6.623   1.680
14158TIP3    H142417   6.936   6.690   1.719
14158TIP3    H242418   6.955   6.540   1.709
14159TIP3   OH242419   2.345   1.866   0.118
14159TIP3    H142420   2.399   1.817   0.180
14159TIP3    H242421   2.342   1.955   0.154
14160TIP3   OH242422   1.949   6.747   3.321
14160TIP3    H142423   2.038   6.750   3.355
14160TIP3    H242424   1.953   6.686   3.247
14161TIP3   OH242425   5.330   6.749   3.077
14161TIP3    H142426   5.339   6.655   3.092
14161TIP3    H242427   5.404   6.788   3.123
14162TIP3   OH242428   7.156   3.805   4.557
14162TIP3    H142429   7.219   3.733   4.564
14162TIP3    H242430   7.117   3.794   4.471
14163TIP3   OH242431   5.577   4.570   5.170
14163TIP3    H142432   5.665   4.606   5.165
14163TIP3    H242433   5.520   4.639   5.136
14164TIP3   OH242434   5.143   3.642   1.484
14164TIP3    H142435   5.085   3.690   1.544
14164TIP3    H242436   5.195   3.710   1.442
14165TIP3   OH242437   7.551   4.792   3.206
14165TIP3    H142438   7.568   4.788   3.300
14165TIP3    H242439   7.609   4.726   3.168
14166TIP3   OH242440   1.266   5.150   3.980
14166TIP3    H142441   1.266   5.209   3.905
14166TIP3    H242442   1.329   5.188   4.041
14167TIP3   OH242443   2.394   4.275   1.447
14167TIP3    H142444   2.432   4.264   1.534
14167TIP3    H242445   2.306   4.309   1.463
14168TIP3   OH242446   5.453   3.650   0.290
14168TIP3    H142447   5.497   3.596   0.356
14168TIP3    H242448   5.397   3.589   0.242
14169TIP3   OH242449   5.326   5.618   1.758
14169TIP3    H142450   5.337   5.712   1.740
14169TIP3    H242451   5.408   5.579   1.730
14170TIP3   OH242452   6.169   2.868   5.299
14170TIP3    H142453   6.166   2.802   5.230
14170TIP3    H242454   6.120   2.942   5.263
14171TIP3   OH242455   1.942   3.180   5.583
14171TIP3    H142456   1.854   3.161   5.552
14171TIP3    H242457   1.975   3.096   5.615
14172TIP3   OH242458   6.975   2.904   0.778
14172TIP3    H142459   7.010   2.917   0.866
14172TIP3    H242460   7.018   2.824   0.747
14173TIP3   OH242461   5.097   3.753   3.149
14173TIP3    H142462   5.098   3.849   3.151
14173TIP3    H242463   5.032   3.729   3.215
14174TIP3   OH242464   1.012   7.115   4.306
14174TIP3    H142465   1.003   7.206   4.332
14174TIP3    H242466   0.954   7.066   4.364
14175TIP3   OH242467   4.738   3.737   3.120
14175TIP3    H142468   4.733   3.737   3.024
14175TIP3    H242469   4.754   3.829   3.143
14176TIP3   OH242470   7.041   5.188   0.169
14176TIP3    H142471   6.973   5.154   0.228
14176TIP3    H242472   7.074   5.111   0.124
14177TIP3   OH242473   3.900   0.974   0.731
14177TIP3    H142474   3.916   0.884   0.757
14177TIP3    H242475   3.985   1.006   0.699
14178TIP3   OH242476   1.949   2.603   0.546
14178TIP3    H142477   1.891   2.587   0.472
14178TIP3    H242478   1.891   2.636   0.615
14179TIP3   OH242479   4.180   5.060   0.192
14179TIP3    H142480   4.205   5.020   0.108
14179TIP3    H242481   4.189   5.154   0.177
14180TIP3   OH242482   4.524   2.328   3.339
14180TIP3    H142483   4.553   2.276   3.264
14180TIP3    H242484   4.455   2.385   3.303
14181TIP3   OH242485   6.613   1.362   2.333
14181TIP3    H142486   6.578   1.395   2.250
14181TIP3    H242487   6.569   1.415   2.399
14182TIP3   OH242488   4.213   1.478   1.512
14182TIP3    H142489   4.182   1.496   1.601
14182TIP3    H242490   4.163   1.539   1.458
14183TIP3   OH242491   5.542   3.359   0.372
14183TIP3    H142492   5.498   3.363   0.286
14183TIP3    H242493   5.474   3.328   0.432
14184TIP3   OH242494   1.808   3.168   6.146
14184TIP3    H142495   1.718   3.200   6.137
14184TIP3    H242496   1.860   3.226   6.089
14185TIP3   OH242497   2.043   2.765   2.415
14185TIP3    H142498   2.068   2.817   2.339
14185TIP3    H242499   1.956   2.799   2.439
14186TIP3   OH242500   7.602   0.169   1.821
14186TIP3    H142501   7.644   0.226   1.757
14186TIP3    H242502   7.675   0.117   1.857
14187TIP3   OH242503   8.154   6.386   1.942
14187TIP3    H142504   8.077   6.408   1.889
14187TIP3    H242505   8.124   6.394   2.033
14188TIP3   OH242506   5.832   4.652   0.817
14188TIP3    H142507   5.841   4.603   0.898
14188TIP3    H242508   5.782   4.730   0.841
14189TIP3   OH242509   7.687   5.015   3.076
14189TIP3    H142510   7.685   4.941   3.016
14189TIP3    H242511   7.743   4.987   3.148
14190TIP3   OH242512   4.481   2.049   6.232
14190TIP3    H142513   4.510   1.970   6.277
14190TIP3    H242514   4.487   2.028   6.139
14191TIP3   OH242515   5.787   7.011   1.870
14191TIP3    H142516   5.822   6.926   1.895
14191TIP3    H242517   5.864   7.064   1.850
14192TIP3   OH242518   8.020   0.642   3.166
14192TIP3    H142519   7.954   0.649   3.097
14192TIP3    H242520   8.101   0.674   3.124
14193TIP3   OH242521   0.057   3.161   0.358
14193TIP3    H142522   0.024   3.076   0.329
14193TIP3    H242523   0.010   3.224   0.303
14194TIP3   OH242524   3.691   1.431   0.135
14194TIP3    H142525   3.697   1.525   0.117
14194TIP3    H242526   3.674   1.426   0.229
14195TIP3   OH242527   7.783   4.228   6.481
14195TIP3    H142528   7.749   4.306   6.437
14195TIP3    H242529   7.802   4.167   6.409
14196TIP3   OH242530   6.549   4.738   0.481
14196TIP3    H142531   6.562   4.816   0.426
14196TIP3    H242532   6.454   4.726   0.483
14197TIP3   OH242533   7.544   6.724   0.093
14197TIP3    H142534   7.530   6.633   0.117
14197TIP3    H242535   7.474   6.771   0.138
14198TIP3   OH242536   5.035   0.149   4.989
14198TIP3    H142537   5.015   0.240   5.011
14198TIP3    H242538   5.130   0.146   4.985
14199TIP3   OH242539   1.967   5.754   2.524
14199TIP3    H142540   2.026   5.786   2.592
14199TIP3    H242541   1.926   5.676   2.562
14200TIP3   OH242542   0.779   3.822   0.087
14200TIP3    H142543   0.788   3.759   0.158
14200TIP3    H242544   0.684   3.825   0.070
14201TIP3   OH242545   6.227   7.160   4.914
14201TIP3    H142546   6.177   7.201   4.985
14201TIP3    H242547   6.318   7.172   4.940
14202TIP3   OH242548   3.354   2.344   5.479
14202TIP3    H142549   3.393   2.376   5.398
14202TIP3    H242550   3.348   2.249   5.467
14203TIP3   OH242551   6.221   1.484   6.670
14203TIP3    H142552   6.202   1.519   6.583
14203TIP3    H242553   6.212   1.559   6.729
14204TIP3   OH242554   1.266   4.658   3.329
14204TIP3    H142555   1.205   4.610   3.385
14204TIP3    H242556   1.351   4.645   3.370
14205TIP3   OH242557   5.891   2.973   0.936
14205TIP3    H142558   5.859   2.941   0.852
14205TIP3    H242559   5.986   2.970   0.929
14206TIP3   OH242560   0.826   2.995   3.589
14206TIP3    H142561   0.885   3.070   3.600
14206TIP3    H242562   0.877   2.933   3.536
14207TIP3   OH242563   7.367   4.184   5.543
14207TIP3    H142564   7.416   4.154   5.620
14207TIP3    H242565   7.290   4.229   5.580
14208TIP3   OH242566   3.924   1.156   4.098
14208TIP3    H142567   3.917   1.078   4.153
14208TIP3    H242568   3.971   1.126   4.020
14209TIP3   OH242569   3.192   0.984   5.843
14209TIP3    H142570   3.204   0.894   5.874
14209TIP3    H242571   3.279   1.024   5.853
14210TIP3   OH242572   1.544   6.115   2.533
14210TIP3    H142573   1.548   6.142   2.625
14210TIP3    H242574   1.451   6.093   2.519
14211TIP3   OH242575   1.028   4.142   2.173
14211TIP3    H142576   0.934   4.138   2.157
14211TIP3    H242577   1.064   4.072   2.119
14212TIP3   OH242578   7.636   7.464   1.737
14212TIP3    H142579   7.710   7.509   1.779
14212TIP3    H242580   7.601   7.528   1.675
14213TIP3   OH242581   1.282   4.753   4.618
14213TIP3    H142582   1.220   4.825   4.622
14213TIP3    H242583   1.367   4.795   4.606
14214TIP3   OH242584   4.810   5.430   5.967
14214TIP3    H142585   4.876   5.425   6.037
14214TIP3    H242586   4.858   5.404   5.888
14215TIP3   OH242587   3.785   1.614   6.686
14215TIP3    H142588   3.815   1.604   6.596
14215TIP3    H242589   3.698   1.653   6.679
14216TIP3   OH242590   5.454   3.924   5.888
14216TIP3    H142591   5.513   3.857   5.852
14216TIP3    H242592   5.381   3.926   5.827
14217TIP3   OH242593   2.540   3.235   1.239
14217TIP3    H142594   2.460   3.193   1.271
14217TIP3    H242595   2.605   3.215   1.306
14218TIP3   OH242596   6.449   2.287   6.591
14218TIP3    H142597   6.443   2.247   6.678
14218TIP3    H242598   6.519   2.352   6.600
14219TIP3   OH242599   2.304   0.003   2.998
14219TIP3    H142600   2.399  -0.013   3.003
14219TIP3    H242601   2.281   0.034   3.086
14220TIP3   OH242602   1.465   4.627   2.948
14220TIP3    H142603   1.417   4.628   2.866
14220TIP3    H242604   1.553   4.657   2.925
14221TIP3   OH242605   8.228   7.152   2.465
14221TIP3    H142606   8.211   7.234   2.513
14221TIP3    H242607   8.254   7.180   2.378
14222TIP3   OH242608   5.183   3.383   3.270
14222TIP3    H142609   5.216   3.316   3.210
14222TIP3    H242610   5.088   3.371   3.269
14223TIP3   OH242611   0.430   5.620   5.616
14223TIP3    H142612   0.373   5.615   5.539
14223TIP3    H242613   0.503   5.675   5.588
14224TIP3   OH242614   3.856   0.756   2.027
14224TIP3    H142615   3.801   0.802   1.964
14224TIP3    H242616   3.830   0.664   2.019
14225TIP3   OH242617   1.200   0.756   5.865
14225TIP3    H142618   1.211   0.663   5.882
14225TIP3    H242619   1.273   0.779   5.806
14226TIP3   OH242620   2.377   7.094   1.984
14226TIP3    H142621   2.382   7.161   2.052
14226TIP3    H242622   2.378   7.143   1.902
14227TIP3   OH242623   6.079   5.582   0.175
14227TIP3    H142624   6.116   5.550   0.093
14227TIP3    H242625   6.155   5.591   0.233
14228TIP3   OH242626   3.563   6.623   4.289
14228TIP3    H142627   3.651   6.588   4.304
14228TIP3    H242628   3.528   6.571   4.217
14229TIP3   OH242629  -0.011   6.229   4.532
14229TIP3    H142630   0.031   6.314   4.518
14229TIP3    H242631   0.038   6.190   4.604
14230TIP3   OH242632   5.680   2.791   3.490
14230TIP3    H142633   5.622   2.863   3.515
14230TIP3    H242634   5.737   2.779   3.566
14231TIP3   OH242635   2.207   5.898   1.293
14231TIP3    H142636   2.277   5.897   1.358
14231TIP3    H242637   2.245   5.942   1.217
14232TIP3   OH242638   3.889   4.346   4.217
14232TIP3    H142639   3.799   4.373   4.198
14232TIP3    H242640   3.933   4.348   4.132
14233TIP3   OH242641   5.442   1.999   6.329
14233TIP3    H142642   5.424   1.947   6.407
14233TIP3    H242643   5.421   2.089   6.354
14234TIP3   OH242644   5.117   0.920   1.037
14234TIP3    H142645   5.173   0.958   1.105
14234TIP3    H242646   5.039   0.977   1.036
14235TIP3   OH242647   3.202   6.171   2.968
14235TIP3    H142648   3.287   6.214   2.964
14235TIP3    H242649   3.221   6.083   3.001
14236TIP3   OH242650   4.349   0.734   4.247
14236TIP3    H142651   4.254   0.724   4.250
14236TIP3    H242652   4.376   0.690   4.167
14237TIP3   OH242653   2.257   2.155   4.399
14237TIP3    H142654   2.193   2.209   4.353
14237TIP3    H242655   2.250   2.069   4.358
14238TIP3   OH242656   4.398   4.768   2.075
14238TIP3    H142657   4.428   4.697   2.018
14238TIP3    H242658   4.423   4.848   2.028
14239TIP3   OH242659   1.462   1.104   1.087
14239TIP3    H142660   1.549   1.063   1.095
14239TIP3    H242661   1.448   1.112   0.993
14240TIP3   OH242662   4.432   7.508   5.817
14240TIP3    H142663   4.418   7.542   5.906
14240TIP3    H242664   4.526   7.496   5.810
14241TIP3   OH242665   7.468   5.134   1.879
14241TIP3    H142666   7.510   5.073   1.939
14241TIP3    H242667   7.404   5.180   1.933
14242TIP3   OH242668   4.678   0.708   3.911
14242TIP3    H142669   4.759   0.696   3.962
14242TIP3    H242670   4.648   0.795   3.934
14243TIP3   OH242671   5.687   3.578   1.796
14243TIP3    H142672   5.632   3.632   1.852
14243TIP3    H242673   5.628   3.546   1.728
14244TIP3   OH242674   5.379   5.630   4.714
14244TIP3    H142675   5.426   5.587   4.642
14244TIP3    H242676   5.417   5.718   4.718
14245TIP3   OH242677   3.350   6.268   0.911
14245TIP3    H142678   3.277   6.214   0.881
14245TIP3    H242679   3.311   6.331   0.970
14246TIP3   OH242680   6.211   6.953   6.209
14246TIP3    H142681   6.291   6.907   6.183
14246TIP3    H242682   6.241   7.020   6.270
14247TIP3   OH242683   1.608   2.995   1.639
14247TIP3    H142684   1.580   3.014   1.729
14247TIP3    H242685   1.689   2.946   1.648
14248TIP3   OH242686   5.205   0.508   3.310
14248TIP3    H142687   5.254   0.452   3.369
14248TIP3    H242688   5.115   0.475   3.314
14249TIP3   OH242689   1.424   6.212   2.192
14249TIP3    H142690   1.341   6.214   2.144
14249TIP3    H242691   1.479   6.152   2.141
14250TIP3   OH242692   5.231   5.683   5.644
14250TIP3    H142693   5.193   5.703   5.559
14250TIP3    H242694   5.319   5.650   5.624
14251TIP3   OH242695   0.140   1.895   0.844
14251TIP3    H142696   0.097   1.829   0.789
14251TIP3    H242697   0.130   1.977   0.796
14252TIP3   OH242698   3.337   2.085   5.350
14252TIP3    H142699   3.279   2.087   5.274
14252TIP3    H242700   3.294   2.024   5.411
14253TIP3   OH242701   3.475   2.673   5.096
14253TIP3    H142702   3.545   2.647   5.036
14253TIP3    H242703   3.504   2.643   5.182
14254TIP3   OH242704   1.319   6.963   2.363
14254TIP3    H142705   1.388   6.929   2.306
14254TIP3    H242706   1.270   6.885   2.390
14255TIP3   OH242707   7.597   3.543   3.499
14255TIP3    H142708   7.663   3.610   3.481
14255TIP3    H242709   7.583   3.548   3.594
14256TIP3   OH242710   5.177   7.166   0.716
14256TIP3    H142711   5.122   7.243   0.732
14256TIP3    H242712   5.217   7.182   0.631
14257TIP3   OH242713   5.191   1.927   2.057
14257TIP3    H142714   5.200   2.021   2.040
14257TIP3    H242715   5.124   1.898   1.995
14258TIP3   OH242716   3.304   2.530   4.705
14258TIP3    H142717   3.376   2.468   4.717
14258TIP3    H242718   3.225   2.481   4.728
14259TIP3   OH242719   4.044   1.825   4.625
14259TIP3    H142720   3.987   1.855   4.696
14259TIP3    H242721   3.999   1.852   4.545
14260TIP3   OH242722   3.127   3.387   6.112
14260TIP3    H142723   3.184   3.439   6.169
14260TIP3    H242724   3.061   3.449   6.081
14261TIP3   OH242725   5.400   4.367   2.428
14261TIP3    H142726   5.384   4.323   2.511
14261TIP3    H242727   5.477   4.324   2.392
14262TIP3   OH242728   3.207   5.839   3.523
14262TIP3    H142729   3.288   5.879   3.492
14262TIP3    H242730   3.139   5.903   3.504
14263TIP3   OH242731   2.610   6.194   6.404
14263TIP3    H142732   2.556   6.216   6.328
14263TIP3    H242733   2.691   6.242   6.390
14264TIP3   OH242734   2.781   0.798   1.443
14264TIP3    H142735   2.860   0.832   1.401
14264TIP3    H242736   2.723   0.774   1.371
14265TIP3   OH242737   7.032   6.752   3.842
14265TIP3    H142738   7.025   6.792   3.755
14265TIP3    H242739   6.952   6.777   3.887
14266TIP3   OH242740   7.866   7.356   0.100
14266TIP3    H142741   7.861   7.269   0.140
14266TIP3    H242742   7.886   7.338   0.008
14267TIP3   OH242743   6.431   0.139   5.434
14267TIP3    H142744   6.435   0.072   5.366
14267TIP3    H242745   6.483   0.103   5.506
14268TIP3   OH242746   6.751   1.097   1.740
14268TIP3    H142747   6.779   1.167   1.682
14268TIP3    H242748   6.683   1.051   1.692
14269TIP3   OH242749   1.023   7.365   0.779
14269TIP3    H142750   1.101   7.416   0.801
14269TIP3    H242751   0.968   7.425   0.729
14270TIP3   OH242752   1.972   4.273   6.391
14270TIP3    H142753   1.910   4.308   6.455
14270TIP3    H242754   1.990   4.184   6.421
14271TIP3   OH242755   0.271   6.399   6.201
14271TIP3    H142756   0.359   6.362   6.198
14271TIP3    H242757   0.218   6.338   6.148
14272TIP3   OH242758   3.776   6.111   3.003
14272TIP3    H142759   3.754   6.204   2.994
14272TIP3    H242760   3.868   6.110   3.029
14273TIP3   OH242761   5.516   2.059   5.025
14273TIP3    H142762   5.570   2.131   5.058
14273TIP3    H242763   5.477   2.093   4.945
14274TIP3   OH242764   5.236   3.571   5.014
14274TIP3    H142765   5.196   3.656   4.997
14274TIP3    H242766   5.280   3.548   4.933
14275TIP3   OH242767   3.673   4.860   1.924
14275TIP3    H142768   3.585   4.869   1.888
14275TIP3    H242769   3.660   4.853   2.019
14276TIP3   OH242770   1.324   5.463   1.910
14276TIP3    H142771   1.315   5.536   1.849
14276TIP3    H242772   1.406   5.421   1.885
14277TIP3   OH242773   2.001   5.817   3.115
14277TIP3    H142774   1.965   5.895   3.073
14277TIP3    H242775   1.935   5.749   3.099
14278TIP3   OH242776   5.940   3.226   4.908
14278TIP3    H142777   5.951   3.134   4.933
14278TIP3    H242778   5.845   3.237   4.900
14279TIP3   OH242779   7.786   0.458   2.737
14279TIP3    H142780   7.839   0.434   2.661
14279TIP3    H242781   7.770   0.375   2.782
14280TIP3   OH242782   1.325   5.817   5.233
14280TIP3    H142783   1.232   5.825   5.210
14280TIP3    H242784   1.367   5.889   5.186
14281TIP3   OH242785   1.211   7.345   1.966
14281TIP3    H142786   1.221   7.280   2.035
14281TIP3    H242787   1.227   7.297   1.885
14282TIP3   OH242788   6.292   1.578   0.069
14282TIP3    H142789   6.275   1.648   0.005
14282TIP3    H242790   6.371   1.535   0.037
14283TIP3   OH242791   7.125   2.507   3.912
14283TIP3    H142792   7.140   2.575   3.978
14283TIP3    H242793   7.078   2.552   3.842
14284TIP3   OH242794   1.168   1.765   3.577
14284TIP3    H142795   1.249   1.807   3.606
14284TIP3    H242796   1.134   1.721   3.655
14285TIP3   OH242797   1.321   3.520   0.179
14285TIP3    H142798   1.308   3.574   0.257
14285TIP3    H242799   1.256   3.450   0.188
14286TIP3   OH242800   1.921   3.579   5.675
14286TIP3    H142801   1.827   3.589   5.658
14286TIP3    H242802   1.951   3.668   5.694
14287TIP3   OH242803   6.587   1.982   6.002
14287TIP3    H142804   6.628   2.065   5.978
14287TIP3    H242805   6.510   2.007   6.053
14288TIP3   OH242806   2.997   0.216   2.955
14288TIP3    H142807   2.921   0.178   2.911
14288TIP3    H242808   3.007   0.303   2.916
14289TIP3   OH242809   3.459   7.671   3.329
14289TIP3    H142810   3.529   7.635   3.275
14289TIP3    H242811   3.382   7.620   3.304
14290TIP3   OH242812   3.623   1.257   2.664
14290TIP3    H142813   3.622   1.197   2.738
14290TIP3    H242814   3.544   1.310   2.675
14291TIP3   OH242815   5.902   3.610   3.371
14291TIP3    H142816   5.927   3.576   3.285
14291TIP3    H242817   5.807   3.621   3.365
14292TIP3   OH242818   5.296   6.588   2.311
14292TIP3    H142819   5.307   6.587   2.406
14292TIP3    H242820   5.375   6.631   2.277
14293TIP3   OH242821   2.193   4.292   5.688
14293TIP3    H142822   2.238   4.210   5.670
14293TIP3    H242823   2.125   4.269   5.752
14294TIP3   OH242824   4.594   7.785   3.392
14294TIP3    H142825   4.662   7.819   3.334
14294TIP3    H242826   4.622   7.696   3.413
14295TIP3   OH242827   6.746   0.309   5.200
14295TIP3    H142828   6.747   0.215   5.217
14295TIP3    H242829   6.665   0.341   5.239
14296TIP3   OH242830   1.372   1.696   5.603
14296TIP3    H142831   1.341   1.625   5.547
14296TIP3    H242832   1.460   1.715   5.571
14297TIP3   OH242833   7.381   2.011   5.593
14297TIP3    H142834   7.430   2.050   5.666
14297TIP3    H242835   7.446   1.957   5.548
14298TIP3   OH242836   8.168   6.212   1.465
14298TIP3    H142837   8.074   6.194   1.464
14298TIP3    H242838   8.206   6.148   1.405
14299TIP3   OH242839   2.079   2.427   3.960
14299TIP3    H142840   1.990   2.463   3.961
14299TIP3    H242841   2.104   2.424   4.052
14300TIP3   OH242842   4.531   0.971   0.569
14300TIP3    H142843   4.621   1.001   0.583
14300TIP3    H242844   4.540   0.881   0.535
14301TIP3   OH242845   7.604   6.159   2.728
14301TIP3    H142846   7.558   6.163   2.812
14301TIP3    H242847   7.693   6.188   2.749
14302TIP3   OH242848   2.927   4.796   0.598
14302TIP3    H142849   2.878   4.856   0.655
14302TIP3    H242850   2.866   4.725   0.580
14303TIP3   OH242851   6.726   6.740   2.730
14303TIP3    H142852   6.702   6.676   2.663
14303TIP3    H242853   6.644   6.763   2.772
14304TIP3   OH242854   6.645   3.636   3.409
14304TIP3    H142855   6.738   3.630   3.431
14304TIP3    H242856   6.605   3.679   3.485
14305TIP3   OH242857   6.712   6.372   1.498
14305TIP3    H142858   6.768   6.413   1.432
14305TIP3    H242859   6.658   6.311   1.449
14306TIP3   OH242860   1.718   4.814   5.282
14306TIP3    H142861   1.727   4.908   5.269
14306TIP3    H242862   1.746   4.799   5.372
14307TIP3   OH242863   2.925   2.309   5.816
14307TIP3    H142864   2.841   2.265   5.830
14307TIP3    H242865   2.962   2.318   5.904
14308TIP3   OH242866   6.539   1.922   0.699
14308TIP3    H142867   6.591   1.940   0.778
14308TIP3    H242868   6.451   1.953   0.722
14309TIP3   OH242869   3.296   6.736   0.439
14309TIP3    H142870   3.383   6.767   0.465
14309TIP3    H242871   3.239   6.813   0.449
14310TIP3   OH242872   2.917   1.528   3.562
14310TIP3    H142873   3.009   1.530   3.588
14310TIP3    H242874   2.869   1.545   3.642
14311TIP3   OH242875   4.975   5.628   1.302
14311TIP3    H142876   4.880   5.635   1.314
14311TIP3    H242877   5.008   5.596   1.386
14312TIP3   OH242878   2.187   0.094   1.996
14312TIP3    H142879   2.132   0.022   2.026
14312TIP3    H242880   2.267   0.052   1.966
14313TIP3   OH242881   1.617   3.207   2.414
14313TIP3    H142882   1.522   3.209   2.407
14313TIP3    H242883   1.647   3.164   2.334
14314TIP3   OH242884   5.917   0.494   4.111
14314TIP3    H142885   5.846   0.540   4.067
14314TIP3    H242886   5.884   0.405   4.122
14315TIP3   OH242887   8.260   7.217   5.713
14315TIP3    H142888   8.202   7.226   5.789
14315TIP3    H242889   8.278   7.307   5.686
14316TIP3   OH242890   7.372   4.273   2.021
14316TIP3    H142891   7.296   4.215   2.021
14316TIP3    H242892   7.337   4.358   2.049
14317TIP3   OH242893   0.515   7.135   1.852
14317TIP3    H142894   0.492   7.162   1.941
14317TIP3    H242895   0.611   7.139   1.850
14318TIP3   OH242896   3.376   5.017   6.276
14318TIP3    H142897   3.322   5.075   6.330
14318TIP3    H242898   3.313   4.963   6.228
14319TIP3   OH242899   6.354   4.243   0.092
14319TIP3    H142900   6.332   4.334   0.110
14319TIP3    H242901   6.373   4.205   0.177
14320TIP3   OH242902   1.490   4.416   0.207
14320TIP3    H142903   1.544   4.490   0.179
14320TIP3    H242904   1.508   4.408   0.301
14321TIP3   OH242905   3.634   4.107   1.865
14321TIP3    H142906   3.706   4.145   1.915
14321TIP3    H242907   3.676   4.073   1.785
14322TIP3   OH242908   5.045   0.270   3.068
14322TIP3    H142909   5.025   0.323   3.145
14322TIP3    H242910   4.967   0.276   3.013
14323TIP3   OH242911   1.551   6.570   4.215
14323TIP3    H142912   1.549   6.528   4.129
14323TIP3    H242913   1.640   6.558   4.246
14324TIP3   OH242914   2.435   3.114   3.519
14324TIP3    H142915   2.369   3.105   3.450
14324TIP3    H242916   2.514   3.074   3.483
14325TIP3   OH242917   2.401   5.941   4.384
14325TIP3    H142918   2.407   6.020   4.438
14325TIP3    H242919   2.371   5.873   4.444
14326TIP3   OH242920   0.664   3.683   4.520
14326TIP3    H142921   0.574   3.657   4.541
14326TIP3    H242922   0.661   3.779   4.519
14327TIP3   OH242923   1.334   2.468   3.120
14327TIP3    H142924   1.342   2.544   3.062
14327TIP3    H242925   1.347   2.393   3.062
14328TIP3   OH242926   6.638   7.798   3.473
14328TIP3    H142927   6.684   7.714   3.468
14328TIP3    H242928   6.682   7.854   3.409
14329TIP3   OH242929   7.007   3.775   1.156
14329TIP3    H142930   7.090   3.806   1.193
14329TIP3    H242931   6.941   3.804   1.219
14330TIP3   OH242932   5.252   4.488   2.714
14330TIP3    H142933   5.328   4.534   2.751
14330TIP3    H242934   5.183   4.499   2.780
14331TIP3   OH242935   5.899   5.891   1.459
14331TIP3    H142936   5.833   5.888   1.528
14331TIP3    H242937   5.967   5.831   1.488
14332TIP3   OH242938   0.491   5.204   4.027
14332TIP3    H142939   0.569   5.164   3.989
14332TIP3    H242940   0.523   5.253   4.103
14333TIP3   OH242941   2.029   7.371   6.386
14333TIP3    H142942   1.941   7.379   6.423
14333TIP3    H242943   2.066   7.295   6.431
14334TIP3   OH242944   4.395   3.803   4.419
14334TIP3    H142945   4.427   3.850   4.343
14334TIP3    H242946   4.370   3.871   4.481
14335TIP3   OH242947   3.063   2.075   1.490
14335TIP3    H142948   2.976   2.110   1.470
14335TIP3    H242949   3.080   2.103   1.580
14336TIP3   OH242950   6.981   7.149   6.427
14336TIP3    H142951   7.026   7.126   6.509
14336TIP3    H242952   7.025   7.229   6.398
14337TIP3   OH242953   4.716   1.961   0.642
14337TIP3    H142954   4.732   1.900   0.570
14337TIP3    H242955   4.798   1.964   0.690
14338TIP3   OH242956   8.093   5.591   0.252
14338TIP3    H142957   8.175   5.634   0.276
14338TIP3    H242958   8.040   5.594   0.332
14339TIP3   OH242959   0.953   3.636   2.317
14339TIP3    H142960   0.886   3.568   2.325
14339TIP3    H242961   0.903   3.718   2.319
14340TIP3   OH242962   5.096   0.154   4.570
14340TIP3    H142963   5.049   0.094   4.629
14340TIP3    H242964   5.099   0.107   4.486
14341TIP3   OH242965   3.198   1.549   3.673
14341TIP3    H142966   3.182   1.466   3.718
14341TIP3    H242967   3.240   1.605   3.739
14342TIP3   OH242968   5.424   5.106   3.625
14342TIP3    H142969   5.338   5.101   3.584
14342TIP3    H242970   5.467   5.179   3.579
14343TIP3   OH242971   4.887   5.927   4.275
14343TIP3    H142972   4.810   5.908   4.221
14343TIP3    H242973   4.961   5.910   4.217
14344TIP3   OH242974   7.534   4.512   4.868
14344TIP3    H142975   7.544   4.607   4.869
14344TIP3    H242976   7.463   4.495   4.930
14345TIP3   OH242977   0.751   7.085   5.145
14345TIP3    H142978   0.665   7.093   5.105
14345TIP3    H242979   0.773   7.174   5.173
14346TIP3   OH242980   4.616   3.848   1.730
14346TIP3    H142981   4.588   3.938   1.747
14346TIP3    H242982   4.647   3.849   1.640
14347TIP3   OH242983   1.891   1.203   3.725
14347TIP3    H142984   1.907   1.109   3.733
14347TIP3    H242985   1.796   1.210   3.715
14348TIP3   OH242986   2.182   5.139   5.793
14348TIP3    H142987   2.123   5.134   5.868
14348TIP3    H242988   2.196   5.049   5.767
14349TIP3   OH242989   1.391   3.944  -0.009
14349TIP3    H142990   1.338   3.865  -0.022
14349TIP3    H242991   1.328   4.013   0.011
14350TIP3   OH242992   0.235   1.593   3.249
14350TIP3    H142993   0.218   1.630   3.336
14350TIP3    H242994   0.275   1.508   3.267
14351TIP3   OH242995   5.715   3.147   5.165
14351TIP3    H142996   5.737   3.220   5.223
14351TIP3    H242997   5.688   3.188   5.083
14352TIP3   OH242998   3.737   1.211   0.739
14352TIP3    H142999   3.797   1.136   0.743
14352TIP3    H243000   3.777   1.276   0.796
14353TIP3   OH243001   5.716   1.613   1.389
14353TIP3    H143002   5.730   1.575   1.302
14353TIP3    H243003   5.779   1.686   1.393
14354TIP3   OH243004   0.918   1.055   1.007
14354TIP3    H143005   0.857   1.040   1.079
14354TIP3    H243006   1.004   1.060   1.050
14355TIP3   OH243007   3.981   3.124   4.642
14355TIP3    H143008   4.023   3.071   4.574
14355TIP3    H243009   3.982   3.213   4.607
14356TIP3   OH243010   6.645   2.015   3.366
14356TIP3    H143011   6.552   2.040   3.365
14356TIP3    H243012   6.691   2.097   3.385
14357TIP3   OH243013   3.827   7.021   3.907
14357TIP3    H143014   3.787   7.083   3.846
14357TIP3    H243015   3.857   6.949   3.851
14358TIP3   OH243016   0.974   2.950   6.476
14358TIP3    H143017   0.910   2.985   6.539
14358TIP3    H243018   1.024   2.886   6.526
14359TIP3   OH243019   5.996   6.127   6.038
14359TIP3    H143020   5.926   6.184   6.071
14359TIP3    H243021   5.976   6.041   6.074
14360TIP3   OH243022   7.791   5.767   2.104
14360TIP3    H143023   7.772   5.843   2.049
14360TIP3    H243024   7.817   5.805   2.188
14361TIP3   OH243025   8.251   6.347   4.196
14361TIP3    H143026   8.321   6.372   4.257
14361TIP3    H243027   8.241   6.253   4.208
14362TIP3   OH243028   3.851   2.497   4.409
14362TIP3    H143029   3.927   2.546   4.442
14362TIP3    H243030   3.804   2.559   4.353
14363TIP3   OH243031   0.261   3.903   5.682
14363TIP3    H143032   0.241   3.899   5.775
14363TIP3    H243033   0.239   3.992   5.656
14364TIP3   OH243034   3.666   1.954   3.980
14364TIP3    H143035   3.734   2.013   4.012
14364TIP3    H243036   3.585   1.986   4.019
14365TIP3   OH243037   2.886   4.770   6.576
14365TIP3    H143038   2.927   4.853   6.551
14365TIP3    H243039   2.828   4.792   6.648
14366TIP3   OH243040   2.233   5.998   4.752
14366TIP3    H143041   2.315   5.960   4.784
14366TIP3    H243042   2.232   6.087   4.785
14367TIP3   OH243043   7.675   1.752   1.841
14367TIP3    H143044   7.712   1.667   1.864
14367TIP3    H243045   7.590   1.731   1.802
14368TIP3   OH243046   6.499   5.386   1.186
14368TIP3    H143047   6.438   5.423   1.123
14368TIP3    H243048   6.574   5.445   1.185
14369TIP3   OH243049   1.877   6.516   0.806
14369TIP3    H143050   1.852   6.441   0.753
14369TIP3    H243051   1.961   6.545   0.769
14370TIP3   OH243052   0.568   2.919   2.138
14370TIP3    H143053   0.614   2.836   2.128
14370TIP3    H243054   0.476   2.894   2.152
14371TIP3   OH243055   1.471   6.459   1.953
14371TIP3    H143056   1.563   6.439   1.972
14371TIP3    H243057   1.434   6.375   1.923
14372TIP3   OH243058   7.434   5.026   0.538
14372TIP3    H143059   7.430   4.946   0.591
14372TIP3    H243060   7.354   5.023   0.485
14373TIP3   OH243061   1.782   1.611   3.485
14373TIP3    H143062   1.842   1.682   3.505
14373TIP3    H243063   1.740   1.638   3.403
14374TIP3   OH243064   3.359   1.745   4.952
14374TIP3    H143065   3.279   1.725   4.904
14374TIP3    H243066   3.350   1.837   4.977
14375TIP3   OH243067   3.182   2.032   1.928
14375TIP3    H143068   3.249   2.087   1.968
14375TIP3    H243069   3.145   1.982   2.001
14376TIP3   OH243070   6.024   2.102   2.293
14376TIP3    H143071   6.035   2.178   2.350
14376TIP3    H243072   6.065   2.129   2.210
14377TIP3   OH243073   7.304   5.993   2.735
14377TIP3    H143074   7.223   6.034   2.766
14377TIP3    H243075   7.275   5.930   2.668
14378TIP3   OH243076   1.865   0.919   3.797
14378TIP3    H143077   1.907   0.846   3.844
14378TIP3    H243078   1.778   0.886   3.775
14379TIP3   OH243079   6.596   4.669   1.937
14379TIP3    H143080   6.663   4.665   2.006
14379TIP3    H243081   6.643   4.701   1.860
14380TIP3   OH243082   3.173   6.982   5.908
14380TIP3    H143083   3.253   7.019   5.945
14380TIP3    H243084   3.203   6.905   5.860
14381TIP3   OH243085   1.798   6.568   0.205
14381TIP3    H143086   1.720   6.589   0.256
14381TIP3    H243087   1.864   6.630   0.235
14382TIP3   OH243088   0.149   3.779   6.596
14382TIP3    H143089   0.239   3.804   6.614
14382TIP3    H243090   0.123   3.727   6.671
14383TIP3   OH243091   3.666   0.750   3.781
14383TIP3    H143092   3.746   0.784   3.820
14383TIP3    H243093   3.615   0.717   3.855
14384TIP3   OH243094   1.464   5.256   0.661
14384TIP3    H143095   1.429   5.251   0.572
14384TIP3    H243096   1.389   5.242   0.718
14385TIP3   OH243097   2.077   3.597   3.956
14385TIP3    H143098   2.091   3.590   4.051
14385TIP3    H243099   1.993   3.553   3.941
14386TIP3   OH243100   5.862   3.193   2.154
14386TIP3    H143101   5.799   3.122   2.142
14386TIP3    H243102   5.857   3.242   2.072
14387TIP3   OH243103   0.424   3.525   1.185
14387TIP3    H143104   0.459   3.440   1.212
14387TIP3    H243105   0.494   3.587   1.203
14388TIP3   OH243106   4.919   7.633   4.252
14388TIP3    H143107   4.946   7.546   4.223
14388TIP3    H243108   4.823   7.631   4.248
14389TIP3   OH243109   6.763   6.208   5.099
14389TIP3    H143110   6.825   6.195   5.170
14389TIP3    H243111   6.696   6.141   5.113
14390TIP3   OH243112   2.641   0.444   2.783
14390TIP3    H143113   2.564   0.499   2.782
14390TIP3    H243114   2.657   0.423   2.691
14391TIP3   OH243115   6.286   2.597   0.850
14391TIP3    H143116   6.289   2.589   0.754
14391TIP3    H243117   6.369   2.638   0.873
14392TIP3   OH243118   3.785   7.342   4.938
14392TIP3    H143119   3.705   7.312   4.894
14392TIP3    H243120   3.782   7.438   4.932
14393TIP3   OH243121   5.288   3.491   1.632
14393TIP3    H143122   5.379   3.503   1.605
14393TIP3    H243123   5.237   3.538   1.566
14394TIP3   OH243124   4.819   1.943   4.950
14394TIP3    H143125   4.728   1.937   4.924
14394TIP3    H243126   4.856   2.012   4.895
14395TIP3   OH243127   6.950   5.162   0.562
14395TIP3    H143128   6.905   5.154   0.479
14395TIP3    H243129   7.037   5.196   0.539
14396TIP3   OH243130   2.214   2.874   2.913
14396TIP3    H143131   2.174   2.825   2.985
14396TIP3    H243132   2.307   2.877   2.935
14397TIP3   OH243133   1.610   0.292   6.739
14397TIP3    H143134   1.523   0.321   6.767
14397TIP3    H243135   1.669   0.326   6.807
14398TIP3   OH243136   5.328   1.473   0.970
14398TIP3    H143137   5.259   1.451   0.909
14398TIP3    H243138   5.336   1.568   0.964
14399TIP3   OH243139   5.059   5.352   1.247
14399TIP3    H143140   4.972   5.347   1.206
14399TIP3    H243141   5.075   5.446   1.255
14400TIP3   OH243142   5.484   2.129   5.945
14400TIP3    H143143   5.472   2.035   5.960
14400TIP3    H243144   5.455   2.170   6.027
14401TIP3   OH243145   6.936   4.741   5.226
14401TIP3    H143146   6.853   4.735   5.274
14401TIP3    H243147   6.984   4.810   5.270
14402TIP3   OH243148   2.707   6.667   0.698
14402TIP3    H143149   2.712   6.726   0.623
14402TIP3    H243150   2.626   6.692   0.743
14403TIP3   OH243151   5.573   5.420   4.233
14403TIP3    H143152   5.591   5.367   4.155
14403TIP3    H243153   5.575   5.511   4.201
14404TIP3   OH243154   0.666   1.475   4.972
14404TIP3    H143155   0.574   1.502   4.969
14404TIP3    H243156   0.665   1.385   4.938
14405TIP3   OH243157   2.268   6.701   0.479
14405TIP3    H143158   2.234   6.780   0.438
14405TIP3    H243159   2.312   6.654   0.408
14406TIP3   OH243160   0.943   2.775   3.456
14406TIP3    H143161   0.898   2.691   3.460
14406TIP3    H243162   0.973   2.782   3.365
14407TIP3   OH243163   4.564   3.670   6.216
14407TIP3    H143164   4.647   3.622   6.212
14407TIP3    H243165   4.588   3.761   6.195
14408TIP3   OH243166   4.775   2.355   0.660
14408TIP3    H143167   4.800   2.310   0.579
14408TIP3    H243168   4.724   2.430   0.630
14409TIP3   OH243169   6.471   3.484   4.302
14409TIP3    H143170   6.503   3.574   4.304
14409TIP3    H243171   6.540   3.434   4.259
14410TIP3   OH243172   5.888   1.930   0.462
14410TIP3    H143173   5.884   1.866   0.391
14410TIP3    H243174   5.975   1.917   0.500
14411TIP3   OH243175   0.907   4.477   3.038
14411TIP3    H143176   0.828   4.447   3.084
14411TIP3    H243177   0.977   4.470   3.103
14412TIP3   OH243178   4.885   3.484   5.998
14412TIP3    H143179   4.836   3.483   6.080
14412TIP3    H243180   4.924   3.397   5.992
14413TIP3   OH243181   2.064   4.520   3.594
14413TIP3    H143182   2.144   4.487   3.553
14413TIP3    H243183   2.092   4.600   3.639
14414TIP3   OH243184   2.831   5.630   6.270
14414TIP3    H143185   2.756   5.688   6.279
14414TIP3    H243186   2.873   5.657   6.188
14415TIP3   OH243187   2.694   1.701   3.449
14415TIP3    H143188   2.765   1.637   3.454
14415TIP3    H243189   2.737   1.786   3.458
14416TIP3   OH243190   1.083   3.901   3.487
14416TIP3    H143191   1.115   3.968   3.427
14416TIP3    H243192   0.997   3.877   3.453
14417TIP3   OH243193   6.672   5.710   6.341
14417TIP3    H143194   6.656   5.746   6.253
14417TIP3    H243195   6.587   5.676   6.368
14418TIP3   OH243196   5.103   6.043   3.669
14418TIP3    H143197   5.040   6.112   3.650
14418TIP3    H243198   5.140   6.067   3.754
14419TIP3   OH243199   2.888   2.735   1.644
14419TIP3    H143200   2.918   2.776   1.725
14419TIP3    H243201   2.793   2.730   1.654
14420TIP3   OH243202   6.886   2.397   0.443
14420TIP3    H143203   6.975   2.362   0.448
14420TIP3    H243204   6.829   2.320   0.448
14421TIP3   OH243205   5.069   2.216   3.703
14421TIP3    H143206   5.091   2.133   3.662
14421TIP3    H243207   5.066   2.198   3.797
14422TIP3   OH243208   6.434   0.738   6.670
14422TIP3    H143209   6.457   0.831   6.684
14422TIP3    H243210   6.484   0.691   6.737
14423TIP3   OH243211   6.008   0.084   1.565
14423TIP3    H143212   6.071   0.020   1.533
14423TIP3    H243213   6.034   0.166   1.523
14424TIP3   OH243214   6.064   0.780   5.507
14424TIP3    H143215   6.027   0.729   5.435
14424TIP3    H243216   6.153   0.800   5.478
14425TIP3   OH243217   2.224   2.394   1.360
14425TIP3    H143218   2.274   2.347   1.426
14425TIP3    H243219   2.196   2.326   1.298
14426TIP3   OH243220   0.979   1.845   6.669
14426TIP3    H143221   0.960   1.918   6.610
14426TIP3    H243222   1.066   1.864   6.703
14427TIP3   OH243223   4.453   1.138   1.377
14427TIP3    H143224   4.437   1.213   1.434
14427TIP3    H243225   4.382   1.077   1.397
14428TIP3   OH243226   6.724   4.855   2.107
14428TIP3    H143227   6.767   4.882   2.026
14428TIP3    H243228   6.793   4.863   2.174
14429TIP3   OH243229   4.991   2.651   0.077
14429TIP3    H143230   4.899   2.664   0.053
14429TIP3    H243231   4.993   2.669   0.171
14430TIP3   OH243232   3.281   4.671   3.545
14430TIP3    H143233   3.306   4.691   3.636
14430TIP3    H243234   3.297   4.578   3.536
14431TIP3   OH243235   1.663   5.358   4.277
14431TIP3    H143236   1.756   5.344   4.292
14431TIP3    H243237   1.623   5.342   4.362
14432TIP3   OH243238   5.122   3.173   3.108
14432TIP3    H143239   5.190   3.148   3.046
14432TIP3    H243240   5.060   3.225   3.056
14433TIP3   OH243241   8.257   7.514   5.652
14433TIP3    H143242   8.295   7.601   5.664
14433TIP3    H243243   8.172   7.518   5.697
14434TIP3   OH243244   3.477   6.480   4.072
14434TIP3    H143245   3.560   6.459   4.030
14434TIP3    H243246   3.419   6.505   4.000
14435TIP3   OH243247   3.679   6.434   4.591
14435TIP3    H143248   3.672   6.343   4.620
14435TIP3    H243249   3.589   6.465   4.586
14436TIP3   OH243250   5.234   1.456   5.681
14436TIP3    H143251   5.228   1.459   5.585
14436TIP3    H243252   5.298   1.524   5.703
14437TIP3   OH243253   6.103   7.385   2.392
14437TIP3    H143254   6.018   7.362   2.430
14437TIP3    H243255   6.167   7.340   2.447
14438TIP3   OH243256   0.369   2.210   3.733
14438TIP3    H143257   0.342   2.203   3.825
14438TIP3    H243258   0.462   2.231   3.738
14439TIP3   OH243259   1.580   5.551   2.392
14439TIP3    H143260   1.528   5.588   2.320
14439TIP3    H243261   1.630   5.625   2.426
14440TIP3   OH243262   4.582   2.053   1.794
14440TIP3    H143263   4.644   2.117   1.830
14440TIP3    H243264   4.570   1.989   1.864
14441TIP3   OH243265   6.266   5.271   2.613
14441TIP3    H143266   6.337   5.284   2.676
14441TIP3    H243267   6.286   5.187   2.572
14442TIP3   OH243268   7.882   7.650   1.601
14442TIP3    H143269   7.801   7.673   1.556
14442TIP3    H243270   7.937   7.613   1.533
14443TIP3   OH243271   7.571   0.003   5.991
14443TIP3    H143272   7.579   0.098   5.999
14443TIP3    H243273   7.487  -0.010   5.947
14444TIP3   OH243274   6.839   4.786   3.362
14444TIP3    H143275   6.887   4.733   3.426
14444TIP3    H243276   6.812   4.864   3.410
14445TIP3   OH243277   2.998   6.598   2.888
14445TIP3    H143278   3.007   6.519   2.835
14445TIP3    H243279   3.045   6.666   2.840
14446TIP3   OH243280   1.955   3.359   6.005
14446TIP3    H143281   2.026   3.393   6.060
14446TIP3    H243282   1.987   3.370   5.915
14447TIP3   OH243283   3.987   5.845   5.871
14447TIP3    H143284   3.896   5.835   5.898
14447TIP3    H243285   3.983   5.859   5.776
14448TIP3   OH243286   0.868   5.564   2.644
14448TIP3    H143287   0.818   5.646   2.640
14448TIP3    H243288   0.818   5.503   2.589
14449TIP3   OH243289   5.791   7.256   4.140
14449TIP3    H143290   5.718   7.204   4.106
14449TIP3    H243291   5.761   7.289   4.224
14450TIP3   OH243292   1.205   0.654   4.336
14450TIP3    H143293   1.238   0.590   4.274
14450TIP3    H243294   1.127   0.614   4.374
14451TIP3   OH243295   1.616   3.819   2.816
14451TIP3    H143296   1.661   3.742   2.850
14451TIP3    H243297   1.550   3.839   2.882
14452TIP3   OH243298   4.617   3.102   1.668
14452TIP3    H143299   4.545   3.157   1.698
14452TIP3    H243300   4.688   3.119   1.730
14453TIP3   OH243301   0.169   7.123   5.509
14453TIP3    H143302   0.168   7.212   5.475
14453TIP3    H243303   0.077   7.102   5.525
14454TIP3   OH243304   1.157   7.601   6.659
14454TIP3    H143305   1.135   7.515   6.622
14454TIP3    H243306   1.192   7.650   6.586
14455TIP3   OH243307   2.369   2.508   2.293
14455TIP3    H143308   2.404   2.591   2.324
14455TIP3    H243309   2.292   2.531   2.241
14456TIP3   OH243310   4.989   7.259   2.034
14456TIP3    H143311   4.988   7.291   2.125
14456TIP3    H243312   4.937   7.180   2.036
14457TIP3   OH243313   6.386   2.059   0.064
14457TIP3    H143314   6.462   2.055   0.006
14457TIP3    H243315   6.421   2.095   0.146
14458TIP3   OH243316   3.193   7.507   5.660
14458TIP3    H143317   3.274   7.460   5.681
14458TIP3    H243318   3.130   7.475   5.726
14459TIP3   OH243319   0.249   4.708   5.199
14459TIP3    H143320   0.227   4.728   5.290
14459TIP3    H243321   0.271   4.793   5.161
14460TIP3   OH243322   5.089   3.359   6.227
14460TIP3    H143323   5.054   3.417   6.295
14460TIP3    H243324   5.151   3.414   6.178
14461TIP3   OH243325   5.713   3.931   0.872
14461TIP3    H143326   5.736   3.854   0.925
14461TIP3    H243327   5.788   3.942   0.814
14462TIP3   OH243328   6.479   7.083   0.388
14462TIP3    H143329   6.386   7.102   0.382
14462TIP3    H243330   6.493   7.007   0.332
14463TIP3   OH243331   5.469   6.035   2.836
14463TIP3    H143332   5.505   5.947   2.823
14463TIP3    H243333   5.400   6.041   2.769
14464TIP3   OH243334   4.939   5.161   0.843
14464TIP3    H143335   5.001   5.217   0.891
14464TIP3    H243336   4.856   5.173   0.889
14465TIP3   OH243337   2.215   1.302   2.201
14465TIP3    H143338   2.255   1.285   2.286
14465TIP3    H243339   2.174   1.219   2.177
14466TIP3   OH243340   8.267   7.635   0.229
14466TIP3    H143341   8.204   7.593   0.170
14466TIP3    H243342   8.304   7.563   0.279
14467TIP3   OH243343   0.634   6.975   2.541
14467TIP3    H143344   0.621   6.914   2.614
14467TIP3    H243345   0.545   7.003   2.518
14468TIP3   OH243346   7.825   1.999   1.927
14468TIP3    H143347   7.817   2.093   1.913
14468TIP3    H243348   7.909   1.976   1.886
14469TIP3   OH243349   5.972   3.264   0.921
14469TIP3    H143350   5.930   3.178   0.929
14469TIP3    H243351   6.054   3.255   0.969
14470TIP3   OH243352   3.521   7.203   4.894
14470TIP3    H143353   3.528   7.115   4.856
14470TIP3    H243354   3.450   7.197   4.957
14471TIP3   OH243355   2.730   0.927   3.007
14471TIP3    H143356   2.789   0.913   3.081
14471TIP3    H243357   2.787   0.921   2.930
14472TIP3   OH243358   4.741   3.047   2.213
14472TIP3    H143359   4.650   3.075   2.210
14472TIP3    H243360   4.737   2.954   2.238
14473TIP3   OH243361   5.271   5.057   4.216
14473TIP3    H143362   5.193   5.107   4.192
14473TIP3    H243363   5.326   5.119   4.263
14474TIP3   OH243364   1.114   0.616   3.819
14474TIP3    H143365   1.166   0.539   3.798
14474TIP3    H243366   1.060   0.631   3.742
14475TIP3   OH243367   8.039   0.251   6.398
14475TIP3    H143368   8.094   0.243   6.476
14475TIP3    H243369   7.953   0.276   6.432
14476TIP3   OH243370   2.495   2.743   2.418
14476TIP3    H143371   2.474   2.679   2.486
14476TIP3    H243372   2.591   2.745   2.416
14477TIP3   OH243373   1.353   5.119   5.650
14477TIP3    H143374   1.363   5.152   5.560
14477TIP3    H243375   1.285   5.175   5.688
14478TIP3   OH243376   8.358   5.447   4.829
14478TIP3    H143377   8.274   5.455   4.785
14478TIP3    H243378   8.345   5.488   4.914
14479TIP3   OH243379   1.193   4.207   1.017
14479TIP3    H143380   1.243   4.127   1.037
14479TIP3    H243381   1.239   4.246   0.943
14480TIP3   OH243382   1.206   7.396   2.318
14480TIP3    H143383   1.182   7.319   2.267
14480TIP3    H243384   1.246   7.361   2.398
14481TIP3   OH243385   4.817   3.038   6.635
14481TIP3    H143386   4.897   3.090   6.646
14481TIP3    H243387   4.848   2.956   6.594
14482TIP3   OH243388   0.148   7.656   6.759
14482TIP3    H143389   0.231   7.670   6.714
14482TIP3    H243390   0.151   7.564   6.787
14483TIP3   OH243391   5.153   1.314   6.616
14483TIP3    H143392   5.061   1.340   6.610
14483TIP3    H243393   5.199   1.372   6.555
14484TIP3   OH243394   2.838   5.929   2.197
14484TIP3    H143395   2.865   6.020   2.209
14484TIP3    H243396   2.762   5.919   2.255
14485TIP3   OH243397   7.182   0.771   6.036
14485TIP3    H143398   7.206   0.702   6.098
14485TIP3    H243399   7.132   0.727   5.968
14486TIP3   OH243400   1.473   2.376   0.467
14486TIP3    H143401   1.469   2.400   0.374
14486TIP3    H243402   1.564   2.353   0.482
14487TIP3   OH243403   4.197   1.236   6.569
14487TIP3    H143404   4.143   1.315   6.576
14487TIP3    H243405   4.144   1.175   6.518
14488TIP3   OH243406   7.056   1.169   3.084
14488TIP3    H143407   7.070   1.189   2.991
14488TIP3    H243408   7.144   1.160   3.120
14489TIP3   OH243409   7.770   1.026   4.817
14489TIP3    H143410   7.747   1.019   4.910
14489TIP3    H243411   7.788   0.935   4.790
14490TIP3   OH243412   8.221   6.687   4.332
14490TIP3    H143413   8.180   6.743   4.398
14490TIP3    H243414   8.150   6.631   4.301
14491TIP3   OH243415   1.143   1.420   4.898
14491TIP3    H143416   1.110   1.500   4.939
14491TIP3    H243417   1.200   1.451   4.828
14492TIP3   OH243418   5.964   7.197   4.801
14492TIP3    H143419   6.059   7.188   4.816
14492TIP3    H243420   5.949   7.292   4.800
14493TIP3   OH243421   4.673   2.992   0.023
14493TIP3    H143422   4.706   3.077  -0.009
14493TIP3    H243423   4.620   3.015   0.100
14494TIP3   OH243424   4.727   3.180   5.119
14494TIP3    H143425   4.819   3.153   5.111
14494TIP3    H243426   4.706   3.167   5.211
14495TIP3   OH243427   7.428   3.178   1.380
14495TIP3    H143428   7.355   3.225   1.338
14495TIP3    H243429   7.445   3.227   1.460
14496TIP3   OH243430   5.966   7.709   1.167
14496TIP3    H143431   5.959   7.772   1.238
14496TIP3    H243432   5.876   7.695   1.137
14497TIP3   OH243433   5.544   3.213   5.755
14497TIP3    H143434   5.563   3.194   5.846
14497TIP3    H243435   5.544   3.128   5.712
14498TIP3   OH243436   4.589   0.673   4.975
14498TIP3    H143437   4.503   0.637   4.998
14498TIP3    H243438   4.651   0.607   5.005
14499TIP3   OH243439   7.775   5.330   0.270
14499TIP3    H143440   7.801   5.420   0.289
14499TIP3    H243441   7.697   5.338   0.216
14500TIP3   OH243442   6.866   5.806   6.753
14500TIP3    H143443   6.950   5.806   6.707
14500TIP3    H243444   6.807   5.852   6.693
14501TIP3   OH243445   5.536   0.235   2.734
14501TIP3    H143446   5.579   0.185   2.804
14501TIP3    H243447   5.569   0.324   2.743
14502TIP3   OH243448   3.192   2.594   5.992
14502TIP3    H143449   3.102   2.626   5.985
14502TIP3    H243450   3.199   2.525   5.926
14503TIP3   OH243451   8.204   3.064   3.448
14503TIP3    H143452   8.197   3.136   3.511
14503TIP3    H243453   8.120   3.020   3.452
14504TIP3   OH243454   7.976   2.560   2.644
14504TIP3    H143455   7.955   2.483   2.697
14504TIP3    H243456   7.893   2.606   2.635
14505TIP3   OH243457   7.338   1.653   4.228
14505TIP3    H143458   7.297   1.680   4.311
14505TIP3    H243459   7.336   1.558   4.231
14506TIP3   OH243460   0.442   3.792   3.791
14506TIP3    H143461   0.463   3.856   3.723
14506TIP3    H243462   0.366   3.744   3.757
14507TIP3   OH243463   2.325   6.425   6.036
14507TIP3    H143464   2.280   6.351   6.077
14507TIP3    H243465   2.413   6.392   6.018
14508TIP3   OH243466   7.611   0.850   1.301
14508TIP3    H143467   7.562   0.930   1.285
14508TIP3    H243468   7.685   0.855   1.240
14509TIP3   OH243469   1.444   7.407   3.132
14509TIP3    H143470   1.421   7.399   3.225
14509TIP3    H243471   1.537   7.385   3.129
14510TIP3   OH243472   0.619   2.203   4.407
14510TIP3    H143473   0.604   2.287   4.451
14510TIP3    H243474   0.700   2.218   4.356
14511TIP3   OH243475   2.470   4.345   4.119
14511TIP3    H143476   2.430   4.422   4.159
14511TIP3    H243477   2.546   4.379   4.072
14512TIP3   OH243478   2.851   4.375   2.202
14512TIP3    H143479   2.868   4.434   2.275
14512TIP3    H243480   2.861   4.430   2.124
14513TIP3   OH243481   7.248   4.167   3.953
14513TIP3    H143482   7.185   4.135   4.017
14513TIP3    H243483   7.273   4.090   3.902
14514TIP3   OH243484   0.166   6.553   3.613
14514TIP3    H143485   0.165   6.497   3.691
14514TIP3    H243486   0.238   6.613   3.627
14515TIP3   OH243487   5.450   0.295   2.282
14515TIP3    H143488   5.378   0.254   2.234
14515TIP3    H243489   5.467   0.376   2.235
14516TIP3   OH243490   5.060   3.182   2.640
14516TIP3    H143491   5.133   3.215   2.588
14516TIP3    H243492   5.055   3.242   2.715
14517TIP3   OH243493   5.661   2.346   1.339
14517TIP3    H143494   5.669   2.423   1.395
14517TIP3    H243495   5.706   2.276   1.386
14518TIP3   OH243496   1.627   0.598   0.669
14518TIP3    H143497   1.699   0.660   0.655
14518TIP3    H243498   1.646   0.557   0.753
14519TIP3   OH243499   7.415   4.821   5.997
14519TIP3    H143500   7.365   4.811   6.078
14519TIP3    H243501   7.395   4.910   5.966
14520TIP3   OH243502   7.979   5.410   2.219
14520TIP3    H143503   7.971   5.496   2.176
14520TIP3    H243504   8.011   5.431   2.307
14521TIP3   OH243505   6.337   0.388   0.317
14521TIP3    H143506   6.314   0.479   0.333
14521TIP3    H243507   6.254   0.345   0.296
14522TIP3   OH243508   6.183   4.877   2.319
14522TIP3    H143509   6.125   4.872   2.395
14522TIP3    H243510   6.243   4.803   2.330
14523TIP3   OH243511   4.969   7.669   5.044
14523TIP3    H143512   4.916   7.633   5.115
14523TIP3    H243513   4.983   7.760   5.069
14524TIP3   OH243514   2.445   3.824   3.347
14524TIP3    H143515   2.388   3.833   3.270
14524TIP3    H243516   2.463   3.914   3.374
14525TIP3   OH243517   2.364   6.027   2.771
14525TIP3    H143518   2.445   6.064   2.805
14525TIP3    H243519   2.383   6.011   2.678
14526TIP3   OH243520   6.543   7.577   0.356
14526TIP3    H143521   6.460   7.549   0.395
14526TIP3    H243522   6.519   7.643   0.292
14527TIP3   OH243523   4.442   4.702   4.188
14527TIP3    H143524   4.378   4.689   4.119
14527TIP3    H243525   4.420   4.787   4.226
14528TIP3   OH243526   1.836   4.467   3.742
14528TIP3    H143527   1.786   4.543   3.770
14528TIP3    H243528   1.922   4.502   3.716
14529TIP3   OH243529   4.926   1.125   3.246
14529TIP3    H143530   4.917   1.030   3.253
14529TIP3    H243531   4.844   1.153   3.206
14530TIP3   OH243532   2.827   5.427   4.329
14530TIP3    H143533   2.784   5.486   4.267
14530TIP3    H243534   2.819   5.471   4.414
14531TIP3   OH243535   6.276   4.829   5.559
14531TIP3    H143536   6.339   4.781   5.614
14531TIP3    H243537   6.275   4.917   5.596
14532TIP3   OH243538   7.594   5.828   4.800
14532TIP3    H143539   7.564   5.738   4.816
14532TIP3    H243540   7.579   5.842   4.707
14533TIP3   OH243541   2.926   6.931   2.256
14533TIP3    H143542   2.847   6.944   2.309
14533TIP3    H243543   2.897   6.952   2.167
14534TIP3   OH243544   3.591   2.895   2.407
14534TIP3    H143545   3.562   2.891   2.498
14534TIP3    H243546   3.685   2.914   2.413
14535TIP3   OH243547   8.205   1.052   4.250
14535TIP3    H143548   8.248   1.135   4.229
14535TIP3    H243549   8.276   0.988   4.248
14536TIP3   OH243550   4.906   7.643   5.568
14536TIP3    H143551   4.883   7.632   5.476
14536TIP3    H243552   4.993   7.602   5.576
14537TIP3   OH243553   0.389   7.048   2.506
14537TIP3    H143554   0.325   7.039   2.435
14537TIP3    H243555   0.341   7.094   2.575
14538TIP3   OH243556   5.533   6.160   1.436
14538TIP3    H143557   5.618   6.175   1.395
14538TIP3    H243558   5.513   6.068   1.418
14539TIP3   OH243559   1.843   2.084   1.903
14539TIP3    H143560   1.800   2.000   1.889
14539TIP3    H243561   1.936   2.066   1.889
14540TIP3   OH243562   4.980   3.790   1.629
14540TIP3    H143563   4.962   3.822   1.718
14540TIP3    H243564   4.976   3.868   1.574
14541TIP3   OH243565   1.415   3.297   4.922
14541TIP3    H143566   1.501   3.331   4.945
14541TIP3    H243567   1.433   3.220   4.867
14542TIP3   OH243568   4.105   3.084   2.425
14542TIP3    H143569   4.115   3.151   2.492
14542TIP3    H243570   4.140   3.125   2.345
14543TIP3   OH243571   2.860   4.809   6.169
14543TIP3    H143572   2.890   4.888   6.214
14543TIP3    H243573   2.790   4.838   6.111
14544TIP3   OH243574   6.826   5.028   5.532
14544TIP3    H143575   6.758   5.092   5.512
14544TIP3    H243576   6.852   5.048   5.622
14545TIP3   OH243577   4.444   5.044   1.923
14545TIP3    H143578   4.397   5.114   1.879
14545TIP3    H243579   4.478   5.084   2.003
14546TIP3   OH243580   2.161   1.717   5.697
14546TIP3    H143581   2.249   1.682   5.686
14546TIP3    H243582   2.143   1.762   5.614
14547TIP3   OH243583   7.755   3.921   6.749
14547TIP3    H143584   7.687   3.974   6.707
14547TIP3    H243585   7.827   3.981   6.766
14548TIP3   OH243586   3.089   5.842   3.786
14548TIP3    H143587   3.065   5.789   3.709
14548TIP3    H243588   3.157   5.791   3.830
14549TIP3   OH243589   6.423   4.938   4.086
14549TIP3    H143590   6.412   4.921   3.993
14549TIP3    H243591   6.367   4.874   4.130
14550TIP3   OH243592   5.464   5.331   5.640
14550TIP3    H143593   5.434   5.296   5.556
14550TIP3    H243594   5.437   5.423   5.639
14551TIP3   OH243595   7.081   2.849   5.563
14551TIP3    H143596   7.040   2.774   5.606
14551TIP3    H243597   7.152   2.874   5.623
14552TIP3   OH243598   2.354   4.725   2.585
14552TIP3    H143599   2.295   4.780   2.635
14552TIP3    H243600   2.334   4.636   2.613
14553TIP3   OH243601   6.677   0.101   6.540
14553TIP3    H143602   6.589   0.066   6.558
14553TIP3    H243603   6.710   0.128   6.626
14554TIP3   OH243604   5.780   4.709   0.407
14554TIP3    H143605   5.832   4.639   0.445
14554TIP3    H243606   5.836   4.746   0.338
14555TIP3   OH243607   1.596   7.298   4.912
14555TIP3    H143608   1.596   7.316   5.006
14555TIP3    H243609   1.528   7.231   4.900
14556TIP3   OH243610   5.984   2.274   5.653
14556TIP3    H143611   5.924   2.248   5.723
14556TIP3    H243612   6.046   2.202   5.646
14557TIP3   OH243613   1.684   4.570   2.377
14557TIP3    H143614   1.690   4.532   2.464
14557TIP3    H243615   1.592   4.594   2.367
14558TIP3   OH243616   1.163   6.230   4.622
14558TIP3    H143617   1.134   6.320   4.638
14558TIP3    H243618   1.139   6.183   4.702
14559TIP3   OH243619   3.591   3.013   2.023
14559TIP3    H143620   3.517   3.017   2.084
14559TIP3    H243621   3.561   3.059   1.945
14560TIP3   OH243622   3.952   6.815   5.641
14560TIP3    H143623   4.033   6.772   5.670
14560TIP3    H243624   3.982   6.886   5.584
14561TIP3   OH243625   4.433   5.881   3.878
14561TIP3    H143626   4.460   5.791   3.864
14561TIP3    H243627   4.414   5.915   3.790
14562TIP3   OH243628   1.340   4.841   1.744
14562TIP3    H143629   1.344   4.756   1.700
14562TIP3    H243630   1.292   4.824   1.825
14563TIP3   OH243631   2.217   3.644   2.857
14563TIP3    H143632   2.209   3.735   2.830
14563TIP3    H243633   2.139   3.602   2.821
14564TIP3   OH243634   8.259   3.574   1.116
14564TIP3    H143635   8.266   3.595   1.209
14564TIP3    H243636   8.172   3.604   1.090
14565TIP3   OH243637   0.002   6.609   6.670
14565TIP3    H143638   0.034   6.521   6.689
14565TIP3    H243639   0.078   6.654   6.633
14566TIP3   OH243640   2.461   0.979   0.880
14566TIP3    H143641   2.410   1.049   0.921
14566TIP3    H243642   2.536   1.024   0.841
14567TIP3   OH243643   6.955   2.595   5.448
14567TIP3    H143644   7.027   2.588   5.386
14567TIP3    H243645   6.927   2.686   5.441
14568TIP3   OH243646   4.250   4.180   3.503
14568TIP3    H143647   4.206   4.216   3.580
14568TIP3    H243648   4.267   4.088   3.525
14569TIP3   OH243649   5.433   6.020   0.440
14569TIP3    H143650   5.372   5.970   0.494
14569TIP3    H243651   5.492   6.062   0.502
14570TIP3   OH243652   4.708   4.067   0.585
14570TIP3    H143653   4.641   4.132   0.566
14570TIP3    H243654   4.682   3.990   0.533
14571TIP3   OH243655   5.474   5.398   5.932
14571TIP3    H143656   5.514   5.371   5.849
14571TIP3    H243657   5.397   5.447   5.906
14572TIP3   OH243658   5.581   1.990   6.780
14572TIP3    H143659   5.507   1.971   6.838
14572TIP3    H243660   5.544   1.987   6.692
14573TIP3   OH243661   3.680   0.169   2.141
14573TIP3    H143662   3.671   0.230   2.214
14573TIP3    H243663   3.590   0.147   2.116
14574TIP3   OH243664   0.181   5.988   3.532
14574TIP3    H143665   0.158   5.910   3.582
14574TIP3    H243666   0.233   6.041   3.593
14575TIP3   OH243667   5.403   6.689   6.305
14575TIP3    H143668   5.322   6.670   6.352
14575TIP3    H243669   5.390   6.650   6.218
14576TIP3   OH243670   3.799   2.431   4.717
14576TIP3    H143671   3.833   2.381   4.643
14576TIP3    H243672   3.863   2.501   4.730
14577TIP3   OH243673   2.289   4.575   1.030
14577TIP3    H143674   2.336   4.633   0.970
14577TIP3    H243675   2.319   4.599   1.117
14578TIP3   OH243676   5.835   3.739   0.293
14578TIP3    H143677   5.773   3.775   0.229
14578TIP3    H243678   5.786   3.670   0.337
14579TIP3   OH243679   1.378   4.986   5.075
14579TIP3    H143680   1.402   5.078   5.085
14579TIP3    H243681   1.286   4.983   5.104
14580TIP3   OH243682   6.612   4.852   1.142
14580TIP3    H143683   6.560   4.931   1.127
14580TIP3    H243684   6.680   4.880   1.203
14581TIP3   OH243685   6.211   2.058   4.232
14581TIP3    H143686   6.170   2.122   4.172
14581TIP3    H243687   6.283   2.021   4.182
14582TIP3   OH243688   5.394   6.981   6.355
14582TIP3    H143689   5.329   7.031   6.404
14582TIP3    H243690   5.360   6.892   6.353
14583TIP3   OH243691   3.742   2.182   2.887
14583TIP3    H143692   3.745   2.120   2.960
14583TIP3    H243693   3.741   2.268   2.929
14584TIP3   OH243694   2.001   0.276   4.822
14584TIP3    H143695   1.922   0.331   4.825
14584TIP3    H243696   2.072   0.338   4.805
14585TIP3   OH243697   5.974   5.504   6.061
14585TIP3    H143698   5.922   5.451   6.000
14585TIP3    H243699   6.041   5.545   6.006
14586TIP3   OH243700   6.973   0.447   0.215
14586TIP3    H143701   7.016   0.532   0.222
14586TIP3    H243702   7.037   0.391   0.171
14587TIP3   OH243703   0.233  -0.004   3.841
14587TIP3    H143704   0.157   0.053   3.848
14587TIP3    H243705   0.212  -0.064   3.770
14588TIP3   OH243706   5.714   5.998   4.308
14588TIP3    H143707   5.712   5.947   4.389
14588TIP3    H243708   5.794   5.969   4.263
14589TIP3   OH243709   0.845   6.930   4.812
14589TIP3    H143710   0.915   6.989   4.836
14589TIP3    H243711   0.870   6.845   4.849
14590TIP3   OH243712   5.882   0.349   2.263
14590TIP3    H143713   5.864   0.257   2.243
14590TIP3    H243714   5.866   0.357   2.357
14591TIP3   OH243715   3.328   5.031   2.116
14591TIP3    H143716   3.295   5.105   2.166
14591TIP3    H243717   3.422   5.028   2.136
14592TIP3   OH243718   4.548   0.471   0.285
14592TIP3    H143719   4.588   0.413   0.350
14592TIP3    H243720   4.606   0.464   0.209
14593TIP3   OH243721   0.254   2.802   0.050
14593TIP3    H143722   0.182   2.797   0.112
14593TIP3    H243723   0.222   2.858  -0.021
14594TIP3   OH243724   4.136   6.298   2.340
14594TIP3    H143725   4.190   6.234   2.387
14594TIP3    H243726   4.050   6.257   2.335
14595TIP3   OH243727   5.613   4.540   0.226
14595TIP3    H143728   5.519   4.532   0.240
14595TIP3    H243729   5.639   4.616   0.279
14596TIP3   OH243730   3.382   7.402   1.172
14596TIP3    H143731   3.312   7.449   1.128
14596TIP3    H243732   3.348   7.382   1.259
14597TIP3   OH243733   5.445   6.421   5.032
14597TIP3    H143734   5.452   6.380   4.946
14597TIP3    H243735   5.452   6.515   5.015
14598TIP3   OH243736   4.532   6.032   0.613
14598TIP3    H143737   4.547   6.124   0.632
14598TIP3    H243738   4.532   5.989   0.698
14599TIP3   OH243739   0.515   7.244   0.382
14599TIP3    H143740   0.557   7.231   0.297
14599TIP3    H243741   0.424   7.217   0.369
14600TIP3   OH243742   6.911   1.120   6.107
14600TIP3    H143743   6.989   1.075   6.141
14600TIP3    H243744   6.896   1.080   6.021
14601TIP3   OH243745   0.313   1.136   4.113
14601TIP3    H143746   0.311   1.124   4.208
14601TIP3    H243747   0.271   1.057   4.078
14602TIP3   OH243748   2.312   6.839   5.481
14602TIP3    H143749   2.252   6.818   5.409
14602TIP3    H243750   2.372   6.903   5.444
14603TIP3   OH243751   0.195   3.726   5.895
14603TIP3    H143752   0.117   3.719   5.949
14603TIP3    H243753   0.267   3.732   5.958
14604TIP3   OH243754   0.643   2.610   6.412
14604TIP3    H143755   0.701   2.588   6.339
14604TIP3    H243756   0.555   2.591   6.379
14605TIP3   OH243757   6.909   5.425   5.984
14605TIP3    H143758   6.824   5.456   6.017
14605TIP3    H243759   6.939   5.494   5.925
14606TIP3   OH243760   3.341   4.101   5.485
14606TIP3    H143761   3.316   4.098   5.392
14606TIP3    H243762   3.366   4.011   5.506
14607TIP3   OH243763   5.487   1.400   4.624
14607TIP3    H143764   5.570   1.369   4.587
14607TIP3    H243765   5.459   1.330   4.683
14608TIP3   OH243766   4.900   2.593   5.401
14608TIP3    H143767   4.897   2.511   5.452
14608TIP3    H243768   4.859   2.571   5.318
14609TIP3   OH243769   4.745   2.741   0.812
14609TIP3    H143770   4.779   2.736   0.902
14609TIP3    H243771   4.663   2.789   0.820
14610TIP3   OH243772   2.581   4.022   1.239
14610TIP3    H143773   2.652   4.043   1.301
14610TIP3    H243774   2.617   3.953   1.183
14611TIP3   OH243775   2.452   5.448   5.135
14611TIP3    H143776   2.419   5.522   5.186
14611TIP3    H243777   2.547   5.461   5.132
14612TIP3   OH243778   4.868   0.382   6.789
14612TIP3    H143779   4.952   0.367   6.747
14612TIP3    H243780   4.833   0.294   6.805
14613TIP3   OH243781   7.276   6.845   4.907
14613TIP3    H143782   7.352   6.817   4.960
14613TIP3    H243783   7.206   6.785   4.932
14614TIP3   OH243784   0.833   3.517   2.899
14614TIP3    H143785   0.784   3.599   2.905
14614TIP3    H243786   0.773   3.451   2.932
14615TIP3   OH243787   4.237   5.781   2.601
14615TIP3    H143788   4.177   5.710   2.626
14615TIP3    H243789   4.186   5.861   2.613
14616TIP3   OH243790   0.205   0.539   3.418
14616TIP3    H143791   0.233   0.450   3.400
14616TIP3    H243792   0.140   0.530   3.488
14617TIP3   OH243793   6.456   0.993   2.028
14617TIP3    H143794   6.439   1.029   2.115
14617TIP3    H243795   6.549   1.011   2.012
14618TIP3   OH243796   0.285   7.877   1.402
14618TIP3    H143797   0.305   7.789   1.434
14618TIP3    H243798   0.195   7.870   1.369
14619TIP3   OH243799   4.827   0.195   2.469
14619TIP3    H143800   4.912   0.181   2.426
14619TIP3    H243801   4.778   0.249   2.407
14620TIP3   OH243802  -0.022   0.415   1.354
14620TIP3    H143803   0.008   0.344   1.411
14620TIP3    H243804   0.052   0.475   1.349
14621TIP3   OH243805   2.555   0.194   3.455
14621TIP3    H143806   2.473   0.232   3.423
14621TIP3    H243807   2.551   0.205   3.550
14622TIP3   OH243808   7.266   4.837   5.643
14622TIP3    H143809   7.359   4.851   5.664
14622TIP3    H243810   7.219   4.900   5.697
14623TIP3   OH243811   5.552   3.348   4.575
14623TIP3    H143812   5.605   3.269   4.565
14623TIP3    H243813   5.472   3.329   4.526
14624TIP3   OH243814   2.136   1.426   0.789
14624TIP3    H143815   2.151   1.459   0.877
14624TIP3    H243816   2.043   1.408   0.785
14625TIP3   OH243817   0.786   4.845   3.468
14625TIP3    H143818   0.743   4.927   3.443
14625TIP3    H243819   0.877   4.856   3.440
14626TIP3   OH243820   6.436   7.432   5.821
14626TIP3    H143821   6.454   7.343   5.850
14626TIP3    H243822   6.456   7.487   5.897
14627TIP3   OH243823   0.757   6.321   3.987
14627TIP3    H143824   0.852   6.320   3.974
14627TIP3    H243825   0.745   6.313   4.082
14628TIP3   OH243826   2.070   3.067   1.878
14628TIP3    H143827   2.032   3.108   1.800
14628TIP3    H243828   2.162   3.093   1.876
14629TIP3   OH243829   2.032   4.981   6.060
14629TIP3    H143830   2.081   5.011   6.137
14629TIP3    H243831   2.064   4.893   6.044
14630TIP3   OH243832   1.753   6.371   0.603
14630TIP3    H143833   1.756   6.453   0.553
14630TIP3    H243834   1.807   6.310   0.553
14631TIP3   OH243835   0.798   0.703   0.784
14631TIP3    H143836   0.714   0.659   0.767
14631TIP3    H243837   0.816   0.686   0.876
14632TIP3   OH243838   7.395   3.063   6.586
14632TIP3    H143839   7.413   3.097   6.674
14632TIP3    H243840   7.419   3.135   6.528
14633TIP3   OH243841   6.318   3.677   0.057
14633TIP3    H143842   6.394   3.629   0.090
14633TIP3    H243843   6.245   3.616   0.065
14634TIP3   OH243844   7.691   4.287   1.612
14634TIP3    H143845   7.657   4.305   1.524
14634TIP3    H243846   7.613   4.291   1.669
14635TIP3   OH243847   2.601   3.332   3.540
14635TIP3    H143848   2.554   3.410   3.572
14635TIP3    H243849   2.540   3.260   3.557
14636TIP3   OH243850   7.163   3.722   5.119
14636TIP3    H143851   7.216   3.711   5.040
14636TIP3    H243852   7.084   3.767   5.089
14637TIP3   OH243853   0.055   0.387   3.125
14637TIP3    H143854   0.061   0.334   3.045
14637TIP3    H243855   0.088   0.472   3.099
14638TIP3   OH243856   4.141   5.316   2.705
14638TIP3    H143857   4.144   5.255   2.779
14638TIP3    H243858   4.062   5.293   2.658
14639TIP3   OH243859   6.201   6.364   0.963
14639TIP3    H143860   6.247   6.440   1.000
14639TIP3    H243861   6.156   6.326   1.038
14640TIP3   OH243862   7.052   3.543   3.096
14640TIP3    H143863   7.031   3.535   3.003
14640TIP3    H243864   7.144   3.569   3.098
14641TIP3   OH243865   4.731   0.361   2.294
14641TIP3    H143866   4.640   0.338   2.279
14641TIP3    H243867   4.731   0.456   2.306
14642TIP3   OH243868   1.872   1.216   1.662
14642TIP3    H143869   1.924   1.161   1.721
14642TIP3    H243870   1.880   1.173   1.577
14643TIP3   OH243871   2.185   0.148   0.068
14643TIP3    H143872   2.190   0.210  -0.005
14643TIP3    H243873   2.152   0.200   0.141
14644TIP3   OH243874   1.201   2.051   1.220
14644TIP3    H143875   1.222   2.052   1.313
14644TIP3    H243876   1.204   2.143   1.194
14645TIP3   OH243877   6.882   2.661   0.401
14645TIP3    H143878   6.876   2.566   0.410
14645TIP3    H243879   6.892   2.675   0.307
14646TIP3   OH243880   5.848   1.963   4.809
14646TIP3    H143881   5.862   1.975   4.902
14646TIP3    H243882   5.828   2.050   4.775
14647TIP3   OH243883   4.463   1.013   3.637
14647TIP3    H143884   4.433   1.097   3.600
14647TIP3    H243885   4.413   1.004   3.718
14648TIP3   OH243886   5.649   2.539   2.203
14648TIP3    H143887   5.586   2.594   2.156
14648TIP3    H243888   5.621   2.543   2.294
14649TIP3   OH243889   4.063   6.568   0.165
14649TIP3    H143890   4.086   6.622   0.240
14649TIP3    H243891   4.137   6.579   0.104
14650TIP3   OH243892   3.888   1.514   5.024
14650TIP3    H143893   3.799   1.549   5.019
14650TIP3    H243894   3.937   1.561   4.957
14651TIP3   OH243895   5.584   5.145   3.857
14651TIP3    H143896   5.600   5.053   3.876
14651TIP3    H243897   5.549   5.145   3.768
14652TIP3   OH243898   6.887   4.457   3.253
14652TIP3    H143899   6.878   4.362   3.254
14652TIP3    H243900   6.893   4.482   3.345
14653TIP3   OH243901   7.914   3.411   0.705
14653TIP3    H143902   7.922   3.462   0.786
14653TIP3    H243903   7.879   3.327   0.733
14654TIP3   OH243904   7.146   2.597   6.503
14654TIP3    H143905   7.152   2.509   6.542
14654TIP3    H243906   7.215   2.647   6.547
14655TIP3   OH243907   3.134   7.460   0.153
14655TIP3    H143908   3.040   7.475   0.141
14655TIP3    H243909   3.173   7.547   0.142
14656TIP3   OH243910   4.239   1.714   2.984
14656TIP3    H143911   4.258   1.748   3.071
14656TIP3    H243912   4.196   1.630   3.000
14657TIP3   OH243913   0.775   0.983   4.623
14657TIP3    H143914   0.831   0.908   4.603
14657TIP3    H243915   0.816   1.056   4.577
14658TIP3   OH243916   5.144   6.491   6.338
14658TIP3    H143917   5.136   6.409   6.289
14658TIP3    H243918   5.187   6.466   6.420
14659TIP3   OH243919   2.584   5.896   3.954
14659TIP3    H143920   2.613   5.888   3.863
14659TIP3    H243921   2.517   5.964   3.953
14660TIP3   OH243922   5.706   1.512   0.097
14660TIP3    H143923   5.793   1.487   0.129
14660TIP3    H243924   5.688   1.450   0.026
14661TIP3   OH243925   1.360   3.287   2.726
14661TIP3    H143926   1.272   3.296   2.762
14661TIP3    H243927   1.365   3.354   2.658
14662TIP3   OH243928   3.139   3.579   2.575
14662TIP3    H143929   3.186   3.517   2.631
14662TIP3    H243930   3.165   3.555   2.486
14663TIP3   OH243931   0.237   5.737   0.195
14663TIP3    H143932   0.207   5.787   0.119
14663TIP3    H243933   0.159   5.730   0.251
14664TIP3   OH243934   4.136   5.680   6.030
14664TIP3    H143935   4.071   5.719   5.972
14664TIP3    H243936   4.113   5.711   6.118
14665TIP3   OH243937   1.055   0.184   2.389
14665TIP3    H143938   1.031   0.238   2.314
14665TIP3    H243939   0.986   0.117   2.392
14666TIP3   OH243940   0.145   4.741   3.664
14666TIP3    H143941   0.094   4.665   3.633
14666TIP3    H243942   0.194   4.709   3.739
14667TIP3   OH243943   7.952   1.760   5.034
14667TIP3    H143944   7.901   1.779   4.956
14667TIP3    H243945   7.906   1.687   5.076
14668TIP3   OH243946   8.148   6.725   3.320
14668TIP3    H143947   8.124   6.649   3.267
14668TIP3    H243948   8.065   6.753   3.360
14669TIP3   OH243949   5.743  -0.009   5.702
14669TIP3    H143950   5.745   0.086   5.716
14669TIP3    H243951   5.818  -0.042   5.751
14670TIP3   OH243952   4.600   2.191   3.575
14670TIP3    H143953   4.558   2.232   3.499
14670TIP3    H243954   4.538   2.203   3.646
14671TIP3   OH243955   4.855   6.436   5.470
14671TIP3    H143956   4.927   6.373   5.462
14671TIP3    H243957   4.887   6.514   5.424
14672TIP3   OH243958   3.463   0.268   6.120
14672TIP3    H143959   3.477   0.361   6.142
14672TIP3    H243960   3.472   0.265   6.025
14673TIP3   OH243961   5.308   2.877   0.825
14673TIP3    H143962   5.229   2.927   0.806
14673TIP3    H243963   5.379   2.942   0.819
14674TIP3   OH243964   3.569   3.930   3.641
14674TIP3    H143965   3.660   3.956   3.626
14674TIP3    H243966   3.559   3.849   3.590
14675TIP3   OH243967   4.014   4.992   2.502
14675TIP3    H143968   4.090   5.049   2.492
14675TIP3    H243969   3.938   5.050   2.491
14676TIP3   OH243970   3.977   6.999   3.396
14676TIP3    H143971   3.933   6.915   3.411
14676TIP3    H243972   4.070   6.977   3.395
14677TIP3   OH243973   7.792   6.603   1.210
14677TIP3    H143974   7.842   6.674   1.249
14677TIP3    H243975   7.701   6.623   1.231
14678TIP3   OH243976   3.311   5.675   0.753
14678TIP3    H143977   3.292   5.717   0.837
14678TIP3    H243978   3.406   5.664   0.753
14679TIP3   OH243979   4.931   0.348   0.126
14679TIP3    H143980   4.886   0.281   0.075
14679TIP3    H243981   5.007   0.304   0.163
14680TIP3   OH243982   4.955   0.928   3.797
14680TIP3    H143983   4.937   0.904   3.888
14680TIP3    H243984   4.931   1.020   3.791
14681TIP3   OH243985   0.720   4.484   1.090
14681TIP3    H143986   0.708   4.434   1.171
14681TIP3    H243987   0.744   4.418   1.025
14682TIP3   OH243988   8.114   1.461   4.280
14682TIP3    H143989   8.124   1.367   4.296
14682TIP3    H243990   8.142   1.473   4.189
14683TIP3   OH243991   0.957   0.078   6.192
14683TIP3    H143992   0.884   0.113   6.244
14683TIP3    H243993   1.034   0.123   6.226
14684TIP3   OH243994   4.469   3.320   4.527
14684TIP3    H143995   4.419   3.335   4.608
14684TIP3    H243996   4.437   3.235   4.495
14685TIP3   OH243997   3.490   2.923   3.762
14685TIP3    H143998   3.465   2.864   3.833
14685TIP3    H243999   3.518   2.864   3.691
14686TIP3   OH244000   7.998   4.022   2.777
14686TIP3    H144001   7.995   3.947   2.718
14686TIP3    H244002   8.008   4.098   2.718
14687TIP3   OH244003   7.665   4.984   3.493
14687TIP3    H144004   7.728   5.055   3.480
14687TIP3    H244005   7.650   4.981   3.587
14688TIP3   OH244006   0.110   3.193   4.491
14688TIP3    H144007   0.142   3.244   4.416
14688TIP3    H244008   0.163   3.224   4.565
14689TIP3   OH244009   0.300   1.090   1.482
14689TIP3    H144010   0.233   1.022   1.493
14689TIP3    H244011   0.264   1.167   1.526
14690TIP3   OH244012   8.201   5.790   2.207
14690TIP3    H144013   8.189   5.733   2.130
14690TIP3    H244014   8.262   5.741   2.262
14691TIP3   OH244015   2.288   3.100   4.476
14691TIP3    H144016   2.314   3.008   4.488
14691TIP3    H244017   2.286   3.112   4.382
14692TIP3   OH244018   7.009   0.260   1.724
14692TIP3    H144019   7.096   0.250   1.685
14692TIP3    H244020   7.025   0.260   1.819
14693TIP3   OH244021   3.902   6.893   5.897
14693TIP3    H144022   3.839   6.835   5.939
14693TIP3    H244023   3.903   6.865   5.805
14694TIP3   OH244024   7.670   2.584   0.365
14694TIP3    H144025   7.627   2.658   0.408
14694TIP3    H244026   7.648   2.594   0.272
14695TIP3   OH244027   8.020   3.365   6.203
14695TIP3    H144028   8.102   3.335   6.242
14695TIP3    H244029   8.043   3.391   6.114
14696TIP3   OH244030   3.177   6.918   3.059
14696TIP3    H144031   3.105   6.974   3.029
14696TIP3    H244032   3.135   6.834   3.078
14697TIP3   OH244033   1.195   6.561   5.461
14697TIP3    H144034   1.116   6.530   5.417
14697TIP3    H244035   1.162   6.605   5.540
14698TIP3   OH244036   2.125   1.664   6.776
14698TIP3    H144037   2.220   1.660   6.784
14698TIP3    H244038   2.094   1.590   6.828
14699TIP3   OH244039   0.842   4.672   0.760
14699TIP3    H144040   0.779   4.693   0.691
14699TIP3    H244041   0.845   4.577   0.762
14700TIP3   OH244042   7.304   6.421   0.857
14700TIP3    H144043   7.341   6.460   0.936
14700TIP3    H244044   7.349   6.464   0.785
14701TIP3   OH244045   6.375   2.984   4.383
14701TIP3    H144046   6.402   3.070   4.415
14701TIP3    H244047   6.336   2.941   4.459
14702TIP3   OH244048   0.297   5.976   5.872
14702TIP3    H144049   0.339   5.940   5.951
14702TIP3    H244050   0.211   5.934   5.870
14703TIP3   OH244051   1.623   2.078   2.997
14703TIP3    H144052   1.612   2.170   2.973
14703TIP3    H244053   1.667   2.039   2.921
14704TIP3   OH244054   1.982   1.112   2.731
14704TIP3    H144055   1.940   1.122   2.816
14704TIP3    H244056   1.960   1.192   2.683
14705TIP3   OH244057   5.053   5.177   2.704
14705TIP3    H144058   5.021   5.087   2.701
14705TIP3    H244059   5.056   5.205   2.613
14706TIP3   OH244060   4.384   2.559   0.280
14706TIP3    H144061   4.335   2.478   0.264
14706TIP3    H244062   4.448   2.562   0.209
14707TIP3   OH244063   0.260   3.401   2.000
14707TIP3    H144064   0.175   3.366   1.975
14707TIP3    H244065   0.318   3.378   1.928
14708TIP3   OH244066   6.347   1.995   0.365
14708TIP3    H144067   6.274   2.007   0.304
14708TIP3    H244068   6.332   2.061   0.433
14709TIP3   OH244069   6.667   4.612   0.078
14709TIP3    H144070   6.697   4.667   0.005
14709TIP3    H244071   6.583   4.650   0.103
14710TIP3   OH244072   7.001   4.689   3.543
14710TIP3    H144073   7.052   4.757   3.587
14710TIP3    H244074   7.066   4.625   3.515
14711TIP3   OH244075   4.511   1.158   5.712
14711TIP3    H144076   4.487   1.194   5.798
14711TIP3    H244077   4.606   1.150   5.715
14712TIP3   OH244078   1.029   2.529   1.878
14712TIP3    H144079   1.095   2.463   1.900
14712TIP3    H244080   0.946   2.486   1.896
14713TIP3   OH244081   2.247   0.576   1.202
14713TIP3    H144082   2.170   0.534   1.240
14713TIP3    H244083   2.302   0.598   1.278
14714TIP3   OH244084   2.802   1.104   4.978
14714TIP3    H144085   2.863   1.040   4.941
14714TIP3    H244086   2.821   1.185   4.933
14715TIP3   OH244087   1.500   0.819   6.002
14715TIP3    H144088   1.575   0.877   5.995
14715TIP3    H244089   1.426   0.871   5.972
14716TIP3   OH244090   3.317   7.450   2.413
14716TIP3    H144091   3.356   7.371   2.451
14716TIP3    H244092   3.302   7.508   2.488
14717TIP3   OH244093   2.679   7.342   4.785
14717TIP3    H144094   2.584   7.350   4.776
14717TIP3    H244095   2.695   7.248   4.783
14718TIP3   OH244096   2.957   6.465   0.925
14718TIP3    H144097   2.945   6.375   0.957
14718TIP3    H244098   2.891   6.516   0.972
14719TIP3   OH244099   6.219   3.610   2.321
14719TIP3    H144100   6.201   3.517   2.309
14719TIP3    H244101   6.310   3.621   2.295
14720TIP3   OH244102   1.670   5.384   1.134
14720TIP3    H144103   1.740   5.450   1.127
14720TIP3    H244104   1.714   5.305   1.164
14721TIP3   OH244105   7.415   5.852   1.035
14721TIP3    H144106   7.378   5.766   1.015
14721TIP3    H244107   7.496   5.832   1.083
14722TIP3   OH244108   6.568   1.533   0.312
14722TIP3    H144109   6.514   1.606   0.342
14722TIP3    H244110   6.657   1.569   0.309
14723TIP3   OH244111   4.944   3.617   2.013
14723TIP3    H144112   4.871   3.571   2.053
14723TIP3    H244113   4.905   3.693   1.971
14724TIP3   OH244114   3.028   2.949   3.949
14724TIP3    H144115   2.996   2.887   4.015
14724TIP3    H244116   3.123   2.950   3.963
14725TIP3   OH244117   3.856   0.280   6.407
14725TIP3    H144118   3.783   0.254   6.464
14725TIP3    H244119   3.860   0.376   6.415
14726TIP3   OH244120   2.489   5.300   6.117
14726TIP3    H144121   2.440   5.342   6.046
14726TIP3    H244122   2.561   5.360   6.136
14727TIP3   OH244123   7.727   6.779   5.951
14727TIP3    H144124   7.648   6.785   6.005
14727TIP3    H244125   7.707   6.711   5.887
14728TIP3   OH244126   3.502   1.589   4.768
14728TIP3    H144127   3.464   1.503   4.787
14728TIP3    H244128   3.444   1.651   4.813
14729TIP3   OH244129   3.722   0.646   2.815
14729TIP3    H144130   3.681   0.710   2.756
14729TIP3    H244131   3.743   0.696   2.894
14730TIP3   OH244132   4.764   3.104   0.451
14730TIP3    H144133   4.706   3.132   0.380
14730TIP3    H244134   4.708   3.051   0.508
14731TIP3   OH244135   7.561   5.315   4.178
14731TIP3    H144136   7.513   5.257   4.118
14731TIP3    H244137   7.593   5.386   4.122
14732TIP3   OH244138   4.741   7.345   3.079
14732TIP3    H144139   4.730   7.432   3.039
14732TIP3    H244140   4.660   7.298   3.055
14733TIP3   OH244141   4.765   1.081   0.503
14733TIP3    H144142   4.784   1.174   0.492
14733TIP3    H244143   4.851   1.039   0.500
14734TIP3   OH244144   1.339   2.899   2.040
14734TIP3    H144145   1.303   2.929   2.124
14734TIP3    H244146   1.269   2.847   2.000
14735TIP3   OH244147   3.820   1.884   6.357
14735TIP3    H144148   3.736   1.877   6.311
14735TIP3    H244149   3.877   1.930   6.296
14736TIP3   OH244150   2.679   4.669   6.400
14736TIP3    H144151   2.730   4.602   6.445
14736TIP3    H244152   2.719   4.752   6.428
14737TIP3   OH244153   1.670   6.907   1.371
14737TIP3    H144154   1.582   6.883   1.341
14737TIP3    H244155   1.705   6.826   1.410
14738TIP3   OH244156   4.616   7.863   0.516
14738TIP3    H144157   4.602   7.771   0.495
14738TIP3    H244158   4.706   7.881   0.486
14739TIP3   OH244159   4.342   4.373   3.333
14739TIP3    H144160   4.313   4.298   3.384
14739TIP3    H244161   4.272   4.388   3.270
14740TIP3   OH244162   5.065   3.052   5.749
14740TIP3    H144163   4.973   3.067   5.725
14740TIP3    H244164   5.115   3.108   5.690
14741TIP3   OH244165   7.689   5.206   6.756
14741TIP3    H144166   7.733   5.289   6.775
14741TIP3    H244167   7.755   5.139   6.773
14742TIP3   OH244168   3.914   2.683   2.223
14742TIP3    H144169   3.827   2.643   2.217
14742TIP3    H244170   3.972   2.609   2.243
14743TIP3   OH244171   3.116   3.195   1.074
14743TIP3    H144172   3.162   3.150   1.145
14743TIP3    H244173   3.157   3.160   0.994
14744TIP3   OH244174   3.143   0.300   6.019
14744TIP3    H144175   3.216   0.241   6.000
14744TIP3    H244176   3.136   0.355   5.942
14745TIP3   OH244177   7.324   7.358   2.671
14745TIP3    H144178   7.412   7.377   2.640
14745TIP3    H244179   7.337   7.310   2.753
14746TIP3   OH244180   1.903   6.163   0.493
14746TIP3    H144181   1.876   6.186   0.404
14746TIP3    H244182   1.998   6.175   0.493
14747TIP3   OH244183   3.948   6.345   0.911
14747TIP3    H144184   4.040   6.361   0.891
14747TIP3    H244185   3.907   6.431   0.911
14748TIP3   OH244186   1.660   6.717   3.266
14748TIP3    H144187   1.746   6.720   3.224
14748TIP3    H244188   1.601   6.758   3.203
14749TIP3   OH244189   2.520   4.977   6.374
14749TIP3    H144190   2.454   4.913   6.398
14749TIP3    H244191   2.472   5.060   6.366
14750TIP3   OH244192   1.420   1.820   1.311
14750TIP3    H144193   1.384   1.796   1.225
14750TIP3    H244194   1.513   1.802   1.304
14751TIP3   OH244195   7.244   3.188   0.965
14751TIP3    H144196   7.227   3.280   0.944
14751TIP3    H244197   7.245   3.186   1.061
14752TIP3   OH244198   7.414   6.667   1.458
14752TIP3    H144199   7.484   6.609   1.430
14752TIP3    H244200   7.359   6.678   1.380
14753TIP3   OH244201   1.375   3.594   6.219
14753TIP3    H144202   1.297   3.605   6.273
14753TIP3    H244203   1.342   3.570   6.133
14754TIP3   OH244204   4.155   2.141   1.213
14754TIP3    H144205   4.191   2.223   1.179
14754TIP3    H244206   4.158   2.081   1.139
14755TIP3   OH244207   4.988   6.832   2.920
14755TIP3    H144208   4.897   6.853   2.940
14755TIP3    H244209   5.038   6.899   2.968
14756TIP3   OH244210   5.851   0.363   0.431
14756TIP3    H144211   5.877   0.361   0.523
14756TIP3    H244212   5.880   0.278   0.396
14757TIP3   OH244213   1.353   1.130   0.054
14757TIP3    H144214   1.420   1.171   0.108
14757TIP3    H244215   1.283   1.107   0.115
14758TIP3   OH244216   3.260   1.257   6.652
14758TIP3    H144217   3.174   1.215   6.653
14758TIP3    H244218   3.278   1.274   6.560
14759TIP3   OH244219   4.243   6.649   4.264
14759TIP3    H144220   4.240   6.557   4.238
14759TIP3    H244221   4.331   6.678   4.239
14760TIP3   OH244222   0.557   5.444   6.582
14760TIP3    H144223   0.468   5.480   6.574
14760TIP3    H244224   0.610   5.518   6.610
14761TIP3   OH244225   2.613   2.854   4.797
14761TIP3    H144226   2.535   2.886   4.843
14761TIP3    H244227   2.672   2.826   4.867
14762TIP3   OH244228   3.155   5.397   0.272
14762TIP3    H144229   3.247   5.374   0.283
14762TIP3    H244230   3.139   5.385   0.178
14763TIP3   OH244231   4.688   4.002   5.000
14763TIP3    H144232   4.748   3.931   4.979
14763TIP3    H244233   4.733   4.054   5.066
14764TIP3   OH244234   0.713   4.379   2.767
14764TIP3    H144235   0.773   4.452   2.783
14764TIP3    H244236   0.761   4.320   2.709
14765TIP3   OH244237   5.938   2.710   3.638
14765TIP3    H144238   5.979   2.623   3.633
14765TIP3    H244239   5.857   2.696   3.687
14766TIP3   OH244240   2.306   5.662   1.991
14766TIP3    H144241   2.356   5.611   1.927
14766TIP3    H244242   2.340   5.751   1.982
14767TIP3   OH244243   0.804   0.102   6.453
14767TIP3    H144244   0.816   0.025   6.509
14767TIP3    H244245   0.824   0.176   6.510
14768TIP3   OH244246   7.789   3.042   4.148
14768TIP3    H144247   7.813   2.978   4.215
14768TIP3    H244248   7.735   2.992   4.086
14769TIP3   OH244249   6.546   2.197   4.011
14769TIP3    H144250   6.497   2.242   3.942
14769TIP3    H244251   6.492   2.120   4.032
14770TIP3   OH244252   2.660   5.948   2.690
14770TIP3    H144253   2.580   5.948   2.637
14770TIP3    H244254   2.725   5.903   2.635
14771TIP3   OH244255   5.239   6.314   3.564
14771TIP3    H144256   5.324   6.278   3.588
14771TIP3    H244257   5.211   6.262   3.489
14772TIP3   OH244258   5.095   3.908   3.529
14772TIP3    H144259   5.130   3.973   3.468
14772TIP3    H244260   5.002   3.901   3.506
14773TIP3   OH244261   6.449   1.144   6.067
14773TIP3    H144262   6.408   1.143   5.981
14773TIP3    H244263   6.519   1.078   6.061
14774TIP3   OH244264   3.171   7.710   0.685
14774TIP3    H144265   3.221   7.629   0.692
14774TIP3    H244266   3.177   7.750   0.772
14775TIP3   OH244267   4.034   5.959   3.071
14775TIP3    H144268   4.010   5.891   3.008
14775TIP3    H244269   4.128   5.944   3.087
14776TIP3   OH244270   6.129   7.096   1.126
14776TIP3    H144271   6.179   7.094   1.207
14776TIP3    H244272   6.114   7.004   1.104
14777TIP3   OH244273   1.576   4.835   6.040
14777TIP3    H144274   1.565   4.922   6.002
14777TIP3    H244275   1.633   4.789   5.978
14778TIP3   OH244276   4.083   0.309   5.066
14778TIP3    H144277   4.095   0.403   5.079
14778TIP3    H244278   4.165   0.279   5.027
14779TIP3   OH244279   3.056   5.544   4.823
14779TIP3    H144280   2.992   5.615   4.822
14779TIP3    H244281   3.058   5.516   4.915
14780TIP3   OH244282   2.172   3.764   0.573
14780TIP3    H144283   2.207   3.834   0.518
14780TIP3    H244284   2.250   3.719   0.606
14781TIP3   OH244285   3.644   4.508   4.237
14781TIP3    H144286   3.593   4.446   4.289
14781TIP3    H244287   3.690   4.561   4.303
14782TIP3   OH244288   6.386   6.554   4.106
14782TIP3    H144289   6.324   6.615   4.145
14782TIP3    H244290   6.437   6.521   4.180
14783TIP3   OH244291   0.303   3.438   4.938
14783TIP3    H144292   0.340   3.525   4.951
14783TIP3    H244293   0.221   3.440   4.987
14784TIP3   OH244294   3.205   1.189   0.769
14784TIP3    H144295   3.182   1.097   0.755
14784TIP3    H244296   3.219   1.224   0.682
14785TIP3   OH244297   3.048   4.118   5.308
14785TIP3    H144298   3.073   4.180   5.377
14785TIP3    H244299   3.131   4.095   5.266
14786TIP3   OH244300   2.233   1.934   0.698
14786TIP3    H144301   2.182   1.854   0.683
14786TIP3    H244302   2.294   1.910   0.767
14787TIP3   OH244303   3.848   5.477   3.489
14787TIP3    H144304   3.883   5.476   3.578
14787TIP3    H244305   3.765   5.430   3.495
14788TIP3   OH244306   1.127   7.289   0.295
14788TIP3    H144307   1.074   7.232   0.350
14788TIP3    H244308   1.064   7.338   0.242
14789TIP3   OH244309   5.529   3.427   1.567
14789TIP3    H144310   5.488   3.366   1.506
14789TIP3    H244311   5.620   3.431   1.539
14790TIP3   OH244312   1.804   0.509   5.316
14790TIP3    H144313   1.751   0.440   5.276
14790TIP3    H244314   1.848   0.466   5.389
14791TIP3   OH244315   7.855   6.426   3.355
14791TIP3    H144316   7.772   6.385   3.381
14791TIP3    H244317   7.887   6.467   3.435
14792TIP3   OH244318   4.271   4.394   4.388
14792TIP3    H144319   4.215   4.322   4.415
14792TIP3    H244320   4.359   4.366   4.410
14793TIP3   OH244321   6.594   3.961   2.847
14793TIP3    H144322   6.676   3.917   2.826
14793TIP3    H244323   6.531   3.890   2.857
14794TIP3   OH244324   6.557   4.540   6.227
14794TIP3    H144325   6.615   4.609   6.194
14794TIP3    H244326   6.532   4.569   6.314
14795TIP3   OH244327   7.529   4.802   4.386
14795TIP3    H144328   7.610   4.833   4.346
14795TIP3    H244329   7.552   4.785   4.477
14796TIP3   OH244330   7.372   6.907   0.846
14796TIP3    H144331   7.394   6.905   0.753
14796TIP3    H244332   7.284   6.869   0.851
14797TIP3   OH244333   3.254   1.747   0.927
14797TIP3    H144334   3.296   1.732   1.012
14797TIP3    H244335   3.163   1.769   0.949
14798TIP3   OH244336   6.565   0.893   1.206
14798TIP3    H144337   6.626   0.904   1.280
14798TIP3    H244338   6.609   0.831   1.149
14799TIP3   OH244339   7.979   1.500   1.375
14799TIP3    H144340   8.023   1.449   1.307
14799TIP3    H244341   7.979   1.590   1.342
14800TIP3   OH244342   3.541   5.821   5.271
14800TIP3    H144343   3.603   5.749   5.258
14800TIP3    H244344   3.484   5.818   5.194
14801TIP3   OH244345   6.481   7.706   0.663
14801TIP3    H144346   6.495   7.747   0.748
14801TIP3    H244347   6.534   7.757   0.602
14802TIP3   OH244348   1.374   6.669   2.070
14802TIP3    H144349   1.280   6.652   2.076
14802TIP3    H244350   1.402   6.620   1.993
14803TIP3   OH244351   5.386   1.998   3.014
14803TIP3    H144352   5.293   1.980   2.998
14803TIP3    H244353   5.390   2.022   3.107
14804TIP3   OH244354   6.461   0.930   0.293
14804TIP3    H144355   6.400   1.001   0.272
14804TIP3    H244356   6.491   0.899   0.208
14805TIP3   OH244357   8.004   1.230   1.514
14805TIP3    H144358   7.927   1.283   1.491
14805TIP3    H244359   7.983   1.142   1.484
14806TIP3   OH244360   6.056   3.815   5.618
14806TIP3    H144361   6.105   3.745   5.576
14806TIP3    H244362   6.120   3.858   5.675
14807TIP3   OH244363   0.524   0.960   4.504
14807TIP3    H144364   0.603   0.988   4.549
14807TIP3    H244365   0.470   0.920   4.571
14808TIP3   OH244366   6.222   3.246   1.024
14808TIP3    H144367   6.256   3.210   1.106
14808TIP3    H244368   6.284   3.217   0.957
14809TIP3   OH244369   6.001   4.579   5.478
14809TIP3    H144370   6.037   4.559   5.564
14809TIP3    H244371   5.992   4.493   5.436
14810TIP3   OH244372   0.790   2.327   2.236
14810TIP3    H144373   0.727   2.368   2.295
14810TIP3    H244374   0.778   2.233   2.251
14811TIP3   OH244375   4.275   2.465   5.741
14811TIP3    H144376   4.203   2.448   5.682
14811TIP3    H244377   4.341   2.510   5.687
14812TIP3   OH244378   8.207   3.166   1.299
14812TIP3    H144379   8.248   3.109   1.364
14812TIP3    H244380   8.223   3.254   1.332
14813TIP3   OH244381   7.532   2.826   0.404
14813TIP3    H144382   7.453   2.782   0.434
14813TIP3    H244383   7.577   2.852   0.485
14814TIP3   OH244384   3.278   5.965   3.126
14814TIP3    H144385   3.373   5.974   3.133
14814TIP3    H244386   3.265   5.881   3.082
14815TIP3   OH244387   8.055   3.264   5.758
14815TIP3    H144388   8.070   3.323   5.833
14815TIP3    H244389   8.143   3.235   5.734
   8.29491   7.82052   6.77277   0.00000   0.00000  -2.76497   0.00000  -2.76497  -3.91026
