Title t=   2.00000 step= 1000
46055
    1GLY      N    1   2.254   2.455   1.282
    1GLY    HT1    2   2.262   2.427   1.381
    1GLY    HT2    3   2.351   2.445   1.244
    1GLY    HT3    4   2.179   2.404   1.231
    1GLY     CA    5   2.211   2.608   1.275
    1GLY    HA1    6   2.130   2.623   1.345
    1GLY    HA2    7   2.186   2.640   1.175
    1GLY      C    8   2.328   2.695   1.332
    1GLY      O    9   2.426   2.643   1.374
    2PRO      N   10   2.318   2.824   1.328
    2PRO     CD   11   2.205   2.891   1.258
    2PRO    HD1   12   2.110   2.866   1.309
    2PRO    HD2   13   2.205   2.865   1.149
    2PRO     CA   14   2.414   2.918   1.378
    2PRO     HA   15   2.487   2.930   1.300
    2PRO     CB   16   2.334   3.045   1.386
    2PRO    HB1   17   2.400   3.135   1.393
    2PRO    HB2   18   2.282   3.061   1.482
    2PRO     CG   19   2.222   3.043   1.277
    2PRO    HG1   20   2.133   3.104   1.304
    2PRO    HG2   21   2.262   3.086   1.183
    2PRO      C   22   2.498   2.902   1.505
    2PRO      O   23   2.449   2.861   1.613
    3GLY      N   24   2.626   2.934   1.496
    3GLY     HN   25   2.662   2.980   1.415
    3GLY     CA   26   2.715   2.918   1.612
    3GLY    HA1   27   2.810   2.956   1.578
    3GLY    HA2   28   2.705   2.817   1.648
    3GLY      C   29   2.673   2.996   1.736
    3GLY      O   30   2.604   3.101   1.731
    4ALA      N   31   2.704   2.945   1.858
    4ALA     HN   32   2.751   2.858   1.863
    4ALA     CA   33   2.691   3.025   1.980
    4ALA     HA   34   2.588   3.054   1.997
    4ALA     CB   35   2.744   2.937   2.088
    4ALA    HB1   36   2.846   2.906   2.055
    4ALA    HB2   37   2.678   2.849   2.102
    4ALA    HB3   38   2.756   2.995   2.182
    4ALA      C   39   2.776   3.156   1.981
    4ALA      O   40   2.889   3.154   1.927
    5PRO      N   41   2.729   3.270   2.031
    5PRO     CD   42   2.603   3.290   2.097
    5PRO    HD1   43   2.571   3.201   2.154
    5PRO    HD2   44   2.536   3.301   2.009
    5PRO     CA   45   2.819   3.382   2.056
    5PRO     HA   46   2.867   3.416   1.966
    5PRO     CB   47   2.722   3.489   2.111
    5PRO    HB1   48   2.684   3.545   2.023
    5PRO    HB2   49   2.770   3.548   2.192
    5PRO     CG   50   2.616   3.414   2.189
    5PRO    HG1   51   2.661   3.388   2.287
    5PRO    HG2   52   2.513   3.454   2.191
    5PRO      C   53   2.926   3.342   2.161
    5PRO      O   54   2.901   3.260   2.244
    6GLY      N   55   3.043   3.400   2.156
    6GLY     HN   56   3.047   3.472   2.088
    6GLY     CA   57   3.148   3.388   2.250
    6GLY    HA1   58   3.225   3.452   2.210
    6GLY    HA2   59   3.163   3.281   2.255
    6GLY      C   60   3.128   3.441   2.387
    6GLY      O   61   3.018   3.478   2.433
    7PRO      N   62   3.240   3.455   2.462
    7PRO     CD   63   3.365   3.396   2.417
    7PRO    HD1   64   3.422   3.456   2.342
    7PRO    HD2   65   3.344   3.294   2.380
    7PRO     CA   66   3.242   3.490   2.604
    7PRO     HA   67   3.209   3.412   2.671
    7PRO     CB   68   3.393   3.494   2.638
    7PRO    HB1   69   3.409   3.474   2.746
    7PRO    HB2   70   3.441   3.593   2.621
    7PRO     CG   71   3.455   3.387   2.550
    7PRO    HG1   72   3.563   3.391   2.528
    7PRO    HG2   73   3.431   3.289   2.597
    7PRO      C   74   3.176   3.624   2.634
    7PRO      O   75   3.196   3.718   2.559
    8GLY      N   76   3.084   3.627   2.735
    8GLY     HN   77   3.063   3.544   2.787
    8GLY     CA   78   3.005   3.737   2.783
    8GLY    HA1   79   2.932   3.706   2.857
    8GLY    HA2   80   2.959   3.785   2.698
    8GLY      C   81   3.096   3.843   2.841
    8GLY      O   82   3.219   3.853   2.828
    9ALA      N   83   3.025   3.936   2.914
    9ALA     HN   84   2.932   3.922   2.946
    9ALA     CA   85   3.079   4.056   2.964
    9ALA     HA   86   3.163   4.086   2.902
    9ALA     CB   87   2.980   4.168   2.959
    9ALA    HB1   88   2.892   4.129   3.015
    9ALA    HB2   89   2.944   4.207   2.862
    9ALA    HB3   90   3.012   4.254   3.021
    9ALA      C   91   3.124   4.038   3.112
    9ALA      O   92   3.049   3.984   3.189
   10PRO      N   93   3.242   4.081   3.157
   10PRO     CD   94   3.333   4.157   3.076
   10PRO    HD1   95   3.290   4.216   2.992
   10PRO    HD2   96   3.413   4.092   3.034
   10PRO     CA   97   3.285   4.091   3.302
   10PRO     HA   98   3.299   3.990   3.335
   10PRO     CB   99   3.414   4.177   3.304
   10PRO    HB1  100   3.508   4.118   3.294
   10PRO    HB2  101   3.417   4.247   3.390
   10PRO     CG  102   3.393   4.258   3.175
   10PRO    HG1  103   3.319   4.340   3.179
   10PRO    HG2  104   3.490   4.296   3.137
   10PRO      C  105   3.174   4.146   3.391
   10PRO      O  106   3.111   4.240   3.345
   11GLY      N  107   3.143   4.095   3.512
   11GLY     HN  108   3.184   4.016   3.558
   11GLY     CA  109   3.058   4.176   3.603
   11GLY    HA1  110   3.051   4.123   3.697
   11GLY    HA2  111   2.967   4.200   3.549
   11GLY      C  112   3.110   4.307   3.642
   11GLY      O  113   3.228   4.335   3.618
   12PRO      N  114   3.017   4.387   3.711
   12PRO     CD  115   2.890   4.333   3.762
   12PRO    HD1  116   2.893   4.225   3.791
   12PRO    HD2  117   2.819   4.355   3.680
   12PRO     CA  118   3.062   4.507   3.775
   12PRO     HA  119   3.097   4.573   3.697
   12PRO     CB  120   2.944   4.550   3.848
   12PRO    HB1  121   2.884   4.619   3.786
   12PRO    HB2  122   2.958   4.603   3.945
   12PRO     CG  123   2.868   4.417   3.887
   12PRO    HG1  124   2.918   4.383   3.980
   12PRO    HG2  125   2.761   4.440   3.905
   12PRO      C  126   3.185   4.492   3.864
   12PRO      O  127   3.209   4.385   3.918
   13GLY      N  128   3.260   4.601   3.891
   13GLY     HN  129   3.228   4.692   3.865
   13GLY     CA  130   3.379   4.616   3.979
   13GLY    HA1  131   3.396   4.722   3.981
   13GLY    HA2  132   3.458   4.553   3.941
   13GLY      C  133   3.350   4.584   4.117
   13GLY      O  134   3.237   4.596   4.160
   14ALA      N  135   3.444   4.535   4.198
   14ALA     HN  136   3.537   4.517   4.164
   14ALA     CA  137   3.407   4.500   4.337
   14ALA     HA  138   3.312   4.452   4.323
   14ALA     CB  139   3.513   4.400   4.386
   14ALA    HB1  140   3.616   4.443   4.391
   14ALA    HB2  141   3.530   4.317   4.315
   14ALA    HB3  142   3.490   4.356   4.486
   14ALA      C  143   3.408   4.619   4.431
   14ALA      O  144   3.503   4.698   4.419
   15PRO      N  145   3.321   4.635   4.520
   15PRO     CD  146   3.204   4.551   4.532
   15PRO    HD1  147   3.232   4.453   4.577
   15PRO    HD2  148   3.172   4.520   4.431
   15PRO     CA  149   3.332   4.721   4.638
   15PRO     HA  150   3.333   4.826   4.615
   15PRO     CB  151   3.210   4.694   4.729
   15PRO    HB1  152   3.175   4.784   4.784
   15PRO    HB2  153   3.233   4.618   4.807
   15PRO     CG  154   3.111   4.635   4.625
   15PRO    HG1  155   3.024   4.577   4.663
   15PRO    HG2  156   3.071   4.718   4.564
   15PRO      C  157   3.454   4.695   4.725
   15PRO    OT1  158   3.481   4.574   4.755
   15PRO    OT2  159   3.518   4.787   4.774
   16LIT    LIT  160   5.158   5.006   2.435
   17LIT    LIT  161   2.582   4.903   4.275
   18LIT    LIT  162   5.817   5.127   6.640
   19LIT    LIT  163   5.563   5.649   2.100
   20LIT    LIT  164   3.056   6.057   3.112
   21LIT    LIT  165   8.081   4.686   2.843
   22LIT    LIT  166   0.283   7.043   3.867
   23LIT    LIT  167   6.685   4.608   4.105
   24LIT    LIT  168   5.416   6.397   2.779
   25LIT    LIT  169   4.685   0.293   6.825
   26LIT    LIT  170   6.944   2.982   3.287
   27LIT    LIT  171   6.837   3.669   1.593
   28LIT    LIT  172   8.411   5.743   5.140
   29LIT    LIT  173   4.521   2.239   2.758
   30LIT    LIT  174   3.798   4.139   1.863
   31LIT    LIT  175   6.253   2.936   5.616
   32LIT    LIT  176   1.550   4.152   4.747
   33LIT    LIT  177   4.759   7.789   2.709
   34LIT    LIT  178   1.022   5.430   0.735
   35LIT    LIT  179   8.328   0.554   4.895
   36LIT    LIT  180   7.654   6.352   6.094
   37LIT    LIT  181   1.359   5.325   1.848
   38LIT    LIT  182   8.391   6.181   1.886
   39LIT    LIT  183   4.766   0.762   4.752
   40LIT    LIT  184   0.268   6.892   5.259
   41LIT    LIT  185   2.139   1.766   4.693
   42LIT    LIT  186   6.991   5.076   1.054
   43LIT    LIT  187   8.350   6.969   1.062
   44LIT    LIT  188   4.649   7.527   0.676
   45LIT    LIT  189   7.826   6.054   2.901
   46LIT    LIT  190   0.153   4.110   2.436
   47LIT    LIT  191   1.253   0.589   0.562
   48LIT    LIT  192   0.938   6.012   2.501
   49LIT    LIT  193   0.426   0.367   6.674
   50LIT    LIT  194   3.851   5.430   2.241
   51LIT    LIT  195   3.687   7.701   0.753
   52LIT    LIT  196   7.185   1.832   5.211
   53LIT    LIT  197   5.018   6.671   4.245
   54LIT    LIT  198   4.192   2.183   5.209
   55LIT    LIT  199   3.331   0.689   3.610
   56LIT    LIT  200   6.929   5.581   2.283
   57LIT    LIT  201   6.068   7.188   6.357
   58LIT    LIT  202   3.634   4.652   4.831
   59CLA    CLA  203   3.616   4.935   1.142
   60CLA    CLA  204   3.178   5.975   3.806
   61CLA    CLA  205   4.708   6.601   2.243
   62CLA    CLA  206   3.267   7.810   4.140
   63CLA    CLA  207   1.647   6.560   2.643
   64CLA    CLA  208   3.418   5.825   5.125
   65CLA    CLA  209   0.488   3.878   6.516
   66CLA    CLA  210   1.827   5.828   0.720
   67CLA    CLA  211   6.200   5.283   4.103
   68CLA    CLA  212   7.124   4.877   2.564
   69CLA    CLA  213   5.681   6.929   4.912
   70CLA    CLA  214   4.950   0.842   0.811
   71CLA    CLA  215   8.422   3.330   2.274
   72CLA    CLA  216   7.747   5.684   5.930
   73CLA    CLA  217   8.289   5.659   4.964
   74CLA    CLA  218   5.257   7.813   1.976
   75CLA    CLA  219   5.796   5.577   5.380
   76CLA    CLA  220   0.317   3.303   1.270
   77CLA    CLA  221   4.666   2.710   4.098
   78CLA    CLA  222   7.881   1.389   5.437
   79CLA    CLA  223   6.600   5.457   0.481
   80CLA    CLA  224   7.927   5.655   1.299
   81CLA    CLA  225   1.437   2.578   1.547
   82CLA    CLA  226   4.434   4.093   2.819
   83CLA    CLA  227   7.514   7.235   3.670
   84CLA    CLA  228   8.205   5.803   2.744
   85CLA    CLA  229   0.031   6.408   2.447
   86CLA    CLA  230   1.928   7.819   0.633
   87CLA    CLA  231   2.177   0.327   5.833
   88CLA    CLA  232   6.075   5.163   2.220
   89CLA    CLA  233   4.378   3.708   0.865
   90CLA    CLA  234   4.460   6.406   0.776
   91CLA    CLA  235   2.523   4.655   6.743
   92CLA    CLA  236   5.677   5.223   1.186
   93CLA    CLA  237   4.696   1.838   4.957
   94CLA    CLA  238   6.440   7.291   5.477
   95CLA    CLA  239   2.938   1.143   1.995
   96CLA    CLA  240   6.520   2.261   3.799
   97CLA    CLA  241   1.535   2.487   4.010
   98CLA    CLA  242   5.688   4.250   6.381
   99CLA    CLA  243   0.680   4.699   2.453
  100CLA    CLA  244   0.394   4.872   0.896
  101CLA    CLA  245   1.084   0.504   0.411
  102TIP3   OH2  246   4.408   3.352   3.300
  102TIP3    H1  247   4.418   3.446   3.316
  102TIP3    H2  248   4.393   3.314   3.387
  103TIP3   OH2  249   7.485   5.702   5.021
  103TIP3    H1  250   7.524   5.644   5.087
  103TIP3    H2  251   7.425   5.758   5.071
  104TIP3   OH2  252   4.755   4.232   5.919
  104TIP3    H1  253   4.660   4.232   5.928
  104TIP3    H2  254   4.773   4.178   5.842
  105TIP3   OH2  255   6.409   2.555   0.296
  105TIP3    H1  256   6.342   2.500   0.337
  105TIP3    H2  257   6.461   2.587   0.369
  106TIP3   OH2  258   1.458   6.683   1.499
  106TIP3    H1  259   1.405   6.654   1.573
  106TIP3    H2  260   1.536   6.721   1.539
  107TIP3   OH2  261   6.066   5.816   5.954
  107TIP3    H1  262   6.015   5.897   5.955
  107TIP3    H2  263   6.157   5.846   5.961
  108TIP3   OH2  264   1.216   2.956   6.527
  108TIP3    H1  265   1.204   2.990   6.616
  108TIP3    H2  266   1.154   3.006   6.473
  109TIP3   OH2  267   5.902   6.519   4.188
  109TIP3    H1  268   5.817   6.537   4.148
  109TIP3    H2  269   5.940   6.606   4.202
  110TIP3   OH2  270   3.512   4.163   1.204
  110TIP3    H1  271   3.493   4.242   1.254
  110TIP3    H2  272   3.580   4.119   1.255
  111TIP3   OH2  273   4.151   2.160   5.578
  111TIP3    H1  274   4.084   2.093   5.585
  111TIP3    H2  275   4.121   2.231   5.635
  112TIP3   OH2  276   3.466   5.689   0.753
  112TIP3    H1  277   3.470   5.632   0.829
  112TIP3    H2  278   3.524   5.647   0.688
  113TIP3   OH2  279   3.896   6.831   1.410
  113TIP3    H1  280   3.889   6.881   1.491
  113TIP3    H2  281   3.986   6.799   1.408
  114TIP3   OH2  282   3.422   3.087   3.167
  114TIP3    H1  283   3.498   3.136   3.137
  114TIP3    H2  284   3.347   3.143   3.147
  115TIP3   OH2  285   7.879   1.287   6.186
  115TIP3    H1  286   7.817   1.263   6.255
  115TIP3    H2  287   7.874   1.382   6.181
  116TIP3   OH2  288   1.181   0.367   5.969
  116TIP3    H1  289   1.091   0.400   5.969
  116TIP3    H2  290   1.200   0.349   5.877
  117TIP3   OH2  291   3.988   2.736   6.827
  117TIP3    H1  292   3.968   2.646   6.855
  117TIP3    H2  293   4.051   2.726   6.756
  118TIP3   OH2  294   0.159   3.991   6.601
  118TIP3    H1  295   0.213   3.912   6.607
  118TIP3    H2  296   0.159   4.014   6.508
  119TIP3   OH2  297   5.813   5.194   4.772
  119TIP3    H1  298   5.888   5.219   4.718
  119TIP3    H2  299   5.769   5.125   4.722
  120TIP3   OH2  300   5.686   0.835   1.389
  120TIP3    H1  301   5.597   0.804   1.370
  120TIP3    H2  302   5.684   0.928   1.367
  121TIP3   OH2  303   1.556   6.293   4.405
  121TIP3    H1  304   1.544   6.201   4.380
  121TIP3    H2  305   1.489   6.340   4.354
  122TIP3   OH2  306   8.295   1.362   1.773
  122TIP3    H1  307   8.318   1.290   1.715
  122TIP3    H2  308   8.337   1.340   1.857
  123TIP3   OH2  309   6.404   7.620   2.803
  123TIP3    H1  310   6.392   7.525   2.792
  123TIP3    H2  311   6.317   7.657   2.785
  124TIP3   OH2  312   6.400   4.735   3.334
  124TIP3    H1  313   6.479   4.735   3.389
  124TIP3    H2  314   6.390   4.825   3.306
  125TIP3   OH2  315   1.497   2.070   0.331
  125TIP3    H1  316   1.479   2.088   0.424
  125TIP3    H2  317   1.517   2.156   0.294
  126TIP3   OH2  318   0.737   2.539   0.084
  126TIP3    H1  319   0.783   2.597   0.023
  126TIP3    H2  320   0.686   2.598   0.139
  127TIP3   OH2  321   1.567   0.368   4.729
  127TIP3    H1  322   1.483   0.378   4.773
  127TIP3    H2  323   1.612   0.451   4.745
  128TIP3   OH2  324   7.859   2.923   5.595
  128TIP3    H1  325   7.937   2.956   5.639
  128TIP3    H2  326   7.893   2.873   5.521
  129TIP3   OH2  327   6.518   7.299   3.183
  129TIP3    H1  328   6.540   7.302   3.090
  129TIP3    H2  329   6.470   7.380   3.199
  130TIP3   OH2  330   3.997   0.402   6.215
  130TIP3    H1  331   4.003   0.494   6.192
  130TIP3    H2  332   4.058   0.391   6.288
  131TIP3   OH2  333   4.739   1.243   5.751
  131TIP3    H1  334   4.644   1.245   5.755
  131TIP3    H2  335   4.766   1.218   5.839
  132TIP3   OH2  336   6.968   2.484   3.481
  132TIP3    H1  337   7.032   2.419   3.453
  132TIP3    H2  338   6.903   2.433   3.529
  133TIP3   OH2  339   6.869   0.339   1.026
  133TIP3    H1  340   6.856   0.422   0.981
  133TIP3    H2  341   6.938   0.295   0.976
  134TIP3   OH2  342   7.329   2.735   6.608
  134TIP3    H1  343   7.335   2.791   6.685
  134TIP3    H2  344   7.285   2.656   6.639
  135TIP3   OH2  345   1.547   7.824   5.544
  135TIP3    H1  346   1.543   7.768   5.621
  135TIP3    H2  347   1.584   7.906   5.576
  136TIP3   OH2  348   3.581   5.293   6.350
  136TIP3    H1  349   3.658   5.298   6.406
  136TIP3    H2  350   3.564   5.200   6.341
  137TIP3   OH2  351   7.242   5.598   2.609
  137TIP3    H1  352   7.222   5.530   2.673
  137TIP3    H2  353   7.313   5.648   2.649
  138TIP3   OH2  354   7.278   5.995   0.533
  138TIP3    H1  355   7.337   6.045   0.589
  138TIP3    H2  356   7.227   6.061   0.485
  139TIP3   OH2  357   0.246   3.215   6.343
  139TIP3    H1  358   0.229   3.271   6.419
  139TIP3    H2  359   0.341   3.209   6.338
  140TIP3   OH2  360   6.128   0.314   1.011
  140TIP3    H1  361   6.172   0.241   0.968
  140TIP3    H2  362   6.064   0.273   1.069
  141TIP3   OH2  363   2.599   1.859   5.830
  141TIP3    H1  364   2.602   1.814   5.746
  141TIP3    H2  365   2.669   1.924   5.824
  142TIP3   OH2  366   2.010   6.355   3.865
  142TIP3    H1  367   1.996   6.428   3.924
  142TIP3    H2  368   1.922   6.327   3.839
  143TIP3   OH2  369   4.156   7.498   5.995
  143TIP3    H1  370   4.107   7.568   6.037
  143TIP3    H2  371   4.124   7.418   6.037
  144TIP3   OH2  372   7.467   7.343   5.381
  144TIP3    H1  373   7.486   7.281   5.310
  144TIP3    H2  374   7.392   7.305   5.427
  145TIP3   OH2  375   2.505   4.693   4.723
  145TIP3    H1  376   2.533   4.684   4.633
  145TIP3    H2  377   2.479   4.604   4.750
  146TIP3   OH2  378   2.048   3.066   6.089
  146TIP3    H1  379   2.065   2.983   6.134
  146TIP3    H2  380   1.976   3.047   6.029
  147TIP3   OH2  381   1.463   6.621   5.261
  147TIP3    H1  382   1.412   6.692   5.223
  147TIP3    H2  383   1.455   6.634   5.356
  148TIP3   OH2  384   5.129   6.091   2.376
  148TIP3    H1  385   5.113   6.101   2.470
  148TIP3    H2  386   5.079   6.161   2.335
  149TIP3   OH2  387   3.934   4.973   1.414
  149TIP3    H1  388   3.872   5.045   1.401
  149TIP3    H2  389   3.967   4.986   1.503
  150TIP3   OH2  390   6.583   3.243   5.382
  150TIP3    H1  391   6.679   3.244   5.379
  150TIP3    H2  392   6.556   3.239   5.290
  151TIP3   OH2  393   3.725   5.292   2.557
  151TIP3    H1  394   3.642   5.285   2.509
  151TIP3    H2  395   3.749   5.201   2.577
  152TIP3   OH2  396   0.382   2.686   5.694
  152TIP3    H1  397   0.323   2.613   5.676
  152TIP3    H2  398   0.441   2.689   5.618
  153TIP3   OH2  399   7.655   2.190   0.652
  153TIP3    H1  400   7.628   2.178   0.561
  153TIP3    H2  401   7.729   2.131   0.663
  154TIP3   OH2  402   5.575   3.611   4.570
  154TIP3    H1  403   5.597   3.632   4.479
  154TIP3    H2  404   5.482   3.590   4.568
  155TIP3   OH2  405   1.580   1.911   4.643
  155TIP3    H1  406   1.514   1.932   4.577
  155TIP3    H2  407   1.534   1.919   4.726
  156TIP3   OH2  408   8.050   7.760   5.161
  156TIP3    H1  409   8.088   7.687   5.111
  156TIP3    H2  410   7.958   7.761   5.135
  157TIP3   OH2  411   7.501   7.021   1.834
  157TIP3    H1  412   7.458   6.944   1.872
  157TIP3    H2  413   7.527   7.073   1.910
  158TIP3   OH2  414   1.628   3.287   0.141
  158TIP3    H1  415   1.585   3.351   0.196
  158TIP3    H2  416   1.613   3.318   0.051
  159TIP3   OH2  417   6.036   5.605   4.875
  159TIP3    H1  418   5.980   5.543   4.923
  159TIP3    H2  419   6.081   5.654   4.944
  160TIP3   OH2  420   0.747   4.640   4.661
  160TIP3    H1  421   0.707   4.710   4.611
  160TIP3    H2  422   0.828   4.620   4.613
  161TIP3   OH2  423   2.698   7.188   3.634
  161TIP3    H1  424   2.763   7.258   3.636
  161TIP3    H2  425   2.727   7.130   3.564
  162TIP3   OH2  426   5.628   3.711   3.227
  162TIP3    H1  427   5.589   3.785   3.180
  162TIP3    H2  428   5.714   3.744   3.256
  163TIP3   OH2  429   7.238   2.341   5.675
  163TIP3    H1  430   7.319   2.294   5.657
  163TIP3    H2  431   7.172   2.273   5.685
  164TIP3   OH2  432   0.742   0.214   0.484
  164TIP3    H1  433   0.724   0.123   0.507
  164TIP3    H2  434   0.659   0.247   0.450
  165TIP3   OH2  435   1.268   2.772   1.769
  165TIP3    H1  436   1.313   2.741   1.690
  165TIP3    H2  437   1.230   2.856   1.743
  166TIP3   OH2  438   3.859   3.236   5.537
  166TIP3    H1  439   3.952   3.243   5.557
  166TIP3    H2  440   3.816   3.280   5.611
  167TIP3   OH2  441   5.889   4.933   2.851
  167TIP3    H1  442   5.852   4.999   2.910
  167TIP3    H2  443   5.925   4.866   2.910
  168TIP3   OH2  444   4.043   3.925   2.136
  168TIP3    H1  445   4.049   3.929   2.232
  168TIP3    H2  446   4.130   3.952   2.106
  169TIP3   OH2  447   0.859   5.190   2.772
  169TIP3    H1  448   0.795   5.148   2.830
  169TIP3    H2  449   0.944   5.164   2.809
  170TIP3   OH2  450   6.488   0.514   5.373
  170TIP3    H1  451   6.541   0.594   5.380
  170TIP3    H2  452   6.402   0.546   5.344
  171TIP3   OH2  453   5.184   6.805   2.477
  171TIP3    H1  454   5.099   6.761   2.466
  171TIP3    H2  455   5.168   6.895   2.448
  172TIP3   OH2  456   6.594   4.414   2.772
  172TIP3    H1  457   6.515   4.466   2.758
  172TIP3    H2  458   6.587   4.384   2.863
  173TIP3   OH2  459   5.554   2.545   3.970
  173TIP3    H1  460   5.577   2.617   3.913
  173TIP3    H2  461   5.609   2.472   3.941
  174TIP3   OH2  462   1.944   0.023   6.255
  174TIP3    H1  463   1.905   0.071   6.328
  174TIP3    H2  464   2.001  -0.042   6.296
  175TIP3   OH2  465   0.527   2.530   0.856
  175TIP3    H1  466   0.559   2.619   0.871
  175TIP3    H2  467   0.432   2.541   0.849
  176TIP3   OH2  468   2.450   1.877   2.945
  176TIP3    H1  469   2.515   1.845   2.883
  176TIP3    H2  470   2.380   1.812   2.942
  177TIP3   OH2  471   2.150   7.677   5.317
  177TIP3    H1  472   2.231   7.686   5.267
  177TIP3    H2  473   2.100   7.756   5.296
  178TIP3   OH2  474   5.024   3.544   6.067
  178TIP3    H1  475   4.936   3.581   6.064
  178TIP3    H2  476   5.031   3.507   6.156
  179TIP3   OH2  477   0.011   5.268   6.617
  179TIP3    H1  478   0.073   5.300   6.552
  179TIP3    H2  479  -0.039   5.345   6.643
  180TIP3   OH2  480   2.236   6.619   1.598
  180TIP3    H1  481   2.321   6.659   1.618
  180TIP3    H2  482   2.174   6.665   1.655
  181TIP3   OH2  483   0.179   1.913   5.733
  181TIP3    H1  484   0.222   1.833   5.762
  181TIP3    H2  485   0.086   1.894   5.736
  182TIP3   OH2  486   4.749   6.974   4.519
  182TIP3    H1  487   4.693   7.051   4.507
  182TIP3    H2  488   4.753   6.963   4.614
  183TIP3   OH2  489   1.585   6.138   1.337
  183TIP3    H1  490   1.648   6.172   1.273
  183TIP3    H2  491   1.527   6.212   1.354
  184TIP3   OH2  492   2.772   5.243   5.690
  184TIP3    H1  493   2.824   5.263   5.767
  184TIP3    H2  494   2.687   5.284   5.706
  185TIP3   OH2  495   3.448   5.056   0.751
  185TIP3    H1  496   3.406   5.055   0.665
  185TIP3    H2  497   3.389   5.007   0.807
  186TIP3   OH2  498   1.339   2.328   2.420
  186TIP3    H1  499   1.424   2.360   2.450
  186TIP3    H2  500   1.330   2.366   2.332
  187TIP3   OH2  501   8.198   6.789   6.652
  187TIP3    H1  502   8.287   6.770   6.683
  187TIP3    H2  503   8.183   6.880   6.676
  188TIP3   OH2  504   0.934   5.806   2.432
  188TIP3    H1  505   0.896   5.740   2.490
  188TIP3    H2  506   1.018   5.770   2.405
  189TIP3   OH2  507   4.390   5.373   3.863
  189TIP3    H1  508   4.306   5.328   3.848
  189TIP3    H2  509   4.365   5.459   3.898
  190TIP3   OH2  510   2.964   0.293   4.081
  190TIP3    H1  511   2.960   0.371   4.027
  190TIP3    H2  512   2.873   0.271   4.099
  191TIP3   OH2  513   3.301   3.072   4.378
  191TIP3    H1  514   3.286   3.143   4.440
  191TIP3    H2  515   3.261   3.102   4.296
  192TIP3   OH2  516   1.774   3.873   1.208
  192TIP3    H1  517   1.798   3.906   1.294
  192TIP3    H2  518   1.848   3.818   1.181
  193TIP3   OH2  519   3.623   6.292   3.423
  193TIP3    H1  520   3.647   6.262   3.511
  193TIP3    H2  521   3.637   6.216   3.367
  194TIP3   OH2  522   5.845   4.624   0.505
  194TIP3    H1  523   5.877   4.590   0.422
  194TIP3    H2  524   5.847   4.550   0.565
  195TIP3   OH2  525   1.767   1.763   3.108
  195TIP3    H1  526   1.729   1.683   3.144
  195TIP3    H2  527   1.852   1.736   3.074
  196TIP3   OH2  528   4.339   5.571   2.855
  196TIP3    H1  529   4.426   5.610   2.851
  196TIP3    H2  530   4.289   5.617   2.788
  197TIP3   OH2  531   2.986   2.624   2.740
  197TIP3    H1  532   2.915   2.605   2.679
  197TIP3    H2  533   3.061   2.576   2.705
  198TIP3   OH2  534   4.962   6.825   6.561
  198TIP3    H1  535   4.903   6.870   6.500
  198TIP3    H2  536   4.903   6.787   6.627
  199TIP3   OH2  537   7.516   4.920   0.346
  199TIP3    H1  538   7.469   4.837   0.346
  199TIP3    H2  539   7.511   4.951   0.256
  200TIP3   OH2  540   3.867   0.938   4.092
  200TIP3    H1  541   3.821   0.943   4.175
  200TIP3    H2  542   3.952   0.978   4.109
  201TIP3   OH2  543   5.977   6.973   0.645
  201TIP3    H1  544   5.947   6.920   0.571
  201TIP3    H2  545   5.972   6.915   0.720
  202TIP3   OH2  546   5.905   6.055   5.943
  202TIP3    H1  547   5.860   6.030   5.862
  202TIP3    H2  548   5.966   6.123   5.916
  203TIP3   OH2  549   6.371   7.536   4.887
  203TIP3    H1  550   6.406   7.486   4.960
  203TIP3    H2  551   6.396   7.485   4.809
  204TIP3   OH2  552   1.564   1.079   4.176
  204TIP3    H1  553   1.548   1.165   4.215
  204TIP3    H2  554   1.645   1.090   4.126
  205TIP3   OH2  555   1.155   3.959   5.979
  205TIP3    H1  556   1.062   3.953   5.956
  205TIP3    H2  557   1.164   3.902   6.056
  206TIP3   OH2  558   4.091   7.055   4.321
  206TIP3    H1  559   4.150   7.015   4.385
  206TIP3    H2  560   4.073   7.143   4.356
  207TIP3   OH2  561   6.773   2.128   4.935
  207TIP3    H1  562   6.720   2.170   4.868
  207TIP3    H2  563   6.806   2.200   4.989
  208TIP3   OH2  564   2.787   5.218   6.428
  208TIP3    H1  565   2.819   5.128   6.421
  208TIP3    H2  566   2.741   5.220   6.513
  209TIP3   OH2  567   1.954   1.670   0.445
  209TIP3    H1  568   2.036   1.708   0.414
  209TIP3    H2  569   1.908   1.742   0.486
  210TIP3   OH2  570   5.010   0.518   1.730
  210TIP3    H1  571   5.074   0.450   1.707
  210TIP3    H2  572   4.926   0.472   1.734
  211TIP3   OH2  573   8.011   5.590   3.665
  211TIP3    H1  574   8.102   5.579   3.639
  211TIP3    H2  575   8.006   5.680   3.699
  212TIP3   OH2  576   0.079   4.991   5.287
  212TIP3    H1  577   0.035   4.952   5.211
  212TIP3    H2  578   0.118   4.917   5.333
  213TIP3   OH2  579   7.495   6.010   6.366
  213TIP3    H1  580   7.530   5.992   6.453
  213TIP3    H2  581   7.546   6.084   6.335
  214TIP3   OH2  582   1.929   4.612   2.757
  214TIP3    H1  583   1.953   4.522   2.781
  214TIP3    H2  584   2.008   4.663   2.771
  215TIP3   OH2  585   0.358   3.576   3.421
  215TIP3    H1  586   0.377   3.568   3.328
  215TIP3    H2  587   0.269   3.543   3.432
  216TIP3   OH2  588   6.685   1.698   4.450
  216TIP3    H1  589   6.728   1.734   4.528
  216TIP3    H2  590   6.685   1.771   4.388
  217TIP3   OH2  591   5.571   4.463   1.722
  217TIP3    H1  592   5.592   4.395   1.786
  217TIP3    H2  593   5.479   4.450   1.703
  218TIP3   OH2  594   4.427   0.528   0.435
  218TIP3    H1  595   4.404   0.595   0.499
  218TIP3    H2  596   4.471   0.460   0.486
  219TIP3   OH2  597   7.109   3.476   4.555
  219TIP3    H1  598   7.200   3.451   4.573
  219TIP3    H2  599   7.073   3.402   4.506
  220TIP3   OH2  600   2.160   1.382   3.394
  220TIP3    H1  601   2.116   1.387   3.479
  220TIP3    H2  602   2.252   1.365   3.416
  221TIP3   OH2  603   3.866   6.262   4.448
  221TIP3    H1  604   3.838   6.316   4.522
  221TIP3    H2  605   3.937   6.312   4.407
  222TIP3   OH2  606   8.219   5.983   3.168
  222TIP3    H1  607   8.190   6.067   3.203
  222TIP3    H2  608   8.213   5.923   3.242
  223TIP3   OH2  609   5.667   6.286   1.153
  223TIP3    H1  610   5.659   6.246   1.067
  223TIP3    H2  611   5.760   6.277   1.175
  224TIP3   OH2  612   4.310   2.664   5.038
  224TIP3    H1  613   4.349   2.712   5.111
  224TIP3    H2  614   4.385   2.628   4.990
  225TIP3   OH2  615   3.126   1.007   4.966
  225TIP3    H1  616   3.053   1.069   4.970
  225TIP3    H2  617   3.203   1.061   4.950
  226TIP3   OH2  618   2.281   6.256   4.343
  226TIP3    H1  619   2.188   6.240   4.332
  226TIP3    H2  620   2.315   6.176   4.382
  227TIP3   OH2  621   4.852   7.569   2.283
  227TIP3    H1  622   4.826   7.595   2.372
  227TIP3    H2  623   4.863   7.651   2.236
  228TIP3   OH2  624   4.454   0.986   1.851
  228TIP3    H1  625   4.501   0.937   1.783
  228TIP3    H2  626   4.369   1.006   1.811
  229TIP3   OH2  627   4.226   1.404   0.553
  229TIP3    H1  628   4.182   1.434   0.633
  229TIP3    H2  629   4.314   1.377   0.583
  230TIP3   OH2  630   2.370   4.242   0.389
  230TIP3    H1  631   2.363   4.249   0.484
  230TIP3    H2  632   2.326   4.321   0.356
  231TIP3   OH2  633   0.297   0.714   6.433
  231TIP3    H1  634   0.357   0.788   6.422
  231TIP3    H2  635   0.263   0.723   6.522
  232TIP3   OH2  636   8.148   7.517   5.077
  232TIP3    H1  637   8.210   7.485   5.012
  232TIP3    H2  638   8.178   7.480   5.160
  233TIP3   OH2  639   4.930   4.596   0.404
  233TIP3    H1  640   4.877   4.599   0.324
  233TIP3    H2  641   5.020   4.581   0.373
  234TIP3   OH2  642   4.026   2.939   0.427
  234TIP3    H1  643   3.941   2.967   0.393
  234TIP3    H2  644   4.045   2.859   0.379
  235TIP3   OH2  645   7.156   2.777   3.898
  235TIP3    H1  646   7.145   2.750   3.808
  235TIP3    H2  647   7.232   2.836   3.896
  236TIP3   OH2  648   6.425   3.335   3.405
  236TIP3    H1  649   6.460   3.413   3.363
  236TIP3    H2  650   6.355   3.368   3.462
  237TIP3   OH2  651   3.263   1.888   3.592
  237TIP3    H1  652   3.175   1.897   3.557
  237TIP3    H2  653   3.251   1.886   3.687
  238TIP3   OH2  654   2.322   7.483   1.732
  238TIP3    H1  655   2.389   7.427   1.770
  238TIP3    H2  656   2.315   7.557   1.792
  239TIP3   OH2  657   3.980   6.178   5.804
  239TIP3    H1  658   4.036   6.252   5.830
  239TIP3    H2  659   4.040   6.116   5.763
  240TIP3   OH2  660   4.879   2.500   4.193
  240TIP3    H1  661   4.964   2.540   4.174
  240TIP3    H2  662   4.817   2.572   4.183
  241TIP3   OH2  663   4.014   6.409   1.846
  241TIP3    H1  664   3.967   6.342   1.796
  241TIP3    H2  665   3.951   6.480   1.856
  242TIP3   OH2  666   5.610   2.720   3.120
  242TIP3    H1  667   5.702   2.734   3.098
  242TIP3    H2  668   5.580   2.804   3.152
  243TIP3   OH2  669   0.888   3.231   4.484
  243TIP3    H1  670   0.848   3.167   4.543
  243TIP3    H2  671   0.889   3.189   4.399
  244TIP3   OH2  672   4.188   1.534   3.389
  244TIP3    H1  673   4.215   1.624   3.406
  244TIP3    H2  674   4.133   1.510   3.464
  245TIP3   OH2  675   1.861   7.278   0.198
  245TIP3    H1  676   1.800   7.236   0.259
  245TIP3    H2  677   1.917   7.207   0.167
  246TIP3   OH2  678   3.474   0.173   5.366
  246TIP3    H1  679   3.527   0.094   5.355
  246TIP3    H2  680   3.414   0.173   5.291
  247TIP3   OH2  681   6.133   4.212   1.975
  247TIP3    H1  682   6.165   4.293   2.015
  247TIP3    H2  683   6.196   4.193   1.906
  248TIP3   OH2  684   3.031   5.080   1.955
  248TIP3    H1  685   2.942   5.096   1.988
  248TIP3    H2  686   3.029   4.991   1.922
  249TIP3   OH2  687   4.728   7.850   4.011
  249TIP3    H1  688   4.746   7.880   4.100
  249TIP3    H2  689   4.635   7.826   4.012
  250TIP3   OH2  690   8.195   5.075   5.358
  250TIP3    H1  691   8.286   5.054   5.337
  250TIP3    H2  692   8.169   5.007   5.421
  251TIP3   OH2  693   4.082   1.739   5.404
  251TIP3    H1  694   4.169   1.779   5.402
  251TIP3    H2  695   4.042   1.765   5.321
  252TIP3   OH2  696   5.112   5.093   3.541
  252TIP3    H1  697   5.092   5.186   3.545
  252TIP3    H2  698   5.065   5.056   3.616
  253TIP3   OH2  699   4.952   1.056   1.972
  253TIP3    H1  700   4.952   1.124   1.905
  253TIP3    H2  701   5.040   1.019   1.969
  254TIP3   OH2  702   4.450   1.923   0.962
  254TIP3    H1  703   4.489   1.935   0.875
  254TIP3    H2  704   4.521   1.889   1.015
  255TIP3   OH2  705   5.038   1.559   5.021
  255TIP3    H1  706   5.013   1.625   4.957
  255TIP3    H2  707   4.956   1.515   5.044
  256TIP3   OH2  708   4.812   7.865   5.867
  256TIP3    H1  709   4.852   7.797   5.922
  256TIP3    H2  710   4.817   7.830   5.778
  257TIP3   OH2  711   0.283   2.132   2.884
  257TIP3    H1  712   0.362   2.087   2.915
  257TIP3    H2  713   0.300   2.146   2.790
  258TIP3   OH2  714   0.109   2.521   4.838
  258TIP3    H1  715   0.050   2.596   4.844
  258TIP3    H2  716   0.112   2.486   4.927
  259TIP3   OH2  717   3.802   5.073   4.787
  259TIP3    H1  718   3.716   5.095   4.749
  259TIP3    H2  719   3.842   5.158   4.806
  260TIP3   OH2  720   3.479   7.365   2.352
  260TIP3    H1  721   3.447   7.278   2.330
  260TIP3    H2  722   3.497   7.406   2.267
  261TIP3   OH2  723   3.841   1.280   5.279
  261TIP3    H1  724   3.801   1.204   5.320
  261TIP3    H2  725   3.812   1.277   5.188
  262TIP3   OH2  726   4.560   6.602   6.181
  262TIP3    H1  727   4.484   6.659   6.194
  262TIP3    H2  728   4.618   6.622   6.255
  263TIP3   OH2  729   6.529   4.442   3.096
  263TIP3    H1  730   6.531   4.530   3.059
  263TIP3    H2  731   6.596   4.394   3.048
  264TIP3   OH2  732   6.661   7.640   4.849
  264TIP3    H1  733   6.741   7.613   4.893
  264TIP3    H2  734   6.601   7.662   4.920
  265TIP3   OH2  735   6.608   2.663   2.609
  265TIP3    H1  736   6.690   2.647   2.562
  265TIP3    H2  737   6.635   2.675   2.700
  266TIP3   OH2  738   1.848   0.202   0.426
  266TIP3    H1  739   1.777   0.238   0.372
  266TIP3    H2  740   1.849   0.257   0.504
  267TIP3   OH2  741   1.566   0.767   3.889
  267TIP3    H1  742   1.612   0.828   3.832
  267TIP3    H2  743   1.635   0.724   3.939
  268TIP3   OH2  744   2.286   6.762   3.576
  268TIP3    H1  745   2.342   6.695   3.538
  268TIP3    H2  746   2.306   6.841   3.525
  269TIP3   OH2  747   3.844   3.688   5.543
  269TIP3    H1  748   3.881   3.775   5.530
  269TIP3    H2  749   3.789   3.673   5.466
  270TIP3   OH2  750   7.082   4.828   0.117
  270TIP3    H1  751   7.100   4.898   0.054
  270TIP3    H2  752   7.161   4.774   0.117
  271TIP3   OH2  753   3.183   2.224   2.849
  271TIP3    H1  754   3.119   2.172   2.898
  271TIP3    H2  755   3.262   2.221   2.901
  272TIP3   OH2  756   3.066   3.626   1.912
  272TIP3    H1  757   3.075   3.550   1.854
  272TIP3    H2  758   3.155   3.644   1.941
  273TIP3   OH2  759   5.087   6.853   0.702
  273TIP3    H1  760   5.059   6.916   0.636
  273TIP3    H2  761   5.183   6.850   0.693
  274TIP3   OH2  762   3.240   0.244   6.755
  274TIP3    H1  763   3.229   0.149   6.745
  274TIP3    H2  764   3.255   0.275   6.666
  275TIP3   OH2  765   3.459   0.948   2.260
  275TIP3    H1  766   3.461   0.917   2.170
  275TIP3    H2  767   3.478   0.870   2.312
  276TIP3   OH2  768   0.737   7.327   2.521
  276TIP3    H1  769   0.725   7.233   2.531
  276TIP3    H2  770   0.675   7.352   2.452
  277TIP3   OH2  771   7.953   4.315   3.684
  277TIP3    H1  772   7.896   4.348   3.754
  277TIP3    H2  773   8.012   4.254   3.728
  278TIP3   OH2  774   7.017   4.740   3.438
  278TIP3    H1  775   7.067   4.822   3.431
  278TIP3    H2  776   7.025   4.700   3.351
  279TIP3   OH2  777   8.072   3.495   0.491
  279TIP3    H1  778   8.029   3.430   0.435
  279TIP3    H2  779   8.095   3.446   0.570
  280TIP3   OH2  780   7.463   4.156   4.311
  280TIP3    H1  781   7.508   4.136   4.228
  280TIP3    H2  782   7.372   4.132   4.294
  281TIP3   OH2  783   1.395   2.884   3.830
  281TIP3    H1  784   1.445   2.959   3.799
  281TIP3    H2  785   1.451   2.843   3.896
  282TIP3   OH2  786   6.471   0.726   4.213
  282TIP3    H1  787   6.517   0.768   4.140
  282TIP3    H2  788   6.476   0.789   4.285
  283TIP3   OH2  789   0.109   1.934   6.093
  283TIP3    H1  790   0.023   1.894   6.080
  283TIP3    H2  791   0.171   1.864   6.076
  284TIP3   OH2  792   0.068   0.197   4.739
  284TIP3    H1  793   0.144   0.149   4.773
  284TIP3    H2  794   0.009   0.129   4.707
  285TIP3   OH2  795   2.060   7.523   0.437
  285TIP3    H1  796   2.039   7.599   0.491
  285TIP3    H2  797   2.114   7.558   0.366
  286TIP3   OH2  798   1.898   4.511   6.291
  286TIP3    H1  799   1.978   4.515   6.342
  286TIP3    H2  800   1.844   4.447   6.336
  287TIP3   OH2  801   1.225   7.316   5.553
  287TIP3    H1  802   1.180   7.280   5.630
  287TIP3    H2  803   1.191   7.405   5.544
  288TIP3   OH2  804   8.097   5.318   5.229
  288TIP3    H1  805   8.185   5.280   5.237
  288TIP3    H2  806   8.038   5.249   5.259
  289TIP3   OH2  807   2.918   0.397   2.712
  289TIP3    H1  808   2.973   0.474   2.702
  289TIP3    H2  809   2.966   0.327   2.668
  290TIP3   OH2  810   3.561   3.394   3.208
  290TIP3    H1  811   3.537   3.372   3.118
  290TIP3    H2  812   3.611   3.475   3.201
  291TIP3   OH2  813   6.362   2.238   0.524
  291TIP3    H1  814   6.347   2.152   0.486
  291TIP3    H2  815   6.306   2.297   0.474
  292TIP3   OH2  816   4.399   6.605   2.194
  292TIP3    H1  817   4.348   6.530   2.226
  292TIP3    H2  818   4.489   6.587   2.223
  293TIP3   OH2  819   6.503   5.436   5.445
  293TIP3    H1  820   6.563   5.378   5.492
  293TIP3    H2  821   6.552   5.517   5.433
  294TIP3   OH2  822   1.933   1.406   0.585
  294TIP3    H1  823   1.954   1.370   0.499
  294TIP3    H2  824   1.920   1.500   0.569
  295TIP3   OH2  825   2.339   4.068   1.164
  295TIP3    H1  826   2.406   4.091   1.100
  295TIP3    H2  827   2.298   4.151   1.187
  296TIP3   OH2  828   0.640   1.113   4.503
  296TIP3    H1  829   0.557   1.160   4.506
  296TIP3    H2  830   0.660   1.094   4.595
  297TIP3   OH2  831   0.737   5.225   3.015
  297TIP3    H1  832   0.810   5.288   3.015
  297TIP3    H2  833   0.663   5.275   3.050
  298TIP3   OH2  834   5.725   2.441   5.830
  298TIP3    H1  835   5.767   2.363   5.792
  298TIP3    H2  836   5.784   2.513   5.808
  299TIP3   OH2  837   3.322   0.203   2.699
  299TIP3    H1  838   3.283   0.127   2.742
  299TIP3    H2  839   3.287   0.202   2.610
  300TIP3   OH2  840   5.198   0.420   0.007
  300TIP3    H1  841   5.281   0.449   0.046
  300TIP3    H2  842   5.206   0.325   0.003
  301TIP3   OH2  843   5.955   4.467   6.291
  301TIP3    H1  844   5.967   4.561   6.298
  301TIP3    H2  845   5.861   4.456   6.273
  302TIP3   OH2  846   0.815   4.727   6.493
  302TIP3    H1  847   0.885   4.741   6.558
  302TIP3    H2  848   0.850   4.659   6.435
  303TIP3   OH2  849   0.100   3.413   0.029
  303TIP3    H1  850   0.190   3.420   0.061
  303TIP3    H2  851   0.097   3.471  -0.047
  304TIP3   OH2  852   1.945   6.338   1.986
  304TIP3    H1  853   2.011   6.351   2.054
  304TIP3    H2  854   1.925   6.426   1.955
  305TIP3   OH2  855   3.159   3.840   0.566
  305TIP3    H1  856   3.215   3.874   0.636
  305TIP3    H2  857   3.070   3.867   0.591
  306TIP3   OH2  858   4.378   3.162   4.825
  306TIP3    H1  859   4.438   3.206   4.885
  306TIP3    H2  860   4.351   3.083   4.871
  307TIP3   OH2  861   2.157   5.581   0.561
  307TIP3    H1  862   2.212   5.627   0.497
  307TIP3    H2  863   2.088   5.541   0.508
  308TIP3   OH2  864   1.262   2.689   1.325
  308TIP3    H1  865   1.329   2.729   1.268
  308TIP3    H2  866   1.313   2.642   1.392
  309TIP3   OH2  867   4.694   2.957   2.113
  309TIP3    H1  868   4.604   2.936   2.139
  309TIP3    H2  869   4.746   2.941   2.191
  310TIP3   OH2  870   6.766   1.023   1.835
  310TIP3    H1  871   6.811   1.092   1.884
  310TIP3    H2  872   6.737   0.961   1.901
  311TIP3   OH2  873   1.353   5.905   6.570
  311TIP3    H1  874   1.427   5.896   6.509
  311TIP3    H2  875   1.277   5.874   6.520
  312TIP3   OH2  876   6.924   2.151   2.586
  312TIP3    H1  877   7.012   2.156   2.623
  312TIP3    H2  878   6.938   2.125   2.495
  313TIP3   OH2  879   7.190   4.520   0.958
  313TIP3    H1  880   7.284   4.524   0.937
  313TIP3    H2  881   7.158   4.444   0.909
  314TIP3   OH2  882   4.469   3.560   6.470
  314TIP3    H1  883   4.540   3.589   6.414
  314TIP3    H2  884   4.394   3.612   6.443
  315TIP3   OH2  885   4.773   4.669   5.753
  315TIP3    H1  886   4.680   4.688   5.740
  315TIP3    H2  887   4.778   4.631   5.841
  316TIP3   OH2  888   5.444   5.230   5.175
  316TIP3    H1  889   5.515   5.237   5.112
  316TIP3    H2  890   5.465   5.293   5.244
  317TIP3   OH2  891   3.451   1.503   2.094
  317TIP3    H1  892   3.471   1.427   2.040
  317TIP3    H2  893   3.537   1.540   2.116
  318TIP3   OH2  894   2.346   2.220   6.220
  318TIP3    H1  895   2.290   2.290   6.252
  318TIP3    H2  896   2.295   2.140   6.236
  319TIP3   OH2  897   0.855   6.457   1.611
  319TIP3    H1  898   0.925   6.476   1.548
  319TIP3    H2  899   0.779   6.504   1.578
  320TIP3   OH2  900   1.263   6.285   1.747
  320TIP3    H1  901   1.217   6.325   1.821
  320TIP3    H2  902   1.196   6.237   1.699
  321TIP3   OH2  903   6.258   5.579   6.096
  321TIP3    H1  904   6.183   5.527   6.126
  321TIP3    H2  905   6.296   5.527   6.025
  322TIP3   OH2  906   5.482   3.742   2.255
  322TIP3    H1  907   5.460   3.739   2.348
  322TIP3    H2  908   5.490   3.835   2.235
  323TIP3   OH2  909   4.183   3.375   4.363
  323TIP3    H1  910   4.252   3.440   4.374
  323TIP3    H2  911   4.200   3.337   4.276
  324TIP3   OH2  912   2.524   2.357   2.138
  324TIP3    H1  913   2.613   2.325   2.151
  324TIP3    H2  914   2.499   2.327   2.051
  325TIP3   OH2  915   1.095   3.293   1.302
  325TIP3    H1  916   1.096   3.342   1.220
  325TIP3    H2  917   1.003   3.292   1.328
  326TIP3   OH2  918   1.216   0.236   5.725
  326TIP3    H1  919   1.262   0.152   5.721
  326TIP3    H2  920   1.123   0.212   5.721
  327TIP3   OH2  921   1.803   6.456   1.317
  327TIP3    H1  922   1.743   6.527   1.341
  327TIP3    H2  923   1.753   6.402   1.256
  328TIP3   OH2  924   3.180   4.775   6.540
  328TIP3    H1  925   3.142   4.810   6.620
  328TIP3    H2  926   3.117   4.710   6.510
  329TIP3   OH2  927   3.942   6.901   2.966
  329TIP3    H1  928   3.966   6.895   2.874
  329TIP3    H2  929   4.011   6.954   3.005
  330TIP3   OH2  930   8.215   6.052   5.905
  330TIP3    H1  931   8.187   6.067   5.995
  330TIP3    H2  932   8.208   5.958   5.892
  331TIP3   OH2  933   2.006   7.514   4.071
  331TIP3    H1  934   2.006   7.535   3.977
  331TIP3    H2  935   1.932   7.455   4.082
  332TIP3   OH2  936   2.242   7.681   6.677
  332TIP3    H1  937   2.265   7.593   6.709
  332TIP3    H2  938   2.223   7.668   6.585
  333TIP3   OH2  939   6.213   7.447   4.095
  333TIP3    H1  940   6.175   7.471   4.179
  333TIP3    H2  941   6.279   7.381   4.116
  334TIP3   OH2  942   0.394   4.653   2.474
  334TIP3    H1  943   0.488   4.671   2.475
  334TIP3    H2  944   0.362   4.685   2.558
  335TIP3   OH2  945   4.854   1.154   5.979
  335TIP3    H1  946   4.838   1.170   6.072
  335TIP3    H2  947   4.949   1.151   5.971
  336TIP3   OH2  948   5.532   1.480   2.541
  336TIP3    H1  949   5.481   1.465   2.620
  336TIP3    H2  950   5.612   1.523   2.572
  337TIP3   OH2  951   7.170   1.142   2.848
  337TIP3    H1  952   7.137   1.053   2.860
  337TIP3    H2  953   7.097   1.198   2.874
  338TIP3   OH2  954   4.881   3.257   0.737
  338TIP3    H1  955   4.910   3.175   0.777
  338TIP3    H2  956   4.891   3.323   0.806
  339TIP3   OH2  957   4.257   4.972   3.709
  339TIP3    H1  958   4.342   5.009   3.732
  339TIP3    H2  959   4.206   4.976   3.789
  340TIP3   OH2  960   7.278   6.114   5.256
  340TIP3    H1  961   7.302   6.175   5.325
  340TIP3    H2  962   7.183   6.125   5.246
  341TIP3   OH2  963   6.538   6.196   3.073
  341TIP3    H1  964   6.556   6.123   3.133
  341TIP3    H2  965   6.605   6.188   3.004
  342TIP3   OH2  966   4.328   6.661   3.777
  342TIP3    H1  967   4.363   6.748   3.796
  342TIP3    H2  968   4.326   6.616   3.862
  343TIP3   OH2  969   6.727   4.378   0.969
  343TIP3    H1  970   6.807   4.423   0.941
  343TIP3    H2  971   6.748   4.343   1.056
  344TIP3   OH2  972   2.561   3.811   2.025
  344TIP3    H1  973   2.610   3.857   2.094
  344TIP3    H2  974   2.627   3.759   1.980
  345TIP3   OH2  975   3.528   0.842   4.959
  345TIP3    H1  976   3.435   0.820   4.968
  345TIP3    H2  977   3.530   0.936   4.942
  346TIP3   OH2  978   5.899   5.281   5.837
  346TIP3    H1  979   5.822   5.260   5.890
  346TIP3    H2  980   5.866   5.338   5.768
  347TIP3   OH2  981   3.181   1.237   6.667
  347TIP3    H1  982   3.272   1.262   6.656
  347TIP3    H2  983   3.131   1.314   6.639
  348TIP3   OH2  984   2.212   7.196   5.249
  348TIP3    H1  985   2.170   7.280   5.231
  348TIP3    H2  986   2.254   7.208   5.334
  349TIP3   OH2  987   5.529   2.972   5.251
  349TIP3    H1  988   5.468   2.940   5.185
  349TIP3    H2  989   5.579   2.894   5.278
  350TIP3   OH2  990   2.849   2.368   5.444
  350TIP3    H1  991   2.925   2.310   5.434
  350TIP3    H2  992   2.841   2.411   5.359
  351TIP3   OH2  993   2.202   0.836   3.378
  351TIP3    H1  994   2.224   0.909   3.320
  351TIP3    H2  995   2.123   0.797   3.339
  352TIP3   OH2  996   4.154   6.349   2.776
  352TIP3    H1  997   4.182   6.373   2.688
  352TIP3    H2  998   4.060   6.330   2.767
  353TIP3   OH2  999   6.475   6.688   2.171
  353TIP3    H1 1000   6.421   6.667   2.094
  353TIP3    H2 1001   6.421   6.662   2.246
  354TIP3   OH2 1002   7.630   0.453   4.823
  354TIP3    H1 1003   7.605   0.447   4.915
  354TIP3    H2 1004   7.552   0.430   4.774
  355TIP3   OH2 1005   1.689   7.790   4.944
  355TIP3    H1 1006   1.720   7.701   4.927
  355TIP3    H2 1007   1.597   7.789   4.920
  356TIP3   OH2 1008   6.992   6.041   6.447
  356TIP3    H1 1009   6.943   6.034   6.529
  356TIP3    H2 1010   7.077   6.076   6.473
  357TIP3   OH2 1011   4.890   5.442   0.923
  357TIP3    H1 1012   4.801   5.424   0.893
  357TIP3    H2 1013   4.884   5.444   1.018
  358TIP3   OH2 1014   6.606   5.204   0.329
  358TIP3    H1 1015   6.699   5.202   0.351
  358TIP3    H2 1016   6.572   5.282   0.372
  359TIP3   OH2 1017   2.385   1.553   1.440
  359TIP3    H1 1018   2.365   1.640   1.405
  359TIP3    H2 1019   2.361   1.559   1.533
  360TIP3   OH2 1020   3.089   1.901   4.270
  360TIP3    H1 1021   3.018   1.962   4.250
  360TIP3    H2 1022   3.169   1.950   4.250
  361TIP3   OH2 1023   1.357   5.719   6.007
  361TIP3    H1 1024   1.295   5.703   5.935
  361TIP3    H2 1025   1.303   5.753   6.078
  362TIP3   OH2 1026   4.392   6.081   3.183
  362TIP3    H1 1027   4.415   6.043   3.098
  362TIP3    H2 1028   4.431   6.168   3.181
  363TIP3   OH2 1029   1.303   1.129   3.740
  363TIP3    H1 1030   1.257   1.058   3.697
  363TIP3    H2 1031   1.394   1.121   3.710
  364TIP3   OH2 1032   1.212   3.422   6.612
  364TIP3    H1 1033   1.267   3.495   6.583
  364TIP3    H2 1034   1.245   3.400   6.699
  365TIP3   OH2 1035   3.628   2.951   3.759
  365TIP3    H1 1036   3.533   2.949   3.771
  365TIP3    H2 1037   3.663   2.952   3.847
  366TIP3   OH2 1038   7.742   1.273   3.994
  366TIP3    H1 1039   7.754   1.205   3.927
  366TIP3    H2 1040   7.781   1.352   3.955
  367TIP3   OH2 1041   3.679   7.481   2.524
  367TIP3    H1 1042   3.601   7.453   2.476
  367TIP3    H2 1043   3.727   7.536   2.462
  368TIP3   OH2 1044   1.427   6.065   0.690
  368TIP3    H1 1045   1.371   6.068   0.768
  368TIP3    H2 1046   1.375   6.109   0.623
  369TIP3   OH2 1047   7.225   7.410   4.693
  369TIP3    H1 1048   7.191   7.460   4.767
  369TIP3    H2 1049   7.272   7.475   4.641
  370TIP3   OH2 1050   5.368   4.894   1.367
  370TIP3    H1 1051   5.348   4.949   1.443
  370TIP3    H2 1052   5.314   4.930   1.296
  371TIP3   OH2 1053   1.935   4.425   3.655
  371TIP3    H1 1054   1.942   4.358   3.587
  371TIP3    H2 1055   1.871   4.389   3.718
  372TIP3   OH2 1056   3.334   1.931   5.858
  372TIP3    H1 1057   3.297   1.991   5.922
  372TIP3    H2 1058   3.332   1.979   5.775
  373TIP3   OH2 1059   8.075   7.773   0.438
  373TIP3    H1 1060   8.132   7.789   0.363
  373TIP3    H2 1061   7.997   7.825   0.421
  374TIP3   OH2 1062   4.099   6.749   2.409
  374TIP3    H1 1063   4.010   6.780   2.397
  374TIP3    H2 1064   4.103   6.667   2.361
  375TIP3   OH2 1065   2.935   7.013   3.181
  375TIP3    H1 1066   2.909   6.997   3.091
  375TIP3    H2 1067   3.009   7.073   3.174
  376TIP3   OH2 1068   3.981   6.636   0.236
  376TIP3    H1 1069   3.984   6.636   0.332
  376TIP3    H2 1070   3.906   6.580   0.215
  377TIP3   OH2 1071   7.692   4.984   1.499
  377TIP3    H1 1072   7.610   4.982   1.449
  377TIP3    H2 1073   7.712   4.892   1.515
  378TIP3   OH2 1074   4.236   6.561   6.731
  378TIP3    H1 1075   4.152   6.569   6.685
  378TIP3    H2 1076   4.299   6.543   6.661
  379TIP3   OH2 1077   2.667   7.538   1.709
  379TIP3    H1 1078   2.636   7.526   1.799
  379TIP3    H2 1079   2.761   7.521   1.712
  380TIP3   OH2 1080   4.003   6.302   1.529
  380TIP3    H1 1081   4.008   6.365   1.457
  380TIP3    H2 1082   4.094   6.279   1.548
  381TIP3   OH2 1083   6.364   3.936   2.343
  381TIP3    H1 1084   6.382   4.008   2.282
  381TIP3    H2 1085   6.396   3.858   2.297
  382TIP3   OH2 1086   5.944   0.417   3.407
  382TIP3    H1 1087   5.852   0.397   3.423
  382TIP3    H2 1088   5.985   0.412   3.493
  383TIP3   OH2 1089   1.297   4.944   4.705
  383TIP3    H1 1090   1.356   4.966   4.777
  383TIP3    H2 1091   1.325   4.856   4.678
  384TIP3   OH2 1092   7.951   6.450   0.382
  384TIP3    H1 1093   7.908   6.518   0.433
  384TIP3    H2 1094   7.901   6.446   0.301
  385TIP3   OH2 1095   6.781   3.214   3.996
  385TIP3    H1 1096   6.831   3.145   3.953
  385TIP3    H2 1097   6.784   3.288   3.936
  386TIP3   OH2 1098   2.336   2.195   0.952
  386TIP3    H1 1099   2.262   2.239   0.910
  386TIP3    H2 1100   2.405   2.196   0.886
  387TIP3   OH2 1101   3.623   6.475   2.064
  387TIP3    H1 1102   3.544   6.467   2.011
  387TIP3    H2 1103   3.611   6.412   2.135
  388TIP3   OH2 1104   5.539   7.523   1.262
  388TIP3    H1 1105   5.608   7.497   1.202
  388TIP3    H2 1106   5.571   7.499   1.349
  389TIP3   OH2 1107   3.012   6.139   2.941
  389TIP3    H1 1108   3.079   6.141   2.873
  389TIP3    H2 1109   2.930   6.154   2.894
  390TIP3   OH2 1110   7.717   4.655   3.965
  390TIP3    H1 1111   7.657   4.712   3.917
  390TIP3    H2 1112   7.748   4.709   4.037
  391TIP3   OH2 1113   7.619   4.428   0.245
  391TIP3    H1 1114   7.636   4.514   0.206
  391TIP3    H2 1115   7.523   4.420   0.246
  392TIP3   OH2 1116   2.987   4.666   5.920
  392TIP3    H1 1117   3.031   4.732   5.974
  392TIP3    H2 1118   2.903   4.706   5.898
  393TIP3   OH2 1119   5.047   7.181   5.794
  393TIP3    H1 1120   5.090   7.266   5.806
  393TIP3    H2 1121   5.096   7.140   5.722
  394TIP3   OH2 1122   3.946   6.393   5.046
  394TIP3    H1 1123   4.005   6.327   5.083
  394TIP3    H2 1124   3.941   6.462   5.112
  395TIP3   OH2 1125   4.960   1.647   2.390
  395TIP3    H1 1126   5.023   1.643   2.318
  395TIP3    H2 1127   5.003   1.602   2.463
  396TIP3   OH2 1128   0.403   7.039   2.515
  396TIP3    H1 1129   0.479   7.019   2.460
  396TIP3    H2 1130   0.440   7.058   2.601
  397TIP3   OH2 1131   0.558   4.080   2.370
  397TIP3    H1 1132   0.612   4.043   2.301
  397TIP3    H2 1133   0.534   4.167   2.339
  398TIP3   OH2 1134   4.586   3.386   6.202
  398TIP3    H1 1135   4.653   3.452   6.185
  398TIP3    H2 1136   4.590   3.328   6.125
  399TIP3   OH2 1137   1.607   1.139   1.615
  399TIP3    H1 1138   1.641   1.097   1.694
  399TIP3    H2 1139   1.685   1.153   1.561
  400TIP3   OH2 1140   0.972   5.524   0.923
  400TIP3    H1 1141   0.912   5.599   0.919
  400TIP3    H2 1142   1.054   5.560   0.958
  401TIP3   OH2 1143   6.567   4.951   5.552
  401TIP3    H1 1144   6.636   4.894   5.586
  401TIP3    H2 1145   6.503   4.955   5.624
  402TIP3   OH2 1146   2.937   3.494   0.937
  402TIP3    H1 1147   2.988   3.423   0.899
  402TIP3    H2 1148   2.975   3.574   0.900
  403TIP3   OH2 1149   3.609   4.565   4.999
  403TIP3    H1 1150   3.668   4.498   5.034
  403TIP3    H2 1151   3.528   4.553   5.048
  404TIP3   OH2 1152   0.453   0.757   0.439
  404TIP3    H1 1153   0.512   0.793   0.505
  404TIP3    H2 1154   0.410   0.834   0.401
  405TIP3   OH2 1155   2.230   0.176   4.439
  405TIP3    H1 1156   2.297   0.127   4.391
  405TIP3    H2 1157   2.164   0.198   4.374
  406TIP3   OH2 1158   3.644   2.722   1.321
  406TIP3    H1 1159   3.704   2.668   1.270
  406TIP3    H2 1160   3.693   2.803   1.337
  407TIP3   OH2 1161   2.248   2.369   2.204
  407TIP3    H1 1162   2.338   2.366   2.171
  407TIP3    H2 1163   2.194   2.349   2.128
  408TIP3   OH2 1164   5.902   1.794   5.292
  408TIP3    H1 1165   5.994   1.804   5.269
  408TIP3    H2 1166   5.863   1.878   5.268
  409TIP3   OH2 1167   6.479   1.447   0.836
  409TIP3    H1 1168   6.492   1.361   0.875
  409TIP3    H2 1169   6.536   1.505   0.887
  410TIP3   OH2 1170   3.638   6.170   5.153
  410TIP3    H1 1171   3.651   6.206   5.241
  410TIP3    H2 1172   3.628   6.076   5.167
  411TIP3   OH2 1173   0.981   1.589   0.023
  411TIP3    H1 1174   0.972   1.642   0.102
  411TIP3    H2 1175   1.076   1.585   0.008
  412TIP3   OH2 1176   7.526   0.340   1.750
  412TIP3    H1 1177   7.511   0.392   1.829
  412TIP3    H2 1178   7.561   0.402   1.686
  413TIP3   OH2 1179   6.804   6.877   1.956
  413TIP3    H1 1180   6.814   6.968   1.927
  413TIP3    H2 1181   6.753   6.836   1.887
  414TIP3   OH2 1182   3.682   5.281   0.269
  414TIP3    H1 1183   3.605   5.326   0.303
  414TIP3    H2 1184   3.660   5.188   0.273
  415TIP3   OH2 1185   8.274   5.562   3.554
  415TIP3    H1 1186   8.327   5.634   3.588
  415TIP3    H2 1187   8.322   5.530   3.478
  416TIP3   OH2 1188   7.849   2.079   3.121
  416TIP3    H1 1189   7.901   2.015   3.169
  416TIP3    H2 1190   7.812   2.029   3.048
  417TIP3   OH2 1191   2.295   2.087   6.547
  417TIP3    H1 1192   2.329   2.176   6.557
  417TIP3    H2 1193   2.349   2.048   6.479
  418TIP3   OH2 1194   6.070   3.334   4.622
  418TIP3    H1 1195   6.048   3.409   4.676
  418TIP3    H2 1196   6.119   3.371   4.549
  419TIP3   OH2 1197   2.241   4.181   1.610
  419TIP3    H1 1198   2.182   4.205   1.682
  419TIP3    H2 1199   2.194   4.112   1.563
  420TIP3   OH2 1200   0.184   4.969   4.102
  420TIP3    H1 1201   0.151   4.891   4.145
  420TIP3    H2 1202   0.200   5.031   4.173
  421TIP3   OH2 1203   2.257   1.032   1.219
  421TIP3    H1 1204   2.299   0.947   1.233
  421TIP3    H2 1205   2.328   1.090   1.191
  422TIP3   OH2 1206   5.119   3.843   6.548
  422TIP3    H1 1207   5.152   3.887   6.626
  422TIP3    H2 1208   5.128   3.750   6.567
  423TIP3   OH2 1209   1.008   5.734   4.239
  423TIP3    H1 1210   0.938   5.678   4.205
  423TIP3    H2 1211   1.003   5.814   4.187
  424TIP3   OH2 1212   2.793   2.083   2.309
  424TIP3    H1 1213   2.846   2.162   2.295
  424TIP3    H2 1214   2.742   2.074   2.229
  425TIP3   OH2 1215   0.728   4.355   6.625
  425TIP3    H1 1216   0.686   4.270   6.635
  425TIP3    H2 1217   0.663   4.408   6.576
  426TIP3   OH2 1218   5.790   4.295   0.360
  426TIP3    H1 1219   5.814   4.298   0.453
  426TIP3    H2 1220   5.846   4.360   0.318
  427TIP3   OH2 1221   0.376   0.975   0.246
  427TIP3    H1 1222   0.380   1.048   0.307
  427TIP3    H2 1223   0.468   0.959   0.221
  428TIP3   OH2 1224   5.648   0.761   0.377
  428TIP3    H1 1225   5.689   0.748   0.462
  428TIP3    H2 1226   5.679   0.687   0.324
  429TIP3   OH2 1227   6.005   2.107   0.707
  429TIP3    H1 1228   5.976   2.051   0.779
  429TIP3    H2 1229   6.015   2.048   0.633
  430TIP3   OH2 1230   4.139   5.563   4.916
  430TIP3    H1 1231   4.235   5.564   4.921
  430TIP3    H2 1232   4.118   5.481   4.871
  431TIP3   OH2 1233   7.569   5.679   0.523
  431TIP3    H1 1234   7.497   5.626   0.557
  431TIP3    H2 1235   7.527   5.755   0.483
  432TIP3   OH2 1236   8.212   6.056   2.553
  432TIP3    H1 1237   8.146   6.066   2.484
  432TIP3    H2 1238   8.182   5.980   2.604
  433TIP3   OH2 1239   6.624   5.962   6.250
  433TIP3    H1 1240   6.540   5.939   6.289
  433TIP3    H2 1241   6.667   5.878   6.232
  434TIP3   OH2 1242   1.146   4.789   1.024
  434TIP3    H1 1243   1.215   4.768   0.962
  434TIP3    H2 1244   1.082   4.838   0.972
  435TIP3   OH2 1245   2.067   5.812   1.958
  435TIP3    H1 1246   2.102   5.901   1.966
  435TIP3    H2 1247   1.972   5.824   1.964
  436TIP3   OH2 1248   8.020   0.647   3.001
  436TIP3    H1 1249   8.034   0.652   2.907
  436TIP3    H2 1250   8.064   0.725   3.036
  437TIP3   OH2 1251   4.642   4.086   0.345
  437TIP3    H1 1252   4.699   4.102   0.271
  437TIP3    H2 1253   4.556   4.118   0.317
  438TIP3   OH2 1254   5.476   5.712   1.948
  438TIP3    H1 1255   5.423   5.667   1.882
  438TIP3    H2 1256   5.426   5.791   1.969
  439TIP3   OH2 1257   2.647   6.710   3.938
  439TIP3    H1 1258   2.639   6.737   4.030
  439TIP3    H2 1259   2.627   6.789   3.888
  440TIP3   OH2 1260   3.777   0.496   4.345
  440TIP3    H1 1261   3.769   0.515   4.252
  440TIP3    H2 1262   3.818   0.410   4.349
  441TIP3   OH2 1263   5.127   6.080   0.659
  441TIP3    H1 1264   5.140   6.174   0.647
  441TIP3    H2 1265   5.128   6.067   0.754
  442TIP3   OH2 1266   2.818   4.475   2.827
  442TIP3    H1 1267   2.853   4.549   2.875
  442TIP3    H2 1268   2.756   4.434   2.888
  443TIP3   OH2 1269   4.818   0.035   5.860
  443TIP3    H1 1270   4.882  -0.006   5.919
  443TIP3    H2 1271   4.778  -0.039   5.813
  444TIP3   OH2 1272   5.382   5.119   3.022
  444TIP3    H1 1273   5.357   5.080   3.105
  444TIP3    H2 1274   5.303   5.114   2.968
  445TIP3   OH2 1275   5.390   0.597   6.782
  445TIP3    H1 1276   5.388   0.636   6.869
  445TIP3    H2 1277   5.321   0.642   6.734
  446TIP3   OH2 1278   2.137   0.273   0.400
  446TIP3    H1 1279   2.054   0.230   0.381
  446TIP3    H2 1280   2.145   0.340   0.333
  447TIP3   OH2 1281   5.780   2.740   0.519
  447TIP3    H1 1282   5.751   2.681   0.449
  447TIP3    H2 1283   5.760   2.827   0.486
  448TIP3   OH2 1284   7.266   0.698   3.738
  448TIP3    H1 1285   7.326   0.653   3.678
  448TIP3    H2 1286   7.320   0.766   3.779
  449TIP3   OH2 1287   8.135   1.946   6.566
  449TIP3    H1 1288   8.200   2.009   6.534
  449TIP3    H2 1289   8.145   1.948   6.661
  450TIP3   OH2 1290   4.038   3.343   4.057
  450TIP3    H1 1291   3.964   3.314   4.005
  450TIP3    H2 1292   4.020   3.436   4.073
  451TIP3   OH2 1293   1.994   2.186   0.898
  451TIP3    H1 1294   1.989   2.111   0.957
  451TIP3    H2 1295   1.994   2.147   0.810
  452TIP3   OH2 1296   8.019   5.832   3.787
  452TIP3    H1 1297   8.066   5.846   3.869
  452TIP3    H2 1298   7.926   5.832   3.812
  453TIP3   OH2 1299   6.793   2.942   0.422
  453TIP3    H1 1300   6.719   2.956   0.482
  453TIP3    H2 1301   6.861   2.904   0.477
  454TIP3   OH2 1302   5.053   7.231   5.411
  454TIP3    H1 1303   5.102   7.279   5.478
  454TIP3    H2 1304   5.081   7.140   5.423
  455TIP3   OH2 1305   6.670   0.377   5.220
  455TIP3    H1 1306   6.633   0.289   5.213
  455TIP3    H2 1307   6.611   0.422   5.280
  456TIP3   OH2 1308   1.866   7.932   4.039
  456TIP3    H1 1309   1.865   7.859   4.101
  456TIP3    H2 1310   1.958   7.943   4.017
  457TIP3   OH2 1311   7.737   0.782   2.133
  457TIP3    H1 1312   7.825   0.751   2.110
  457TIP3    H2 1313   7.708   0.721   2.201
  458TIP3   OH2 1314   8.282   1.097   5.210
  458TIP3    H1 1315   8.224   1.022   5.223
  458TIP3    H2 1316   8.223   1.168   5.185
  459TIP3   OH2 1317   5.906   5.452   2.683
  459TIP3    H1 1318   5.998   5.450   2.711
  459TIP3    H2 1319   5.858   5.417   2.758
  460TIP3   OH2 1320   7.116   2.564   5.496
  460TIP3    H1 1321   7.202   2.607   5.498
  460TIP3    H2 1322   7.123   2.495   5.562
  461TIP3   OH2 1323   4.903   1.809   0.321
  461TIP3    H1 1324   4.947   1.877   0.269
  461TIP3    H2 1325   4.906   1.842   0.411
  462TIP3   OH2 1326   1.506   7.307   6.592
  462TIP3    H1 1327   1.416   7.287   6.618
  462TIP3    H2 1328   1.557   7.231   6.618
  463TIP3   OH2 1329   3.659   1.248   3.515
  463TIP3    H1 1330   3.663   1.284   3.426
  463TIP3    H2 1331   3.593   1.180   3.511
  464TIP3   OH2 1332   1.146   1.493   6.424
  464TIP3    H1 1333   1.205   1.568   6.415
  464TIP3    H2 1334   1.128   1.488   6.517
  465TIP3   OH2 1335   8.109   0.919   3.778
  465TIP3    H1 1336   8.069   0.885   3.858
  465TIP3    H2 1337   8.120   1.012   3.795
  466TIP3   OH2 1338   4.282   0.824   1.600
  466TIP3    H1 1339   4.205   0.792   1.554
  466TIP3    H2 1340   4.314   0.748   1.650
  467TIP3   OH2 1341   6.760   7.623   1.561
  467TIP3    H1 1342   6.775   7.703   1.510
  467TIP3    H2 1343   6.770   7.552   1.498
  468TIP3   OH2 1344   6.964   3.283   1.422
  468TIP3    H1 1345   7.020   3.332   1.361
  468TIP3    H2 1346   6.893   3.249   1.367
  469TIP3   OH2 1347   4.243   4.057   4.754
  469TIP3    H1 1348   4.191   4.135   4.774
  469TIP3    H2 1349   4.295   4.042   4.833
  470TIP3   OH2 1350   8.122   4.756   1.228
  470TIP3    H1 1351   8.178   4.796   1.162
  470TIP3    H2 1352   8.045   4.814   1.233
  471TIP3   OH2 1353   7.535   5.792   1.622
  471TIP3    H1 1354   7.574   5.768   1.538
  471TIP3    H2 1355   7.442   5.771   1.612
  472TIP3   OH2 1356   2.144   0.995   2.425
  472TIP3    H1 1357   2.232   0.989   2.388
  472TIP3    H2 1358   2.087   0.959   2.357
  473TIP3   OH2 1359   6.690   6.225   4.237
  473TIP3    H1 1360   6.662   6.212   4.147
  473TIP3    H2 1361   6.752   6.298   4.233
  474TIP3   OH2 1362   4.159   2.998   1.610
  474TIP3    H1 1363   4.177   2.942   1.535
  474TIP3    H2 1364   4.242   3.000   1.659
  475TIP3   OH2 1365   5.434   0.821   6.053
  475TIP3    H1 1366   5.405   0.730   6.048
  475TIP3    H2 1367   5.508   0.820   6.113
  476TIP3   OH2 1368   2.598   6.564   6.681
  476TIP3    H1 1369   2.511   6.525   6.677
  476TIP3    H2 1370   2.657   6.491   6.658
  477TIP3   OH2 1371   5.281   6.408   4.407
  477TIP3    H1 1372   5.192   6.441   4.407
  477TIP3    H2 1373   5.281   6.339   4.474
  478TIP3   OH2 1374   6.708   1.853   6.165
  478TIP3    H1 1375   6.767   1.901   6.108
  478TIP3    H2 1376   6.759   1.777   6.195
  479TIP3   OH2 1377   1.475   0.285   1.664
  479TIP3    H1 1378   1.465   0.307   1.571
  479TIP3    H2 1379   1.474   0.189   1.666
  480TIP3   OH2 1380   2.772   3.143   4.777
  480TIP3    H1 1381   2.731   3.170   4.695
  480TIP3    H2 1382   2.817   3.221   4.809
  481TIP3   OH2 1383   7.150   4.581   5.301
  481TIP3    H1 1384   7.204   4.548   5.373
  481TIP3    H2 1385   7.068   4.608   5.343
  482TIP3   OH2 1386   4.376   4.237   6.656
  482TIP3    H1 1387   4.301   4.250   6.598
  482TIP3    H2 1388   4.363   4.301   6.726
  483TIP3   OH2 1389   4.844   1.199   4.050
  483TIP3    H1 1390   4.879   1.127   4.103
  483TIP3    H2 1391   4.764   1.163   4.011
  484TIP3   OH2 1392   0.887   0.634   0.074
  484TIP3    H1 1393   0.904   0.716   0.120
  484TIP3    H2 1394   0.860   0.573   0.143
  485TIP3   OH2 1395   7.290   6.783   1.274
  485TIP3    H1 1396   7.333   6.698   1.278
  485TIP3    H2 1397   7.359   6.846   1.297
  486TIP3   OH2 1398   6.714   1.775   0.160
  486TIP3    H1 1399   6.635   1.821   0.189
  486TIP3    H2 1400   6.766   1.764   0.240
  487TIP3   OH2 1401   5.492   7.714   2.167
  487TIP3    H1 1402   5.542   7.648   2.118
  487TIP3    H2 1403   5.445   7.763   2.100
  488TIP3   OH2 1404   0.361   4.696   3.031
  488TIP3    H1 1405   0.277   4.740   3.015
  488TIP3    H2 1406   0.406   4.753   3.093
  489TIP3   OH2 1407   7.898   7.045   5.745
  489TIP3    H1 1408   7.899   7.138   5.765
  489TIP3    H2 1409   7.878   7.002   5.828
  490TIP3   OH2 1410   1.328   5.107   6.403
  490TIP3    H1 1411   1.416   5.078   6.378
  490TIP3    H2 1412   1.287   5.135   6.321
  491TIP3   OH2 1413   4.515   0.454   6.301
  491TIP3    H1 1414   4.573   0.520   6.263
  491TIP3    H2 1415   4.472   0.499   6.374
  492TIP3   OH2 1416   5.502   3.467   3.907
  492TIP3    H1 1417   5.425   3.466   3.964
  492TIP3    H2 1418   5.492   3.390   3.852
  493TIP3   OH2 1419   0.501   6.324   0.999
  493TIP3    H1 1420   0.494   6.229   0.988
  493TIP3    H2 1421   0.419   6.358   0.962
  494TIP3   OH2 1422   0.935   1.410   4.657
  494TIP3    H1 1423   0.933   1.323   4.617
  494TIP3    H2 1424   0.864   1.457   4.613
  495TIP3   OH2 1425   3.734   7.756   6.542
  495TIP3    H1 1426   3.703   7.712   6.621
  495TIP3    H2 1427   3.780   7.834   6.575
  496TIP3   OH2 1428   1.555   7.660   4.605
  496TIP3    H1 1429   1.597   7.579   4.633
  496TIP3    H2 1430   1.496   7.633   4.534
  497TIP3   OH2 1431   7.907   5.363   1.144
  497TIP3    H1 1432   8.000   5.340   1.134
  497TIP3    H2 1433   7.909   5.449   1.185
  498TIP3   OH2 1434   2.415   0.548   2.233
  498TIP3    H1 1435   2.330   0.536   2.275
  498TIP3    H2 1436   2.452   0.626   2.274
  499TIP3   OH2 1437   1.172   4.764   6.293
  499TIP3    H1 1438   1.166   4.745   6.199
  499TIP3    H2 1439   1.115   4.840   6.306
  500TIP3   OH2 1440   8.023   2.699   4.051
  500TIP3    H1 1441   7.989   2.680   3.964
  500TIP3    H2 1442   8.109   2.658   4.053
  501TIP3   OH2 1443   2.025   5.225   4.638
  501TIP3    H1 1444   2.012   5.318   4.620
  501TIP3    H2 1445   2.100   5.222   4.697
  502TIP3   OH2 1446   5.718   7.384   5.175
  502TIP3    H1 1447   5.750   7.474   5.177
  502TIP3    H2 1448   5.767   7.339   5.243
  503TIP3   OH2 1449   4.381   4.492   3.690
  503TIP3    H1 1450   4.388   4.515   3.782
  503TIP3    H2 1451   4.329   4.562   3.651
  504TIP3   OH2 1452   3.023   1.005   3.611
  504TIP3    H1 1453   3.044   0.955   3.690
  504TIP3    H2 1454   2.993   0.939   3.549
  505TIP3   OH2 1455   1.807   2.793   6.587
  505TIP3    H1 1456   1.818   2.884   6.616
  505TIP3    H2 1457   1.796   2.744   6.668
  506TIP3   OH2 1458   4.570  -0.038   3.422
  506TIP3    H1 1459   4.492  -0.024   3.368
  506TIP3    H2 1460   4.619   0.044   3.415
  507TIP3   OH2 1461   5.542   2.626   0.708
  507TIP3    H1 1462   5.533   2.581   0.792
  507TIP3    H2 1463   5.611   2.691   0.724
  508TIP3   OH2 1464   8.383   1.923   0.738
  508TIP3    H1 1465   8.317   1.855   0.752
  508TIP3    H2 1466   8.343   1.982   0.674
  509TIP3   OH2 1467   2.901   4.936   2.562
  509TIP3    H1 1468   2.929   4.975   2.479
  509TIP3    H2 1469   2.813   4.904   2.545
  510TIP3   OH2 1470   0.108   4.051   6.352
  510TIP3    H1 1471   0.084   4.138   6.382
  510TIP3    H2 1472   0.176   4.066   6.286
  511TIP3   OH2 1473   3.769   7.558   1.424
  511TIP3    H1 1474   3.786   7.467   1.448
  511TIP3    H2 1475   3.855   7.598   1.419
  512TIP3   OH2 1476   1.766   0.913   3.775
  512TIP3    H1 1477   1.811   0.892   3.693
  512TIP3    H2 1478   1.730   1.000   3.761
  513TIP3   OH2 1479   2.520   7.826   0.070
  513TIP3    H1 1480   2.602   7.842   0.024
  513TIP3    H2 1481   2.534   7.745   0.118
  514TIP3   OH2 1482   5.669   0.842   2.829
  514TIP3    H1 1483   5.665   0.749   2.805
  514TIP3    H2 1484   5.590   0.857   2.881
  515TIP3   OH2 1485   0.982   6.772   1.143
  515TIP3    H1 1486   1.056   6.750   1.201
  515TIP3    H2 1487   1.023   6.814   1.067
  516TIP3   OH2 1488   8.361   1.775   2.990
  516TIP3    H1 1489   8.297   1.830   2.944
  516TIP3    H2 1490   8.429   1.759   2.925
  517TIP3   OH2 1491   0.616   6.842   6.406
  517TIP3    H1 1492   0.570   6.790   6.340
  517TIP3    H2 1493   0.703   6.802   6.411
  518TIP3   OH2 1494   3.396   7.223   2.080
  518TIP3    H1 1495   3.311   7.267   2.089
  518TIP3    H2 1496   3.387   7.142   2.130
  519TIP3   OH2 1497   6.812   3.288   6.138
  519TIP3    H1 1498   6.854   3.220   6.086
  519TIP3    H2 1499   6.878   3.310   6.205
  520TIP3   OH2 1500   5.160   5.663   1.965
  520TIP3    H1 1501   5.201   5.737   1.920
  520TIP3    H2 1502   5.080   5.646   1.915
  521TIP3   OH2 1503   5.842   5.410   6.145
  521TIP3    H1 1504   5.791   5.469   6.088
  521TIP3    H2 1505   5.816   5.433   6.234
  522TIP3   OH2 1506   2.571   7.434   3.062
  522TIP3    H1 1507   2.642   7.380   3.096
  522TIP3    H2 1508   2.612   7.519   3.042
  523TIP3   OH2 1509   1.657   0.162   0.231
  523TIP3    H1 1510   1.572   0.148   0.274
  523TIP3    H2 1511   1.651   0.114   0.149
  524TIP3   OH2 1512   3.734   5.450   1.134
  524TIP3    H1 1513   3.726   5.473   1.042
  524TIP3    H2 1514   3.659   5.394   1.152
  525TIP3   OH2 1515   8.022   2.070   4.035
  525TIP3    H1 1516   8.055   2.158   4.020
  525TIP3    H2 1517   8.054   2.046   4.122
  526TIP3   OH2 1518   6.660   6.925   2.463
  526TIP3    H1 1519   6.663   6.868   2.387
  526TIP3    H2 1520   6.720   6.886   2.526
  527TIP3   OH2 1521   1.469   0.159   2.984
  527TIP3    H1 1522   1.383   0.184   3.019
  527TIP3    H2 1523   1.461   0.169   2.890
  528TIP3   OH2 1524   3.349   1.523   6.430
  528TIP3    H1 1525   3.326   1.517   6.522
  528TIP3    H2 1526   3.412   1.595   6.426
  529TIP3   OH2 1527   6.805   0.948   5.404
  529TIP3    H1 1528   6.719   0.938   5.445
  529TIP3    H2 1529   6.794   1.024   5.346
  530TIP3   OH2 1530   1.608   6.825   6.488
  530TIP3    H1 1531   1.540   6.773   6.532
  530TIP3    H2 1532   1.650   6.763   6.428
  531TIP3   OH2 1533   2.709   1.791   1.206
  531TIP3    H1 1534   2.732   1.849   1.279
  531TIP3    H2 1535   2.763   1.713   1.220
  532TIP3   OH2 1536   5.449   5.160   4.126
  532TIP3    H1 1537   5.519   5.152   4.061
  532TIP3    H2 1538   5.485   5.119   4.205
  533TIP3   OH2 1539   4.601   5.458   6.255
  533TIP3    H1 1540   4.554   5.475   6.174
  533TIP3    H2 1541   4.639   5.372   6.243
  534TIP3   OH2 1542   5.974   4.496   0.287
  534TIP3    H1 1543   5.951   4.474   0.197
  534TIP3    H2 1544   6.035   4.569   0.278
  535TIP3   OH2 1545   7.429   6.813   0.770
  535TIP3    H1 1546   7.358   6.842   0.713
  535TIP3    H2 1547   7.453   6.892   0.819
  536TIP3   OH2 1548   5.220   1.489   3.186
  536TIP3    H1 1549   5.285   1.537   3.237
  536TIP3    H2 1550   5.136   1.511   3.227
  537TIP3   OH2 1551   0.750   1.946   5.554
  537TIP3    H1 1552   0.657   1.929   5.544
  537TIP3    H2 1553   0.792   1.861   5.538
  538TIP3   OH2 1554   6.053   7.769   0.828
  538TIP3    H1 1555   6.028   7.807   0.743
  538TIP3    H2 1556   6.147   7.789   0.836
  539TIP3   OH2 1557   4.046   1.999   2.617
  539TIP3    H1 1558   3.972   2.046   2.578
  539TIP3    H2 1559   4.093   1.962   2.543
  540TIP3   OH2 1560   0.155   1.078   5.657
  540TIP3    H1 1561   0.128   0.987   5.667
  540TIP3    H2 1562   0.161   1.092   5.563
  541TIP3   OH2 1563   2.877   7.752   5.275
  541TIP3    H1 1564   2.953   7.695   5.266
  541TIP3    H2 1565   2.804   7.693   5.291
  542TIP3   OH2 1566   5.627   2.280   6.181
  542TIP3    H1 1567   5.693   2.228   6.136
  542TIP3    H2 1568   5.637   2.368   6.146
  543TIP3   OH2 1569   6.174   5.111   2.693
  543TIP3    H1 1570   6.134   5.035   2.650
  543TIP3    H2 1571   6.207   5.164   2.620
  544TIP3   OH2 1572   6.038   0.348  -0.026
  544TIP3    H1 1573   6.020   0.430  -0.070
  544TIP3    H2 1574   6.106   0.370   0.038
  545TIP3   OH2 1575   8.200   7.155   3.818
  545TIP3    H1 1576   8.282   7.126   3.777
  545TIP3    H2 1577   8.228   7.205   3.894
  546TIP3   OH2 1578   0.729   5.731   4.914
  546TIP3    H1 1579   0.712   5.642   4.945
  546TIP3    H2 1580   0.643   5.774   4.915
  547TIP3   OH2 1581   4.754   0.561   4.739
  547TIP3    H1 1582   4.820   0.510   4.786
  547TIP3    H2 1583   4.687   0.497   4.713
  548TIP3   OH2 1584   6.368   1.628   4.912
  548TIP3    H1 1585   6.392   1.590   4.997
  548TIP3    H2 1586   6.395   1.720   4.918
  549TIP3   OH2 1587   2.151   5.707   5.458
  549TIP3    H1 1588   2.234   5.702   5.411
  549TIP3    H2 1589   2.153   5.793   5.501
  550TIP3   OH2 1590   2.258   4.931   2.556
  550TIP3    H1 1591   2.301   4.963   2.477
  550TIP3    H2 1592   2.283   4.993   2.624
  551TIP3   OH2 1593   8.294   5.181   4.663
  551TIP3    H1 1594   8.231   5.120   4.625
  551TIP3    H2 1595   8.334   5.224   4.587
  552TIP3   OH2 1596   4.677   3.804   3.288
  552TIP3    H1 1597   4.764   3.793   3.250
  552TIP3    H2 1598   4.651   3.892   3.261
  553TIP3   OH2 1599   2.023   6.407   1.468
  553TIP3    H1 1600   1.960   6.445   1.406
  553TIP3    H2 1601   2.106   6.450   1.446
  554TIP3   OH2 1602   0.711   4.155   3.588
  554TIP3    H1 1603   0.677   4.210   3.517
  554TIP3    H2 1604   0.769   4.093   3.544
  555TIP3   OH2 1605   0.420   2.044   5.240
  555TIP3    H1 1606   0.416   1.988   5.162
  555TIP3    H2 1607   0.392   1.988   5.312
  556TIP3   OH2 1608   7.100   1.218   3.182
  556TIP3    H1 1609   7.090   1.146   3.244
  556TIP3    H2 1610   7.044   1.194   3.108
  557TIP3   OH2 1611   2.785   3.372   3.320
  557TIP3    H1 1612   2.756   3.412   3.403
  557TIP3    H2 1613   2.863   3.321   3.344
  558TIP3   OH2 1614   6.812   4.817   0.221
  558TIP3    H1 1615   6.741   4.848   0.165
  558TIP3    H2 1616   6.888   4.814   0.163
  559TIP3   OH2 1617   8.003   6.497   6.054
  559TIP3    H1 1618   7.936   6.508   6.121
  559TIP3    H2 1619   7.955   6.500   5.971
  560TIP3   OH2 1620   6.697   7.295   0.065
  560TIP3    H1 1621   6.716   7.389   0.063
  560TIP3    H2 1622   6.783   7.254   0.077
  561TIP3   OH2 1623   2.263   1.388   3.994
  561TIP3    H1 1624   2.277   1.299   4.027
  561TIP3    H2 1625   2.264   1.379   3.899
  562TIP3   OH2 1626   4.932   3.510   3.949
  562TIP3    H1 1627   4.915   3.603   3.963
  562TIP3    H2 1628   5.012   3.508   3.896
  563TIP3   OH2 1629   8.187   1.533  -0.035
  563TIP3    H1 1630   8.149   1.610   0.005
  563TIP3    H2 1631   8.141   1.459   0.005
  564TIP3   OH2 1632   0.355   5.391   3.179
  564TIP3    H1 1633   0.352   5.406   3.085
  564TIP3    H2 1634   0.385   5.301   3.189
  565TIP3   OH2 1635   2.075   5.382   6.798
  565TIP3    H1 1636   2.142   5.342   6.743
  565TIP3    H2 1637   2.000   5.323   6.792
  566TIP3   OH2 1638   4.159   0.172   3.783
  566TIP3    H1 1639   4.245   0.148   3.818
  566TIP3    H2 1640   4.168   0.264   3.757
  567TIP3   OH2 1641   5.560   3.656   0.488
  567TIP3    H1 1642   5.581   3.673   0.396
  567TIP3    H2 1643   5.472   3.620   0.487
  568TIP3   OH2 1644   5.983   6.504   2.610
  568TIP3    H1 1645   5.928   6.531   2.536
  568TIP3    H2 1646   5.973   6.575   2.674
  569TIP3   OH2 1647   0.193   4.603   6.564
  569TIP3    H1 1648   0.279   4.592   6.605
  569TIP3    H2 1649   0.130   4.591   6.635
  570TIP3   OH2 1650   2.704   0.940   5.949
  570TIP3    H1 1651   2.771   0.966   5.886
  570TIP3    H2 1652   2.658   0.868   5.905
  571TIP3   OH2 1653   6.434   0.634   0.257
  571TIP3    H1 1654   6.440   0.615   0.163
  571TIP3    H2 1655   6.344   0.664   0.270
  572TIP3   OH2 1656   7.726   3.982   0.907
  572TIP3    H1 1657   7.634   3.967   0.926
  572TIP3    H2 1658   7.750   4.057   0.962
  573TIP3   OH2 1659   5.564   2.265   6.769
  573TIP3    H1 1660   5.570   2.237   6.860
  573TIP3    H2 1661   5.536   2.356   6.773
  574TIP3   OH2 1662   3.153   3.185   6.782
  574TIP3    H1 1663   3.223   3.205   6.720
  574TIP3    H2 1664   3.193   3.127   6.847
  575TIP3   OH2 1665   5.974   2.520   2.270
  575TIP3    H1 1666   6.002   2.581   2.339
  575TIP3    H2 1667   5.882   2.505   2.288
  576TIP3   OH2 1668   7.370   6.748   5.624
  576TIP3    H1 1669   7.396   6.833   5.588
  576TIP3    H2 1670   7.296   6.768   5.680
  577TIP3   OH2 1671   5.896   7.546   0.064
  577TIP3    H1 1672   5.991   7.534   0.064
  577TIP3    H2 1673   5.861   7.460   0.042
  578TIP3   OH2 1674   0.313   2.039   3.505
  578TIP3    H1 1675   0.277   2.055   3.592
  578TIP3    H2 1676   0.236   2.034   3.448
  579TIP3   OH2 1677   7.102   1.271   6.385
  579TIP3    H1 1678   7.077   1.297   6.296
  579TIP3    H2 1679   7.044   1.322   6.442
  580TIP3   OH2 1680   6.748   1.852   2.540
  580TIP3    H1 1681   6.817   1.843   2.474
  580TIP3    H2 1682   6.692   1.922   2.507
  581TIP3   OH2 1683   6.705   5.083   1.763
  581TIP3    H1 1684   6.686   5.160   1.816
  581TIP3    H2 1685   6.767   5.032   1.815
  582TIP3   OH2 1686   2.521   3.443   2.902
  582TIP3    H1 1687   2.453   3.376   2.892
  582TIP3    H2 1688   2.570   3.416   2.980
  583TIP3   OH2 1689   0.344   5.270   1.116
  583TIP3    H1 1690   0.402   5.195   1.110
  583TIP3    H2 1691   0.287   5.263   1.039
  584TIP3   OH2 1692   6.755   0.286   0.684
  584TIP3    H1 1693   6.660   0.288   0.673
  584TIP3    H2 1694   6.777   0.370   0.723
  585TIP3   OH2 1695   1.463   0.005   2.467
  585TIP3    H1 1696   1.557   0.004   2.488
  585TIP3    H2 1697   1.459  -0.026   2.376
  586TIP3   OH2 1698   5.679   7.263   6.187
  586TIP3    H1 1699   5.624   7.336   6.159
  586TIP3    H2 1700   5.642   7.187   6.143
  587TIP3   OH2 1701   4.176   2.097   2.124
  587TIP3    H1 1702   4.215   2.019   2.164
  587TIP3    H2 1703   4.237   2.168   2.145
  588TIP3   OH2 1704   7.408   0.076   6.619
  588TIP3    H1 1705   7.359   0.131   6.680
  588TIP3    H2 1706   7.479   0.132   6.588
  589TIP3   OH2 1707   7.007   4.077   0.100
  589TIP3    H1 1708   7.086   4.039   0.140
  589TIP3    H2 1709   6.992   4.158   0.149
  590TIP3   OH2 1710   6.578   2.582   1.176
  590TIP3    H1 1711   6.625   2.562   1.257
  590TIP3    H2 1712   6.646   2.580   1.108
  591TIP3   OH2 1713   5.807   3.501   5.076
  591TIP3    H1 1714   5.818   3.431   5.139
  591TIP3    H2 1715   5.740   3.469   5.016
  592TIP3   OH2 1716   1.784   4.399   0.926
  592TIP3    H1 1717   1.691   4.392   0.951
  592TIP3    H2 1718   1.830   4.350   0.994
  593TIP3   OH2 1719   4.300   7.847   5.652
  593TIP3    H1 1720   4.331   7.936   5.672
  593TIP3    H2 1721   4.377   7.800   5.622
  594TIP3   OH2 1722   5.269   3.536   4.100
  594TIP3    H1 1723   5.229   3.459   4.059
  594TIP3    H2 1724   5.198   3.577   4.149
  595TIP3   OH2 1725   2.474   4.030   1.581
  595TIP3    H1 1726   2.437   4.118   1.591
  595TIP3    H2 1727   2.436   3.981   1.654
  596TIP3   OH2 1728   2.494   5.543   2.460
  596TIP3    H1 1729   2.404   5.514   2.443
  596TIP3    H2 1730   2.545   5.462   2.461
  597TIP3   OH2 1731   6.816   6.689   5.616
  597TIP3    H1 1732   6.836   6.781   5.599
  597TIP3    H2 1733   6.724   6.688   5.643
  598TIP3   OH2 1734   2.278   0.590   4.819
  598TIP3    H1 1735   2.188   0.566   4.796
  598TIP3    H2 1736   2.331   0.517   4.788
  599TIP3   OH2 1737   8.343   5.207   5.777
  599TIP3    H1 1738   8.413   5.149   5.748
  599TIP3    H2 1739   8.280   5.149   5.820
  600TIP3   OH2 1740   6.971   3.087   1.619
  600TIP3    H1 1741   6.893   3.056   1.666
  600TIP3    H2 1742   6.939   3.159   1.564
  601TIP3   OH2 1743   2.363   7.707   4.281
  601TIP3    H1 1744   2.316   7.630   4.250
  601TIP3    H2 1745   2.455   7.692   4.257
  602TIP3   OH2 1746   2.877   7.184   0.591
  602TIP3    H1 1747   2.899   7.094   0.615
  602TIP3    H2 1748   2.871   7.230   0.674
  603TIP3   OH2 1749   1.598   2.518   6.377
  603TIP3    H1 1750   1.609   2.574   6.300
  603TIP3    H2 1751   1.674   2.537   6.431
  604TIP3   OH2 1752   3.633   5.296   3.518
  604TIP3    H1 1753   3.663   5.211   3.486
  604TIP3    H2 1754   3.664   5.359   3.453
  605TIP3   OH2 1755   2.101   3.311   3.178
  605TIP3    H1 1756   2.185   3.344   3.148
  605TIP3    H2 1757   2.040   3.384   3.166
  606TIP3   OH2 1758   0.896   6.078   3.863
  606TIP3    H1 1759   0.885   6.173   3.866
  606TIP3    H2 1760   0.978   6.064   3.816
  607TIP3   OH2 1761   7.703   5.052   4.451
  607TIP3    H1 1762   7.661   5.035   4.536
  607TIP3    H2 1763   7.777   4.992   4.449
  608TIP3   OH2 1764   0.839   2.312   3.302
  608TIP3    H1 1765   0.854   2.407   3.297
  608TIP3    H2 1766   0.794   2.300   3.386
  609TIP3   OH2 1767   2.937   5.900   3.127
  609TIP3    H1 1768   2.843   5.898   3.146
  609TIP3    H2 1769   2.965   5.809   3.135
  610TIP3   OH2 1770   5.472   4.026   6.470
  610TIP3    H1 1771   5.509   4.006   6.556
  610TIP3    H2 1772   5.537   4.083   6.428
  611TIP3   OH2 1773   0.276   0.244   6.667
  611TIP3    H1 1774   0.299   0.160   6.628
  611TIP3    H2 1775   0.188   0.262   6.633
  612TIP3   OH2 1776   5.117   2.472   0.371
  612TIP3    H1 1777   5.158   2.472   0.458
  612TIP3    H2 1778   5.039   2.527   0.381
  613TIP3   OH2 1779   3.587   2.016   1.396
  613TIP3    H1 1780   3.656   1.974   1.448
  613TIP3    H2 1781   3.541   1.944   1.353
  614TIP3   OH2 1782   4.574   0.385   3.209
  614TIP3    H1 1783   4.583   0.468   3.163
  614TIP3    H2 1784   4.483   0.359   3.196
  615TIP3   OH2 1785   6.559   5.317   1.526
  615TIP3    H1 1786   6.533   5.348   1.439
  615TIP3    H2 1787   6.490   5.347   1.585
  616TIP3   OH2 1788   5.539   3.345   0.550
  616TIP3    H1 1789   5.451   3.320   0.522
  616TIP3    H2 1790   5.530   3.437   0.577
  617TIP3   OH2 1791  -0.016   3.902   0.095
  617TIP3    H1 1792   0.059   3.856   0.133
  617TIP3    H2 1793   0.009   3.994   0.096
  618TIP3   OH2 1794   1.629   7.763   3.174
  618TIP3    H1 1795   1.567   7.741   3.105
  618TIP3    H2 1796   1.609   7.701   3.244
  619TIP3   OH2 1797   4.187   5.605   5.185
  619TIP3    H1 1798   4.243   5.682   5.189
  619TIP3    H2 1799   4.163   5.598   5.092
  620TIP3   OH2 1800   4.108   6.648   4.276
  620TIP3    H1 1801   4.195   6.639   4.239
  620TIP3    H2 1802   4.096   6.569   4.329
  621TIP3   OH2 1803   5.553   6.290   1.440
  621TIP3    H1 1804   5.600   6.243   1.371
  621TIP3    H2 1805   5.619   6.304   1.508
  622TIP3   OH2 1806   3.937   5.718   4.802
  622TIP3    H1 1807   3.910   5.735   4.893
  622TIP3    H2 1808   4.002   5.648   4.809
  623TIP3   OH2 1809   5.523   1.216   5.000
  623TIP3    H1 1810   5.538   1.172   4.916
  623TIP3    H2 1811   5.557   1.304   4.988
  624TIP3   OH2 1812   4.066   1.272   2.663
  624TIP3    H1 1813   3.987   1.296   2.711
  624TIP3    H2 1814   4.090   1.350   2.613
  625TIP3   OH2 1815   8.133   6.479   6.577
  625TIP3    H1 1816   8.112   6.569   6.603
  625TIP3    H2 1817   8.224   6.483   6.549
  626TIP3   OH2 1818   2.386   0.812   6.025
  626TIP3    H1 1819   2.407   0.851   5.940
  626TIP3    H2 1820   2.358   0.723   6.004
  627TIP3   OH2 1821   7.611   4.051   6.090
  627TIP3    H1 1822   7.594   4.001   6.170
  627TIP3    H2 1823   7.677   4.115   6.116
  628TIP3   OH2 1824   7.129   3.936   6.032
  628TIP3    H1 1825   7.041   3.902   6.047
  628TIP3    H2 1826   7.174   3.926   6.116
  629TIP3   OH2 1827   2.062   4.851   4.781
  629TIP3    H1 1828   1.991   4.791   4.804
  629TIP3    H2 1829   2.129   4.795   4.742
  630TIP3   OH2 1830   7.230   7.722   5.885
  630TIP3    H1 1831   7.262   7.768   5.963
  630TIP3    H2 1832   7.260   7.776   5.812
  631TIP3   OH2 1833   2.896   4.755   6.644
  631TIP3    H1 1834   2.888   4.815   6.718
  631TIP3    H2 1835   2.894   4.668   6.684
  632TIP3   OH2 1836   2.219   2.215   4.147
  632TIP3    H1 1837   2.271   2.222   4.068
  632TIP3    H2 1838   2.218   2.122   4.168
  633TIP3   OH2 1839   4.922   5.033   1.471
  633TIP3    H1 1840   4.955   4.974   1.403
  633TIP3    H2 1841   4.869   4.977   1.528
  634TIP3   OH2 1842   3.137   7.477   2.017
  634TIP3    H1 1843   3.085   7.548   2.055
  634TIP3    H2 1844   3.226   7.512   2.014
  635TIP3   OH2 1845   5.029   7.399   1.941
  635TIP3    H1 1846   4.977   7.449   1.879
  635TIP3    H2 1847   5.076   7.335   1.887
  636TIP3   OH2 1848   6.867   3.855   6.109
  636TIP3    H1 1849   6.819   3.834   6.030
  636TIP3    H2 1850   6.876   3.771   6.155
  637TIP3   OH2 1851   2.775   7.581   5.866
  637TIP3    H1 1852   2.685   7.560   5.840
  637TIP3    H2 1853   2.767   7.662   5.916
  638TIP3   OH2 1854   4.866   0.647   2.069
  638TIP3    H1 1855   4.938   0.666   2.130
  638TIP3    H2 1856   4.879   0.556   2.044
  639TIP3   OH2 1857   8.101   2.657   3.715
  639TIP3    H1 1858   8.036   2.588   3.699
  639TIP3    H2 1859   8.075   2.729   3.657
  640TIP3   OH2 1860   4.090   1.611   4.203
  640TIP3    H1 1861   4.016   1.671   4.186
  640TIP3    H2 1862   4.050   1.524   4.202
  641TIP3   OH2 1863   5.948   4.605   3.261
  641TIP3    H1 1864   5.993   4.522   3.275
  641TIP3    H2 1865   5.898   4.619   3.342
  642TIP3   OH2 1866   0.431   1.197   2.557
  642TIP3    H1 1867   0.489   1.124   2.534
  642TIP3    H2 1868   0.475   1.274   2.523
  643TIP3   OH2 1869   5.607   6.652   5.176
  643TIP3    H1 1870   5.565   6.695   5.101
  643TIP3    H2 1871   5.687   6.614   5.141
  644TIP3   OH2 1872   7.439   7.789   4.759
  644TIP3    H1 1873   7.358   7.753   4.724
  644TIP3    H2 1874   7.483   7.714   4.800
  645TIP3   OH2 1875   1.026   1.796   3.987
  645TIP3    H1 1876   1.069   1.813   3.903
  645TIP3    H2 1877   0.951   1.855   3.988
  646TIP3   OH2 1878   8.181   1.670   0.449
  646TIP3    H1 1879   8.105   1.614   0.436
  646TIP3    H2 1880   8.207   1.697   0.361
  647TIP3   OH2 1881   3.464   0.481   3.991
  647TIP3    H1 1882   3.515   0.403   4.016
  647TIP3    H2 1883   3.431   0.515   4.074
  648TIP3   OH2 1884   7.377   5.395   0.342
  648TIP3    H1 1885   7.466   5.360   0.348
  648TIP3    H2 1886   7.385   5.470   0.283
  649TIP3   OH2 1887   5.822   0.028   4.475
  649TIP3    H1 1888   5.836   0.065   4.563
  649TIP3    H2 1889   5.825   0.103   4.417
  650TIP3   OH2 1890   0.297   1.661   5.801
  650TIP3    H1 1891   0.249   1.581   5.780
  650TIP3    H2 1892   0.378   1.654   5.751
  651TIP3   OH2 1893   6.286   0.202   5.283
  651TIP3    H1 1894   6.367   0.183   5.236
  651TIP3    H2 1895   6.313   0.212   5.374
  652TIP3   OH2 1896   3.649   1.918   4.169
  652TIP3    H1 1897   3.672   1.837   4.214
  652TIP3    H2 1898   3.679   1.904   4.079
  653TIP3   OH2 1899   1.704   3.201   5.224
  653TIP3    H1 1900   1.783   3.202   5.278
  653TIP3    H2 1901   1.656   3.124   5.255
  654TIP3   OH2 1902   2.453   7.360   0.518
  654TIP3    H1 1903   2.467   7.322   0.604
  654TIP3    H2 1904   2.479   7.451   0.527
  655TIP3   OH2 1905   5.718   4.326   3.918
  655TIP3    H1 1906   5.766   4.244   3.925
  655TIP3    H2 1907   5.677   4.322   3.832
  656TIP3   OH2 1908   0.702   6.754   4.105
  656TIP3    H1 1909   0.704   6.844   4.072
  656TIP3    H2 1910   0.662   6.703   4.035
  657TIP3   OH2 1911   1.803   2.238   2.767
  657TIP3    H1 1912   1.803   2.226   2.862
  657TIP3    H2 1913   1.858   2.315   2.752
  658TIP3   OH2 1914   5.728   2.638   3.705
  658TIP3    H1 1915   5.735   2.595   3.620
  658TIP3    H2 1916   5.774   2.721   3.694
  659TIP3   OH2 1917   7.798   1.387   4.564
  659TIP3    H1 1918   7.887   1.360   4.587
  659TIP3    H2 1919   7.786   1.355   4.475
  660TIP3   OH2 1920   1.652   3.028   6.781
  660TIP3    H1 1921   1.731   3.071   6.747
  660TIP3    H2 1922   1.586   3.042   6.714
  661TIP3   OH2 1923   8.061   0.877   0.766
  661TIP3    H1 1924   8.013   0.959   0.771
  661TIP3    H2 1925   8.140   0.893   0.818
  662TIP3   OH2 1926   3.657   6.215   2.981
  662TIP3    H1 1927   3.638   6.162   3.059
  662TIP3    H2 1928   3.724   6.277   3.011
  663TIP3   OH2 1929   1.967   5.407   4.904
  663TIP3    H1 1930   1.900   5.360   4.854
  663TIP3    H2 1931   2.032   5.434   4.839
  664TIP3   OH2 1932   3.742   5.215   1.677
  664TIP3    H1 1933   3.690   5.295   1.678
  664TIP3    H2 1934   3.684   5.149   1.716
  665TIP3   OH2 1935   6.311   1.758   2.261
  665TIP3    H1 1936   6.290   1.828   2.199
  665TIP3    H2 1937   6.361   1.801   2.330
  666TIP3   OH2 1938   7.269   1.636   4.822
  666TIP3    H1 1939   7.243   1.549   4.852
  666TIP3    H2 1940   7.235   1.643   4.733
  667TIP3   OH2 1941   6.476   7.378   6.314
  667TIP3    H1 1942   6.495   7.361   6.222
  667TIP3    H2 1943   6.468   7.473   6.320
  668TIP3   OH2 1944   6.300   4.230   5.969
  668TIP3    H1 1945   6.323   4.148   5.926
  668TIP3    H2 1946   6.204   4.229   5.974
  669TIP3   OH2 1947   6.762   0.643   6.520
  669TIP3    H1 1948   6.730   0.677   6.604
  669TIP3    H2 1949   6.759   0.548   6.530
  670TIP3   OH2 1950   3.232   6.161   1.789
  670TIP3    H1 1951   3.220   6.066   1.782
  670TIP3    H2 1952   3.316   6.177   1.746
  671TIP3   OH2 1953   5.497   4.901   6.783
  671TIP3    H1 1954   5.585   4.929   6.759
  671TIP3    H2 1955   5.499   4.805   6.775
  672TIP3   OH2 1956   7.178   4.196   5.961
  672TIP3    H1 1957   7.172   4.101   5.968
  672TIP3    H2 1958   7.087   4.226   5.962
  673TIP3   OH2 1959   0.672   7.891   6.760
  673TIP3    H1 1960   0.625   7.876   6.678
  673TIP3    H2 1961   0.762   7.864   6.740
  674TIP3   OH2 1962   5.464   0.274   1.481
  674TIP3    H1 1963   5.409   0.211   1.527
  674TIP3    H2 1964   5.460   0.248   1.390
  675TIP3   OH2 1965   3.224   1.214   1.619
  675TIP3    H1 1966   3.220   1.240   1.711
  675TIP3    H2 1967   3.171   1.135   1.614
  676TIP3   OH2 1968   1.515   5.242   4.094
  676TIP3    H1 1969   1.511   5.302   4.169
  676TIP3    H2 1970   1.429   5.251   4.052
  677TIP3   OH2 1971   7.307   3.358   0.257
  677TIP3    H1 1972   7.376   3.415   0.223
  677TIP3    H2 1973   7.351   3.276   0.278
  678TIP3   OH2 1974   5.006   0.263   3.261
  678TIP3    H1 1975   5.015   0.168   3.250
  678TIP3    H2 1976   4.925   0.285   3.214
  679TIP3   OH2 1977   1.955   6.182   5.627
  679TIP3    H1 1978   1.968   6.205   5.535
  679TIP3    H2 1979   1.924   6.263   5.668
  680TIP3   OH2 1980   0.920   2.157  -0.006
  680TIP3    H1 1981   0.931   2.062  -0.011
  680TIP3    H2 1982   0.865   2.170   0.071
  681TIP3   OH2 1983   6.315   0.547   4.082
  681TIP3    H1 1984   6.234   0.597   4.082
  681TIP3    H2 1985   6.369   0.589   4.149
  682TIP3   OH2 1986   6.044   4.396   2.805
  682TIP3    H1 1987   6.131   4.357   2.810
  682TIP3    H2 1988   6.017   4.382   2.714
  683TIP3   OH2 1989   1.262   6.874   5.272
  683TIP3    H1 1990   1.220   6.868   5.358
  683TIP3    H2 1991   1.322   6.948   5.280
  684TIP3   OH2 1992   0.633   0.492   1.185
  684TIP3    H1 1993   0.723   0.518   1.166
  684TIP3    H2 1994   0.598   0.459   1.102
  685TIP3   OH2 1995   7.040   3.062   5.338
  685TIP3    H1 1996   7.041   2.990   5.401
  685TIP3    H2 1997   7.132   3.083   5.324
  686TIP3   OH2 1998   7.765   1.955   2.521
  686TIP3    H1 1999   7.851   1.929   2.486
  686TIP3    H2 2000   7.771   2.049   2.532
  687TIP3   OH2 2001   8.306   3.887   6.430
  687TIP3    H1 2002   8.363   3.961   6.453
  687TIP3    H2 2003   8.285   3.901   6.338
  688TIP3   OH2 2004   6.196   5.089   6.834
  688TIP3    H1 2005   6.260   5.077   6.904
  688TIP3    H2 2006   6.218   5.022   6.770
  689TIP3   OH2 2007   7.087   5.034   5.402
  689TIP3    H1 2008   7.004   5.034   5.355
  689TIP3    H2 2009   7.150   5.069   5.340
  690TIP3   OH2 2010   3.002   0.942   4.380
  690TIP3    H1 2011   3.037   1.026   4.351
  690TIP3    H2 2012   2.923   0.929   4.327
  691TIP3   OH2 2013   6.271   4.045   2.579
  691TIP3    H1 2014   6.263   3.971   2.640
  691TIP3    H2 2015   6.334   4.015   2.513
  692TIP3   OH2 2016   1.293   1.188   6.685
  692TIP3    H1 2017   1.284   1.124   6.614
  692TIP3    H2 2018   1.316   1.270   6.640
  693TIP3   OH2 2019   0.755   1.162   1.503
  693TIP3    H1 2020   0.810   1.102   1.554
  693TIP3    H2 2021   0.810   1.238   1.487
  694TIP3   OH2 2022   4.130   5.888   5.056
  694TIP3    H1 2023   4.143   5.864   4.964
  694TIP3    H2 2024   4.036   5.906   5.063
  695TIP3   OH2 2025   5.395   1.123   2.836
  695TIP3    H1 2026   5.384   1.150   2.927
  695TIP3    H2 2027   5.376   1.029   2.836
  696TIP3   OH2 2028   3.999   2.379   2.486
  696TIP3    H1 2029   3.956   2.294   2.474
  696TIP3    H2 2030   4.060   2.386   2.413
  697TIP3   OH2 2031   7.911   4.386   2.787
  697TIP3    H1 2032   7.906   4.478   2.761
  697TIP3    H2 2033   8.005   4.367   2.792
  698TIP3   OH2 2034   0.373   7.287   1.776
  698TIP3    H1 2035   0.437   7.323   1.715
  698TIP3    H2 2036   0.308   7.244   1.720
  699TIP3   OH2 2037   6.499   0.035   2.555
  699TIP3    H1 2038   6.444  -0.039   2.582
  699TIP3    H2 2039   6.503   0.028   2.460
  700TIP3   OH2 2040   6.699   3.104   2.053
  700TIP3    H1 2041   6.666   3.039   2.115
  700TIP3    H2 2042   6.717   3.182   2.105
  701TIP3   OH2 2043   3.844   2.972   2.460
  701TIP3    H1 2044   3.798   3.035   2.404
  701TIP3    H2 2045   3.808   2.987   2.547
  702TIP3   OH2 2046   6.747   5.407   1.004
  702TIP3    H1 2047   6.749   5.312   0.998
  702TIP3    H2 2048   6.729   5.436   0.914
  703TIP3   OH2 2049   0.786   7.017   4.028
  703TIP3    H1 2050   0.778   7.106   3.994
  703TIP3    H2 2051   0.868   7.017   4.078
  704TIP3   OH2 2052   7.043   4.771   6.379
  704TIP3    H1 2053   7.066   4.712   6.308
  704TIP3    H2 2054   7.117   4.831   6.386
  705TIP3   OH2 2055   8.397   3.833   4.472
  705TIP3    H1 2056   8.337   3.766   4.439
  705TIP3    H2 2057   8.453   3.853   4.397
  706TIP3   OH2 2058   6.933   7.903   5.738
  706TIP3    H1 2059   6.914   7.825   5.791
  706TIP3    H2 2060   6.987   7.871   5.666
  707TIP3   OH2 2061   7.884   1.189   2.304
  707TIP3    H1 2062   7.797   1.216   2.335
  707TIP3    H2 2063   7.939   1.192   2.382
  708TIP3   OH2 2064   3.516   0.279   6.810
  708TIP3    H1 2065   3.595   0.247   6.767
  708TIP3    H2 2066   3.454   0.206   6.806
  709TIP3   OH2 2067   2.851   1.973   5.842
  709TIP3    H1 2068   2.895   2.056   5.859
  709TIP3    H2 2069   2.917   1.921   5.795
  710TIP3   OH2 2070   4.179   0.077   0.588
  710TIP3    H1 2071   4.084   0.073   0.599
  710TIP3    H2 2072   4.191   0.081   0.493
  711TIP3   OH2 2073   0.191   3.349   0.656
  711TIP3    H1 2074   0.098   3.327   0.657
  711TIP3    H2 2075   0.207   3.384   0.569
  712TIP3   OH2 2076   3.925   5.323   6.272
  712TIP3    H1 2077   3.906   5.410   6.306
  712TIP3    H2 2078   3.893   5.263   6.340
  713TIP3   OH2 2079   1.676   0.172   5.286
  713TIP3    H1 2080   1.764   0.177   5.248
  713TIP3    H2 2081   1.677   0.090   5.337
  714TIP3   OH2 2082   7.862   0.441   3.934
  714TIP3    H1 2083   7.887   0.526   3.900
  714TIP3    H2 2084   7.943   0.390   3.935
  715TIP3   OH2 2085   2.160   5.158   3.501
  715TIP3    H1 2086   2.169   5.241   3.454
  715TIP3    H2 2087   2.176   5.091   3.434
  716TIP3   OH2 2088   2.276   3.718   2.672
  716TIP3    H1 2089   2.252   3.636   2.715
  716TIP3    H2 2090   2.371   3.717   2.669
  717TIP3   OH2 2091   7.224   5.745   5.748
  717TIP3    H1 2092   7.275   5.679   5.701
  717TIP3    H2 2093   7.143   5.700   5.772
  718TIP3   OH2 2094   4.028   6.113   6.275
  718TIP3    H1 2095   3.955   6.054   6.257
  718TIP3    H2 2096   3.990   6.201   6.273
  719TIP3   OH2 2097   7.473   6.711   4.943
  719TIP3    H1 2098   7.444   6.663   4.866
  719TIP3    H2 2099   7.402   6.773   4.961
  720TIP3   OH2 2100   3.078   7.119   4.375
  720TIP3    H1 2101   3.045   7.029   4.369
  720TIP3    H2 2102   3.049   7.150   4.461
  721TIP3   OH2 2103   3.694   1.067   6.454
  721TIP3    H1 2104   3.678   1.161   6.465
  721TIP3    H2 2105   3.786   1.055   6.478
  722TIP3   OH2 2106   6.285   3.474   1.055
  722TIP3    H1 2107   6.220   3.527   1.008
  722TIP3    H2 2108   6.273   3.386   1.020
  723TIP3   OH2 2109   4.003   5.502   1.123
  723TIP3    H1 2110   3.910   5.480   1.114
  723TIP3    H2 2111   4.049   5.427   1.086
  724TIP3   OH2 2112   0.206   0.404   1.479
  724TIP3    H1 2113   0.256   0.458   1.418
  724TIP3    H2 2114   0.250   0.417   1.563
  725TIP3   OH2 2115   5.737   3.135   5.184
  725TIP3    H1 2116   5.718   3.193   5.110
  725TIP3    H2 2117   5.652   3.102   5.212
  726TIP3   OH2 2118   5.759   7.317   0.073
  726TIP3    H1 2119   5.670   7.303   0.040
  726TIP3    H2 2120   5.814   7.260   0.019
  727TIP3   OH2 2121   3.827   0.177   3.429
  727TIP3    H1 2122   3.841   0.092   3.470
  727TIP3    H2 2123   3.912   0.220   3.432
  728TIP3   OH2 2124   1.193   7.857   1.073
  728TIP3    H1 2125   1.241   7.915   1.014
  728TIP3    H2 2126   1.235   7.870   1.158
  729TIP3   OH2 2127   7.606   1.224   2.259
  729TIP3    H1 2128   7.604   1.281   2.181
  729TIP3    H2 2129   7.575   1.139   2.228
  730TIP3   OH2 2130   2.396   4.854   3.786
  730TIP3    H1 2131   2.465   4.918   3.773
  730TIP3    H2 2132   2.322   4.888   3.734
  731TIP3   OH2 2133   2.079   6.126   4.040
  731TIP3    H1 2134   2.012   6.065   4.006
  731TIP3    H2 2135   2.068   6.205   3.987
  732TIP3   OH2 2136   7.887   0.173   6.724
  732TIP3    H1 2137   7.918   0.254   6.685
  732TIP3    H2 2138   7.961   0.142   6.777
  733TIP3   OH2 2139   6.972   0.631   4.885
  733TIP3    H1 2140   6.932   0.698   4.940
  733TIP3    H2 2141   7.008   0.567   4.946
  734TIP3   OH2 2142   5.966   1.203   3.062
  734TIP3    H1 2143   5.952   1.286   3.015
  734TIP3    H2 2144   5.924   1.137   3.006
  735TIP3   OH2 2145   2.435   7.838   6.788
  735TIP3    H1 2146   2.368   7.784   6.746
  735TIP3    H2 2147   2.421   7.824   6.882
  736TIP3   OH2 2148   6.250   5.413   5.545
  736TIP3    H1 2149   6.240   5.500   5.584
  736TIP3    H2 2150   6.335   5.416   5.501
  737TIP3   OH2 2151   4.771   4.860   2.899
  737TIP3    H1 2152   4.761   4.785   2.841
  737TIP3    H2 2153   4.690   4.861   2.950
  738TIP3   OH2 2154   0.620   2.711   5.107
  738TIP3    H1 2155   0.685   2.672   5.049
  738TIP3    H2 2156   0.662   2.712   5.193
  739TIP3   OH2 2157   7.249   1.075   4.078
  739TIP3    H1 2158   7.208   1.104   4.160
  739TIP3    H2 2159   7.203   0.994   4.056
  740TIP3   OH2 2160   1.228   1.730   5.856
  740TIP3    H1 2161   1.253   1.733   5.949
  740TIP3    H2 2162   1.206   1.820   5.835
  741TIP3   OH2 2163   6.354   1.629   4.633
  741TIP3    H1 2164   6.397   1.713   4.650
  741TIP3    H2 2165   6.388   1.571   4.701
  742TIP3   OH2 2166   0.380   6.194   6.413
  742TIP3    H1 2167   0.378   6.246   6.333
  742TIP3    H2 2168   0.289   6.167   6.426
  743TIP3   OH2 2169   0.337   4.575   0.859
  743TIP3    H1 2170   0.262   4.577   0.918
  743TIP3    H2 2171   0.367   4.666   0.855
  744TIP3   OH2 2172   7.422   3.911   3.846
  744TIP3    H1 2173   7.376   3.932   3.764
  744TIP3    H2 2174   7.356   3.923   3.914
  745TIP3   OH2 2175   4.086   2.426   1.642
  745TIP3    H1 2176   4.092   2.389   1.730
  745TIP3    H2 2177   3.993   2.429   1.623
  746TIP3   OH2 2178   0.370   3.967   2.876
  746TIP3    H1 2179   0.365   3.924   2.791
  746TIP3    H2 2180   0.464   3.978   2.891
  747TIP3   OH2 2181   3.638   4.590   3.758
  747TIP3    H1 2182   3.733   4.582   3.767
  747TIP3    H2 2183   3.618   4.543   3.677
  748TIP3   OH2 2184   6.967   0.709   2.493
  748TIP3    H1 2185   7.056   0.675   2.502
  748TIP3    H2 2186   6.915   0.656   2.552
  749TIP3   OH2 2187   1.743   3.866   0.336
  749TIP3    H1 2188   1.752   3.813   0.415
  749TIP3    H2 2189   1.822   3.920   0.334
  750TIP3   OH2 2190   2.716   6.212   6.305
  750TIP3    H1 2191   2.630   6.171   6.294
  750TIP3    H2 2192   2.702   6.304   6.282
  751TIP3   OH2 2193   2.792   7.008   3.424
  751TIP3    H1 2194   2.706   6.972   3.402
  751TIP3    H2 2195   2.840   7.008   3.341
  752TIP3   OH2 2196   7.301   0.197   1.483
  752TIP3    H1 2197   7.261   0.283   1.495
  752TIP3    H2 2198   7.233   0.135   1.509
  753TIP3   OH2 2199   6.446   2.505   2.035
  753TIP3    H1 2200   6.351   2.493   2.040
  753TIP3    H2 2201   6.473   2.513   2.127
  754TIP3   OH2 2202   3.864   0.106   5.685
  754TIP3    H1 2203   3.810   0.118   5.763
  754TIP3    H2 2204   3.942   0.059   5.717
  755TIP3   OH2 2205   0.602   4.784   4.497
  755TIP3    H1 2206   0.599   4.840   4.419
  755TIP3    H2 2207   0.537   4.821   4.556
  756TIP3   OH2 2208   6.108   7.767   3.008
  756TIP3    H1 2209   6.030   7.808   3.045
  756TIP3    H2 2210   6.180   7.793   3.067
  757TIP3   OH2 2211   3.303   5.510   3.548
  757TIP3    H1 2212   3.283   5.587   3.601
  757TIP3    H2 2213   3.332   5.546   3.464
  758TIP3   OH2 2214   0.233   0.814   2.749
  758TIP3    H1 2215   0.209   0.727   2.718
  758TIP3    H2 2216   0.205   0.816   2.840
  759TIP3   OH2 2217   2.308   1.228   1.590
  759TIP3    H1 2218   2.253   1.212   1.666
  759TIP3    H2 2219   2.247   1.260   1.523
  760TIP3   OH2 2220   6.915   6.979   2.694
  760TIP3    H1 2221   6.883   6.889   2.681
  760TIP3    H2 2222   6.956   7.002   2.611
  761TIP3   OH2 2223   7.350   5.971   5.671
  761TIP3    H1 2224   7.308   5.892   5.704
  761TIP3    H2 2225   7.307   6.043   5.717
  762TIP3   OH2 2226   6.998   6.682   0.384
  762TIP3    H1 2227   7.057   6.737   0.333
  762TIP3    H2 2228   6.911   6.716   0.364
  763TIP3   OH2 2229   3.082   2.467   0.500
  763TIP3    H1 2230   3.078   2.498   0.410
  763TIP3    H2 2231   3.175   2.459   0.519
  764TIP3   OH2 2232   1.978   3.266   5.456
  764TIP3    H1 2233   1.886   3.272   5.483
  764TIP3    H2 2234   2.018   3.346   5.490
  765TIP3   OH2 2235   3.777   4.504   5.955
  765TIP3    H1 2236   3.811   4.591   5.936
  765TIP3    H2 2237   3.816   4.480   6.039
  766TIP3   OH2 2238   3.494   6.354   2.750
  766TIP3    H1 2239   3.522   6.322   2.836
  766TIP3    H2 2240   3.449   6.436   2.767
  767TIP3   OH2 2241   7.818   3.115   3.585
  767TIP3    H1 2242   7.869   3.197   3.582
  767TIP3    H2 2243   7.728   3.143   3.571
  768TIP3   OH2 2244   2.301   7.152   4.711
  768TIP3    H1 2245   2.237   7.083   4.695
  768TIP3    H2 2246   2.272   7.225   4.657
  769TIP3   OH2 2247   2.529   1.771   6.600
  769TIP3    H1 2248   2.487   1.694   6.561
  769TIP3    H2 2249   2.470   1.797   6.671
  770TIP3   OH2 2250   4.734   3.257   5.346
  770TIP3    H1 2251   4.805   3.320   5.359
  770TIP3    H2 2252   4.741   3.231   5.255
  771TIP3   OH2 2253   8.383   2.699   6.646
  771TIP3    H1 2254   8.298   2.676   6.684
  771TIP3    H2 2255   8.405   2.624   6.590
  772TIP3   OH2 2256  -0.027   0.289   0.515
  772TIP3    H1 2257   0.059   0.258   0.543
  772TIP3    H2 2258  -0.021   0.384   0.517
  773TIP3   OH2 2259   7.487   6.669   2.317
  773TIP3    H1 2260   7.541   6.704   2.246
  773TIP3    H2 2261   7.551   6.628   2.377
  774TIP3   OH2 2262   5.783   6.152   4.459
  774TIP3    H1 2263   5.724   6.080   4.436
  774TIP3    H2 2264   5.818   6.128   4.545
  775TIP3   OH2 2265   1.207   4.964   2.774
  775TIP3    H1 2266   1.202   4.869   2.766
  775TIP3    H2 2267   1.122   4.989   2.811
  776TIP3   OH2 2268   1.142   0.469   0.856
  776TIP3    H1 2269   1.139   0.374   0.868
  776TIP3    H2 2270   1.053   0.499   0.875
  777TIP3   OH2 2271   7.450   5.677   0.841
  777TIP3    H1 2272   7.375   5.629   0.875
  777TIP3    H2 2273   7.442   5.670   0.746
  778TIP3   OH2 2274   1.999   4.417   1.350
  778TIP3    H1 2275   2.065   4.351   1.370
  778TIP3    H2 2276   1.948   4.425   1.431
  779TIP3   OH2 2277   1.025   0.614   4.413
  779TIP3    H1 2278   1.016   0.556   4.337
  779TIP3    H2 2279   1.007   0.701   4.379
  780TIP3   OH2 2280   4.967   5.786   0.266
  780TIP3    H1 2281   4.926   5.808   0.349
  780TIP3    H2 2282   5.061   5.786   0.284
  781TIP3   OH2 2283   6.328   7.520   4.495
  781TIP3    H1 2284   6.329   7.448   4.558
  781TIP3    H2 2285   6.420   7.533   4.472
  782TIP3   OH2 2286   7.753   0.711   4.767
  782TIP3    H1 2287   7.835   0.689   4.812
  782TIP3    H2 2288   7.703   0.630   4.766
  783TIP3   OH2 2289   1.704   7.479   1.517
  783TIP3    H1 2290   1.752   7.517   1.590
  783TIP3    H2 2291   1.718   7.541   1.445
  784TIP3   OH2 2292   8.229   7.316   5.247
  784TIP3    H1 2293   8.161   7.250   5.262
  784TIP3    H2 2294   8.277   7.321   5.329
  785TIP3   OH2 2295   8.306   2.461   0.799
  785TIP3    H1 2296   8.314   2.501   0.713
  785TIP3    H2 2297   8.256   2.381   0.784
  786TIP3   OH2 2298   5.958   6.674   3.316
  786TIP3    H1 2299   5.994   6.731   3.248
  786TIP3    H2 2300   6.005   6.591   3.305
  787TIP3   OH2 2301   2.064   2.331   1.978
  787TIP3    H1 2302   1.972   2.338   1.953
  787TIP3    H2 2303   2.104   2.411   1.943
  788TIP3   OH2 2304   6.761   5.715   6.233
  788TIP3    H1 2305   6.723   5.646   6.178
  788TIP3    H2 2306   6.818   5.668   6.294
  789TIP3   OH2 2307   3.444   1.526   5.553
  789TIP3    H1 2308   3.535   1.507   5.533
  789TIP3    H2 2309   3.428   1.612   5.515
  790TIP3   OH2 2310   3.519   4.749   6.071
  790TIP3    H1 2311   3.537   4.843   6.077
  790TIP3    H2 2312   3.540   4.726   5.980
  791TIP3   OH2 2313   5.399   5.057   1.609
  791TIP3    H1 2314   5.459   5.102   1.549
  791TIP3    H2 2315   5.347   5.127   1.648
  792TIP3   OH2 2316   5.996   6.179   2.285
  792TIP3    H1 2317   6.001   6.091   2.322
  792TIP3    H2 2318   5.999   6.237   2.361
  793TIP3   OH2 2319   1.159   2.883   3.973
  793TIP3    H1 2320   1.224   2.873   3.904
  793TIP3    H2 2321   1.161   2.799   4.020
  794TIP3   OH2 2322   0.945   2.790   3.562
  794TIP3    H1 2323   1.038   2.788   3.538
  794TIP3    H2 2324   0.904   2.846   3.495
  795TIP3   OH2 2325   7.046   3.424   0.237
  795TIP3    H1 2326   7.021   3.410   0.145
  795TIP3    H2 2327   7.135   3.389   0.242
  796TIP3   OH2 2328   1.509   1.963   4.895
  796TIP3    H1 2329   1.558   1.915   4.961
  796TIP3    H2 2330   1.542   2.053   4.900
  797TIP3   OH2 2331   1.566   7.209   2.145
  797TIP3    H1 2332   1.518   7.220   2.228
  797TIP3    H2 2333   1.643   7.158   2.168
  798TIP3   OH2 2334   7.182   5.670   5.108
  798TIP3    H1 2335   7.097   5.683   5.148
  798TIP3    H2 2336   7.216   5.758   5.094
  799TIP3   OH2 2337   1.463   2.048   0.649
  799TIP3    H1 2338   1.559   2.046   0.655
  799TIP3    H2 2339   1.436   1.960   0.674
  800TIP3   OH2 2340   4.061   0.994   6.385
  800TIP3    H1 2341   4.119   0.918   6.389
  800TIP3    H2 2342   4.071   1.026   6.295
  801TIP3   OH2 2343   0.795   0.467   0.567
  801TIP3    H1 2344   0.762   0.403   0.504
  801TIP3    H2 2345   0.878   0.498   0.529
  802TIP3   OH2 2346   4.008   7.821   5.108
  802TIP3    H1 2347   3.914   7.834   5.124
  802TIP3    H2 2348   4.028   7.738   5.152
  803TIP3   OH2 2349   2.567   7.007   1.238
  803TIP3    H1 2350   2.553   7.061   1.160
  803TIP3    H2 2351   2.538   6.920   1.212
  804TIP3   OH2 2352   7.516   2.458   0.049
  804TIP3    H1 2353   7.574   2.386   0.075
  804TIP3    H2 2354   7.446   2.414   0.000
  805TIP3   OH2 2355   3.960   7.096   2.465
  805TIP3    H1 2356   3.974   7.067   2.375
  805TIP3    H2 2357   3.866   7.115   2.470
  806TIP3   OH2 2358   7.658   7.442   0.992
  806TIP3    H1 2359   7.566   7.419   0.989
  806TIP3    H2 2360   7.679   7.470   0.903
  807TIP3   OH2 2361   6.976   7.420   1.145
  807TIP3    H1 2362   7.001   7.503   1.104
  807TIP3    H2 2363   6.884   7.431   1.167
  808TIP3   OH2 2364   6.799   4.065   6.422
  808TIP3    H1 2365   6.893   4.048   6.435
  808TIP3    H2 2366   6.759   3.978   6.428
  809TIP3   OH2 2367   6.269   5.606   4.425
  809TIP3    H1 2368   6.184   5.635   4.458
  809TIP3    H2 2369   6.279   5.654   4.342
  810TIP3   OH2 2370   6.762   4.753   5.683
  810TIP3    H1 2371   6.781   4.677   5.737
  810TIP3    H2 2372   6.845   4.800   5.677
  811TIP3   OH2 2373   6.736   2.953   3.644
  811TIP3    H1 2374   6.703   2.896   3.575
  811TIP3    H2 2375   6.728   3.041   3.608
  812TIP3   OH2 2376   6.171   4.818   0.770
  812TIP3    H1 2377   6.123   4.801   0.688
  812TIP3    H2 2378   6.103   4.822   0.837
  813TIP3   OH2 2379   2.172   2.576   3.070
  813TIP3    H1 2380   2.256   2.563   3.115
  813TIP3    H2 2381   2.178   2.663   3.032
  814TIP3   OH2 2382   4.058   2.652   0.335
  814TIP3    H1 2383   4.113   2.575   0.349
  814TIP3    H2 2384   4.054   2.662   0.240
  815TIP3   OH2 2385   3.364   6.903   4.604
  815TIP3    H1 2386   3.384   6.834   4.667
  815TIP3    H2 2387   3.277   6.881   4.571
  816TIP3   OH2 2388   6.567   5.177   3.054
  816TIP3    H1 2389   6.480   5.182   3.015
  816TIP3    H2 2390   6.571   5.252   3.114
  817TIP3   OH2 2391   0.438   5.247   5.923
  817TIP3    H1 2392   0.421   5.153   5.931
  817TIP3    H2 2393   0.525   5.253   5.885
  818TIP3   OH2 2394   7.707   3.865   4.934
  818TIP3    H1 2395   7.788   3.916   4.923
  818TIP3    H2 2396   7.652   3.891   4.861
  819TIP3   OH2 2397   4.716   1.521   5.871
  819TIP3    H1 2398   4.633   1.505   5.828
  819TIP3    H2 2399   4.781   1.474   5.818
  820TIP3   OH2 2400   5.241   3.853   2.389
  820TIP3    H1 2401   5.236   3.928   2.448
  820TIP3    H2 2402   5.193   3.784   2.434
  821TIP3   OH2 2403   0.591   5.190   6.297
  821TIP3    H1 2404   0.601   5.095   6.292
  821TIP3    H2 2405   0.599   5.210   6.391
  822TIP3   OH2 2406   1.274   2.744   6.077
  822TIP3    H1 2407   1.347   2.705   6.028
  822TIP3    H2 2408   1.310   2.761   6.164
  823TIP3   OH2 2409   0.217   4.059   6.093
  823TIP3    H1 2410   0.290   4.119   6.078
  823TIP3    H2 2411   0.205   4.014   6.009
  824TIP3   OH2 2412   5.356   7.309   4.500
  824TIP3    H1 2413   5.365   7.396   4.538
  824TIP3    H2 2414   5.291   7.321   4.430
  825TIP3   OH2 2415   0.321   7.713   3.231
  825TIP3    H1 2416   0.388   7.648   3.209
  825TIP3    H2 2417   0.371   7.789   3.259
  826TIP3   OH2 2418   0.112   0.340   2.568
  826TIP3    H1 2419   0.127   0.325   2.474
  826TIP3    H2 2420   0.021   0.367   2.573
  827TIP3   OH2 2421   7.858   1.958   4.314
  827TIP3    H1 2422   7.852   2.052   4.329
  827TIP3    H2 2423   7.766   1.930   4.304
  828TIP3   OH2 2424   3.491   0.085   5.687
  828TIP3    H1 2425   3.424   0.045   5.743
  828TIP3    H2 2426   3.500   0.024   5.613
  829TIP3   OH2 2427   4.900   3.445   2.760
  829TIP3    H1 2428   4.883   3.531   2.800
  829TIP3    H2 2429   4.813   3.412   2.737
  830TIP3   OH2 2430   1.621   2.075   4.127
  830TIP3    H1 2431   1.637   2.028   4.208
  830TIP3    H2 2432   1.541   2.126   4.144
  831TIP3   OH2 2433   4.385   6.987   1.648
  831TIP3    H1 2434   4.412   6.969   1.738
  831TIP3    H2 2435   4.377   6.900   1.608
  832TIP3   OH2 2436   6.307   3.499   5.800
  832TIP3    H1 2437   6.359   3.563   5.848
  832TIP3    H2 2438   6.282   3.435   5.867
  833TIP3   OH2 2439   3.798   3.028   6.204
  833TIP3    H1 2440   3.847   3.066   6.277
  833TIP3    H2 2441   3.730   2.975   6.246
  834TIP3   OH2 2442   0.879   0.841   1.934
  834TIP3    H1 2443   0.865   0.912   1.998
  834TIP3    H2 2444   0.909   0.885   1.855
  835TIP3   OH2 2445   4.442   4.446   4.460
  835TIP3    H1 2446   4.385   4.422   4.533
  835TIP3    H2 2447   4.397   4.413   4.383
  836TIP3   OH2 2448   8.205   7.279   2.729
  836TIP3    H1 2449   8.128   7.318   2.688
  836TIP3    H2 2450   8.267   7.352   2.736
  837TIP3   OH2 2451   5.777   0.684   0.625
  837TIP3    H1 2452   5.854   0.713   0.674
  837TIP3    H2 2453   5.708   0.676   0.691
  838TIP3   OH2 2454   4.792   1.892   0.626
  838TIP3    H1 2455   4.754   1.973   0.593
  838TIP3    H2 2456   4.735   1.867   0.699
  839TIP3   OH2 2457   6.849   2.043   1.270
  839TIP3    H1 2458   6.943   2.040   1.252
  839TIP3    H2 2459   6.831   2.136   1.284
  840TIP3   OH2 2460   0.288   4.518   5.331
  840TIP3    H1 2461   0.309   4.545   5.241
  840TIP3    H2 2462   0.327   4.431   5.339
  841TIP3   OH2 2463   6.479   3.269   5.656
  841TIP3    H1 2464   6.439   3.356   5.653
  841TIP3    H2 2465   6.527   3.262   5.573
  842TIP3   OH2 2466   4.487   3.576   4.579
  842TIP3    H1 2467   4.423   3.510   4.605
  842TIP3    H2 2468   4.489   3.572   4.484
  843TIP3   OH2 2469   2.201   4.871   0.682
  843TIP3    H1 2470   2.274   4.821   0.721
  843TIP3    H2 2471   2.159   4.914   0.757
  844TIP3   OH2 2472   4.833   4.147   0.157
  844TIP3    H1 2473   4.907   4.207   0.147
  844TIP3    H2 2474   4.847   4.080   0.091
  845TIP3   OH2 2475   4.799   5.207   1.718
  845TIP3    H1 2476   4.749   5.134   1.755
  845TIP3    H2 2477   4.889   5.192   1.747
  846TIP3   OH2 2478   1.295   7.363   6.867
  846TIP3    H1 2479   1.267   7.449   6.836
  846TIP3    H2 2480   1.298   7.308   6.789
  847TIP3   OH2 2481   0.927   4.368   1.912
  847TIP3    H1 2482   0.966   4.281   1.910
  847TIP3    H2 2483   0.999   4.426   1.938
  848TIP3   OH2 2484   4.755   1.188   5.001
  848TIP3    H1 2485   4.732   1.227   4.916
  848TIP3    H2 2486   4.842   1.150   4.987
  849TIP3   OH2 2487   6.286   1.497   5.351
  849TIP3    H1 2488   6.219   1.519   5.416
  849TIP3    H2 2489   6.319   1.582   5.321
  850TIP3   OH2 2490   0.251   5.262   3.996
  850TIP3    H1 2491   0.163   5.227   4.009
  850TIP3    H2 2492   0.256   5.337   4.055
  851TIP3   OH2 2493   1.736   6.445   5.156
  851TIP3    H1 2494   1.726   6.358   5.117
  851TIP3    H2 2495   1.710   6.433   5.247
  852TIP3   OH2 2496   4.304   7.274   3.861
  852TIP3    H1 2497   4.266   7.225   3.934
  852TIP3    H2 2498   4.377   7.220   3.831
  853TIP3   OH2 2499   3.435   5.349   2.039
  853TIP3    H1 2500   3.379   5.355   1.962
  853TIP3    H2 2501   3.381   5.307   2.106
  854TIP3   OH2 2502   2.648   7.584   3.609
  854TIP3    H1 2503   2.697   7.537   3.676
  854TIP3    H2 2504   2.657   7.677   3.632
  855TIP3   OH2 2505   4.118   7.329   2.711
  855TIP3    H1 2506   4.177   7.340   2.785
  855TIP3    H2 2507   4.038   7.374   2.738
  856TIP3   OH2 2508   6.389   6.383   5.961
  856TIP3    H1 2509   6.481   6.392   5.985
  856TIP3    H2 2510   6.382   6.293   5.928
  857TIP3   OH2 2511   2.907   5.168   0.132
  857TIP3    H1 2512   2.868   5.255   0.144
  857TIP3    H2 2513   2.858   5.111   0.190
  858TIP3   OH2 2514   1.302   1.907   3.310
  858TIP3    H1 2515   1.286   1.975   3.376
  858TIP3    H2 2516   1.381   1.936   3.264
  859TIP3   OH2 2517   6.972   6.483   2.264
  859TIP3    H1 2518   7.066   6.496   2.249
  859TIP3    H2 2519   6.949   6.409   2.209
  860TIP3   OH2 2520   6.258   4.225   2.787
  860TIP3    H1 2521   6.250   4.165   2.713
  860TIP3    H2 2522   6.349   4.216   2.815
  861TIP3   OH2 2523   1.852   2.987   1.705
  861TIP3    H1 2524   1.892   3.046   1.769
  861TIP3    H2 2525   1.784   2.941   1.755
  862TIP3   OH2 2526   2.612   5.548   5.655
  862TIP3    H1 2527   2.522   5.514   5.655
  862TIP3    H2 2528   2.642   5.539   5.565
  863TIP3   OH2 2529   6.687   6.370   5.997
  863TIP3    H1 2530   6.699   6.444   5.938
  863TIP3    H2 2531   6.757   6.379   6.061
  864TIP3   OH2 2532   0.491   1.281   5.414
  864TIP3    H1 2533   0.582   1.254   5.409
  864TIP3    H2 2534   0.481   1.350   5.349
  865TIP3   OH2 2535   4.645   2.193   0.594
  865TIP3    H1 2536   4.728   2.238   0.580
  865TIP3    H2 2537   4.600   2.200   0.510
  866TIP3   OH2 2538   6.040   7.591   6.104
  866TIP3    H1 2539   5.968   7.647   6.076
  866TIP3    H2 2540   6.000   7.505   6.119
  867TIP3   OH2 2541   4.337   0.109   3.343
  867TIP3    H1 2542   4.347   0.121   3.249
  867TIP3    H2 2543   4.271   0.041   3.352
  868TIP3   OH2 2544   2.118   3.038   4.334
  868TIP3    H1 2545   2.165   3.105   4.384
  868TIP3    H2 2546   2.118   2.961   4.391
  869TIP3   OH2 2547   1.093   4.338   0.761
  869TIP3    H1 2548   1.038   4.387   0.701
  869TIP3    H2 2549   1.173   4.391   0.769
  870TIP3   OH2 2550   5.954   3.387   0.266
  870TIP3    H1 2551   5.916   3.438   0.195
  870TIP3    H2 2552   6.022   3.334   0.224
  871TIP3   OH2 2553   6.017   6.283   3.611
  871TIP3    H1 2554   5.995   6.345   3.541
  871TIP3    H2 2555   6.047   6.339   3.683
  872TIP3   OH2 2556   6.552   5.880   3.809
  872TIP3    H1 2557   6.571   5.833   3.890
  872TIP3    H2 2558   6.609   5.956   3.811
  873TIP3   OH2 2559   6.439   6.078   1.154
  873TIP3    H1 2560   6.432   5.987   1.126
  873TIP3    H2 2561   6.508   6.115   1.099
  874TIP3   OH2 2562   1.724   6.252   2.535
  874TIP3    H1 2563   1.740   6.277   2.444
  874TIP3    H2 2564   1.701   6.333   2.579
  875TIP3   OH2 2565   0.677   7.704   3.118
  875TIP3    H1 2566   0.740   7.695   3.047
  875TIP3    H2 2567   0.612   7.635   3.101
  876TIP3   OH2 2568   3.410   6.583   4.842
  876TIP3    H1 2569   3.401   6.509   4.782
  876TIP3    H2 2570   3.383   6.548   4.927
  877TIP3   OH2 2571   2.894   4.855   3.090
  877TIP3    H1 2572   2.901   4.905   3.009
  877TIP3    H2 2573   2.904   4.920   3.160
  878TIP3   OH2 2574   6.893   4.020   6.722
  878TIP3    H1 2575   6.815   4.066   6.752
  878TIP3    H2 2576   6.867   3.928   6.719
  879TIP3   OH2 2577   1.504   0.375   2.566
  879TIP3    H1 2578   1.583   0.326   2.591
  879TIP3    H2 2579   1.538   0.455   2.527
  880TIP3   OH2 2580   0.215   1.760   1.299
  880TIP3    H1 2581   0.228   1.667   1.279
  880TIP3    H2 2582   0.288   1.804   1.255
  881TIP3   OH2 2583   2.360   6.531   5.720
  881TIP3    H1 2584   2.326   6.617   5.696
  881TIP3    H2 2585   2.314   6.508   5.800
  882TIP3   OH2 2586   4.560   0.977   0.325
  882TIP3    H1 2587   4.639   1.027   0.307
  882TIP3    H2 2588   4.590   0.886   0.335
  883TIP3   OH2 2589   4.418   1.476   2.455
  883TIP3    H1 2590   4.343   1.417   2.447
  883TIP3    H2 2591   4.494   1.419   2.449
  884TIP3   OH2 2592   0.533   1.958   1.395
  884TIP3    H1 2593   0.508   1.964   1.487
  884TIP3    H2 2594   0.544   2.049   1.367
  885TIP3   OH2 2595   7.634   5.395   3.731
  885TIP3    H1 2596   7.645   5.481   3.691
  885TIP3    H2 2597   7.665   5.407   3.821
  886TIP3   OH2 2598   4.776   2.740   0.443
  886TIP3    H1 2599   4.745   2.649   0.439
  886TIP3    H2 2600   4.696   2.792   0.447
  887TIP3   OH2 2601   3.283   0.360   5.550
  887TIP3    H1 2602   3.249   0.405   5.472
  887TIP3    H2 2603   3.334   0.287   5.514
  888TIP3   OH2 2604   1.571   5.302   5.071
  888TIP3    H1 2605   1.657   5.267   5.092
  888TIP3    H2 2606   1.547   5.354   5.148
  889TIP3   OH2 2607   1.773   4.538   6.041
  889TIP3    H1 2608   1.776   4.535   6.137
  889TIP3    H2 2609   1.706   4.474   6.017
  890TIP3   OH2 2610   1.545   2.593   4.935
  890TIP3    H1 2611   1.533   2.667   4.995
  890TIP3    H2 2612   1.460   2.550   4.932
  891TIP3   OH2 2613   3.260   3.858   5.873
  891TIP3    H1 2614   3.172   3.819   5.869
  891TIP3    H2 2615   3.303   3.813   5.945
  892TIP3   OH2 2616   1.935   4.676   3.834
  892TIP3    H1 2617   1.850   4.700   3.872
  892TIP3    H2 2618   1.914   4.611   3.767
  893TIP3   OH2 2619   0.210   7.293   5.350
  893TIP3    H1 2620   0.140   7.261   5.407
  893TIP3    H2 2621   0.290   7.285   5.403
  894TIP3   OH2 2622   8.408   1.338   0.603
  894TIP3    H1 2623   8.459   1.281   0.546
  894TIP3    H2 2624   8.322   1.343   0.561
  895TIP3   OH2 2625   4.270   6.076   6.174
  895TIP3    H1 2626   4.295   6.150   6.119
  895TIP3    H2 2627   4.188   6.102   6.215
  896TIP3   OH2 2628   0.721   5.475   1.145
  896TIP3    H1 2629   0.637   5.472   1.190
  896TIP3    H2 2630   0.718   5.402   1.083
  897TIP3   OH2 2631   7.978   5.892   3.518
  897TIP3    H1 2632   8.064   5.859   3.494
  897TIP3    H2 2633   7.916   5.827   3.484
  898TIP3   OH2 2634   6.543   1.330   5.045
  898TIP3    H1 2635   6.454   1.295   5.052
  898TIP3    H2 2636   6.562   1.365   5.132
  899TIP3   OH2 2637   7.805   2.221   2.598
  899TIP3    H1 2638   7.849   2.221   2.683
  899TIP3    H2 2639   7.864   2.269   2.540
  900TIP3   OH2 2640   6.642   2.378   3.016
  900TIP3    H1 2641   6.590   2.326   3.077
  900TIP3    H2 2642   6.716   2.322   2.993
  901TIP3   OH2 2643   4.945   0.067   2.699
  901TIP3    H1 2644   4.874   0.063   2.635
  901TIP3    H2 2645   4.970   0.160   2.701
  902TIP3   OH2 2646   4.485   3.813   4.944
  902TIP3    H1 2647   4.504   3.749   4.876
  902TIP3    H2 2648   4.558   3.875   4.940
  903TIP3   OH2 2649   1.689   0.075   2.634
  903TIP3    H1 2650   1.772   0.087   2.681
  903TIP3    H2 2651   1.706   0.107   2.546
  904TIP3   OH2 2652   6.256   2.901   6.038
  904TIP3    H1 2653   6.329   2.857   6.079
  904TIP3    H2 2654   6.243   2.981   6.089
  905TIP3   OH2 2655   6.567   5.812   4.260
  905TIP3    H1 2656   6.636   5.808   4.194
  905TIP3    H2 2657   6.497   5.861   4.219
  906TIP3   OH2 2658   1.348   4.632   0.103
  906TIP3    H1 2659   1.335   4.726   0.095
  906TIP3    H2 2660   1.348   4.600   0.013
  907TIP3   OH2 2661   1.771   6.250   0.905
  907TIP3    H1 2662   1.861   6.267   0.877
  907TIP3    H2 2663   1.718   6.267   0.828
  908TIP3   OH2 2664   5.649   7.526   1.010
  908TIP3    H1 2665   5.679   7.517   0.920
  908TIP3    H2 2666   5.563   7.568   1.003
  909TIP3   OH2 2667   3.215   4.210   1.217
  909TIP3    H1 2668   3.280   4.147   1.185
  909TIP3    H2 2669   3.207   4.273   1.146
  910TIP3   OH2 2670   4.025   3.563   5.215
  910TIP3    H1 2671   4.113   3.524   5.210
  910TIP3    H2 2672   4.022   3.624   5.141
  911TIP3   OH2 2673   2.413   3.605   4.516
  911TIP3    H1 2674   2.494   3.588   4.565
  911TIP3    H2 2675   2.368   3.672   4.567
  912TIP3   OH2 2676   1.855   0.889   0.548
  912TIP3    H1 2677   1.866   0.974   0.506
  912TIP3    H2 2678   1.882   0.902   0.638
  913TIP3   OH2 2679   0.463   3.009   0.381
  913TIP3    H1 2680   0.480   3.072   0.311
  913TIP3    H2 2681   0.425   3.062   0.452
  914TIP3   OH2 2682   6.261   7.820   5.186
  914TIP3    H1 2683   6.184   7.864   5.221
  914TIP3    H2 2684   6.245   7.727   5.203
  915TIP3   OH2 2685   3.467   1.979   1.014
  915TIP3    H1 2686   3.540   2.031   0.980
  915TIP3    H2 2687   3.508   1.912   1.069
  916TIP3   OH2 2688   5.605   6.230   3.408
  916TIP3    H1 2689   5.527   6.219   3.354
  916TIP3    H2 2690   5.678   6.223   3.347
  917TIP3   OH2 2691   8.191   2.975   6.137
  917TIP3    H1 2692   8.235   2.926   6.207
  917TIP3    H2 2693   8.263   3.007   6.082
  918TIP3   OH2 2694   4.738   7.263   5.484
  918TIP3    H1 2695   4.826   7.276   5.448
  918TIP3    H2 2696   4.752   7.245   5.577
  919TIP3   OH2 2697   4.655   7.418   5.081
  919TIP3    H1 2698   4.601   7.344   5.109
  919TIP3    H2 2699   4.739   7.403   5.125
  920TIP3   OH2 2700   7.085   0.779   5.475
  920TIP3    H1 2701   7.063   0.870   5.495
  920TIP3    H2 2702   7.137   0.784   5.395
  921TIP3   OH2 2703   5.340   0.826   3.481
  921TIP3    H1 2704   5.325   0.769   3.556
  921TIP3    H2 2705   5.413   0.785   3.434
  922TIP3   OH2 2706   0.656   2.471   5.789
  922TIP3    H1 2707   0.742   2.496   5.757
  922TIP3    H2 2708   0.601   2.465   5.711
  923TIP3   OH2 2709   2.814   1.784   0.908
  923TIP3    H1 2710   2.748   1.778   0.977
  923TIP3    H2 2711   2.881   1.843   0.943
  924TIP3   OH2 2712   3.017   4.809   1.904
  924TIP3    H1 2713   3.009   4.768   1.990
  924TIP3    H2 2714   2.969   4.751   1.845
  925TIP3   OH2 2715   2.979   7.571   3.519
  925TIP3    H1 2716   3.035   7.521   3.460
  925TIP3    H2 2717   2.909   7.605   3.463
  926TIP3   OH2 2718   1.224   7.572   3.820
  926TIP3    H1 2719   1.237   7.636   3.749
  926TIP3    H2 2720   1.212   7.625   3.898
  927TIP3   OH2 2721   4.459   7.763   4.041
  927TIP3    H1 2722   4.415   7.819   4.105
  927TIP3    H2 2723   4.400   7.688   4.030
  928TIP3   OH2 2724   5.539   1.689   3.865
  928TIP3    H1 2725   5.453   1.692   3.905
  928TIP3    H2 2726   5.599   1.670   3.938
  929TIP3   OH2 2727   8.406   3.910   5.559
  929TIP3    H1 2728   8.324   3.863   5.577
  929TIP3    H2 2729   8.465   3.881   5.628
  930TIP3   OH2 2730   5.880   4.533   3.862
  930TIP3    H1 2731   5.827   4.461   3.896
  930TIP3    H2 2732   5.933   4.562   3.936
  931TIP3   OH2 2733   1.273   5.105   2.209
  931TIP3    H1 2734   1.188   5.104   2.165
  931TIP3    H2 2735   1.287   5.015   2.236
  932TIP3   OH2 2736   2.054   7.135   5.898
  932TIP3    H1 2737   2.066   7.130   5.993
  932TIP3    H2 2738   1.997   7.210   5.885
  933TIP3   OH2 2739   5.657   4.892   3.568
  933TIP3    H1 2740   5.659   4.909   3.662
  933TIP3    H2 2741   5.569   4.919   3.541
  934TIP3   OH2 2742   1.953   5.845   1.385
  934TIP3    H1 2743   1.939   5.927   1.431
  934TIP3    H2 2744   1.879   5.837   1.325
  935TIP3   OH2 2745   1.059   3.752   4.954
  935TIP3    H1 2746   0.992   3.750   4.885
  935TIP3    H2 2747   1.113   3.674   4.938
  936TIP3   OH2 2748   3.254   3.546   3.102
  936TIP3    H1 2749   3.227   3.620   3.156
  936TIP3    H2 2750   3.181   3.533   3.042
  937TIP3   OH2 2751   6.944   2.068   0.764
  937TIP3    H1 2752   6.853   2.090   0.784
  937TIP3    H2 2753   6.995   2.121   0.824
  938TIP3   OH2 2754   8.008   0.314   2.357
  938TIP3    H1 2755   8.026   0.240   2.299
  938TIP3    H2 2756   8.069   0.303   2.430
  939TIP3   OH2 2757   1.997   4.333   4.727
  939TIP3    H1 2758   2.088   4.310   4.708
  939TIP3    H2 2759   1.985   4.310   4.819
  940TIP3   OH2 2760   5.560   3.120   6.814
  940TIP3    H1 2761   5.494   3.188   6.804
  940TIP3    H2 2762   5.642   3.167   6.829
  941TIP3   OH2 2763   3.909   0.532   1.856
  941TIP3    H1 2764   3.989   0.551   1.806
  941TIP3    H2 2765   3.939   0.518   1.946
  942TIP3   OH2 2766   0.874   7.458   2.921
  942TIP3    H1 2767   0.843   7.378   2.962
  942TIP3    H2 2768   0.904   7.431   2.834
  943TIP3   OH2 2769   1.934   5.934   2.920
  943TIP3    H1 2770   2.019   5.893   2.936
  943TIP3    H2 2771   1.870   5.867   2.946
  944TIP3   OH2 2772   6.225   6.046   4.436
  944TIP3    H1 2773   6.145   6.100   4.439
  944TIP3    H2 2774   6.295   6.109   4.422
  945TIP3   OH2 2775   4.719   5.880   6.385
  945TIP3    H1 2776   4.773   5.952   6.350
  945TIP3    H2 2777   4.756   5.801   6.346
  946TIP3   OH2 2778   6.446   4.278   0.220
  946TIP3    H1 2779   6.460   4.373   0.213
  946TIP3    H2 2780   6.402   4.255   0.138
  947TIP3   OH2 2781   6.682   6.195   2.122
  947TIP3    H1 2782   6.619   6.266   2.107
  947TIP3    H2 2783   6.663   6.165   2.211
  948TIP3   OH2 2784   5.501   3.987   6.767
  948TIP3    H1 2785   5.572   4.052   6.777
  948TIP3    H2 2786   5.547   3.906   6.745
  949TIP3   OH2 2787   8.017   0.394   6.626
  949TIP3    H1 2788   7.988   0.382   6.536
  949TIP3    H2 2789   8.087   0.460   6.620
  950TIP3   OH2 2790   3.404   7.609   1.970
  950TIP3    H1 2791   3.452   7.586   1.892
  950TIP3    H2 2792   3.471   7.623   2.037
  951TIP3   OH2 2793   1.893   3.888   6.201
  951TIP3    H1 2794   1.835   3.910   6.128
  951TIP3    H2 2795   1.981   3.905   6.168
  952TIP3   OH2 2796   7.275   5.020   2.789
  952TIP3    H1 2797   7.223   5.002   2.711
  952TIP3    H2 2798   7.366   5.023   2.758
  953TIP3   OH2 2799   7.969   2.614   0.900
  953TIP3    H1 2800   7.896   2.556   0.879
  953TIP3    H2 2801   7.992   2.655   0.817
  954TIP3   OH2 2802   5.976   3.560   5.935
  954TIP3    H1 2803   5.924   3.616   5.993
  954TIP3    H2 2804   5.985   3.612   5.855
  955TIP3   OH2 2805   3.913   1.357   6.406
  955TIP3    H1 2806   3.855   1.413   6.458
  955TIP3    H2 2807   3.997   1.358   6.453
  956TIP3   OH2 2808   5.769   4.065   4.785
  956TIP3    H1 2809   5.705   4.009   4.741
  956TIP3    H2 2810   5.719   4.142   4.813
  957TIP3   OH2 2811   4.957   7.737   5.044
  957TIP3    H1 2812   4.907   7.710   4.967
  957TIP3    H2 2813   4.900   7.717   5.119
  958TIP3   OH2 2814   8.050   5.502   5.434
  958TIP3    H1 2815   8.118   5.474   5.496
  958TIP3    H2 2816   8.042   5.430   5.372
  959TIP3   OH2 2817   5.137   3.502   0.704
  959TIP3    H1 2818   5.053   3.538   0.677
  959TIP3    H2 2819   5.158   3.548   0.785
  960TIP3   OH2 2820   3.721   6.667   6.313
  960TIP3    H1 2821   3.723   6.601   6.383
  960TIP3    H2 2822   3.648   6.640   6.257
  961TIP3   OH2 2823   8.059   4.875   5.525
  961TIP3    H1 2824   7.966   4.892   5.514
  961TIP3    H2 2825   8.079   4.808   5.460
  962TIP3   OH2 2826   4.965   1.756   4.836
  962TIP3    H1 2827   4.977   1.827   4.773
  962TIP3    H2 2828   4.881   1.774   4.876
  963TIP3   OH2 2829   2.300   1.888   5.192
  963TIP3    H1 2830   2.310   1.924   5.103
  963TIP3    H2 2831   2.243   1.951   5.237
  964TIP3   OH2 2832   6.589   2.757   4.871
  964TIP3    H1 2833   6.541   2.840   4.868
  964TIP3    H2 2834   6.590   2.726   4.781
  965TIP3   OH2 2835   3.146   1.053   5.854
  965TIP3    H1 2836   3.177   1.111   5.785
  965TIP3    H2 2837   3.087   1.108   5.907
  966TIP3   OH2 2838   2.411   7.530   0.947
  966TIP3    H1 2839   2.408   7.438   0.973
  966TIP3    H2 2840   2.476   7.569   1.006
  967TIP3   OH2 2841   3.432   0.785   3.481
  967TIP3    H1 2842   3.461   0.760   3.393
  967TIP3    H2 2843   3.440   0.880   3.483
  968TIP3   OH2 2844   5.628   7.501   1.537
  968TIP3    H1 2845   5.722   7.486   1.525
  968TIP3    H2 2846   5.622   7.593   1.562
  969TIP3   OH2 2847   2.254   1.010   3.103
  969TIP3    H1 2848   2.226   0.978   3.017
  969TIP3    H2 2849   2.328   0.955   3.127
  970TIP3   OH2 2850   3.681   7.549   2.941
  970TIP3    H1 2851   3.599   7.597   2.927
  970TIP3    H2 2852   3.657   7.477   3.000
  971TIP3   OH2 2853   3.575   7.505   5.729
  971TIP3    H1 2854   3.667   7.530   5.721
  971TIP3    H2 2855   3.554   7.518   5.821
  972TIP3   OH2 2856   0.053   2.703   5.636
  972TIP3    H1 2857   0.025   2.658   5.716
  972TIP3    H2 2858   0.125   2.759   5.664
  973TIP3   OH2 2859   1.902   6.956   2.845
  973TIP3    H1 2860   1.894   7.050   2.831
  973TIP3    H2 2861   1.993   6.944   2.875
  974TIP3   OH2 2862   0.581   5.847   2.742
  974TIP3    H1 2863   0.631   5.788   2.797
  974TIP3    H2 2864   0.491   5.815   2.748
  975TIP3   OH2 2865   2.375   0.013   3.429
  975TIP3    H1 2866   2.409  -0.055   3.371
  975TIP3    H2 2867   2.358   0.087   3.371
  976TIP3   OH2 2868   4.732   0.221   4.984
  976TIP3    H1 2869   4.670   0.163   5.027
  976TIP3    H2 2870   4.763   0.279   5.054
  977TIP3   OH2 2871   2.546   3.999   4.945
  977TIP3    H1 2872   2.485   3.926   4.957
  977TIP3    H2 2873   2.579   4.018   5.033
  978TIP3   OH2 2874   3.774   1.731   4.902
  978TIP3    H1 2875   3.869   1.722   4.911
  978TIP3    H2 2876   3.762   1.810   4.850
  979TIP3   OH2 2877   4.160   0.497   5.764
  979TIP3    H1 2878   4.156   0.401   5.759
  979TIP3    H2 2879   4.213   0.522   5.688
  980TIP3   OH2 2880   6.890   5.024   1.932
  980TIP3    H1 2881   6.978   5.037   1.969
  980TIP3    H2 2882   6.834   5.082   1.983
  981TIP3   OH2 2883   2.650   3.218   1.314
  981TIP3    H1 2884   2.731   3.167   1.320
  981TIP3    H2 2885   2.642   3.239   1.221
  982TIP3   OH2 2886   1.722   4.119   4.828
  982TIP3    H1 2887   1.749   4.183   4.893
  982TIP3    H2 2888   1.802   4.073   4.803
  983TIP3   OH2 2889   4.878   2.944   5.221
  983TIP3    H1 2890   4.859   2.966   5.313
  983TIP3    H2 2891   4.848   2.853   5.212
  984TIP3   OH2 2892   6.361   2.252   6.786
  984TIP3    H1 2893   6.268   2.251   6.809
  984TIP3    H2 2894   6.371   2.180   6.724
  985TIP3   OH2 2895   7.467   7.658   3.112
  985TIP3    H1 2896   7.493   7.750   3.108
  985TIP3    H2 2897   7.541   7.614   3.155
  986TIP3   OH2 2898   5.072   3.131   3.179
  986TIP3    H1 2899   5.040   3.185   3.106
  986TIP3    H2 2900   5.158   3.100   3.150
  987TIP3   OH2 2901   7.005   4.319   6.407
  987TIP3    H1 2902   7.095   4.335   6.378
  987TIP3    H2 2903   6.969   4.260   6.341
  988TIP3   OH2 2904   3.337   4.171   0.174
  988TIP3    H1 2905   3.425   4.169   0.212
  988TIP3    H2 2906   3.278   4.156   0.249
  989TIP3   OH2 2907   3.458   2.674   2.158
  989TIP3    H1 2908   3.410   2.670   2.075
  989TIP3    H2 2909   3.390   2.691   2.223
  990TIP3   OH2 2910   2.332   1.892   6.772
  990TIP3    H1 2911   2.306   1.938   6.852
  990TIP3    H2 2912   2.329   1.959   6.704
  991TIP3   OH2 2913   1.076   2.633   5.373
  991TIP3    H1 2914   1.128   2.561   5.407
  991TIP3    H2 2915   1.140   2.695   5.338
  992TIP3   OH2 2916   7.407   1.741   1.819
  992TIP3    H1 2917   7.393   1.666   1.762
  992TIP3    H2 2918   7.324   1.788   1.818
  993TIP3   OH2 2919   3.839   3.809   5.182
  993TIP3    H1 2920   3.848   3.774   5.093
  993TIP3    H2 2921   3.797   3.738   5.231
  994TIP3   OH2 2922   4.809   0.689   0.171
  994TIP3    H1 2923   4.725   0.674   0.128
  994TIP3    H2 2924   4.874   0.653   0.109
  995TIP3   OH2 2925   2.380   7.038   3.590
  995TIP3    H1 2926   2.360   7.129   3.614
  995TIP3    H2 2927   2.345   7.029   3.502
  996TIP3   OH2 2928   8.033   0.335   3.692
  996TIP3    H1 2929   7.974   0.333   3.617
  996TIP3    H2 2930   7.983   0.295   3.763
  997TIP3   OH2 2931   3.958   7.311   4.739
  997TIP3    H1 2932   3.927   7.357   4.662
  997TIP3    H2 2933   4.046   7.281   4.716
  998TIP3   OH2 2934   4.539   2.857   1.392
  998TIP3    H1 2935   4.553   2.919   1.321
  998TIP3    H2 2936   4.570   2.902   1.470
  999TIP3   OH2 2937   1.129   0.132   4.431
  999TIP3    H1 2938   1.140   0.180   4.513
  999TIP3    H2 2939   1.195   0.169   4.373
 1000TIP3   OH2 2940   6.983   5.985   5.729
 1000TIP3    H1 2941   7.069   6.014   5.760
 1000TIP3    H2 2942   7.001   5.905   5.680
 1001TIP3   OH2 2943   0.524   0.959   1.813
 1001TIP3    H1 2944   0.531   0.871   1.851
 1001TIP3    H2 2945   0.536   1.018   1.887
 1002TIP3   OH2 2946   3.026   3.737   5.777
 1002TIP3    H1 2947   2.971   3.719   5.853
 1002TIP3    H2 2948   3.032   3.653   5.732
 1003TIP3   OH2 2949   7.860   0.177   4.190
 1003TIP3    H1 2950   7.865   0.082   4.178
 1003TIP3    H2 2951   7.782   0.203   4.140
 1004TIP3   OH2 2952   6.468   4.082   3.832
 1004TIP3    H1 2953   6.451   4.101   3.740
 1004TIP3    H2 2954   6.486   3.987   3.834
 1005TIP3   OH2 2955   1.943   5.721   4.272
 1005TIP3    H1 2956   1.990   5.649   4.312
 1005TIP3    H2 2957   2.011   5.779   4.238
 1006TIP3   OH2 2958   1.079   0.250   6.539
 1006TIP3    H1 2959   1.168   0.218   6.556
 1006TIP3    H2 2960   1.044   0.271   6.626
 1007TIP3   OH2 2961   3.880   7.009   1.620
 1007TIP3    H1 2962   3.921   7.088   1.656
 1007TIP3    H2 2963   3.800   6.997   1.671
 1008TIP3   OH2 2964   5.628   2.633   0.273
 1008TIP3    H1 2965   5.601   2.715   0.231
 1008TIP3    H2 2966   5.678   2.587   0.206
 1009TIP3   OH2 2967   4.370   5.858   5.450
 1009TIP3    H1 2968   4.456   5.865   5.492
 1009TIP3    H2 2969   4.309   5.842   5.523
 1010TIP3   OH2 2970   8.168   1.293   5.385
 1010TIP3    H1 2971   8.138   1.208   5.353
 1010TIP3    H2 2972   8.089   1.347   5.387
 1011TIP3   OH2 2973   4.270   5.324   3.052
 1011TIP3    H1 2974   4.323   5.374   2.990
 1011TIP3    H2 2975   4.180   5.337   3.022
 1012TIP3   OH2 2976   0.379   1.906   3.915
 1012TIP3    H1 2977   0.466   1.921   3.876
 1012TIP3    H2 2978   0.347   1.993   3.936
 1013TIP3   OH2 2979   8.354   4.092   3.197
 1013TIP3    H1 2980   8.420   4.088   3.127
 1013TIP3    H2 2981   8.271   4.105   3.151
 1014TIP3   OH2 2982   3.114   7.366   4.957
 1014TIP3    H1 2983   3.160   7.438   4.914
 1014TIP3    H2 2984   3.109   7.297   4.890
 1015TIP3   OH2 2985   2.159   2.924   6.768
 1015TIP3    H1 2986   2.085   2.932   6.828
 1015TIP3    H2 2987   2.230   2.972   6.811
 1016TIP3   OH2 2988   3.451   6.353   6.675
 1016TIP3    H1 2989   3.478   6.404   6.751
 1016TIP3    H2 2990   3.356   6.344   6.685
 1017TIP3   OH2 2991   4.846   2.735   5.590
 1017TIP3    H1 2992   4.891   2.810   5.552
 1017TIP3    H2 2993   4.863   2.741   5.684
 1018TIP3   OH2 2994   3.256   3.987   6.422
 1018TIP3    H1 2995   3.237   4.055   6.487
 1018TIP3    H2 2996   3.337   4.015   6.381
 1019TIP3   OH2 2997   0.616   4.247   2.649
 1019TIP3    H1 2998   0.654   4.248   2.561
 1019TIP3    H2 2999   0.592   4.155   2.664
 1020TIP3   OH2 3000   0.740   7.178   3.643
 1020TIP3    H1 3001   0.731   7.085   3.621
 1020TIP3    H2 3002   0.819   7.184   3.695
 1021TIP3   OH2 3003   6.627   0.039   6.701
 1021TIP3    H1 3004   6.670  -0.007   6.773
 1021TIP3    H2 3005   6.541   0.062   6.735
 1022TIP3   OH2 3006   7.257   6.164   6.573
 1022TIP3    H1 3007   7.248   6.167   6.668
 1022TIP3    H2 3008   7.344   6.200   6.556
 1023TIP3   OH2 3009   2.062   5.488   4.566
 1023TIP3    H1 3010   2.069   5.580   4.589
 1023TIP3    H2 3011   2.071   5.486   4.470
 1024TIP3   OH2 3012   6.235   0.873   3.648
 1024TIP3    H1 3013   6.315   0.876   3.701
 1024TIP3    H2 3014   6.171   0.924   3.698
 1025TIP3   OH2 3015   6.100   3.093   3.223
 1025TIP3    H1 3016   6.081   3.121   3.134
 1025TIP3    H2 3017   6.035   3.139   3.277
 1026TIP3   OH2 3018   7.093   1.295   1.917
 1026TIP3    H1 3019   7.187   1.277   1.910
 1026TIP3    H2 3020   7.071   1.338   1.835
 1027TIP3   OH2 3021   0.235   4.556   1.662
 1027TIP3    H1 3022   0.170   4.554   1.592
 1027TIP3    H2 3023   0.302   4.494   1.634
 1028TIP3   OH2 3024   4.783   5.847   0.086
 1028TIP3    H1 3025   4.795   5.759   0.051
 1028TIP3    H2 3026   4.861   5.862   0.140
 1029TIP3   OH2 3027   8.220   0.230   1.566
 1029TIP3    H1 3028   8.215   0.160   1.500
 1029TIP3    H2 3029   8.155   0.205   1.631
 1030TIP3   OH2 3030   7.432   5.494   6.068
 1030TIP3    H1 3031   7.486   5.474   5.992
 1030TIP3    H2 3032   7.437   5.416   6.123
 1031TIP3   OH2 3033   7.412   2.584   1.877
 1031TIP3    H1 3034   7.451   2.670   1.896
 1031TIP3    H2 3035   7.486   2.529   1.852
 1032TIP3   OH2 3036   0.748   2.483   6.050
 1032TIP3    H1 3037   0.674   2.478   6.111
 1032TIP3    H2 3038   0.712   2.454   5.966
 1033TIP3   OH2 3039   4.492   7.421   5.653
 1033TIP3    H1 3040   4.492   7.509   5.615
 1033TIP3    H2 3041   4.564   7.423   5.717
 1034TIP3   OH2 3042   7.325   2.506   2.112
 1034TIP3    H1 3043   7.356   2.530   2.025
 1034TIP3    H2 3044   7.230   2.502   2.103
 1035TIP3   OH2 3045   1.439   0.835   1.708
 1035TIP3    H1 3046   1.446   0.882   1.791
 1035TIP3    H2 3047   1.529   0.814   1.685
 1036TIP3   OH2 3048   5.323   0.527   3.470
 1036TIP3    H1 3049   5.270   0.578   3.530
 1036TIP3    H2 3050   5.400   0.581   3.452
 1037TIP3   OH2 3051   2.454   2.187   4.840
 1037TIP3    H1 3052   2.415   2.273   4.825
 1037TIP3    H2 3053   2.476   2.155   4.753
 1038TIP3   OH2 3054   4.118   0.253   1.627
 1038TIP3    H1 3055   4.149   0.303   1.702
 1038TIP3    H2 3056   4.130   0.161   1.652
 1039TIP3   OH2 3057   0.811   5.635   0.471
 1039TIP3    H1 3058   0.865   5.583   0.413
 1039TIP3    H2 3059   0.867   5.709   0.497
 1040TIP3   OH2 3060   4.502   3.556   2.384
 1040TIP3    H1 3061   4.430   3.493   2.391
 1040TIP3    H2 3062   4.577   3.504   2.357
 1041TIP3   OH2 3063   4.247   6.718   4.568
 1041TIP3    H1 3064   4.161   6.684   4.544
 1041TIP3    H2 3065   4.285   6.649   4.623
 1042TIP3   OH2 3066   4.669   2.121   5.967
 1042TIP3    H1 3067   4.614   2.199   5.973
 1042TIP3    H2 3068   4.757   2.154   5.952
 1043TIP3   OH2 3069   7.735   4.419   6.852
 1043TIP3    H1 3070   7.826   4.397   6.831
 1043TIP3    H2 3071   7.693   4.428   6.766
 1044TIP3   OH2 3072   0.166   0.634   2.549
 1044TIP3    H1 3073   0.226   0.655   2.477
 1044TIP3    H2 3074   0.168   0.538   2.553
 1045TIP3   OH2 3075   4.194   3.340   1.368
 1045TIP3    H1 3076   4.105   3.355   1.398
 1045TIP3    H2 3077   4.240   3.307   1.444
 1046TIP3   OH2 3078   1.833   5.539   2.508
 1046TIP3    H1 3079   1.929   5.542   2.502
 1046TIP3    H2 3080   1.811   5.605   2.574
 1047TIP3   OH2 3081   7.598   1.941   1.318
 1047TIP3    H1 3082   7.681   1.909   1.283
 1047TIP3    H2 3083   7.607   1.931   1.413
 1048TIP3   OH2 3084   3.802   0.757   2.242
 1048TIP3    H1 3085   3.861   0.823   2.279
 1048TIP3    H2 3086   3.792   0.783   2.150
 1049TIP3   OH2 3087   5.652   4.619   2.231
 1049TIP3    H1 3088   5.721   4.651   2.172
 1049TIP3    H2 3089   5.698   4.563   2.293
 1050TIP3   OH2 3090   0.875   0.316   0.186
 1050TIP3    H1 3091   0.945   0.361   0.234
 1050TIP3    H2 3092   0.840   0.252   0.248
 1051TIP3   OH2 3093   1.656   1.851   6.757
 1051TIP3    H1 3094   1.646   1.804   6.840
 1051TIP3    H2 3095   1.719   1.798   6.707
 1052TIP3   OH2 3096   0.951   3.839   2.799
 1052TIP3    H1 3097   0.989   3.902   2.739
 1052TIP3    H2 3098   0.918   3.768   2.744
 1053TIP3   OH2 3099   5.637   5.345   2.438
 1053TIP3    H1 3100   5.723   5.320   2.471
 1053TIP3    H2 3101   5.624   5.291   2.360
 1054TIP3   OH2 3102   1.629   6.376   5.515
 1054TIP3    H1 3103   1.578   6.457   5.507
 1054TIP3    H2 3104   1.703   6.400   5.572
 1055TIP3   OH2 3105   5.282   7.771   2.812
 1055TIP3    H1 3106   5.290   7.749   2.719
 1055TIP3    H2 3107   5.352   7.833   2.828
 1056TIP3   OH2 3108   0.172   3.676   1.611
 1056TIP3    H1 3109   0.166   3.632   1.696
 1056TIP3    H2 3110   0.121   3.620   1.552
 1057TIP3   OH2 3111   6.842   2.845   4.768
 1057TIP3    H1 3112   6.889   2.762   4.778
 1057TIP3    H2 3113   6.758   2.830   4.810
 1058TIP3   OH2 3114   5.671   1.548   2.113
 1058TIP3    H1 3115   5.636   1.496   2.186
 1058TIP3    H2 3116   5.648   1.638   2.135
 1059TIP3   OH2 3117   4.781   1.418   3.507
 1059TIP3    H1 3118   4.713   1.352   3.521
 1059TIP3    H2 3119   4.777   1.473   3.586
 1060TIP3   OH2 3120   6.883   1.610   0.339
 1060TIP3    H1 3121   6.808   1.553   0.358
 1060TIP3    H2 3122   6.944   1.593   0.411
 1061TIP3   OH2 3123   1.562   4.437   4.463
 1061TIP3    H1 3124   1.585   4.526   4.438
 1061TIP3    H2 3125   1.581   4.384   4.385
 1062TIP3   OH2 3126   6.163   4.158   0.240
 1062TIP3    H1 3127   6.166   4.062   0.249
 1062TIP3    H2 3128   6.087   4.174   0.184
 1063TIP3   OH2 3129   3.196   2.904   5.027
 1063TIP3    H1 3130   3.114   2.931   5.068
 1063TIP3    H2 3131   3.191   2.809   5.023
 1064TIP3   OH2 3132   8.196   1.618   5.042
 1064TIP3    H1 3133   8.278   1.667   5.040
 1064TIP3    H2 3134   8.128   1.686   5.043
 1065TIP3   OH2 3135   5.634   4.426   6.655
 1065TIP3    H1 3136   5.704   4.388   6.709
 1065TIP3    H2 3137   5.643   4.383   6.571
 1066TIP3   OH2 3138   4.011   5.202   4.573
 1066TIP3    H1 3139   3.942   5.266   4.588
 1066TIP3    H2 3140   3.976   5.143   4.506
 1067TIP3   OH2 3141   0.813   5.628   5.856
 1067TIP3    H1 3142   0.766   5.704   5.821
 1067TIP3    H2 3143   0.854   5.661   5.936
 1068TIP3   OH2 3144   7.962   1.143   0.079
 1068TIP3    H1 3145   7.913   1.061   0.089
 1068TIP3    H2 3146   7.918   1.189   0.008
 1069TIP3   OH2 3147   5.933   1.272   5.879
 1069TIP3    H1 3148   5.868   1.311   5.820
 1069TIP3    H2 3149   5.884   1.248   5.957
 1070TIP3   OH2 3150   3.208   6.181   2.760
 1070TIP3    H1 3151   3.188   6.274   2.749
 1070TIP3    H2 3152   3.204   6.145   2.672
 1071TIP3   OH2 3153   1.330   6.172   4.220
 1071TIP3    H1 3154   1.237   6.192   4.207
 1071TIP3    H2 3155   1.334   6.133   4.307
 1072TIP3   OH2 3156   4.188   3.730   5.023
 1072TIP3    H1 3157   4.168   3.652   4.971
 1072TIP3    H2 3158   4.278   3.752   4.999
 1073TIP3   OH2 3159   1.467   3.408   3.461
 1073TIP3    H1 3160   1.390   3.400   3.517
 1073TIP3    H2 3161   1.526   3.339   3.490
 1074TIP3   OH2 3162   5.187   7.085   2.467
 1074TIP3    H1 3163   5.169   7.063   2.558
 1074TIP3    H2 3164   5.247   7.160   2.472
 1075TIP3   OH2 3165   0.555   4.500   4.778
 1075TIP3    H1 3166   0.626   4.560   4.754
 1075TIP3    H2 3167   0.588   4.414   4.751
 1076TIP3   OH2 3168   2.216   0.567   3.451
 1076TIP3    H1 3169   2.186   0.554   3.361
 1076TIP3    H2 3170   2.247   0.657   3.454
 1077TIP3   OH2 3171   8.389   6.519   0.897
 1077TIP3    H1 3172   8.300   6.549   0.915
 1077TIP3    H2 3173   8.429   6.591   0.848
 1078TIP3   OH2 3174   1.711   0.742   6.907
 1078TIP3    H1 3175   1.676   0.699   6.829
 1078TIP3    H2 3176   1.731   0.831   6.878
 1079TIP3   OH2 3177   2.986   7.523   6.672
 1079TIP3    H1 3178   3.021   7.602   6.713
 1079TIP3    H2 3179   3.008   7.533   6.579
 1080TIP3   OH2 3180   1.611   5.059   6.487
 1080TIP3    H1 3181   1.670   4.987   6.510
 1080TIP3    H2 3182   1.572   5.086   6.570
 1081TIP3   OH2 3183   7.796   0.927   2.388
 1081TIP3    H1 3184   7.804   1.016   2.354
 1081TIP3    H2 3185   7.746   0.881   2.321
 1082TIP3   OH2 3186   5.191   4.396   5.719
 1082TIP3    H1 3187   5.156   4.340   5.788
 1082TIP3    H2 3188   5.122   4.397   5.652
 1083TIP3   OH2 3189   7.874   3.632   2.440
 1083TIP3    H1 3190   7.952   3.679   2.409
 1083TIP3    H2 3191   7.830   3.604   2.360
 1084TIP3   OH2 3192   7.409   0.402   0.388
 1084TIP3    H1 3193   7.359   0.372   0.312
 1084TIP3    H2 3194   7.499   0.376   0.369
 1085TIP3   OH2 3195   1.555   5.098   5.535
 1085TIP3    H1 3196   1.501   5.160   5.486
 1085TIP3    H2 3197   1.643   5.108   5.498
 1086TIP3   OH2 3198   6.618   3.421   4.207
 1086TIP3    H1 3199   6.648   3.330   4.209
 1086TIP3    H2 3200   6.560   3.429   4.282
 1087TIP3   OH2 3201   0.449   1.380   0.831
 1087TIP3    H1 3202   0.450   1.436   0.908
 1087TIP3    H2 3203   0.414   1.436   0.761
 1088TIP3   OH2 3204   7.944   2.212   1.539
 1088TIP3    H1 3205   7.860   2.168   1.550
 1088TIP3    H2 3206   7.921   2.300   1.508
 1089TIP3   OH2 3207   4.112   4.779   3.285
 1089TIP3    H1 3208   4.076   4.690   3.283
 1089TIP3    H2 3209   4.199   4.770   3.245
 1090TIP3   OH2 3210   3.522   4.280   2.805
 1090TIP3    H1 3211   3.580   4.249   2.736
 1090TIP3    H2 3212   3.434   4.266   2.770
 1091TIP3   OH2 3213   3.621   0.044   0.036
 1091TIP3    H1 3214   3.697   0.098   0.013
 1091TIP3    H2 3215   3.559   0.104   0.076
 1092TIP3   OH2 3216   3.233   2.125   0.711
 1092TIP3    H1 3217   3.243   2.084   0.625
 1092TIP3    H2 3218   3.218   2.051   0.770
 1093TIP3   OH2 3219   1.781   1.122   3.553
 1093TIP3    H1 3220   1.805   1.169   3.474
 1093TIP3    H2 3221   1.862   1.120   3.605
 1094TIP3   OH2 3222   7.424   7.336   4.910
 1094TIP3    H1 3223   7.372   7.289   4.845
 1094TIP3    H2 3224   7.425   7.278   4.986
 1095TIP3   OH2 3225   2.845   0.833   4.681
 1095TIP3    H1 3226   2.838   0.928   4.683
 1095TIP3    H2 3227   2.935   0.815   4.710
 1096TIP3   OH2 3228   1.823   2.955   4.678
 1096TIP3    H1 3229   1.885   2.887   4.704
 1096TIP3    H2 3230   1.807   2.938   4.585
 1097TIP3   OH2 3231   8.101   1.013   5.430
 1097TIP3    H1 3232   8.130   0.978   5.514
 1097TIP3    H2 3233   8.008   0.990   5.425
 1098TIP3   OH2 3234   0.513   6.589   4.643
 1098TIP3    H1 3235   0.531   6.543   4.725
 1098TIP3    H2 3236   0.482   6.675   4.670
 1099TIP3   OH2 3237   2.374   0.878   4.134
 1099TIP3    H1 3238   2.399   0.822   4.208
 1099TIP3    H2 3239   2.338   0.817   4.069
 1100TIP3   OH2 3240   6.824   0.541   2.667
 1100TIP3    H1 3241   6.831   0.497   2.752
 1100TIP3    H2 3242   6.731   0.565   2.661
 1101TIP3   OH2 3243   5.455   4.274   0.481
 1101TIP3    H1 3244   5.463   4.369   0.486
 1101TIP3    H2 3245   5.453   4.255   0.387
 1102TIP3   OH2 3246   0.384   5.031   3.514
 1102TIP3    H1 3247   0.305   5.008   3.563
 1102TIP3    H2 3248   0.363   5.009   3.423
 1103TIP3   OH2 3249   0.826   3.272   6.631
 1103TIP3    H1 3250   0.736   3.302   6.621
 1103TIP3    H2 3251   0.869   3.340   6.683
 1104TIP3   OH2 3252   2.025   2.929   2.093
 1104TIP3    H1 3253   2.030   3.011   2.043
 1104TIP3    H2 3254   2.088   2.941   2.164
 1105TIP3   OH2 3255   3.850   2.448   3.682
 1105TIP3    H1 3256   3.874   2.479   3.769
 1105TIP3    H2 3257   3.829   2.356   3.694
 1106TIP3   OH2 3258   0.172   4.183   2.869
 1106TIP3    H1 3259   0.219   4.242   2.928
 1106TIP3    H2 3260   0.212   4.097   2.884
 1107TIP3   OH2 3261   2.787   7.569   0.585
 1107TIP3    H1 3262   2.729   7.614   0.523
 1107TIP3    H2 3263   2.774   7.476   0.567
 1108TIP3   OH2 3264   4.491   5.020   5.610
 1108TIP3    H1 3265   4.494   4.984   5.522
 1108TIP3    H2 3266   4.398   5.023   5.632
 1109TIP3   OH2 3267   3.260   0.605   1.193
 1109TIP3    H1 3268   3.279   0.642   1.280
 1109TIP3    H2 3269   3.165   0.618   1.182
 1110TIP3   OH2 3270   0.736   1.233   5.613
 1110TIP3    H1 3271   0.734   1.166   5.680
 1110TIP3    H2 3272   0.644   1.258   5.600
 1111TIP3   OH2 3273   3.933   4.796   3.585
 1111TIP3    H1 3274   3.986   4.811   3.507
 1111TIP3    H2 3275   3.871   4.727   3.559
 1112TIP3   OH2 3276   2.607   4.347   1.705
 1112TIP3    H1 3277   2.630   4.435   1.734
 1112TIP3    H2 3278   2.615   4.350   1.609
 1113TIP3   OH2 3279   2.639   3.440   4.787
 1113TIP3    H1 3280   2.731   3.411   4.790
 1113TIP3    H2 3281   2.644   3.530   4.755
 1114TIP3   OH2 3282   3.724   6.671   5.975
 1114TIP3    H1 3283   3.644   6.656   5.925
 1114TIP3    H2 3284   3.773   6.735   5.924
 1115TIP3   OH2 3285   4.977   3.565   1.546
 1115TIP3    H1 3286   5.038   3.556   1.619
 1115TIP3    H2 3287   4.982   3.657   1.522
 1116TIP3   OH2 3288  -0.002   7.753   0.346
 1116TIP3    H1 3289  -0.082   7.757   0.293
 1116TIP3    H2 3290  -0.026   7.792   0.430
 1117TIP3   OH2 3291   3.346   1.749   4.055
 1117TIP3    H1 3292   3.338   1.811   3.982
 1117TIP3    H2 3293   3.256   1.721   4.071
 1118TIP3   OH2 3294   2.312   1.029   5.330
 1118TIP3    H1 3295   2.329   1.005   5.422
 1118TIP3    H2 3296   2.399   1.041   5.293
 1119TIP3   OH2 3297   2.238   2.634   3.649
 1119TIP3    H1 3298   2.160   2.650   3.702
 1119TIP3    H2 3299   2.256   2.541   3.659
 1120TIP3   OH2 3300   4.014   0.235   4.865
 1120TIP3    H1 3301   3.968   0.199   4.941
 1120TIP3    H2 3302   3.953   0.301   4.830
 1121TIP3   OH2 3303   6.350   7.850   1.286
 1121TIP3    H1 3304   6.274   7.818   1.238
 1121TIP3    H2 3305   6.395   7.908   1.225
 1122TIP3   OH2 3306   6.792   0.489   0.316
 1122TIP3    H1 3307   6.742   0.550   0.261
 1122TIP3    H2 3308   6.729   0.459   0.382
 1123TIP3   OH2 3309   5.204   0.422   2.468
 1123TIP3    H1 3310   5.217   0.420   2.373
 1123TIP3    H2 3311   5.291   0.441   2.503
 1124TIP3   OH2 3312   1.110   6.872   5.497
 1124TIP3    H1 3313   1.051   6.944   5.518
 1124TIP3    H2 3314   1.066   6.794   5.533
 1125TIP3   OH2 3315   2.800   2.340   2.158
 1125TIP3    H1 3316   2.887   2.300   2.158
 1125TIP3    H2 3317   2.788   2.372   2.069
 1126TIP3   OH2 3318   2.367   2.211   3.906
 1126TIP3    H1 3319   2.334   2.197   3.818
 1126TIP3    H2 3320   2.438   2.274   3.895
 1127TIP3   OH2 3321   3.655   5.388   6.097
 1127TIP3    H1 3322   3.572   5.365   6.055
 1127TIP3    H2 3323   3.636   5.384   6.191
 1128TIP3   OH2 3324   7.084   4.563   2.624
 1128TIP3    H1 3325   7.000   4.553   2.578
 1128TIP3    H2 3326   7.114   4.650   2.600
 1129TIP3   OH2 3327   2.441   7.595   0.673
 1129TIP3    H1 3328   2.468   7.687   0.679
 1129TIP3    H2 3329   2.400   7.576   0.757
 1130TIP3   OH2 3330   6.095   6.087   0.452
 1130TIP3    H1 3331   6.130   6.097   0.363
 1130TIP3    H2 3332   6.025   6.022   0.443
 1131TIP3   OH2 3333   7.641   5.918   4.930
 1131TIP3    H1 3334   7.571   5.853   4.936
 1131TIP3    H2 3335   7.605   5.987   4.875
 1132TIP3   OH2 3336   1.201   1.409   2.925
 1132TIP3    H1 3337   1.119   1.456   2.936
 1132TIP3    H2 3338   1.184   1.349   2.852
 1133TIP3   OH2 3339   7.422   5.860   0.354
 1133TIP3    H1 3340   7.366   5.901   0.419
 1133TIP3    H2 3341   7.486   5.927   0.330
 1134TIP3   OH2 3342   6.906   2.187   4.266
 1134TIP3    H1 3343   6.971   2.225   4.207
 1134TIP3    H2 3344   6.959   2.148   4.336
 1135TIP3   OH2 3345   0.406   7.261   5.573
 1135TIP3    H1 3346   0.387   7.199   5.643
 1135TIP3    H2 3347   0.502   7.267   5.572
 1136TIP3   OH2 3348   5.350   6.142   2.016
 1136TIP3    H1 3349   5.319   6.232   2.007
 1136TIP3    H2 3350   5.435   6.150   2.060
 1137TIP3   OH2 3351   5.143   6.704   0.957
 1137TIP3    H1 3352   5.098   6.738   0.880
 1137TIP3    H2 3353   5.229   6.748   0.955
 1138TIP3   OH2 3354   4.628   2.121   5.667
 1138TIP3    H1 3355   4.657   2.144   5.755
 1138TIP3    H2 3356   4.613   2.206   5.624
 1139TIP3   OH2 3357   7.005   5.275   0.088
 1139TIP3    H1 3358   7.069   5.332   0.131
 1139TIP3    H2 3359   6.985   5.319   0.006
 1140TIP3   OH2 3360   6.992   2.807   5.011
 1140TIP3    H1 3361   6.947   2.812   4.926
 1140TIP3    H2 3362   6.979   2.894   5.049
 1141TIP3   OH2 3363   5.418   5.258   0.313
 1141TIP3    H1 3364   5.469   5.323   0.266
 1141TIP3    H2 3365   5.343   5.306   0.348
 1142TIP3   OH2 3366   1.459   5.602   4.292
 1142TIP3    H1 3367   1.483   5.513   4.320
 1142TIP3    H2 3368   1.471   5.656   4.371
 1143TIP3   OH2 3369   2.740   3.787   0.723
 1143TIP3    H1 3370   2.686   3.808   0.647
 1143TIP3    H2 3371   2.808   3.853   0.725
 1144TIP3   OH2 3372   5.297   0.549   5.988
 1144TIP3    H1 3373   5.247   0.511   6.060
 1144TIP3    H2 3374   5.231   0.571   5.922
 1145TIP3   OH2 3375   8.259   5.969   3.692
 1145TIP3    H1 3376   8.174   5.940   3.724
 1145TIP3    H2 3377   8.322   5.908   3.733
 1146TIP3   OH2 3378   6.241   0.275   1.752
 1146TIP3    H1 3379   6.169   0.234   1.799
 1146TIP3    H2 3380   6.279   0.204   1.700
 1147TIP3   OH2 3381   3.920   5.417   2.063
 1147TIP3    H1 3382   3.888   5.430   1.974
 1147TIP3    H2 3383   4.012   5.390   2.052
 1148TIP3   OH2 3384   3.709   3.494   5.059
 1148TIP3    H1 3385   3.622   3.529   5.078
 1148TIP3    H2 3386   3.737   3.454   5.142
 1149TIP3   OH2 3387   7.973   1.740   0.846
 1149TIP3    H1 3388   7.899   1.680   0.841
 1149TIP3    H2 3389   8.005   1.731   0.936
 1150TIP3   OH2 3390   7.819   6.315   4.771
 1150TIP3    H1 3391   7.890   6.259   4.802
 1150TIP3    H2 3392   7.840   6.402   4.806
 1151TIP3   OH2 3393   7.892   7.112   2.963
 1151TIP3    H1 3394   7.802   7.119   2.931
 1151TIP3    H2 3395   7.889   7.154   3.049
 1152TIP3   OH2 3396   1.615   5.084   2.072
 1152TIP3    H1 3397   1.676   5.056   2.004
 1152TIP3    H2 3398   1.572   5.004   2.100
 1153TIP3   OH2 3399   7.803   0.666   6.337
 1153TIP3    H1 3400   7.880   0.678   6.280
 1153TIP3    H2 3401   7.807   0.574   6.362
 1154TIP3   OH2 3402   3.070   1.324   0.686
 1154TIP3    H1 3403   3.010   1.275   0.631
 1154TIP3    H2 3404   3.146   1.266   0.696
 1155TIP3   OH2 3405   3.919   2.160   1.006
 1155TIP3    H1 3406   3.849   2.188   1.064
 1155TIP3    H2 3407   3.999   2.177   1.055
 1156TIP3   OH2 3408   4.127   7.403   6.594
 1156TIP3    H1 3409   4.041   7.367   6.572
 1156TIP3    H2 3410   4.108   7.476   6.653
 1157TIP3   OH2 3411   4.478   5.494   1.102
 1157TIP3    H1 3412   4.548   5.432   1.123
 1157TIP3    H2 3413   4.514   5.579   1.124
 1158TIP3   OH2 3414   6.396   2.567   5.296
 1158TIP3    H1 3415   6.365   2.650   5.259
 1158TIP3    H2 3416   6.486   2.559   5.265
 1159TIP3   OH2 3417   0.426   2.138   2.637
 1159TIP3    H1 3418   0.513   2.099   2.644
 1159TIP3    H2 3419   0.440   2.222   2.592
 1160TIP3   OH2 3420   6.941   1.863   2.289
 1160TIP3    H1 3421   6.851   1.843   2.263
 1160TIP3    H2 3422   6.980   1.778   2.307
 1161TIP3   OH2 3423   4.265   3.963   1.334
 1161TIP3    H1 3424   4.315   4.034   1.373
 1161TIP3    H2 3425   4.206   3.934   1.405
 1162TIP3   OH2 3426   0.526   7.897   5.879
 1162TIP3    H1 3427   0.553   7.806   5.895
 1162TIP3    H2 3428   0.462   7.916   5.948
 1163TIP3   OH2 3429   5.040   1.305   0.768
 1163TIP3    H1 3430   5.093   1.377   0.735
 1163TIP3    H2 3431   5.093   1.227   0.752
 1164TIP3   OH2 3432   1.410   3.274   4.641
 1164TIP3    H1 3433   1.495   3.277   4.598
 1164TIP3    H2 3434   1.414   3.343   4.707
 1165TIP3   OH2 3435   3.091   5.800   3.437
 1165TIP3    H1 3436   3.161   5.796   3.502
 1165TIP3    H2 3437   3.112   5.877   3.384
 1166TIP3   OH2 3438   1.467   2.371   0.925
 1166TIP3    H1 3439   1.531   2.407   0.863
 1166TIP3    H2 3440   1.506   2.385   1.011
 1167TIP3   OH2 3441   5.713   6.617   6.614
 1167TIP3    H1 3442   5.638   6.574   6.573
 1167TIP3    H2 3443   5.774   6.547   6.634
 1168TIP3   OH2 3444   1.684   2.721   1.801
 1168TIP3    H1 3445   1.674   2.634   1.761
 1168TIP3    H2 3446   1.775   2.724   1.829
 1169TIP3   OH2 3447   4.357   2.026   5.927
 1169TIP3    H1 3448   4.273   2.071   5.931
 1169TIP3    H2 3449   4.364   1.996   5.836
 1170TIP3   OH2 3450   7.725   2.843   1.031
 1170TIP3    H1 3451   7.773   2.841   0.948
 1170TIP3    H2 3452   7.720   2.752   1.058
 1171TIP3   OH2 3453   8.104   4.292   1.781
 1171TIP3    H1 3454   8.149   4.249   1.709
 1171TIP3    H2 3455   8.174   4.327   1.836
 1172TIP3   OH2 3456   0.062   0.975   1.404
 1172TIP3    H1 3457   0.155   0.979   1.427
 1172TIP3    H2 3458   0.033   0.890   1.436
 1173TIP3   OH2 3459   2.531   5.019   4.422
 1173TIP3    H1 3460   2.437   5.018   4.442
 1173TIP3    H2 3461   2.571   5.063   4.497
 1174TIP3   OH2 3462   5.641   5.320   5.380
 1174TIP3    H1 3463   5.691   5.241   5.363
 1174TIP3    H2 3464   5.702   5.392   5.362
 1175TIP3   OH2 3465   1.993   7.388   2.617
 1175TIP3    H1 3466   2.003   7.350   2.530
 1175TIP3    H2 3467   2.080   7.419   2.641
 1176TIP3   OH2 3468   8.301   4.323   2.189
 1176TIP3    H1 3469   8.375   4.297   2.133
 1176TIP3    H2 3470   8.238   4.252   2.178
 1177TIP3   OH2 3471   7.423   3.825   1.883
 1177TIP3    H1 3472   7.413   3.737   1.919
 1177TIP3    H2 3473   7.447   3.880   1.958
 1178TIP3   OH2 3474   1.635   4.117   2.367
 1178TIP3    H1 3475   1.693   4.058   2.317
 1178TIP3    H2 3476   1.547   4.093   2.339
 1179TIP3   OH2 3477   0.521   2.891   4.680
 1179TIP3    H1 3478   0.538   2.965   4.738
 1179TIP3    H2 3479   0.430   2.866   4.697
 1180TIP3   OH2 3480   5.351   2.999   1.374
 1180TIP3    H1 3481   5.405   2.944   1.317
 1180TIP3    H2 3482   5.342   3.081   1.327
 1181TIP3   OH2 3483   3.181   3.284   4.774
 1181TIP3    H1 3484   3.168   3.260   4.682
 1181TIP3    H2 3485   3.228   3.210   4.812
 1182TIP3   OH2 3486   4.626   1.308   1.807
 1182TIP3    H1 3487   4.652   1.400   1.814
 1182TIP3    H2 3488   4.650   1.270   1.891
 1183TIP3   OH2 3489   4.045   2.207   0.390
 1183TIP3    H1 3490   4.090   2.291   0.379
 1183TIP3    H2 3491   3.969   2.213   0.333
 1184TIP3   OH2 3492   7.826   1.897   0.088
 1184TIP3    H1 3493   7.788   1.813   0.064
 1184TIP3    H2 3494   7.761   1.961   0.058
 1185TIP3   OH2 3495   7.339   6.503   1.912
 1185TIP3    H1 3496   7.349   6.456   1.829
 1185TIP3    H2 3497   7.331   6.595   1.886
 1186TIP3   OH2 3498   5.496   1.577   6.317
 1186TIP3    H1 3499   5.560   1.580   6.387
 1186TIP3    H2 3500   5.412   1.594   6.359
 1187TIP3   OH2 3501   5.293   1.669   3.397
 1187TIP3    H1 3502   5.260   1.623   3.474
 1187TIP3    H2 3503   5.297   1.761   3.424
 1188TIP3   OH2 3504   2.171   7.311   3.509
 1188TIP3    H1 3505   2.083   7.329   3.544
 1188TIP3    H2 3506   2.229   7.325   3.584
 1189TIP3   OH2 3507   2.331   1.382   2.899
 1189TIP3    H1 3508   2.307   1.290   2.885
 1189TIP3    H2 3509   2.403   1.379   2.961
 1190TIP3   OH2 3510   0.775   3.261   1.183
 1190TIP3    H1 3511   0.683   3.266   1.159
 1190TIP3    H2 3512   0.787   3.173   1.216
 1191TIP3   OH2 3513   4.048   0.820   0.683
 1191TIP3    H1 3514   4.007   0.816   0.597
 1191TIP3    H2 3515   4.133   0.861   0.667
 1192TIP3   OH2 3516   1.534   2.354   2.623
 1192TIP3    H1 3517   1.480   2.397   2.689
 1192TIP3    H2 3518   1.519   2.260   2.636
 1193TIP3   OH2 3519   5.509   4.367   6.045
 1193TIP3    H1 3520   5.505   4.458   6.014
 1193TIP3    H2 3521   5.417   4.339   6.048
 1194TIP3   OH2 3522   2.045   6.735   4.818
 1194TIP3    H1 3523   1.968   6.727   4.762
 1194TIP3    H2 3524   2.115   6.694   4.769
 1195TIP3   OH2 3525   0.678   4.796   3.023
 1195TIP3    H1 3526   0.637   4.878   3.050
 1195TIP3    H2 3527   0.772   4.812   3.033
 1196TIP3   OH2 3528   5.694   6.332   1.670
 1196TIP3    H1 3529   5.771   6.275   1.677
 1196TIP3    H2 3530   5.648   6.321   1.753
 1197TIP3   OH2 3531   2.834   2.848   4.895
 1197TIP3    H1 3532   2.744   2.839   4.924
 1197TIP3    H2 3533   2.843   2.941   4.874
 1198TIP3   OH2 3534   2.018   2.424   3.249
 1198TIP3    H1 3535   1.934   2.388   3.221
 1198TIP3    H2 3536   2.046   2.479   3.176
 1199TIP3   OH2 3537   7.945   4.889   0.170
 1199TIP3    H1 3538   7.986   4.838   0.101
 1199TIP3    H2 3539   7.962   4.980   0.147
 1200TIP3   OH2 3540   4.855   3.572   2.211
 1200TIP3    H1 3541   4.793   3.500   2.221
 1200TIP3    H2 3542   4.804   3.650   2.235
 1201TIP3   OH2 3543   8.113   6.044   5.237
 1201TIP3    H1 3544   8.153   6.074   5.156
 1201TIP3    H2 3545   8.098   5.950   5.223
 1202TIP3   OH2 3546   2.491   3.399   6.476
 1202TIP3    H1 3547   2.415   3.374   6.424
 1202TIP3    H2 3548   2.531   3.317   6.502
 1203TIP3   OH2 3549   6.878   5.178   4.411
 1203TIP3    H1 3550   6.870   5.221   4.325
 1203TIP3    H2 3551   6.867   5.249   4.474
 1204TIP3   OH2 3552   6.925   3.962   5.293
 1204TIP3    H1 3553   6.889   3.926   5.374
 1204TIP3    H2 3554   6.869   3.926   5.224
 1205TIP3   OH2 3555   4.035   2.930   5.646
 1205TIP3    H1 3556   4.096   2.985   5.596
 1205TIP3    H2 3557   4.009   2.984   5.720
 1206TIP3   OH2 3558   0.629   6.147   6.858
 1206TIP3    H1 3559   0.631   6.198   6.777
 1206TIP3    H2 3560   0.555   6.087   6.847
 1207TIP3   OH2 3561   2.525   2.379   1.241
 1207TIP3    H1 3562   2.592   2.403   1.177
 1207TIP3    H2 3563   2.561   2.301   1.284
 1208TIP3   OH2 3564   5.143   5.791   2.225
 1208TIP3    H1 3565   5.129   5.743   2.143
 1208TIP3    H2 3566   5.229   5.832   2.214
 1209TIP3   OH2 3567   0.790   1.375   3.192
 1209TIP3    H1 3568   0.865   1.402   3.139
 1209TIP3    H2 3569   0.816   1.290   3.227
 1210TIP3   OH2 3570   3.554   7.374   6.550
 1210TIP3    H1 3571   3.600   7.325   6.618
 1210TIP3    H2 3572   3.602   7.353   6.469
 1211TIP3   OH2 3573   0.225   5.090   4.786
 1211TIP3    H1 3574   0.196   5.178   4.761
 1211TIP3    H2 3575   0.148   5.035   4.775
 1212TIP3   OH2 3576   0.895   6.757   6.015
 1212TIP3    H1 3577   0.900   6.686   6.080
 1212TIP3    H2 3578   0.801   6.768   5.999
 1213TIP3   OH2 3579   7.796   7.802   5.026
 1213TIP3    H1 3580   7.795   7.714   4.988
 1213TIP3    H2 3581   7.721   7.846   4.985
 1214TIP3   OH2 3582   1.542   6.031   2.521
 1214TIP3    H1 3583   1.596   6.106   2.544
 1214TIP3    H2 3584   1.600   5.972   2.473
 1215TIP3   OH2 3585   1.754   0.911   6.065
 1215TIP3    H1 3586   1.849   0.909   6.077
 1215TIP3    H2 3587   1.720   0.933   6.152
 1216TIP3   OH2 3588   0.043   6.608   2.210
 1216TIP3    H1 3589   0.056   6.542   2.279
 1216TIP3    H2 3590   0.093   6.574   2.135
 1217TIP3   OH2 3591   5.403   1.398   5.923
 1217TIP3    H1 3592   5.432   1.490   5.924
 1217TIP3    H2 3593   5.338   1.395   5.853
 1218TIP3   OH2 3594   5.408   1.408   2.034
 1218TIP3    H1 3595   5.346   1.347   2.075
 1218TIP3    H2 3596   5.488   1.399   2.086
 1219TIP3   OH2 3597   4.072   7.414   0.402
 1219TIP3    H1 3598   4.136   7.386   0.336
 1219TIP3    H2 3599   4.021   7.482   0.358
 1220TIP3   OH2 3600   8.361   6.815   5.521
 1220TIP3    H1 3601   8.336   6.810   5.429
 1220TIP3    H2 3602   8.279   6.825   5.568
 1221TIP3   OH2 3603   0.510   0.153   2.422
 1221TIP3    H1 3604   0.553   0.238   2.409
 1221TIP3    H2 3605   0.442   0.171   2.487
 1222TIP3   OH2 3606   2.645   7.487   2.462
 1222TIP3    H1 3607   2.656   7.475   2.556
 1222TIP3    H2 3608   2.721   7.537   2.434
 1223TIP3   OH2 3609   6.651   0.109   6.237
 1223TIP3    H1 3610   6.622   0.200   6.233
 1223TIP3    H2 3611   6.571   0.060   6.257
 1224TIP3   OH2 3612   1.918   2.599   3.483
 1224TIP3    H1 3613   1.916   2.539   3.557
 1224TIP3    H2 3614   1.936   2.544   3.407
 1225TIP3   OH2 3615   6.169   0.483   5.161
 1225TIP3    H1 3616   6.208   0.408   5.116
 1225TIP3    H2 3617   6.090   0.448   5.202
 1226TIP3   OH2 3618   4.016   2.916   1.908
 1226TIP3    H1 3619   4.048   2.842   1.857
 1226TIP3    H2 3620   3.945   2.952   1.855
 1227TIP3   OH2 3621   4.635   0.884   1.171
 1227TIP3    H1 3622   4.699   0.823   1.134
 1227TIP3    H2 3623   4.574   0.828   1.219
 1228TIP3   OH2 3624   2.251   4.829   1.667
 1228TIP3    H1 3625   2.261   4.883   1.589
 1228TIP3    H2 3626   2.228   4.892   1.736
 1229TIP3   OH2 3627   2.690   0.096   1.354
 1229TIP3    H1 3628   2.782   0.122   1.345
 1229TIP3    H2 3629   2.661   0.139   1.434
 1230TIP3   OH2 3630   0.123   3.107   5.396
 1230TIP3    H1 3631   0.128   3.141   5.306
 1230TIP3    H2 3632   0.187   3.037   5.399
 1231TIP3   OH2 3633   5.027   4.978   4.755
 1231TIP3    H1 3634   5.099   4.961   4.816
 1231TIP3    H2 3635   4.959   5.018   4.809
 1232TIP3   OH2 3636   7.439   6.053   5.971
 1232TIP3    H1 3637   7.426   5.961   5.948
 1232TIP3    H2 3638   7.528   6.057   6.007
 1233TIP3   OH2 3639   6.451   7.657   1.050
 1233TIP3    H1 3640   6.473   7.577   1.097
 1233TIP3    H2 3641   6.363   7.680   1.079
 1234TIP3   OH2 3642   0.920   1.273   2.338
 1234TIP3    H1 3643   0.981   1.220   2.286
 1234TIP3    H2 3644   0.900   1.348   2.282
 1235TIP3   OH2 3645   1.139   6.128   3.703
 1235TIP3    H1 3646   1.094   6.171   3.630
 1235TIP3    H2 3647   1.224   6.172   3.708
 1236TIP3   OH2 3648   6.741   1.827   4.726
 1236TIP3    H1 3649   6.776   1.746   4.762
 1236TIP3    H2 3650   6.812   1.890   4.735
 1237TIP3   OH2 3651   1.877   0.110   1.852
 1237TIP3    H1 3652   1.853   0.097   1.760
 1237TIP3    H2 3653   1.800   0.150   1.892
 1238TIP3   OH2 3654   1.400   1.807   0.351
 1238TIP3    H1 3655   1.316   1.829   0.309
 1238TIP3    H2 3656   1.452   1.887   0.342
 1239TIP3   OH2 3657   2.858   1.871   3.875
 1239TIP3    H1 3658   2.910   1.790   3.873
 1239TIP3    H2 3659   2.767   1.841   3.880
 1240TIP3   OH2 3660   7.803   6.408   5.439
 1240TIP3    H1 3661   7.845   6.324   5.417
 1240TIP3    H2 3662   7.846   6.472   5.382
 1241TIP3   OH2 3663   6.788   7.569   6.798
 1241TIP3    H1 3664   6.771   7.642   6.739
 1241TIP3    H2 3665   6.871   7.532   6.767
 1242TIP3   OH2 3666   7.472   3.377   2.554
 1242TIP3    H1 3667   7.417   3.398   2.478
 1242TIP3    H2 3668   7.491   3.462   2.594
 1243TIP3   OH2 3669   8.131   0.473   0.106
 1243TIP3    H1 3670   8.118   0.537   0.036
 1243TIP3    H2 3671   8.224   0.479   0.127
 1244TIP3   OH2 3672   7.155   1.025   5.497
 1244TIP3    H1 3673   7.241   1.066   5.491
 1244TIP3    H2 3674   7.115   1.064   5.575
 1245TIP3   OH2 3675   5.017   4.167   2.802
 1245TIP3    H1 3676   4.992   4.126   2.884
 1245TIP3    H2 3677   5.087   4.228   2.826
 1246TIP3   OH2 3678   5.989   6.464   6.163
 1246TIP3    H1 3679   5.898   6.478   6.139
 1246TIP3    H2 3680   5.989   6.462   6.259
 1247TIP3   OH2 3681   4.859   5.731   5.074
 1247TIP3    H1 3682   4.930   5.673   5.098
 1247TIP3    H2 3683   4.902   5.810   5.039
 1248TIP3   OH2 3684   3.795   7.704   5.415
 1248TIP3    H1 3685   3.748   7.623   5.393
 1248TIP3    H2 3686   3.752   7.735   5.495
 1249TIP3   OH2 3687   7.575   5.350   5.023
 1249TIP3    H1 3688   7.618   5.272   4.987
 1249TIP3    H2 3689   7.619   5.365   5.107
 1250TIP3   OH2 3690   1.743   2.360   2.121
 1250TIP3    H1 3691   1.802   2.416   2.172
 1250TIP3    H2 3692   1.760   2.272   2.154
 1251TIP3   OH2 3693   2.943   1.692   4.837
 1251TIP3    H1 3694   3.030   1.733   4.833
 1251TIP3    H2 3695   2.940   1.651   4.923
 1252TIP3   OH2 3696   6.750   5.634   5.764
 1252TIP3    H1 3697   6.812   5.700   5.795
 1252TIP3    H2 3698   6.805   5.566   5.726
 1253TIP3   OH2 3699   5.693   0.469   6.423
 1253TIP3    H1 3700   5.758   0.492   6.356
 1253TIP3    H2 3701   5.621   0.430   6.374
 1254TIP3   OH2 3702   0.248   3.381   1.572
 1254TIP3    H1 3703   0.233   3.398   1.479
 1254TIP3    H2 3704   0.323   3.321   1.574
 1255TIP3   OH2 3705   2.784   7.788   2.053
 1255TIP3    H1 3706   2.850   7.800   1.984
 1255TIP3    H2 3707   2.700   7.801   2.009
 1256TIP3   OH2 3708   4.667   0.925   1.701
 1256TIP3    H1 3709   4.746   0.899   1.654
 1256TIP3    H2 3710   4.697   0.945   1.790
 1257TIP3   OH2 3711   7.188   4.977   6.254
 1257TIP3    H1 3712   7.145   5.010   6.175
 1257TIP3    H2 3713   7.136   5.010   6.326
 1258TIP3   OH2 3714   7.425   0.584   1.474
 1258TIP3    H1 3715   7.377   0.504   1.494
 1258TIP3    H2 3716   7.511   0.570   1.514
 1259TIP3   OH2 3717   8.209   3.169   1.437
 1259TIP3    H1 3718   8.285   3.157   1.380
 1259TIP3    H2 3719   8.204   3.089   1.488
 1260TIP3   OH2 3720   3.655   5.371   2.252
 1260TIP3    H1 3721   3.622   5.420   2.327
 1260TIP3    H2 3722   3.577   5.336   2.210
 1261TIP3   OH2 3723   6.898   6.845   4.077
 1261TIP3    H1 3724   6.982   6.874   4.042
 1261TIP3    H2 3725   6.858   6.924   4.113
 1262TIP3   OH2 3726   3.515   1.338   1.852
 1262TIP3    H1 3727   3.539   1.373   1.767
 1262TIP3    H2 3728   3.527   1.244   1.844
 1263TIP3   OH2 3729   7.781   6.775   4.695
 1263TIP3    H1 3730   7.753   6.685   4.678
 1263TIP3    H2 3731   7.717   6.829   4.649
 1264TIP3   OH2 3732   1.614   4.685   3.653
 1264TIP3    H1 3733   1.563   4.631   3.715
 1264TIP3    H2 3734   1.649   4.755   3.707
 1265TIP3   OH2 3735   6.118   5.631   3.285
 1265TIP3    H1 3736   6.184   5.700   3.284
 1265TIP3    H2 3737   6.141   5.577   3.360
 1266TIP3   OH2 3738   7.856   5.123   6.352
 1266TIP3    H1 3739   7.790   5.101   6.417
 1266TIP3    H2 3740   7.814   5.186   6.294
 1267TIP3   OH2 3741   5.560   1.943   3.746
 1267TIP3    H1 3742   5.495   1.987   3.801
 1267TIP3    H2 3743   5.550   1.850   3.767
 1268TIP3   OH2 3744   4.792   3.316   4.083
 1268TIP3    H1 3745   4.853   3.386   4.062
 1268TIP3    H2 3746   4.784   3.317   4.178
 1269TIP3   OH2 3747   4.197   4.976   0.030
 1269TIP3    H1 3748   4.288   4.995   0.054
 1269TIP3    H2 3749   4.169   5.053  -0.018
 1270TIP3   OH2 3750   8.102   0.098   0.968
 1270TIP3    H1 3751   8.088   0.126   0.877
 1270TIP3    H2 3752   8.084   0.175   1.021
 1271TIP3   OH2 3753   3.111   6.862   4.773
 1271TIP3    H1 3754   3.132   6.934   4.834
 1271TIP3    H2 3755   3.016   6.867   4.763
 1272TIP3   OH2 3756   0.551   4.998   6.764
 1272TIP3    H1 3757   0.602   5.057   6.708
 1272TIP3    H2 3758   0.573   5.026   6.853
 1273TIP3   OH2 3759   7.129   0.674   0.918
 1273TIP3    H1 3760   7.215   0.700   0.951
 1273TIP3    H2 3761   7.146   0.597   0.865
 1274TIP3   OH2 3762   1.981   1.910   4.357
 1274TIP3    H1 3763   1.972   1.998   4.393
 1274TIP3    H2 3764   2.052   1.917   4.294
 1275TIP3   OH2 3765   6.908   2.017   5.493
 1275TIP3    H1 3766   6.878   2.008   5.584
 1275TIP3    H2 3767   6.828   2.008   5.441
 1276TIP3   OH2 3768   0.207   3.960   1.014
 1276TIP3    H1 3769   0.174   4.048   1.000
 1276TIP3    H2 3770   0.301   3.966   0.994
 1277TIP3   OH2 3771   5.287   7.506   5.396
 1277TIP3    H1 3772   5.342   7.488   5.319
 1277TIP3    H2 3773   5.226   7.574   5.367
 1278TIP3   OH2 3774   6.273   6.841   1.777
 1278TIP3    H1 3775   6.241   6.929   1.797
 1278TIP3    H2 3776   6.210   6.806   1.714
 1279TIP3   OH2 3777   6.706   7.547   0.841
 1279TIP3    H1 3778   6.639   7.496   0.796
 1279TIP3    H2 3779   6.682   7.543   0.934
 1280TIP3   OH2 3780   0.670   0.475   3.425
 1280TIP3    H1 3781   0.691   0.539   3.358
 1280TIP3    H2 3782   0.692   0.518   3.508
 1281TIP3   OH2 3783   6.195   3.077   0.629
 1281TIP3    H1 3784   6.132   3.097   0.698
 1281TIP3    H2 3785   6.162   3.123   0.552
 1282TIP3   OH2 3786   5.228   4.436   1.341
 1282TIP3    H1 3787   5.164   4.483   1.288
 1282TIP3    H2 3788   5.213   4.344   1.320
 1283TIP3   OH2 3789   6.345   7.730   0.803
 1283TIP3    H1 3790   6.374   7.698   0.888
 1283TIP3    H2 3791   6.359   7.825   0.807
 1284TIP3   OH2 3792   2.810   7.716   4.830
 1284TIP3    H1 3793   2.775   7.629   4.848
 1284TIP3    H2 3794   2.812   7.722   4.734
 1285TIP3   OH2 3795   1.176   7.930   5.994
 1285TIP3    H1 3796   1.204   8.022   5.999
 1285TIP3    H2 3797   1.081   7.934   5.992
 1286TIP3   OH2 3798   7.539   3.141   3.557
 1286TIP3    H1 3799   7.521   3.222   3.508
 1286TIP3    H2 3800   7.519   3.071   3.495
 1287TIP3   OH2 3801   7.748   2.767   3.122
 1287TIP3    H1 3802   7.822   2.792   3.068
 1287TIP3    H2 3803   7.750   2.828   3.196
 1288TIP3   OH2 3804   4.814   3.005   3.161
 1288TIP3    H1 3805   4.825   2.910   3.156
 1288TIP3    H2 3806   4.896   3.036   3.201
 1289TIP3   OH2 3807   7.087   5.937   4.777
 1289TIP3    H1 3808   7.047   6.001   4.720
 1289TIP3    H2 3809   7.180   5.962   4.781
 1290TIP3   OH2 3810   2.485   3.182   0.426
 1290TIP3    H1 3811   2.516   3.222   0.507
 1290TIP3    H2 3812   2.414   3.238   0.397
 1291TIP3   OH2 3813   4.651   3.063   0.657
 1291TIP3    H1 3814   4.693   2.990   0.611
 1291TIP3    H2 3815   4.721   3.125   0.673
 1292TIP3   OH2 3816   0.559   4.835   5.406
 1292TIP3    H1 3817   0.541   4.914   5.355
 1292TIP3    H2 3818   0.475   4.812   5.445
 1293TIP3   OH2 3819   4.077   3.136   3.331
 1293TIP3    H1 3820   3.985   3.122   3.307
 1293TIP3    H2 3821   4.077   3.222   3.374
 1294TIP3   OH2 3822   7.013   5.512   1.080
 1294TIP3    H1 3823   6.924   5.499   1.047
 1294TIP3    H2 3824   7.010   5.598   1.123
 1295TIP3   OH2 3825   5.135   2.902   3.598
 1295TIP3    H1 3826   5.126   2.867   3.509
 1295TIP3    H2 3827   5.187   2.982   3.587
 1296TIP3   OH2 3828   8.057   6.475   3.590
 1296TIP3    H1 3829   8.091   6.561   3.566
 1296TIP3    H2 3830   8.124   6.414   3.562
 1297TIP3   OH2 3831   3.927   0.034   0.580
 1297TIP3    H1 3832   3.859   0.053   0.516
 1297TIP3    H2 3833   3.886  -0.025   0.643
 1298TIP3   OH2 3834   5.285   4.799   5.675
 1298TIP3    H1 3835   5.226   4.784   5.749
 1298TIP3    H2 3836   5.370   4.817   5.716
 1299TIP3   OH2 3837   6.092   7.498   0.908
 1299TIP3    H1 3838   6.124   7.472   0.822
 1299TIP3    H2 3839   6.080   7.593   0.901
 1300TIP3   OH2 3840   1.116   2.796   3.307
 1300TIP3    H1 3841   1.087   2.837   3.226
 1300TIP3    H2 3842   1.208   2.819   3.314
 1301TIP3   OH2 3843   0.172   4.212   6.775
 1301TIP3    H1 3844   0.260   4.242   6.797
 1301TIP3    H2 3845   0.185   4.148   6.705
 1302TIP3   OH2 3846   3.903   3.786   3.160
 1302TIP3    H1 3847   3.973   3.722   3.149
 1302TIP3    H2 3848   3.941   3.855   3.214
 1303TIP3   OH2 3849   0.325   6.395   4.612
 1303TIP3    H1 3850   0.302   6.374   4.521
 1303TIP3    H2 3851   0.363   6.483   4.607
 1304TIP3   OH2 3852   7.661   2.402   3.679
 1304TIP3    H1 3853   7.609   2.425   3.603
 1304TIP3    H2 3854   7.604   2.347   3.733
 1305TIP3   OH2 3855   4.613   4.304   3.409
 1305TIP3    H1 3856   4.688   4.310   3.468
 1305TIP3    H2 3857   4.637   4.356   3.333
 1306TIP3   OH2 3858   5.695   2.255   0.215
 1306TIP3    H1 3859   5.712   2.348   0.199
 1306TIP3    H2 3860   5.743   2.210   0.146
 1307TIP3   OH2 3861   5.849   4.070   3.852
 1307TIP3    H1 3862   5.837   4.043   3.761
 1307TIP3    H2 3863   5.847   3.988   3.901
 1308TIP3   OH2 3864   4.904   0.833   4.634
 1308TIP3    H1 3865   4.884   0.918   4.595
 1308TIP3    H2 3866   4.994   0.815   4.607
 1309TIP3   OH2 3867   3.651   7.405   3.604
 1309TIP3    H1 3868   3.565   7.411   3.645
 1309TIP3    H2 3869   3.702   7.476   3.644
 1310TIP3   OH2 3870   5.503   0.599   4.365
 1310TIP3    H1 3871   5.546   0.675   4.325
 1310TIP3    H2 3872   5.535   0.598   4.455
 1311TIP3   OH2 3873   8.106   1.103   2.435
 1311TIP3    H1 3874   8.160   1.027   2.413
 1311TIP3    H2 3875   8.129   1.123   2.525
 1312TIP3   OH2 3876   4.190   7.324   2.083
 1312TIP3    H1 3877   4.154   7.301   2.168
 1312TIP3    H2 3878   4.245   7.249   2.059
 1313TIP3   OH2 3879   1.154   1.586   1.286
 1313TIP3    H1 3880   1.192   1.658   1.236
 1313TIP3    H2 3881   1.127   1.626   1.369
 1314TIP3   OH2 3882   1.548   1.064   0.122
 1314TIP3    H1 3883   1.470   1.011   0.108
 1314TIP3    H2 3884   1.616   1.019   0.072
 1315TIP3   OH2 3885   6.258   4.066   4.015
 1315TIP3    H1 3886   6.312   4.033   3.943
 1315TIP3    H2 3887   6.265   3.999   4.083
 1316TIP3   OH2 3888   2.565   7.715   1.426
 1316TIP3    H1 3889   2.539   7.807   1.418
 1316TIP3    H2 3890   2.637   7.716   1.489
 1317TIP3   OH2 3891   3.275   2.305   4.938
 1317TIP3    H1 3892   3.303   2.359   5.012
 1317TIP3    H2 3893   3.179   2.306   4.943
 1318TIP3   OH2 3894   4.051   5.450   1.601
 1318TIP3    H1 3895   4.019   5.499   1.526
 1318TIP3    H2 3896   4.040   5.510   1.675
 1319TIP3   OH2 3897   3.324   2.156   3.500
 1319TIP3    H1 3898   3.288   2.070   3.521
 1319TIP3    H2 3899   3.327   2.202   3.584
 1320TIP3   OH2 3900   4.090   1.811   6.524
 1320TIP3    H1 3901   4.127   1.882   6.473
 1320TIP3    H2 3902   4.018   1.777   6.469
 1321TIP3   OH2 3903   6.057   2.038   3.512
 1321TIP3    H1 3904   6.097   2.082   3.437
 1321TIP3    H2 3905   6.056   2.105   3.581
 1322TIP3   OH2 3906   2.887   6.474   0.061
 1322TIP3    H1 3907   2.818   6.409   0.077
 1322TIP3    H2 3908   2.857   6.521  -0.017
 1323TIP3   OH2 3909   3.283   2.736   2.349
 1323TIP3    H1 3910   3.196   2.717   2.314
 1323TIP3    H2 3911   3.273   2.822   2.391
 1324TIP3   OH2 3912   3.108   4.063   6.689
 1324TIP3    H1 3913   3.169   4.033   6.758
 1324TIP3    H2 3914   3.078   3.982   6.648
 1325TIP3   OH2 3915   5.210   3.183   2.095
 1325TIP3    H1 3916   5.115   3.174   2.093
 1325TIP3    H2 3917   5.241   3.102   2.138
 1326TIP3   OH2 3918   6.032   4.395   1.638
 1326TIP3    H1 3919   6.035   4.334   1.564
 1326TIP3    H2 3920   6.096   4.463   1.615
 1327TIP3   OH2 3921   7.783   6.497   3.727
 1327TIP3    H1 3922   7.773   6.590   3.705
 1327TIP3    H2 3923   7.876   6.480   3.713
 1328TIP3   OH2 3924   0.883   2.147   5.097
 1328TIP3    H1 3925   0.903   2.054   5.107
 1328TIP3    H2 3926   0.871   2.159   5.003
 1329TIP3   OH2 3927   3.059   0.455   0.002
 1329TIP3    H1 3928   3.063   0.528   0.064
 1329TIP3    H2 3929   3.150   0.424  -0.003
 1330TIP3   OH2 3930   4.681   2.967   4.529
 1330TIP3    H1 3931   4.764   3.013   4.531
 1330TIP3    H2 3932   4.659   2.960   4.436
 1331TIP3   OH2 3933   5.585   7.141   5.568
 1331TIP3    H1 3934   5.518   7.185   5.621
 1331TIP3    H2 3935   5.545   7.057   5.545
 1332TIP3   OH2 3936   2.481   5.838   1.833
 1332TIP3    H1 3937   2.484   5.799   1.746
 1332TIP3    H2 3938   2.397   5.809   1.869
 1333TIP3   OH2 3939   4.629   7.359   3.326
 1333TIP3    H1 3940   4.659   7.304   3.399
 1333TIP3    H2 3941   4.593   7.437   3.369
 1334TIP3   OH2 3942   1.663   3.028   0.232
 1334TIP3    H1 3943   1.651   3.108   0.180
 1334TIP3    H2 3944   1.673   3.059   0.322
 1335TIP3   OH2 3945   6.688   2.288   1.186
 1335TIP3    H1 3946   6.602   2.314   1.153
 1335TIP3    H2 3947   6.724   2.231   1.118
 1336TIP3   OH2 3948   1.842   4.690   1.759
 1336TIP3    H1 3949   1.910   4.671   1.824
 1336TIP3    H2 3950   1.763   4.649   1.795
 1337TIP3   OH2 3951   6.033   5.327   4.661
 1337TIP3    H1 3952   6.099   5.369   4.716
 1337TIP3    H2 3953   6.073   5.325   4.574
 1338TIP3   OH2 3954   1.613   2.940   5.626
 1338TIP3    H1 3955   1.703   2.963   5.604
 1338TIP3    H2 3956   1.565   3.023   5.623
 1339TIP3   OH2 3957   0.184   7.628   4.144
 1339TIP3    H1 3958   0.262   7.581   4.113
 1339TIP3    H2 3959   0.200   7.719   4.120
 1340TIP3   OH2 3960   5.231   3.887   3.042
 1340TIP3    H1 3961   5.271   3.801   3.054
 1340TIP3    H2 3962   5.281   3.927   2.971
 1341TIP3   OH2 3963   7.552   7.754   4.230
 1341TIP3    H1 3964   7.501   7.806   4.168
 1341TIP3    H2 3965   7.502   7.758   4.311
 1342TIP3   OH2 3966   1.940   5.249   6.159
 1342TIP3    H1 3967   1.923   5.332   6.204
 1342TIP3    H2 3968   1.868   5.192   6.186
 1343TIP3   OH2 3969   3.115   5.089   5.084
 1343TIP3    H1 3970   3.194   5.044   5.053
 1343TIP3    H2 3971   3.074   5.123   5.005
 1344TIP3   OH2 3972   2.437   6.881   0.352
 1344TIP3    H1 3973   2.436   6.843   0.440
 1344TIP3    H2 3974   2.450   6.974   0.366
 1345TIP3   OH2 3975   1.718   2.810   0.397
 1345TIP3    H1 3976   1.728   2.877   0.329
 1345TIP3    H2 3977   1.729   2.727   0.350
 1346TIP3   OH2 3978   2.404   1.586   2.746
 1346TIP3    H1 3979   2.388   1.510   2.801
 1346TIP3    H2 3980   2.495   1.576   2.717
 1347TIP3   OH2 3981   4.597   0.672   6.607
 1347TIP3    H1 3982   4.557   0.745   6.560
 1347TIP3    H2 3983   4.670   0.644   6.551
 1348TIP3   OH2 3984   1.395   5.796   1.717
 1348TIP3    H1 3985   1.353   5.763   1.637
 1348TIP3    H2 3986   1.448   5.870   1.688
 1349TIP3   OH2 3987   1.233   3.800   2.699
 1349TIP3    H1 3988   1.189   3.715   2.688
 1349TIP3    H2 3989   1.318   3.788   2.655
 1350TIP3   OH2 3990   5.967   5.279   5.066
 1350TIP3    H1 3991   5.978   5.245   4.977
 1350TIP3    H2 3992   5.923   5.364   5.054
 1351TIP3   OH2 3993   7.263   1.089   6.476
 1351TIP3    H1 3994   7.224   1.005   6.453
 1351TIP3    H2 3995   7.211   1.153   6.428
 1352TIP3   OH2 3996   8.324   2.308   6.134
 1352TIP3    H1 3997   8.336   2.359   6.054
 1352TIP3    H2 3998   8.261   2.359   6.186
 1353TIP3   OH2 3999   6.675   2.239   0.870
 1353TIP3    H1 4000   6.628   2.291   0.805
 1353TIP3    H2 4001   6.607   2.188   0.914
 1354TIP3   OH2 4002   2.717   0.690   4.506
 1354TIP3    H1 4003   2.712   0.597   4.528
 1354TIP3    H2 4004   2.763   0.730   4.580
 1355TIP3   OH2 4005   2.341   6.034   4.505
 1355TIP3    H1 4006   2.357   5.951   4.550
 1355TIP3    H2 4007   2.335   6.098   4.576
 1356TIP3   OH2 4008   0.287   0.365   0.026
 1356TIP3    H1 4009   0.224   0.296   0.049
 1356TIP3    H2 4010   0.372   0.324   0.037
 1357TIP3   OH2 4011   1.792   7.381   6.438
 1357TIP3    H1 4012   1.792   7.295   6.479
 1357TIP3    H2 4013   1.819   7.441   6.507
 1358TIP3   OH2 4014   2.163   4.396   6.450
 1358TIP3    H1 4015   2.242   4.386   6.396
 1358TIP3    H2 4016   2.171   4.485   6.487
 1359TIP3   OH2 4017   6.968   1.270   1.260
 1359TIP3    H1 4018   7.032   1.335   1.289
 1359TIP3    H2 4019   6.907   1.261   1.334
 1360TIP3   OH2 4020   4.927   1.883   5.736
 1360TIP3    H1 4021   4.955   1.793   5.720
 1360TIP3    H2 4022   4.832   1.877   5.749
 1361TIP3   OH2 4023   6.079   6.554   5.884
 1361TIP3    H1 4024   6.024   6.602   5.947
 1361TIP3    H2 4025   6.018   6.500   5.835
 1362TIP3   OH2 4026   4.323   2.475   6.654
 1362TIP3    H1 4027   4.280   2.558   6.632
 1362TIP3    H2 4028   4.253   2.420   6.689
 1363TIP3   OH2 4029   6.882   0.720   0.089
 1363TIP3    H1 4030   6.788   0.729   0.075
 1363TIP3    H2 4031   6.899   0.625   0.085
 1364TIP3   OH2 4032   0.116   5.206   6.094
 1364TIP3    H1 4033   0.045   5.145   6.074
 1364TIP3    H2 4034   0.177   5.155   6.148
 1365TIP3   OH2 4035   5.393   3.317   5.325
 1365TIP3    H1 4036   5.347   3.399   5.340
 1365TIP3    H2 4037   5.478   3.329   5.366
 1366TIP3   OH2 4038   1.903   4.652   4.874
 1366TIP3    H1 4039   1.828   4.599   4.901
 1366TIP3    H2 4040   1.909   4.720   4.941
 1367TIP3   OH2 4041   3.870   0.351   5.500
 1367TIP3    H1 4042   3.786   0.395   5.486
 1367TIP3    H2 4043   3.854   0.289   5.570
 1368TIP3   OH2 4044   8.004   1.244   4.940
 1368TIP3    H1 4045   7.925   1.219   4.989
 1368TIP3    H2 4046   7.983   1.329   4.903
 1369TIP3   OH2 4047   0.762   1.422   0.156
 1369TIP3    H1 4048   0.743   1.383   0.070
 1369TIP3    H2 4049   0.812   1.501   0.136
 1370TIP3   OH2 4050   2.206   3.367   1.255
 1370TIP3    H1 4051   2.119   3.372   1.295
 1370TIP3    H2 4052   2.267   3.362   1.329
 1371TIP3   OH2 4053   0.080   6.061   4.358
 1371TIP3    H1 4054   0.140   6.100   4.421
 1371TIP3    H2 4055   0.135   6.034   4.285
 1372TIP3   OH2 4056   5.198   5.099   6.779
 1372TIP3    H1 4057   5.231   5.167   6.720
 1372TIP3    H2 4058   5.120   5.137   6.819
 1373TIP3   OH2 4059   0.687   2.295   5.265
 1373TIP3    H1 4060   0.727   2.251   5.189
 1373TIP3    H2 4061   0.742   2.269   5.339
 1374TIP3   OH2 4062   6.626   1.860   6.434
 1374TIP3    H1 4063   6.635   1.947   6.472
 1374TIP3    H2 4064   6.660   1.869   6.345
 1375TIP3   OH2 4065   6.227   3.029   3.690
 1375TIP3    H1 4066   6.234   3.011   3.784
 1375TIP3    H2 4067   6.192   3.117   3.684
 1376TIP3   OH2 4068   7.880   7.182   1.994
 1376TIP3    H1 4069   7.882   7.198   2.088
 1376TIP3    H2 4070   7.970   7.198   1.965
 1377TIP3   OH2 4071   2.569   3.163   3.523
 1377TIP3    H1 4072   2.645   3.116   3.490
 1377TIP3    H2 4073   2.604   3.225   3.586
 1378TIP3   OH2 4074   0.780   6.117   1.783
 1378TIP3    H1 4075   0.710   6.181   1.793
 1378TIP3    H2 4076   0.743   6.035   1.817
 1379TIP3   OH2 4077   6.531   1.476   0.073
 1379TIP3    H1 4078   6.593   1.448   0.140
 1379TIP3    H2 4079   6.580   1.538   0.019
 1380TIP3   OH2 4080  -0.021   1.843   2.382
 1380TIP3    H1 4081   0.073   1.862   2.377
 1380TIP3    H2 4082  -0.027   1.750   2.359
 1381TIP3   OH2 4083   3.175   0.599   3.540
 1381TIP3    H1 4084   3.082   0.612   3.521
 1381TIP3    H2 4085   3.195   0.512   3.507
 1382TIP3   OH2 4086   2.074   2.159   4.542
 1382TIP3    H1 4087   2.154   2.188   4.499
 1382TIP3    H2 4088   2.046   2.233   4.595
 1383TIP3   OH2 4089   5.504   4.410   1.348
 1383TIP3    H1 4090   5.410   4.400   1.356
 1383TIP3    H2 4091   5.516   4.499   1.314
 1384TIP3   OH2 4092   0.180   4.771   5.441
 1384TIP3    H1 4093   0.214   4.686   5.413
 1384TIP3    H2 4094   0.170   4.764   5.535
 1385TIP3   OH2 4095   2.268   4.500   3.894
 1385TIP3    H1 4096   2.184   4.456   3.903
 1385TIP3    H2 4097   2.260   4.580   3.947
 1386TIP3   OH2 4098   2.252   3.988   0.413
 1386TIP3    H1 4099   2.310   3.940   0.472
 1386TIP3    H2 4100   2.304   4.062   0.382
 1387TIP3   OH2 4101   5.980   1.371   1.199
 1387TIP3    H1 4102   6.050   1.312   1.227
 1387TIP3    H2 4103   5.934   1.395   1.279
 1388TIP3   OH2 4104   6.870   5.021   6.190
 1388TIP3    H1 4105   6.887   5.020   6.284
 1388TIP3    H2 4106   6.800   5.086   6.180
 1389TIP3   OH2 4107   7.938   1.328   3.770
 1389TIP3    H1 4108   7.896   1.378   3.700
 1389TIP3    H2 4109   7.992   1.393   3.816
 1390TIP3   OH2 4110   2.531   4.591   1.377
 1390TIP3    H1 4111   2.595   4.577   1.447
 1390TIP3    H2 4112   2.463   4.526   1.393
 1391TIP3   OH2 4113   4.802   1.500   1.081
 1391TIP3    H1 4114   4.846   1.421   1.048
 1391TIP3    H2 4115   4.873   1.564   1.089
 1392TIP3   OH2 4116   3.561   7.639   0.604
 1392TIP3    H1 4117   3.568   7.614   0.512
 1392TIP3    H2 4118   3.498   7.711   0.605
 1393TIP3   OH2 4119   7.691   4.065   2.984
 1393TIP3    H1 4120   7.659   3.998   2.923
 1393TIP3    H2 4121   7.782   4.079   2.957
 1394TIP3   OH2 4122   7.752   1.560   0.777
 1394TIP3    H1 4123   7.749   1.478   0.728
 1394TIP3    H2 4124   7.685   1.615   0.736
 1395TIP3   OH2 4125   1.103   0.832   3.079
 1395TIP3    H1 4126   1.049   0.760   3.113
 1395TIP3    H2 4127   1.124   0.884   3.156
 1396TIP3   OH2 4128   7.020   2.763   1.064
 1396TIP3    H1 4129   7.040   2.838   1.009
 1396TIP3    H2 4130   6.982   2.801   1.143
 1397TIP3   OH2 4131   0.687   1.758   6.478
 1397TIP3    H1 4132   0.660   1.679   6.431
 1397TIP3    H2 4133   0.779   1.770   6.454
 1398TIP3   OH2 4134   2.064   5.769   5.871
 1398TIP3    H1 4135   2.021   5.850   5.841
 1398TIP3    H2 4136   2.156   5.780   5.845
 1399TIP3   OH2 4137   7.760   0.207   2.346
 1399TIP3    H1 4138   7.841   0.257   2.347
 1399TIP3    H2 4139   7.785   0.120   2.316
 1400TIP3   OH2 4140   0.493   2.764   6.135
 1400TIP3    H1 4141   0.560   2.767   6.066
 1400TIP3    H2 4142   0.478   2.856   6.157
 1401TIP3   OH2 4143   4.751   5.980   3.085
 1401TIP3    H1 4144   4.814   5.908   3.087
 1401TIP3    H2 4145   4.709   5.978   3.172
 1402TIP3   OH2 4146   0.882   6.876   0.623
 1402TIP3    H1 4147   0.928   6.794   0.643
 1402TIP3    H2 4148   0.924   6.941   0.679
 1403TIP3   OH2 4149   0.760   3.430   0.567
 1403TIP3    H1 4150   0.845   3.450   0.606
 1403TIP3    H2 4151   0.748   3.336   0.582
 1404TIP3   OH2 4152   2.837  -0.035   2.872
 1404TIP3    H1 4153   2.808  -0.071   2.955
 1404TIP3    H2 4154   2.917   0.013   2.893
 1405TIP3   OH2 4155   7.878   6.878   2.308
 1405TIP3    H1 4156   7.826   6.946   2.352
 1405TIP3    H2 4157   7.858   6.889   2.215
 1406TIP3   OH2 4158   6.064   3.183   0.096
 1406TIP3    H1 4159   6.139   3.146   0.143
 1406TIP3    H2 4160   6.070   3.145   0.008
 1407TIP3   OH2 4161   5.855   7.624   5.152
 1407TIP3    H1 4162   5.852   7.682   5.076
 1407TIP3    H2 4163   5.844   7.683   5.227
 1408TIP3   OH2 4164   3.849   3.326   1.418
 1408TIP3    H1 4165   3.895   3.390   1.472
 1408TIP3    H2 4166   3.756   3.340   1.436
 1409TIP3   OH2 4167   6.922   6.202   2.784
 1409TIP3    H1 4168   7.007   6.243   2.796
 1409TIP3    H2 4169   6.938   6.133   2.719
 1410TIP3   OH2 4170   4.956   5.955   1.159
 1410TIP3    H1 4171   4.941   5.896   1.233
 1410TIP3    H2 4172   4.977   5.897   1.086
 1411TIP3   OH2 4173   3.718   6.158   1.397
 1411TIP3    H1 4174   3.763   6.239   1.372
 1411TIP3    H2 4175   3.638   6.158   1.345
 1412TIP3   OH2 4176   1.970   2.389   4.718
 1412TIP3    H1 4177   1.893   2.426   4.761
 1412TIP3    H2 4178   1.990   2.451   4.648
 1413TIP3   OH2 4179   6.972   5.818   4.996
 1413TIP3    H1 4180   7.002   5.888   5.054
 1413TIP3    H2 4181   7.008   5.841   4.910
 1414TIP3   OH2 4182   6.506   2.184   1.825
 1414TIP3    H1 4183   6.467   2.178   1.912
 1414TIP3    H2 4184   6.601   2.185   1.842
 1415TIP3   OH2 4185   0.535   0.387   0.968
 1415TIP3    H1 4186   0.552   0.349   0.882
 1415TIP3    H2 4187   0.444   0.419   0.963
 1416TIP3   OH2 4188   2.568   5.757   4.869
 1416TIP3    H1 4189   2.481   5.777   4.905
 1416TIP3    H2 4190   2.604   5.692   4.929
 1417TIP3   OH2 4191   5.979   7.960   6.493
 1417TIP3    H1 4192   5.908   7.899   6.516
 1417TIP3    H2 4193   6.058   7.907   6.495
 1418TIP3   OH2 4194   3.831   6.508   4.165
 1418TIP3    H1 4195   3.916   6.465   4.156
 1418TIP3    H2 4196   3.772   6.440   4.197
 1419TIP3   OH2 4197   7.525   1.311   0.376
 1419TIP3    H1 4198   7.458   1.256   0.417
 1419TIP3    H2 4199   7.579   1.250   0.326
 1420TIP3   OH2 4200   7.975   2.505   1.192
 1420TIP3    H1 4201   7.935   2.580   1.147
 1420TIP3    H2 4202   7.945   2.429   1.142
 1421TIP3   OH2 4203   2.149   6.347   6.318
 1421TIP3    H1 4204   2.177   6.301   6.239
 1421TIP3    H2 4205   2.123   6.277   6.378
 1422TIP3   OH2 4206   2.382   5.812   5.354
 1422TIP3    H1 4207   2.416   5.884   5.406
 1422TIP3    H2 4208   2.353   5.852   5.272
 1423TIP3   OH2 4209   4.123   4.146   4.349
 1423TIP3    H1 4210   4.063   4.127   4.277
 1423TIP3    H2 4211   4.113   4.072   4.410
 1424TIP3   OH2 4212   3.628   2.149   6.493
 1424TIP3    H1 4213   3.550   2.098   6.518
 1424TIP3    H2 4214   3.683   2.147   6.571
 1425TIP3   OH2 4215   2.958   6.272   4.262
 1425TIP3    H1 4216   3.048   6.289   4.234
 1425TIP3    H2 4217   2.949   6.177   4.259
 1426TIP3   OH2 4218   3.159   7.625   2.528
 1426TIP3    H1 4219   3.232   7.636   2.467
 1426TIP3    H2 4220   3.131   7.714   2.549
 1427TIP3   OH2 4221   5.652   3.168   1.564
 1427TIP3    H1 4222   5.739   3.201   1.589
 1427TIP3    H2 4223   5.592   3.209   1.626
 1428TIP3   OH2 4224   6.487   5.550   3.442
 1428TIP3    H1 4225   6.541   5.614   3.488
 1428TIP3    H2 4226   6.542   5.471   3.436
 1429TIP3   OH2 4227   6.853   5.299   6.298
 1429TIP3    H1 4228   6.766   5.264   6.278
 1429TIP3    H2 4229   6.839   5.356   6.374
 1430TIP3   OH2 4230   4.542   5.905   5.859
 1430TIP3    H1 4231   4.471   5.960   5.893
 1430TIP3    H2 4232   4.515   5.816   5.881
 1431TIP3   OH2 4233   2.726   1.546   5.471
 1431TIP3    H1 4234   2.804   1.493   5.456
 1431TIP3    H2 4235   2.670   1.530   5.395
 1432TIP3   OH2 4236   3.017   5.377   6.443
 1432TIP3    H1 4237   2.930   5.338   6.435
 1432TIP3    H2 4238   3.048   5.349   6.529
 1433TIP3   OH2 4239   1.868   7.308   2.233
 1433TIP3    H1 4240   1.816   7.228   2.240
 1433TIP3    H2 4241   1.949   7.289   2.281
 1434TIP3   OH2 4242   3.478   3.135   0.169
 1434TIP3    H1 4243   3.531   3.195   0.118
 1434TIP3    H2 4244   3.429   3.085   0.103
 1435TIP3   OH2 4245   8.298   6.278   4.749
 1435TIP3    H1 4246   8.372   6.299   4.693
 1435TIP3    H2 4247   8.254   6.207   4.704
 1436TIP3   OH2 4248   6.956   0.099   0.717
 1436TIP3    H1 4249   6.947   0.015   0.763
 1436TIP3    H2 4250   6.866   0.129   0.705
 1437TIP3   OH2 4251   2.685   4.660   4.965
 1437TIP3    H1 4252   2.663   4.733   5.023
 1437TIP3    H2 4253   2.637   4.679   4.884
 1438TIP3   OH2 4254   0.635   5.676   2.327
 1438TIP3    H1 4255   0.604   5.655   2.239
 1438TIP3    H2 4256   0.636   5.772   2.330
 1439TIP3   OH2 4257   5.999   4.690   1.417
 1439TIP3    H1 4258   5.926   4.663   1.472
 1439TIP3    H2 4259   6.039   4.763   1.463
 1440TIP3   OH2 4260   8.066   3.618   0.868
 1440TIP3    H1 4261   8.003   3.628   0.940
 1440TIP3    H2 4262   8.051   3.694   0.813
 1441TIP3   OH2 4263   6.995   5.652   3.919
 1441TIP3    H1 4264   7.072   5.685   3.965
 1441TIP3    H2 4265   7.017   5.659   3.826
 1442TIP3   OH2 4266   1.495   3.478   6.087
 1442TIP3    H1 4267   1.453   3.408   6.137
 1442TIP3    H2 4268   1.471   3.460   5.996
 1443TIP3   OH2 4269   0.986   6.281   0.127
 1443TIP3    H1 4270   0.973   6.347   0.195
 1443TIP3    H2 4271   0.902   6.279   0.080
 1444TIP3   OH2 4272   7.987   5.944   2.945
 1444TIP3    H1 4273   8.040   5.905   2.875
 1444TIP3    H2 4274   8.050   5.964   3.014
 1445TIP3   OH2 4275   0.097   5.013   0.837
 1445TIP3    H1 4276   0.039   4.961   0.782
 1445TIP3    H2 4277   0.178   4.963   0.841
 1446TIP3   OH2 4278   0.878   4.465   2.316
 1446TIP3    H1 4279   0.824   4.542   2.337
 1446TIP3    H2 4280   0.950   4.500   2.264
 1447TIP3   OH2 4281   6.122   5.268   0.542
 1447TIP3    H1 4282   6.040   5.289   0.497
 1447TIP3    H2 4283   6.168   5.209   0.482
 1448TIP3   OH2 4284   4.109   2.666   1.828
 1448TIP3    H1 4285   4.183   2.663   1.889
 1448TIP3    H2 4286   4.143   2.633   1.746
 1449TIP3   OH2 4287   5.814   7.839   3.738
 1449TIP3    H1 4288   5.806   7.854   3.644
 1449TIP3    H2 4289   5.793   7.747   3.750
 1450TIP3   OH2 4290   2.384   1.982   5.698
 1450TIP3    H1 4291   2.393   2.014   5.788
 1450TIP3    H2 4292   2.435   1.901   5.695
 1451TIP3   OH2 4293   7.622   5.721   2.076
 1451TIP3    H1 4294   7.589   5.674   2.000
 1451TIP3    H2 4295   7.610   5.660   2.149
 1452TIP3   OH2 4296   2.132   1.049   6.262
 1452TIP3    H1 4297   2.168   1.025   6.347
 1452TIP3    H2 4298   2.208   1.070   6.209
 1453TIP3   OH2 4299   4.752   7.278   0.329
 1453TIP3    H1 4300   4.794   7.222   0.263
 1453TIP3    H2 4301   4.751   7.365   0.289
 1454TIP3   OH2 4302   3.361   3.685   0.768
 1454TIP3    H1 4303   3.409   3.602   0.767
 1454TIP3    H2 4304   3.429   3.752   0.761
 1455TIP3   OH2 4305   4.363   5.645   4.581
 1455TIP3    H1 4306   4.455   5.670   4.576
 1455TIP3    H2 4307   4.317   5.710   4.528
 1456TIP3   OH2 4308   4.772   5.035   5.523
 1456TIP3    H1 4309   4.683   5.008   5.544
 1456TIP3    H2 4310   4.769   5.131   5.527
 1457TIP3   OH2 4311   5.121   2.530   0.654
 1457TIP3    H1 4312   5.074   2.597   0.702
 1457TIP3    H2 4313   5.157   2.472   0.721
 1458TIP3   OH2 4314   0.255   3.546   0.865
 1458TIP3    H1 4315   0.238   3.465   0.818
 1458TIP3    H2 4316   0.171   3.590   0.869
 1459TIP3   OH2 4317   0.893   0.943   4.022
 1459TIP3    H1 4318   0.970   0.985   4.060
 1459TIP3    H2 4319   0.859   0.889   4.093
 1460TIP3   OH2 4320   8.335   7.516   2.822
 1460TIP3    H1 4321   8.274   7.585   2.849
 1460TIP3    H2 4322   8.417   7.539   2.867
 1461TIP3   OH2 4323   4.963   4.911   4.292
 1461TIP3    H1 4324   4.932   4.888   4.380
 1461TIP3    H2 4325   4.913   4.990   4.270
 1462TIP3   OH2 4326   4.220   4.110   3.200
 1462TIP3    H1 4327   4.241   4.200   3.225
 1462TIP3    H2 4328   4.204   4.114   3.106
 1463TIP3   OH2 4329   3.149   2.191   5.689
 1463TIP3    H1 4330   3.089   2.137   5.741
 1463TIP3    H2 4331   3.154   2.274   5.736
 1464TIP3   OH2 4332   2.739   7.292   2.237
 1464TIP3    H1 4333   2.768   7.291   2.145
 1464TIP3    H2 4334   2.797   7.355   2.279
 1465TIP3   OH2 4335   6.957   2.013   1.639
 1465TIP3    H1 4336   6.874   1.998   1.685
 1465TIP3    H2 4337   6.945   2.096   1.594
 1466TIP3   OH2 4338   5.965   4.195   5.749
 1466TIP3    H1 4339   5.914   4.257   5.696
 1466TIP3    H2 4340   5.958   4.112   5.702
 1467TIP3   OH2 4341   2.340   2.941   0.364
 1467TIP3    H1 4342   2.387   2.892   0.297
 1467TIP3    H2 4343   2.394   3.018   0.381
 1468TIP3   OH2 4344   6.950   3.544   1.026
 1468TIP3    H1 4345   6.902   3.543   0.943
 1468TIP3    H2 4346   6.896   3.597   1.084
 1469TIP3   OH2 4347   8.293   5.375   2.300
 1469TIP3    H1 4348   8.253   5.383   2.386
 1469TIP3    H2 4349   8.302   5.281   2.286
 1470TIP3   OH2 4350   6.062   3.577   1.344
 1470TIP3    H1 4351   5.999   3.618   1.285
 1470TIP3    H2 4352   6.093   3.500   1.297
 1471TIP3   OH2 4353   7.911   5.736   5.436
 1471TIP3    H1 4354   7.949   5.649   5.432
 1471TIP3    H2 4355   7.817   5.722   5.439
 1472TIP3   OH2 4356   5.190   5.042   0.412
 1472TIP3    H1 4357   5.284   5.050   0.431
 1472TIP3    H2 4358   5.157   4.983   0.480
 1473TIP3   OH2 4359   7.114   2.430   1.666
 1473TIP3    H1 4360   7.199   2.391   1.646
 1473TIP3    H2 4361   7.051   2.376   1.619
 1474TIP3   OH2 4362   7.733   4.110   6.656
 1474TIP3    H1 4363   7.770   4.164   6.586
 1474TIP3    H2 4364   7.685   4.172   6.711
 1475TIP3   OH2 4365   6.039   0.621   0.482
 1475TIP3    H1 4366   5.960   0.637   0.533
 1475TIP3    H2 4367   6.020   0.659   0.396
 1476TIP3   OH2 4368   2.084   1.871   6.006
 1476TIP3    H1 4369   2.093   1.950   6.060
 1476TIP3    H2 4370   2.023   1.896   5.937
 1477TIP3   OH2 4371   5.976   5.637   5.770
 1477TIP3    H1 4372   5.993   5.687   5.850
 1477TIP3    H2 4373   6.062   5.607   5.742
 1478TIP3   OH2 4374   0.550   2.789   0.870
 1478TIP3    H1 4375   0.498   2.857   0.911
 1478TIP3    H2 4376   0.630   2.833   0.842
 1479TIP3   OH2 4377   7.297   6.799   6.684
 1479TIP3    H1 4378   7.265   6.877   6.639
 1479TIP3    H2 4379   7.220   6.766   6.731
 1480TIP3   OH2 4380   6.238   5.407   2.753
 1480TIP3    H1 4381   6.217   5.479   2.812
 1480TIP3    H2 4382   6.218   5.328   2.803
 1481TIP3   OH2 4383   1.194   1.455   5.800
 1481TIP3    H1 4384   1.211   1.476   5.708
 1481TIP3    H2 4385   1.215   1.536   5.847
 1482TIP3   OH2 4386   4.622   0.154   2.250
 1482TIP3    H1 4387   4.601   0.248   2.248
 1482TIP3    H2 4388   4.576   0.118   2.175
 1483TIP3   OH2 4389   6.292   4.082   3.597
 1483TIP3    H1 4390   6.248   3.997   3.587
 1483TIP3    H2 4391   6.341   4.093   3.515
 1484TIP3   OH2 4392   0.461   6.729   1.084
 1484TIP3    H1 4393   0.440   6.806   1.138
 1484TIP3    H2 4394   0.554   6.714   1.099
 1485TIP3   OH2 4395   2.561   6.660   0.251
 1485TIP3    H1 4396   2.531   6.748   0.272
 1485TIP3    H2 4397   2.601   6.668   0.164
 1486TIP3   OH2 4398   3.052   1.520   5.895
 1486TIP3    H1 4399   3.135   1.568   5.901
 1486TIP3    H2 4400   2.986   1.583   5.922
 1487TIP3   OH2 4401   3.597   0.771   0.348
 1487TIP3    H1 4402   3.523   0.722   0.384
 1487TIP3    H2 4403   3.557   0.831   0.285
 1488TIP3   OH2 4404   2.292   7.960   1.632
 1488TIP3    H1 4405   2.302   7.877   1.679
 1488TIP3    H2 4406   2.258   7.935   1.546
 1489TIP3   OH2 4407   3.644   2.393   5.912
 1489TIP3    H1 4408   3.634   2.484   5.939
 1489TIP3    H2 4409   3.586   2.384   5.836
 1490TIP3   OH2 4410   8.164   5.505   1.760
 1490TIP3    H1 4411   8.216   5.427   1.777
 1490TIP3    H2 4412   8.226   5.578   1.769
 1491TIP3   OH2 4413   8.333   4.304   0.500
 1491TIP3    H1 4414   8.311   4.212   0.482
 1491TIP3    H2 4415   8.424   4.300   0.530
 1492TIP3   OH2 4416   0.840   4.914   4.239
 1492TIP3    H1 4417   0.803   4.835   4.198
 1492TIP3    H2 4418   0.807   4.986   4.186
 1493TIP3   OH2 4419   3.458   2.876   3.393
 1493TIP3    H1 4420   3.466   2.936   3.319
 1493TIP3    H2 4421   3.367   2.885   3.421
 1494TIP3   OH2 4422   6.014   3.270   5.666
 1494TIP3    H1 4423   6.048   3.190   5.628
 1494TIP3    H2 4424   5.922   3.250   5.684
 1495TIP3   OH2 4425   4.631   5.780   4.918
 1495TIP3    H1 4426   4.716   5.743   4.940
 1495TIP3    H2 4427   4.637   5.871   4.946
 1496TIP3   OH2 4428   7.689   5.574   1.722
 1496TIP3    H1 4429   7.762   5.564   1.660
 1496TIP3    H2 4430   7.647   5.656   1.696
 1497TIP3   OH2 4431   5.564   7.777   2.434
 1497TIP3    H1 4432   5.523   7.754   2.351
 1497TIP3    H2 4433   5.546   7.870   2.445
 1498TIP3   OH2 4434   6.710   5.383   3.421
 1498TIP3    H1 4435   6.761   5.365   3.342
 1498TIP3    H2 4436   6.749   5.462   3.458
 1499TIP3   OH2 4437   6.242   1.050   2.112
 1499TIP3    H1 4438   6.260   1.102   2.190
 1499TIP3    H2 4439   6.147   1.041   2.110
 1500TIP3   OH2 4440   5.472   4.460   3.574
 1500TIP3    H1 4441   5.441   4.549   3.555
 1500TIP3    H2 4442   5.394   4.405   3.566
 1501TIP3   OH2 4443   3.955   7.602   0.212
 1501TIP3    H1 4444   3.893   7.614   0.140
 1501TIP3    H2 4445   4.041   7.621   0.174
 1502TIP3   OH2 4446   7.405   4.059   4.919
 1502TIP3    H1 4447   7.439   4.115   4.988
 1502TIP3    H2 4448   7.310   4.072   4.921
 1503TIP3   OH2 4449   6.125   1.339   4.894
 1503TIP3    H1 4450   6.060   1.404   4.920
 1503TIP3    H2 4451   6.173   1.319   4.975
 1504TIP3   OH2 4452   5.110   6.028   6.514
 1504TIP3    H1 4453   5.115   5.934   6.534
 1504TIP3    H2 4454   5.032   6.058   6.561
 1505TIP3   OH2 4455   7.701   5.259   2.510
 1505TIP3    H1 4456   7.710   5.169   2.540
 1505TIP3    H2 4457   7.726   5.312   2.586
 1506TIP3   OH2 4458   4.010   2.194   5.260
 1506TIP3    H1 4459   3.947   2.123   5.274
 1506TIP3    H2 4460   3.963   2.273   5.285
 1507TIP3   OH2 4461   3.184   6.697   1.021
 1507TIP3    H1 4462   3.218   6.614   1.055
 1507TIP3    H2 4463   3.099   6.706   1.064
 1508TIP3   OH2 4464   4.069   0.648   6.887
 1508TIP3    H1 4465   4.047   0.561   6.853
 1508TIP3    H2 4466   3.986   0.681   6.922
 1509TIP3   OH2 4467   1.815   4.847   6.558
 1509TIP3    H1 4468   1.764   4.802   6.491
 1509TIP3    H2 4469   1.889   4.789   6.575
 1510TIP3   OH2 4470   2.878   1.109   3.982
 1510TIP3    H1 4471   2.860   1.183   3.924
 1510TIP3    H2 4472   2.894   1.148   4.068
 1511TIP3   OH2 4473   5.092   5.102   6.430
 1511TIP3    H1 4474   5.150   5.034   6.465
 1511TIP3    H2 4475   5.110   5.102   6.336
 1512TIP3   OH2 4476   4.052   3.392   3.457
 1512TIP3    H1 4477   3.958   3.404   3.469
 1512TIP3    H2 4478   4.087   3.382   3.546
 1513TIP3   OH2 4479   5.130   6.042   5.304
 1513TIP3    H1 4480   5.096   5.991   5.377
 1513TIP3    H2 4481   5.106   6.132   5.323
 1514TIP3   OH2 4482   3.459   0.932   1.964
 1514TIP3    H1 4483   3.370   0.942   1.931
 1514TIP3    H2 4484   3.513   0.981   1.902
 1515TIP3   OH2 4485   4.034   3.371   0.618
 1515TIP3    H1 4486   4.075   3.454   0.595
 1515TIP3    H2 4487   4.073   3.308   0.557
 1516TIP3   OH2 4488   0.794   4.471   2.684
 1516TIP3    H1 4489   0.725   4.411   2.653
 1516TIP3    H2 4490   0.790   4.545   2.624
 1517TIP3   OH2 4491   6.816   6.394   3.755
 1517TIP3    H1 4492   6.812   6.421   3.846
 1517TIP3    H2 4493   6.842   6.473   3.707
 1518TIP3   OH2 4494   4.207   4.772   2.630
 1518TIP3    H1 4495   4.273   4.709   2.659
 1518TIP3    H2 4496   4.198   4.833   2.703
 1519TIP3   OH2 4497   8.193   5.767   1.234
 1519TIP3    H1 4498   8.113   5.721   1.261
 1519TIP3    H2 4499   8.162   5.841   1.183
 1520TIP3   OH2 4500   7.039   7.691   0.414
 1520TIP3    H1 4501   7.126   7.687   0.455
 1520TIP3    H2 4502   6.982   7.728   0.480
 1521TIP3   OH2 4503   7.404   4.949   0.084
 1521TIP3    H1 4504   7.376   4.860   0.064
 1521TIP3    H2 4505   7.446   4.979   0.004
 1522TIP3   OH2 4506   5.745   1.632   4.763
 1522TIP3    H1 4507   5.820   1.646   4.704
 1522TIP3    H2 4508   5.707   1.719   4.774
 1523TIP3   OH2 4509   2.865   2.682   0.672
 1523TIP3    H1 4510   2.932   2.619   0.648
 1523TIP3    H2 4511   2.891   2.713   0.759
 1524TIP3   OH2 4512   7.543   3.086   1.982
 1524TIP3    H1 4513   7.530   3.076   2.076
 1524TIP3    H2 4514   7.637   3.102   1.972
 1525TIP3   OH2 4515   2.374   1.751   5.420
 1525TIP3    H1 4516   2.289   1.711   5.438
 1525TIP3    H2 4517   2.360   1.801   5.339
 1526TIP3   OH2 4518   0.158   4.437   5.582
 1526TIP3    H1 4519   0.207   4.361   5.613
 1526TIP3    H2 4520   0.196   4.457   5.496
 1527TIP3   OH2 4521   5.636   6.111   2.576
 1527TIP3    H1 4522   5.628   6.117   2.480
 1527TIP3    H2 4523   5.724   6.146   2.594
 1528TIP3   OH2 4524   6.844   7.261   2.576
 1528TIP3    H1 4525   6.761   7.213   2.568
 1528TIP3    H2 4526   6.902   7.218   2.512
 1529TIP3   OH2 4527   2.575   1.750   5.600
 1529TIP3    H1 4528   2.638   1.689   5.563
 1529TIP3    H2 4529   2.497   1.739   5.546
 1530TIP3   OH2 4530   6.870   7.285   0.532
 1530TIP3    H1 4531   6.895   7.336   0.455
 1530TIP3    H2 4532   6.953   7.249   0.565
 1531TIP3   OH2 4533   1.472   7.848   5.240
 1531TIP3    H1 4534   1.505   7.774   5.188
 1531TIP3    H2 4535   1.447   7.809   5.324
 1532TIP3   OH2 4536   6.536   4.959   4.636
 1532TIP3    H1 4537   6.576   4.935   4.553
 1532TIP3    H2 4538   6.472   5.027   4.613
 1533TIP3   OH2 4539   2.143   7.752   3.674
 1533TIP3    H1 4540   2.225   7.705   3.687
 1533TIP3    H2 4541   2.169   7.843   3.658
 1534TIP3   OH2 4542   3.602   0.921   1.203
 1534TIP3    H1 4543   3.547   0.875   1.140
 1534TIP3    H2 4544   3.548   0.927   1.282
 1535TIP3   OH2 4545   6.669   7.230   4.557
 1535TIP3    H1 4546   6.654   7.304   4.499
 1535TIP3    H2 4547   6.696   7.270   4.640
 1536TIP3   OH2 4548   1.323   4.833   2.030
 1536TIP3    H1 4549   1.258   4.883   1.980
 1536TIP3    H2 4550   1.288   4.744   2.034
 1537TIP3   OH2 4551   2.213   0.996   4.921
 1537TIP3    H1 4552   2.181   1.034   4.839
 1537TIP3    H2 4553   2.182   1.056   4.989
 1538TIP3   OH2 4554   6.948   6.800   2.351
 1538TIP3    H1 4555   6.863   6.820   2.312
 1538TIP3    H2 4556   6.954   6.705   2.349
 1539TIP3   OH2 4557   7.112   4.451   0.025
 1539TIP3    H1 4558   7.085   4.499  -0.053
 1539TIP3    H2 4559   7.035   4.454   0.082
 1540TIP3   OH2 4560   0.847   1.704   3.787
 1540TIP3    H1 4561   0.851   1.628   3.730
 1540TIP3    H2 4562   0.937   1.734   3.793
 1541TIP3   OH2 4563   6.819   1.371   3.373
 1541TIP3    H1 4564   6.850   1.416   3.294
 1541TIP3    H2 4565   6.896   1.364   3.429
 1542TIP3   OH2 4566   5.544   4.671   1.267
 1542TIP3    H1 4567   5.486   4.738   1.304
 1542TIP3    H2 4568   5.630   4.713   1.263
 1543TIP3   OH2 4569   2.130   0.169   0.093
 1543TIP3    H1 4570   2.223   0.174   0.114
 1543TIP3    H2 4571   2.109   0.076   0.095
 1544TIP3   OH2 4572   1.090   3.207   4.953
 1544TIP3    H1 4573   1.133   3.168   4.877
 1544TIP3    H2 4574   1.123   3.157   5.028
 1545TIP3   OH2 4575   7.026   3.074   4.219
 1545TIP3    H1 4576   7.009   3.072   4.125
 1545TIP3    H2 4577   7.091   3.005   4.234
 1546TIP3   OH2 4578   0.878   2.288   6.609
 1546TIP3    H1 4579   0.845   2.375   6.629
 1546TIP3    H2 4580   0.897   2.290   6.515
 1547TIP3   OH2 4581   6.648   3.452   0.481
 1547TIP3    H1 4582   6.645   3.375   0.424
 1547TIP3    H2 4583   6.739   3.480   0.479
 1548TIP3   OH2 4584   5.009   5.339   3.543
 1548TIP3    H1 4585   4.946   5.347   3.614
 1548TIP3    H2 4586   5.001   5.422   3.495
 1549TIP3   OH2 4587   6.360   5.667   0.440
 1549TIP3    H1 4588   6.425   5.599   0.459
 1549TIP3    H2 4589   6.412   5.747   0.433
 1550TIP3   OH2 4590   1.772   6.716   0.483
 1550TIP3    H1 4591   1.808   6.661   0.413
 1550TIP3    H2 4592   1.702   6.765   0.441
 1551TIP3   OH2 4593   4.266   2.783   2.468
 1551TIP3    H1 4594   4.204   2.768   2.397
 1551TIP3    H2 4595   4.211   2.801   2.544
 1552TIP3   OH2 4596   8.303   0.695   0.753
 1552TIP3    H1 4597   8.273   0.715   0.665
 1552TIP3    H2 4598   8.399   0.691   0.745
 1553TIP3   OH2 4599   6.410   5.062   5.088
 1553TIP3    H1 4600   6.322   5.080   5.121
 1553TIP3    H2 4601   6.457   5.144   5.099
 1554TIP3   OH2 4602   6.510   0.353   6.200
 1554TIP3    H1 4603   6.472   0.355   6.112
 1554TIP3    H2 4604   6.558   0.435   6.207
 1555TIP3   OH2 4605   4.671   5.422  -0.037
 1555TIP3    H1 4606   4.697   5.330  -0.044
 1555TIP3    H2 4607   4.719   5.455   0.039
 1556TIP3   OH2 4608   5.734   7.169   1.364
 1556TIP3    H1 4609   5.673   7.123   1.307
 1556TIP3    H2 4610   5.790   7.220   1.305
 1557TIP3   OH2 4611   5.425   6.488   4.153
 1557TIP3    H1 4612   5.480   6.422   4.110
 1557TIP3    H2 4613   5.378   6.440   4.221
 1558TIP3   OH2 4614   4.657   1.556   2.216
 1558TIP3    H1 4615   4.653   1.558   2.312
 1558TIP3    H2 4616   4.690   1.643   2.192
 1559TIP3   OH2 4617   2.524   1.435   2.031
 1559TIP3    H1 4618   2.519   1.392   1.946
 1559TIP3    H2 4619   2.618   1.436   2.051
 1560TIP3   OH2 4620  -0.061   4.716   0.848
 1560TIP3    H1 4621  -0.068   4.779   0.920
 1560TIP3    H2 4622  -0.075   4.631   0.890
 1561TIP3   OH2 4623   0.228   7.022   2.781
 1561TIP3    H1 4624   0.192   7.025   2.692
 1561TIP3    H2 4625   0.164   7.069   2.835
 1562TIP3   OH2 4626   2.422   2.705   2.696
 1562TIP3    H1 4627   2.373   2.624   2.685
 1562TIP3    H2 4628   2.440   2.734   2.606
 1563TIP3   OH2 4629   1.737   3.334   5.535
 1563TIP3    H1 4630   1.652   3.292   5.534
 1563TIP3    H2 4631   1.719   3.424   5.507
 1564TIP3   OH2 4632   6.940   2.122   2.310
 1564TIP3    H1 4633   6.933   2.027   2.301
 1564TIP3    H2 4634   7.021   2.145   2.264
 1565TIP3   OH2 4635   0.818   0.234   5.093
 1565TIP3    H1 4636   0.752   0.176   5.053
 1565TIP3    H2 4637   0.771   0.315   5.110
 1566TIP3   OH2 4638   6.513   4.492   5.194
 1566TIP3    H1 4639   6.550   4.407   5.171
 1566TIP3    H2 4640   6.547   4.552   5.127
 1567TIP3   OH2 4641   1.448   2.957   0.017
 1567TIP3    H1 4642   1.516   2.987  -0.043
 1567TIP3    H2 4643   1.483   2.877   0.056
 1568TIP3   OH2 4644   7.609   1.471   5.994
 1568TIP3    H1 4645   7.673   1.516   6.049
 1568TIP3    H2 4646   7.649   1.386   5.976
 1569TIP3   OH2 4647   3.239   2.419   1.964
 1569TIP3    H1 4648   3.213   2.511   1.971
 1569TIP3    H2 4649   3.182   2.373   2.025
 1570TIP3   OH2 4650   7.587   7.638   2.790
 1570TIP3    H1 4651   7.495   7.618   2.777
 1570TIP3    H2 4652   7.600   7.631   2.884
 1571TIP3   OH2 4653   2.937   6.046   0.343
 1571TIP3    H1 4654   2.971   6.001   0.265
 1571TIP3    H2 4655   2.927   6.138   0.315
 1572TIP3   OH2 4656   3.724   5.597   0.058
 1572TIP3    H1 4657   3.786   5.570  -0.010
 1572TIP3    H2 4658   3.641   5.560   0.031
 1573TIP3   OH2 4659   1.518   6.905   5.135
 1573TIP3    H1 4660   1.556   6.971   5.077
 1573TIP3    H2 4661   1.585   6.889   5.201
 1574TIP3   OH2 4662   2.096   5.629   2.183
 1574TIP3    H1 4663   2.087   5.706   2.127
 1574TIP3    H2 4664   2.039   5.563   2.143
 1575TIP3   OH2 4665   3.286   6.581   1.416
 1575TIP3    H1 4666   3.359   6.535   1.374
 1575TIP3    H2 4667   3.290   6.555   1.508
 1576TIP3   OH2 4668   6.239   0.744   4.735
 1576TIP3    H1 4669   6.326   0.703   4.739
 1576TIP3    H2 4670   6.255   0.830   4.697
 1577TIP3   OH2 4671   0.546   2.224   1.282
 1577TIP3    H1 4672   0.541   2.291   1.214
 1577TIP3    H2 4673   0.468   2.236   1.335
 1578TIP3   OH2 4674   1.461   7.732   0.350
 1578TIP3    H1 4675   1.448   7.720   0.444
 1578TIP3    H2 4676   1.479   7.826   0.341
 1579TIP3   OH2 4677   5.649   4.706   3.168
 1579TIP3    H1 4678   5.644   4.719   3.263
 1579TIP3    H2 4679   5.739   4.729   3.146
 1580TIP3   OH2 4680   1.061   7.075   3.101
 1580TIP3    H1 4681   1.074   6.980   3.097
 1580TIP3    H2 4682   1.049   7.101   3.010
 1581TIP3   OH2 4683   2.331   7.105   0.795
 1581TIP3    H1 4684   2.371   7.091   0.709
 1581TIP3    H2 4685   2.254   7.158   0.779
 1582TIP3   OH2 4686   8.280   3.006   0.628
 1582TIP3    H1 4687   8.353   2.967   0.580
 1582TIP3    H2 4688   8.315   3.025   0.715
 1583TIP3   OH2 4689   4.430   6.861   0.850
 1583TIP3    H1 4690   4.419   6.955   0.836
 1583TIP3    H2 4691   4.500   6.855   0.915
 1584TIP3   OH2 4692   2.915   2.781   3.188
 1584TIP3    H1 4693   2.953   2.813   3.106
 1584TIP3    H2 4694   2.982   2.722   3.223
 1585TIP3   OH2 4695   0.768   6.601   3.157
 1585TIP3    H1 4696   0.694   6.596   3.097
 1585TIP3    H2 4697   0.816   6.679   3.129
 1586TIP3   OH2 4698   0.942   0.210   3.706
 1586TIP3    H1 4699   0.962   0.187   3.797
 1586TIP3    H2 4700   0.926   0.304   3.709
 1587TIP3   OH2 4701   4.531   7.205   6.670
 1587TIP3    H1 4702   4.441   7.233   6.688
 1587TIP3    H2 4703   4.553   7.247   6.587
 1588TIP3   OH2 4704   1.883   7.229   2.834
 1588TIP3    H1 4705   1.930   7.265   2.758
 1588TIP3    H2 4706   1.837   7.303   2.871
 1589TIP3   OH2 4707   4.840   5.837   6.102
 1589TIP3    H1 4708   4.896   5.825   6.026
 1589TIP3    H2 4709   4.888   5.898   6.159
 1590TIP3   OH2 4710   7.749   5.326   0.387
 1590TIP3    H1 4711   7.773   5.419   0.380
 1590TIP3    H2 4712   7.718   5.304   0.299
 1591TIP3   OH2 4713   4.547   7.694   2.978
 1591TIP3    H1 4714   4.456   7.723   2.967
 1591TIP3    H2 4715   4.541   7.599   2.987
 1592TIP3   OH2 4716   3.760   4.612   1.489
 1592TIP3    H1 4717   3.784   4.673   1.419
 1592TIP3    H2 4718   3.808   4.644   1.566
 1593TIP3   OH2 4719   4.116   2.139   5.900
 1593TIP3    H1 4720   4.025   2.171   5.901
 1593TIP3    H2 4721   4.107   2.044   5.900
 1594TIP3   OH2 4722   7.453   2.642   3.700
 1594TIP3    H1 4723   7.524   2.600   3.652
 1594TIP3    H2 4724   7.393   2.571   3.721
 1595TIP3   OH2 4725   0.619   5.444   0.359
 1595TIP3    H1 4726   0.567   5.494   0.422
 1595TIP3    H2 4727   0.663   5.377   0.411
 1596TIP3   OH2 4728   2.781   3.471   2.531
 1596TIP3    H1 4729   2.732   3.552   2.512
 1596TIP3    H2 4730   2.850   3.468   2.465
 1597TIP3   OH2 4731   0.126   2.168   6.234
 1597TIP3    H1 4732   0.107   2.088   6.186
 1597TIP3    H2 4733   0.051   2.225   6.218
 1598TIP3   OH2 4734   6.076   2.200   5.089
 1598TIP3    H1 4735   6.113   2.214   5.001
 1598TIP3    H2 4736   6.102   2.277   5.139
 1599TIP3   OH2 4737   6.614   4.799   6.125
 1599TIP3    H1 4738   6.645   4.868   6.067
 1599TIP3    H2 4739   6.520   4.794   6.109
 1600TIP3   OH2 4740   3.895   6.048   3.337
 1600TIP3    H1 4741   3.990   6.033   3.340
 1600TIP3    H2 4742   3.886   6.131   3.291
 1601TIP3   OH2 4743   4.812   1.213   6.239
 1601TIP3    H1 4744   4.789   1.144   6.301
 1601TIP3    H2 4745   4.884   1.260   6.280
 1602TIP3   OH2 4746   6.309   0.929   4.084
 1602TIP3    H1 4747   6.278   0.858   4.141
 1602TIP3    H2 4748   6.401   0.939   4.108
 1603TIP3   OH2 4749   7.256   0.276   4.312
 1603TIP3    H1 4750   7.255   0.248   4.220
 1603TIP3    H2 4751   7.274   0.370   4.308
 1604TIP3   OH2 4752   6.181   3.839   0.280
 1604TIP3    H1 4753   6.160   3.784   0.355
 1604TIP3    H2 4754   6.276   3.835   0.272
 1605TIP3   OH2 4755   2.229   5.694   3.300
 1605TIP3    H1 4756   2.215   5.788   3.303
 1605TIP3    H2 4757   2.223   5.671   3.208
 1606TIP3   OH2 4758   0.173   4.995   1.650
 1606TIP3    H1 4759   0.092   4.950   1.625
 1606TIP3    H2 4760   0.226   4.995   1.570
 1607TIP3   OH2 4761   6.877   5.574   2.472
 1607TIP3    H1 4762   6.873   5.640   2.542
 1607TIP3    H2 4763   6.908   5.494   2.516
 1608TIP3   OH2 4764   3.115   6.872   5.533
 1608TIP3    H1 4765   3.100   6.777   5.532
 1608TIP3    H2 4766   3.209   6.882   5.541
 1609TIP3   OH2 4767   2.259   3.182   3.742
 1609TIP3    H1 4768   2.312   3.179   3.662
 1609TIP3    H2 4769   2.322   3.193   3.813
 1610TIP3   OH2 4770   7.058   3.506   3.493
 1610TIP3    H1 4771   6.978   3.516   3.544
 1610TIP3    H2 4772   7.091   3.419   3.516
 1611TIP3   OH2 4773   2.408   0.441   6.551
 1611TIP3    H1 4774   2.478   0.486   6.598
 1611TIP3    H2 4775   2.333   0.500   6.558
 1612TIP3   OH2 4776   4.535   1.420   3.290
 1612TIP3    H1 4777   4.501   1.336   3.320
 1612TIP3    H2 4778   4.511   1.482   3.359
 1613TIP3   OH2 4779   2.014   6.354   5.348
 1613TIP3    H1 4780   1.923   6.327   5.335
 1613TIP3    H2 4781   2.062   6.272   5.360
 1614TIP3   OH2 4782   0.672   7.294   5.518
 1614TIP3    H1 4783   0.701   7.241   5.444
 1614TIP3    H2 4784   0.742   7.359   5.529
 1615TIP3   OH2 4785   6.119   3.268   3.734
 1615TIP3    H1 4786   6.135   3.288   3.826
 1615TIP3    H2 4787   6.033   3.306   3.715
 1616TIP3   OH2 4788   4.411   4.281   1.995
 1616TIP3    H1 4789   4.427   4.342   1.923
 1616TIP3    H2 4790   4.486   4.222   1.993
 1617TIP3   OH2 4791   6.071   4.221   3.882
 1617TIP3    H1 4792   5.995   4.163   3.889
 1617TIP3    H2 4793   6.141   4.176   3.930
 1618TIP3   OH2 4794   5.372   2.347   3.907
 1618TIP3    H1 4795   5.427   2.423   3.926
 1618TIP3    H2 4796   5.282   2.381   3.908
 1619TIP3   OH2 4797   2.326   2.958   3.111
 1619TIP3    H1 4798   2.321   3.021   3.039
 1619TIP3    H2 4799   2.351   3.010   3.187
 1620TIP3   OH2 4800   5.860   3.648   1.146
 1620TIP3    H1 4801   5.827   3.604   1.068
 1620TIP3    H2 4802   5.822   3.600   1.220
 1621TIP3   OH2 4803   0.349   5.718   2.734
 1621TIP3    H1 4804   0.345   5.624   2.716
 1621TIP3    H2 4805   0.260   5.749   2.719
 1622TIP3   OH2 4806   5.514   5.866   4.092
 1622TIP3    H1 4807   5.590   5.911   4.130
 1622TIP3    H2 4808   5.492   5.917   4.014
 1623TIP3   OH2 4809   5.354   0.102   1.673
 1623TIP3    H1 4810   5.416   0.037   1.638
 1623TIP3    H2 4811   5.269   0.060   1.666
 1624TIP3   OH2 4812   2.671   0.439   6.213
 1624TIP3    H1 4813   2.754   0.440   6.166
 1624TIP3    H2 4814   2.657   0.530   6.238
 1625TIP3   OH2 4815   0.336   1.204   4.690
 1625TIP3    H1 4816   0.265   1.178   4.748
 1625TIP3    H2 4817   0.415   1.179   4.736
 1626TIP3   OH2 4818   7.576   4.172   0.119
 1626TIP3    H1 4819   7.608   4.083   0.134
 1626TIP3    H2 4820   7.596   4.218   0.201
 1627TIP3   OH2 4821   3.752   6.091   5.964
 1627TIP3    H1 4822   3.722   6.182   5.974
 1627TIP3    H2 4823   3.833   6.098   5.914
 1628TIP3   OH2 4824   6.426   0.577   6.646
 1628TIP3    H1 4825   6.403   0.667   6.623
 1628TIP3    H2 4826   6.367   0.555   6.718
 1629TIP3   OH2 4827   7.423   1.209   5.575
 1629TIP3    H1 4828   7.475   1.247   5.504
 1629TIP3    H2 4829   7.426   1.275   5.644
 1630TIP3   OH2 4830   0.480   3.269   3.624
 1630TIP3    H1 4831   0.433   3.337   3.673
 1630TIP3    H2 4832   0.453   3.282   3.533
 1631TIP3   OH2 4833   7.117   7.359   6.361
 1631TIP3    H1 4834   7.064   7.285   6.389
 1631TIP3    H2 4835   7.190   7.362   6.423
 1632TIP3   OH2 4836   3.434   2.895   1.609
 1632TIP3    H1 4837   3.410   2.951   1.683
 1632TIP3    H2 4838   3.455   2.957   1.539
 1633TIP3   OH2 4839   3.546   5.363   6.717
 1633TIP3    H1 4840   3.624   5.332   6.671
 1633TIP3    H2 4841   3.562   5.456   6.731
 1634TIP3   OH2 4842   4.216   5.227   5.465
 1634TIP3    H1 4843   4.298   5.265   5.435
 1634TIP3    H2 4844   4.216   5.138   5.432
 1635TIP3   OH2 4845   2.558   4.571   5.648
 1635TIP3    H1 4846   2.546   4.548   5.740
 1635TIP3    H2 4847   2.479   4.619   5.625
 1636TIP3   OH2 4848   3.528   4.038   5.593
 1636TIP3    H1 4849   3.445   4.002   5.561
 1636TIP3    H2 4850   3.532   4.126   5.554
 1637TIP3   OH2 4851   0.493   7.733   2.159
 1637TIP3    H1 4852   0.505   7.753   2.252
 1637TIP3    H2 4853   0.581   7.736   2.123
 1638TIP3   OH2 4854   5.663   5.814   5.537
 1638TIP3    H1 4855   5.695   5.892   5.492
 1638TIP3    H2 4856   5.698   5.740   5.486
 1639TIP3   OH2 4857   5.444   5.219   3.346
 1639TIP3    H1 4858   5.465   5.239   3.438
 1639TIP3    H2 4859   5.367   5.162   3.351
 1640TIP3   OH2 4860   2.545   6.772   2.282
 1640TIP3    H1 4861   2.586   6.859   2.288
 1640TIP3    H2 4862   2.603   6.721   2.227
 1641TIP3   OH2 4863   8.081   0.353   2.743
 1641TIP3    H1 4864   8.002   0.316   2.704
 1641TIP3    H2 4865   8.105   0.292   2.812
 1642TIP3   OH2 4866   2.061   3.160   1.948
 1642TIP3    H1 4867   2.128   3.209   1.902
 1642TIP3    H2 4868   1.983   3.215   1.943
 1643TIP3   OH2 4869   3.174   3.030   0.758
 1643TIP3    H1 4870   3.234   3.040   0.684
 1643TIP3    H2 4871   3.209   2.956   0.807
 1644TIP3   OH2 4872   5.164   5.121   2.857
 1644TIP3    H1 4873   5.111   5.089   2.930
 1644TIP3    H2 4874   5.130   5.209   2.840
 1645TIP3   OH2 4875   8.221   2.747   5.901
 1645TIP3    H1 4876   8.283   2.820   5.891
 1645TIP3    H2 4877   8.142   2.788   5.936
 1646TIP3   OH2 4878   1.020   4.733   3.511
 1646TIP3    H1 4879   1.114   4.717   3.521
 1646TIP3    H2 4880   0.981   4.646   3.515
 1647TIP3   OH2 4881   7.702   2.879   0.718
 1647TIP3    H1 4882   7.629   2.930   0.754
 1647TIP3    H2 4883   7.666   2.792   0.705
 1648TIP3   OH2 4884   0.415   1.278   4.439
 1648TIP3    H1 4885   0.365   1.245   4.513
 1648TIP3    H2 4886   0.377   1.363   4.420
 1649TIP3   OH2 4887   4.830   7.817   6.552
 1649TIP3    H1 4888   4.767   7.863   6.607
 1649TIP3    H2 4889   4.820   7.725   6.577
 1650TIP3   OH2 4890   5.238   4.811   2.331
 1650TIP3    H1 4891   5.214   4.729   2.374
 1650TIP3    H2 4892   5.332   4.819   2.347
 1651TIP3   OH2 4893   7.347   4.435   0.189
 1651TIP3    H1 4894   7.266   4.428   0.139
 1651TIP3    H2 4895   7.357   4.350   0.231
 1652TIP3   OH2 4896   2.026   4.288   1.716
 1652TIP3    H1 4897   2.003   4.372   1.675
 1652TIP3    H2 4898   1.977   4.288   1.799
 1653TIP3   OH2 4899   3.166   5.861   6.664
 1653TIP3    H1 4900   3.077   5.835   6.642
 1653TIP3    H2 4901   3.221   5.800   6.615
 1654TIP3   OH2 4902   2.820   0.791   1.864
 1654TIP3    H1 4903   2.769   0.715   1.889
 1654TIP3    H2 4904   2.771   0.866   1.898
 1655TIP3   OH2 4905   2.316   0.750   5.037
 1655TIP3    H1 4906   2.265   0.822   4.999
 1655TIP3    H2 4907   2.310   0.679   4.973
 1656TIP3   OH2 4908   0.532   3.369   1.072
 1656TIP3    H1 4909   0.471   3.340   1.140
 1656TIP3    H2 4910   0.502   3.457   1.049
 1657TIP3   OH2 4911   2.634   6.709   1.474
 1657TIP3    H1 4912   2.711   6.663   1.506
 1657TIP3    H2 4913   2.623   6.678   1.384
 1658TIP3   OH2 4914   7.427   3.298   3.373
 1658TIP3    H1 4915   7.342   3.290   3.330
 1658TIP3    H2 4916   7.490   3.304   3.302
 1659TIP3   OH2 4917   4.293   5.035   4.898
 1659TIP3    H1 4918   4.213   5.030   4.949
 1659TIP3    H2 4919   4.282   5.111   4.842
 1660TIP3   OH2 4920   4.853   4.165   4.045
 1660TIP3    H1 4921   4.832   4.102   3.976
 1660TIP3    H2 4922   4.773   4.216   4.056
 1661TIP3   OH2 4923   5.708   3.685   6.393
 1661TIP3    H1 4924   5.740   3.775   6.389
 1661TIP3    H2 4925   5.761   3.645   6.462
 1662TIP3   OH2 4926   3.904   0.653   3.262
 1662TIP3    H1 4927   3.871   0.700   3.185
 1662TIP3    H2 4928   3.955   0.581   3.226
 1663TIP3   OH2 4929   0.176   0.528   4.441
 1663TIP3    H1 4930   0.240   0.534   4.370
 1663TIP3    H2 4931   0.092   0.520   4.396
 1664TIP3   OH2 4932   6.588   3.791   0.890
 1664TIP3    H1 4933   6.604   3.865   0.948
 1664TIP3    H2 4934   6.637   3.812   0.811
 1665TIP3   OH2 4935   7.371   7.163   1.173
 1665TIP3    H1 4936   7.340   7.249   1.144
 1665TIP3    H2 4937   7.295   7.123   1.215
 1666TIP3   OH2 4938   7.455   2.647   4.594
 1666TIP3    H1 4939   7.486   2.710   4.528
 1666TIP3    H2 4940   7.523   2.580   4.597
 1667TIP3   OH2 4941   2.883   4.637   5.166
 1667TIP3    H1 4942   2.954   4.681   5.120
 1667TIP3    H2 4943   2.811   4.634   5.103
 1668TIP3   OH2 4944   5.632   0.697   2.500
 1668TIP3    H1 4945   5.685   0.720   2.423
 1668TIP3    H2 4946   5.558   0.758   2.497
 1669TIP3   OH2 4947   6.459   2.976   5.665
 1669TIP3    H1 4948   6.487   3.067   5.657
 1669TIP3    H2 4949   6.510   2.942   5.738
 1670TIP3   OH2 4950   3.227   7.851   4.954
 1670TIP3    H1 4951   3.225   7.807   5.039
 1670TIP3    H2 4952   3.154   7.912   4.957
 1671TIP3   OH2 4953   3.674   2.256   3.388
 1671TIP3    H1 4954   3.699   2.347   3.403
 1671TIP3    H2 4955   3.713   2.234   3.303
 1672TIP3   OH2 4956   4.889   0.464   5.685
 1672TIP3    H1 4957   4.915   0.405   5.756
 1672TIP3    H2 4958   4.892   0.409   5.606
 1673TIP3   OH2 4959   7.706   1.226   1.191
 1673TIP3    H1 4960   7.689   1.241   1.284
 1673TIP3    H2 4961   7.620   1.209   1.152
 1674TIP3   OH2 4962   0.865   3.227   2.599
 1674TIP3    H1 4963   0.821   3.265   2.676
 1674TIP3    H2 4964   0.793   3.189   2.548
 1675TIP3   OH2 4965   6.147   6.082   6.155
 1675TIP3    H1 4966   6.207   6.023   6.110
 1675TIP3    H2 4967   6.112   6.138   6.086
 1676TIP3   OH2 4968   5.217   3.200   6.531
 1676TIP3    H1 4969   5.186   3.161   6.613
 1676TIP3    H2 4970   5.147   3.182   6.468
 1677TIP3   OH2 4971   3.340   5.139   6.864
 1677TIP3    H1 4972   3.306   5.217   6.821
 1677TIP3    H2 4973   3.379   5.088   6.792
 1678TIP3   OH2 4974   0.031   4.508   4.210
 1678TIP3    H1 4975   0.000   4.486   4.122
 1678TIP3    H2 4976   0.109   4.453   4.222
 1679TIP3   OH2 4977   3.573   5.396   2.814
 1679TIP3    H1 4978   3.595   5.317   2.864
 1679TIP3    H2 4979   3.649   5.410   2.757
 1680TIP3   OH2 4980   5.192   4.902   4.985
 1680TIP3    H1 4981   5.274   4.919   5.032
 1680TIP3    H2 4982   5.123   4.919   5.050
 1681TIP3   OH2 4983   2.952   3.352   3.718
 1681TIP3    H1 4984   2.972   3.413   3.647
 1681TIP3    H2 4985   2.898   3.284   3.678
 1682TIP3   OH2 4986   6.612   0.978   4.127
 1682TIP3    H1 4987   6.651   1.014   4.207
 1682TIP3    H2 4988   6.637   1.040   4.059
 1683TIP3   OH2 4989   0.581   3.030   6.093
 1683TIP3    H1 4990   0.547   3.098   6.150
 1683TIP3    H2 4991   0.522   3.030   6.018
 1684TIP3   OH2 4992   0.309   7.507   6.580
 1684TIP3    H1 4993   0.225   7.483   6.619
 1684TIP3    H2 4994   0.334   7.589   6.623
 1685TIP3   OH2 4995   5.155   1.940   2.132
 1685TIP3    H1 4996   5.126   2.019   2.177
 1685TIP3    H2 4997   5.167   1.966   2.041
 1686TIP3   OH2 4998   8.008   7.000   4.027
 1686TIP3    H1 4999   7.976   7.089   4.014
 1686TIP3    H2 5000   8.092   6.997   3.981
 1687TIP3   OH2 5001   0.765   2.931   6.319
 1687TIP3    H1 5002   0.800   2.847   6.288
 1687TIP3    H2 5003   0.708   2.961   6.248
 1688TIP3   OH2 5004   4.931   5.374   3.215
 1688TIP3    H1 5005   5.017   5.415   3.227
 1688TIP3    H2 5006   4.913   5.384   3.122
 1689TIP3   OH2 5007   2.872   7.376   0.832
 1689TIP3    H1 5008   2.831   7.461   0.817
 1689TIP3    H2 5009   2.964   7.396   0.849
 1690TIP3   OH2 5010   6.428   7.250   1.022
 1690TIP3    H1 5011   6.443   7.205   0.939
 1690TIP3    H2 5012   6.369   7.323   1.000
 1691TIP3   OH2 5013   6.508   6.916   6.508
 1691TIP3    H1 5014   6.491   6.954   6.422
 1691TIP3    H2 5015   6.599   6.888   6.505
 1692TIP3   OH2 5016   5.741   0.076   6.345
 1692TIP3    H1 5017   5.690   0.153   6.369
 1692TIP3    H2 5018   5.808   0.069   6.413
 1693TIP3   OH2 5019   2.634   4.113   2.847
 1693TIP3    H1 5020   2.656   4.176   2.916
 1693TIP3    H2 5021   2.576   4.161   2.788
 1694TIP3   OH2 5022   2.362   7.896   3.144
 1694TIP3    H1 5023   2.287   7.906   3.203
 1694TIP3    H2 5024   2.374   7.802   3.136
 1695TIP3   OH2 5025   1.575   1.180   3.711
 1695TIP3    H1 5026   1.646   1.165   3.649
 1695TIP3    H2 5027   1.618   1.206   3.792
 1696TIP3   OH2 5028   4.170   7.682   0.046
 1696TIP3    H1 5029   4.149   7.628  -0.029
 1696TIP3    H2 5030   4.136   7.769   0.024
 1697TIP3   OH2 5031   6.162   3.356   2.285
 1697TIP3    H1 5032   6.067   3.347   2.292
 1697TIP3    H2 5033   6.192   3.275   2.244
 1698TIP3   OH2 5034   4.654   5.544   2.214
 1698TIP3    H1 5035   4.681   5.635   2.226
 1698TIP3    H2 5036   4.639   5.512   2.303
 1699TIP3   OH2 5037   0.472   1.438   5.912
 1699TIP3    H1 5038   0.412   1.475   5.977
 1699TIP3    H2 5039   0.415   1.388   5.853
 1700TIP3   OH2 5040   2.446   7.665   3.962
 1700TIP3    H1 5041   2.528   7.641   4.005
 1700TIP3    H2 5042   2.378   7.649   4.027
 1701TIP3   OH2 5043   0.805   2.815   6.742
 1701TIP3    H1 5044   0.720   2.809   6.698
 1701TIP3    H2 5045   0.806   2.903   6.780
 1702TIP3   OH2 5046   3.955   4.699   1.691
 1702TIP3    H1 5047   4.011   4.755   1.637
 1702TIP3    H2 5048   3.985   4.717   1.781
 1703TIP3   OH2 5049   2.212   1.646   2.538
 1703TIP3    H1 5050   2.278   1.614   2.477
 1703TIP3    H2 5051   2.257   1.647   2.623
 1704TIP3   OH2 5052   1.123   0.214   4.007
 1704TIP3    H1 5053   1.196   0.154   4.001
 1704TIP3    H2 5054   1.046   0.160   3.990
 1705TIP3   OH2 5055   6.400   2.272   1.514
 1705TIP3    H1 5056   6.476   2.219   1.488
 1705TIP3    H2 5057   6.346   2.276   1.435
 1706TIP3   OH2 5058   6.885   7.253   5.016
 1706TIP3    H1 5059   6.925   7.262   4.930
 1706TIP3    H2 5060   6.951   7.210   5.070
 1707TIP3   OH2 5061   8.059   2.163   5.237
 1707TIP3    H1 5062   8.144   2.184   5.276
 1707TIP3    H2 5063   8.007   2.129   5.310
 1708TIP3   OH2 5064   4.285   1.689   4.394
 1708TIP3    H1 5065   4.243   1.748   4.458
 1708TIP3    H2 5066   4.212   1.654   4.344
 1709TIP3   OH2 5067   1.548   1.336   4.870
 1709TIP3    H1 5068   1.503   1.401   4.815
 1709TIP3    H2 5069   1.479   1.301   4.926
 1710TIP3   OH2 5070   0.335   3.790   5.867
 1710TIP3    H1 5071   0.368   3.817   5.782
 1710TIP3    H2 5072   0.397   3.723   5.897
 1711TIP3   OH2 5073   0.318   0.090   4.789
 1711TIP3    H1 5074   0.371   0.013   4.810
 1711TIP3    H2 5075   0.379   0.149   4.743
 1712TIP3   OH2 5076   7.251   2.474   0.235
 1712TIP3    H1 5077   7.161   2.507   0.233
 1712TIP3    H2 5078   7.271   2.455   0.143
 1713TIP3   OH2 5079   6.086   6.206   4.798
 1713TIP3    H1 5080   6.113   6.291   4.832
 1713TIP3    H2 5081   6.168   6.156   4.791
 1714TIP3   OH2 5082   4.031   3.840   4.094
 1714TIP3    H1 5083   4.078   3.817   4.174
 1714TIP3    H2 5084   4.045   3.766   4.036
 1715TIP3   OH2 5085   6.213   0.572   0.999
 1715TIP3    H1 5086   6.141   0.509   0.994
 1715TIP3    H2 5087   6.273   0.534   1.064
 1716TIP3   OH2 5088   7.597   0.205   6.411
 1716TIP3    H1 5089   7.643   0.124   6.434
 1716TIP3    H2 5090   7.525   0.177   6.355
 1717TIP3   OH2 5091   1.778   2.389   2.508
 1717TIP3    H1 5092   1.779   2.307   2.558
 1717TIP3    H2 5093   1.685   2.410   2.499
 1718TIP3   OH2 5094   5.429   6.059   5.216
 1718TIP3    H1 5095   5.371   6.111   5.272
 1718TIP3    H2 5096   5.397   5.970   5.224
 1719TIP3   OH2 5097   6.048   7.084   6.205
 1719TIP3    H1 5098   6.096   7.087   6.123
 1719TIP3    H2 5099   6.012   6.996   6.210
 1720TIP3   OH2 5100   5.328   5.266   2.672
 1720TIP3    H1 5101   5.319   5.262   2.767
 1720TIP3    H2 5102   5.282   5.188   2.640
 1721TIP3   OH2 5103   7.074   5.239   0.742
 1721TIP3    H1 5104   7.002   5.264   0.684
 1721TIP3    H2 5105   7.124   5.175   0.692
 1722TIP3   OH2 5106   6.618   4.719   3.495
 1722TIP3    H1 5107   6.698   4.681   3.531
 1722TIP3    H2 5108   6.554   4.711   3.566
 1723TIP3   OH2 5109   6.163   4.168   0.665
 1723TIP3    H1 5110   6.175   4.255   0.628
 1723TIP3    H2 5111   6.232   4.115   0.623
 1724TIP3   OH2 5112   6.720   7.509   3.425
 1724TIP3    H1 5113   6.763   7.424   3.421
 1724TIP3    H2 5114   6.782   7.569   3.385
 1725TIP3   OH2 5115   7.619   1.185   3.553
 1725TIP3    H1 5116   7.591   1.244   3.623
 1725TIP3    H2 5117   7.637   1.102   3.597
 1726TIP3   OH2 5118   1.374   3.137   0.579
 1726TIP3    H1 5119   1.307   3.083   0.620
 1726TIP3    H2 5120   1.398   3.089   0.499
 1727TIP3   OH2 5121   6.694   3.018   2.680
 1727TIP3    H1 5122   6.747   3.096   2.667
 1727TIP3    H2 5123   6.721   2.958   2.609
 1728TIP3   OH2 5124   6.404   2.198   2.559
 1728TIP3    H1 5125   6.319   2.242   2.548
 1728TIP3    H2 5126   6.393   2.146   2.639
 1729TIP3   OH2 5127   2.089   3.012   0.314
 1729TIP3    H1 5128   2.068   2.993   0.223
 1729TIP3    H2 5129   2.176   2.973   0.327
 1730TIP3   OH2 5130   1.644   2.709   3.492
 1730TIP3    H1 5131   1.696   2.687   3.414
 1730TIP3    H2 5132   1.596   2.628   3.512
 1731TIP3   OH2 5133   6.017   1.370   0.322
 1731TIP3    H1 5134   5.965   1.363   0.402
 1731TIP3    H2 5135   5.952   1.374   0.251
 1732TIP3   OH2 5136   5.163   0.758   4.573
 1732TIP3    H1 5137   5.229   0.771   4.642
 1732TIP3    H2 5138   5.166   0.664   4.554
 1733TIP3   OH2 5139   8.445   2.862   0.980
 1733TIP3    H1 5140   8.458   2.839   1.072
 1733TIP3    H2 5141   8.374   2.805   0.951
 1734TIP3   OH2 5142   4.647   0.350   2.905
 1734TIP3    H1 5143   4.567   0.298   2.910
 1734TIP3    H2 5144   4.679   0.337   2.816
 1735TIP3   OH2 5145   0.468   0.055   3.807
 1735TIP3    H1 5146   0.392  -0.001   3.796
 1735TIP3    H2 5147   0.433   0.144   3.813
 1736TIP3   OH2 5148   6.116   1.650   5.492
 1736TIP3    H1 5149   6.128   1.663   5.586
 1736TIP3    H2 5150   6.059   1.574   5.485
 1737TIP3   OH2 5151   6.570   1.327   6.741
 1737TIP3    H1 5152   6.539   1.351   6.829
 1737TIP3    H2 5153   6.540   1.399   6.685
 1738TIP3   OH2 5154   4.980   6.863   5.609
 1738TIP3    H1 5155   4.898   6.843   5.655
 1738TIP3    H2 5156   4.955   6.874   5.517
 1739TIP3   OH2 5157   1.511   4.076   1.660
 1739TIP3    H1 5158   1.550   3.993   1.687
 1739TIP3    H2 5159   1.418   4.067   1.681
 1740TIP3   OH2 5160   2.670   6.489   4.540
 1740TIP3    H1 5161   2.748   6.486   4.485
 1740TIP3    H2 5162   2.614   6.555   4.500
 1741TIP3   OH2 5163   0.250   6.662   0.345
 1741TIP3    H1 5164   0.227   6.653   0.437
 1741TIP3    H2 5165   0.249   6.572   0.311
 1742TIP3   OH2 5166   6.149   1.498   1.490
 1742TIP3    H1 5167   6.069   1.454   1.460
 1742TIP3    H2 5168   6.185   1.538   1.411
 1743TIP3   OH2 5169   8.078   3.911   5.425
 1743TIP3    H1 5170   7.983   3.920   5.417
 1743TIP3    H2 5171   8.111   4.001   5.426
 1744TIP3   OH2 5172   3.955   1.715   6.275
 1744TIP3    H1 5173   3.859   1.718   6.270
 1744TIP3    H2 5174   3.984   1.792   6.227
 1745TIP3   OH2 5175   3.900   1.070   0.331
 1745TIP3    H1 5176   3.885   1.135   0.400
 1745TIP3    H2 5177   3.975   1.104   0.282
 1746TIP3   OH2 5178   1.715   0.150   4.276
 1746TIP3    H1 5179   1.664   0.205   4.217
 1746TIP3    H2 5180   1.737   0.207   4.350
 1747TIP3   OH2 5181   3.646   7.325   5.433
 1747TIP3    H1 5182   3.593   7.289   5.505
 1747TIP3    H2 5183   3.620   7.417   5.430
 1748TIP3   OH2 5184   5.211   4.024   6.735
 1748TIP3    H1 5185   5.304   4.001   6.731
 1748TIP3    H2 5186   5.201   4.068   6.819
 1749TIP3   OH2 5187   4.937   7.218   0.798
 1749TIP3    H1 5188   4.998   7.220   0.724
 1749TIP3    H2 5189   4.992   7.234   0.875
 1750TIP3   OH2 5190   6.278   7.125   1.207
 1750TIP3    H1 5191   6.276   7.197   1.270
 1750TIP3    H2 5192   6.346   7.150   1.144
 1751TIP3   OH2 5193   7.214   6.352   2.748
 1751TIP3    H1 5194   7.179   6.354   2.659
 1751TIP3    H2 5195   7.183   6.433   2.788
 1752TIP3   OH2 5196   4.299   7.423   4.896
 1752TIP3    H1 5197   4.245   7.349   4.923
 1752TIP3    H2 5198   4.249   7.465   4.826
 1753TIP3   OH2 5199   1.764   1.179   4.927
 1753TIP3    H1 5200   1.758   1.085   4.943
 1753TIP3    H2 5201   1.675   1.211   4.934
 1754TIP3   OH2 5202   1.648   3.355   2.257
 1754TIP3    H1 5203   1.609   3.443   2.255
 1754TIP3    H2 5204   1.741   3.371   2.273
 1755TIP3   OH2 5205   5.296   7.863   5.453
 1755TIP3    H1 5206   5.252   7.784   5.482
 1755TIP3    H2 5207   5.264   7.932   5.511
 1756TIP3   OH2 5208   3.370   4.527   6.112
 1756TIP3    H1 5209   3.427   4.602   6.125
 1756TIP3    H2 5210   3.414   4.455   6.158
 1757TIP3   OH2 5211   7.891   4.198   2.284
 1757TIP3    H1 5212   7.836   4.207   2.206
 1757TIP3    H2 5213   7.848   4.251   2.351
 1758TIP3   OH2 5214   4.324   2.578   1.575
 1758TIP3    H1 5215   4.398   2.534   1.534
 1758TIP3    H2 5216   4.253   2.513   1.572
 1759TIP3   OH2 5217   0.989   4.513   5.820
 1759TIP3    H1 5218   0.937   4.569   5.877
 1759TIP3    H2 5219   0.939   4.431   5.813
 1760TIP3   OH2 5220   2.646   0.891   1.395
 1760TIP3    H1 5221   2.723   0.865   1.446
 1760TIP3    H2 5222   2.681   0.937   1.319
 1761TIP3   OH2 5223   2.173   5.568   3.802
 1761TIP3    H1 5224   2.253   5.612   3.772
 1761TIP3    H2 5225   2.122   5.553   3.722
 1762TIP3   OH2 5226   2.608   0.719   4.893
 1762TIP3    H1 5227   2.591   0.793   4.834
 1762TIP3    H2 5228   2.523   0.675   4.902
 1763TIP3   OH2 5229   6.376   7.049   0.481
 1763TIP3    H1 5230   6.437   6.999   0.426
 1763TIP3    H2 5231   6.310   7.082   0.420
 1764TIP3   OH2 5232   0.548   5.011   3.150
 1764TIP3    H1 5233   0.614   5.040   3.213
 1764TIP3    H2 5234   0.467   5.004   3.201
 1765TIP3   OH2 5235   6.712   6.988   2.908
 1765TIP3    H1 5236   6.754   6.918   2.958
 1765TIP3    H2 5237   6.777   7.013   2.842
 1766TIP3   OH2 5238   1.865   3.963   5.114
 1766TIP3    H1 5239   1.791   3.959   5.053
 1766TIP3    H2 5240   1.826   3.949   5.200
 1767TIP3   OH2 5241   4.387   5.370   1.570
 1767TIP3    H1 5242   4.347   5.338   1.490
 1767TIP3    H2 5243   4.481   5.364   1.555
 1768TIP3   OH2 5244   3.003   1.595   0.676
 1768TIP3    H1 5245   3.043   1.508   0.677
 1768TIP3    H2 5246   2.983   1.613   0.768
 1769TIP3   OH2 5247   8.262   6.230   4.338
 1769TIP3    H1 5248   8.286   6.320   4.319
 1769TIP3    H2 5249   8.333   6.178   4.302
 1770TIP3   OH2 5250   3.907   5.656   5.663
 1770TIP3    H1 5251   3.860   5.621   5.738
 1770TIP3    H2 5252   3.989   5.606   5.660
 1771TIP3   OH2 5253   3.598   3.875   0.779
 1771TIP3    H1 5254   3.671   3.853   0.837
 1771TIP3    H2 5255   3.584   3.968   0.793
 1772TIP3   OH2 5256   3.641   6.003   1.746
 1772TIP3    H1 5257   3.722   6.045   1.718
 1772TIP3    H2 5258   3.574   6.071   1.735
 1773TIP3   OH2 5259   2.529   4.759   1.663
 1773TIP3    H1 5260   2.550   4.677   1.709
 1773TIP3    H2 5261   2.433   4.765   1.669
 1774TIP3   OH2 5262   6.586   0.547   5.013
 1774TIP3    H1 5263   6.598   0.629   5.061
 1774TIP3    H2 5264   6.613   0.479   5.076
 1775TIP3   OH2 5265   5.997   6.754   3.870
 1775TIP3    H1 5266   6.073   6.764   3.927
 1775TIP3    H2 5267   6.034   6.726   3.786
 1776TIP3   OH2 5268   6.754   0.167   1.231
 1776TIP3    H1 5269   6.799   0.223   1.168
 1776TIP3    H2 5270   6.811   0.166   1.307
 1777TIP3   OH2 5271   1.073   7.136   4.032
 1777TIP3    H1 5272   1.069   7.108   4.124
 1777TIP3    H2 5273   1.159   7.107   4.001
 1778TIP3   OH2 5274   4.195   6.407   0.601
 1778TIP3    H1 5275   4.143   6.407   0.682
 1778TIP3    H2 5276   4.286   6.405   0.631
 1779TIP3   OH2 5277   0.921   6.307   2.257
 1779TIP3    H1 5278   0.835   6.346   2.273
 1779TIP3    H2 5279   0.983   6.377   2.277
 1780TIP3   OH2 5280   3.632   4.562   2.096
 1780TIP3    H1 5281   3.653   4.630   2.160
 1780TIP3    H2 5282   3.595   4.609   2.022
 1781TIP3   OH2 5283   3.270   7.167   4.752
 1781TIP3    H1 5284   3.246   7.145   4.842
 1781TIP3    H2 5285   3.307   7.087   4.717
 1782TIP3   OH2 5286   4.618   0.869   4.689
 1782TIP3    H1 5287   4.603   0.902   4.600
 1782TIP3    H2 5288   4.536   0.827   4.713
 1783TIP3   OH2 5289   2.445   7.090   0.545
 1783TIP3    H1 5290   2.488   7.166   0.505
 1783TIP3    H2 5291   2.358   7.088   0.507
 1784TIP3   OH2 5292   6.196   6.323   4.248
 1784TIP3    H1 5293   6.123   6.317   4.309
 1784TIP3    H2 5294   6.267   6.275   4.290
 1785TIP3   OH2 5295   0.609   4.730   2.774
 1785TIP3    H1 5296   0.666   4.761   2.704
 1785TIP3    H2 5297   0.646   4.767   2.854
 1786TIP3   OH2 5298   6.050   3.239   1.346
 1786TIP3    H1 5299   6.019   3.237   1.256
 1786TIP3    H2 5300   6.145   3.232   1.339
 1787TIP3   OH2 5301   3.873   6.203   6.629
 1787TIP3    H1 5302   3.800   6.176   6.574
 1787TIP3    H2 5303   3.835   6.216   6.715
 1788TIP3   OH2 5304   1.666   3.323   6.596
 1788TIP3    H1 5305   1.669   3.365   6.510
 1788TIP3    H2 5306   1.577   3.287   6.601
 1789TIP3   OH2 5307   5.907   4.648   5.363
 1789TIP3    H1 5308   5.948   4.698   5.292
 1789TIP3    H2 5309   5.815   4.640   5.337
 1790TIP3   OH2 5310   3.122   4.883   2.232
 1790TIP3    H1 5311   3.049   4.889   2.171
 1790TIP3    H2 5312   3.150   4.974   2.245
 1791TIP3   OH2 5313   3.483   4.278   0.430
 1791TIP3    H1 5314   3.427   4.200   0.429
 1791TIP3    H2 5315   3.570   4.245   0.408
 1792TIP3   OH2 5316   6.449   3.819   3.916
 1792TIP3    H1 5317   6.431   3.735   3.874
 1792TIP3    H2 5318   6.508   3.797   3.989
 1793TIP3   OH2 5319   7.332   7.713   0.164
 1793TIP3    H1 5320   7.389   7.684   0.093
 1793TIP3    H2 5321   7.279   7.783   0.125
 1794TIP3   OH2 5322   3.827   3.486   0.123
 1794TIP3    H1 5323   3.831   3.540   0.201
 1794TIP3    H2 5324   3.894   3.522   0.065
 1795TIP3   OH2 5325   3.169   7.172   1.578
 1795TIP3    H1 5326   3.089   7.224   1.575
 1795TIP3    H2 5327   3.149   7.102   1.641
 1796TIP3   OH2 5328   1.091   1.831   2.221
 1796TIP3    H1 5329   1.083   1.926   2.211
 1796TIP3    H2 5330   1.019   1.796   2.167
 1797TIP3   OH2 5331   5.109   1.025   2.425
 1797TIP3    H1 5332   5.023   1.049   2.389
 1797TIP3    H2 5333   5.160   0.997   2.349
 1798TIP3   OH2 5334   5.077   3.688   2.942
 1798TIP3    H1 5335   4.986   3.710   2.925
 1798TIP3    H2 5336   5.117   3.770   2.970
 1799TIP3   OH2 5337   1.401   7.233   3.656
 1799TIP3    H1 5338   1.459   7.159   3.638
 1799TIP3    H2 5339   1.317   7.208   3.617
 1800TIP3   OH2 5340   6.149   3.966   3.253
 1800TIP3    H1 5341   6.170   4.017   3.175
 1800TIP3    H2 5342   6.144   3.876   3.223
 1801TIP3   OH2 5343   0.591   0.249   6.643
 1801TIP3    H1 5344   0.660   0.257   6.577
 1801TIP3    H2 5345   0.626   0.187   6.707
 1802TIP3   OH2 5346   5.279   3.242   5.055
 1802TIP3    H1 5347   5.329   3.257   5.135
 1802TIP3    H2 5348   5.203   3.191   5.083
 1803TIP3   OH2 5349   5.625   3.372   4.722
 1803TIP3    H1 5350   5.532   3.375   4.746
 1803TIP3    H2 5351   5.636   3.444   4.660
 1804TIP3   OH2 5352   0.520   1.640   3.710
 1804TIP3    H1 5353   0.597   1.674   3.756
 1804TIP3    H2 5354   0.453   1.709   3.720
 1805TIP3   OH2 5355   2.861   2.805   5.215
 1805TIP3    H1 5356   2.770   2.780   5.232
 1805TIP3    H2 5357   2.858   2.853   5.132
 1806TIP3   OH2 5358   4.866   4.508   3.736
 1806TIP3    H1 5359   4.858   4.602   3.720
 1806TIP3    H2 5360   4.936   4.500   3.800
 1807TIP3   OH2 5361   2.480   7.763   1.746
 1807TIP3    H1 5362   2.454   7.751   1.838
 1807TIP3    H2 5363   2.548   7.697   1.731
 1808TIP3   OH2 5364   8.135   3.300   5.023
 1808TIP3    H1 5365   8.195   3.235   4.987
 1808TIP3    H2 5366   8.109   3.354   4.947
 1809TIP3   OH2 5367   5.206   6.407   2.033
 1809TIP3    H1 5368   5.135   6.459   2.071
 1809TIP3    H2 5369   5.245   6.464   1.966
 1810TIP3   OH2 5370   6.236   7.832   6.481
 1810TIP3    H1 5371   6.320   7.872   6.507
 1810TIP3    H2 5372   6.220   7.865   6.393
 1811TIP3   OH2 5373   5.913   1.763   6.587
 1811TIP3    H1 5374   5.841   1.733   6.532
 1811TIP3    H2 5375   5.924   1.694   6.652
 1812TIP3   OH2 5376   1.797   2.362   3.063
 1812TIP3    H1 5377   1.743   2.294   3.101
 1812TIP3    H2 5378   1.737   2.434   3.045
 1813TIP3   OH2 5379   0.553   4.610   0.493
 1813TIP3    H1 5380   0.643   4.607   0.460
 1813TIP3    H2 5381   0.530   4.518   0.506
 1814TIP3   OH2 5382   1.314   4.012   6.251
 1814TIP3    H1 5383   1.251   4.078   6.223
 1814TIP3    H2 5384   1.272   3.929   6.231
 1815TIP3   OH2 5385   3.702   0.595   6.189
 1815TIP3    H1 5386   3.668   0.669   6.238
 1815TIP3    H2 5387   3.771   0.633   6.134
 1816TIP3   OH2 5388   7.131   0.897   2.191
 1816TIP3    H1 5389   7.199   0.854   2.139
 1816TIP3    H2 5390   7.083   0.825   2.231
 1817TIP3   OH2 5391   0.946   7.333   6.702
 1817TIP3    H1 5392   0.863   7.348   6.655
 1817TIP3    H2 5393   0.939   7.244   6.737
 1818TIP3   OH2 5394   0.370   7.709   3.612
 1818TIP3    H1 5395   0.400   7.793   3.579
 1818TIP3    H2 5396   0.278   7.704   3.586
 1819TIP3   OH2 5397   3.213   6.792   4.146
 1819TIP3    H1 5398   3.158   6.849   4.092
 1819TIP3    H2 5399   3.291   6.844   4.164
 1820TIP3   OH2 5400   3.285   6.716   0.375
 1820TIP3    H1 5401   3.324   6.675   0.452
 1820TIP3    H2 5402   3.318   6.806   0.376
 1821TIP3   OH2 5403   1.893   6.859   0.232
 1821TIP3    H1 5404   1.873   6.931   0.291
 1821TIP3    H2 5405   1.986   6.867   0.213
 1822TIP3   OH2 5406   6.214   3.808   4.130
 1822TIP3    H1 5407   6.216   3.767   4.044
 1822TIP3    H2 5408   6.153   3.755   4.181
 1823TIP3   OH2 5409   2.592   5.276   2.422
 1823TIP3    H1 5410   2.530   5.208   2.396
 1823TIP3    H2 5411   2.622   5.249   2.509
 1824TIP3   OH2 5412   5.693   6.067   5.330
 1824TIP3    H1 5413   5.610   6.081   5.285
 1824TIP3    H2 5414   5.745   6.015   5.269
 1825TIP3   OH2 5415   7.215   5.164   1.538
 1825TIP3    H1 5416   7.145   5.166   1.603
 1825TIP3    H2 5417   7.186   5.225   1.470
 1826TIP3   OH2 5418   2.842   2.431   5.193
 1826TIP3    H1 5419   2.811   2.364   5.131
 1826TIP3    H2 5420   2.903   2.484   5.142
 1827TIP3   OH2 5421   2.786   3.821   6.683
 1827TIP3    H1 5422   2.794   3.746   6.624
 1827TIP3    H2 5423   2.870   3.826   6.728
 1828TIP3   OH2 5424   2.281   1.069   3.805
 1828TIP3    H1 5425   2.367   1.038   3.833
 1828TIP3    H2 5426   2.221   1.036   3.871
 1829TIP3   OH2 5427   2.091   4.350   6.739
 1829TIP3    H1 5428   2.153   4.378   6.807
 1829TIP3    H2 5429   2.142   4.354   6.658
 1830TIP3   OH2 5430   6.161   3.385   6.669
 1830TIP3    H1 5431   6.113   3.466   6.684
 1830TIP3    H2 5432   6.141   3.331   6.745
 1831TIP3   OH2 5433   4.832   7.519   1.769
 1831TIP3    H1 5434   4.827   7.506   1.674
 1831TIP3    H2 5435   4.768   7.588   1.787
 1832TIP3   OH2 5436   3.893   2.747   0.675
 1832TIP3    H1 5437   3.879   2.840   0.658
 1832TIP3    H2 5438   3.901   2.741   0.770
 1833TIP3   OH2 5439   2.576   4.454   3.228
 1833TIP3    H1 5440   2.513   4.382   3.240
 1833TIP3    H2 5441   2.630   4.452   3.307
 1834TIP3   OH2 5442   3.878   4.573   6.254
 1834TIP3    H1 5443   3.960   4.611   6.285
 1834TIP3    H2 5444   3.811   4.607   6.314
 1835TIP3   OH2 5445   1.591   0.429   5.425
 1835TIP3    H1 5446   1.664   0.381   5.386
 1835TIP3    H2 5447   1.515   0.374   5.410
 1836TIP3   OH2 5448   8.168   6.710   1.790
 1836TIP3    H1 5449   8.158   6.639   1.727
 1836TIP3    H2 5450   8.161   6.668   1.876
 1837TIP3   OH2 5451   8.331   3.344   6.510
 1837TIP3    H1 5452   8.298   3.367   6.424
 1837TIP3    H2 5453   8.365   3.426   6.546
 1838TIP3   OH2 5454   6.540   6.188   3.990
 1838TIP3    H1 5455   6.606   6.175   3.921
 1838TIP3    H2 5456   6.513   6.279   3.980
 1839TIP3   OH2 5457   4.025   3.955   3.586
 1839TIP3    H1 5458   4.008   3.958   3.492
 1839TIP3    H2 5459   4.112   3.995   3.595
 1840TIP3   OH2 5460   2.796   2.400   1.896
 1840TIP3    H1 5461   2.741   2.333   1.854
 1840TIP3    H2 5462   2.881   2.391   1.853
 1841TIP3   OH2 5463   7.158   4.455   4.924
 1841TIP3    H1 5464   7.081   4.511   4.910
 1841TIP3    H2 5465   7.176   4.418   4.838
 1842TIP3   OH2 5466   4.275   3.462   1.141
 1842TIP3    H1 5467   4.265   3.410   1.220
 1842TIP3    H2 5468   4.255   3.552   1.168
 1843TIP3   OH2 5469   0.509   0.926   4.041
 1843TIP3    H1 5470   0.502   0.948   3.948
 1843TIP3    H2 5471   0.450   0.988   4.085
 1844TIP3   OH2 5472   7.653   2.115   0.380
 1844TIP3    H1 5473   7.575   2.156   0.344
 1844TIP3    H2 5474   7.656   2.028   0.340
 1845TIP3   OH2 5475   3.485   6.198   1.661
 1845TIP3    H1 5476   3.446   6.168   1.579
 1845TIP3    H2 5477   3.519   6.285   1.642
 1846TIP3   OH2 5478   7.835   5.508   6.743
 1846TIP3    H1 5479   7.857   5.418   6.720
 1846TIP3    H2 5480   7.848   5.558   6.663
 1847TIP3   OH2 5481   3.524   0.832   2.933
 1847TIP3    H1 5482   3.535   0.742   2.902
 1847TIP3    H2 5483   3.489   0.879   2.857
 1848TIP3   OH2 5484   0.095   5.763   2.664
 1848TIP3    H1 5485   0.006   5.771   2.697
 1848TIP3    H2 5486   0.085   5.751   2.570
 1849TIP3   OH2 5487   2.519   2.046   1.735
 1849TIP3    H1 5488   2.565   2.125   1.709
 1849TIP3    H2 5489   2.476   2.016   1.655
 1850TIP3   OH2 5490   5.480   0.134   2.447
 1850TIP3    H1 5491   5.541   0.196   2.486
 1850TIP3    H2 5492   5.532   0.056   2.430
 1851TIP3   OH2 5493   3.993   2.263   2.235
 1851TIP3    H1 5494   3.947   2.182   2.256
 1851TIP3    H2 5495   4.044   2.243   2.157
 1852TIP3   OH2 5496   4.568   0.105   5.897
 1852TIP3    H1 5497   4.546   0.182   5.950
 1852TIP3    H2 5498   4.663   0.107   5.891
 1853TIP3   OH2 5499   7.039   6.629   2.967
 1853TIP3    H1 5500   7.083   6.639   2.882
 1853TIP3    H2 5501   7.107   6.648   3.031
 1854TIP3   OH2 5502   3.319   6.749   6.784
 1854TIP3    H1 5503   3.404   6.729   6.745
 1854TIP3    H2 5504   3.339   6.768   6.876
 1855TIP3   OH2 5505   5.005   3.575   3.446
 1855TIP3    H1 5506   5.004   3.493   3.495
 1855TIP3    H2 5507   5.057   3.556   3.368
 1856TIP3   OH2 5508   8.251   0.646   2.022
 1856TIP3    H1 5509   8.316   0.647   2.092
 1856TIP3    H2 5510   8.251   0.736   1.988
 1857TIP3   OH2 5511   8.403   5.502   4.595
 1857TIP3    H1 5512   8.316   5.531   4.622
 1857TIP3    H2 5513   8.406   5.520   4.501
 1858TIP3   OH2 5514   1.184   6.592   4.579
 1858TIP3    H1 5515   1.124   6.554   4.643
 1858TIP3    H2 5516   1.270   6.588   4.621
 1859TIP3   OH2 5517   2.189   4.473   0.313
 1859TIP3    H1 5518   2.204   4.481   0.219
 1859TIP3    H2 5519   2.096   4.494   0.325
 1860TIP3   OH2 5520   8.103   5.294   3.887
 1860TIP3    H1 5521   8.090   5.334   3.973
 1860TIP3    H2 5522   8.125   5.367   3.830
 1861TIP3   OH2 5523   0.762   7.397   1.878
 1861TIP3    H1 5524   0.705   7.338   1.927
 1861TIP3    H2 5525   0.719   7.482   1.882
 1862TIP3   OH2 5526   4.177   5.375   5.808
 1862TIP3    H1 5527   4.165   5.402   5.900
 1862TIP3    H2 5528   4.245   5.308   5.811
 1863TIP3   OH2 5529   3.654   5.383   0.615
 1863TIP3    H1 5530   3.561   5.376   0.591
 1863TIP3    H2 5531   3.679   5.471   0.588
 1864TIP3   OH2 5532   0.450   6.557   5.475
 1864TIP3    H1 5533   0.487   6.535   5.560
 1864TIP3    H2 5534   0.385   6.624   5.494
 1865TIP3   OH2 5535   4.919   2.798   4.240
 1865TIP3    H1 5536   4.850   2.772   4.179
 1865TIP3    H2 5537   4.991   2.737   4.223
 1866TIP3   OH2 5538   5.462   0.709   0.139
 1866TIP3    H1 5539   5.375   0.719   0.100
 1866TIP3    H2 5540   5.463   0.770   0.212
 1867TIP3   OH2 5541   7.866   2.768   4.921
 1867TIP3    H1 5542   7.914   2.724   4.851
 1867TIP3    H2 5543   7.813   2.699   4.961
 1868TIP3   OH2 5544   7.731   0.962   0.332
 1868TIP3    H1 5545   7.679   0.995   0.405
 1868TIP3    H2 5546   7.679   0.981   0.254
 1869TIP3   OH2 5547   6.269   6.546   5.202
 1869TIP3    H1 5548   6.202   6.491   5.162
 1869TIP3    H2 5549   6.223   6.628   5.223
 1870TIP3   OH2 5550   1.830   2.538   0.276
 1870TIP3    H1 5551   1.876   2.599   0.335
 1870TIP3    H2 5552   1.870   2.554   0.190
 1871TIP3   OH2 5553   4.370   0.025   3.922
 1871TIP3    H1 5554   4.456   0.051   3.957
 1871TIP3    H2 5555   4.390  -0.040   3.855
 1872TIP3   OH2 5556   2.227   7.396   4.567
 1872TIP3    H1 5557   2.213   7.392   4.472
 1872TIP3    H2 5558   2.188   7.478   4.594
 1873TIP3   OH2 5559   0.810   1.781   2.116
 1873TIP3    H1 5560   0.788   1.868   2.084
 1873TIP3    H2 5561   0.806   1.725   2.039
 1874TIP3   OH2 5562   1.291   7.491   2.845
 1874TIP3    H1 5563   1.207   7.537   2.839
 1874TIP3    H2 5564   1.300   7.446   2.761
 1875TIP3   OH2 5565   2.473   5.305   3.706
 1875TIP3    H1 5566   2.406   5.254   3.751
 1875TIP3    H2 5567   2.464   5.393   3.742
 1876TIP3   OH2 5568   5.390   4.735   3.061
 1876TIP3    H1 5569   5.481   4.733   3.092
 1876TIP3    H2 5570   5.390   4.799   2.990
 1877TIP3   OH2 5571   7.907   5.319   5.639
 1877TIP3    H1 5572   7.904   5.347   5.731
 1877TIP3    H2 5573   7.954   5.389   5.594
 1878TIP3   OH2 5574   7.697   6.795   5.674
 1878TIP3    H1 5575   7.687   6.865   5.739
 1878TIP3    H2 5576   7.714   6.841   5.592
 1879TIP3   OH2 5577   7.105   0.034   1.311
 1879TIP3    H1 5578   7.015   0.000   1.309
 1879TIP3    H2 5579   7.146  -0.010   1.385
 1880TIP3   OH2 5580   7.209   2.182   2.225
 1880TIP3    H1 5581   7.302   2.195   2.245
 1880TIP3    H2 5582   7.203   2.091   2.196
 1881TIP3   OH2 5583   7.834   6.216   5.091
 1881TIP3    H1 5584   7.770   6.209   5.162
 1881TIP3    H2 5585   7.794   6.276   5.029
 1882TIP3   OH2 5586   3.915   4.704   6.782
 1882TIP3    H1 5587   3.949   4.699   6.872
 1882TIP3    H2 5588   3.832   4.655   6.785
 1883TIP3   OH2 5589   2.692   1.283   0.343
 1883TIP3    H1 5590   2.730   1.271   0.256
 1883TIP3    H2 5591   2.603   1.249   0.336
 1884TIP3   OH2 5592   5.914   6.754   0.493
 1884TIP3    H1 5593   5.984   6.693   0.471
 1884TIP3    H2 5594   5.846   6.700   0.533
 1885TIP3   OH2 5595   5.440   0.492   2.543
 1885TIP3    H1 5596   5.464   0.425   2.607
 1885TIP3    H2 5597   5.522   0.538   2.525
 1886TIP3   OH2 5598   0.476   5.751   4.734
 1886TIP3    H1 5599   0.527   5.826   4.702
 1886TIP3    H2 5600   0.399   5.750   4.679
 1887TIP3   OH2 5601   4.532   2.934   6.839
 1887TIP3    H1 5602   4.441   2.948   6.864
 1887TIP3    H2 5603   4.582   2.990   6.898
 1888TIP3   OH2 5604   0.591   0.780   1.437
 1888TIP3    H1 5605   0.566   0.796   1.528
 1888TIP3    H2 5606   0.544   0.700   1.412
 1889TIP3   OH2 5607   6.558   4.467   3.941
 1889TIP3    H1 5608   6.543   4.373   3.951
 1889TIP3    H2 5609   6.478   4.499   3.901
 1890TIP3   OH2 5610   5.094   3.110   5.203
 1890TIP3    H1 5611   5.136   3.033   5.240
 1890TIP3    H2 5612   5.002   3.085   5.193
 1891TIP3   OH2 5613   5.391   2.473   1.744
 1891TIP3    H1 5614   5.409   2.553   1.693
 1891TIP3    H2 5615   5.435   2.403   1.695
 1892TIP3   OH2 5616   2.036   0.862   6.057
 1892TIP3    H1 5617   2.097   0.909   6.114
 1892TIP3    H2 5618   2.031   0.774   6.095
 1893TIP3   OH2 5619   3.666   6.658   1.464
 1893TIP3    H1 5620   3.718   6.713   1.405
 1893TIP3    H2 5621   3.624   6.594   1.406
 1894TIP3   OH2 5622   4.781   7.771   4.577
 1894TIP3    H1 5623   4.717   7.842   4.572
 1894TIP3    H2 5624   4.794   7.744   4.486
 1895TIP3   OH2 5625   2.640   6.177   4.398
 1895TIP3    H1 5626   2.623   6.091   4.360
 1895TIP3    H2 5627   2.703   6.161   4.468
 1896TIP3   OH2 5628   1.056   5.624   1.840
 1896TIP3    H1 5629   1.005   5.687   1.788
 1896TIP3    H2 5630   1.006   5.614   1.921
 1897TIP3   OH2 5631   6.226   0.235   3.778
 1897TIP3    H1 5632   6.266   0.157   3.741
 1897TIP3    H2 5633   6.137   0.207   3.802
 1898TIP3   OH2 5634   2.788   0.664  -0.025
 1898TIP3    H1 5635   2.858   0.647   0.039
 1898TIP3    H2 5636   2.792   0.589  -0.085
 1899TIP3   OH2 5637   6.864   2.704   3.241
 1899TIP3    H1 5638   6.926   2.632   3.231
 1899TIP3    H2 5639   6.799   2.690   3.172
 1900TIP3   OH2 5640   1.090   4.761   6.001
 1900TIP3    H1 5641   0.998   4.773   6.025
 1900TIP3    H2 5642   1.094   4.788   5.909
 1901TIP3   OH2 5643   3.899   5.400   4.276
 1901TIP3    H1 5644   3.909   5.494   4.264
 1901TIP3    H2 5645   3.988   5.366   4.277
 1902TIP3   OH2 5646   8.353   5.345   5.131
 1902TIP3    H1 5647   8.282   5.401   5.099
 1902TIP3    H2 5648   8.424   5.406   5.151
 1903TIP3   OH2 5649   7.872   7.155   4.487
 1903TIP3    H1 5650   7.927   7.111   4.422
 1903TIP3    H2 5651   7.784   7.123   4.470
 1904TIP3   OH2 5652   1.697   5.731   2.641
 1904TIP3    H1 5653   1.642   5.659   2.672
 1904TIP3    H2 5654   1.652   5.810   2.671
 1905TIP3   OH2 5655   3.657   7.244   1.449
 1905TIP3    H1 5656   3.671   7.225   1.542
 1905TIP3    H2 5657   3.562   7.239   1.437
 1906TIP3   OH2 5658   7.355   0.774   2.061
 1906TIP3    H1 5659   7.429   0.735   2.014
 1906TIP3    H2 5660   7.322   0.703   2.116
 1907TIP3   OH2 5661   7.224   4.954   1.888
 1907TIP3    H1 5662   7.268   5.025   1.842
 1907TIP3    H2 5663   7.226   4.980   1.980
 1908TIP3   OH2 5664   6.833   2.617   5.108
 1908TIP3    H1 5665   6.878   2.695   5.076
 1908TIP3    H2 5666   6.839   2.623   5.203
 1909TIP3   OH2 5667   4.695   2.383   5.706
 1909TIP3    H1 5668   4.762   2.360   5.769
 1909TIP3    H2 5669   4.636   2.442   5.753
 1910TIP3   OH2 5670   4.580   3.881   4.625
 1910TIP3    H1 5671   4.581   3.787   4.643
 1910TIP3    H2 5672   4.629   3.919   4.698
 1911TIP3   OH2 5673   5.593   5.114   0.145
 1911TIP3    H1 5674   5.678   5.092   0.182
 1911TIP3    H2 5675   5.539   5.138   0.221
 1912TIP3   OH2 5676   4.022   1.809   5.106
 1912TIP3    H1 5677   3.969   1.881   5.070
 1912TIP3    H2 5678   4.111   1.844   5.109
 1913TIP3   OH2 5679   5.540   4.031   2.384
 1913TIP3    H1 5680   5.623   4.079   2.384
 1913TIP3    H2 5681   5.503   4.048   2.297
 1914TIP3   OH2 5682   3.599   7.900   6.275
 1914TIP3    H1 5683   3.586   7.815   6.318
 1914TIP3    H2 5684   3.551   7.962   6.330
 1915TIP3   OH2 5685   3.787   2.833   4.358
 1915TIP3    H1 5686   3.713   2.881   4.323
 1915TIP3    H2 5687   3.757   2.802   4.444
 1916TIP3   OH2 5688   7.458   0.178   0.697
 1916TIP3    H1 5689   7.426   0.208   0.612
 1916TIP3    H2 5690   7.427   0.243   0.760
 1917TIP3   OH2 5691   3.140   7.561   3.738
 1917TIP3    H1 5692   3.163   7.650   3.763
 1917TIP3    H2 5693   3.092   7.570   3.656
 1918TIP3   OH2 5694   8.085   3.697   2.827
 1918TIP3    H1 5695   8.002   3.734   2.797
 1918TIP3    H2 5696   8.110   3.752   2.901
 1919TIP3   OH2 5697   7.944   4.877   2.450
 1919TIP3    H1 5698   7.966   4.930   2.527
 1919TIP3    H2 5699   8.024   4.831   2.428
 1920TIP3   OH2 5700   0.342   6.595   1.974
 1920TIP3    H1 5701   0.340   6.689   1.953
 1920TIP3    H2 5702   0.360   6.592   2.068
 1921TIP3   OH2 5703   6.429   0.957   3.847
 1921TIP3    H1 5704   6.501   1.018   3.867
 1921TIP3    H2 5705   6.382   0.948   3.929
 1922TIP3   OH2 5706   7.388   5.275   5.502
 1922TIP3    H1 5707   7.473   5.266   5.544
 1922TIP3    H2 5708   7.328   5.224   5.556
 1923TIP3   OH2 5709   1.284   6.445   0.113
 1923TIP3    H1 5710   1.270   6.539   0.124
 1923TIP3    H2 5711   1.239   6.424   0.031
 1924TIP3   OH2 5712   6.766   2.994   3.216
 1924TIP3    H1 5713   6.686   3.046   3.229
 1924TIP3    H2 5714   6.741   2.926   3.154
 1925TIP3   OH2 5715   5.910   1.663   2.966
 1925TIP3    H1 5716   5.915   1.626   3.054
 1925TIP3    H2 5717   5.974   1.614   2.915
 1926TIP3   OH2 5718   4.608   5.619   4.681
 1926TIP3    H1 5719   4.668   5.544   4.683
 1926TIP3    H2 5720   4.607   5.652   4.771
 1927TIP3   OH2 5721   3.995   1.292   0.015
 1927TIP3    H1 5722   4.078   1.339   0.005
 1927TIP3    H2 5723   3.967   1.312   0.104
 1928TIP3   OH2 5724   5.826   4.319   2.084
 1928TIP3    H1 5725   5.852   4.383   2.018
 1928TIP3    H2 5726   5.846   4.234   2.043
 1929TIP3   OH2 5727   6.792   7.777   0.524
 1929TIP3    H1 5728   6.795   7.835   0.600
 1929TIP3    H2 5729   6.711   7.801   0.479
 1930TIP3   OH2 5730   3.359   0.955   0.482
 1930TIP3    H1 5731   3.393   1.003   0.406
 1930TIP3    H2 5732   3.426   0.967   0.549
 1931TIP3   OH2 5733   4.696   3.101   1.844
 1931TIP3    H1 5734   4.668   3.145   1.924
 1931TIP3    H2 5735   4.772   3.150   1.813
 1932TIP3   OH2 5736   7.325   4.412   3.868
 1932TIP3    H1 5737   7.256   4.478   3.861
 1932TIP3    H2 5738   7.280   4.328   3.853
 1933TIP3   OH2 5739   1.870   2.947   3.443
 1933TIP3    H1 5740   1.908   2.930   3.529
 1933TIP3    H2 5741   1.867   2.862   3.400
 1934TIP3   OH2 5742   1.811   3.378   6.048
 1934TIP3    H1 5743   1.775   3.466   6.044
 1934TIP3    H2 5744   1.773   3.332   5.973
 1935TIP3   OH2 5745   4.359   7.805   6.776
 1935TIP3    H1 5746   4.340   7.835   6.865
 1935TIP3    H2 5747   4.454   7.793   6.775
 1936TIP3   OH2 5748   1.838   6.222   6.751
 1936TIP3    H1 5749   1.759   6.223   6.696
 1936TIP3    H2 5750   1.860   6.129   6.760
 1937TIP3   OH2 5751   6.513   3.710   2.653
 1937TIP3    H1 5752   6.499   3.805   2.649
 1937TIP3    H2 5753   6.460   3.682   2.728
 1938TIP3   OH2 5754   6.370   5.543   4.043
 1938TIP3    H1 5755   6.353   5.614   4.105
 1938TIP3    H2 5756   6.325   5.467   4.080
 1939TIP3   OH2 5757   0.385   2.729   3.267
 1939TIP3    H1 5758   0.458   2.789   3.279
 1939TIP3    H2 5759   0.425   2.643   3.261
 1940TIP3   OH2 5760   6.013   4.569   6.636
 1940TIP3    H1 5761   5.992   4.477   6.619
 1940TIP3    H2 5762   6.099   4.583   6.595
 1941TIP3   OH2 5763   2.698   3.643   1.800
 1941TIP3    H1 5764   2.712   3.678   1.712
 1941TIP3    H2 5765   2.730   3.552   1.795
 1942TIP3   OH2 5766   5.335   1.266   3.075
 1942TIP3    H1 5767   5.428   1.277   3.093
 1942TIP3    H2 5768   5.295   1.348   3.103
 1943TIP3   OH2 5769   6.870   0.529   0.826
 1943TIP3    H1 5770   6.881   0.554   0.734
 1943TIP3    H2 5771   6.851   0.611   0.871
 1944TIP3   OH2 5772   1.522   3.354   4.160
 1944TIP3    H1 5773   1.429   3.365   4.180
 1944TIP3    H2 5774   1.566   3.422   4.210
 1945TIP3   OH2 5775   7.829   3.179   4.882
 1945TIP3    H1 5776   7.759   3.130   4.839
 1945TIP3    H2 5777   7.867   3.118   4.945
 1946TIP3   OH2 5778   8.133   7.643   4.773
 1946TIP3    H1 5779   8.129   7.553   4.805
 1946TIP3    H2 5780   8.081   7.693   4.836
 1947TIP3   OH2 5781   1.915   6.240   0.560
 1947TIP3    H1 5782   1.927   6.188   0.640
 1947TIP3    H2 5783   1.846   6.195   0.512
 1948TIP3   OH2 5784   5.392   7.917   1.424
 1948TIP3    H1 5785   5.394   7.888   1.333
 1948TIP3    H2 5786   5.391   7.837   1.476
 1949TIP3   OH2 5787   6.270   5.767   2.254
 1949TIP3    H1 5788   6.313   5.831   2.311
 1949TIP3    H2 5789   6.177   5.778   2.271
 1950TIP3   OH2 5790   0.540   4.807   4.992
 1950TIP3    H1 5791   0.454   4.829   5.027
 1950TIP3    H2 5792   0.559   4.720   5.027
 1951TIP3   OH2 5793   1.312   4.127   2.067
 1951TIP3    H1 5794   1.217   4.134   2.055
 1951TIP3    H2 5795   1.348   4.133   1.979
 1952TIP3   OH2 5796   4.999   2.293   2.019
 1952TIP3    H1 5797   5.079   2.306   1.967
 1952TIP3    H2 5798   4.944   2.368   1.997
 1953TIP3   OH2 5799   0.722   5.125   0.713
 1953TIP3    H1 5800   0.628   5.122   0.698
 1953TIP3    H2 5801   0.756   5.047   0.669
 1954TIP3   OH2 5802   7.033   5.209   3.672
 1954TIP3    H1 5803   6.987   5.202   3.588
 1954TIP3    H2 5804   6.978   5.265   3.725
 1955TIP3   OH2 5805   7.708   1.927   4.950
 1955TIP3    H1 5806   7.660   2.003   4.981
 1955TIP3    H2 5807   7.741   1.885   5.030
 1956TIP3   OH2 5808   3.290   7.504   3.090
 1956TIP3    H1 5809   3.369   7.451   3.099
 1956TIP3    H2 5810   3.253   7.478   3.006
 1957TIP3   OH2 5811   5.109   0.749   5.187
 1957TIP3    H1 5812   5.038   0.773   5.247
 1957TIP3    H2 5813   5.188   0.787   5.227
 1958TIP3   OH2 5814   5.313   1.050   0.070
 1958TIP3    H1 5815   5.409   1.054   0.067
 1958TIP3    H2 5816   5.293   1.013   0.155
 1959TIP3   OH2 5817   5.809   7.803   2.576
 1959TIP3    H1 5818   5.749   7.807   2.502
 1959TIP3    H2 5819   5.843   7.892   2.585
 1960TIP3   OH2 5820   6.548   3.660   4.825
 1960TIP3    H1 5821   6.566   3.665   4.919
 1960TIP3    H2 5822   6.456   3.687   4.817
 1961TIP3   OH2 5823   6.943   2.603   4.688
 1961TIP3    H1 5824   7.026   2.586   4.643
 1961TIP3    H2 5825   6.876   2.572   4.627
 1962TIP3   OH2 5826   5.584   4.006   5.150
 1962TIP3    H1 5827   5.520   3.939   5.172
 1962TIP3    H2 5828   5.658   3.958   5.113
 1963TIP3   OH2 5829   1.196   0.384   2.140
 1963TIP3    H1 5830   1.206   0.342   2.055
 1963TIP3    H2 5831   1.183   0.311   2.201
 1964TIP3   OH2 5832   2.576   4.937   2.863
 1964TIP3    H1 5833   2.632   5.014   2.858
 1964TIP3    H2 5834   2.632   4.869   2.900
 1965TIP3   OH2 5835   6.708   6.801   2.228
 1965TIP3    H1 5836   6.730   6.855   2.152
 1965TIP3    H2 5837   6.626   6.758   2.203
 1966TIP3   OH2 5838   7.164   1.539   5.739
 1966TIP3    H1 5839   7.243   1.551   5.686
 1966TIP3    H2 5840   7.092   1.551   5.677
 1967TIP3   OH2 5841   1.176   5.812   6.397
 1967TIP3    H1 5842   1.089   5.852   6.391
 1967TIP3    H2 5843   1.158   5.719   6.411
 1968TIP3   OH2 5844   0.755   3.630   0.210
 1968TIP3    H1 5845   0.696   3.564   0.248
 1968TIP3    H2 5846   0.763   3.697   0.277
 1969TIP3   OH2 5847   6.497   7.660   1.460
 1969TIP3    H1 5848   6.456   7.734   1.416
 1969TIP3    H2 5849   6.578   7.695   1.498
 1970TIP3   OH2 5850   5.358   1.755   2.213
 1970TIP3    H1 5851   5.322   1.830   2.165
 1970TIP3    H2 5852   5.289   1.689   2.211
 1971TIP3   OH2 5853   2.500   0.338   1.081
 1971TIP3    H1 5854   2.519   0.254   1.122
 1971TIP3    H2 5855   2.437   0.317   1.012
 1972TIP3   OH2 5856   1.516   7.244   6.127
 1972TIP3    H1 5857   1.433   7.204   6.104
 1972TIP3    H2 5858   1.560   7.179   6.181
 1973TIP3   OH2 5859   4.477   0.369   5.335
 1973TIP3    H1 5860   4.451   0.383   5.244
 1973TIP3    H2 5861   4.542   0.299   5.331
 1974TIP3   OH2 5862   7.388   2.930   2.736
 1974TIP3    H1 5863   7.401   3.023   2.757
 1974TIP3    H2 5864   7.444   2.884   2.798
 1975TIP3   OH2 5865   1.338   6.717   2.352
 1975TIP3    H1 5866   1.421   6.766   2.347
 1975TIP3    H2 5867   1.358   6.642   2.409
 1976TIP3   OH2 5868   4.828   2.488   1.886
 1976TIP3    H1 5869   4.814   2.569   1.933
 1976TIP3    H2 5870   4.767   2.492   1.812
 1977TIP3   OH2 5871   0.859   6.858   3.047
 1977TIP3    H1 5872   0.893   6.923   2.985
 1977TIP3    H2 5873   0.819   6.910   3.117
 1978TIP3   OH2 5874   2.429   2.911   5.668
 1978TIP3    H1 5875   2.399   2.971   5.600
 1978TIP3    H2 5876   2.524   2.918   5.666
 1979TIP3   OH2 5877   2.143   7.454   1.314
 1979TIP3    H1 5878   2.232   7.446   1.350
 1979TIP3    H2 5879   2.110   7.537   1.348
 1980TIP3   OH2 5880   6.446   6.857   2.884
 1980TIP3    H1 5881   6.439   6.881   2.977
 1980TIP3    H2 5882   6.535   6.882   2.860
 1981TIP3   OH2 5883   7.685   5.294   4.660
 1981TIP3    H1 5884   7.668   5.244   4.740
 1981TIP3    H2 5885   7.634   5.249   4.592
 1982TIP3   OH2 5886   1.029   2.483   3.630
 1982TIP3    H1 5887   1.008   2.544   3.559
 1982TIP3    H2 5888   1.118   2.507   3.656
 1983TIP3   OH2 5889   1.938   4.153   0.128
 1983TIP3    H1 5890   2.005   4.108   0.076
 1983TIP3    H2 5891   1.947   4.245   0.103
 1984TIP3   OH2 5892   5.474   7.877   3.972
 1984TIP3    H1 5893   5.425   7.811   3.924
 1984TIP3    H2 5894   5.483   7.950   3.911
 1985TIP3   OH2 5895   2.558   5.224   1.585
 1985TIP3    H1 5896   2.588   5.315   1.586
 1985TIP3    H2 5897   2.464   5.229   1.570
 1986TIP3   OH2 5898   5.939   6.854   2.288
 1986TIP3    H1 5899   5.949   6.944   2.319
 1986TIP3    H2 5900   5.972   6.856   2.198
 1987TIP3   OH2 5901   1.303   1.749   1.137
 1987TIP3    H1 5902   1.344   1.681   1.083
 1987TIP3    H2 5903   1.357   1.753   1.216
 1988TIP3   OH2 5904   7.969   1.505   6.816
 1988TIP3    H1 5905   7.946   1.569   6.883
 1988TIP3    H2 5906   8.065   1.505   6.813
 1989TIP3   OH2 5907   3.815   4.662   5.470
 1989TIP3    H1 5908   3.808   4.593   5.535
 1989TIP3    H2 5909   3.736   4.652   5.416
 1990TIP3   OH2 5910   7.669   4.874   6.824
 1990TIP3    H1 5911   7.750   4.920   6.801
 1990TIP3    H2 5912   7.652   4.899   6.915
 1991TIP3   OH2 5913   1.183   2.407   3.393
 1991TIP3    H1 5914   1.235   2.463   3.334
 1991TIP3    H2 5915   1.093   2.435   3.380
 1992TIP3   OH2 5916   3.248   0.369   4.447
 1992TIP3    H1 5917   3.250   0.414   4.531
 1992TIP3    H2 5918   3.155   0.366   4.424
 1993TIP3   OH2 5919   7.728   3.514   4.166
 1993TIP3    H1 5920   7.759   3.424   4.171
 1993TIP3    H2 5921   7.656   3.511   4.103
 1994TIP3   OH2 5922   6.725   0.361   1.472
 1994TIP3    H1 5923   6.667   0.392   1.403
 1994TIP3    H2 5924   6.808   0.342   1.429
 1995TIP3   OH2 5925   0.042   5.656   0.556
 1995TIP3    H1 5926   0.030   5.593   0.626
 1995TIP3    H2 5927  -0.047   5.672   0.523
 1996TIP3   OH2 5928   0.501   0.339   3.649
 1996TIP3    H1 5929   0.538   0.274   3.590
 1996TIP3    H2 5930   0.567   0.350   3.718
 1997TIP3   OH2 5931   8.277   0.572   4.382
 1997TIP3    H1 5932   8.259   0.495   4.435
 1997TIP3    H2 5933   8.250   0.547   4.293
 1998TIP3   OH2 5934   1.674   1.975   1.387
 1998TIP3    H1 5935   1.723   1.927   1.453
 1998TIP3    H2 5936   1.655   2.059   1.428
 1999TIP3   OH2 5937   7.584   6.087   0.213
 1999TIP3    H1 5938   7.585   6.163   0.154
 1999TIP3    H2 5939   7.606   6.122   0.299
 2000TIP3   OH2 5940   4.574   6.267   1.039
 2000TIP3    H1 5941   4.570   6.335   1.107
 2000TIP3    H2 5942   4.541   6.310   0.960
 2001TIP3   OH2 5943   2.631   6.115   3.996
 2001TIP3    H1 5944   2.674   6.197   3.973
 2001TIP3    H2 5945   2.543   6.141   4.024
 2002TIP3   OH2 5946   3.199   5.658   5.700
 2002TIP3    H1 5947   3.226   5.659   5.608
 2002TIP3    H2 5948   3.142   5.734   5.709
 2003TIP3   OH2 5949   7.072   2.202   3.360
 2003TIP3    H1 5950   7.065   2.200   3.264
 2003TIP3    H2 5951   7.005   2.141   3.390
 2004TIP3   OH2 5952   5.493   6.396   5.314
 2004TIP3    H1 5953   5.539   6.346   5.247
 2004TIP3    H2 5954   5.534   6.483   5.312
 2005TIP3   OH2 5955   4.517   2.365   5.069
 2005TIP3    H1 5956   4.506   2.397   4.980
 2005TIP3    H2 5957   4.610   2.380   5.089
 2006TIP3   OH2 5958   0.784   2.056   4.363
 2006TIP3    H1 5959   0.765   1.964   4.344
 2006TIP3    H2 5960   0.880   2.060   4.367
 2007TIP3   OH2 5961   6.821   0.994   4.705
 2007TIP3    H1 5962   6.756   0.924   4.703
 2007TIP3    H2 5963   6.902   0.952   4.734
 2008TIP3   OH2 5964   5.933   2.895   0.788
 2008TIP3    H1 5965   5.883   2.839   0.848
 2008TIP3    H2 5966   5.935   2.847   0.705
 2009TIP3   OH2 5967   4.071   7.392   0.022
 2009TIP3    H1 5968   4.009   7.327   0.054
 2009TIP3    H2 5969   4.151   7.342   0.005
 2010TIP3   OH2 5970   3.389   5.166   1.104
 2010TIP3    H1 5971   3.419   5.077   1.121
 2010TIP3    H2 5972   3.469   5.218   1.099
 2011TIP3   OH2 5973   0.574   1.541   3.102
 2011TIP3    H1 5974   0.621   1.616   3.066
 2011TIP3    H2 5975   0.638   1.498   3.159
 2012TIP3   OH2 5976   4.781   5.854   4.042
 2012TIP3    H1 5977   4.749   5.905   4.116
 2012TIP3    H2 5978   4.718   5.873   3.972
 2013TIP3   OH2 5979   5.199   5.925   3.640
 2013TIP3    H1 5980   5.167   6.010   3.670
 2013TIP3    H2 5981   5.286   5.944   3.603
 2014TIP3   OH2 5982   3.430   1.559   6.716
 2014TIP3    H1 5983   3.424   1.649   6.746
 2014TIP3    H2 5984   3.522   1.535   6.731
 2015TIP3   OH2 5985   1.347   6.433   4.293
 2015TIP3    H1 5986   1.345   6.519   4.250
 2015TIP3    H2 5987   1.297   6.376   4.236
 2016TIP3   OH2 5988   1.537   0.188   0.917
 2016TIP3    H1 5989   1.575   0.254   0.859
 2016TIP3    H2 5990   1.517   0.236   0.998
 2017TIP3   OH2 5991   0.290   1.200   1.553
 2017TIP3    H1 5992   0.219   1.212   1.489
 2017TIP3    H2 5993   0.368   1.229   1.507
 2018TIP3   OH2 5994   1.965   6.208   1.742
 2018TIP3    H1 5995   1.942   6.293   1.705
 2018TIP3    H2 5996   1.960   6.220   1.836
 2019TIP3   OH2 5997   2.398   1.087   2.087
 2019TIP3    H1 5998   2.365   1.138   2.160
 2019TIP3    H2 5999   2.481   1.129   2.064
 2020TIP3   OH2 6000   3.633   2.651   5.989
 2020TIP3    H1 6001   3.559   2.687   6.038
 2020TIP3    H2 6002   3.705   2.712   6.005
 2021TIP3   OH2 6003   2.495   0.173   5.760
 2021TIP3    H1 6004   2.588   0.194   5.774
 2021TIP3    H2 6005   2.448   0.249   5.795
 2022TIP3   OH2 6006   0.016   3.031   2.414
 2022TIP3    H1 6007   0.090   3.012   2.357
 2022TIP3    H2 6008  -0.019   3.114   2.383
 2023TIP3   OH2 6009   5.062   7.782   4.506
 2023TIP3    H1 6010   5.043   7.793   4.413
 2023TIP3    H2 6011   4.976   7.780   4.549
 2024TIP3   OH2 6012   7.136   0.370   3.621
 2024TIP3    H1 6013   7.076   0.443   3.634
 2024TIP3    H2 6014   7.079   0.293   3.613
 2025TIP3   OH2 6015   5.738   7.193   2.122
 2025TIP3    H1 6016   5.698   7.209   2.036
 2025TIP3    H2 6017   5.811   7.255   2.126
 2026TIP3   OH2 6018   7.690   5.219   5.512
 2026TIP3    H1 6019   7.778   5.221   5.550
 2026TIP3    H2 6020   7.650   5.140   5.547
 2027TIP3   OH2 6021   5.218   0.988   6.476
 2027TIP3    H1 6022   5.267   1.066   6.453
 2027TIP3    H2 6023   5.239   0.925   6.406
 2028TIP3   OH2 6024   6.220   7.527   0.658
 2028TIP3    H1 6025   6.283   7.588   0.695
 2028TIP3    H2 6026   6.274   7.459   0.617
 2029TIP3   OH2 6027   0.053   6.262   3.248
 2029TIP3    H1 6028   0.034   6.171   3.272
 2029TIP3    H2 6029  -0.032   6.298   3.221
 2030TIP3   OH2 6030   3.528   3.150   0.732
 2030TIP3    H1 6031   3.575   3.067   0.724
 2030TIP3    H2 6032   3.597   3.216   0.744
 2031TIP3   OH2 6033   8.239   3.496   2.647
 2031TIP3    H1 6034   8.209   3.437   2.579
 2031TIP3    H2 6035   8.162   3.550   2.668
 2032TIP3   OH2 6036   2.672   4.078   0.710
 2032TIP3    H1 6037   2.677   4.065   0.615
 2032TIP3    H2 6038   2.731   4.152   0.726
 2033TIP3   OH2 6039   6.869   4.673   5.337
 2033TIP3    H1 6040   6.816   4.749   5.314
 2033TIP3    H2 6041   6.804   4.603   5.352
 2034TIP3   OH2 6042   8.320   0.569   3.087
 2034TIP3    H1 6043   8.239   0.519   3.100
 2034TIP3    H2 6044   8.327   0.578   2.992
 2035TIP3   OH2 6045   5.443   7.041   0.123
 2035TIP3    H1 6046   5.424   7.074   0.211
 2035TIP3    H2 6047   5.441   7.118   0.067
 2036TIP3   OH2 6048   7.089   1.386   3.454
 2036TIP3    H1 6049   7.091   1.467   3.505
 2036TIP3    H2 6050   7.155   1.330   3.495
 2037TIP3   OH2 6051   2.702   2.114   2.581
 2037TIP3    H1 6052   2.730   2.132   2.491
 2037TIP3    H2 6053   2.619   2.161   2.590
 2038TIP3   OH2 6054   0.073   0.233   5.948
 2038TIP3    H1 6055   0.124   0.213   6.027
 2038TIP3    H2 6056   0.094   0.324   5.928
 2039TIP3   OH2 6057   4.232   6.928   3.280
 2039TIP3    H1 6058   4.183   6.846   3.273
 2039TIP3    H2 6059   4.238   6.960   3.190
 2040TIP3   OH2 6060   8.382   6.524   3.113
 2040TIP3    H1 6061   8.426   6.458   3.060
 2040TIP3    H2 6062   8.289   6.507   3.101
 2041TIP3   OH2 6063   5.341   2.121   4.944
 2041TIP3    H1 6064   5.376   2.209   4.930
 2041TIP3    H2 6065   5.259   2.120   4.895
 2042TIP3   OH2 6066   7.717   0.035   5.354
 2042TIP3    H1 6067   7.748   0.053   5.265
 2042TIP3    H2 6068   7.747   0.110   5.405
 2043TIP3   OH2 6069   6.660   1.055   3.601
 2043TIP3    H1 6070   6.709   1.130   3.567
 2043TIP3    H2 6071   6.579   1.056   3.550
 2044TIP3   OH2 6072   5.853   4.862   5.563
 2044TIP3    H1 6073   5.895   4.779   5.583
 2044TIP3    H2 6074   5.919   4.928   5.581
 2045TIP3   OH2 6075   3.049   7.307   1.817
 2045TIP3    H1 6076   3.008   7.362   1.751
 2045TIP3    H2 6077   3.077   7.368   1.886
 2046TIP3   OH2 6078   7.622   4.800   3.618
 2046TIP3    H1 6079   7.588   4.721   3.576
 2046TIP3    H2 6080   7.573   4.872   3.578
 2047TIP3   OH2 6081   8.170   6.823   0.656
 2047TIP3    H1 6082   8.101   6.828   0.723
 2047TIP3    H2 6083   8.155   6.901   0.602
 2048TIP3   OH2 6084   6.726   1.918   1.773
 2048TIP3    H1 6085   6.688   1.831   1.759
 2048TIP3    H2 6086   6.680   1.975   1.712
 2049TIP3   OH2 6087   0.715   1.126   5.303
 2049TIP3    H1 6088   0.810   1.110   5.303
 2049TIP3    H2 6089   0.680   1.060   5.363
 2050TIP3   OH2 6090   1.570   3.089   3.747
 2050TIP3    H1 6091   1.652   3.048   3.774
 2050TIP3    H2 6092   1.561   3.166   3.803
 2051TIP3   OH2 6093   1.722   0.342   4.514
 2051TIP3    H1 6094   1.647   0.367   4.568
 2051TIP3    H2 6095   1.768   0.425   4.498
 2052TIP3   OH2 6096   5.070   0.040   4.113
 2052TIP3    H1 6097   4.983   0.042   4.073
 2052TIP3    H2 6098   5.057  -0.005   4.196
 2053TIP3   OH2 6099   0.303   1.676   3.421
 2053TIP3    H1 6100   0.324   1.721   3.338
 2053TIP3    H2 6101   0.318   1.743   3.488
 2054TIP3   OH2 6102   3.324   3.277   0.353
 2054TIP3    H1 6103   3.314   3.207   0.418
 2054TIP3    H2 6104   3.357   3.233   0.275
 2055TIP3   OH2 6105   0.157   2.304   2.313
 2055TIP3    H1 6106   0.169   2.317   2.219
 2055TIP3    H2 6107   0.241   2.270   2.343
 2056TIP3   OH2 6108   1.063   3.837   0.080
 2056TIP3    H1 6109   1.136   3.832   0.142
 2056TIP3    H2 6110   0.988   3.866   0.133
 2057TIP3   OH2 6111   0.165   5.325   3.556
 2057TIP3    H1 6112   0.226   5.256   3.583
 2057TIP3    H2 6113   0.081   5.299   3.595
 2058TIP3   OH2 6114   7.670   6.510   4.663
 2058TIP3    H1 6115   7.698   6.441   4.723
 2058TIP3    H2 6116   7.729   6.503   4.588
 2059TIP3   OH2 6117   5.453   7.479   6.196
 2059TIP3    H1 6118   5.396   7.555   6.210
 2059TIP3    H2 6119   5.458   7.437   6.282
 2060TIP3   OH2 6120   5.134   4.413   1.052
 2060TIP3    H1 6121   5.219   4.450   1.077
 2060TIP3    H2 6122   5.076   4.488   1.043
 2061TIP3   OH2 6123   7.097   4.718   0.769
 2061TIP3    H1 6124   7.153   4.706   0.692
 2061TIP3    H2 6125   7.145   4.673   0.839
 2062TIP3   OH2 6126   4.877   6.221   4.201
 2062TIP3    H1 6127   4.801   6.163   4.194
 2062TIP3    H2 6128   4.898   6.224   4.294
 2063TIP3   OH2 6129   2.538   0.337   0.389
 2063TIP3    H1 6130   2.478   0.402   0.352
 2063TIP3    H2 6131   2.618   0.386   0.406
 2064TIP3   OH2 6132   3.710   3.918   3.328
 2064TIP3    H1 6133   3.637   3.864   3.298
 2064TIP3    H2 6134   3.785   3.888   3.276
 2065TIP3   OH2 6135   2.603   3.454   0.302
 2065TIP3    H1 6136   2.663   3.528   0.288
 2065TIP3    H2 6137   2.650   3.379   0.265
 2066TIP3   OH2 6138   7.713   6.435   0.802
 2066TIP3    H1 6139   7.699   6.340   0.805
 2066TIP3    H2 6140   7.666   6.468   0.878
 2067TIP3   OH2 6141   6.379   2.795   0.756
 2067TIP3    H1 6142   6.417   2.817   0.841
 2067TIP3    H2 6143   6.300   2.746   0.777
 2068TIP3   OH2 6144   7.135   4.598   6.677
 2068TIP3    H1 6145   7.046   4.629   6.661
 2068TIP3    H2 6146   7.190   4.677   6.670
 2069TIP3   OH2 6147   7.961   5.880   6.404
 2069TIP3    H1 6148   7.917   5.965   6.394
 2069TIP3    H2 6149   7.908   5.835   6.470
 2070TIP3   OH2 6150   4.819   5.942   3.649
 2070TIP3    H1 6151   4.730   5.905   3.648
 2070TIP3    H2 6152   4.862   5.899   3.723
 2071TIP3   OH2 6153   4.396   0.686   4.757
 2071TIP3    H1 6154   4.326   0.743   4.789
 2071TIP3    H2 6155   4.449   0.667   4.834
 2072TIP3   OH2 6156   6.281   1.033   2.866
 2072TIP3    H1 6157   6.311   0.964   2.926
 2072TIP3    H2 6158   6.192   1.008   2.844
 2073TIP3   OH2 6159   6.778   7.823   5.421
 2073TIP3    H1 6160   6.789   7.815   5.327
 2073TIP3    H2 6161   6.824   7.748   5.457
 2074TIP3   OH2 6162   4.230   3.730   6.407
 2074TIP3    H1 6163   4.256   3.792   6.339
 2074TIP3    H2 6164   4.171   3.669   6.362
 2075TIP3   OH2 6165   6.344   3.939   0.952
 2075TIP3    H1 6166   6.396   4.007   0.908
 2075TIP3    H2 6167   6.345   3.865   0.891
 2076TIP3   OH2 6168   0.279   1.481   4.087
 2076TIP3    H1 6169   0.200   1.437   4.118
 2076TIP3    H2 6170   0.349   1.416   4.099
 2077TIP3   OH2 6171   1.222   6.685   3.718
 2077TIP3    H1 6172   1.304   6.712   3.678
 2077TIP3    H2 6173   1.163   6.759   3.704
 2078TIP3   OH2 6174   7.176   1.665   0.700
 2078TIP3    H1 6175   7.164   1.702   0.788
 2078TIP3    H2 6176   7.249   1.603   0.710
 2079TIP3   OH2 6177   7.601   6.850   4.223
 2079TIP3    H1 6178   7.521   6.835   4.173
 2079TIP3    H2 6179   7.665   6.792   4.182
 2080TIP3   OH2 6180   4.103   6.172   5.125
 2080TIP3    H1 6181   4.078   6.106   5.189
 2080TIP3    H2 6182   4.154   6.124   5.059
 2081TIP3   OH2 6183   5.640   7.262   3.476
 2081TIP3    H1 6184   5.566   7.317   3.503
 2081TIP3    H2 6185   5.715   7.301   3.521
 2082TIP3   OH2 6186   8.320   3.158   4.898
 2082TIP3    H1 6187   8.319   3.196   4.810
 2082TIP3    H2 6188   8.413   3.152   4.920
 2083TIP3   OH2 6189   1.714   5.801   1.217
 2083TIP3    H1 6190   1.710   5.739   1.144
 2083TIP3    H2 6191   1.684   5.884   1.180
 2084TIP3   OH2 6192   2.702   1.879   1.859
 2084TIP3    H1 6193   2.623   1.927   1.834
 2084TIP3    H2 6194   2.680   1.787   1.845
 2085TIP3   OH2 6195   5.516   3.444   2.319
 2085TIP3    H1 6196   5.550   3.451   2.408
 2085TIP3    H2 6197   5.504   3.534   2.290
 2086TIP3   OH2 6198   4.613   6.669   1.671
 2086TIP3    H1 6199   4.588   6.633   1.756
 2086TIP3    H2 6200   4.530   6.691   1.628
 2087TIP3   OH2 6201   5.094   2.057   4.759
 2087TIP3    H1 6202   5.060   2.077   4.847
 2087TIP3    H2 6203   5.033   2.099   4.699
 2088TIP3   OH2 6204   0.714   2.644   3.055
 2088TIP3    H1 6205   0.692   2.634   3.148
 2088TIP3    H2 6206   0.644   2.700   3.020
 2089TIP3   OH2 6207   2.606   4.055   3.450
 2089TIP3    H1 6208   2.631   4.136   3.493
 2089TIP3    H2 6209   2.675   4.039   3.386
 2090TIP3   OH2 6210   2.152   4.801   5.325
 2090TIP3    H1 6211   2.114   4.715   5.346
 2090TIP3    H2 6212   2.245   4.790   5.340
 2091TIP3   OH2 6213   4.282   5.778   0.934
 2091TIP3    H1 6214   4.216   5.843   0.957
 2091TIP3    H2 6215   4.319   5.809   0.851
 2092TIP3   OH2 6216   0.954   4.314   5.086
 2092TIP3    H1 6217   0.880   4.368   5.058
 2092TIP3    H2 6218   0.935   4.227   5.051
 2093TIP3   OH2 6219   8.275   4.677   3.415
 2093TIP3    H1 6220   8.208   4.702   3.352
 2093TIP3    H2 6221   8.289   4.755   3.468
 2094TIP3   OH2 6222   6.397   2.420   4.054
 2094TIP3    H1 6223   6.417   2.351   3.991
 2094TIP3    H2 6224   6.411   2.379   4.140
 2095TIP3   OH2 6225   6.075   0.684   3.524
 2095TIP3    H1 6226   6.140   0.747   3.554
 2095TIP3    H2 6227   6.080   0.612   3.588
 2096TIP3   OH2 6228   8.137   5.728   4.283
 2096TIP3    H1 6229   8.211   5.766   4.329
 2096TIP3    H2 6230   8.086   5.685   4.352
 2097TIP3   OH2 6231   1.248   2.862   5.373
 2097TIP3    H1 6232   1.325   2.824   5.414
 2097TIP3    H2 6233   1.187   2.877   5.445
 2098TIP3   OH2 6234   4.842   2.862   1.334
 2098TIP3    H1 6235   4.783   2.885   1.406
 2098TIP3    H2 6236   4.930   2.882   1.368
 2099TIP3   OH2 6237   0.765   1.303   6.515
 2099TIP3    H1 6238   0.741   1.371   6.452
 2099TIP3    H2 6239   0.846   1.265   6.480
 2100TIP3   OH2 6240   4.428   4.513   6.549
 2100TIP3    H1 6241   4.419   4.493   6.456
 2100TIP3    H2 6242   4.470   4.435   6.586
 2101TIP3   OH2 6243   2.354   0.724   3.039
 2101TIP3    H1 6244   2.380   0.761   2.955
 2101TIP3    H2 6245   2.416   0.762   3.102
 2102TIP3   OH2 6246   0.438   4.391   2.011
 2102TIP3    H1 6247   0.473   4.425   1.929
 2102TIP3    H2 6248   0.498   4.423   2.078
 2103TIP3   OH2 6249   3.572   4.448   3.477
 2103TIP3    H1 6250   3.557   4.363   3.517
 2103TIP3    H2 6251   3.493   4.498   3.496
 2104TIP3   OH2 6252   2.019   6.145   1.196
 2104TIP3    H1 6253   1.950   6.118   1.256
 2104TIP3    H2 6254   1.994   6.106   1.112
 2105TIP3   OH2 6255   0.915   0.355   3.238
 2105TIP3    H1 6256   0.828   0.342   3.200
 2105TIP3    H2 6257   0.974   0.313   3.175
 2106TIP3   OH2 6258   1.470   4.835   1.452
 2106TIP3    H1 6259   1.565   4.840   1.444
 2106TIP3    H2 6260   1.445   4.915   1.498
 2107TIP3   OH2 6261   2.975   4.554   0.310
 2107TIP3    H1 6262   2.922   4.501   0.251
 2107TIP3    H2 6263   2.950   4.644   0.291
 2108TIP3   OH2 6264   1.056   0.058   1.179
 2108TIP3    H1 6265   1.080   0.006   1.102
 2108TIP3    H2 6266   0.979   0.108   1.151
 2109TIP3   OH2 6267   1.692   1.001   6.339
 2109TIP3    H1 6268   1.695   0.977   6.431
 2109TIP3    H2 6269   1.765   1.062   6.328
 2110TIP3   OH2 6270   6.655   6.722   1.774
 2110TIP3    H1 6271   6.571   6.690   1.806
 2110TIP3    H2 6272   6.648   6.716   1.678
 2111TIP3   OH2 6273   4.620   4.346   3.836
 2111TIP3    H1 6274   4.587   4.436   3.828
 2111TIP3    H2 6275   4.713   4.353   3.811
 2112TIP3   OH2 6276   4.912   5.929   2.590
 2112TIP3    H1 6277   4.847   5.866   2.622
 2112TIP3    H2 6278   4.991   5.909   2.639
 2113TIP3   OH2 6279   7.307   6.857   3.749
 2113TIP3    H1 6280   7.360   6.795   3.799
 2113TIP3    H2 6281   7.217   6.827   3.762
 2114TIP3   OH2 6282   1.759   5.438   5.661
 2114TIP3    H1 6283   1.692   5.493   5.704
 2114TIP3    H2 6284   1.732   5.436   5.569
 2115TIP3   OH2 6285   0.476   5.879   6.315
 2115TIP3    H1 6286   0.448   5.968   6.296
 2115TIP3    H2 6287   0.399   5.825   6.298
 2116TIP3   OH2 6288   5.408   0.013   6.376
 2116TIP3    H1 6289   5.491   0.054   6.351
 2116TIP3    H2 6290   5.434  -0.067   6.422
 2117TIP3   OH2 6291   4.969   3.480   0.366
 2117TIP3    H1 6292   4.993   3.541   0.437
 2117TIP3    H2 6293   4.891   3.435   0.399
 2118TIP3   OH2 6294   3.765   4.130   2.318
 2118TIP3    H1 6295   3.799   4.186   2.248
 2118TIP3    H2 6296   3.838   4.072   2.340
 2119TIP3   OH2 6297   3.464   3.560   5.170
 2119TIP3    H1 6298   3.403   3.632   5.157
 2119TIP3    H2 6299   3.413   3.481   5.150
 2120TIP3   OH2 6300   4.166   6.623   5.175
 2120TIP3    H1 6301   4.130   6.630   5.086
 2120TIP3    H2 6302   4.199   6.533   5.181
 2121TIP3   OH2 6303   3.786   6.371   0.217
 2121TIP3    H1 6304   3.756   6.449   0.265
 2121TIP3    H2 6305   3.767   6.298   0.276
 2122TIP3   OH2 6306   1.570   0.287   5.905
 2122TIP3    H1 6307   1.647   0.316   5.954
 2122TIP3    H2 6308   1.499   0.340   5.939
 2123TIP3   OH2 6309   6.787   5.134   5.767
 2123TIP3    H1 6310   6.837   5.214   5.780
 2123TIP3    H2 6311   6.851   5.070   5.737
 2124TIP3   OH2 6312   0.185   7.050   2.196
 2124TIP3    H1 6313   0.117   7.079   2.256
 2124TIP3    H2 6314   0.212   6.965   2.231
 2125TIP3   OH2 6315   5.348   3.606   4.771
 2125TIP3    H1 6316   5.267   3.647   4.741
 2125TIP3    H2 6317   5.331   3.512   4.766
 2126TIP3   OH2 6318   8.183   4.707   2.437
 2126TIP3    H1 6319   8.207   4.786   2.390
 2126TIP3    H2 6320   8.215   4.635   2.382
 2127TIP3   OH2 6321   5.250   7.053   4.010
 2127TIP3    H1 6322   5.266   7.146   3.993
 2127TIP3    H2 6323   5.336   7.012   4.004
 2128TIP3   OH2 6324   5.278   7.076   2.115
 2128TIP3    H1 6325   5.272   6.981   2.115
 2128TIP3    H2 6326   5.192   7.105   2.147
 2129TIP3   OH2 6327   4.027   4.877   2.284
 2129TIP3    H1 6328   3.940   4.866   2.245
 2129TIP3    H2 6329   4.052   4.966   2.261
 2130TIP3   OH2 6330   1.709   0.134   2.366
 2130TIP3    H1 6331   1.661   0.193   2.309
 2130TIP3    H2 6332   1.782   0.102   2.313
 2131TIP3   OH2 6333   8.338   2.512   2.923
 2131TIP3    H1 6334   8.409   2.557   2.878
 2131TIP3    H2 6335   8.352   2.419   2.903
 2132TIP3   OH2 6336   5.340   7.633   6.684
 2132TIP3    H1 6337   5.411   7.655   6.624
 2132TIP3    H2 6338   5.262   7.670   6.644
 2133TIP3   OH2 6339   0.244   0.222   5.680
 2133TIP3    H1 6340   0.149   0.225   5.696
 2133TIP3    H2 6341   0.256   0.151   5.617
 2134TIP3   OH2 6342   0.518   0.224   1.759
 2134TIP3    H1 6343   0.433   0.189   1.732
 2134TIP3    H2 6344   0.563   0.149   1.800
 2135TIP3   OH2 6345   2.164   6.110   3.518
 2135TIP3    H1 6346   2.158   6.050   3.444
 2135TIP3    H2 6347   2.244   6.161   3.502
 2136TIP3   OH2 6348   5.229   2.396   4.622
 2136TIP3    H1 6349   5.261   2.337   4.690
 2136TIP3    H2 6350   5.172   2.457   4.668
 2137TIP3   OH2 6351   6.477   7.445   1.951
 2137TIP3    H1 6352   6.530   7.379   1.995
 2137TIP3    H2 6353   6.528   7.469   1.874
 2138TIP3   OH2 6354   4.417   5.384   4.394
 2138TIP3    H1 6355   4.510   5.388   4.372
 2138TIP3    H2 6356   4.407   5.445   4.467
 2139TIP3   OH2 6357   4.388   6.267   6.025
 2139TIP3    H1 6358   4.467   6.250   5.973
 2139TIP3    H2 6359   4.340   6.332   5.975
 2140TIP3   OH2 6360   3.761   7.347   6.024
 2140TIP3    H1 6361   3.746   7.271   5.968
 2140TIP3    H2 6362   3.835   7.393   5.983
 2141TIP3   OH2 6363   5.265   1.017   4.521
 2141TIP3    H1 6364   5.340   1.047   4.470
 2141TIP3    H2 6365   5.303   0.953   4.582
 2142TIP3   OH2 6366   4.697   1.243   2.136
 2142TIP3    H1 6367   4.611   1.201   2.131
 2142TIP3    H2 6368   4.682   1.320   2.191
 2143TIP3   OH2 6369   8.335   3.276   1.075
 2143TIP3    H1 6370   8.344   3.369   1.098
 2143TIP3    H2 6371   8.383   3.230   1.144
 2144TIP3   OH2 6372   0.614   6.549   1.539
 2144TIP3    H1 6373   0.581   6.637   1.558
 2144TIP3    H2 6374   0.538   6.502   1.504
 2145TIP3   OH2 6375   1.031   5.825   1.407
 2145TIP3    H1 6376   0.978   5.763   1.357
 2145TIP3    H2 6377   0.978   5.905   1.409
 2146TIP3   OH2 6378   2.494   0.656   6.718
 2146TIP3    H1 6379   2.447   0.735   6.744
 2146TIP3    H2 6380   2.546   0.633   6.794
 2147TIP3   OH2 6381   5.057   6.582   3.346
 2147TIP3    H1 6382   5.061   6.528   3.424
 2147TIP3    H2 6383   5.098   6.665   3.372
 2148TIP3   OH2 6384   0.816   3.331   3.860
 2148TIP3    H1 6385   0.860   3.252   3.893
 2148TIP3    H2 6386   0.854   3.345   3.774
 2149TIP3   OH2 6387   6.553   0.910   3.321
 2149TIP3    H1 6388   6.481   0.935   3.379
 2149TIP3    H2 6389   6.604   0.990   3.309
 2150TIP3   OH2 6390   2.953   0.799   3.465
 2150TIP3    H1 6391   2.866   0.770   3.440
 2150TIP3    H2 6392   3.003   0.799   3.383
 2151TIP3   OH2 6393   0.038   0.731   6.148
 2151TIP3    H1 6394   0.133   0.727   6.144
 2151TIP3    H2 6395   0.019   0.823   6.167
 2152TIP3   OH2 6396   2.707   5.252   4.519
 2152TIP3    H1 6397   2.661   5.280   4.440
 2152TIP3    H2 6398   2.799   5.261   4.498
 2153TIP3   OH2 6399   4.301   2.480   3.995
 2153TIP3    H1 6400   4.356   2.498   3.919
 2153TIP3    H2 6401   4.348   2.519   4.069
 2154TIP3   OH2 6402   4.026   7.729   1.345
 2154TIP3    H1 6403   3.957   7.788   1.372
 2154TIP3    H2 6404   4.005   7.706   1.254
 2155TIP3   OH2 6405   2.577   2.356   6.129
 2155TIP3    H1 6406   2.511   2.318   6.188
 2155TIP3    H2 6407   2.526   2.390   6.055
 2156TIP3   OH2 6408   7.619   3.030   3.911
 2156TIP3    H1 6409   7.678   2.977   3.858
 2156TIP3    H2 6410   7.659   3.116   3.912
 2157TIP3   OH2 6411   4.778   7.443   0.802
 2157TIP3    H1 6412   4.840   7.375   0.776
 2157TIP3    H2 6413   4.819   7.485   0.878
 2158TIP3   OH2 6414   4.635   2.869   2.726
 2158TIP3    H1 6415   4.646   2.961   2.701
 2158TIP3    H2 6416   4.544   2.864   2.756
 2159TIP3   OH2 6417   1.789   2.923   3.807
 2159TIP3    H1 6418   1.757   2.833   3.814
 2159TIP3    H2 6419   1.867   2.917   3.751
 2160TIP3   OH2 6420   3.946   5.375   3.435
 2160TIP3    H1 6421   3.988   5.292   3.456
 2160TIP3    H2 6422   3.925   5.413   3.521
 2161TIP3   OH2 6423   7.784   3.187   3.035
 2161TIP3    H1 6424   7.863   3.143   3.066
 2161TIP3    H2 6425   7.764   3.145   2.952
 2162TIP3   OH2 6426   7.770   4.636   0.655
 2162TIP3    H1 6427   7.800   4.690   0.582
 2162TIP3    H2 6428   7.801   4.683   0.733
 2163TIP3   OH2 6429   6.678   2.445   1.618
 2163TIP3    H1 6430   6.670   2.424   1.712
 2163TIP3    H2 6431   6.591   2.477   1.594
 2164TIP3   OH2 6432   1.520   5.933   2.780
 2164TIP3    H1 6433   1.566   6.001   2.830
 2164TIP3    H2 6434   1.500   5.974   2.696
 2165TIP3   OH2 6435   5.325   4.546   6.773
 2165TIP3    H1 6436   5.418   4.557   6.790
 2165TIP3    H2 6437   5.287   4.632   6.789
 2166TIP3   OH2 6438   2.098   6.471   3.258
 2166TIP3    H1 6439   2.103   6.468   3.354
 2166TIP3    H2 6440   2.005   6.485   3.240
 2167TIP3   OH2 6441   0.317   7.544   0.557
 2167TIP3    H1 6442   0.294   7.637   0.552
 2167TIP3    H2 6443   0.267   7.511   0.632
 2168TIP3   OH2 6444   4.171   3.451   2.079
 2168TIP3    H1 6445   4.202   3.373   2.032
 2168TIP3    H2 6446   4.191   3.523   2.020
 2169TIP3   OH2 6447   4.280   5.138   5.929
 2169TIP3    H1 6448   4.276   5.072   5.999
 2169TIP3    H2 6449   4.366   5.126   5.891
 2170TIP3   OH2 6450   7.464   1.957   0.644
 2170TIP3    H1 6451   7.522   2.027   0.671
 2170TIP3    H2 6452   7.383   1.972   0.693
 2171TIP3   OH2 6453   7.761   0.621   5.974
 2171TIP3    H1 6454   7.771   0.717   5.969
 2171TIP3    H2 6455   7.716   0.606   6.057
 2172TIP3   OH2 6456   5.087   1.185   0.126
 2172TIP3    H1 6457   5.087   1.145   0.212
 2172TIP3    H2 6458   5.169   1.155   0.086
 2173TIP3   OH2 6459   8.299   4.743   0.562
 2173TIP3    H1 6460   8.295   4.839   0.554
 2173TIP3    H2 6461   8.315   4.728   0.655
 2174TIP3   OH2 6462   8.013   6.850   3.227
 2174TIP3    H1 6463   7.923   6.882   3.238
 2174TIP3    H2 6464   8.062   6.927   3.197
 2175TIP3   OH2 6465   7.432   7.478   6.173
 2175TIP3    H1 6466   7.360   7.505   6.230
 2175TIP3    H2 6467   7.412   7.387   6.151
 2176TIP3   OH2 6468   2.380   6.007   5.658
 2176TIP3    H1 6469   2.468   5.968   5.664
 2176TIP3    H2 6470   2.391   6.096   5.690
 2177TIP3   OH2 6471   6.020   1.763   2.130
 2177TIP3    H1 6472   5.963   1.814   2.188
 2177TIP3    H2 6473   6.093   1.822   2.110
 2178TIP3   OH2 6474   2.298   5.607   4.941
 2178TIP3    H1 6475   2.241   5.671   4.897
 2178TIP3    H2 6476   2.328   5.550   4.870
 2179TIP3   OH2 6477   6.787   1.578   0.994
 2179TIP3    H1 6478   6.828   1.662   1.014
 2179TIP3    H2 6479   6.713   1.572   1.055
 2180TIP3   OH2 6480   1.858   6.574   2.418
 2180TIP3    H1 6481   1.837   6.495   2.369
 2180TIP3    H2 6482   1.795   6.576   2.490
 2181TIP3   OH2 6483   3.059   2.956   5.762
 2181TIP3    H1 6484   3.052   2.973   5.668
 2181TIP3    H2 6485   2.984   3.001   5.800
 2182TIP3   OH2 6486   5.703   0.743   6.647
 2182TIP3    H1 6487   5.626   0.688   6.632
 2182TIP3    H2 6488   5.738   0.714   6.731
 2183TIP3   OH2 6489   5.403   2.886   5.020
 2183TIP3    H1 6490   5.443   2.957   4.970
 2183TIP3    H2 6491   5.468   2.815   5.016
 2184TIP3   OH2 6492   0.822   3.837   3.724
 2184TIP3    H1 6493   0.744   3.868   3.771
 2184TIP3    H2 6494   0.833   3.746   3.753
 2185TIP3   OH2 6495   2.994   3.163   0.397
 2185TIP3    H1 6496   2.986   3.080   0.351
 2185TIP3    H2 6497   2.960   3.146   0.485
 2186TIP3   OH2 6498   4.871   0.276   1.199
 2186TIP3    H1 6499   4.904   0.202   1.148
 2186TIP3    H2 6500   4.785   0.295   1.161
 2187TIP3   OH2 6501   0.697   1.768   0.119
 2187TIP3    H1 6502   0.685   1.862   0.127
 2187TIP3    H2 6503   0.704   1.752   0.025
 2188TIP3   OH2 6504   4.241   2.193   4.056
 2188TIP3    H1 6505   4.262   2.285   4.038
 2188TIP3    H2 6506   4.148   2.193   4.079
 2189TIP3   OH2 6507   6.969   1.308   2.404
 2189TIP3    H1 6508   7.039   1.259   2.446
 2189TIP3    H2 6509   6.957   1.266   2.319
 2190TIP3   OH2 6510   0.313   2.447   4.295
 2190TIP3    H1 6511   0.230   2.446   4.342
 2190TIP3    H2 6512   0.376   2.483   4.357
 2191TIP3   OH2 6513   6.532   6.388   4.907
 2191TIP3    H1 6514   6.582   6.352   4.980
 2191TIP3    H2 6515   6.513   6.312   4.852
 2192TIP3   OH2 6516   3.442   2.551   0.967
 2192TIP3    H1 6517   3.383   2.476   0.972
 2192TIP3    H2 6518   3.445   2.573   0.874
 2193TIP3   OH2 6519   4.880   3.593   1.290
 2193TIP3    H1 6520   4.798   3.641   1.302
 2193TIP3    H2 6521   4.915   3.582   1.379
 2194TIP3   OH2 6522   8.235   1.671   6.467
 2194TIP3    H1 6523   8.311   1.684   6.523
 2194TIP3    H2 6524   8.194   1.758   6.463
 2195TIP3   OH2 6525   1.260   0.499   5.604
 2195TIP3    H1 6526   1.214   0.535   5.680
 2195TIP3    H2 6527   1.267   0.405   5.623
 2196TIP3   OH2 6528   4.310   4.098   3.956
 2196TIP3    H1 6529   4.355   4.072   3.876
 2196TIP3    H2 6530   4.322   4.024   4.016
 2197TIP3   OH2 6531   4.729   2.433   2.995
 2197TIP3    H1 6532   4.771   2.462   3.076
 2197TIP3    H2 6533   4.734   2.509   2.937
 2198TIP3   OH2 6534   6.366   0.297   1.291
 2198TIP3    H1 6535   6.394   0.254   1.210
 2198TIP3    H2 6536   6.445   0.336   1.327
 2199TIP3   OH2 6537   1.992   1.840   6.339
 2199TIP3    H1 6538   1.909   1.865   6.300
 2199TIP3    H2 6539   1.985   1.745   6.349
 2200TIP3   OH2 6540   4.948   5.729   0.975
 2200TIP3    H1 6541   4.949   5.659   1.040
 2200TIP3    H2 6542   5.005   5.698   0.905
 2201TIP3   OH2 6543   6.003   2.635   2.508
 2201TIP3    H1 6544   5.909   2.621   2.515
 2201TIP3    H2 6545   6.033   2.648   2.598
 2202TIP3   OH2 6546   0.605   0.622   4.014
 2202TIP3    H1 6547   0.634   0.689   3.952
 2202TIP3    H2 6548   0.547   0.669   4.074
 2203TIP3   OH2 6549   5.275   1.266   2.464
 2203TIP3    H1 6550   5.202   1.204   2.469
 2203TIP3    H2 6551   5.347   1.222   2.508
 2204TIP3   OH2 6552   5.987   7.139   4.131
 2204TIP3    H1 6553   6.036   7.211   4.171
 2204TIP3    H2 6554   6.035   7.060   4.156
 2205TIP3   OH2 6555   4.399   5.303   2.497
 2205TIP3    H1 6556   4.338   5.256   2.441
 2205TIP3    H2 6557   4.378   5.396   2.483
 2206TIP3   OH2 6558   7.244   6.958   0.617
 2206TIP3    H1 6559   7.163   6.998   0.647
 2206TIP3    H2 6560   7.261   6.999   0.532
 2207TIP3   OH2 6561   5.677   6.208   5.865
 2207TIP3    H1 6562   5.729   6.149   5.810
 2207TIP3    H2 6563   5.634   6.150   5.927
 2208TIP3   OH2 6564   0.649   4.239   1.527
 2208TIP3    H1 6565   0.619   4.325   1.499
 2208TIP3    H2 6566   0.725   4.221   1.473
 2209TIP3   OH2 6567   7.248   6.532   6.180
 2209TIP3    H1 6568   7.199   6.462   6.224
 2209TIP3    H2 6569   7.227   6.611   6.230
 2210TIP3   OH2 6570   1.112   5.349   1.380
 2210TIP3    H1 6571   1.110   5.347   1.285
 2210TIP3    H2 6572   1.184   5.408   1.401
 2211TIP3   OH2 6573   6.445   6.416   0.226
 2211TIP3    H1 6574   6.351   6.412   0.212
 2211TIP3    H2 6575   6.477   6.330   0.197
 2212TIP3   OH2 6576   3.400   7.259   1.478
 2212TIP3    H1 6577   3.378   7.346   1.444
 2212TIP3    H2 6578   3.318   7.226   1.514
 2213TIP3   OH2 6579   1.967   3.098   4.856
 2213TIP3    H1 6580   1.934   3.055   4.777
 2213TIP3    H2 6581   2.062   3.104   4.842
 2214TIP3   OH2 6582   4.885   5.139   6.651
 2214TIP3    H1 6583   4.914   5.085   6.577
 2214TIP3    H2 6584   4.791   5.126   6.655
 2215TIP3   OH2 6585   0.099   3.497   6.239
 2215TIP3    H1 6586   0.156   3.565   6.203
 2215TIP3    H2 6587   0.116   3.498   6.333
 2216TIP3   OH2 6588   3.671   2.982   0.950
 2216TIP3    H1 6589   3.748   2.925   0.961
 2216TIP3    H2 6590   3.602   2.939   0.999
 2217TIP3   OH2 6591   7.837   4.630   4.785
 2217TIP3    H1 6592   7.913   4.602   4.836
 2217TIP3    H2 6593   7.852   4.597   4.697
 2218TIP3   OH2 6594   4.223   5.589  -0.004
 2218TIP3    H1 6595   4.262   5.638   0.069
 2218TIP3    H2 6596   4.142   5.636  -0.023
 2219TIP3   OH2 6597   1.334   4.694   3.781
 2219TIP3    H1 6598   1.308   4.783   3.803
 2219TIP3    H2 6599   1.308   4.683   3.689
 2220TIP3   OH2 6600   7.127   4.275   4.112
 2220TIP3    H1 6601   7.196   4.333   4.144
 2220TIP3    H2 6602   7.146   4.264   4.019
 2221TIP3   OH2 6603   6.817   5.361   4.229
 2221TIP3    H1 6604   6.884   5.427   4.211
 2221TIP3    H2 6605   6.739   5.411   4.254
 2222TIP3   OH2 6606   3.591   3.020   4.347
 2222TIP3    H1 6607   3.522   3.077   4.315
 2222TIP3    H2 6608   3.566   3.001   4.438
 2223TIP3   OH2 6609   0.484   6.035   4.350
 2223TIP3    H1 6610   0.429   6.016   4.274
 2223TIP3    H2 6611   0.545   5.960   4.355
 2224TIP3   OH2 6612   8.280   0.731   6.380
 2224TIP3    H1 6613   8.334   0.699   6.308
 2224TIP3    H2 6614   8.265   0.823   6.360
 2225TIP3   OH2 6615   2.043   5.735   2.570
 2225TIP3    H1 6616   1.967   5.793   2.569
 2225TIP3    H2 6617   2.108   5.779   2.516
 2226TIP3   OH2 6618   5.708   6.517   3.223
 2226TIP3    H1 6619   5.788   6.530   3.274
 2226TIP3    H2 6620   5.702   6.422   3.211
 2227TIP3   OH2 6621   4.944   0.412   1.421
 2227TIP3    H1 6622   4.907   0.352   1.356
 2227TIP3    H2 6623   4.881   0.484   1.425
 2228TIP3   OH2 6624   7.810   2.831   2.729
 2228TIP3    H1 6625   7.875   2.816   2.797
 2228TIP3    H2 6626   7.836   2.772   2.658
 2229TIP3   OH2 6627   6.004   2.705   3.052
 2229TIP3    H1 6628   5.962   2.662   2.978
 2229TIP3    H2 6629   5.992   2.799   3.036
 2230TIP3   OH2 6630   0.108   7.246   5.943
 2230TIP3    H1 6631   0.046   7.310   5.909
 2230TIP3    H2 6632   0.187   7.296   5.962
 2231TIP3   OH2 6633   5.744   3.489   3.136
 2231TIP3    H1 6634   5.687   3.565   3.127
 2231TIP3    H2 6635   5.779   3.495   3.225
 2232TIP3   OH2 6636   5.968   4.487   1.910
 2232TIP3    H1 6637   6.051   4.535   1.902
 2232TIP3    H2 6638   5.959   4.442   1.826
 2233TIP3   OH2 6639   4.644   5.993   1.126
 2233TIP3    H1 6640   4.627   6.056   1.057
 2233TIP3    H2 6641   4.739   5.988   1.132
 2234TIP3   OH2 6642   6.904   1.167   0.055
 2234TIP3    H1 6643   6.870   1.161  -0.034
 2234TIP3    H2 6644   6.988   1.121   0.052
 2235TIP3   OH2 6645   1.442   2.017   6.019
 2235TIP3    H1 6646   1.434   2.060   6.104
 2235TIP3    H2 6647   1.534   2.025   5.996
 2236TIP3   OH2 6648   6.841   1.383   5.012
 2236TIP3    H1 6649   6.754   1.349   5.031
 2236TIP3    H2 6650   6.892   1.307   4.983
 2237TIP3   OH2 6651   0.695   4.630   0.752
 2237TIP3    H1 6652   0.638   4.628   0.674
 2237TIP3    H2 6653   0.782   4.612   0.718
 2238TIP3   OH2 6654   2.599   6.929   4.506
 2238TIP3    H1 6655   2.633   6.979   4.432
 2238TIP3    H2 6656   2.623   6.980   4.583
 2239TIP3   OH2 6657   3.904   2.378   4.943
 2239TIP3    H1 6658   3.974   2.407   4.885
 2239TIP3    H2 6659   3.940   2.387   5.031
 2240TIP3   OH2 6660   8.348   2.981   5.818
 2240TIP3    H1 6661   8.432   2.949   5.786
 2240TIP3    H2 6662   8.366   3.070   5.848
 2241TIP3   OH2 6663   8.288   6.260   2.723
 2241TIP3    H1 6664   8.253   6.184   2.676
 2241TIP3    H2 6665   8.330   6.313   2.655
 2242TIP3   OH2 6666   1.515   5.337   4.340
 2242TIP3    H1 6667   1.609   5.329   4.358
 2242TIP3    H2 6668   1.474   5.315   4.424
 2243TIP3   OH2 6669   5.058   1.996   0.147
 2243TIP3    H1 6670   5.153   1.995   0.149
 2243TIP3    H2 6671   5.034   2.088   0.137
 2244TIP3   OH2 6672   4.554   2.824   5.703
 2244TIP3    H1 6673   4.620   2.877   5.657
 2244TIP3    H2 6674   4.507   2.779   5.633
 2245TIP3   OH2 6675   3.826   1.442   5.665
 2245TIP3    H1 6676   3.819   1.403   5.752
 2245TIP3    H2 6677   3.896   1.507   5.674
 2246TIP3   OH2 6678   1.271   6.411   2.669
 2246TIP3    H1 6679   1.186   6.455   2.662
 2246TIP3    H2 6680   1.254   6.321   2.643
 2247TIP3   OH2 6681   6.881   2.374   2.794
 2247TIP3    H1 6682   6.960   2.325   2.771
 2247TIP3    H2 6683   6.823   2.362   2.719
 2248TIP3   OH2 6684   6.766   1.262   1.433
 2248TIP3    H1 6685   6.703   1.199   1.469
 2248TIP3    H2 6686   6.726   1.347   1.449
 2249TIP3   OH2 6687   2.587   5.550   6.337
 2249TIP3    H1 6688   2.596   5.472   6.392
 2249TIP3    H2 6689   2.677   5.575   6.317
 2250TIP3   OH2 6690   6.643   6.488   5.143
 2250TIP3    H1 6691   6.568   6.524   5.095
 2250TIP3    H2 6692   6.608   6.468   5.230
 2251TIP3   OH2 6693   6.781   6.821   0.276
 2251TIP3    H1 6694   6.712   6.883   0.299
 2251TIP3    H2 6695   6.734   6.740   0.257
 2252TIP3   OH2 6696   2.592   7.387   5.381
 2252TIP3    H1 6697   2.652   7.372   5.455
 2252TIP3    H2 6698   2.514   7.426   5.421
 2253TIP3   OH2 6699   5.132   2.454   3.367
 2253TIP3    H1 6700   5.171   2.399   3.435
 2253TIP3    H2 6701   5.205   2.478   3.310
 2254TIP3   OH2 6702   3.122   2.891   6.384
 2254TIP3    H1 6703   3.213   2.918   6.374
 2254TIP3    H2 6704   3.126   2.796   6.396
 2255TIP3   OH2 6705   5.576   3.250   5.909
 2255TIP3    H1 6706   5.489   3.280   5.934
 2255TIP3    H2 6707   5.560   3.170   5.859
 2256TIP3   OH2 6708   7.161   1.603   2.048
 2256TIP3    H1 6709   7.115   1.593   2.132
 2256TIP3    H2 6710   7.250   1.572   2.066
 2257TIP3   OH2 6711   4.877   2.258   4.373
 2257TIP3    H1 6712   4.878   2.206   4.293
 2257TIP3    H2 6713   4.910   2.344   4.346
 2258TIP3   OH2 6714   1.989   4.530   1.922
 2258TIP3    H1 6715   1.931   4.454   1.931
 2258TIP3    H2 6716   2.032   4.537   2.008
 2259TIP3   OH2 6717   1.557   5.100   6.771
 2259TIP3    H1 6718   1.491   5.166   6.791
 2259TIP3    H2 6719   1.550   5.036   6.842
 2260TIP3   OH2 6720   7.579   5.912   2.331
 2260TIP3    H1 6721   7.539   5.830   2.359
 2260TIP3    H2 6722   7.550   5.923   2.240
 2261TIP3   OH2 6723   7.912   2.440   4.759
 2261TIP3    H1 6724   7.893   2.468   4.848
 2261TIP3    H2 6725   8.003   2.467   4.744
 2262TIP3   OH2 6726   5.089   7.547   1.308
 2262TIP3    H1 6727   5.024   7.481   1.284
 2262TIP3    H2 6728   5.167   7.524   1.258
 2263TIP3   OH2 6729   4.514   2.164   2.932
 2263TIP3    H1 6730   4.466   2.095   2.976
 2263TIP3    H2 6731   4.593   2.177   2.984
 2264TIP3   OH2 6732   4.908   1.085   4.552
 2264TIP3    H1 6733   4.872   1.173   4.540
 2264TIP3    H2 6734   4.974   1.095   4.620
 2265TIP3   OH2 6735   1.564   5.785   2.114
 2265TIP3    H1 6736   1.520   5.701   2.128
 2265TIP3    H2 6737   1.494   5.844   2.087
 2266TIP3   OH2 6738   4.176   7.666   3.623
 2266TIP3    H1 6739   4.232   7.718   3.681
 2266TIP3    H2 6740   4.207   7.576   3.633
 2267TIP3   OH2 6741   3.651   4.010   5.138
 2267TIP3    H1 6742   3.711   3.939   5.163
 2267TIP3    H2 6743   3.567   3.984   5.175
 2268TIP3   OH2 6744   5.590   6.102   4.704
 2268TIP3    H1 6745   5.684   6.087   4.704
 2268TIP3    H2 6746   5.574   6.159   4.779
 2269TIP3   OH2 6747   5.921   2.351   0.650
 2269TIP3    H1 6748   5.928   2.260   0.679
 2269TIP3    H2 6749   5.894   2.345   0.559
 2270TIP3   OH2 6750   1.993   4.004   2.897
 2270TIP3    H1 6751   2.005   3.929   2.955
 2270TIP3    H2 6752   1.946   4.068   2.950
 2271TIP3   OH2 6753   2.745   1.502   0.001
 2271TIP3    H1 6754   2.668   1.455  -0.030
 2271TIP3    H2 6755   2.803   1.433   0.033
 2272TIP3   OH2 6756   8.161   7.656   6.482
 2272TIP3    H1 6757   8.134   7.573   6.442
 2272TIP3    H2 6758   8.103   7.722   6.443
 2273TIP3   OH2 6759   6.208   3.583   3.927
 2273TIP3    H1 6760   6.125   3.610   3.889
 2273TIP3    H2 6761   6.272   3.597   3.857
 2274TIP3   OH2 6762   6.113   5.332   0.058
 2274TIP3    H1 6763   6.135   5.405   0.116
 2274TIP3    H2 6764   6.122   5.368  -0.030
 2275TIP3   OH2 6765   1.141   7.681   6.296
 2275TIP3    H1 6766   1.165   7.635   6.215
 2275TIP3    H2 6767   1.209   7.656   6.358
 2276TIP3   OH2 6768   6.032   4.372   2.244
 2276TIP3    H1 6769   5.977   4.321   2.185
 2276TIP3    H2 6770   6.019   4.463   2.217
 2277TIP3   OH2 6771   6.574   6.617   4.761
 2277TIP3    H1 6772   6.533   6.700   4.786
 2277TIP3    H2 6773   6.538   6.553   4.823
 2278TIP3   OH2 6774   5.857   3.701   5.682
 2278TIP3    H1 6775   5.791   3.649   5.727
 2278TIP3    H2 6776   5.903   3.639   5.626
 2279TIP3   OH2 6777   3.642   5.800   0.233
 2279TIP3    H1 6778   3.668   5.751   0.155
 2279TIP3    H2 6779   3.639   5.891   0.204
 2280TIP3   OH2 6780   5.165   2.791   0.375
 2280TIP3    H1 6781   5.190   2.749   0.293
 2280TIP3    H2 6782   5.234   2.768   0.437
 2281TIP3   OH2 6783   0.365   7.700   5.171
 2281TIP3    H1 6784   0.451   7.742   5.179
 2281TIP3    H2 6785   0.383   7.607   5.185
 2282TIP3   OH2 6786   8.093   0.202   2.956
 2282TIP3    H1 6787   8.022   0.213   3.020
 2282TIP3    H2 6788   8.110   0.108   2.956
 2283TIP3   OH2 6789   2.949   5.725   0.122
 2283TIP3    H1 6790   2.959   5.812   0.085
 2283TIP3    H2 6791   3.039   5.698   0.144
 2284TIP3   OH2 6792   3.626   3.241   1.002
 2284TIP3    H1 6793   3.705   3.270   1.048
 2284TIP3    H2 6794   3.644   3.150   0.979
 2285TIP3   OH2 6795   8.340   2.832   4.269
 2285TIP3    H1 6796   8.374   2.835   4.180
 2285TIP3    H2 6797   8.348   2.740   4.295
 2286TIP3   OH2 6798   0.878   3.121   3.517
 2286TIP3    H1 6799   0.826   3.093   3.592
 2286TIP3    H2 6800   0.906   3.210   3.538
 2287TIP3   OH2 6801   4.924   5.636   4.745
 2287TIP3    H1 6802   4.953   5.607   4.658
 2287TIP3    H2 6803   4.921   5.731   4.739
 2288TIP3   OH2 6804   8.359   0.891   2.211
 2288TIP3    H1 6805   8.392   0.968   2.256
 2288TIP3    H2 6806   8.284   0.922   2.160
 2289TIP3   OH2 6807   6.455   4.017   6.555
 2289TIP3    H1 6808   6.476   4.048   6.467
 2289TIP3    H2 6809   6.489   4.085   6.613
 2290TIP3   OH2 6810   0.154   4.743   4.509
 2290TIP3    H1 6811   0.181   4.670   4.453
 2290TIP3    H2 6812   0.130   4.702   4.592
 2291TIP3   OH2 6813   4.824   5.036   3.645
 2291TIP3    H1 6814   4.821   5.127   3.676
 2291TIP3    H2 6815   4.772   5.037   3.565
 2292TIP3   OH2 6816   7.131   3.589   5.430
 2292TIP3    H1 6817   7.203   3.525   5.435
 2292TIP3    H2 6818   7.107   3.604   5.522
 2293TIP3   OH2 6819   5.044   2.039   5.038
 2293TIP3    H1 6820   4.984   2.003   5.103
 2293TIP3    H2 6821   5.129   2.039   5.083
 2294TIP3   OH2 6822   7.680   2.573   4.895
 2294TIP3    H1 6823   7.664   2.530   4.811
 2294TIP3    H2 6824   7.604   2.631   4.908
 2295TIP3   OH2 6825   2.519   7.237   5.096
 2295TIP3    H1 6826   2.514   7.247   5.191
 2295TIP3    H2 6827   2.446   7.289   5.062
 2296TIP3   OH2 6828   7.498   6.772   6.073
 2296TIP3    H1 6829   7.418   6.821   6.059
 2296TIP3    H2 6830   7.514   6.728   5.989
 2297TIP3   OH2 6831   5.452   1.150   4.349
 2297TIP3    H1 6832   5.445   1.244   4.365
 2297TIP3    H2 6833   5.399   1.135   4.271
 2298TIP3   OH2 6834   2.886   3.924   0.286
 2298TIP3    H1 6835   2.928   4.009   0.273
 2298TIP3    H2 6836   2.807   3.944   0.336
 2299TIP3   OH2 6837   6.799   2.309   5.977
 2299TIP3    H1 6838   6.823   2.218   5.959
 2299TIP3    H2 6839   6.725   2.326   5.919
 2300TIP3   OH2 6840   5.497   6.776   2.092
 2300TIP3    H1 6841   5.511   6.845   2.157
 2300TIP3    H2 6842   5.402   6.772   2.081
 2301TIP3   OH2 6843   0.203   1.400   5.776
 2301TIP3    H1 6844   0.147   1.373   5.704
 2301TIP3    H2 6845   0.145   1.401   5.853
 2302TIP3   OH2 6846   4.219   1.334   6.046
 2302TIP3    H1 6847   4.227   1.344   5.951
 2302TIP3    H2 6848   4.133   1.370   6.067
 2303TIP3   OH2 6849   2.735   1.419   0.562
 2303TIP3    H1 6850   2.789   1.474   0.506
 2303TIP3    H2 6851   2.709   1.346   0.506
 2304TIP3   OH2 6852   3.553   5.985   3.605
 2304TIP3    H1 6853   3.515   6.031   3.680
 2304TIP3    H2 6854   3.647   6.002   3.611
 2305TIP3   OH2 6855   4.619   7.547   6.111
 2305TIP3    H1 6856   4.660   7.561   6.196
 2305TIP3    H2 6857   4.526   7.536   6.129
 2306TIP3   OH2 6858   7.319   4.007   5.489
 2306TIP3    H1 6859   7.276   3.954   5.557
 2306TIP3    H2 6860   7.247   4.052   5.445
 2307TIP3   OH2 6861   0.092   4.982   2.139
 2307TIP3    H1 6862   0.010   5.028   2.122
 2307TIP3    H2 6863   0.155   5.019   2.077
 2308TIP3   OH2 6864   7.999   1.837   3.155
 2308TIP3    H1 6865   7.918   1.840   3.105
 2308TIP3    H2 6866   8.036   1.751   3.135
 2309TIP3   OH2 6867   2.565   6.953   2.642
 2309TIP3    H1 6868   2.540   6.920   2.728
 2309TIP3    H2 6869   2.587   7.045   2.656
 2310TIP3   OH2 6870   1.884   0.059   2.166
 2310TIP3    H1 6871   1.847   0.105   2.090
 2310TIP3    H2 6872   1.898  -0.031   2.135
 2311TIP3   OH2 6873   0.938   1.824   1.144
 2311TIP3    H1 6874   0.887   1.744   1.159
 2311TIP3    H2 6875   0.889   1.892   1.190
 2312TIP3   OH2 6876   6.673   1.007   2.935
 2312TIP3    H1 6877   6.645   0.922   2.968
 2312TIP3    H2 6878   6.767   0.996   2.918
 2313TIP3   OH2 6879   6.819   5.665   2.149
 2313TIP3    H1 6880   6.845   5.753   2.124
 2313TIP3    H2 6881   6.726   5.660   2.126
 2314TIP3   OH2 6882   5.709   5.645   1.724
 2314TIP3    H1 6883   5.706   5.728   1.675
 2314TIP3    H2 6884   5.647   5.657   1.796
 2315TIP3   OH2 6885   1.170   6.093   2.848
 2315TIP3    H1 6886   1.258   6.124   2.872
 2315TIP3    H2 6887   1.126   6.170   2.813
 2316TIP3   OH2 6888   4.562   7.546   1.816
 2316TIP3    H1 6889   4.470   7.545   1.844
 2316TIP3    H2 6890   4.611   7.532   1.897
 2317TIP3   OH2 6891   4.395   5.277   5.017
 2317TIP3    H1 6892   4.311   5.258   4.975
 2317TIP3    H2 6893   4.407   5.371   5.006
 2318TIP3   OH2 6894   1.717   4.970   5.973
 2318TIP3    H1 6895   1.637   5.001   5.931
 2318TIP3    H2 6896   1.726   5.024   6.051
 2319TIP3   OH2 6897   6.225   2.509   1.428
 2319TIP3    H1 6898   6.175   2.430   1.449
 2319TIP3    H2 6899   6.168   2.581   1.455
 2320TIP3   OH2 6900   0.795   3.751   2.381
 2320TIP3    H1 6901   0.854   3.750   2.457
 2320TIP3    H2 6902   0.790   3.843   2.355
 2321TIP3   OH2 6903  -0.006   0.313   2.942
 2321TIP3    H1 6904   0.078   0.346   2.974
 2321TIP3    H2 6905  -0.051   0.390   2.908
 2322TIP3   OH2 6906   4.958   0.595   5.027
 2322TIP3    H1 6907   5.024   0.633   5.084
 2322TIP3    H2 6908   4.888   0.660   5.024
 2323TIP3   OH2 6909   6.881   6.818   3.065
 2323TIP3    H1 6910   6.945   6.754   3.032
 2323TIP3    H2 6911   6.923   6.857   3.141
 2324TIP3   OH2 6912   2.997   6.676   0.759
 2324TIP3    H1 6913   2.962   6.680   0.670
 2324TIP3    H2 6914   3.092   6.685   0.747
 2325TIP3   OH2 6915   2.231   1.494   1.971
 2325TIP3    H1 6916   2.327   1.496   1.972
 2325TIP3    H2 6917   2.205   1.568   2.025
 2326TIP3   OH2 6918   2.321   3.293   6.771
 2326TIP3    H1 6919   2.281   3.339   6.844
 2326TIP3    H2 6920   2.353   3.363   6.713
 2327TIP3   OH2 6921   5.095   2.982   1.722
 2327TIP3    H1 6922   5.079   2.894   1.690
 2327TIP3    H2 6923   5.091   2.975   1.817
 2328TIP3   OH2 6924   4.445   0.524   0.169
 2328TIP3    H1 6925   4.424   0.565   0.253
 2328TIP3    H2 6926   4.361   0.514   0.125
 2329TIP3   OH2 6927   2.306   1.903   0.773
 2329TIP3    H1 6928   2.357   1.825   0.795
 2329TIP3    H2 6929   2.368   1.962   0.731
 2330TIP3   OH2 6930   6.484   2.023   0.667
 2330TIP3    H1 6931   6.455   2.109   0.637
 2330TIP3    H2 6932   6.404   1.977   0.690
 2331TIP3   OH2 6933   1.957   1.375   6.542
 2331TIP3    H1 6934   2.030   1.321   6.572
 2331TIP3    H2 6935   1.911   1.399   6.622
 2332TIP3   OH2 6936   3.627   5.895   6.569
 2332TIP3    H1 6937   3.578   5.906   6.650
 2332TIP3    H2 6938   3.562   5.906   6.500
 2333TIP3   OH2 6939   0.838   0.286   2.625
 2333TIP3    H1 6940   0.851   0.361   2.683
 2333TIP3    H2 6941   0.863   0.317   2.538
 2334TIP3   OH2 6942   4.178   0.446   3.266
 2334TIP3    H1 6943   4.210   0.420   3.179
 2334TIP3    H2 6944   4.244   0.508   3.298
 2335TIP3   OH2 6945   3.013   1.979   1.023
 2335TIP3    H1 6946   3.092   2.011   0.980
 2335TIP3    H2 6947   3.035   1.978   1.116
 2336TIP3   OH2 6948   1.481   7.830   6.055
 2336TIP3    H1 6949   1.537   7.889   6.105
 2336TIP3    H2 6950   1.392   7.862   6.071
 2337TIP3   OH2 6951   5.036   5.610   3.754
 2337TIP3    H1 6952   4.942   5.626   3.751
 2337TIP3    H2 6953   5.072   5.685   3.802
 2338TIP3   OH2 6954   6.977   5.730   5.563
 2338TIP3    H1 6955   6.974   5.767   5.475
 2338TIP3    H2 6956   6.953   5.638   5.551
 2339TIP3   OH2 6957   0.344   3.115   2.007
 2339TIP3    H1 6958   0.438   3.115   1.990
 2339TIP3    H2 6959   0.305   3.157   1.930
 2340TIP3   OH2 6960   1.143   1.952   6.242
 2340TIP3    H1 6961   1.127   2.039   6.278
 2340TIP3    H2 6962   1.150   1.965   6.148
 2341TIP3   OH2 6963   5.841   0.410   3.833
 2341TIP3    H1 6964   5.802   0.453   3.757
 2341TIP3    H2 6965   5.818   0.466   3.907
 2342TIP3   OH2 6966   2.370   3.020   4.129
 2342TIP3    H1 6967   2.321   2.944   4.097
 2342TIP3    H2 6968   2.303   3.083   4.154
 2343TIP3   OH2 6969   3.432   7.466   3.420
 2343TIP3    H1 6970   3.429   7.374   3.391
 2343TIP3    H2 6971   3.523   7.480   3.446
 2344TIP3   OH2 6972   4.260   6.032   3.592
 2344TIP3    H1 6973   4.273   5.985   3.509
 2344TIP3    H2 6974   4.197   6.101   3.570
 2345TIP3   OH2 6975   3.929   7.074   5.575
 2345TIP3    H1 6976   3.949   6.981   5.570
 2345TIP3    H2 6977   3.946   7.107   5.486
 2346TIP3   OH2 6978   7.402   3.909   0.381
 2346TIP3    H1 6979   7.448   3.928   0.463
 2346TIP3    H2 6980   7.426   3.819   0.360
 2347TIP3   OH2 6981   7.969   3.322   4.571
 2347TIP3    H1 6982   8.032   3.312   4.500
 2347TIP3    H2 6983   7.943   3.414   4.568
 2348TIP3   OH2 6984   4.498   3.441   5.607
 2348TIP3    H1 6985   4.430   3.423   5.542
 2348TIP3    H2 6986   4.483   3.378   5.677
 2349TIP3   OH2 6987   2.362   3.179   5.998
 2349TIP3    H1 6988   2.360   3.095   5.952
 2349TIP3    H2 6989   2.286   3.177   6.056
 2350TIP3   OH2 6990   8.161   1.731   2.125
 2350TIP3    H1 6991   8.067   1.742   2.111
 2350TIP3    H2 6992   8.194   1.819   2.140
 2351TIP3   OH2 6993   5.603   4.127   0.254
 2351TIP3    H1 6994   5.661   4.059   0.218
 2351TIP3    H2 6995   5.663   4.187   0.299
 2352TIP3   OH2 6996   6.398   5.202   4.588
 2352TIP3    H1 6997   6.313   5.203   4.545
 2352TIP3    H2 6998   6.457   5.245   4.527
 2353TIP3   OH2 6999   8.288   7.865   4.974
 2353TIP3    H1 7000   8.318   7.820   4.895
 2353TIP3    H2 7001   8.195   7.878   4.960
 2354TIP3   OH2 7002   5.977   5.051   6.540
 2354TIP3    H1 7003   6.069   5.028   6.547
 2354TIP3    H2 7004   5.965   5.074   6.448
 2355TIP3   OH2 7005   2.786   0.406   4.527
 2355TIP3    H1 7006   2.818   0.368   4.609
 2355TIP3    H2 7007   2.858   0.396   4.466
 2356TIP3   OH2 7008  -0.007   7.805   2.610
 2356TIP3    H1 7009   0.026   7.812   2.700
 2356TIP3    H2 7010  -0.027   7.895   2.585
 2357TIP3   OH2 7011   0.220   0.201   5.026
 2357TIP3    H1 7012   0.245   0.157   4.945
 2357TIP3    H2 7013   0.260   0.148   5.095
 2358TIP3   OH2 7014   5.085   5.858   3.872
 2358TIP3    H1 7015   5.123   5.876   3.787
 2358TIP3    H2 7016   5.070   5.944   3.911
 2359TIP3   OH2 7017   6.859   3.282   5.416
 2359TIP3    H1 7018   6.868   3.292   5.511
 2359TIP3    H2 7019   6.924   3.216   5.392
 2360TIP3   OH2 7020   1.690   0.791   4.450
 2360TIP3    H1 7021   1.645   0.873   4.470
 2360TIP3    H2 7022   1.623   0.724   4.457
 2361TIP3   OH2 7023   2.783   2.860   2.423
 2361TIP3    H1 7024   2.872   2.869   2.389
 2361TIP3    H2 7025   2.740   2.942   2.401
 2362TIP3   OH2 7026   0.555   6.276   3.640
 2362TIP3    H1 7027   0.557   6.285   3.544
 2362TIP3    H2 7028   0.646   6.261   3.665
 2363TIP3   OH2 7029   6.169   5.798   5.037
 2363TIP3    H1 7030   6.185   5.872   5.095
 2363TIP3    H2 7031   6.254   5.780   4.996
 2364TIP3   OH2 7032   5.917   1.712   1.120
 2364TIP3    H1 7033   5.933   1.737   1.211
 2364TIP3    H2 7034   5.824   1.692   1.116
 2365TIP3   OH2 7035   5.968   7.852   0.583
 2365TIP3    H1 7036   5.973   7.890   0.495
 2365TIP3    H2 7037   5.879   7.818   0.589
 2366TIP3   OH2 7038   3.156   1.899   4.535
 2366TIP3    H1 7039   3.106   1.963   4.586
 2366TIP3    H2 7040   3.139   1.922   4.444
 2367TIP3   OH2 7041   3.117   5.669   1.670
 2367TIP3    H1 7042   3.100   5.603   1.737
 2367TIP3    H2 7043   3.116   5.753   1.717
 2368TIP3   OH2 7044   4.800   7.788   2.900
 2368TIP3    H1 7045   4.868   7.802   2.966
 2368TIP3    H2 7046   4.726   7.753   2.949
 2369TIP3   OH2 7047   8.262   6.233   2.267
 2369TIP3    H1 7048   8.313   6.296   2.319
 2369TIP3    H2 7049   8.172   6.265   2.274
 2370TIP3   OH2 7050   7.060   5.553   2.025
 2370TIP3    H1 7051   6.980   5.565   1.974
 2370TIP3    H2 7052   7.078   5.459   2.022
 2371TIP3   OH2 7053   1.994   2.622   4.977
 2371TIP3    H1 7054   1.976   2.713   5.000
 2371TIP3    H2 7055   2.087   2.609   4.997
 2372TIP3   OH2 7056   5.323   5.928   1.626
 2372TIP3    H1 7057   5.306   5.834   1.637
 2372TIP3    H2 7058   5.399   5.932   1.568
 2373TIP3   OH2 7059   7.397   1.306   6.632
 2373TIP3    H1 7060   7.469   1.274   6.578
 2373TIP3    H2 7061   7.318   1.272   6.590
 2374TIP3   OH2 7062   5.355   7.202   0.418
 2374TIP3    H1 7063   5.311   7.238   0.341
 2374TIP3    H2 7064   5.448   7.221   0.404
 2375TIP3   OH2 7065   5.245   1.674   4.508
 2375TIP3    H1 7066   5.208   1.711   4.589
 2375TIP3    H2 7067   5.335   1.651   4.532
 2376TIP3   OH2 7068   5.788   1.588   5.451
 2376TIP3    H1 7069   5.836   1.661   5.411
 2376TIP3    H2 7070   5.790   1.519   5.385
 2377TIP3   OH2 7071   6.736   3.114   4.263
 2377TIP3    H1 7072   6.816   3.118   4.315
 2377TIP3    H2 7073   6.766   3.094   4.175
 2378TIP3   OH2 7074   4.171   6.329   1.144
 2378TIP3    H1 7075   4.248   6.273   1.136
 2378TIP3    H2 7076   4.097   6.269   1.147
 2379TIP3   OH2 7077   4.969   3.533   5.075
 2379TIP3    H1 7078   5.025   3.595   5.028
 2379TIP3    H2 7079   4.943   3.470   5.008
 2380TIP3   OH2 7080   7.057   6.786   1.163
 2380TIP3    H1 7081   7.150   6.788   1.187
 2380TIP3    H2 7082   7.056   6.748   1.075
 2381TIP3   OH2 7083   6.477   6.732   0.551
 2381TIP3    H1 7084   6.536   6.766   0.619
 2381TIP3    H2 7085   6.391   6.762   0.579
 2382TIP3   OH2 7086   5.426   3.839   1.741
 2382TIP3    H1 7087   5.437   3.804   1.829
 2382TIP3    H2 7088   5.335   3.821   1.718
 2383TIP3   OH2 7089   5.083   6.427   2.438
 2383TIP3    H1 7090   5.040   6.388   2.514
 2383TIP3    H2 7091   5.023   6.495   2.408
 2384TIP3   OH2 7092   7.280   3.300   2.109
 2384TIP3    H1 7093   7.210   3.242   2.078
 2384TIP3    H2 7094   7.354   3.281   2.051
 2385TIP3   OH2 7095   2.455   6.154   6.276
 2385TIP3    H1 7096   2.459   6.090   6.205
 2385TIP3    H2 7097   2.378   6.128   6.327
 2386TIP3   OH2 7098   1.417   6.374   5.111
 2386TIP3    H1 7099   1.445   6.334   5.193
 2386TIP3    H2 7100   1.444   6.465   5.118
 2387TIP3   OH2 7101   4.416   1.888   3.711
 2387TIP3    H1 7102   4.468   1.815   3.676
 2387TIP3    H2 7103   4.380   1.855   3.793
 2388TIP3   OH2 7104   4.306   3.246   1.899
 2388TIP3    H1 7105   4.286   3.153   1.888
 2388TIP3    H2 7106   4.361   3.249   1.977
 2389TIP3   OH2 7107   4.102   7.337   2.436
 2389TIP3    H1 7108   4.073   7.247   2.452
 2389TIP3    H2 7109   4.115   7.374   2.523
 2390TIP3   OH2 7110   2.869   3.636   6.027
 2390TIP3    H1 7111   2.830   3.555   5.994
 2390TIP3    H2 7112   2.813   3.705   5.992
 2391TIP3   OH2 7113   7.789   3.010   3.280
 2391TIP3    H1 7114   7.849   3.013   3.355
 2391TIP3    H2 7115   7.835   3.058   3.211
 2392TIP3   OH2 7116   6.300   1.335   4.457
 2392TIP3    H1 7117   6.392   1.354   4.441
 2392TIP3    H2 7118   6.254   1.415   4.432
 2393TIP3   OH2 7119   6.905   4.268   5.894
 2393TIP3    H1 7120   6.825   4.251   5.945
 2393TIP3    H2 7121   6.904   4.201   5.826
 2394TIP3   OH2 7122   6.533   6.392   4.594
 2394TIP3    H1 7123   6.529   6.315   4.651
 2394TIP3    H2 7124   6.596   6.450   4.636
 2395TIP3   OH2 7125   2.940   4.570   3.121
 2395TIP3    H1 7126   2.929   4.665   3.128
 2395TIP3    H2 7127   2.970   4.542   3.207
 2396TIP3   OH2 7128   3.480   1.354   5.015
 2396TIP3    H1 7129   3.478   1.410   5.092
 2396TIP3    H2 7130   3.516   1.410   4.946
 2397TIP3   OH2 7131   6.459   3.999   5.305
 2397TIP3    H1 7132   6.459   3.999   5.209
 2397TIP3    H2 7133   6.390   4.061   5.329
 2398TIP3   OH2 7134   4.451   0.334   3.909
 2398TIP3    H1 7135   4.455   0.287   3.825
 2398TIP3    H2 7136   4.370   0.384   3.904
 2399TIP3   OH2 7137   7.346   3.788   6.439
 2399TIP3    H1 7138   7.309   3.820   6.357
 2399TIP3    H2 7139   7.381   3.867   6.481
 2400TIP3   OH2 7140   5.912   5.458   3.558
 2400TIP3    H1 7141   6.007   5.468   3.549
 2400TIP3    H2 7142   5.889   5.389   3.496
 2401TIP3   OH2 7143   4.388   5.134   3.205
 2401TIP3    H1 7144   4.482   5.146   3.188
 2401TIP3    H2 7145   4.347   5.214   3.173
 2402TIP3   OH2 7146   2.467   3.917   2.439
 2402TIP3    H1 7147   2.412   3.951   2.510
 2402TIP3    H2 7148   2.556   3.920   2.475
 2403TIP3   OH2 7149   0.261   1.810   3.656
 2403TIP3    H1 7150   0.183   1.863   3.636
 2403TIP3    H2 7151   0.288   1.840   3.743
 2404TIP3   OH2 7152   2.804   7.853   4.078
 2404TIP3    H1 7153   2.807   7.935   4.030
 2404TIP3    H2 7154   2.874   7.800   4.040
 2405TIP3   OH2 7155   2.952   6.162   6.025
 2405TIP3    H1 7156   2.910   6.184   5.941
 2405TIP3    H2 7157   2.974   6.069   6.017
 2406TIP3   OH2 7158   0.053   0.986   1.837
 2406TIP3    H1 7159   0.093   0.917   1.889
 2406TIP3    H2 7160   0.124   1.051   1.827
 2407TIP3   OH2 7161  -0.036   4.914   1.107
 2407TIP3    H1 7162  -0.029   4.977   1.179
 2407TIP3    H2 7163   0.051   4.875   1.102
 2408TIP3   OH2 7164   0.856   5.194   2.499
 2408TIP3    H1 7165   0.945   5.225   2.487
 2408TIP3    H2 7166   0.847   5.180   2.593
 2409TIP3   OH2 7167   4.929   5.130   4.985
 2409TIP3    H1 7168   4.935   5.116   5.080
 2409TIP3    H2 7169   4.858   5.195   4.976
 2410TIP3   OH2 7170   4.209   1.290   3.691
 2410TIP3    H1 7171   4.143   1.334   3.638
 2410TIP3    H2 7172   4.240   1.357   3.751
 2411TIP3   OH2 7173   7.550   7.005   0.955
 2411TIP3    H1 7174   7.631   7.053   0.972
 2411TIP3    H2 7175   7.483   7.051   1.005
 2412TIP3   OH2 7176   3.536   5.018   6.396
 2412TIP3    H1 7177   3.489   4.944   6.357
 2412TIP3    H2 7178   3.500   5.024   6.485
 2413TIP3   OH2 7179   7.128   5.265   4.158
 2413TIP3    H1 7180   7.166   5.275   4.246
 2413TIP3    H2 7181   7.080   5.346   4.143
 2414TIP3   OH2 7182   6.040   6.045   3.503
 2414TIP3    H1 7183   5.966   6.007   3.550
 2414TIP3    H2 7184   6.058   6.128   3.548
 2415TIP3   OH2 7185   5.889   1.715   4.341
 2415TIP3    H1 7186   5.921   1.805   4.350
 2415TIP3    H2 7187   5.833   1.717   4.264
 2416TIP3   OH2 7188   5.539   0.221   0.566
 2416TIP3    H1 7189   5.616   0.204   0.512
 2416TIP3    H2 7190   5.504   0.134   0.586
 2417TIP3   OH2 7191   5.563   7.203   6.441
 2417TIP3    H1 7192   5.502   7.277   6.446
 2417TIP3    H2 7193   5.619   7.222   6.366
 2418TIP3   OH2 7194   6.919   7.493   2.691
 2418TIP3    H1 7195   6.895   7.408   2.656
 2418TIP3    H2 7196   6.968   7.535   2.620
 2419TIP3   OH2 7197   8.354   2.682   5.191
 2419TIP3    H1 7198   8.421   2.699   5.257
 2419TIP3    H2 7199   8.319   2.596   5.214
 2420TIP3   OH2 7200   2.198   5.839   2.896
 2420TIP3    H1 7201   2.280   5.882   2.923
 2420TIP3    H2 7202   2.202   5.752   2.937
 2421TIP3   OH2 7203   3.332   5.128   5.752
 2421TIP3    H1 7204   3.353   5.152   5.662
 2421TIP3    H2 7205   3.278   5.200   5.785
 2422TIP3   OH2 7206   0.336   2.890   2.411
 2422TIP3    H1 7207   0.417   2.848   2.381
 2422TIP3    H2 7208   0.364   2.949   2.481
 2423TIP3   OH2 7209   8.105   0.876   3.479
 2423TIP3    H1 7210   8.074   0.870   3.569
 2423TIP3    H2 7211   8.155   0.957   3.476
 2424TIP3   OH2 7212   7.458   1.803   5.883
 2424TIP3    H1 7213   7.542   1.787   5.839
 2424TIP3    H2 7214   7.472   1.772   5.972
 2425TIP3   OH2 7215   5.695   7.730   0.551
 2425TIP3    H1 7216   5.689   7.744   0.457
 2425TIP3    H2 7217   5.626   7.786   0.588
 2426TIP3   OH2 7218   6.502   1.073   2.392
 2426TIP3    H1 7219   6.479   1.147   2.335
 2426TIP3    H2 7220   6.477   1.102   2.479
 2427TIP3   OH2 7221   1.843   0.959   4.261
 2427TIP3    H1 7222   1.927   0.914   4.274
 2427TIP3    H2 7223   1.782   0.913   4.319
 2428TIP3   OH2 7224   8.248   3.967   1.387
 2428TIP3    H1 7225   8.240   3.918   1.469
 2428TIP3    H2 7226   8.304   3.912   1.331
 2429TIP3   OH2 7227   8.080   1.198   3.191
 2429TIP3    H1 7228   8.162   1.198   3.240
 2429TIP3    H2 7229   8.037   1.280   3.217
 2430TIP3   OH2 7230   1.227   4.644   2.346
 2430TIP3    H1 7231   1.140   4.672   2.375
 2430TIP3    H2 7232   1.213   4.611   2.257
 2431TIP3   OH2 7233   3.668   6.329   5.380
 2431TIP3    H1 7234   3.684   6.283   5.462
 2431TIP3    H2 7235   3.634   6.414   5.408
 2432TIP3   OH2 7236   2.130   3.492   5.566
 2432TIP3    H1 7237   2.144   3.432   5.638
 2432TIP3    H2 7238   2.194   3.562   5.580
 2433TIP3   OH2 7239   0.771   0.758   6.563
 2433TIP3    H1 7240   0.805   0.794   6.645
 2433TIP3    H2 7241   0.829   0.793   6.496
 2434TIP3   OH2 7242   4.658   7.110   4.997
 2434TIP3    H1 7243   4.725   7.098   5.065
 2434TIP3    H2 7244   4.577   7.127   5.045
 2435TIP3   OH2 7245   7.471  -0.003   4.267
 2435TIP3    H1 7246   7.375   0.001   4.269
 2435TIP3    H2 7247   7.499   0.079   4.309
 2436TIP3   OH2 7248   6.782   2.557   1.374
 2436TIP3    H1 7249   6.854   2.619   1.380
 2436TIP3    H2 7250   6.788   2.504   1.454
 2437TIP3   OH2 7251   7.299   3.305   5.882
 2437TIP3    H1 7252   7.284   3.218   5.920
 2437TIP3    H2 7253   7.390   3.325   5.904
 2438TIP3   OH2 7254   3.234   5.604   0.415
 2438TIP3    H1 7255   3.276   5.689   0.429
 2438TIP3    H2 7256   3.193   5.611   0.329
 2439TIP3   OH2 7257   5.508   7.224   1.545
 2439TIP3    H1 7258   5.483   7.292   1.608
 2439TIP3    H2 7259   5.597   7.247   1.519
 2440TIP3   OH2 7260   3.669   6.609   0.335
 2440TIP3    H1 7261   3.617   6.603   0.415
 2440TIP3    H2 7262   3.673   6.703   0.316
 2441TIP3   OH2 7263   2.510   6.153   0.738
 2441TIP3    H1 7264   2.557   6.124   0.661
 2441TIP3    H2 7265   2.560   6.228   0.771
 2442TIP3   OH2 7266   1.650   0.888   2.718
 2442TIP3    H1 7267   1.555   0.892   2.706
 2442TIP3    H2 7268   1.681   0.829   2.649
 2443TIP3   OH2 7269   3.411   0.764   1.021
 2443TIP3    H1 7270   3.363   0.709   1.082
 2443TIP3    H2 7271   3.462   0.703   0.968
 2444TIP3   OH2 7272   5.563   0.276   2.071
 2444TIP3    H1 7273   5.618   0.284   2.149
 2444TIP3    H2 7274   5.581   0.355   2.020
 2445TIP3   OH2 7275   8.152   4.797   6.620
 2445TIP3    H1 7276   8.174   4.721   6.565
 2445TIP3    H2 7277   8.085   4.764   6.680
 2446TIP3   OH2 7278   3.429   3.683   2.944
 2446TIP3    H1 7279   3.368   3.743   2.901
 2446TIP3    H2 7280   3.373   3.624   2.995
 2447TIP3   OH2 7281   5.580   6.381   1.909
 2447TIP3    H1 7282   5.511   6.436   1.872
 2447TIP3    H2 7283   5.575   6.397   2.003
 2448TIP3   OH2 7284   3.396   5.843   0.385
 2448TIP3    H1 7285   3.468   5.820   0.326
 2448TIP3    H2 7286   3.345   5.907   0.336
 2449TIP3   OH2 7287   0.677   3.109   5.152
 2449TIP3    H1 7288   0.589   3.080   5.127
 2449TIP3    H2 7289   0.728   3.102   5.071
 2450TIP3   OH2 7290   6.475   0.463   0.843
 2450TIP3    H1 7291   6.522   0.530   0.794
 2450TIP3    H2 7292   6.433   0.409   0.776
 2451TIP3   OH2 7293   0.255   4.278   2.424
 2451TIP3    H1 7294   0.214   4.360   2.397
 2451TIP3    H2 7295   0.343   4.304   2.452
 2452TIP3   OH2 7296   1.187   1.141   5.545
 2452TIP3    H1 7297   1.235   1.201   5.488
 2452TIP3    H2 7298   1.254   1.100   5.600
 2453TIP3   OH2 7299   0.425   2.854   1.234
 2453TIP3    H1 7300   0.419   2.775   1.288
 2453TIP3    H2 7301   0.380   2.921   1.285
 2454TIP3   OH2 7302   8.178   1.001   5.701
 2454TIP3    H1 7303   8.258   1.052   5.714
 2454TIP3    H2 7304   8.197   0.916   5.741
 2455TIP3   OH2 7305   0.983   3.520   3.350
 2455TIP3    H1 7306   1.021   3.501   3.264
 2455TIP3    H2 7307   1.027   3.600   3.378
 2456TIP3   OH2 7308   6.093   1.155   2.490
 2456TIP3    H1 7309   6.003   1.171   2.518
 2456TIP3    H2 7310   6.147   1.192   2.560
 2457TIP3   OH2 7311   2.094   5.980   3.270
 2457TIP3    H1 7312   2.008   6.008   3.239
 2457TIP3    H2 7313   2.156   6.037   3.224
 2458TIP3   OH2 7314   6.868   6.279   5.732
 2458TIP3    H1 7315   6.941   6.237   5.688
 2458TIP3    H2 7316   6.881   6.260   5.825
 2459TIP3   OH2 7317   2.621   0.888   0.443
 2459TIP3    H1 7318   2.626   0.810   0.387
 2459TIP3    H2 7319   2.529   0.890   0.471
 2460TIP3   OH2 7320   7.997   2.906   5.960
 2460TIP3    H1 7321   7.975   2.981   5.905
 2460TIP3    H2 7322   8.059   2.940   6.025
 2461TIP3   OH2 7323   6.506   2.785   1.908
 2461TIP3    H1 7324   6.565   2.774   1.983
 2461TIP3    H2 7325   6.420   2.758   1.941
 2462TIP3   OH2 7326   6.092   3.882   3.536
 2462TIP3    H1 7327   5.999   3.859   3.529
 2462TIP3    H2 7328   6.111   3.929   3.455
 2463TIP3   OH2 7329   6.459   4.556   1.278
 2463TIP3    H1 7330   6.469   4.634   1.333
 2463TIP3    H2 7331   6.365   4.548   1.264
 2464TIP3   OH2 7332   0.220   6.521   3.825
 2464TIP3    H1 7333   0.289   6.462   3.793
 2464TIP3    H2 7334   0.196   6.574   3.750
 2465TIP3   OH2 7335   7.282   6.102   2.929
 2465TIP3    H1 7336   7.339   6.169   2.891
 2465TIP3    H2 7337   7.229   6.148   2.994
 2466TIP3   OH2 7338   7.121   0.838   5.976
 2466TIP3    H1 7339   7.033   0.817   6.009
 2466TIP3    H2 7340   7.145   0.763   5.921
 2467TIP3   OH2 7341   6.337   6.771   5.362
 2467TIP3    H1 7342   6.355   6.829   5.437
 2467TIP3    H2 7343   6.249   6.796   5.334
 2468TIP3   OH2 7344   2.586   5.153   5.422
 2468TIP3    H1 7345   2.620   5.064   5.427
 2468TIP3    H2 7346   2.570   5.178   5.513
 2469TIP3   OH2 7347   3.698   0.735   4.469
 2469TIP3    H1 7348   3.660   0.696   4.547
 2469TIP3    H2 7349   3.711   0.661   4.409
 2470TIP3   OH2 7350   1.553   2.340   1.694
 2470TIP3    H1 7351   1.567   2.294   1.612
 2470TIP3    H2 7352   1.507   2.420   1.669
 2471TIP3   OH2 7353   3.668   1.064   1.806
 2471TIP3    H1 7354   3.739   1.104   1.855
 2471TIP3    H2 7355   3.711   1.022   1.731
 2472TIP3   OH2 7356   5.291   0.195   4.282
 2472TIP3    H1 7357   5.369   0.249   4.293
 2472TIP3    H2 7358   5.279   0.189   4.187
 2473TIP3   OH2 7359   1.896   7.742   5.739
 2473TIP3    H1 7360   1.917   7.648   5.736
 2473TIP3    H2 7361   1.807   7.745   5.773
 2474TIP3   OH2 7362   1.264   3.720   6.476
 2474TIP3    H1 7363   1.264   3.639   6.425
 2474TIP3    H2 7364   1.353   3.753   6.470
 2475TIP3   OH2 7365   7.660   2.200   5.655
 2475TIP3    H1 7366   7.730   2.262   5.638
 2475TIP3    H2 7367   7.650   2.200   5.750
 2476TIP3   OH2 7368   5.767   3.525   2.728
 2476TIP3    H1 7369   5.813   3.593   2.679
 2476TIP3    H2 7370   5.677   3.528   2.695
 2477TIP3   OH2 7371   2.625   2.621   6.104
 2477TIP3    H1 7372   2.662   2.592   6.021
 2477TIP3    H2 7373   2.628   2.544   6.160
 2478TIP3   OH2 7374   1.633   7.527   0.275
 2478TIP3    H1 7375   1.685   7.484   0.344
 2478TIP3    H2 7376   1.592   7.601   0.319
 2479TIP3   OH2 7377   1.418   3.157   6.590
 2479TIP3    H1 7378   1.343   3.121   6.636
 2479TIP3    H2 7379   1.414   3.117   6.503
 2480TIP3   OH2 7380   6.342   2.800   5.160
 2480TIP3    H1 7381   6.415   2.826   5.103
 2480TIP3    H2 7382   6.275   2.866   5.145
 2481TIP3   OH2 7383   2.776   1.989   0.735
 2481TIP3    H1 7384   2.846   1.960   0.677
 2481TIP3    H2 7385   2.781   1.929   0.810
 2482TIP3   OH2 7386   2.239   5.598   3.041
 2482TIP3    H1 7387   2.312   5.555   2.996
 2482TIP3    H2 7388   2.199   5.527   3.091
 2483TIP3   OH2 7389   3.644   7.263   0.097
 2483TIP3    H1 7390   3.566   7.310   0.066
 2483TIP3    H2 7391   3.717   7.305   0.051
 2484TIP3   OH2 7392   0.079   4.599   2.602
 2484TIP3    H1 7393   0.164   4.574   2.566
 2484TIP3    H2 7394   0.016   4.552   2.548
 2485TIP3   OH2 7395   0.833   7.618   5.007
 2485TIP3    H1 7396   0.855   7.686   5.070
 2485TIP3    H2 7397   0.881   7.642   4.927
 2486TIP3   OH2 7398   6.161   0.175   6.004
 2486TIP3    H1 7399   6.213   0.095   6.008
 2486TIP3    H2 7400   6.126   0.176   5.915
 2487TIP3   OH2 7401   4.748   5.963   4.295
 2487TIP3    H1 7402   4.825   5.973   4.350
 2487TIP3    H2 7403   4.685   5.915   4.350
 2488TIP3   OH2 7404   3.508   2.115   4.328
 2488TIP3    H1 7405   3.600   2.104   4.303
 2488TIP3    H2 7406   3.463   2.040   4.289
 2489TIP3   OH2 7407   0.755   2.843   0.465
 2489TIP3    H1 7408   0.660   2.834   0.458
 2489TIP3    H2 7409   0.789   2.757   0.440
 2490TIP3   OH2 7410   2.068   4.121   1.359
 2490TIP3    H1 7411   2.077   4.026   1.360
 2490TIP3    H2 7412   1.974   4.136   1.351
 2491TIP3   OH2 7413   7.837   0.658   5.536
 2491TIP3    H1 7414   7.896   0.594   5.575
 2491TIP3    H2 7415   7.760   0.657   5.591
 2492TIP3   OH2 7416   0.752   3.684   3.397
 2492TIP3    H1 7417   0.805   3.605   3.397
 2492TIP3    H2 7418   0.694   3.676   3.473
 2493TIP3   OH2 7419   1.630   5.331   6.484
 2493TIP3    H1 7420   1.613   5.240   6.460
 2493TIP3    H2 7421   1.543   5.368   6.499
 2494TIP3   OH2 7422   3.853   5.720   0.736
 2494TIP3    H1 7423   3.829   5.673   0.656
 2494TIP3    H2 7424   3.900   5.798   0.705
 2495TIP3   OH2 7425   3.613   1.335   6.448
 2495TIP3    H1 7426   3.593   1.428   6.438
 2495TIP3    H2 7427   3.624   1.304   6.358
 2496TIP3   OH2 7428   2.091   2.052   0.664
 2496TIP3    H1 7429   2.151   2.007   0.723
 2496TIP3    H2 7430   2.142   2.124   0.627
 2497TIP3   OH2 7431   6.515   5.664   0.937
 2497TIP3    H1 7432   6.433   5.617   0.919
 2497TIP3    H2 7433   6.583   5.602   0.911
 2498TIP3   OH2 7434   8.029   4.123   0.210
 2498TIP3    H1 7435   8.037   4.216   0.232
 2498TIP3    H2 7436   7.969   4.088   0.276
 2499TIP3   OH2 7437   6.889   6.843   0.588
 2499TIP3    H1 7438   6.950   6.917   0.586
 2499TIP3    H2 7439   6.931   6.776   0.536
 2500TIP3   OH2 7440   8.104   1.596   3.130
 2500TIP3    H1 7441   8.170   1.565   3.193
 2500TIP3    H2 7442   8.047   1.521   3.116
 2501TIP3   OH2 7443   6.927   6.366   6.511
 2501TIP3    H1 7444   6.996   6.323   6.460
 2501TIP3    H2 7445   6.931   6.457   6.482
 2502TIP3   OH2 7446   0.892   7.145   5.949
 2502TIP3    H1 7447   0.898   7.096   6.031
 2502TIP3    H2 7448   0.981   7.175   5.932
 2503TIP3   OH2 7449   6.951   1.567   4.344
 2503TIP3    H1 7450   6.886   1.585   4.277
 2503TIP3    H2 7451   6.907   1.508   4.405
 2504TIP3   OH2 7452   2.399   2.472   4.561
 2504TIP3    H1 7453   2.319   2.496   4.608
 2504TIP3    H2 7454   2.405   2.536   4.490
 2505TIP3   OH2 7455   3.931   0.948   5.487
 2505TIP3    H1 7456   3.991   1.020   5.467
 2505TIP3    H2 7457   3.890   0.974   5.569
 2506TIP3   OH2 7458   7.633   6.265   3.410
 2506TIP3    H1 7459   7.680   6.349   3.404
 2506TIP3    H2 7460   7.574   6.275   3.484
 2507TIP3   OH2 7461   0.093   1.122   5.387
 2507TIP3    H1 7462   0.030   1.166   5.331
 2507TIP3    H2 7463   0.159   1.088   5.326
 2508TIP3   OH2 7464   7.664   7.823   0.306
 2508TIP3    H1 7465   7.633   7.839   0.217
 2508TIP3    H2 7466   7.585   7.803   0.356
 2509TIP3   OH2 7467   0.703   5.102   3.334
 2509TIP3    H1 7468   0.666   5.190   3.339
 2509TIP3    H2 7469   0.797   5.116   3.324
 2510TIP3   OH2 7470   4.095   6.033   6.596
 2510TIP3    H1 7471   4.102   5.988   6.512
 2510TIP3    H2 7472   4.011   6.079   6.591
 2511TIP3   OH2 7473   4.192   3.630   0.593
 2511TIP3    H1 7474   4.265   3.662   0.647
 2511TIP3    H2 7475   4.116   3.680   0.624
 2512TIP3   OH2 7476   7.270   0.478   3.088
 2512TIP3    H1 7477   7.220   0.486   3.169
 2512TIP3    H2 7478   7.300   0.567   3.070
 2513TIP3   OH2 7479   3.476   6.543   3.403
 2513TIP3    H1 7480   3.526   6.461   3.407
 2513TIP3    H2 7481   3.510   6.595   3.476
 2514TIP3   OH2 7482   5.051   1.606   6.290
 2514TIP3    H1 7483   4.986   1.673   6.308
 2514TIP3    H2 7484   5.074   1.619   6.198
 2515TIP3   OH2 7485   1.497   1.490   4.042
 2515TIP3    H1 7486   1.460   1.426   3.983
 2515TIP3    H2 7487   1.454   1.572   4.019
 2516TIP3   OH2 7488   7.427   6.416   6.458
 2516TIP3    H1 7489   7.459   6.474   6.388
 2516TIP3    H2 7490   7.433   6.469   6.537
 2517TIP3   OH2 7491   8.225   4.595   5.061
 2517TIP3    H1 7492   8.225   4.661   4.992
 2517TIP3    H2 7493   8.158   4.532   5.033
 2518TIP3   OH2 7494   2.236   7.684   1.913
 2518TIP3    H1 7495   2.144   7.705   1.930
 2518TIP3    H2 7496   2.267   7.644   1.994
 2519TIP3   OH2 7497   4.652   5.544   5.799
 2519TIP3    H1 7498   4.746   5.563   5.804
 2519TIP3    H2 7499   4.637   5.517   5.709
 2520TIP3   OH2 7500   8.196   1.032   4.509
 2520TIP3    H1 7501   8.104   1.011   4.492
 2520TIP3    H2 7502   8.241   0.948   4.505
 2521TIP3   OH2 7503   8.204   4.542   0.425
 2521TIP3    H1 7504   8.226   4.614   0.485
 2521TIP3    H2 7505   8.267   4.473   0.448
 2522TIP3   OH2 7506   3.019   5.051   4.805
 2522TIP3    H1 7507   2.942   5.031   4.859
 2522TIP3    H2 7508   2.989   5.119   4.745
 2523TIP3   OH2 7509   2.533   4.947   4.084
 2523TIP3    H1 7510   2.543   4.993   4.001
 2523TIP3    H2 7511   2.510   4.857   4.060
 2524TIP3   OH2 7512   3.314   3.851   1.028
 2524TIP3    H1 7513   3.339   3.926   0.975
 2524TIP3    H2 7514   3.344   3.775   0.978
 2525TIP3   OH2 7515   5.778   7.775   1.407
 2525TIP3    H1 7516   5.874   7.770   1.410
 2525TIP3    H2 7517   5.760   7.828   1.329
 2526TIP3   OH2 7518   4.339   5.482   3.291
 2526TIP3    H1 7519   4.290   5.440   3.362
 2526TIP3    H2 7520   4.287   5.465   3.213
 2527TIP3   OH2 7521   7.919   0.647   1.494
 2527TIP3    H1 7522   7.957   0.559   1.500
 2527TIP3    H2 7523   7.926   0.681   1.583
 2528TIP3   OH2 7524   3.546   0.774   1.665
 2528TIP3    H1 7525   3.572   0.720   1.591
 2528TIP3    H2 7526   3.561   0.719   1.742
 2529TIP3   OH2 7527   0.609   0.808   4.837
 2529TIP3    H1 7528   0.637   0.825   4.927
 2529TIP3    H2 7529   0.627   0.889   4.790
 2530TIP3   OH2 7530   3.006   4.691   4.280
 2530TIP3    H1 7531   3.087   4.646   4.255
 2530TIP3    H2 7532   3.031   4.783   4.285
 2531TIP3   OH2 7533   5.053   0.020   4.634
 2531TIP3    H1 7534   5.107   0.086   4.678
 2531TIP3    H2 7535   4.965   0.031   4.672
 2532TIP3   OH2 7536   6.493   2.891   0.272
 2532TIP3    H1 7537   6.538   2.854   0.348
 2532TIP3    H2 7538   6.558   2.948   0.231
 2533TIP3   OH2 7539   7.557   7.124   2.393
 2533TIP3    H1 7540   7.523   7.157   2.310
 2533TIP3    H2 7541   7.495   7.057   2.420
 2534TIP3   OH2 7542   5.664   7.046   4.424
 2534TIP3    H1 7543   5.619   7.002   4.496
 2534TIP3    H2 7544   5.752   7.063   4.457
 2535TIP3   OH2 7545   8.302   0.278   4.007
 2535TIP3    H1 7546   8.355   0.323   4.073
 2535TIP3    H2 7547   8.366   0.226   3.958
 2536TIP3   OH2 7548   5.320   6.230   1.621
 2536TIP3    H1 7549   5.318   6.138   1.646
 2536TIP3    H2 7550   5.399   6.239   1.568
 2537TIP3   OH2 7551   5.200   4.611   5.000
 2537TIP3    H1 7552   5.217   4.669   5.074
 2537TIP3    H2 7553   5.108   4.586   5.010
 2538TIP3   OH2 7554   7.449   6.046   2.629
 2538TIP3    H1 7555   7.424   6.130   2.668
 2538TIP3    H2 7556   7.440   6.060   2.535
 2539TIP3   OH2 7557   6.383   3.213   5.076
 2539TIP3    H1 7558   6.469   3.178   5.098
 2539TIP3    H2 7559   6.390   3.307   5.094
 2540TIP3   OH2 7560   1.176   2.044   1.045
 2540TIP3    H1 7561   1.201   1.969   0.991
 2540TIP3    H2 7562   1.168   2.008   1.133
 2541TIP3   OH2 7563   1.433   4.460   1.548
 2541TIP3    H1 7564   1.421   4.413   1.465
 2541TIP3    H2 7565   1.426   4.552   1.525
 2542TIP3   OH2 7566   7.520   6.582   3.559
 2542TIP3    H1 7567   7.518   6.525   3.636
 2542TIP3    H2 7568   7.432   6.619   3.554
 2543TIP3   OH2 7569   3.137   2.787   4.594
 2543TIP3    H1 7570   3.148   2.746   4.508
 2543TIP3    H2 7571   3.113   2.878   4.574
 2544TIP3   OH2 7572   3.694   1.889   5.724
 2544TIP3    H1 7573   3.693   1.973   5.679
 2544TIP3    H2 7574   3.688   1.824   5.655
 2545TIP3   OH2 7575   7.636   1.460   2.422
 2545TIP3    H1 7576   7.609   1.379   2.379
 2545TIP3    H2 7577   7.616   1.445   2.515
 2546TIP3   OH2 7578   4.930   3.674   2.529
 2546TIP3    H1 7579   4.882   3.699   2.451
 2546TIP3    H2 7580   4.869   3.620   2.579
 2547TIP3   OH2 7581   7.175   1.466  -0.006
 2547TIP3    H1 7582   7.183   1.406   0.068
 2547TIP3    H2 7583   7.187   1.553   0.033
 2548TIP3   OH2 7584   2.606   1.929   5.291
 2548TIP3    H1 7585   2.519   1.963   5.310
 2548TIP3    H2 7586   2.638   1.896   5.375
 2549TIP3   OH2 7587   1.145   5.190   6.219
 2549TIP3    H1 7588   1.223   5.240   6.196
 2549TIP3    H2 7589   1.073   5.240   6.179
 2550TIP3   OH2 7590   4.110   2.358   1.907
 2550TIP3    H1 7591   4.108   2.438   1.959
 2550TIP3    H2 7592   4.202   2.330   1.910
 2551TIP3   OH2 7593   3.080   3.501   6.212
 2551TIP3    H1 7594   3.012   3.532   6.152
 2551TIP3    H2 7595   3.120   3.581   6.246
 2552TIP3   OH2 7596   7.217   1.837   5.765
 2552TIP3    H1 7597   7.185   1.749   5.746
 2552TIP3    H2 7598   7.298   1.823   5.814
 2553TIP3   OH2 7599   1.506   7.850   0.778
 2553TIP3    H1 7600   1.488   7.908   0.705
 2553TIP3    H2 7601   1.474   7.764   0.749
 2554TIP3   OH2 7602   7.833   2.540   4.511
 2554TIP3    H1 7603   7.919   2.580   4.525
 2554TIP3    H2 7604   7.826   2.474   4.580
 2555TIP3   OH2 7605   1.478   4.898   3.248
 2555TIP3    H1 7606   1.456   4.990   3.237
 2555TIP3    H2 7607   1.567   4.890   3.213
 2556TIP3   OH2 7608   4.400   0.508   1.070
 2556TIP3    H1 7609   4.439   0.588   1.036
 2556TIP3    H2 7610   4.427   0.440   1.007
 2557TIP3   OH2 7611   5.047   6.192   3.232
 2557TIP3    H1 7612   4.987   6.202   3.158
 2557TIP3    H2 7613   5.026   6.107   3.269
 2558TIP3   OH2 7614   5.327   1.608   1.818
 2558TIP3    H1 7615   5.352   1.568   1.901
 2558TIP3    H2 7616   5.365   1.551   1.751
 2559TIP3   OH2 7617   3.623   5.883   1.370
 2559TIP3    H1 7618   3.668   5.799   1.382
 2559TIP3    H2 7619   3.684   5.948   1.405
 2560TIP3   OH2 7620   1.823   2.360   1.603
 2560TIP3    H1 7621   1.791   2.373   1.692
 2560TIP3    H2 7622   1.902   2.307   1.613
 2561TIP3   OH2 7623   3.674   1.624   3.877
 2561TIP3    H1 7624   3.686   1.718   3.880
 2561TIP3    H2 7625   3.683   1.601   3.784
 2562TIP3   OH2 7626   7.296   3.120   1.669
 2562TIP3    H1 7627   7.266   3.050   1.610
 2562TIP3    H2 7628   7.217   3.173   1.685
 2563TIP3   OH2 7629   2.246   4.670   3.151
 2563TIP3    H1 7630   2.246   4.644   3.243
 2563TIP3    H2 7631   2.303   4.746   3.147
 2564TIP3   OH2 7632   5.086   5.557   1.534
 2564TIP3    H1 7633   5.051   5.488   1.478
 2564TIP3    H2 7634   5.041   5.545   1.618
 2565TIP3   OH2 7635   4.299   2.519   6.283
 2565TIP3    H1 7636   4.316   2.555   6.196
 2565TIP3    H2 7637   4.233   2.451   6.268
 2566TIP3   OH2 7638   3.517   5.678   2.777
 2566TIP3    H1 7639   3.570   5.672   2.856
 2566TIP3    H2 7640   3.480   5.591   2.767
 2567TIP3   OH2 7641   4.404   4.856   5.217
 2567TIP3    H1 7642   4.356   4.903   5.285
 2567TIP3    H2 7643   4.341   4.793   5.182
 2568TIP3   OH2 7644   1.119   4.327   0.085
 2568TIP3    H1 7645   1.094   4.245   0.129
 2568TIP3    H2 7646   1.162   4.299   0.005
 2569TIP3   OH2 7647   3.283   3.690   2.066
 2569TIP3    H1 7648   3.304   3.783   2.076
 2569TIP3    H2 7649   3.358   3.645   2.105
 2570TIP3   OH2 7650   5.039   0.314   2.755
 2570TIP3    H1 7651   4.991   0.393   2.778
 2570TIP3    H2 7652   5.088   0.337   2.677
 2571TIP3   OH2 7653   6.591   0.992   5.080
 2571TIP3    H1 7654   6.543   0.917   5.115
 2571TIP3    H2 7655   6.565   0.997   4.988
 2572TIP3   OH2 7656   6.171   6.217   1.795
 2572TIP3    H1 7657   6.260   6.246   1.811
 2572TIP3    H2 7658   6.122   6.248   1.871
 2573TIP3   OH2 7659   7.411   0.561   0.943
 2573TIP3    H1 7660   7.506   0.561   0.957
 2573TIP3    H2 7661   7.386   0.653   0.946
 2574TIP3   OH2 7662   0.707   5.499   3.196
 2574TIP3    H1 7663   0.786   5.499   3.142
 2574TIP3    H2 7664   0.713   5.419   3.248
 2575TIP3   OH2 7665   4.599   4.068   1.959
 2575TIP3    H1 7666   4.630   4.036   2.044
 2575TIP3    H2 7667   4.646   4.149   1.944
 2576TIP3   OH2 7668   5.817   3.936   5.025
 2576TIP3    H1 7669   5.783   3.942   4.936
 2576TIP3    H2 7670   5.871   4.015   5.035
 2577TIP3   OH2 7671   4.965   7.356   3.509
 2577TIP3    H1 7672   4.946   7.443   3.544
 2577TIP3    H2 7673   4.888   7.304   3.530
 2578TIP3   OH2 7674   8.039   3.384   2.950
 2578TIP3    H1 7675   8.116   3.372   3.005
 2578TIP3    H2 7676   8.043   3.476   2.922
 2579TIP3   OH2 7677   2.357   0.135   3.005
 2579TIP3    H1 7678   2.435   0.182   2.977
 2579TIP3    H2 7679   2.356   0.144   3.100
 2580TIP3   OH2 7680   1.454   0.173   5.119
 2580TIP3    H1 7681   1.391   0.173   5.191
 2580TIP3    H2 7682   1.539   0.156   5.161
 2581TIP3   OH2 7683   6.609   5.780   1.674
 2581TIP3    H1 7684   6.514   5.791   1.674
 2581TIP3    H2 7685   6.635   5.787   1.583
 2582TIP3   OH2 7686   5.833   5.482   1.133
 2582TIP3    H1 7687   5.807   5.391   1.140
 2582TIP3    H2 7688   5.794   5.523   1.211
 2583TIP3   OH2 7689   0.248   1.022   2.199
 2583TIP3    H1 7690   0.216   0.993   2.114
 2583TIP3    H2 7691   0.246   1.118   2.195
 2584TIP3   OH2 7692   1.367   7.616   2.399
 2584TIP3    H1 7693   1.421   7.682   2.443
 2584TIP3    H2 7694   1.420   7.587   2.325
 2585TIP3   OH2 7695   7.812   0.355   5.901
 2585TIP3    H1 7696   7.894   0.335   5.947
 2585TIP3    H2 7697   7.790   0.444   5.931
 2586TIP3   OH2 7698   4.141   4.070   2.953
 2586TIP3    H1 7699   4.229   4.076   2.916
 2586TIP3    H2 7700   4.113   3.980   2.934
 2587TIP3   OH2 7701   0.044   3.978   3.422
 2587TIP3    H1 7702   0.079   3.890   3.408
 2587TIP3    H2 7703   0.039   4.016   3.334
 2588TIP3   OH2 7704   2.641   6.150   1.223
 2588TIP3    H1 7705   2.697   6.096   1.168
 2588TIP3    H2 7706   2.639   6.105   1.307
 2589TIP3   OH2 7707   6.903   5.724   1.502
 2589TIP3    H1 7708   6.825   5.685   1.464
 2589TIP3    H2 7709   6.925   5.668   1.576
 2590TIP3   OH2 7710   5.864   5.725   6.580
 2590TIP3    H1 7711   5.935   5.708   6.517
 2590TIP3    H2 7712   5.827   5.809   6.553
 2591TIP3   OH2 7713   6.969   7.301   0.863
 2591TIP3    H1 7714   7.015   7.307   0.947
 2591TIP3    H2 7715   6.970   7.389   0.828
 2592TIP3   OH2 7716   3.121   6.954   2.132
 2592TIP3    H1 7717   3.049   6.998   2.087
 2592TIP3    H2 7718   3.079   6.910   2.206
 2593TIP3   OH2 7719   3.813   6.580   1.915
 2593TIP3    H1 7720   3.755   6.622   1.852
 2593TIP3    H2 7721   3.753   6.535   1.976
 2594TIP3   OH2 7722   3.648   1.422   1.545
 2594TIP3    H1 7723   3.674   1.502   1.591
 2594TIP3    H2 7724   3.729   1.387   1.510
 2595TIP3   OH2 7725   6.268   5.629   5.291
 2595TIP3    H1 7726   6.284   5.548   5.339
 2595TIP3    H2 7727   6.351   5.678   5.298
 2596TIP3   OH2 7728   1.476   0.390   0.335
 2596TIP3    H1 7729   1.563   0.418   0.363
 2596TIP3    H2 7730   1.417   0.455   0.373
 2597TIP3   OH2 7731   0.318   5.853   3.257
 2597TIP3    H1 7732   0.398   5.800   3.255
 2597TIP3    H2 7733   0.325   5.910   3.180
 2598TIP3   OH2 7734   4.605   1.600   4.010
 2598TIP3    H1 7735   4.517   1.599   4.046
 2598TIP3    H2 7736   4.645   1.680   4.046
 2599TIP3   OH2 7737   1.729   1.673   4.126
 2599TIP3    H1 7738   1.683   1.616   4.064
 2599TIP3    H2 7739   1.786   1.727   4.071
 2600TIP3   OH2 7740   4.767   4.679   0.179
 2600TIP3    H1 7741   4.835   4.654   0.116
 2600TIP3    H2 7742   4.686   4.676   0.128
 2601TIP3   OH2 7743   0.065   6.705   5.942
 2601TIP3    H1 7744  -0.014   6.675   5.897
 2601TIP3    H2 7745   0.036   6.727   6.031
 2602TIP3   OH2 7746   7.085   3.715   6.754
 2602TIP3    H1 7747   7.042   3.693   6.837
 2602TIP3    H2 7748   7.014   3.721   6.691
 2603TIP3   OH2 7749   3.679   0.055   2.525
 2603TIP3    H1 7750   3.656   0.100   2.444
 2603TIP3    H2 7751   3.642   0.109   2.594
 2604TIP3   OH2 7752   0.800   6.605   5.397
 2604TIP3    H1 7753   0.895   6.613   5.408
 2604TIP3    H2 7754   0.790   6.553   5.318
 2605TIP3   OH2 7755   1.431   4.766   5.341
 2605TIP3    H1 7756   1.386   4.681   5.339
 2605TIP3    H2 7757   1.465   4.773   5.430
 2606TIP3   OH2 7758   1.096   5.297   2.480
 2606TIP3    H1 7759   1.136   5.321   2.563
 2606TIP3    H2 7760   1.169   5.295   2.418
 2607TIP3   OH2 7761   2.954   0.251   0.392
 2607TIP3    H1 7762   2.859   0.250   0.382
 2607TIP3    H2 7763   2.969   0.215   0.480
 2608TIP3   OH2 7764   0.107   5.175   1.254
 2608TIP3    H1 7765   0.202   5.177   1.249
 2608TIP3    H2 7766   0.085   5.230   1.329
 2609TIP3   OH2 7767   2.061   7.015   4.786
 2609TIP3    H1 7768   2.061   6.921   4.768
 2609TIP3    H2 7769   2.062   7.021   4.881
 2610TIP3   OH2 7770   4.560   6.089   6.539
 2610TIP3    H1 7771   4.520   6.041   6.467
 2610TIP3    H2 7772   4.516   6.057   6.617
 2611TIP3   OH2 7773   8.257   3.384   6.205
 2611TIP3    H1 7774   8.197   3.458   6.218
 2611TIP3    H2 7775   8.344   3.421   6.218
 2612TIP3   OH2 7776   5.696   0.095   2.775
 2612TIP3    H1 7777   5.612   0.110   2.818
 2612TIP3    H2 7778   5.749   0.050   2.840
 2613TIP3   OH2 7779   5.090   2.848   6.313
 2613TIP3    H1 7780   5.028   2.879   6.379
 2613TIP3    H2 7781   5.115   2.761   6.343
 2614TIP3   OH2 7782   2.114   6.499   2.341
 2614TIP3    H1 7783   2.031   6.480   2.384
 2614TIP3    H2 7784   2.175   6.515   2.413
 2615TIP3   OH2 7785   6.083   6.698   6.429
 2615TIP3    H1 7786   6.092   6.604   6.417
 2615TIP3    H2 7787   6.044   6.708   6.516
 2616TIP3   OH2 7788   3.898   7.570   2.355
 2616TIP3    H1 7789   3.965   7.505   2.376
 2616TIP3    H2 7790   3.947   7.647   2.329
 2617TIP3   OH2 7791   4.344   6.364   6.309
 2617TIP3    H1 7792   4.249   6.352   6.308
 2617TIP3    H2 7793   4.376   6.300   6.245
 2618TIP3   OH2 7794   2.623   4.665   3.066
 2618TIP3    H1 7795   2.582   4.611   3.134
 2618TIP3    H2 7796   2.717   4.661   3.085
 2619TIP3   OH2 7797   6.797   1.639   3.637
 2619TIP3    H1 7798   6.714   1.608   3.674
 2619TIP3    H2 7799   6.788   1.734   3.632
 2620TIP3   OH2 7800   7.217   0.543   6.543
 2620TIP3    H1 7801   7.230   0.586   6.459
 2620TIP3    H2 7802   7.177   0.459   6.521
 2621TIP3   OH2 7803   7.248   5.990   3.768
 2621TIP3    H1 7804   7.285   6.072   3.736
 2621TIP3    H2 7805   7.307   5.922   3.734
 2622TIP3   OH2 7806   3.965   6.940   2.693
 2622TIP3    H1 7807   3.908   6.875   2.651
 2622TIP3    H2 7808   3.974   7.010   2.628
 2623TIP3   OH2 7809   1.397   1.410   3.598
 2623TIP3    H1 7810   1.451   1.346   3.646
 2623TIP3    H2 7811   1.333   1.440   3.662
 2624TIP3   OH2 7812   0.253   6.349   5.390
 2624TIP3    H1 7813   0.173   6.400   5.385
 2624TIP3    H2 7814   0.322   6.413   5.408
 2625TIP3   OH2 7815   6.958   0.501   4.656
 2625TIP3    H1 7816   6.963   0.539   4.743
 2625TIP3    H2 7817   7.004   0.417   4.664
 2626TIP3   OH2 7818   5.106   2.235   2.292
 2626TIP3    H1 7819   5.200   2.253   2.294
 2626TIP3    H2 7820   5.076   2.273   2.209
 2627TIP3   OH2 7821   1.225   2.035   4.029
 2627TIP3    H1 7822   1.189   1.992   4.107
 2627TIP3    H2 7823   1.289   2.097   4.064
 2628TIP3   OH2 7824   2.416   5.153   1.267
 2628TIP3    H1 7825   2.498   5.203   1.260
 2628TIP3    H2 7826   2.348   5.217   1.246
 2629TIP3   OH2 7827   0.685   2.071   2.776
 2629TIP3    H1 7828   0.693   2.166   2.788
 2629TIP3    H2 7829   0.717   2.034   2.858
 2630TIP3   OH2 7830   0.626   3.977   2.618
 2630TIP3    H1 7831   0.708   3.930   2.601
 2630TIP3    H2 7832   0.600   4.011   2.533
 2631TIP3   OH2 7833   6.684   6.237   6.626
 2631TIP3    H1 7834   6.717   6.148   6.612
 2631TIP3    H2 7835   6.754   6.293   6.593
 2632TIP3   OH2 7836   2.992   3.228   1.497
 2632TIP3    H1 7837   3.062   3.254   1.437
 2632TIP3    H2 7838   2.988   3.133   1.490
 2633TIP3   OH2 7839   0.296   7.396   0.921
 2633TIP3    H1 7840   0.260   7.481   0.896
 2633TIP3    H2 7841   0.269   7.337   0.850
 2634TIP3   OH2 7842   5.338   1.264   0.894
 2634TIP3    H1 7843   5.290   1.182   0.884
 2634TIP3    H2 7844   5.275   1.324   0.933
 2635TIP3   OH2 7845   6.911   2.001   6.550
 2635TIP3    H1 7846   6.951   2.046   6.475
 2635TIP3    H2 7847   6.834   2.054   6.571
 2636TIP3   OH2 7848   4.006   0.659   6.349
 2636TIP3    H1 7849   3.953   0.730   6.312
 2636TIP3    H2 7850   3.960   0.633   6.428
 2637TIP3   OH2 7851   0.325   2.146   0.666
 2637TIP3    H1 7852   0.246   2.092   0.666
 2637TIP3    H2 7853   0.368   2.126   0.583
 2638TIP3   OH2 7854   4.771   4.062   1.682
 2638TIP3    H1 7855   4.738   4.151   1.669
 2638TIP3    H2 7856   4.862   4.074   1.706
 2639TIP3   OH2 7857   2.828   6.633   2.986
 2639TIP3    H1 7858   2.884   6.615   2.910
 2639TIP3    H2 7859   2.739   6.627   2.951
 2640TIP3   OH2 7860   2.307   2.399   1.569
 2640TIP3    H1 7861   2.357   2.443   1.637
 2640TIP3    H2 7862   2.250   2.339   1.616
 2641TIP3   OH2 7863   8.075   0.339   4.816
 2641TIP3    H1 7864   8.017   0.406   4.852
 2641TIP3    H2 7865   8.046   0.258   4.859
 2642TIP3   OH2 7866   0.004   0.027   5.663
 2642TIP3    H1 7867  -0.052  -0.020   5.601
 2642TIP3    H2 7868   0.050  -0.042   5.710
 2643TIP3   OH2 7869   7.657   0.824   1.659
 2643TIP3    H1 7870   7.751   0.819   1.676
 2643TIP3    H2 7871   7.643   0.914   1.629
 2644TIP3   OH2 7872   3.710   4.122   0.419
 2644TIP3    H1 7873   3.783   4.149   0.476
 2644TIP3    H2 7874   3.752   4.089   0.340
 2645TIP3   OH2 7875   6.280   7.251   4.611
 2645TIP3    H1 7876   6.187   7.257   4.633
 2645TIP3    H2 7877   6.303   7.159   4.624
 2646TIP3   OH2 7878   4.083   0.852   0.058
 2646TIP3    H1 7879   4.166   0.852   0.105
 2646TIP3    H2 7880   4.102   0.896  -0.025
 2647TIP3   OH2 7881   2.370   3.789   5.865
 2647TIP3    H1 7882   2.457   3.782   5.825
 2647TIP3    H2 7883   2.387   3.815   5.955
 2648TIP3   OH2 7884   7.472   2.895   4.431
 2648TIP3    H1 7885   7.503   2.978   4.466
 2648TIP3    H2 7886   7.492   2.899   4.337
 2649TIP3   OH2 7887   1.508   0.714   6.679
 2649TIP3    H1 7888   1.433   0.694   6.622
 2649TIP3    H2 7889   1.564   0.637   6.671
 2650TIP3   OH2 7890   6.892   6.891   0.911
 2650TIP3    H1 7891   6.944   6.949   0.966
 2650TIP3    H2 7892   6.938   6.807   0.914
 2651TIP3   OH2 7893   1.965   7.169   0.913
 2651TIP3    H1 7894   1.979   7.245   0.969
 2651TIP3    H2 7895   2.052   7.145   0.883
 2652TIP3   OH2 7896   4.267   5.921   4.425
 2652TIP3    H1 7897   4.177   5.899   4.405
 2652TIP3    H2 7898   4.317   5.892   4.349
 2653TIP3   OH2 7899   8.211   7.402   3.677
 2653TIP3    H1 7900   8.149   7.454   3.727
 2653TIP3    H2 7901   8.207   7.315   3.715
 2654TIP3   OH2 7902   1.967   6.047   2.240
 2654TIP3    H1 7903   1.904   6.030   2.170
 2654TIP3    H2 7904   1.928   6.008   2.318
 2655TIP3   OH2 7905   8.259   4.602   2.166
 2655TIP3    H1 7906   8.343   4.640   2.140
 2655TIP3    H2 7907   8.274   4.508   2.163
 2656TIP3   OH2 7908   5.420   4.473   3.868
 2656TIP3    H1 7909   5.432   4.564   3.896
 2656TIP3    H2 7910   5.475   4.465   3.790
 2657TIP3   OH2 7911   0.540   7.385   2.359
 2657TIP3    H1 7912   0.471   7.390   2.425
 2657TIP3    H2 7913   0.499   7.419   2.279
 2658TIP3   OH2 7914   2.184   1.406   1.334
 2658TIP3    H1 7915   2.268   1.438   1.365
 2658TIP3    H2 7916   2.149   1.479   1.282
 2659TIP3   OH2 7917   2.333   7.486   2.131
 2659TIP3    H1 7918   2.304   7.416   2.074
 2659TIP3    H2 7919   2.359   7.442   2.212
 2660TIP3   OH2 7920   7.946   2.987   5.043
 2660TIP3    H1 7921   8.040   2.999   5.036
 2660TIP3    H2 7922   7.929   2.903   5.001
 2661TIP3   OH2 7923   5.926   4.762   3.058
 2661TIP3    H1 7924   5.906   4.703   2.985
 2661TIP3    H2 7925   5.956   4.703   3.128
 2662TIP3   OH2 7926   7.154   4.756   2.247
 2662TIP3    H1 7927   7.112   4.811   2.312
 2662TIP3    H2 7928   7.125   4.667   2.267
 2663TIP3   OH2 7929   4.713   4.570   2.865
 2663TIP3    H1 7930   4.781   4.584   2.931
 2663TIP3    H2 7931   4.734   4.485   2.826
 2664TIP3   OH2 7932   0.595   7.509   0.626
 2664TIP3    H1 7933   0.500   7.499   0.618
 2664TIP3    H2 7934   0.619   7.456   0.703
 2665TIP3   OH2 7935   5.789   6.233   3.190
 2665TIP3    H1 7936   5.750   6.194   3.112
 2665TIP3    H2 7937   5.865   6.177   3.209
 2666TIP3   OH2 7938   7.891   5.819   2.573
 2666TIP3    H1 7939   7.974   5.795   2.613
 2666TIP3    H2 7940   7.847   5.735   2.557
 2667TIP3   OH2 7941   6.758   7.261   5.453
 2667TIP3    H1 7942   6.759   7.340   5.399
 2667TIP3    H2 7943   6.666   7.237   5.459
 2668TIP3   OH2 7944   6.697   3.699   2.213
 2668TIP3    H1 7945   6.708   3.703   2.308
 2668TIP3    H2 7946   6.602   3.707   2.200
 2669TIP3   OH2 7947   6.638   1.883   0.505
 2669TIP3    H1 7948   6.605   1.930   0.581
 2669TIP3    H2 7949   6.685   1.949   0.455
 2670TIP3   OH2 7950   7.881   5.375   3.558
 2670TIP3    H1 7951   7.916   5.450   3.606
 2670TIP3    H2 7952   7.843   5.319   3.625
 2671TIP3   OH2 7953   5.944   4.056   2.128
 2671TIP3    H1 7954   6.017   4.088   2.074
 2671TIP3    H2 7955   5.938   3.963   2.105
 2672TIP3   OH2 7956   6.000   3.146   5.305
 2672TIP3    H1 7957   6.055   3.153   5.227
 2672TIP3    H2 7958   5.917   3.111   5.274
 2673TIP3   OH2 7959   7.830   3.717   1.023
 2673TIP3    H1 7960   7.795   3.744   1.108
 2673TIP3    H2 7961   7.794   3.780   0.961
 2674TIP3   OH2 7962   7.800   0.992   6.511
 2674TIP3    H1 7963   7.826   1.066   6.566
 2674TIP3    H2 7964   7.715   0.965   6.546
 2675TIP3   OH2 7965   8.347   5.196   3.711
 2675TIP3    H1 7966   8.388   5.122   3.756
 2675TIP3    H2 7967   8.268   5.214   3.760
 2676TIP3   OH2 7968   3.658   1.206   0.763
 2676TIP3    H1 7969   3.635   1.287   0.717
 2676TIP3    H2 7970   3.744   1.224   0.800
 2677TIP3   OH2 7971   6.162   7.104   0.304
 2677TIP3    H1 7972   6.089   7.071   0.251
 2677TIP3    H2 7973   6.229   7.128   0.240
 2678TIP3   OH2 7974   2.704   3.440   4.212
 2678TIP3    H1 7975   2.663   3.429   4.126
 2678TIP3    H2 7976   2.788   3.481   4.193
 2679TIP3   OH2 7977   1.463   5.556   2.983
 2679TIP3    H1 7978   1.532   5.500   3.019
 2679TIP3    H2 7979   1.426   5.600   3.059
 2680TIP3   OH2 7980   0.624   2.845   3.786
 2680TIP3    H1 7981   0.534   2.871   3.763
 2680TIP3    H2 7982   0.666   2.927   3.811
 2681TIP3   OH2 7983   2.568   6.225   2.158
 2681TIP3    H1 7984   2.630   6.248   2.089
 2681TIP3    H2 7985   2.497   6.180   2.112
 2682TIP3   OH2 7986   0.088   7.691   1.179
 2682TIP3    H1 7987   0.148   7.755   1.218
 2682TIP3    H2 7988   0.003   7.713   1.216
 2683TIP3   OH2 7989   3.983   4.108   4.122
 2683TIP3    H1 7990   3.915   4.120   4.056
 2683TIP3    H2 7991   4.018   4.020   4.105
 2684TIP3   OH2 7992   3.324   7.497   1.387
 2684TIP3    H1 7993   3.260   7.527   1.321
 2684TIP3    H2 7994   3.317   7.561   1.457
 2685TIP3   OH2 7995   6.234   5.527   2.424
 2685TIP3    H1 7996   6.224   5.610   2.377
 2685TIP3    H2 7997   6.262   5.553   2.512
 2686TIP3   OH2 7998   0.116   6.177   6.410
 2686TIP3    H1 7999   0.083   6.203   6.324
 2686TIP3    H2 8000   0.134   6.260   6.454
 2687TIP3   OH2 8001   7.802   5.042   3.590
 2687TIP3    H1 8002   7.724   5.095   3.603
 2687TIP3    H2 8003   7.770   4.965   3.542
 2688TIP3   OH2 8004   3.813   6.674   0.901
 2688TIP3    H1 8005   3.812   6.677   0.996
 2688TIP3    H2 8006   3.799   6.582   0.879
 2689TIP3   OH2 8007   7.323   5.910   5.079
 2689TIP3    H1 8008   7.321   5.965   5.157
 2689TIP3    H2 8009   7.364   5.964   5.011
 2690TIP3   OH2 8010   6.144   5.145   5.234
 2690TIP3    H1 8011   6.076   5.196   5.190
 2690TIP3    H2 8012   6.138   5.172   5.326
 2691TIP3   OH2 8013   3.443   6.291   5.972
 2691TIP3    H1 8014   3.475   6.269   5.884
 2691TIP3    H2 8015   3.398   6.213   6.002
 2692TIP3   OH2 8016   6.562   2.371   0.657
 2692TIP3    H1 8017   6.498   2.333   0.597
 2692TIP3    H2 8018   6.548   2.465   0.650
 2693TIP3   OH2 8019   3.350  -0.011   6.520
 2693TIP3    H1 8020   3.303  -0.037   6.441
 2693TIP3    H2 8021   3.386   0.076   6.499
 2694TIP3   OH2 8022   2.184   6.353   2.125
 2694TIP3    H1 8023   2.242   6.423   2.093
 2694TIP3    H2 8024   2.162   6.379   2.214
 2695TIP3   OH2 8025   4.458   1.172   4.124
 2695TIP3    H1 8026   4.392   1.109   4.152
 2695TIP3    H2 8027   4.537   1.148   4.173
 2696TIP3   OH2 8028   4.562   1.145   5.203
 2696TIP3    H1 8029   4.499   1.216   5.219
 2696TIP3    H2 8030   4.598   1.164   5.117
 2697TIP3   OH2 8031   4.246   6.316   1.718
 2697TIP3    H1 8032   4.192   6.357   1.786
 2697TIP3    H2 8033   4.230   6.222   1.729
 2698TIP3   OH2 8034   4.198   5.071   0.958
 2698TIP3    H1 8035   4.134   5.047   1.024
 2698TIP3    H2 8036   4.222   5.161   0.980
 2699TIP3   OH2 8037   3.795   3.065   3.092
 2699TIP3    H1 8038   3.781   3.111   3.174
 2699TIP3    H2 8039   3.755   2.979   3.105
 2700TIP3   OH2 8040   7.137   2.299   6.076
 2700TIP3    H1 8041   7.102   2.387   6.088
 2700TIP3    H2 8042   7.195   2.306   6.001
 2701TIP3   OH2 8043   0.332   6.749   4.092
 2701TIP3    H1 8044   0.385   6.669   4.099
 2701TIP3    H2 8045   0.359   6.802   4.166
 2702TIP3   OH2 8046   7.291   7.135   4.154
 2702TIP3    H1 8047   7.376   7.176   4.138
 2702TIP3    H2 8048   7.299   7.097   4.242
 2703TIP3   OH2 8049   1.301   6.559   5.932
 2703TIP3    H1 8050   1.315   6.498   6.004
 2703TIP3    H2 8051   1.386   6.563   5.888
 2704TIP3   OH2 8052   6.609   4.708   2.660
 2704TIP3    H1 8053   6.601   4.801   2.683
 2704TIP3    H2 8054   6.529   4.668   2.693
 2705TIP3   OH2 8055   7.983   7.547   3.791
 2705TIP3    H1 8056   8.007   7.575   3.880
 2705TIP3    H2 8057   7.954   7.457   3.801
 2706TIP3   OH2 8058   4.780   1.587   4.634
 2706TIP3    H1 8059   4.766   1.673   4.673
 2706TIP3    H2 8060   4.735   1.591   4.549
 2707TIP3   OH2 8061   0.699   3.829   6.804
 2707TIP3    H1 8062   0.640   3.890   6.760
 2707TIP3    H2 8063   0.653   3.805   6.884
 2708TIP3   OH2 8064   6.682   2.693   0.739
 2708TIP3    H1 8065   6.766   2.676   0.697
 2708TIP3    H2 8066   6.699   2.682   0.833
 2709TIP3   OH2 8067   5.648   3.488   0.950
 2709TIP3    H1 8068   5.579   3.425   0.929
 2709TIP3    H2 8069   5.619   3.570   0.911
 2710TIP3   OH2 8070   3.486   4.671   6.566
 2710TIP3    H1 8071   3.443   4.588   6.589
 2710TIP3    H2 8072   3.429   4.710   6.500
 2711TIP3   OH2 8073   1.277   0.696   6.097
 2711TIP3    H1 8074   1.211   0.654   6.152
 2711TIP3    H2 8075   1.236   0.778   6.069
 2712TIP3   OH2 8076   5.920   3.255   1.589
 2712TIP3    H1 8077   5.962   3.179   1.629
 2712TIP3    H2 8078   5.954   3.256   1.499
 2713TIP3   OH2 8079   0.238   6.331   4.341
 2713TIP3    H1 8080   0.231   6.423   4.316
 2713TIP3    H2 8081   0.237   6.283   4.258
 2714TIP3   OH2 8082   3.134   1.640   4.465
 2714TIP3    H1 8083   3.197   1.605   4.527
 2714TIP3    H2 8084   3.124   1.732   4.490
 2715TIP3   OH2 8085   3.558   4.770   5.345
 2715TIP3    H1 8086   3.484   4.807   5.392
 2715TIP3    H2 8087   3.520   4.703   5.288
 2716TIP3   OH2 8088   0.375   2.848   1.879
 2716TIP3    H1 8089   0.369   2.911   1.951
 2716TIP3    H2 8090   0.317   2.776   1.904
 2717TIP3   OH2 8091   1.892   3.797   0.793
 2717TIP3    H1 8092   1.884   3.736   0.866
 2717TIP3    H2 8093   1.802   3.810   0.762
 2718TIP3   OH2 8094   0.105   5.505   2.188
 2718TIP3    H1 8095   0.090   5.514   2.094
 2718TIP3    H2 8096   0.031   5.454   2.220
 2719TIP3   OH2 8097   5.298   0.276   0.916
 2719TIP3    H1 8098   5.386   0.307   0.893
 2719TIP3    H2 8099   5.239   0.343   0.881
 2720TIP3   OH2 8100   6.252   3.894   6.704
 2720TIP3    H1 8101   6.289   3.932   6.625
 2720TIP3    H2 8102   6.310   3.922   6.774
 2721TIP3   OH2 8103   1.507   6.809   0.664
 2721TIP3    H1 8104   1.412   6.821   0.661
 2721TIP3    H2 8105   1.519   6.719   0.691
 2722TIP3   OH2 8106   6.022   1.619   0.022
 2722TIP3    H1 8107   5.994   1.547   0.079
 2722TIP3    H2 8108   5.960   1.616  -0.051
 2723TIP3   OH2 8109   5.682   6.080   6.839
 2723TIP3    H1 8110   5.751   6.017   6.819
 2723TIP3    H2 8111   5.614   6.064   6.773
 2724TIP3   OH2 8112   5.541   7.824   5.367
 2724TIP3    H1 8113   5.531   7.817   5.272
 2724TIP3    H2 8114   5.455   7.854   5.397
 2725TIP3   OH2 8115   1.400   0.522   3.369
 2725TIP3    H1 8116   1.373   0.433   3.347
 2725TIP3    H2 8117   1.496   0.520   3.367
 2726TIP3   OH2 8118   2.715   3.334   3.065
 2726TIP3    H1 8119   2.727   3.369   3.153
 2726TIP3    H2 8120   2.786   3.270   3.055
 2727TIP3   OH2 8121   1.783   3.479   3.905
 2727TIP3    H1 8122   1.800   3.446   3.816
 2727TIP3    H2 8123   1.813   3.409   3.963
 2728TIP3   OH2 8124   3.867   5.284   3.868
 2728TIP3    H1 8125   3.787   5.253   3.911
 2728TIP3    H2 8126   3.882   5.371   3.906
 2729TIP3   OH2 8127   2.473   1.510   6.505
 2729TIP3    H1 8128   2.415   1.440   6.476
 2729TIP3    H2 8129   2.560   1.482   6.477
 2730TIP3   OH2 8130   3.869   5.183   0.675
 2730TIP3    H1 8131   3.807   5.123   0.716
 2730TIP3    H2 8132   3.814   5.249   0.633
 2731TIP3   OH2 8133   4.522   6.234   6.857
 2731TIP3    H1 8134   4.557   6.156   6.900
 2731TIP3    H2 8135   4.453   6.201   6.799
 2732TIP3   OH2 8136   4.141   0.631   0.871
 2732TIP3    H1 8137   4.132   0.538   0.849
 2732TIP3    H2 8138   4.136   0.676   0.786
 2733TIP3   OH2 8139   5.198   0.018   5.246
 2733TIP3    H1 8140   5.105   0.029   5.225
 2733TIP3    H2 8141   5.244   0.062   5.175
 2734TIP3   OH2 8142   3.785   3.391   4.676
 2734TIP3    H1 8143   3.729   3.375   4.600
 2734TIP3    H2 8144   3.874   3.377   4.644
 2735TIP3   OH2 8145   6.005   2.647   3.935
 2735TIP3    H1 8146   6.094   2.679   3.951
 2735TIP3    H2 8147   6.000   2.637   3.840
 2736TIP3   OH2 8148   5.842   5.296   3.347
 2736TIP3    H1 8149   5.795   5.302   3.263
 2736TIP3    H2 8150   5.778   5.257   3.407
 2737TIP3   OH2 8151   0.938   5.618   2.089
 2737TIP3    H1 8152   0.922   5.552   2.157
 2737TIP3    H2 8153   0.882   5.692   2.115
 2738TIP3   OH2 8154   7.732   3.179   5.984
 2738TIP3    H1 8155   7.659   3.175   5.922
 2738TIP3    H2 8156   7.810   3.184   5.928
 2739TIP3   OH2 8157   3.813   2.924   2.125
 2739TIP3    H1 8158   3.862   2.906   2.045
 2739TIP3    H2 8159   3.773   2.840   2.148
 2740TIP3   OH2 8160   4.093   5.105   2.482
 2740TIP3    H1 8161   4.024   5.045   2.511
 2740TIP3    H2 8162   4.114   5.156   2.560
 2741TIP3   OH2 8163   5.077   5.171   6.153
 2741TIP3    H1 8164   5.135   5.221   6.095
 2741TIP3    H2 8165   5.010   5.136   6.095
 2742TIP3   OH2 8166   1.287   6.831   4.208
 2742TIP3    H1 8167   1.299   6.870   4.121
 2742TIP3    H2 8168   1.347   6.880   4.264
 2743TIP3   OH2 8169   7.283   7.550   1.840
 2743TIP3    H1 8170   7.235   7.568   1.759
 2743TIP3    H2 8171   7.367   7.514   1.810
 2744TIP3   OH2 8172   6.587   6.171   0.089
 2744TIP3    H1 8173   6.645   6.157   0.164
 2744TIP3    H2 8174   6.582   6.086   0.046
 2745TIP3   OH2 8175   0.587   4.529   6.460
 2745TIP3    H1 8176   0.641   4.592   6.506
 2745TIP3    H2 8177   0.550   4.577   6.385
 2746TIP3   OH2 8178   5.455   5.156   1.905
 2746TIP3    H1 8179   5.401   5.228   1.872
 2746TIP3    H2 8180   5.545   5.181   1.884
 2747TIP3   OH2 8181   6.004   0.262   4.781
 2747TIP3    H1 8182   5.910   0.259   4.801
 2747TIP3    H2 8183   6.031   0.350   4.808
 2748TIP3   OH2 8184   7.087   0.145   6.013
 2748TIP3    H1 8185   7.148   0.079   5.980
 2748TIP3    H2 8186   7.024   0.096   6.066
 2749TIP3   OH2 8187   4.416   1.298   1.577
 2749TIP3    H1 8188   4.456   1.268   1.658
 2749TIP3    H2 8189   4.455   1.243   1.509
 2750TIP3   OH2 8190   1.936   3.163   0.994
 2750TIP3    H1 8191   1.967   3.201   1.076
 2750TIP3    H2 8192   1.847   3.134   1.013
 2751TIP3   OH2 8193   3.860   1.267   3.710
 2751TIP3    H1 8194   3.900   1.183   3.688
 2751TIP3    H2 8195   3.775   1.265   3.664
 2752TIP3   OH2 8196   7.620   4.958   1.831
 2752TIP3    H1 8197   7.565   4.880   1.836
 2752TIP3    H2 8198   7.709   4.924   1.831
 2753TIP3   OH2 8199   4.455   1.197   4.721
 2753TIP3    H1 8200   4.467   1.238   4.635
 2753TIP3    H2 8201   4.543   1.175   4.750
 2754TIP3   OH2 8202   6.934   1.974   3.464
 2754TIP3    H1 8203   6.849   1.941   3.493
 2754TIP3    H2 8204   6.995   1.946   3.532
 2755TIP3   OH2 8205   6.615   2.883   2.233
 2755TIP3    H1 8206   6.605   2.950   2.302
 2755TIP3    H2 8207   6.533   2.834   2.236
 2756TIP3   OH2 8208   6.895   4.854   2.326
 2756TIP3    H1 8209   6.877   4.948   2.333
 2756TIP3    H2 8210   6.922   4.828   2.414
 2757TIP3   OH2 8211   7.355   6.175   0.936
 2757TIP3    H1 8212   7.428   6.113   0.939
 2757TIP3    H2 8213   7.281   6.122   0.903
 2758TIP3   OH2 8214   4.606   4.985   5.050
 2758TIP3    H1 8215   4.541   4.944   5.109
 2758TIP3    H2 8216   4.671   5.022   5.109
 2759TIP3   OH2 8217   2.099   4.192   5.970
 2759TIP3    H1 8218   2.099   4.282   5.939
 2759TIP3    H2 8219   2.017   4.184   6.020
 2760TIP3   OH2 8220   7.780   6.243   1.919
 2760TIP3    H1 8221   7.802   6.326   1.878
 2760TIP3    H2 8222   7.687   6.251   1.941
 2761TIP3   OH2 8223   0.145   2.217   3.127
 2761TIP3    H1 8224   0.179   2.195   3.040
 2761TIP3    H2 8225   0.077   2.282   3.110
 2762TIP3   OH2 8226   0.121   3.063   2.144
 2762TIP3    H1 8227   0.194   3.072   2.082
 2762TIP3    H2 8228   0.094   3.153   2.163
 2763TIP3   OH2 8229   8.258   3.363   3.843
 2763TIP3    H1 8230   8.248   3.444   3.893
 2763TIP3    H2 8231   8.326   3.315   3.889
 2764TIP3   OH2 8232   1.458   5.777   4.524
 2764TIP3    H1 8233   1.542   5.757   4.567
 2764TIP3    H2 8234   1.401   5.803   4.596
 2765TIP3   OH2 8235   4.870   1.804   4.301
 2765TIP3    H1 8236   4.801   1.839   4.357
 2765TIP3    H2 8237   4.914   1.738   4.355
 2766TIP3   OH2 8238   8.294   4.714   2.750
 2766TIP3    H1 8239   8.371   4.687   2.702
 2766TIP3    H2 8240   8.265   4.795   2.707
 2767TIP3   OH2 8241   5.328   1.888   0.251
 2767TIP3    H1 8242   5.405   1.923   0.205
 2767TIP3    H2 8243   5.309   1.806   0.206
 2768TIP3   OH2 8244   5.936   4.298   6.556
 2768TIP3    H1 8245   5.861   4.313   6.498
 2768TIP3    H2 8246   5.999   4.251   6.501
 2769TIP3   OH2 8247   8.232   6.048   0.637
 2769TIP3    H1 8248   8.271   6.008   0.715
 2769TIP3    H2 8249   8.188   5.977   0.592
 2770TIP3   OH2 8250   6.887   7.449   1.872
 2770TIP3    H1 8251   6.927   7.368   1.905
 2770TIP3    H2 8252   6.855   7.494   1.950
 2771TIP3   OH2 8253   2.094   1.730   3.432
 2771TIP3    H1 8254   2.031   1.671   3.390
 2771TIP3    H2 8255   2.176   1.714   3.386
 2772TIP3   OH2 8256   7.116   2.325   4.844
 2772TIP3    H1 8257   7.036   2.375   4.829
 2772TIP3    H2 8258   7.175   2.388   4.886
 2773TIP3   OH2 8259   5.223   7.362   6.065
 2773TIP3    H1 8260   5.313   7.392   6.081
 2773TIP3    H2 8261   5.231   7.266   6.060
 2774TIP3   OH2 8262   3.023   7.196   6.164
 2774TIP3    H1 8263   2.953   7.186   6.229
 2774TIP3    H2 8264   2.995   7.271   6.111
 2775TIP3   OH2 8265   3.103   1.892   2.539
 2775TIP3    H1 8266   3.047   1.873   2.464
 2775TIP3    H2 8267   3.057   1.962   2.586
 2776TIP3   OH2 8268   5.579   7.134   0.720
 2776TIP3    H1 8269   5.603   7.150   0.811
 2776TIP3    H2 8270   5.631   7.197   0.671
 2777TIP3   OH2 8271   1.599   1.940   0.106
 2777TIP3    H1 8272   1.685   1.973   0.080
 2777TIP3    H2 8273   1.581   1.984   0.189
 2778TIP3   OH2 8274   7.090   7.168   2.847
 2778TIP3    H1 8275   7.059   7.104   2.783
 2778TIP3    H2 8276   7.013   7.186   2.902
 2779TIP3   OH2 8277   7.592   5.646   1.363
 2779TIP3    H1 8278   7.559   5.660   1.274
 2779TIP3    H2 8279   7.687   5.639   1.352
 2780TIP3   OH2 8280   3.919   7.323   1.466
 2780TIP3    H1 8281   3.841   7.282   1.428
 2780TIP3    H2 8282   3.989   7.259   1.452
 2781TIP3   OH2 8283   5.495   1.496   0.842
 2781TIP3    H1 8284   5.431   1.565   0.858
 2781TIP3    H2 8285   5.443   1.415   0.836
 2782TIP3   OH2 8286   1.392   0.835   1.448
 2782TIP3    H1 8287   1.394   0.812   1.541
 2782TIP3    H2 8288   1.401   0.930   1.446
 2783TIP3   OH2 8289   4.135   0.434   5.277
 2783TIP3    H1 8290   4.151   0.343   5.301
 2783TIP3    H2 8291   4.049   0.432   5.234
 2784TIP3   OH2 8292   5.274   3.327   0.547
 2784TIP3    H1 8293   5.233   3.241   0.551
 2784TIP3    H2 8294   5.221   3.381   0.606
 2785TIP3   OH2 8295   0.829   5.488   4.583
 2785TIP3    H1 8296   0.875   5.477   4.667
 2785TIP3    H2 8297   0.855   5.576   4.554
 2786TIP3   OH2 8298   1.961   0.566   1.944
 2786TIP3    H1 8299   2.025   0.516   1.892
 2786TIP3    H2 8300   1.885   0.509   1.949
 2787TIP3   OH2 8301   7.919   7.061   2.584
 2787TIP3    H1 8302   8.000   7.019   2.555
 2787TIP3    H2 8303   7.941   7.155   2.587
 2788TIP3   OH2 8304   1.109   0.205   0.820
 2788TIP3    H1 8305   1.085   0.113   0.833
 2788TIP3    H2 8306   1.071   0.228   0.735
 2789TIP3   OH2 8307   1.953   5.501   0.370
 2789TIP3    H1 8308   1.911   5.495   0.284
 2789TIP3    H2 8309   1.909   5.574   0.413
 2790TIP3   OH2 8310   5.614   2.861   3.903
 2790TIP3    H1 8311   5.615   2.943   3.853
 2790TIP3    H2 8312   5.569   2.799   3.846
 2791TIP3   OH2 8313   3.856   3.030   4.719
 2791TIP3    H1 8314   3.837   3.094   4.651
 2791TIP3    H2 8315   3.950   3.013   4.712
 2792TIP3   OH2 8316   7.323   1.491   3.327
 2792TIP3    H1 8317   7.272   1.481   3.246
 2792TIP3    H2 8318   7.310   1.408   3.373
 2793TIP3   OH2 8319   4.453   5.278   6.567
 2793TIP3    H1 8320   4.465   5.342   6.637
 2793TIP3    H2 8321   4.395   5.322   6.504
 2794TIP3   OH2 8322   0.724   1.610   4.561
 2794TIP3    H1 8323   0.654   1.620   4.496
 2794TIP3    H2 8324   0.694   1.659   4.637
 2795TIP3   OH2 8325   2.923   0.836   6.489
 2795TIP3    H1 8326   3.003   0.884   6.512
 2795TIP3    H2 8327   2.893   0.877   6.408
 2796TIP3   OH2 8328   6.402   7.095   6.679
 2796TIP3    H1 8329   6.444   7.041   6.611
 2796TIP3    H2 8330   6.401   7.183   6.642
 2797TIP3   OH2 8331   0.964   4.535   2.903
 2797TIP3    H1 8332   0.885   4.515   2.854
 2797TIP3    H2 8333   0.958   4.479   2.981
 2798TIP3   OH2 8334   3.559   5.422   5.449
 2798TIP3    H1 8335   3.653   5.433   5.437
 2798TIP3    H2 8336   3.540   5.461   5.534
 2799TIP3   OH2 8337   3.327   5.651   3.311
 2799TIP3    H1 8338   3.246   5.694   3.281
 2799TIP3    H2 8339   3.342   5.581   3.247
 2800TIP3   OH2 8340   4.273   1.282   2.844
 2800TIP3    H1 8341   4.218   1.284   2.765
 2800TIP3    H2 8342   4.298   1.374   2.857
 2801TIP3   OH2 8343   0.297   7.834   0.577
 2801TIP3    H1 8344   0.337   7.838   0.663
 2801TIP3    H2 8345   0.348   7.895   0.523
 2802TIP3   OH2 8346   3.647   1.559   0.262
 2802TIP3    H1 8347   3.694   1.568   0.345
 2802TIP3    H2 8348   3.568   1.612   0.273
 2803TIP3   OH2 8349   2.021   4.616   1.177
 2803TIP3    H1 8350   2.005   4.558   1.251
 2803TIP3    H2 8351   2.001   4.563   1.100
 2804TIP3   OH2 8352   7.894   5.500   2.904
 2804TIP3    H1 8353   7.843   5.576   2.930
 2804TIP3    H2 8354   7.957   5.487   2.976
 2805TIP3   OH2 8355   5.811   3.557   3.467
 2805TIP3    H1 8356   5.889   3.571   3.413
 2805TIP3    H2 8357   5.776   3.644   3.484
 2806TIP3   OH2 8358   0.965   4.855   4.502
 2806TIP3    H1 8359   0.979   4.899   4.418
 2806TIP3    H2 8360   1.032   4.787   4.504
 2807TIP3   OH2 8361   3.060   2.700   5.372
 2807TIP3    H1 8362   2.986   2.747   5.333
 2807TIP3    H2 8363   3.030   2.679   5.461
 2808TIP3   OH2 8364   1.837   4.305   4.320
 2808TIP3    H1 8365   1.821   4.268   4.233
 2808TIP3    H2 8366   1.837   4.399   4.306
 2809TIP3   OH2 8367   7.321   5.822   1.315
 2809TIP3    H1 8368   7.330   5.815   1.410
 2809TIP3    H2 8369   7.282   5.739   1.288
 2810TIP3   OH2 8370   6.475   3.204   0.631
 2810TIP3    H1 8371   6.396   3.222   0.581
 2810TIP3    H2 8372   6.513   3.291   0.648
 2811TIP3   OH2 8373   4.882   5.095   5.966
 2811TIP3    H1 8374   4.913   5.038   5.896
 2811TIP3    H2 8375   4.859   5.177   5.922
 2812TIP3   OH2 8376   1.863   6.468   5.660
 2812TIP3    H1 8377   1.829   6.518   5.734
 2812TIP3    H2 8378   1.918   6.529   5.612
 2813TIP3   OH2 8379   1.753   5.497   4.067
 2813TIP3    H1 8380   1.784   5.448   3.991
 2813TIP3    H2 8381   1.817   5.478   4.136
 2814TIP3   OH2 8382   6.714   1.756   2.159
 2814TIP3    H1 8383   6.676   1.675   2.193
 2814TIP3    H2 8384   6.664   1.774   2.079
 2815TIP3   OH2 8385   4.515   1.661   3.155
 2815TIP3    H1 8386   4.523   1.647   3.249
 2815TIP3    H2 8387   4.450   1.597   3.127
 2816TIP3   OH2 8388   5.304   4.192   5.558
 2816TIP3    H1 8389   5.261   4.255   5.616
 2816TIP3    H2 8390   5.320   4.240   5.477
 2817TIP3   OH2 8391  -0.026   0.198   5.176
 2817TIP3    H1 8392   0.054   0.194   5.124
 2817TIP3    H2 8393  -0.056   0.107   5.180
 2818TIP3   OH2 8394   0.629   3.444   6.850
 2818TIP3    H1 8395   0.583   3.458   6.933
 2818TIP3    H2 8396   0.640   3.532   6.813
 2819TIP3   OH2 8397   0.058   2.925   3.719
 2819TIP3    H1 8398   0.120   2.889   3.656
 2819TIP3    H2 8399   0.037   3.011   3.685
 2820TIP3   OH2 8400   6.728   4.314   4.482
 2820TIP3    H1 8401   6.677   4.310   4.563
 2820TIP3    H2 8402   6.677   4.264   4.419
 2821TIP3   OH2 8403   5.504   2.125   1.290
 2821TIP3    H1 8404   5.522   2.208   1.247
 2821TIP3    H2 8405   5.513   2.144   1.384
 2822TIP3   OH2 8406   3.135   1.463   0.374
 2822TIP3    H1 8407   3.142   1.393   0.309
 2822TIP3    H2 8408   3.223   1.471   0.410
 2823TIP3   OH2 8409   3.011   5.434   3.428
 2823TIP3    H1 8410   2.935   5.409   3.480
 2823TIP3    H2 8411   3.054   5.502   3.479
 2824TIP3   OH2 8412   0.809   3.775   1.541
 2824TIP3    H1 8413   0.858   3.737   1.615
 2824TIP3    H2 8414   0.862   3.850   1.514
 2825TIP3   OH2 8415   0.583   7.210   0.062
 2825TIP3    H1 8416   0.522   7.268   0.108
 2825TIP3    H2 8417   0.641   7.178   0.130
 2826TIP3   OH2 8418   1.435   6.020   5.729
 2826TIP3    H1 8419   1.478   5.981   5.805
 2826TIP3    H2 8420   1.499   6.012   5.659
 2827TIP3   OH2 8421   4.108   0.997   2.597
 2827TIP3    H1 8422   4.187   0.984   2.546
 2827TIP3    H2 8423   4.089   1.090   2.591
 2828TIP3   OH2 8424   4.683   3.346   2.007
 2828TIP3    H1 8425   4.684   3.441   1.998
 2828TIP3    H2 8426   4.597   3.326   2.045
 2829TIP3   OH2 8427   2.536   1.391   1.030
 2829TIP3    H1 8428   2.479   1.331   0.981
 2829TIP3    H2 8429   2.561   1.457   0.965
 2830TIP3   OH2 8430   2.094   4.754   5.954
 2830TIP3    H1 8431   2.148   4.709   6.019
 2830TIP3    H2 8432   2.022   4.791   6.004
 2831TIP3   OH2 8433   6.916   7.106   3.696
 2831TIP3    H1 8434   6.900   7.167   3.768
 2831TIP3    H2 8435   6.858   7.032   3.714
 2832TIP3   OH2 8436   0.616   6.989   2.343
 2832TIP3    H1 8437   0.606   6.931   2.267
 2832TIP3    H2 8438   0.677   7.056   2.313
 2833TIP3   OH2 8439   7.069   6.277   2.513
 2833TIP3    H1 8440   7.101   6.314   2.431
 2833TIP3    H2 8441   7.064   6.183   2.497
 2834TIP3   OH2 8442   3.510   4.154   2.105
 2834TIP3    H1 8443   3.581   4.120   2.159
 2834TIP3    H2 8444   3.479   4.231   2.153
 2835TIP3   OH2 8445   1.321   1.159   5.283
 2835TIP3    H1 8446   1.231   1.166   5.315
 2835TIP3    H2 8447   1.330   1.067   5.257
 2836TIP3   OH2 8448   4.708   0.489   6.800
 2836TIP3    H1 8449   4.720   0.496   6.705
 2836TIP3    H2 8450   4.719   0.579   6.832
 2837TIP3   OH2 8451   5.540   4.265   1.932
 2837TIP3    H1 8452   5.619   4.216   1.953
 2837TIP3    H2 8453   5.513   4.303   2.016
 2838TIP3   OH2 8454   3.132   0.289   1.420
 2838TIP3    H1 8455   3.136   0.385   1.417
 2838TIP3    H2 8456   3.217   0.261   1.386
 2839TIP3   OH2 8457   0.353   4.101   4.760
 2839TIP3    H1 8458   0.273   4.091   4.708
 2839TIP3    H2 8459   0.339   4.182   4.809
 2840TIP3   OH2 8460   0.170   6.021   2.677
 2840TIP3    H1 8461   0.117   5.941   2.672
 2840TIP3    H2 8462   0.125   6.082   2.618
 2841TIP3   OH2 8463   0.734   1.575   1.563
 2841TIP3    H1 8464   0.641   1.590   1.546
 2841TIP3    H2 8465   0.779   1.630   1.498
 2842TIP3   OH2 8466   5.821   6.734   3.548
 2842TIP3    H1 8467   5.857   6.718   3.460
 2842TIP3    H2 8468   5.742   6.680   3.552
 2843TIP3   OH2 8469   2.873   3.489   1.330
 2843TIP3    H1 8470   2.963   3.459   1.346
 2843TIP3    H2 8471   2.879   3.540   1.249
 2844TIP3   OH2 8472   6.340   1.449   2.480
 2844TIP3    H1 8473   6.400   1.425   2.550
 2844TIP3    H2 8474   6.288   1.521   2.517
 2845TIP3   OH2 8475   6.741   7.363   4.792
 2845TIP3    H1 8476   6.690   7.443   4.800
 2845TIP3    H2 8477   6.727   7.317   4.875
 2846TIP3   OH2 8478   4.148   5.271   2.704
 2846TIP3    H1 8479   4.242   5.255   2.712
 2846TIP3    H2 8480   4.129   5.336   2.772
 2847TIP3   OH2 8481   6.474   6.433   2.421
 2847TIP3    H1 8482   6.530   6.438   2.499
 2847TIP3    H2 8483   6.389   6.405   2.455
 2848TIP3   OH2 8484   3.868   4.769   5.878
 2848TIP3    H1 8485   3.887   4.861   5.900
 2848TIP3    H2 8486   3.776   4.770   5.851
 2849TIP3   OH2 8487   4.098   3.072   2.411
 2849TIP3    H1 8488   4.108   3.066   2.316
 2849TIP3    H2 8489   4.011   3.035   2.428
 2850TIP3   OH2 8490   6.318   6.042   2.326
 2850TIP3    H1 8491   6.244   6.040   2.387
 2850TIP3    H2 8492   6.393   6.019   2.380
 2851TIP3   OH2 8493   0.137   7.396   1.141
 2851TIP3    H1 8494   0.208   7.403   1.077
 2851TIP3    H2 8495   0.103   7.486   1.148
 2852TIP3   OH2 8496   6.678   2.438   1.888
 2852TIP3    H1 8497   6.729   2.441   1.969
 2852TIP3    H2 8498   6.597   2.484   1.908
 2853TIP3   OH2 8499   5.272   2.247   5.432
 2853TIP3    H1 8500   5.340   2.315   5.435
 2853TIP3    H2 8501   5.321   2.166   5.423
 2854TIP3   OH2 8502   4.534   2.548   5.824
 2854TIP3    H1 8503   4.441   2.538   5.802
 2854TIP3    H2 8504   4.554   2.639   5.800
 2855TIP3   OH2 8505   0.748   6.458   5.167
 2855TIP3    H1 8506   0.659   6.488   5.187
 2855TIP3    H2 8507   0.782   6.522   5.105
 2856TIP3   OH2 8508   4.323   3.350   0.780
 2856TIP3    H1 8509   4.341   3.272   0.833
 2856TIP3    H2 8510   4.246   3.389   0.821
 2857TIP3   OH2 8511   5.582   3.099   2.792
 2857TIP3    H1 8512   5.617   3.010   2.799
 2857TIP3    H2 8513   5.652   3.155   2.827
 2858TIP3   OH2 8514   0.011   2.948   2.701
 2858TIP3    H1 8515  -0.081   2.958   2.728
 2858TIP3    H2 8516   0.010   2.962   2.607
 2859TIP3   OH2 8517   7.533   5.928   0.937
 2859TIP3    H1 8518   7.484   5.853   0.903
 2859TIP3    H2 8519   7.583   5.894   1.010
 2860TIP3   OH2 8520   1.501   0.238   2.207
 2860TIP3    H1 8521   1.414   0.203   2.185
 2860TIP3    H2 8522   1.562   0.170   2.180
 2861TIP3   OH2 8523   5.682   3.538   1.340
 2861TIP3    H1 8524   5.680   3.445   1.363
 2861TIP3    H2 8525   5.591   3.566   1.346
 2862TIP3   OH2 8526   7.734   4.710   2.323
 2862TIP3    H1 8527   7.795   4.748   2.387
 2862TIP3    H2 8528   7.779   4.633   2.289
 2863TIP3   OH2 8529   5.613   4.711   2.837
 2863TIP3    H1 8530   5.704   4.683   2.847
 2863TIP3    H2 8531   5.616   4.807   2.845
 2864TIP3   OH2 8532   2.871   6.608   2.701
 2864TIP3    H1 8533   2.789   6.581   2.741
 2864TIP3    H2 8534   2.846   6.663   2.627
 2865TIP3   OH2 8535   4.813   2.174   5.261
 2865TIP3    H1 8536   4.826   2.080   5.262
 2865TIP3    H2 8537   4.872   2.207   5.329
 2866TIP3   OH2 8538   7.232   3.929   3.646
 2866TIP3    H1 8539   7.243   3.922   3.551
 2866TIP3    H2 8540   7.138   3.915   3.660
 2867TIP3   OH2 8541   0.489   6.770   3.481
 2867TIP3    H1 8542   0.505   6.690   3.530
 2867TIP3    H2 8543   0.396   6.765   3.457
 2868TIP3   OH2 8544   0.284   7.579   4.707
 2868TIP3    H1 8545   0.251   7.493   4.734
 2868TIP3    H2 8546   0.242   7.594   4.622
 2869TIP3   OH2 8547   0.657   7.914   2.885
 2869TIP3    H1 8548   0.704   7.987   2.843
 2869TIP3    H2 8549   0.725   7.847   2.899
 2870TIP3   OH2 8550   7.302   5.861   5.405
 2870TIP3    H1 8551   7.322   5.898   5.491
 2870TIP3    H2 8552   7.272   5.936   5.354
 2871TIP3   OH2 8553   6.155   4.626   2.211
 2871TIP3    H1 8554   6.212   4.693   2.175
 2871TIP3    H2 8555   6.164   4.635   2.306
 2872TIP3   OH2 8556   3.356   4.987   0.502
 2872TIP3    H1 8557   3.388   4.905   0.463
 2872TIP3    H2 8558   3.314   5.033   0.429
 2873TIP3   OH2 8559   6.632   5.429   3.936
 2873TIP3    H1 8560   6.557   5.489   3.925
 2873TIP3    H2 8561   6.625   5.399   4.027
 2874TIP3   OH2 8562   6.225   2.856   3.275
 2874TIP3    H1 8563   6.188   2.938   3.241
 2874TIP3    H2 8564   6.182   2.843   3.359
 2875TIP3   OH2 8565   3.541   2.115   2.100
 2875TIP3    H1 8566   3.532   2.182   2.032
 2875TIP3    H2 8567   3.504   2.155   2.178
 2876TIP3   OH2 8568   2.515   1.143   3.295
 2876TIP3    H1 8569   2.575   1.103   3.359
 2876TIP3    H2 8570   2.493   1.227   3.333
 2877TIP3   OH2 8571   8.351   4.840   1.542
 2877TIP3    H1 8572   8.266   4.885   1.548
 2877TIP3    H2 8573   8.346   4.790   1.461
 2878TIP3   OH2 8574   2.807   4.481   5.627
 2878TIP3    H1 8575   2.712   4.492   5.630
 2878TIP3    H2 8576   2.841   4.569   5.612
 2879TIP3   OH2 8577   0.891   7.831   1.359
 2879TIP3    H1 8578   0.920   7.820   1.268
 2879TIP3    H2 8579   0.935   7.910   1.389
 2880TIP3   OH2 8580   6.505   0.632   2.835
 2880TIP3    H1 8581   6.550   0.709   2.869
 2880TIP3    H2 8582   6.437   0.613   2.900
 2881TIP3   OH2 8583   4.890   1.734   3.200
 2881TIP3    H1 8584   4.812   1.787   3.183
 2881TIP3    H2 8585   4.963   1.788   3.168
 2882TIP3   OH2 8586   4.052   2.169   3.450
 2882TIP3    H1 8587   4.069   2.114   3.373
 2882TIP3    H2 8588   3.974   2.220   3.427
 2883TIP3   OH2 8589   5.592   3.712   3.870
 2883TIP3    H1 8590   5.583   3.618   3.859
 2883TIP3    H2 8591   5.503   3.744   3.882
 2884TIP3   OH2 8592   6.327   5.494   5.057
 2884TIP3    H1 8593   6.366   5.572   5.019
 2884TIP3    H2 8594   6.283   5.524   5.137
 2885TIP3   OH2 8595   7.720   3.889   3.766
 2885TIP3    H1 8596   7.695   3.964   3.713
 2885TIP3    H2 8597   7.642   3.869   3.819
 2886TIP3   OH2 8598   5.005   4.193   6.575
 2886TIP3    H1 8599   5.011   4.157   6.663
 2886TIP3    H2 8600   4.983   4.285   6.588
 2887TIP3   OH2 8601   3.227   2.440   3.543
 2887TIP3    H1 8602   3.171   2.363   3.555
 2887TIP3    H2 8603   3.170   2.504   3.498
 2888TIP3   OH2 8604   5.676   0.099   3.671
 2888TIP3    H1 8605   5.689   0.183   3.625
 2888TIP3    H2 8606   5.743   0.042   3.635
 2889TIP3   OH2 8607   7.769   4.659   1.443
 2889TIP3    H1 8608   7.825   4.692   1.514
 2889TIP3    H2 8609   7.705   4.604   1.487
 2890TIP3   OH2 8610   2.636   3.777   3.684
 2890TIP3    H1 8611   2.668   3.857   3.727
 2890TIP3    H2 8612   2.574   3.809   3.618
 2891TIP3   OH2 8613   6.717   6.083   3.777
 2891TIP3    H1 8614   6.758   6.160   3.739
 2891TIP3    H2 8615   6.787   6.038   3.823
 2892TIP3   OH2 8616   7.720   4.291   5.486
 2892TIP3    H1 8617   7.756   4.205   5.465
 2892TIP3    H2 8618   7.657   4.273   5.557
 2893TIP3   OH2 8619   2.051   6.241   2.542
 2893TIP3    H1 8620   2.013   6.163   2.582
 2893TIP3    H2 8621   2.142   6.218   2.526
 2894TIP3   OH2 8622   4.722   6.864   2.094
 2894TIP3    H1 8623   4.730   6.783   2.144
 2894TIP3    H2 8624   4.798   6.863   2.035
 2895TIP3   OH2 8625   6.190   3.089   5.498
 2895TIP3    H1 8626   6.132   3.076   5.423
 2895TIP3    H2 8627   6.237   3.170   5.479
 2896TIP3   OH2 8628   0.684   0.340   3.087
 2896TIP3    H1 8629   0.685   0.409   3.020
 2896TIP3    H2 8630   0.596   0.302   3.081
 2897TIP3   OH2 8631   4.118   0.616   2.436
 2897TIP3    H1 8632   4.126   0.697   2.385
 2897TIP3    H2 8633   4.030   0.585   2.417
 2898TIP3   OH2 8634   0.510   5.594   2.092
 2898TIP3    H1 8635   0.461   5.539   2.153
 2898TIP3    H2 8636   0.540   5.534   2.023
 2899TIP3   OH2 8637   4.168   0.449   4.327
 2899TIP3    H1 8638   4.164   0.372   4.270
 2899TIP3    H2 8639   4.221   0.420   4.401
 2900TIP3   OH2 8640   1.027   6.092   0.769
 2900TIP3    H1 8641   0.949   6.056   0.812
 2900TIP3    H2 8642   1.100   6.044   0.809
 2901TIP3   OH2 8643   7.927   6.039   1.405
 2901TIP3    H1 8644   7.896   6.048   1.315
 2901TIP3    H2 8645   7.863   5.981   1.446
 2902TIP3   OH2 8646   5.454   6.105   6.641
 2902TIP3    H1 8647   5.413   6.155   6.570
 2902TIP3    H2 8648   5.394   6.116   6.715
 2903TIP3   OH2 8649   2.577   5.065   0.106
 2903TIP3    H1 8650   2.547   5.010   0.178
 2903TIP3    H2 8651   2.545   5.021   0.027
 2904TIP3   OH2 8652   2.690   7.741   2.596
 2904TIP3    H1 8653   2.731   7.797   2.662
 2904TIP3    H2 8654   2.748   7.749   2.520
 2905TIP3   OH2 8655   4.546   7.614   2.396
 2905TIP3    H1 8656   4.551   7.659   2.311
 2905TIP3    H2 8657   4.537   7.522   2.374
 2906TIP3   OH2 8658   5.297   2.354   6.839
 2906TIP3    H1 8659   5.318   2.275   6.789
 2906TIP3    H2 8660   5.320   2.426   6.780
 2907TIP3   OH2 8661   1.437   0.825   3.289
 2907TIP3    H1 8662   1.512   0.827   3.230
 2907TIP3    H2 8663   1.393   0.742   3.269
 2908TIP3   OH2 8664   7.034   1.600   2.329
 2908TIP3    H1 8665   7.101   1.611   2.396
 2908TIP3    H2 8666   6.997   1.513   2.345
 2909TIP3   OH2 8667   7.977   7.094   5.260
 2909TIP3    H1 8668   7.970   7.146   5.180
 2909TIP3    H2 8669   7.918   7.137   5.321
 2910TIP3   OH2 8670   0.545   1.724   1.884
 2910TIP3    H1 8671   0.491   1.688   1.955
 2910TIP3    H2 8672   0.494   1.707   1.805
 2911TIP3   OH2 8673   2.363   2.008   1.512
 2911TIP3    H1 8674   2.409   1.955   1.447
 2911TIP3    H2 8675   2.288   2.043   1.464
 2912TIP3   OH2 8676   1.695   4.502   1.281
 2912TIP3    H1 8677   1.783   4.537   1.273
 2912TIP3    H2 8678   1.695   4.455   1.364
 2913TIP3   OH2 8679   4.682   1.295   6.629
 2913TIP3    H1 8680   4.629   1.327   6.701
 2913TIP3    H2 8681   4.771   1.323   6.650
 2914TIP3   OH2 8682   0.390   1.618   2.654
 2914TIP3    H1 8683   0.336   1.642   2.729
 2914TIP3    H2 8684   0.450   1.692   2.644
 2915TIP3   OH2 8685   2.819   1.647   5.897
 2915TIP3    H1 8686   2.791   1.697   5.974
 2915TIP3    H2 8687   2.739   1.603   5.867
 2916TIP3   OH2 8688   0.401   6.581   4.370
 2916TIP3    H1 8689   0.436   6.559   4.284
 2916TIP3    H2 8690   0.477   6.612   4.420
 2917TIP3   OH2 8691   7.052   3.279   5.009
 2917TIP3    H1 8692   7.029   3.279   4.916
 2917TIP3    H2 8693   7.033   3.369   5.038
 2918TIP3   OH2 8694   4.521   3.875   6.437
 2918TIP3    H1 8695   4.511   3.866   6.342
 2918TIP3    H2 8696   4.595   3.934   6.448
 2919TIP3   OH2 8697   4.176   4.929   1.265
 2919TIP3    H1 8698   4.218   5.014   1.248
 2919TIP3    H2 8699   4.090   4.952   1.302
 2920TIP3   OH2 8700   4.354   3.561   0.392
 2920TIP3    H1 8701   4.299   3.555   0.470
 2920TIP3    H2 8702   4.427   3.617   0.417
 2921TIP3   OH2 8703   1.672   6.535   2.031
 2921TIP3    H1 8704   1.681   6.475   1.956
 2921TIP3    H2 8705   1.763   6.553   2.057
 2922TIP3   OH2 8706   4.258   4.490   0.422
 2922TIP3    H1 8707   4.324   4.547   0.384
 2922TIP3    H2 8708   4.283   4.482   0.514
 2923TIP3   OH2 8709   7.668   1.692   4.056
 2923TIP3    H1 8710   7.669   1.655   4.145
 2923TIP3    H2 8711   7.609   1.634   4.007
 2924TIP3   OH2 8712   5.171   4.768   3.190
 2924TIP3    H1 8713   5.259   4.759   3.153
 2924TIP3    H2 8714   5.130   4.683   3.173
 2925TIP3   OH2 8715   7.973   5.440   5.863
 2925TIP3    H1 8716   7.927   5.523   5.872
 2925TIP3    H2 8717   7.939   5.386   5.934
 2926TIP3   OH2 8718   1.234   0.380   1.201
 2926TIP3    H1 8719   1.210   0.326   1.126
 2926TIP3    H2 8720   1.233   0.469   1.168
 2927TIP3   OH2 8721   5.213   5.359   3.215
 2927TIP3    H1 8722   5.247   5.362   3.126
 2927TIP3    H2 8723   5.286   5.324   3.267
 2928TIP3   OH2 8724   3.412   0.537   3.695
 2928TIP3    H1 8725   3.413   0.443   3.675
 2928TIP3    H2 8726   3.459   0.545   3.778
 2929TIP3   OH2 8727   2.303   3.043   6.379
 2929TIP3    H1 8728   2.247   3.075   6.449
 2929TIP3    H2 8729   2.249   2.981   6.331
 2930TIP3   OH2 8730   4.560   4.007   2.416
 2930TIP3    H1 8731   4.490   3.983   2.356
 2930TIP3    H2 8732   4.624   4.052   2.362
 2931TIP3   OH2 8733   5.578   1.090   4.759
 2931TIP3    H1 8734   5.670   1.086   4.786
 2931TIP3    H2 8735   5.581   1.076   4.664
 2932TIP3   OH2 8736   4.314   4.276   0.904
 2932TIP3    H1 8737   4.340   4.186   0.884
 2932TIP3    H2 8738   4.382   4.307   0.965
 2933TIP3   OH2 8739   1.482   1.365   6.321
 2933TIP3    H1 8740   1.463   1.407   6.238
 2933TIP3    H2 8741   1.494   1.437   6.383
 2934TIP3   OH2 8742   2.605   6.417   4.913
 2934TIP3    H1 8743   2.546   6.342   4.901
 2934TIP3    H2 8744   2.558   6.475   4.972
 2935TIP3   OH2 8745   4.768   6.547   0.878
 2935TIP3    H1 8746   4.684   6.504   0.860
 2935TIP3    H2 8747   4.811   6.489   0.940
 2936TIP3   OH2 8748   7.155   6.292   0.733
 2936TIP3    H1 8749   7.072   6.324   0.699
 2936TIP3    H2 8750   7.134   6.207   0.771
 2937TIP3   OH2 8751   3.190   7.805   3.818
 2937TIP3    H1 8752   3.247   7.881   3.814
 2937TIP3    H2 8753   3.185   7.783   3.911
 2938TIP3   OH2 8754   7.502   3.580   5.296
 2938TIP3    H1 8755   7.488   3.668   5.262
 2938TIP3    H2 8756   7.415   3.540   5.297
 2939TIP3   OH2 8757   3.803   6.442   2.963
 2939TIP3    H1 8758   3.874   6.505   2.954
 2939TIP3    H2 8759   3.724   6.495   2.962
 2940TIP3   OH2 8760   0.814   6.760   2.395
 2940TIP3    H1 8761   0.761   6.711   2.458
 2940TIP3    H2 8762   0.900   6.767   2.438
 2941TIP3   OH2 8763   8.310   6.119   6.748
 2941TIP3    H1 8764   8.251   6.161   6.810
 2941TIP3    H2 8765   8.397   6.152   6.772
 2942TIP3   OH2 8766   0.789   1.729   2.442
 2942TIP3    H1 8767   0.779   1.645   2.487
 2942TIP3    H2 8768   0.882   1.734   2.420
 2943TIP3   OH2 8769   8.178   3.742   0.159
 2943TIP3    H1 8770   8.250   3.800   0.134
 2943TIP3    H2 8771   8.186   3.732   0.254
 2944TIP3   OH2 8772   6.568   5.716   5.470
 2944TIP3    H1 8773   6.650   5.765   5.466
 2944TIP3    H2 8774   6.504   5.774   5.429
 2945TIP3   OH2 8775   2.658   4.952   3.412
 2945TIP3    H1 8776   2.628   5.039   3.440
 2945TIP3    H2 8777   2.697   4.914   3.491
 2946TIP3   OH2 8778   3.618   5.661   3.618
 2946TIP3    H1 8779   3.643   5.570   3.635
 2946TIP3    H2 8780   3.522   5.660   3.617
 2947TIP3   OH2 8781   8.268   1.075   0.332
 2947TIP3    H1 8782   8.293   1.033   0.414
 2947TIP3    H2 8783   8.259   1.168   0.354
 2948TIP3   OH2 8784   0.416   0.254   3.075
 2948TIP3    H1 8785   0.393   0.161   3.074
 2948TIP3    H2 8786   0.355   0.293   3.138
 2949TIP3   OH2 8787   5.938   2.046   4.097
 2949TIP3    H1 8788   5.865   2.107   4.087
 2949TIP3    H2 8789   5.928   2.011   4.186
 2950TIP3   OH2 8790   4.690   6.665   6.431
 2950TIP3    H1 8791   4.767   6.641   6.381
 2950TIP3    H2 8792   4.722   6.725   6.498
 2951TIP3   OH2 8793   5.250   5.485   0.359
 2951TIP3    H1 8794   5.302   5.491   0.439
 2951TIP3    H2 8795   5.246   5.574   0.326
 2952TIP3   OH2 8796   0.183   5.373   4.795
 2952TIP3    H1 8797   0.215   5.463   4.805
 2952TIP3    H2 8798   0.115   5.379   4.728
 2953TIP3   OH2 8799   3.133   6.787   4.503
 2953TIP3    H1 8800   3.085   6.825   4.430
 2953TIP3    H2 8801   3.067   6.777   4.572
 2954TIP3   OH2 8802   0.480   1.694   4.071
 2954TIP3    H1 8803   0.433   1.762   4.023
 2954TIP3    H2 8804   0.413   1.627   4.089
 2955TIP3   OH2 8805   1.997   6.076   0.736
 2955TIP3    H1 8806   2.059   6.021   0.689
 2955TIP3    H2 8807   1.936   6.014   0.777
 2956TIP3   OH2 8808   7.343   6.911   2.342
 2956TIP3    H1 8809   7.255   6.924   2.378
 2956TIP3    H2 8810   7.368   6.823   2.369
 2957TIP3   OH2 8811   6.886   4.883   3.901
 2957TIP3    H1 8812   6.969   4.911   3.938
 2957TIP3    H2 8813   6.830   4.961   3.905
 2958TIP3   OH2 8814   3.305   7.846   5.732
 2958TIP3    H1 8815   3.256   7.767   5.712
 2958TIP3    H2 8816   3.241   7.917   5.727
 2959TIP3   OH2 8817   4.136   6.414   2.311
 2959TIP3    H1 8818   4.140   6.405   2.216
 2959TIP3    H2 8819   4.043   6.410   2.332
 2960TIP3   OH2 8820   2.526   0.418   3.740
 2960TIP3    H1 8821   2.533   0.464   3.824
 2960TIP3    H2 8822   2.457   0.353   3.755
 2961TIP3   OH2 8823   2.215   5.790   5.147
 2961TIP3    H1 8824   2.200   5.711   5.095
 2961TIP3    H2 8825   2.270   5.845   5.092
 2962TIP3   OH2 8826   5.779   1.230   4.511
 2962TIP3    H1 8827   5.826   1.242   4.593
 2962TIP3    H2 8828   5.789   1.314   4.466
 2963TIP3   OH2 8829   7.454   6.623   4.566
 2963TIP3    H1 8830   7.438   6.565   4.641
 2963TIP3    H2 8831   7.518   6.577   4.512
 2964TIP3   OH2 8832   6.153   5.135   0.237
 2964TIP3    H1 8833   6.110   5.065   0.187
 2964TIP3    H2 8834   6.155   5.210   0.178
 2965TIP3   OH2 8835   5.275   0.828   5.761
 2965TIP3    H1 8836   5.363   0.797   5.781
 2965TIP3    H2 8837   5.226   0.749   5.740
 2966TIP3   OH2 8838   3.652   1.434   4.257
 2966TIP3    H1 8839   3.688   1.423   4.170
 2966TIP3    H2 8840   3.569   1.386   4.255
 2967TIP3   OH2 8841   3.229   4.257   2.682
 2967TIP3    H1 8842   3.204   4.200   2.610
 2967TIP3    H2 8843   3.158   4.322   2.688
 2968TIP3   OH2 8844   1.550   4.969   3.809
 2968TIP3    H1 8845   1.505   5.054   3.805
 2968TIP3    H2 8846   1.479   4.905   3.805
 2969TIP3   OH2 8847   6.045   1.536   2.624
 2969TIP3    H1 8848   5.988   1.537   2.547
 2969TIP3    H2 8849   6.095   1.618   2.619
 2970TIP3   OH2 8850   5.409   7.234   3.859
 2970TIP3    H1 8851   5.470   7.302   3.888
 2970TIP3    H2 8852   5.456   7.187   3.791
 2971TIP3   OH2 8853   7.158   1.556   4.128
 2971TIP3    H1 8854   7.244   1.525   4.158
 2971TIP3    H2 8855   7.107   1.567   4.208
 2972TIP3   OH2 8856   4.737   1.269   2.881
 2972TIP3    H1 8857   4.662   1.243   2.828
 2972TIP3    H2 8858   4.776   1.342   2.833
 2973TIP3   OH2 8859   6.157   2.285   4.008
 2973TIP3    H1 8860   6.086   2.342   4.038
 2973TIP3    H2 8861   6.225   2.294   4.074
 2974TIP3   OH2 8862   8.145   3.201   2.183
 2974TIP3    H1 8863   8.226   3.241   2.216
 2974TIP3    H2 8864   8.091   3.275   2.157
 2975TIP3   OH2 8865   3.556   0.191   2.294
 2975TIP3    H1 8866   3.462   0.175   2.286
 2975TIP3    H2 8867   3.563   0.286   2.295
 2976TIP3   OH2 8868   5.155   5.945   2.745
 2976TIP3    H1 8869   5.236   5.959   2.697
 2976TIP3    H2 8870   5.183   5.905   2.827
 2977TIP3   OH2 8871   5.084   1.058   5.403
 2977TIP3    H1 8872   4.999   1.048   5.358
 2977TIP3    H2 8873   5.066   1.120   5.473
 2978TIP3   OH2 8874   5.237   5.311   4.086
 2978TIP3    H1 8875   5.318   5.269   4.111
 2978TIP3    H2 8876   5.257   5.355   4.003
 2979TIP3   OH2 8877   4.151   7.806   0.418
 2979TIP3    H1 8878   4.061   7.839   0.415
 2979TIP3    H2 8879   4.202   7.867   0.365
 2980TIP3   OH2 8880   2.763   5.170   0.596
 2980TIP3    H1 8881   2.679   5.198   0.631
 2980TIP3    H2 8882   2.797   5.247   0.550
 2981TIP3   OH2 8883   2.151   2.961   5.524
 2981TIP3    H1 8884   2.220   3.022   5.498
 2981TIP3    H2 8885   2.135   2.982   5.616
 2982TIP3   OH2 8886   7.924   0.556   4.932
 2982TIP3    H1 8887   7.942   0.642   4.969
 2982TIP3    H2 8888   7.888   0.505   5.005
 2983TIP3   OH2 8889   0.090  -0.002   6.810
 2983TIP3    H1 8890   0.056  -0.044   6.890
 2983TIP3    H2 8891   0.081   0.092   6.827
 2984TIP3   OH2 8892   5.857   7.116   3.298
 2984TIP3    H1 8893   5.926   7.130   3.233
 2984TIP3    H2 8894   5.806   7.198   3.297
 2985TIP3   OH2 8895   7.504   6.756   1.491
 2985TIP3    H1 8896   7.559   6.834   1.496
 2985TIP3    H2 8897   7.557   6.691   1.444
 2986TIP3   OH2 8898   5.889   1.389   1.455
 2986TIP3    H1 8899   5.795   1.405   1.454
 2986TIP3    H2 8900   5.898   1.299   1.486
 2987TIP3   OH2 8901   4.136   5.667   3.395
 2987TIP3    H1 8902   4.208   5.684   3.335
 2987TIP3    H2 8903   4.057   5.674   3.342
 2988TIP3   OH2 8904   3.369   3.867   2.395
 2988TIP3    H1 8905   3.315   3.812   2.453
 2988TIP3    H2 8906   3.456   3.865   2.436
 2989TIP3   OH2 8907   3.162   0.526   1.844
 2989TIP3    H1 8908   3.076   0.512   1.884
 2989TIP3    H2 8909   3.155   0.482   1.759
 2990TIP3   OH2 8910   6.234   2.973   0.130
 2990TIP3    H1 8911   6.310   2.930   0.168
 2990TIP3    H2 8912   6.263   3.001   0.043
 2991TIP3   OH2 8913   4.373   6.259   4.699
 2991TIP3    H1 8914   4.303   6.242   4.636
 2991TIP3    H2 8915   4.453   6.237   4.651
 2992TIP3   OH2 8916   2.317   2.972   2.800
 2992TIP3    H1 8917   2.244   2.947   2.743
 2992TIP3    H2 8918   2.393   2.972   2.743
 2993TIP3   OH2 8919   2.454   3.420   6.084
 2993TIP3    H1 8920   2.435   3.337   6.041
 2993TIP3    H2 8921   2.391   3.481   6.048
 2994TIP3   OH2 8922   2.250   3.554   5.891
 2994TIP3    H1 8923   2.294   3.638   5.906
 2994TIP3    H2 8924   2.157   3.575   5.892
 2995TIP3   OH2 8925   5.111   3.088   6.757
 2995TIP3    H1 8926   5.020   3.111   6.777
 2995TIP3    H2 8927   5.107   2.997   6.727
 2996TIP3   OH2 8928   1.071   0.343   6.285
 2996TIP3    H1 8929   1.157   0.315   6.254
 2996TIP3    H2 8930   1.062   0.301   6.371
 2997TIP3   OH2 8931   2.543   6.706   4.217
 2997TIP3    H1 8932   2.474   6.663   4.266
 2997TIP3    H2 8933   2.624   6.668   4.251
 2998TIP3   OH2 8934   8.036   6.747   3.497
 2998TIP3    H1 8935   8.130   6.746   3.517
 2998TIP3    H2 8936   8.031   6.783   3.409
 2999TIP3   OH2 8937   5.072   0.251   0.589
 2999TIP3    H1 8938   4.978   0.268   0.582
 2999TIP3    H2 8939   5.100   0.303   0.665
 3000TIP3   OH2 8940   5.030   4.495   3.379
 3000TIP3    H1 8941   5.107   4.521   3.430
 3000TIP3    H2 8942   4.972   4.571   3.382
 3001TIP3   OH2 8943   5.565   7.642   5.986
 3001TIP3    H1 8944   5.513   7.619   6.063
 3001TIP3    H2 8945   5.525   7.592   5.915
 3002TIP3   OH2 8946   0.299   5.428   6.220
 3002TIP3    H1 8947   0.388   5.434   6.187
 3002TIP3    H2 8948   0.268   5.343   6.190
 3003TIP3   OH2 8949   3.176   6.845   6.567
 3003TIP3    H1 8950   3.098   6.818   6.615
 3003TIP3    H2 8951   3.249   6.827   6.627
 3004TIP3   OH2 8952   2.899   6.611   5.803
 3004TIP3    H1 8953   2.851   6.674   5.857
 3004TIP3    H2 8954   2.831   6.568   5.751
 3005TIP3   OH2 8955   3.722   1.740   5.173
 3005TIP3    H1 8956   3.739   1.739   5.079
 3005TIP3    H2 8957   3.806   1.762   5.212
 3006TIP3   OH2 8958   1.526   7.343   2.500
 3006TIP3    H1 8959   1.548   7.364   2.592
 3006TIP3    H2 8960   1.546   7.250   2.491
 3007TIP3   OH2 8961   0.964   7.379   4.077
 3007TIP3    H1 8962   0.986   7.289   4.055
 3007TIP3    H2 8963   0.959   7.424   3.993
 3008TIP3   OH2 8964   4.183   1.239   6.516
 3008TIP3    H1 8965   4.110   1.178   6.507
 3008TIP3    H2 8966   4.235   1.226   6.437
 3009TIP3   OH2 8967   0.164   7.227   0.448
 3009TIP3    H1 8968   0.251   7.210   0.412
 3009TIP3    H2 8969   0.104   7.180   0.389
 3010TIP3   OH2 8970   7.166   2.058   5.642
 3010TIP3    H1 8971   7.177   1.979   5.695
 3010TIP3    H2 8972   7.080   2.047   5.600
 3011TIP3   OH2 8973   3.624   6.287   6.429
 3011TIP3    H1 8974   3.618   6.196   6.397
 3011TIP3    H2 8975   3.578   6.286   6.513
 3012TIP3   OH2 8976   4.565   0.074   5.127
 3012TIP3    H1 8977   4.537   0.011   5.061
 3012TIP3    H2 8978   4.494   0.075   5.191
 3013TIP3   OH2 8979   5.842   2.767   6.309
 3013TIP3    H1 8980   5.851   2.749   6.402
 3013TIP3    H2 8981   5.836   2.681   6.268
 3014TIP3   OH2 8982   3.223   2.068   1.886
 3014TIP3    H1 8983   3.285   1.996   1.890
 3014TIP3    H2 8984   3.137   2.025   1.884
 3015TIP3   OH2 8985   3.050   3.094   5.515
 3015TIP3    H1 8986   2.970   3.090   5.463
 3015TIP3    H2 8987   3.120   3.078   5.452
 3016TIP3   OH2 8988   6.779   4.612   1.320
 3016TIP3    H1 8989   6.805   4.692   1.366
 3016TIP3    H2 8990   6.696   4.634   1.279
 3017TIP3   OH2 8991   0.061   6.738   0.734
 3017TIP3    H1 8992  -0.003   6.724   0.665
 3017TIP3    H2 8993   0.146   6.729   0.691
 3018TIP3   OH2 8994   5.739   1.579   6.474
 3018TIP3    H1 8995   5.789   1.518   6.529
 3018TIP3    H2 8996   5.737   1.537   6.388
 3019TIP3   OH2 8997   3.731   0.592   4.089
 3019TIP3    H1 8998   3.806   0.645   4.059
 3019TIP3    H2 8999   3.655   0.639   4.055
 3020TIP3   OH2 9000   5.356   3.613   3.031
 3020TIP3    H1 9001   5.427   3.656   2.981
 3020TIP3    H2 9002   5.314   3.556   2.967
 3021TIP3   OH2 9003   0.141   4.188   0.901
 3021TIP3    H1 9004   0.064   4.138   0.874
 3021TIP3    H2 9005   0.167   4.235   0.822
 3022TIP3   OH2 9006   4.141   4.917   1.913
 3022TIP3    H1 9007   4.159   4.829   1.880
 3022TIP3    H2 9008   4.177   4.975   1.847
 3023TIP3   OH2 9009   4.609   2.710   5.448
 3023TIP3    H1 9010   4.678   2.648   5.424
 3023TIP3    H2 9011   4.651   2.770   5.509
 3024TIP3   OH2 9012   4.806   1.952   2.685
 3024TIP3    H1 9013   4.850   1.948   2.600
 3024TIP3    H2 9014   4.862   1.902   2.743
 3025TIP3   OH2 9015   7.810   3.191   4.179
 3025TIP3    H1 9016   7.877   3.156   4.120
 3025TIP3    H2 9017   7.825   3.145   4.262
 3026TIP3   OH2 9018   4.147   7.150   1.458
 3026TIP3    H1 9019   4.109   7.072   1.416
 3026TIP3    H2 9020   4.241   7.136   1.452
 3027TIP3   OH2 9021   3.733   1.177   1.179
 3027TIP3    H1 9022   3.710   1.084   1.174
 3027TIP3    H2 9023   3.793   1.182   1.253
 3028TIP3   OH2 9024   6.436   0.339   6.537
 3028TIP3    H1 9025   6.456   0.319   6.445
 3028TIP3    H2 9026   6.430   0.434   6.540
 3029TIP3   OH2 9027   6.472   6.158   4.732
 3029TIP3    H1 9028   6.414   6.084   4.746
 3029TIP3    H2 9029   6.558   6.119   4.718
 3030TIP3   OH2 9030   1.470   6.937   5.517
 3030TIP3    H1 9031   1.542   6.894   5.470
 3030TIP3    H2 9032   1.464   7.024   5.478
 3031TIP3   OH2 9033   1.057   5.620   2.796
 3031TIP3    H1 9034   1.144   5.606   2.760
 3031TIP3    H2 9035   1.067   5.692   2.858
 3032TIP3   OH2 9036   6.020   7.142   2.299
 3032TIP3    H1 9037   6.110   7.117   2.322
 3032TIP3    H2 9038   6.030   7.214   2.237
 3033TIP3   OH2 9039   6.610   4.379   2.309
 3033TIP3    H1 9040   6.615   4.473   2.328
 3033TIP3    H2 9041   6.516   4.360   2.306
 3034TIP3   OH2 9042   6.138   7.580   5.078
 3034TIP3    H1 9043   6.068   7.530   5.120
 3034TIP3    H2 9044   6.210   7.518   5.068
 3035TIP3   OH2 9045   2.200   5.718   1.440
 3035TIP3    H1 9046   2.241   5.786   1.388
 3035TIP3    H2 9047   2.111   5.749   1.456
 3036TIP3   OH2 9048   3.834   5.042   4.410
 3036TIP3    H1 9049   3.893   4.977   4.447
 3036TIP3    H2 9050   3.747   5.013   4.435
 3037TIP3   OH2 9051   2.799   1.995   1.442
 3037TIP3    H1 9052   2.824   1.926   1.503
 3037TIP3    H2 9053   2.860   2.066   1.459
 3038TIP3   OH2 9054   1.825   6.616   3.481
 3038TIP3    H1 9055   1.771   6.592   3.557
 3038TIP3    H2 9056   1.892   6.547   3.477
 3039TIP3   OH2 9057   4.895   3.417   6.283
 3039TIP3    H1 9058   4.829   3.426   6.351
 3039TIP3    H2 9059   4.946   3.340   6.308
 3040TIP3   OH2 9060   6.741   0.083   0.167
 3040TIP3    H1 9061   6.835   0.070   0.155
 3040TIP3    H2 9062   6.701   0.032   0.096
 3041TIP3   OH2 9063   6.040   7.237   0.512
 3041TIP3    H1 9064   6.087   7.211   0.433
 3041TIP3    H2 9065   6.045   7.161   0.569
 3042TIP3   OH2 9066   4.216   4.123   6.271
 3042TIP3    H1 9067   4.127   4.088   6.273
 3042TIP3    H2 9068   4.224   4.175   6.351
 3043TIP3   OH2 9069   1.692   0.702   1.954
 3043TIP3    H1 9070   1.614   0.686   2.007
 3043TIP3    H2 9071   1.733   0.779   1.994
 3044TIP3   OH2 9072   6.056   4.288   1.399
 3044TIP3    H1 9073   5.970   4.309   1.364
 3044TIP3    H2 9074   6.067   4.194   1.384
 3045TIP3   OH2 9075   5.417   0.907   0.759
 3045TIP3    H1 9076   5.462   0.824   0.773
 3045TIP3    H2 9077   5.475   0.955   0.700
 3046TIP3   OH2 9078   2.591   4.099   1.352
 3046TIP3    H1 9079   2.529   4.070   1.418
 3046TIP3    H2 9080   2.574   4.042   1.277
 3047TIP3   OH2 9081   7.254   1.214   2.572
 3047TIP3    H1 9082   7.291   1.141   2.522
 3047TIP3    H2 9083   7.244   1.180   2.661
 3048TIP3   OH2 9084   4.565   6.607   1.943
 3048TIP3    H1 9085   4.485   6.569   1.980
 3048TIP3    H2 9086   4.634   6.584   2.005
 3049TIP3   OH2 9087   7.426   3.500   0.807
 3049TIP3    H1 9088   7.384   3.578   0.770
 3049TIP3    H2 9089   7.431   3.438   0.735
 3050TIP3   OH2 9090   4.032   2.740   4.983
 3050TIP3    H1 9091   4.126   2.751   4.967
 3050TIP3    H2 9092   4.024   2.649   5.013
 3051TIP3   OH2 9093   6.686   7.479   0.451
 3051TIP3    H1 9094   6.696   7.559   0.501
 3051TIP3    H2 9095   6.714   7.409   0.510
 3052TIP3   OH2 9096   1.778   2.695   2.653
 3052TIP3    H1 9097   1.759   2.751   2.578
 3052TIP3    H2 9098   1.691   2.675   2.690
 3053TIP3   OH2 9099   5.628   7.175   0.317
 3053TIP3    H1 9100   5.664   7.233   0.250
 3053TIP3    H2 9101   5.665   7.089   0.296
 3054TIP3   OH2 9102   1.424   6.641   3.206
 3054TIP3    H1 9103   1.390   6.605   3.124
 3054TIP3    H2 9104   1.476   6.717   3.179
 3055TIP3   OH2 9105   0.482   6.877   4.501
 3055TIP3    H1 9106   0.531   6.810   4.454
 3055TIP3    H2 9107   0.547   6.916   4.560
 3056TIP3   OH2 9108   4.126   3.013   4.651
 3056TIP3    H1 9109   4.183   2.953   4.601
 3056TIP3    H2 9110   4.168   3.018   4.737
 3057TIP3   OH2 9111   3.914   3.293   0.833
 3057TIP3    H1 9112   3.980   3.307   0.765
 3057TIP3    H2 9113   3.906   3.378   0.876
 3058TIP3   OH2 9114   2.100   0.588   6.628
 3058TIP3    H1 9115   2.034   0.654   6.607
 3058TIP3    H2 9116   2.101   0.530   6.552
 3059TIP3   OH2 9117   1.441   3.584   1.205
 3059TIP3    H1 9118   1.472   3.672   1.227
 3059TIP3    H2 9119   1.365   3.599   1.148
 3060TIP3   OH2 9120   2.291   5.262   6.694
 3060TIP3    H1 9121   2.274   5.210   6.616
 3060TIP3    H2 9122   2.338   5.339   6.662
 3061TIP3   OH2 9123   6.866   0.662   4.001
 3061TIP3    H1 9124   6.819   0.679   3.919
 3061TIP3    H2 9125   6.858   0.567   4.013
 3062TIP3   OH2 9126   1.952   5.676   3.050
 3062TIP3    H1 9127   1.964   5.594   3.098
 3062TIP3    H2 9128   1.965   5.652   2.958
 3063TIP3   OH2 9129   0.785   4.656   5.961
 3063TIP3    H1 9130   0.731   4.581   5.987
 3063TIP3    H2 9131   0.771   4.720   6.030
 3064TIP3   OH2 9132   3.935   2.979   5.083
 3064TIP3    H1 9133   3.853   2.949   5.123
 3064TIP3    H2 9134   3.974   2.900   5.046
 3065TIP3   OH2 9135   7.880   0.063   1.490
 3065TIP3    H1 9136   7.964   0.055   1.536
 3065TIP3    H2 9137   7.822   0.002   1.535
 3066TIP3   OH2 9138   3.565   5.833   5.724
 3066TIP3    H1 9139   3.646   5.803   5.684
 3066TIP3    H2 9140   3.506   5.850   5.650
 3067TIP3   OH2 9141   4.951   2.961   0.403
 3067TIP3    H1 9142   4.888   2.894   0.429
 3067TIP3    H2 9143   5.037   2.919   0.413
 3068TIP3   OH2 9144   0.161   2.044   1.579
 3068TIP3    H1 9145   0.137   1.968   1.632
 3068TIP3    H2 9146   0.100   2.043   1.506
 3069TIP3   OH2 9147   2.516   5.179   5.894
 3069TIP3    H1 9148   2.582   5.240   5.927
 3069TIP3    H2 9149   2.491   5.215   5.809
 3070TIP3   OH2 9150   5.719   2.156   6.555
 3070TIP3    H1 9151   5.639   2.139   6.505
 3070TIP3    H2 9152   5.690   2.207   6.631
 3071TIP3   OH2 9153   2.288   2.385   4.839
 3071TIP3    H1 9154   2.201   2.360   4.810
 3071TIP3    H2 9155   2.292   2.480   4.826
 3072TIP3   OH2 9156   5.232   0.060   0.488
 3072TIP3    H1 9157   5.199   0.126   0.548
 3072TIP3    H2 9158   5.156   0.006   0.467
 3073TIP3   OH2 9159   6.547   7.640   5.912
 3073TIP3    H1 9160   6.453   7.630   5.928
 3073TIP3    H2 9161   6.552   7.707   5.844
 3074TIP3   OH2 9162   4.568   4.623   1.507
 3074TIP3    H1 9163   4.654   4.581   1.517
 3074TIP3    H2 9164   4.544   4.605   1.416
 3075TIP3   OH2 9165   4.458   1.549   4.751
 3075TIP3    H1 9166   4.433   1.503   4.671
 3075TIP3    H2 9167   4.459   1.642   4.727
 3076TIP3   OH2 9168   0.758   1.006   0.444
 3076TIP3    H1 9169   0.788   0.915   0.438
 3076TIP3    H2 9170   0.740   1.031   0.353
 3077TIP3   OH2 9171   7.198   0.173   2.292
 3077TIP3    H1 9172   7.170   0.256   2.330
 3077TIP3    H2 9173   7.284   0.156   2.332
 3078TIP3   OH2 9174   6.458   3.683   4.466
 3078TIP3    H1 9175   6.511   3.605   4.454
 3078TIP3    H2 9176   6.376   3.651   4.502
 3079TIP3   OH2 9177   7.604   4.234   6.392
 3079TIP3    H1 9178   7.590   4.299   6.323
 3079TIP3    H2 9179   7.697   4.241   6.413
 3080TIP3   OH2 9180   4.688   3.773   2.332
 3080TIP3    H1 9181   4.619   3.725   2.378
 3080TIP3    H2 9182   4.658   3.864   2.334
 3081TIP3   OH2 9183   1.146   6.025   3.365
 3081TIP3    H1 9184   1.053   6.004   3.366
 3081TIP3    H2 9185   1.189   5.943   3.388
 3082TIP3   OH2 9186   1.086   1.339   5.332
 3082TIP3    H1 9187   1.018   1.295   5.282
 3082TIP3    H2 9188   1.048   1.350   5.419
 3083TIP3   OH2 9189   4.521   5.789   2.773
 3083TIP3    H1 9190   4.609   5.774   2.740
 3083TIP3    H2 9191   4.472   5.823   2.697
 3084TIP3   OH2 9192   3.889   2.102   3.204
 3084TIP3    H1 9193   3.850   2.166   3.145
 3084TIP3    H2 9194   3.922   2.033   3.146
 3085TIP3   OH2 9195   2.158   4.663   6.292
 3085TIP3    H1 9196   2.211   4.743   6.288
 3085TIP3    H2 9197   2.071   4.692   6.264
 3086TIP3   OH2 9198   3.553   1.790   2.835
 3086TIP3    H1 9199   3.549   1.715   2.894
 3086TIP3    H2 9200   3.513   1.862   2.884
 3087TIP3   OH2 9201   0.985   6.250   6.752
 3087TIP3    H1 9202   0.949   6.193   6.685
 3087TIP3    H2 9203   0.969   6.204   6.834
 3088TIP3   OH2 9204   3.274   4.035   0.772
 3088TIP3    H1 9205   3.224   4.115   0.791
 3088TIP3    H2 9206   3.355   4.046   0.822
 3089TIP3   OH2 9207   2.529   5.945   4.270
 3089TIP3    H1 9208   2.485   5.976   4.192
 3089TIP3    H2 9209   2.460   5.936   4.336
 3090TIP3   OH2 9210   3.480   3.051   6.676
 3090TIP3    H1 9211   3.445   3.125   6.626
 3090TIP3    H2 9212   3.571   3.043   6.647
 3091TIP3   OH2 9213   6.103   1.114   6.271
 3091TIP3    H1 9214   6.117   1.186   6.333
 3091TIP3    H2 9215   6.008   1.104   6.267
 3092TIP3   OH2 9216   8.016   7.674   2.126
 3092TIP3    H1 9217   7.967   7.681   2.045
 3092TIP3    H2 9218   7.971   7.606   2.176
 3093TIP3   OH2 9219   2.787   1.004   3.236
 3093TIP3    H1 9220   2.749   1.037   3.154
 3093TIP3    H2 9221   2.825   0.919   3.211
 3094TIP3   OH2 9222   4.606   6.608   5.362
 3094TIP3    H1 9223   4.634   6.542   5.298
 3094TIP3    H2 9224   4.529   6.648   5.323
 3095TIP3   OH2 9225   0.352   7.088   3.468
 3095TIP3    H1 9226   0.409   7.144   3.520
 3095TIP3    H2 9227   0.324   7.143   3.395
 3096TIP3   OH2 9228   8.095   2.519   6.057
 3096TIP3    H1 9229   8.114   2.574   5.981
 3096TIP3    H2 9230   8.120   2.572   6.133
 3097TIP3   OH2 9231   4.946   4.530   5.065
 3097TIP3    H1 9232   4.937   4.439   5.037
 3097TIP3    H2 9233   4.877   4.576   5.017
 3098TIP3   OH2 9234   8.230   1.125   0.065
 3098TIP3    H1 9235   8.144   1.167   0.068
 3098TIP3    H2 9236   8.237   1.076   0.147
 3099TIP3   OH2 9237   4.752   4.847   6.659
 3099TIP3    H1 9238   4.747   4.770   6.603
 3099TIP3    H2 9239   4.679   4.902   6.632
 3100TIP3   OH2 9240   4.050   4.211   5.866
 3100TIP3    H1 9241   4.045   4.261   5.785
 3100TIP3    H2 9242   3.967   4.165   5.871
 3101TIP3   OH2 9243   6.555   7.164   2.003
 3101TIP3    H1 9244   6.499   7.114   2.063
 3101TIP3    H2 9245   6.554   7.113   1.922
 3102TIP3   OH2 9246   5.367   2.086   3.866
 3102TIP3    H1 9247   5.364   2.181   3.854
 3102TIP3    H2 9248   5.310   2.070   3.941
 3103TIP3   OH2 9249   4.468   1.484   0.245
 3103TIP3    H1 9250   4.415   1.406   0.261
 3103TIP3    H2 9251   4.531   1.486   0.318
 3104TIP3   OH2 9252   5.430   2.655   2.636
 3104TIP3    H1 9253   5.377   2.594   2.584
 3104TIP3    H2 9254   5.456   2.723   2.575
 3105TIP3   OH2 9255   8.147   5.833   5.579
 3105TIP3    H1 9256   8.140   5.819   5.674
 3105TIP3    H2 9257   8.075   5.782   5.542
 3106TIP3   OH2 9258   0.272   1.604   5.171
 3106TIP3    H1 9259   0.202   1.541   5.151
 3106TIP3    H2 9260   0.234   1.660   5.238
 3107TIP3   OH2 9261   8.054   6.172   3.657
 3107TIP3    H1 9262   8.080   6.083   3.633
 3107TIP3    H2 9263   7.960   6.166   3.670
 3108TIP3   OH2 9264   0.885   6.416   0.358
 3108TIP3    H1 9265   0.801   6.404   0.314
 3108TIP3    H2 9266   0.885   6.507   0.385
 3109TIP3   OH2 9267   4.691   1.669   1.665
 3109TIP3    H1 9268   4.651   1.675   1.752
 3109TIP3    H2 9269   4.617   1.660   1.605
 3110TIP3   OH2 9270   4.898   0.224   5.517
 3110TIP3    H1 9271   4.982   0.236   5.472
 3110TIP3    H2 9272   4.894   0.131   5.537
 3111TIP3   OH2 9273   2.164   3.059   2.322
 3111TIP3    H1 9274   2.180   3.152   2.306
 3111TIP3    H2 9275   2.080   3.056   2.366
 3112TIP3   OH2 9276   7.935   3.578   4.649
 3112TIP3    H1 9277   7.905   3.586   4.740
 3112TIP3    H2 9278   7.915   3.663   4.610
 3113TIP3   OH2 9279   0.784   1.784   4.334
 3113TIP3    H1 9280   0.782   1.713   4.399
 3113TIP3    H2 9281   0.870   1.775   4.292
 3114TIP3   OH2 9282   5.508   2.941   3.250
 3114TIP3    H1 9283   5.510   2.932   3.345
 3114TIP3    H2 9284   5.550   3.026   3.233
 3115TIP3   OH2 9285   7.400   4.771   3.014
 3115TIP3    H1 9286   7.431   4.776   2.923
 3115TIP3    H2 9287   7.307   4.748   3.006
 3116TIP3   OH2 9288   5.386   3.432   5.649
 3116TIP3    H1 9289   5.468   3.405   5.607
 3116TIP3    H2 9290   5.409   3.509   5.700
 3117TIP3   OH2 9291   1.718   6.591   0.714
 3117TIP3    H1 9292   1.754   6.653   0.777
 3117TIP3    H2 9293   1.725   6.635   0.629
 3118TIP3   OH2 9294   2.120   1.622   1.188
 3118TIP3    H1 9295   2.115   1.703   1.238
 3118TIP3    H2 9296   2.085   1.645   1.102
 3119TIP3   OH2 9297   5.571   3.302   2.099
 3119TIP3    H1 9298   5.565   3.336   2.189
 3119TIP3    H2 9299   5.494   3.339   2.055
 3120TIP3   OH2 9300   5.182   0.576   3.936
 3120TIP3    H1 9301   5.152   0.661   3.967
 3120TIP3    H2 9302   5.163   0.516   4.008
 3121TIP3   OH2 9303   6.384   1.505   3.498
 3121TIP3    H1 9304   6.353   1.428   3.546
 3121TIP3    H2 9305   6.419   1.470   3.416
 3122TIP3   OH2 9306   4.966   4.176   1.034
 3122TIP3    H1 9307   5.023   4.252   1.027
 3122TIP3    H2 9308   4.889   4.199   0.982
 3123TIP3   OH2 9309   5.901   7.388   1.217
 3123TIP3    H1 9310   5.905   7.478   1.184
 3123TIP3    H2 9311   5.856   7.396   1.301
 3124TIP3   OH2 9312   5.721   2.283   5.411
 3124TIP3    H1 9313   5.779   2.356   5.434
 3124TIP3    H2 9314   5.767   2.205   5.442
 3125TIP3   OH2 9315   3.576   1.553   4.858
 3125TIP3    H1 9316   3.516   1.577   4.787
 3125TIP3    H2 9317   3.633   1.629   4.868
 3126TIP3   OH2 9318   1.424   6.467   2.467
 3126TIP3    H1 9319   1.362   6.440   2.535
 3126TIP3    H2 9320   1.504   6.489   2.515
 3127TIP3   OH2 9321   0.185   7.064   5.207
 3127TIP3    H1 9322   0.122   7.100   5.146
 3127TIP3    H2 9323   0.208   7.137   5.265
 3128TIP3   OH2 9324   8.063   1.161   4.264
 3128TIP3    H1 9325   8.106   1.221   4.203
 3128TIP3    H2 9326   8.135   1.123   4.315
 3129TIP3   OH2 9327   4.319   3.438   3.839
 3129TIP3    H1 9328   4.328   3.371   3.908
 3129TIP3    H2 9329   4.372   3.511   3.870
 3130TIP3   OH2 9330   3.355   3.087   4.886
 3130TIP3    H1 9331   3.306   3.026   4.942
 3130TIP3    H2 9332   3.446   3.072   4.910
 3131TIP3   OH2 9333   3.388   4.428   2.104
 3131TIP3    H1 9334   3.481   4.452   2.100
 3131TIP3    H2 9335   3.345   4.506   2.140
 3132TIP3   OH2 9336   0.127   3.924   5.074
 3132TIP3    H1 9337   0.046   3.873   5.083
 3132TIP3    H2 9338   0.099   4.004   5.029
 3133TIP3   OH2 9339   5.896   0.411   0.883
 3133TIP3    H1 9340   5.938   0.334   0.921
 3133TIP3    H2 9341   5.860   0.458   0.958
 3134TIP3   OH2 9342  -0.073   4.956   2.632
 3134TIP3    H1 9343   0.004   4.929   2.581
 3134TIP3    H2 9344  -0.039   5.018   2.696
 3135TIP3   OH2 9345   3.504   2.580   3.766
 3135TIP3    H1 9346   3.473   2.635   3.838
 3135TIP3    H2 9347   3.544   2.640   3.704
 3136TIP3   OH2 9348   2.064   3.447   0.888
 3136TIP3    H1 9349   2.001   3.437   0.959
 3136TIP3    H2 9350   2.012   3.477   0.814
 3137TIP3   OH2 9351   6.363   0.389   5.959
 3137TIP3    H1 9352   6.290   0.329   5.944
 3137TIP3    H2 9353   6.323   0.476   5.957
 3138TIP3   OH2 9354   1.326   5.736   3.200
 3138TIP3    H1 9355   1.353   5.747   3.291
 3138TIP3    H2 9356   1.353   5.817   3.157
 3139TIP3   OH2 9357   0.150   1.190   0.427
 3139TIP3    H1 9358   0.245   1.186   0.433
 3139TIP3    H2 9359   0.131   1.213   0.336
 3140TIP3   OH2 9360   5.886   2.483   2.857
 3140TIP3    H1 9361   5.899   2.431   2.778
 3140TIP3    H2 9362   5.804   2.452   2.893
 3141TIP3   OH2 9363   0.939   1.385   2.062
 3141TIP3    H1 9364   0.958   1.373   1.968
 3141TIP3    H2 9365   0.920   1.478   2.071
 3142TIP3   OH2 9366   4.090   1.142   3.361
 3142TIP3    H1 9367   4.066   1.129   3.453
 3142TIP3    H2 9368   4.053   1.066   3.315
 3143TIP3   OH2 9369   6.326   2.111   5.243
 3143TIP3    H1 9370   6.248   2.104   5.188
 3143TIP3    H2 9371   6.298   2.165   5.317
 3144TIP3   OH2 9372   2.897   4.345   4.679
 3144TIP3    H1 9373   2.828   4.280   4.667
 3144TIP3    H2 9374   2.871   4.418   4.624
 3145TIP3   OH2 9375   0.185   7.241   0.074
 3145TIP3    H1 9376   0.247   7.311   0.053
 3145TIP3    H2 9377   0.114   7.286   0.121
 3146TIP3   OH2 9378   4.318   5.402   6.311
 3146TIP3    H1 9379   4.350   5.482   6.352
 3146TIP3    H2 9380   4.255   5.434   6.245
 3147TIP3   OH2 9381   1.305   7.221   1.555
 3147TIP3    H1 9382   1.373   7.267   1.605
 3147TIP3    H2 9383   1.223   7.257   1.587
 3148TIP3   OH2 9384   1.027   7.131   1.850
 3148TIP3    H1 9385   1.055   7.142   1.941
 3148TIP3    H2 9386   1.084   7.061   1.817
 3149TIP3   OH2 9387   5.088   3.093   0.157
 3149TIP3    H1 9388   5.114   3.184   0.167
 3149TIP3    H2 9389   5.042   3.072   0.238
 3150TIP3   OH2 9390   1.261   0.274   2.486
 3150TIP3    H1 9391   1.312   0.341   2.531
 3150TIP3    H2 9392   1.324   0.227   2.432
 3151TIP3   OH2 9393   8.285   2.129   0.966
 3151TIP3    H1 9394   8.243   2.099   0.886
 3151TIP3    H2 9395   8.352   2.064   0.984
 3152TIP3   OH2 9396   8.133   7.807   4.155
 3152TIP3    H1 9397   8.082   7.733   4.120
 3152TIP3    H2 9398   8.076   7.845   4.222
 3153TIP3   OH2 9399   8.334   5.862   4.680
 3153TIP3    H1 9400   8.278   5.938   4.667
 3153TIP3    H2 9401   8.414   5.897   4.720
 3154TIP3   OH2 9402   6.255   3.314   5.369
 3154TIP3    H1 9403   6.210   3.394   5.343
 3154TIP3    H2 9404   6.337   3.315   5.319
 3155TIP3   OH2 9405   7.965   2.095   5.673
 3155TIP3    H1 9406   7.916   2.101   5.591
 3155TIP3    H2 9407   8.046   2.050   5.648
 3156TIP3   OH2 9408   2.049   3.729   3.305
 3156TIP3    H1 9409   2.012   3.730   3.216
 3156TIP3    H2 9410   2.134   3.772   3.296
 3157TIP3   OH2 9411   4.755   2.005   4.675
 3157TIP3    H1 9412   4.710   1.982   4.757
 3157TIP3    H2 9413   4.810   2.080   4.699
 3158TIP3   OH2 9414   3.191   5.617   0.721
 3158TIP3    H1 9415   3.282   5.647   0.716
 3158TIP3    H2 9416   3.198   5.522   0.732
 3159TIP3   OH2 9417   6.289   7.201   0.086
 3159TIP3    H1 9418   6.303   7.295   0.097
 3159TIP3    H2 9419   6.272   7.190  -0.007
 3160TIP3   OH2 9420   8.063   4.119   6.786
 3160TIP3    H1 9421   8.084   4.039   6.833
 3160TIP3    H2 9422   8.047   4.091   6.696
 3161TIP3   OH2 9423   7.625   5.916   5.736
 3161TIP3    H1 9424   7.643   5.844   5.796
 3161TIP3    H2 9425   7.531   5.930   5.742
 3162TIP3   OH2 9426   2.618   2.669   0.548
 3162TIP3    H1 9427   2.710   2.683   0.570
 3162TIP3    H2 9428   2.615   2.581   0.511
 3163TIP3   OH2 9429   4.656   6.819   4.320
 3163TIP3    H1 9430   4.674   6.854   4.407
 3163TIP3    H2 9431   4.606   6.887   4.276
 3164TIP3   OH2 9432   6.912   7.533   4.323
 3164TIP3    H1 9433   6.961   7.594   4.267
 3164TIP3    H2 9434   6.885   7.586   4.398
 3165TIP3   OH2 9435   4.882   3.682   5.772
 3165TIP3    H1 9436   4.975   3.660   5.768
 3165TIP3    H2 9437   4.839   3.615   5.719
 3166TIP3   OH2 9438   1.763   1.362   6.231
 3166TIP3    H1 9439   1.792   1.302   6.300
 3166TIP3    H2 9440   1.669   1.373   6.246
 3167TIP3   OH2 9441   8.371   0.240   3.538
 3167TIP3    H1 9442   8.413   0.207   3.618
 3167TIP3    H2 9443   8.407   0.328   3.527
 3168TIP3   OH2 9444   1.369   5.994   0.325
 3168TIP3    H1 9445   1.369   6.076   0.275
 3168TIP3    H2 9446   1.302   6.007   0.392
 3169TIP3   OH2 9447   7.293   1.744   2.738
 3169TIP3    H1 9448   7.383   1.734   2.770
 3169TIP3    H2 9449   7.243   1.769   2.815
 3170TIP3   OH2 9450   3.981   3.522   2.560
 3170TIP3    H1 9451   4.050   3.551   2.619
 3170TIP3    H2 9452   4.027   3.496   2.480
 3171TIP3   OH2 9453   5.756   1.206   6.135
 3171TIP3    H1 9454   5.802   1.132   6.175
 3171TIP3    H2 9455   5.664   1.180   6.133
 3172TIP3   OH2 9456   0.534   3.114   4.052
 3172TIP3    H1 9457   0.480   3.093   4.128
 3172TIP3    H2 9458   0.476   3.100   3.977
 3173TIP3   OH2 9459   3.433   0.583   4.683
 3173TIP3    H1 9460   3.469   0.546   4.763
 3173TIP3    H2 9461   3.346   0.544   4.675
 3174TIP3   OH2 9462   6.280   5.557   3.795
 3174TIP3    H1 9463   6.312   5.565   3.885
 3174TIP3    H2 9464   6.284   5.463   3.777
 3175TIP3   OH2 9465   6.672   3.596   2.925
 3175TIP3    H1 9466   6.675   3.500   2.922
 3175TIP3    H2 9467   6.737   3.619   2.992
 3176TIP3   OH2 9468   0.274   3.940   1.600
 3176TIP3    H1 9469   0.221   3.995   1.658
 3176TIP3    H2 9470   0.237   3.852   1.610
 3177TIP3   OH2 9471   0.266   3.696   6.674
 3177TIP3    H1 9472   0.279   3.662   6.762
 3177TIP3    H2 9473   0.352   3.729   6.648
 3178TIP3   OH2 9474   5.967   2.127   2.836
 3178TIP3    H1 9475   5.875   2.133   2.810
 3178TIP3    H2 9476   5.992   2.037   2.814
 3179TIP3   OH2 9477   3.327   4.997   3.917
 3179TIP3    H1 9478   3.323   5.087   3.886
 3179TIP3    H2 9479   3.405   4.961   3.875
 3180TIP3   OH2 9480   1.144   2.212   4.838
 3180TIP3    H1 9481   1.169   2.214   4.930
 3180TIP3    H2 9482   1.050   2.194   4.839
 3181TIP3   OH2 9483   3.478   3.513   0.375
 3181TIP3    H1 9484   3.459   3.549   0.289
 3181TIP3    H2 9485   3.423   3.435   0.381
 3182TIP3   OH2 9486   5.541   5.741   1.068
 3182TIP3    H1 9487   5.518   5.828   1.102
 3182TIP3    H2 9488   5.546   5.685   1.146
 3183TIP3   OH2 9489   8.049   7.336   4.269
 3183TIP3    H1 9490   7.975   7.344   4.329
 3183TIP3    H2 9491   8.013   7.294   4.191
 3184TIP3   OH2 9492   8.041   6.190   1.578
 3184TIP3    H1 9493   8.004   6.159   1.661
 3184TIP3    H2 9494   7.998   6.136   1.512
 3185TIP3   OH2 9495   0.719   2.072   6.704
 3185TIP3    H1 9496   0.802   2.115   6.723
 3185TIP3    H2 9497   0.705   2.086   6.610
 3186TIP3   OH2 9498   1.895   0.200   5.598
 3186TIP3    H1 9499   1.817   0.164   5.642
 3186TIP3    H2 9500   1.872   0.291   5.582
 3187TIP3   OH2 9501   7.492   1.736   4.964
 3187TIP3    H1 9502   7.435   1.683   4.908
 3187TIP3    H2 9503   7.505   1.818   4.916
 3188TIP3   OH2 9504   0.382   1.650   2.087
 3188TIP3    H1 9505   0.289   1.628   2.092
 3188TIP3    H2 9506   0.410   1.658   2.178
 3189TIP3   OH2 9507   1.151   1.988   0.569
 3189TIP3    H1 9508   1.172   2.033   0.651
 3189TIP3    H2 9509   1.189   2.043   0.501
 3190TIP3   OH2 9510   1.980   0.206   4.071
 3190TIP3    H1 9511   1.955   0.217   3.979
 3190TIP3    H2 9512   1.933   0.126   4.098
 3191TIP3   OH2 9513   4.647   6.418   0.556
 3191TIP3    H1 9514   4.725   6.414   0.611
 3191TIP3    H2 9515   4.574   6.407   0.616
 3192TIP3   OH2 9516   3.128   7.356   0.481
 3192TIP3    H1 9517   3.079   7.288   0.434
 3192TIP3    H2 9518   3.175   7.308   0.550
 3193TIP3   OH2 9519   8.152   2.618   1.609
 3193TIP3    H1 9520   8.131   2.529   1.637
 3193TIP3    H2 9521   8.169   2.610   1.515
 3194TIP3   OH2 9522   6.616   5.039   5.940
 3194TIP3    H1 9523   6.672   5.092   5.883
 3194TIP3    H2 9524   6.547   5.005   5.882
 3195TIP3   OH2 9525   3.708   4.782   0.435
 3195TIP3    H1 9526   3.754   4.790   0.518
 3195TIP3    H2 9527   3.769   4.734   0.378
 3196TIP3   OH2 9528   7.077   6.601   5.589
 3196TIP3    H1 9529   6.985   6.600   5.615
 3196TIP3    H2 9530   7.126   6.599   5.671
 3197TIP3   OH2 9531   6.728   4.584   1.829
 3197TIP3    H1 9532   6.672   4.517   1.868
 3197TIP3    H2 9533   6.769   4.628   1.904
 3198TIP3   OH2 9534   0.720   1.569   4.096
 3198TIP3    H1 9535   0.757   1.648   4.057
 3198TIP3    H2 9536   0.628   1.591   4.112
 3199TIP3   OH2 9537   3.340   7.125   0.942
 3199TIP3    H1 9538   3.369   7.119   1.033
 3199TIP3    H2 9539   3.357   7.038   0.906
 3200TIP3   OH2 9540   3.135   2.578   4.377
 3200TIP3    H1 9541   3.069   2.579   4.307
 3200TIP3    H2 9542   3.218   2.568   4.331
 3201TIP3   OH2 9543   2.366   4.588   6.117
 3201TIP3    H1 9544   2.377   4.681   6.134
 3201TIP3    H2 9545   2.287   4.564   6.166
 3202TIP3   OH2 9546   7.636   4.478   1.580
 3202TIP3    H1 9547   7.712   4.423   1.598
 3202TIP3    H2 9548   7.562   4.417   1.577
 3203TIP3   OH2 9549   3.608   6.079   0.172
 3203TIP3    H1 9550   3.657   6.105   0.251
 3203TIP3    H2 9551   3.547   6.151   0.157
 3204TIP3   OH2 9552   1.465   4.444   1.143
 3204TIP3    H1 9553   1.391   4.499   1.169
 3204TIP3    H2 9554   1.541   4.486   1.182
 3205TIP3   OH2 9555   4.726   3.261   1.592
 3205TIP3    H1 9556   4.773   3.232   1.514
 3205TIP3    H2 9557   4.794   3.291   1.652
 3206TIP3   OH2 9558   1.415   5.525   6.354
 3206TIP3    H1 9559   1.392   5.449   6.301
 3206TIP3    H2 9560   1.347   5.530   6.421
 3207TIP3   OH2 9561   7.490   3.409   2.962
 3207TIP3    H1 9562   7.427   3.465   3.007
 3207TIP3    H2 9563   7.497   3.331   3.018
 3208TIP3   OH2 9564   0.203   7.661   2.525
 3208TIP3    H1 9565   0.124   7.698   2.564
 3208TIP3    H2 9566   0.173   7.617   2.446
 3209TIP3   OH2 9567   5.090   5.314   2.223
 3209TIP3    H1 9568   5.000   5.297   2.193
 3209TIP3    H2 9569   5.086   5.400   2.264
 3210TIP3   OH2 9570   1.804   1.386   1.174
 3210TIP3    H1 9571   1.846   1.331   1.108
 3210TIP3    H2 9572   1.758   1.453   1.123
 3211TIP3   OH2 9573   3.340   0.236   5.135
 3211TIP3    H1 9574   3.316   0.246   5.042
 3211TIP3    H2 9575   3.283   0.298   5.180
 3212TIP3   OH2 9576   0.349   2.659   5.072
 3212TIP3    H1 9577   0.366   2.581   5.125
 3212TIP3    H2 9578   0.435   2.700   5.060
 3213TIP3   OH2 9579   7.846   5.276   0.658
 3213TIP3    H1 9580   7.760   5.301   0.692
 3213TIP3    H2 9581   7.835   5.275   0.563
 3214TIP3   OH2 9582   2.035   4.175   5.281
 3214TIP3    H1 9583   1.941   4.154   5.289
 3214TIP3    H2 9584   2.036   4.262   5.242
 3215TIP3   OH2 9585   5.846   1.024   6.343
 3215TIP3    H1 9586   5.827   0.934   6.315
 3215TIP3    H2 9587   5.855   1.018   6.438
 3216TIP3   OH2 9588   2.068   4.381   2.780
 3216TIP3    H1 9589   2.087   4.309   2.720
 3216TIP3    H2 9590   2.106   4.353   2.864
 3217TIP3   OH2 9591   7.901   5.346   1.462
 3217TIP3    H1 9592   7.942   5.377   1.381
 3217TIP3    H2 9593   7.926   5.410   1.528
 3218TIP3   OH2 9594   7.286   7.353   2.927
 3218TIP3    H1 9595   7.254   7.287   2.865
 3218TIP3    H2 9596   7.314   7.426   2.872
 3219TIP3   OH2 9597   8.183   6.953   0.188
 3219TIP3    H1 9598   8.146   6.869   0.217
 3219TIP3    H2 9599   8.133   6.976   0.110
 3220TIP3   OH2 9600   0.615   5.286   2.381
 3220TIP3    H1 9601   0.557   5.288   2.457
 3220TIP3    H2 9602   0.701   5.263   2.417
 3221TIP3   OH2 9603   5.813   7.817   5.361
 3221TIP3    H1 9604   5.722   7.823   5.333
 3221TIP3    H2 9605   5.814   7.744   5.423
 3222TIP3   OH2 9606   4.179   2.730   6.622
 3222TIP3    H1 9607   4.272   2.753   6.617
 3222TIP3    H2 9608   4.141   2.771   6.544
 3223TIP3   OH2 9609   2.611   2.289   4.599
 3223TIP3    H1 9610   2.616   2.260   4.508
 3223TIP3    H2 9611   2.549   2.363   4.597
 3224TIP3   OH2 9612   5.856   0.218   1.857
 3224TIP3    H1 9613   5.873   0.194   1.766
 3224TIP3    H2 9614   5.784   0.281   1.852
 3225TIP3   OH2 9615   5.950   0.811   0.241
 3225TIP3    H1 9616   5.915   0.774   0.160
 3225TIP3    H2 9617   5.888   0.880   0.265
 3226TIP3   OH2 9618   3.962   4.918   6.248
 3226TIP3    H1 9619   3.898   4.935   6.317
 3226TIP3    H2 9620   3.962   4.998   6.195
 3227TIP3   OH2 9621   1.077   6.697   4.349
 3227TIP3    H1 9622   1.113   6.656   4.427
 3227TIP3    H2 9623   1.153   6.729   4.301
 3228TIP3   OH2 9624   4.272   2.814   1.463
 3228TIP3    H1 9625   4.351   2.850   1.423
 3228TIP3    H2 9626   4.299   2.728   1.496
 3229TIP3   OH2 9627   6.781   2.139   1.911
 3229TIP3    H1 9628   6.748   2.142   2.001
 3229TIP3    H2 9629   6.771   2.047   1.885
 3230TIP3   OH2 9630   5.369   6.245   0.834
 3230TIP3    H1 9631   5.299   6.309   0.845
 3230TIP3    H2 9632   5.401   6.260   0.745
 3231TIP3   OH2 9633   3.232   5.835   4.755
 3231TIP3    H1 9634   3.301   5.895   4.784
 3231TIP3    H2 9635   3.279   5.763   4.713
 3232TIP3   OH2 9636   3.263   3.761   5.001
 3232TIP3    H1 9637   3.330   3.760   4.932
 3232TIP3    H2 9638   3.181   3.775   4.955
 3233TIP3   OH2 9639   5.355   2.183   5.965
 3233TIP3    H1 9640   5.263   2.205   5.956
 3233TIP3    H2 9641   5.393   2.201   5.878
 3234TIP3   OH2 9642   1.899   5.049   4.915
 3234TIP3    H1 9643   1.874   4.975   4.970
 3234TIP3    H2 9644   1.964   5.013   4.855
 3235TIP3   OH2 9645   0.965   7.494   3.824
 3235TIP3    H1 9646   1.055   7.491   3.793
 3235TIP3    H2 9647   0.912   7.491   3.744
 3236TIP3   OH2 9648   3.106   1.994   4.853
 3236TIP3    H1 9649   3.098   1.902   4.827
 3236TIP3    H2 9650   3.201   2.011   4.851
 3237TIP3   OH2 9651   4.029   5.550   2.507
 3237TIP3    H1 9652   4.013   5.638   2.474
 3237TIP3    H2 9653   4.098   5.562   2.573
 3238TIP3   OH2 9654   1.126   5.745   3.645
 3238TIP3    H1 9655   1.043   5.792   3.643
 3238TIP3    H2 9656   1.144   5.732   3.738
 3239TIP3   OH2 9657   1.015   0.468   3.943
 3239TIP3    H1 9658   1.081   0.398   3.938
 3239TIP3    H2 9659   1.063   0.545   3.970
 3240TIP3   OH2 9660   0.573   6.723   2.204
 3240TIP3    H1 9661   0.637   6.731   2.274
 3240TIP3    H2 9662   0.495   6.687   2.246
 3241TIP3   OH2 9663   3.424   1.670   3.515
 3241TIP3    H1 9664   3.364   1.597   3.498
 3241TIP3    H2 9665   3.369   1.748   3.509
 3242TIP3   OH2 9666   7.946   7.525   6.658
 3242TIP3    H1 9667   7.933   7.611   6.700
 3242TIP3    H2 9668   8.040   7.519   6.644
 3243TIP3   OH2 9669   6.127   5.170   3.460
 3243TIP3    H1 9670   6.101   5.203   3.546
 3243TIP3    H2 9671   6.049   5.124   3.426
 3244TIP3   OH2 9672   2.758   4.287   1.445
 3244TIP3    H1 9673   2.680   4.230   1.448
 3244TIP3    H2 9674   2.826   4.232   1.406
 3245TIP3   OH2 9675   3.716   5.007   0.810
 3245TIP3    H1 9676   3.625   5.015   0.780
 3245TIP3    H2 9677   3.711   5.014   0.905
 3246TIP3   OH2 9678   2.226   7.622   5.796
 3246TIP3    H1 9679   2.208   7.589   5.884
 3246TIP3    H2 9680   2.197   7.552   5.737
 3247TIP3   OH2 9681   3.295   2.841   4.251
 3247TIP3    H1 9682   3.390   2.828   4.250
 3247TIP3    H2 9683   3.282   2.923   4.299
 3248TIP3   OH2 9684   3.409   6.831   5.549
 3248TIP3    H1 9685   3.440   6.796   5.633
 3248TIP3    H2 9686   3.394   6.754   5.495
 3249TIP3   OH2 9687   8.392   4.780   4.199
 3249TIP3    H1 9688   8.305   4.792   4.162
 3249TIP3    H2 9689   8.407   4.686   4.195
 3250TIP3   OH2 9690   6.506   6.900   6.876
 3250TIP3    H1 9691   6.466   6.967   6.821
 3250TIP3    H2 9692   6.464   6.818   6.850
 3251TIP3   OH2 9693   4.791   2.426   5.133
 3251TIP3    H1 9694   4.838   2.408   5.052
 3251TIP3    H2 9695   4.787   2.342   5.179
 3252TIP3   OH2 9696   3.102   5.327   1.341
 3252TIP3    H1 9697   3.165   5.258   1.362
 3252TIP3    H2 9698   3.054   5.342   1.422
 3253TIP3   OH2 9699   8.154   3.005   4.352
 3253TIP3    H1 9700   8.160   3.000   4.448
 3253TIP3    H2 9701   8.219   2.942   4.321
 3254TIP3   OH2 9702   5.094   3.046   1.116
 3254TIP3    H1 9703   5.010   3.091   1.105
 3254TIP3    H2 9704   5.079   2.959   1.079
 3255TIP3   OH2 9705   6.269   1.427   3.932
 3255TIP3    H1 9706   6.193   1.485   3.936
 3255TIP3    H2 9707   6.328   1.459   4.001
 3256TIP3   OH2 9708   7.968   2.063   3.746
 3256TIP3    H1 9709   7.989   2.060   3.839
 3256TIP3    H2 9710   7.872   2.054   3.742
 3257TIP3   OH2 9711   1.709   1.256   4.601
 3257TIP3    H1 9712   1.650   1.259   4.677
 3257TIP3    H2 9713   1.765   1.180   4.618
 3258TIP3   OH2 9714   6.919   5.819   5.294
 3258TIP3    H1 9715   6.890   5.767   5.219
 3258TIP3    H2 9716   6.936   5.906   5.258
 3259TIP3   OH2 9717   2.552   6.689   0.956
 3259TIP3    H1 9718   2.479   6.637   0.924
 3259TIP3    H2 9719   2.615   6.691   0.884
 3260TIP3   OH2 9720   1.696   0.939   5.637
 3260TIP3    H1 9721   1.718   0.917   5.547
 3260TIP3    H2 9722   1.757   1.009   5.661
 3261TIP3   OH2 9723   1.815   7.654   6.535
 3261TIP3    H1 9724   1.725   7.648   6.504
 3261TIP3    H2 9725   1.806   7.681   6.627
 3262TIP3   OH2 9726   6.715   4.578   0.330
 3262TIP3    H1 9727   6.645   4.558   0.267
 3262TIP3    H2 9728   6.742   4.667   0.308
 3263TIP3   OH2 9729   6.276   1.430   0.299
 3263TIP3    H1 9730   6.186   1.399   0.306
 3263TIP3    H2 9731   6.285   1.458   0.208
 3264TIP3   OH2 9732   2.606   1.134   3.026
 3264TIP3    H1 9733   2.582   1.048   2.992
 3264TIP3    H2 9734   2.562   1.140   3.111
 3265TIP3   OH2 9735   1.057   4.229   4.355
 3265TIP3    H1 9736   1.130   4.256   4.301
 3265TIP3    H2 9737   0.990   4.296   4.341
 3266TIP3   OH2 9738   6.353  -0.017   3.035
 3266TIP3    H1 9739   6.328   0.039   3.109
 3266TIP3    H2 9740   6.431   0.024   2.999
 3267TIP3   OH2 9741   0.359   2.243   1.453
 3267TIP3    H1 9742   0.311   2.171   1.494
 3267TIP3    H2 9743   0.292   2.289   1.402
 3268TIP3   OH2 9744   5.280   6.383   5.054
 3268TIP3    H1 9745   5.331   6.409   5.130
 3268TIP3    H2 9746   5.190   6.374   5.087
 3269TIP3   OH2 9747   0.281   2.480   5.538
 3269TIP3    H1 9748   0.270   2.397   5.584
 3269TIP3    H2 9749   0.370   2.476   5.503
 3270TIP3   OH2 9750   2.067   2.296   1.166
 3270TIP3    H1 9751   2.025   2.288   1.080
 3270TIP3    H2 9752   1.997   2.280   1.229
 3271TIP3   OH2 9753   3.457   7.665   6.606
 3271TIP3    H1 9754   3.540   7.618   6.607
 3271TIP3    H2 9755   3.403   7.622   6.672
 3272TIP3   OH2 9756   4.671   5.323   1.119
 3272TIP3    H1 9757   4.657   5.240   1.073
 3272TIP3    H2 9758   4.718   5.298   1.198
 3273TIP3   OH2 9759   6.922   1.231   4.234
 3273TIP3    H1 9760   7.000   1.253   4.284
 3273TIP3    H2 9761   6.879   1.163   4.286
 3274TIP3   OH2 9762   6.862   5.139   3.435
 3274TIP3    H1 9763   6.792   5.192   3.474
 3274TIP3    H2 9764   6.820   5.054   3.418
 3275TIP3   OH2 9765   1.086   2.883   0.263
 3275TIP3    H1 9766   1.045   2.804   0.298
 3275TIP3    H2 9767   1.100   2.938   0.340
 3276TIP3   OH2 9768   4.677   4.251   2.992
 3276TIP3    H1 9769   4.670   4.186   3.062
 3276TIP3    H2 9770   4.615   4.221   2.925
 3277TIP3   OH2 9771   8.255   3.640   3.903
 3277TIP3    H1 9772   8.251   3.709   3.836
 3277TIP3    H2 9773   8.272   3.686   3.985
 3278TIP3   OH2 9774   3.226   0.243   4.867
 3278TIP3    H1 9775   3.248   0.186   4.793
 3278TIP3    H2 9776   3.162   0.194   4.917
 3279TIP3   OH2 9777   1.149   6.431   3.606
 3279TIP3    H1 9778   1.186   6.515   3.634
 3279TIP3    H2 9779   1.224   6.371   3.606
 3280TIP3   OH2 9780   4.547   7.100   5.855
 3280TIP3    H1 9781   4.553   7.006   5.873
 3280TIP3    H2 9782   4.468   7.109   5.801
 3281TIP3   OH2 9783   1.477   7.744   1.204
 3281TIP3    H1 9784   1.489   7.817   1.142
 3281TIP3    H2 9785   1.443   7.673   1.150
 3282TIP3   OH2 9786   1.411   2.575   1.916
 3282TIP3    H1 9787   1.407   2.653   1.861
 3282TIP3    H2 9788   1.412   2.502   1.854
 3283TIP3   OH2 9789   2.042   6.565   4.087
 3283TIP3    H1 9790   2.000   6.610   4.013
 3283TIP3    H2 9791   2.136   6.570   4.069
 3284TIP3   OH2 9792   0.971   5.150   3.305
 3284TIP3    H1 9793   1.011   5.236   3.313
 3284TIP3    H2 9794   1.022   5.094   3.364
 3285TIP3   OH2 9795   3.510   6.205   1.176
 3285TIP3    H1 9796   3.543   6.120   1.145
 3285TIP3    H2 9797   3.415   6.193   1.183
 3286TIP3   OH2 9798   2.569   1.398   1.294
 3286TIP3    H1 9799   2.576   1.438   1.207
 3286TIP3    H2 9800   2.515   1.457   1.345
 3287TIP3   OH2 9801   5.849   6.602   4.680
 3287TIP3    H1 9802   5.768   6.641   4.711
 3287TIP3    H2 9803   5.823   6.551   4.603
 3288TIP3   OH2 9804   2.698   1.017   3.725
 3288TIP3    H1 9805   2.633   0.989   3.789
 3288TIP3    H2 9806   2.744   1.090   3.768
 3289TIP3   OH2 9807   4.817   4.561   5.338
 3289TIP3    H1 9808   4.860   4.543   5.254
 3289TIP3    H2 9809   4.888   4.586   5.397
 3290TIP3   OH2 9810   6.429   1.663   3.709
 3290TIP3    H1 9811   6.411   1.595   3.644
 3290TIP3    H2 9812   6.346   1.675   3.756
 3291TIP3   OH2 9813   5.262   5.232   0.013
 3291TIP3    H1 9814   5.319   5.204   0.085
 3291TIP3    H2 9815   5.232   5.319   0.040
 3292TIP3   OH2 9816   7.676   7.848   2.588
 3292TIP3    H1 9817   7.647   7.793   2.662
 3292TIP3    H2 9818   7.647   7.801   2.510
 3293TIP3   OH2 9819   6.676   6.570   6.738
 3293TIP3    H1 9820   6.713   6.538   6.656
 3293TIP3    H2 9821   6.583   6.583   6.720
 3294TIP3   OH2 9822   4.876   6.611   6.249
 3294TIP3    H1 9823   4.919   6.696   6.242
 3294TIP3    H2 9824   4.912   6.559   6.178
 3295TIP3   OH2 9825   3.396   6.985   3.839
 3295TIP3    H1 9826   3.353   6.911   3.882
 3295TIP3    H2 9827   3.420   7.044   3.910
 3296TIP3   OH2 9828   3.681   4.592   3.257
 3296TIP3    H1 9829   3.622   4.585   3.181
 3296TIP3    H2 9830   3.637   4.541   3.325
 3297TIP3   OH2 9831   3.897   7.177   0.132
 3297TIP3    H1 9832   3.935   7.188   0.219
 3297TIP3    H2 9833   3.803   7.166   0.148
 3298TIP3   OH2 9834   4.855   3.755   3.745
 3298TIP3    H1 9835   4.847   3.757   3.840
 3298TIP3    H2 9836   4.814   3.672   3.719
 3299TIP3   OH2 9837   3.275   0.231   3.086
 3299TIP3    H1 9838   3.216   0.297   3.123
 3299TIP3    H2 9839   3.343   0.282   3.041
 3300TIP3   OH2 9840   6.605   0.071   2.953
 3300TIP3    H1 9841   6.625   0.138   3.019
 3300TIP3    H2 9842   6.577   0.120   2.876
 3301TIP3   OH2 9843   6.797   7.874   6.421
 3301TIP3    H1 9844   6.841   7.875   6.336
 3301TIP3    H2 9845   6.850   7.932   6.476
 3302TIP3   OH2 9846   5.186   0.297   5.076
 3302TIP3    H1 9847   5.170   0.351   4.998
 3302TIP3    H2 9848   5.257   0.238   5.050
 3303TIP3   OH2 9849   1.699   5.014   5.136
 3303TIP3    H1 9850   1.708   4.963   5.217
 3303TIP3    H2 9851   1.764   5.084   5.145
 3304TIP3   OH2 9852   0.105   1.054   5.062
 3304TIP3    H1 9853   0.128   1.138   5.024
 3304TIP3    H2 9854   0.041   1.075   5.130
 3305TIP3   OH2 9855   0.351   4.017   3.457
 3305TIP3    H1 9856   0.378   4.041   3.546
 3305TIP3    H2 9857   0.257   4.038   3.455
 3306TIP3   OH2 9858   1.513   4.139   4.549
 3306TIP3    H1 9859   1.487   4.063   4.496
 3306TIP3    H2 9860   1.521   4.210   4.486
 3307TIP3   OH2 9861   6.877   5.394   3.800
 3307TIP3    H1 9862   6.927   5.475   3.793
 3307TIP3    H2 9863   6.789   5.422   3.826
 3308TIP3   OH2 9864   4.535   7.372   2.294
 3308TIP3    H1 9865   4.465   7.310   2.316
 3308TIP3    H2 9866   4.612   7.337   2.337
 3309TIP3   OH2 9867   3.323   6.290   1.463
 3309TIP3    H1 9868   3.322   6.194   1.455
 3309TIP3    H2 9869   3.241   6.311   1.506
 3310TIP3   OH2 9870   2.732   5.932   6.166
 3310TIP3    H1 9871   2.685   5.910   6.247
 3310TIP3    H2 9872   2.792   6.002   6.192
 3311TIP3   OH2 9873   1.420   1.301   5.789
 3311TIP3    H1 9874   1.342   1.333   5.834
 3311TIP3    H2 9875   1.426   1.209   5.813
 3312TIP3   OH2 9876   6.212   3.201   6.154
 3312TIP3    H1 9877   6.175   3.238   6.074
 3312TIP3    H2 9878   6.203   3.271   6.219
 3313TIP3   OH2 9879   6.865   1.803   0.796
 3313TIP3    H1 9880   6.944   1.749   0.801
 3313TIP3    H2 9881   6.898   1.891   0.775
 3314TIP3   OH2 9882   1.442   3.707   5.156
 3314TIP3    H1 9883   1.353   3.677   5.171
 3314TIP3    H2 9884   1.489   3.630   5.125
 3315TIP3   OH2 9885   2.312   7.106   2.232
 3315TIP3    H1 9886   2.250   7.073   2.297
 3315TIP3    H2 9887   2.366   7.168   2.280
 3316TIP3   OH2 9888   2.521  -0.049   6.323
 3316TIP3    H1 9889   2.612  -0.064   6.296
 3316TIP3    H2 9890   2.512   0.046   6.324
 3317TIP3   OH2 9891   2.428   5.969   3.413
 3317TIP3    H1 9892   2.348   5.930   3.450
 3317TIP3    H2 9893   2.488   5.977   3.487
 3318TIP3   OH2 9894   5.287   2.245   3.257
 3318TIP3    H1 9895   5.248   2.250   3.344
 3318TIP3    H2 9896   5.213   2.245   3.197
 3319TIP3   OH2 9897   2.990   4.542   2.043
 3319TIP3    H1 9898   2.952   4.458   2.070
 3319TIP3    H2 9899   3.077   4.543   2.083
 3320TIP3   OH2 9900   1.334   1.374   1.411
 3320TIP3    H1 9901   1.286   1.425   1.345
 3320TIP3    H2 9902   1.426   1.396   1.395
 3321TIP3   OH2 9903   1.672   2.038   5.625
 3321TIP3    H1 9904   1.587   1.993   5.625
 3321TIP3    H2 9905   1.730   1.979   5.673
 3322TIP3   OH2 9906   2.599   2.150   1.342
 3322TIP3    H1 9907   2.524   2.100   1.375
 3322TIP3    H2 9908   2.675   2.109   1.385
 3323TIP3   OH2 9909   3.326   1.334   1.203
 3323TIP3    H1 9910   3.342   1.323   1.297
 3323TIP3    H2 9911   3.259   1.269   1.183
 3324TIP3   OH2 9912   7.916   2.799   4.277
 3324TIP3    H1 9913   7.827   2.827   4.259
 3324TIP3    H2 9914   7.945   2.757   4.196
 3325TIP3   OH2 9915   7.111   0.419   2.327
 3325TIP3    H1 9916   7.074   0.437   2.240
 3325TIP3    H2 9917   7.036   0.426   2.386
 3326TIP3   OH2 9918   2.443   4.215   3.269
 3326TIP3    H1 9919   2.511   4.148   3.264
 3326TIP3    H2 9920   2.372   4.182   3.214
 3327TIP3   OH2 9921   7.452   4.742   4.118
 3327TIP3    H1 9922   7.358   4.746   4.134
 3327TIP3    H2 9923   7.461   4.744   4.023
 3328TIP3   OH2 9924   1.252   2.337   5.394
 3328TIP3    H1 9925   1.166   2.304   5.369
 3328TIP3    H2 9926   1.307   2.258   5.399
 3329TIP3   OH2 9927   7.157   6.912   4.749
 3329TIP3    H1 9928   7.210   6.856   4.693
 3329TIP3    H2 9929   7.067   6.886   4.731
 3330TIP3   OH2 9930   0.290   0.420   6.086
 3330TIP3    H1 9931   0.310   0.511   6.108
 3330TIP3    H2 9932   0.230   0.391   6.154
 3331TIP3   OH2 9933   4.849   3.912   6.590
 3331TIP3    H1 9934   4.942   3.909   6.569
 3331TIP3    H2 9935   4.815   3.984   6.537
 3332TIP3   OH2 9936   2.111   1.955   5.586
 3332TIP3    H1 9937   2.104   1.968   5.491
 3332TIP3    H2 9938   2.203   1.971   5.606
 3333TIP3   OH2 9939   3.784   1.568   0.018
 3333TIP3    H1 9940   3.729   1.531   0.087
 3333TIP3    H2 9941   3.816   1.651   0.055
 3334TIP3   OH2 9942   7.408   5.144   1.751
 3334TIP3    H1 9943   7.496   5.107   1.757
 3334TIP3    H2 9944   7.383   5.131   1.660
 3335TIP3   OH2 9945   0.892   4.812   2.116
 3335TIP3    H1 9946   0.896   4.889   2.172
 3335TIP3    H2 9947   0.805   4.775   2.133
 3336TIP3   OH2 9948   1.772   4.552   2.198
 3336TIP3    H1 9949   1.746   4.643   2.213
 3336TIP3    H2 9950   1.855   4.543   2.245
 3337TIP3   OH2 9951   4.780   5.327   3.716
 3337TIP3    H1 9952   4.700   5.296   3.672
 3337TIP3    H2 9953   4.748   5.372   3.794
 3338TIP3   OH2 9954   1.750   3.756   2.467
 3338TIP3    H1 9955   1.728   3.761   2.560
 3338TIP3    H2 9956   1.765   3.663   2.450
 3339TIP3   OH2 9957   5.155   6.644   3.012
 3339TIP3    H1 9958   5.209   6.722   2.997
 3339TIP3    H2 9959   5.141   6.642   3.106
 3340TIP3   OH2 9960   5.889   7.281   3.594
 3340TIP3    H1 9961   5.939   7.298   3.674
 3340TIP3    H2 9962   5.875   7.187   3.594
 3341TIP3   OH2 9963   8.128   0.210   0.064
 3341TIP3    H1 9964   8.093   0.297   0.082
 3341TIP3    H2 9965   8.211   0.226   0.019
 3342TIP3   OH2 9966   5.800   5.836   5.005
 3342TIP3    H1 9967   5.865   5.803   4.943
 3342TIP3    H2 9968   5.842   5.912   5.045
 3343TIP3   OH2 9969   4.355   7.681   5.874
 3343TIP3    H1 9970   4.326   7.702   5.785
 3343TIP3    H2 9971   4.314   7.597   5.893
 3344TIP3   OH2 9972   0.430   5.056   5.271
 3344TIP3    H1 9973   0.381   5.131   5.305
 3344TIP3    H2 9974   0.382   5.029   5.193
 3345TIP3   OH2 9975   8.092   2.675   6.266
 3345TIP3    H1 9976   8.002   2.699   6.244
 3345TIP3    H2 9977   8.128   2.753   6.309
 3346TIP3   OH2 9978   0.505   7.493   3.485
 3346TIP3    H1 9979   0.456   7.451   3.414
 3346TIP3    H2 9980   0.451   7.567   3.511
 3347TIP3   OH2 9981   5.114   1.448   0.147
 3347TIP3    H1 9982   5.101   1.356   0.122
 3347TIP3    H2 9983   5.079   1.498   0.074
 3348TIP3   OH2 9984   4.971   7.428   6.137
 3348TIP3    H1 9985   4.927   7.349   6.106
 3348TIP3    H2 9986   5.064   7.410   6.123
 3349TIP3   OH2 9987   1.014   4.997   0.570
 3349TIP3    H1 9988   1.038   4.991   0.478
 3349TIP3    H2 9989   1.073   4.936   0.615
 3350TIP3   OH2 9990   0.799   7.170   2.211
 3350TIP3    H1 9991   0.855   7.235   2.251
 3350TIP3    H2 9992   0.859   7.106   2.173
 3351TIP3   OH2 9993   1.754   3.753   4.746
 3351TIP3    H1 9994   1.760   3.813   4.820
 3351TIP3    H2 9995   1.725   3.670   4.784
 3352TIP3   OH2 9996   2.021   2.963   0.570
 3352TIP3    H1 9997   2.034   3.005   0.485
 3352TIP3    H2 9998   1.981   3.031   0.625
 3353TIP3   OH2 9999   5.769   6.281   5.501
 3353TIP3    H110000   5.769   6.198   5.454
 3353TIP3    H210001   5.677   6.297   5.523
 3354TIP3   OH210002   5.429   1.385   6.672
 3354TIP3    H110003   5.366   1.453   6.698
 3354TIP3    H210004   5.381   1.303   6.680
 3355TIP3   OH210005   3.485   4.934   4.207
 3355TIP3    H110006   3.449   5.010   4.252
 3355TIP3    H210007   3.446   4.859   4.251
 3356TIP3   OH210008   4.725   1.693   2.479
 3356TIP3    H110009   4.814   1.680   2.448
 3356TIP3    H210010   4.726   1.663   2.569
 3357TIP3   OH210011   7.662   0.531   1.609
 3357TIP3    H110012   7.692   0.621   1.617
 3357TIP3    H210013   7.736   0.485   1.569
 3358TIP3   OH210014   2.375   2.092   5.954
 3358TIP3    H110015   2.285   2.122   5.939
 3358TIP3    H210016   2.400   2.132   6.036
 3359TIP3   OH210017   5.414   0.023   4.740
 3359TIP3    H110018   5.482  -0.040   4.762
 3359TIP3    H210019   5.456   0.084   4.680
 3360TIP3   OH210020   4.025   2.409   3.945
 3360TIP3    H110021   3.988   2.457   4.019
 3360TIP3    H210022   4.120   2.422   3.953
 3361TIP3   OH210023   6.317   6.272   0.639
 3361TIP3    H110024   6.359   6.188   0.620
 3361TIP3    H210025   6.312   6.276   0.734
 3362TIP3   OH210026   2.015   6.616   5.504
 3362TIP3    H110027   2.032   6.696   5.454
 3362TIP3    H210028   2.037   6.545   5.444
 3363TIP3   OH210029   2.868   0.766   1.546
 3363TIP3    H110030   2.920   0.774   1.626
 3363TIP3    H210031   2.782   0.738   1.577
 3364TIP3   OH210032   1.626   5.990   6.462
 3364TIP3    H110033   1.617   5.896   6.478
 3364TIP3    H210034   1.652   5.996   6.370
 3365TIP3   OH210035   6.612   1.282   2.940
 3365TIP3    H110036   6.636   1.194   2.911
 3365TIP3    H210037   6.541   1.267   3.003
 3366TIP3   OH210038   5.154   1.791   3.752
 3366TIP3    H110039   5.220   1.778   3.820
 3366TIP3    H210040   5.081   1.736   3.780
 3367TIP3   OH210041   1.548   2.305   3.237
 3367TIP3    H110042   1.488   2.380   3.238
 3367TIP3    H210043   1.611   2.324   3.306
 3368TIP3   OH210044   2.661   7.468   6.356
 3368TIP3    H110045   2.578   7.474   6.307
 3368TIP3    H210046   2.687   7.558   6.371
 3369TIP3   OH210047   3.396   1.847   2.390
 3369TIP3    H110048   3.380   1.915   2.456
 3369TIP3    H210049   3.450   1.782   2.435
 3370TIP3   OH210050   5.154   0.307   1.583
 3370TIP3    H110051   5.140   0.212   1.577
 3370TIP3    H210052   5.128   0.340   1.497
 3371TIP3   OH210053   3.696   4.183   6.547
 3371TIP3    H110054   3.783   4.142   6.538
 3371TIP3    H210055   3.713   4.265   6.593
 3372TIP3   OH210056   4.185   1.129   1.184
 3372TIP3    H110057   4.110   1.129   1.244
 3372TIP3    H210058   4.249   1.187   1.225
 3373TIP3   OH210059   5.638   1.709   5.156
 3373TIP3    H110060   5.729   1.721   5.184
 3373TIP3    H210061   5.610   1.795   5.128
 3374TIP3   OH210062   1.763   3.814   6.831
 3374TIP3    H110063   1.709   3.790   6.756
 3374TIP3    H210064   1.702   3.820   6.905
 3375TIP3   OH210065   5.184   7.405   5.619
 3375TIP3    H110066   5.227   7.460   5.554
 3375TIP3    H210067   5.113   7.459   5.652
 3376TIP3   OH210068   1.308   7.891   5.619
 3376TIP3    H110069   1.261   7.819   5.662
 3376TIP3    H210070   1.387   7.850   5.583
 3377TIP3   OH210071   1.684   3.752   6.318
 3377TIP3    H110072   1.775   3.755   6.289
 3377TIP3    H210073   1.679   3.813   6.391
 3378TIP3   OH210074   7.210   7.292   2.251
 3378TIP3    H110075   7.150   7.224   2.221
 3378TIP3    H210076   7.189   7.368   2.195
 3379TIP3   OH210077   5.164   7.222   4.308
 3379TIP3    H110078   5.113   7.286   4.359
 3379TIP3    H210079   5.135   7.137   4.341
 3380TIP3   OH210080   5.581   5.822   2.187
 3380TIP3    H110081   5.655   5.882   2.197
 3380TIP3    H210082   5.511   5.862   2.238
 3381TIP3   OH210083   1.533   1.338   4.263
 3381TIP3    H110084   1.622   1.365   4.283
 3381TIP3    H210085   1.506   1.394   4.190
 3382TIP3   OH210086   3.690   7.696   4.523
 3382TIP3    H110087   3.658   7.767   4.579
 3382TIP3    H210088   3.637   7.702   4.444
 3383TIP3   OH210089   6.305   4.477   5.369
 3383TIP3    H110090   6.378   4.488   5.309
 3383TIP3    H210091   6.346   4.457   5.453
 3384TIP3   OH210092   0.599   4.719   6.675
 3384TIP3    H110093   0.618   4.766   6.756
 3384TIP3    H210094   0.680   4.725   6.624
 3385TIP3   OH210095   7.558   0.087   3.782
 3385TIP3    H110096   7.544   0.028   3.856
 3385TIP3    H210097   7.565   0.029   3.706
 3386TIP3   OH210098   0.407   7.815   0.832
 3386TIP3    H110099   0.317   7.836   0.857
 3386TIP3    H210100   0.461   7.879   0.877
 3387TIP3   OH210101   6.750   5.629   5.024
 3387TIP3    H110102   6.833   5.674   5.008
 3387TIP3    H210103   6.683   5.693   4.999
 3388TIP3   OH210104   5.241   4.682   0.502
 3388TIP3    H110105   5.177   4.753   0.496
 3388TIP3    H210106   5.278   4.675   0.414
 3389TIP3   OH210107   1.387   2.323   0.208
 3389TIP3    H110108   1.365   2.408   0.245
 3389TIP3    H210109   1.447   2.343   0.136
 3390TIP3   OH210110   4.820   7.676   5.312
 3390TIP3    H110111   4.885   7.730   5.355
 3390TIP3    H210112   4.748   7.736   5.292
 3391TIP3   OH210113   0.233   5.066   6.347
 3391TIP3    H110114   0.289   5.031   6.278
 3391TIP3    H210115   0.288   5.065   6.425
 3392TIP3   OH210116   2.718   4.086   0.438
 3392TIP3    H110117   2.755   4.171   0.415
 3392TIP3    H210118   2.632   4.085   0.396
 3393TIP3   OH210119   1.479   4.640   6.635
 3393TIP3    H110120   1.500   4.725   6.672
 3393TIP3    H210121   1.412   4.658   6.569
 3394TIP3   OH210122   0.494   1.477   3.473
 3394TIP3    H110123   0.512   1.471   3.567
 3394TIP3    H210124   0.455   1.563   3.462
 3395TIP3   OH210125   1.447   4.897   3.530
 3395TIP3    H110126   1.440   4.881   3.436
 3395TIP3    H210127   1.484   4.817   3.565
 3396TIP3   OH210128   7.694   3.550   2.612
 3396TIP3    H110129   7.733   3.468   2.643
 3396TIP3    H210130   7.758   3.585   2.550
 3397TIP3   OH210131   3.109   4.201   4.114
 3397TIP3    H110132   3.158   4.263   4.060
 3397TIP3    H210133   3.176   4.148   4.156
 3398TIP3   OH210134   4.757   7.216   6.341
 3398TIP3    H110135   4.662   7.215   6.348
 3398TIP3    H210136   4.774   7.234   6.248
 3399TIP3   OH210137   3.138   5.376   3.121
 3399TIP3    H110138   3.190   5.430   3.062
 3399TIP3    H210139   3.176   5.288   3.113
 3400TIP3   OH210140   2.600   7.019   1.986
 3400TIP3    H110141   2.604   6.933   1.945
 3400TIP3    H210142   2.610   7.080   1.913
 3401TIP3   OH210143   1.266   1.041   6.459
 3401TIP3    H110144   1.280   0.949   6.483
 3401TIP3    H210145   1.321   1.054   6.382
 3402TIP3   OH210146   2.247   3.308   0.464
 3402TIP3    H110147   2.257   3.402   0.449
 3402TIP3    H210148   2.156   3.289   0.439
 3403TIP3   OH210149   2.326   6.614   2.026
 3403TIP3    H110150   2.416   6.580   2.030
 3403TIP3    H210151   2.312   6.632   1.933
 3404TIP3   OH210152   3.678   1.774   6.191
 3404TIP3    H110153   3.650   1.727   6.112
 3404TIP3    H210154   3.720   1.853   6.157
 3405TIP3   OH210155   3.984   1.052   3.643
 3405TIP3    H110156   3.989   0.973   3.590
 3405TIP3    H210157   4.028   1.030   3.725
 3406TIP3   OH210158   3.698   7.087   6.446
 3406TIP3    H110159   3.626   7.024   6.442
 3406TIP3    H210160   3.749   7.061   6.522
 3407TIP3   OH210161   0.043   2.034   4.527
 3407TIP3    H110162   0.064   2.102   4.590
 3407TIP3    H210163  -0.048   2.010   4.546
 3408TIP3   OH210164   6.758   2.338   2.371
 3408TIP3    H110165   6.758   2.302   2.459
 3408TIP3    H210166   6.800   2.270   2.317
 3409TIP3   OH210167   6.153   4.261   6.371
 3409TIP3    H110168   6.179   4.175   6.338
 3409TIP3    H210169   6.079   4.287   6.316
 3410TIP3   OH210170   5.668   4.998   3.823
 3410TIP3    H110171   5.728   4.970   3.892
 3410TIP3    H210172   5.690   5.089   3.806
 3411TIP3   OH210173   7.331   3.491   2.322
 3411TIP3    H110174   7.328   3.421   2.257
 3411TIP3    H210175   7.257   3.547   2.300
 3412TIP3   OH210176   1.045   2.457   4.720
 3412TIP3    H110177   0.992   2.394   4.672
 3412TIP3    H210178   1.100   2.405   4.777
 3413TIP3   OH210179   8.215   1.364   5.105
 3413TIP3    H110180   8.158   1.313   5.048
 3413TIP3    H210181   8.186   1.455   5.094
 3414TIP3   OH210182   5.113   1.886   0.963
 3414TIP3    H110183   5.184   1.941   0.996
 3414TIP3    H210184   5.089   1.927   0.879
 3415TIP3   OH210185   4.940   6.030   6.252
 3415TIP3    H110186   5.024   6.039   6.296
 3415TIP3    H210187   4.913   6.120   6.233
 3416TIP3   OH210188   0.937   0.590   1.138
 3416TIP3    H110189   1.019   0.634   1.161
 3416TIP3    H210190   0.869   0.655   1.158
 3417TIP3   OH210191   3.913   2.202   6.205
 3417TIP3    H110192   3.910   2.289   6.166
 3417TIP3    H210193   3.964   2.214   6.286
 3418TIP3   OH210194   8.230   5.272   1.560
 3418TIP3    H110195   8.228   5.342   1.494
 3418TIP3    H210196   8.261   5.195   1.512
 3419TIP3   OH210197   8.370   7.806   3.160
 3419TIP3    H110198   8.282   7.806   3.198
 3419TIP3    H210199   8.417   7.874   3.208
 3420TIP3   OH210200   1.320   4.450   2.961
 3420TIP3    H110201   1.405   4.445   2.917
 3420TIP3    H210202   1.302   4.360   2.988
 3421TIP3   OH210203   3.607   5.476   3.999
 3421TIP3    H110204   3.610   5.455   4.092
 3421TIP3    H210205   3.670   5.548   3.989
 3422TIP3   OH210206   1.216   7.001   0.391
 3422TIP3    H110207   1.252   6.912   0.399
 3422TIP3    H210208   1.122   6.988   0.380
 3423TIP3   OH210209   1.324   4.526   4.819
 3423TIP3    H110210   1.318   4.453   4.758
 3423TIP3    H210211   1.366   4.596   4.769
 3424TIP3   OH210212   6.175   5.370   6.806
 3424TIP3    H110213   6.219   5.429   6.745
 3424TIP3    H210214   6.224   5.287   6.800
 3425TIP3   OH210215   6.399   3.784   3.369
 3425TIP3    H110216   6.465   3.828   3.422
 3425TIP3    H210217   6.343   3.854   3.337
 3426TIP3   OH210218   0.447   2.241   4.158
 3426TIP3    H110219   0.381   2.192   4.109
 3426TIP3    H210220   0.402   2.321   4.186
 3427TIP3   OH210221   7.544   2.859   2.478
 3427TIP3    H110222   7.614   2.844   2.414
 3427TIP3    H210223   7.539   2.955   2.486
 3428TIP3   OH210224   1.483   3.127   1.801
 3428TIP3    H110225   1.507   3.067   1.872
 3428TIP3    H210226   1.535   3.206   1.817
 3429TIP3   OH210227   0.475   7.152   0.730
 3429TIP3    H110228   0.382   7.134   0.741
 3429TIP3    H210229   0.493   7.132   0.638
 3430TIP3   OH210230   5.198   0.899   0.257
 3430TIP3    H110231   5.166   0.811   0.237
 3430TIP3    H210232   5.273   0.885   0.314
 3431TIP3   OH210233   4.881   2.952   4.724
 3431TIP3    H110234   4.789   2.931   4.706
 3431TIP3    H210235   4.930   2.908   4.655
 3432TIP3   OH210236   6.470   1.879   1.132
 3432TIP3    H110237   6.375   1.886   1.118
 3432TIP3    H210238   6.505   1.854   1.047
 3433TIP3   OH210239   6.859   4.236   3.477
 3433TIP3    H110240   6.794   4.305   3.462
 3433TIP3    H210241   6.942   4.277   3.454
 3434TIP3   OH210242   0.087   4.310   1.545
 3434TIP3    H110243   0.015   4.280   1.600
 3434TIP3    H210244   0.097   4.241   1.478
 3435TIP3   OH210245   1.798   7.510   0.995
 3435TIP3    H110246   1.872   7.544   0.944
 3435TIP3    H210247   1.751   7.454   0.934
 3436TIP3   OH210248   2.542   2.355   0.775
 3436TIP3    H110249   2.623   2.314   0.806
 3436TIP3    H210250   2.554   2.448   0.791
 3437TIP3   OH210251   4.261   0.429   6.036
 3437TIP3    H110252   4.190   0.409   5.975
 3437TIP3    H210253   4.282   0.345   6.077
 3438TIP3   OH210254   4.861   3.902   0.023
 3438TIP3    H110255   4.893   3.813   0.012
 3438TIP3    H210256   4.766   3.896   0.012
 3439TIP3   OH210257   1.659   3.224   3.483
 3439TIP3    H110258   1.707   3.172   3.547
 3439TIP3    H210259   1.678   3.182   3.399
 3440TIP3   OH210260   3.699   5.728   5.258
 3440TIP3    H110261   3.613   5.762   5.234
 3440TIP3    H210262   3.681   5.663   5.326
 3441TIP3   OH210263   6.374   2.069   6.558
 3441TIP3    H110264   6.306   2.025   6.507
 3441TIP3    H210265   6.456   2.038   6.519
 3442TIP3   OH210266   0.604   6.733   0.382
 3442TIP3    H110267   0.586   6.768   0.469
 3442TIP3    H210268   0.581   6.804   0.322
 3443TIP3   OH210269   0.449   0.660   5.171
 3443TIP3    H110270   0.384   0.714   5.125
 3443TIP3    H210271   0.400   0.623   5.245
 3444TIP3   OH210272   7.288   2.517   3.904
 3444TIP3    H110273   7.232   2.590   3.933
 3444TIP3    H210274   7.307   2.468   3.984
 3445TIP3   OH210275   7.746   2.129   6.765
 3445TIP3    H110276   7.667   2.182   6.775
 3445TIP3    H210277   7.722   2.043   6.800
 3446TIP3   OH210278   6.951   4.453   1.132
 3446TIP3    H110279   6.895   4.524   1.163
 3446TIP3    H210280   7.007   4.493   1.066
 3447TIP3   OH210281   5.230   3.566   4.499
 3447TIP3    H110282   5.167   3.575   4.428
 3447TIP3    H210283   5.177   3.566   4.579
 3448TIP3   OH210284   3.638   7.303   3.962
 3448TIP3    H110285   3.577   7.245   4.009
 3448TIP3    H210286   3.675   7.248   3.893
 3449TIP3   OH210287   3.074   2.651   3.440
 3449TIP3    H110288   3.103   2.717   3.503
 3449TIP3    H210289   2.979   2.646   3.452
 3450TIP3   OH210290   3.461   3.593   0.119
 3450TIP3    H110291   3.483   3.505   0.087
 3450TIP3    H210292   3.422   3.637   0.043
 3451TIP3   OH210293   3.233   1.901   0.883
 3451TIP3    H110294   3.304   1.911   0.947
 3451TIP3    H210295   3.197   1.814   0.901
 3452TIP3   OH210296   1.354   7.252   4.463
 3452TIP3    H110297   1.428   7.195   4.482
 3452TIP3    H210298   1.370   7.284   4.374
 3453TIP3   OH210299   2.487   5.620   3.358
 3453TIP3    H110300   2.536   5.699   3.334
 3453TIP3    H210301   2.396   5.642   3.339
 3454TIP3   OH210302   4.211   7.288   4.596
 3454TIP3    H110303   4.290   7.328   4.559
 3454TIP3    H210304   4.147   7.291   4.525
 3455TIP3   OH210305   0.224   2.352   1.246
 3455TIP3    H110306   0.262   2.439   1.239
 3455TIP3    H210307   0.156   2.350   1.179
 3456TIP3   OH210308   0.195   7.197   2.505
 3456TIP3    H110309   0.250   7.276   2.505
 3456TIP3    H210310   0.256   7.125   2.492
 3457TIP3   OH210311   1.188   7.090   2.505
 3457TIP3    H110312   1.119   7.023   2.511
 3457TIP3    H210313   1.237   7.067   2.426
 3458TIP3   OH210314   3.889   1.243   0.528
 3458TIP3    H110315   3.814   1.232   0.586
 3458TIP3    H210316   3.960   1.268   0.587
 3459TIP3   OH210317   6.814   3.880   5.051
 3459TIP3    H110318   6.744   3.815   5.045
 3459TIP3    H210319   6.881   3.850   4.990
 3460TIP3   OH210320   0.486   0.344   2.013
 3460TIP3    H110321   0.492   0.315   1.922
 3460TIP3    H210322   0.461   0.265   2.061
 3461TIP3   OH210323   6.195   3.618   0.457
 3461TIP3    H110324   6.203   3.557   0.530
 3461TIP3    H210325   6.109   3.658   0.469
 3462TIP3   OH210326   0.438   0.880   2.323
 3462TIP3    H110327   0.370   0.934   2.284
 3462TIP3    H210328   0.520   0.923   2.298
 3463TIP3   OH210329   3.564   5.823   2.148
 3463TIP3    H110330   3.531   5.906   2.114
 3463TIP3    H210331   3.602   5.779   2.072
 3464TIP3   OH210332   1.583   1.023   4.520
 3464TIP3    H110333   1.584   1.117   4.499
 3464TIP3    H210334   1.551   1.020   4.610
 3465TIP3   OH210335   3.153   5.154   5.338
 3465TIP3    H110336   3.074   5.150   5.392
 3465TIP3    H210337   3.126   5.118   5.253
 3466TIP3   OH210338   1.175   5.170   6.671
 3466TIP3    H110339   1.230   5.187   6.595
 3466TIP3    H210340   1.118   5.246   6.678
 3467TIP3   OH210341   7.201   2.618   0.659
 3467TIP3    H110342   7.236   2.546   0.607
 3467TIP3    H210343   7.273   2.680   0.665
 3468TIP3   OH210344   6.171   2.301   2.821
 3468TIP3    H110345   6.136   2.368   2.879
 3468TIP3    H210346   6.109   2.228   2.829
 3469TIP3   OH210347   2.196   0.394   1.953
 3469TIP3    H110348   2.191   0.301   1.929
 3469TIP3    H210349   2.149   0.399   2.036
 3470TIP3   OH210350   0.335   6.929   0.418
 3470TIP3    H110351   0.258   6.986   0.424
 3470TIP3    H210352   0.299   6.842   0.406
 3471TIP3   OH210353   5.734   7.585   0.283
 3471TIP3    H110354   5.769   7.537   0.358
 3471TIP3    H210355   5.796   7.568   0.212
 3472TIP3   OH210356   5.243   6.671   5.174
 3472TIP3    H110357   5.190   6.685   5.095
 3472TIP3    H210358   5.321   6.724   5.161
 3473TIP3   OH210359   2.063   0.147   1.269
 3473TIP3    H110360   1.988   0.097   1.238
 3473TIP3    H210361   2.034   0.186   1.352
 3474TIP3   OH210362   6.503   3.847   3.060
 3474TIP3    H110363   6.470   3.861   3.149
 3474TIP3    H210364   6.541   3.759   3.062
 3475TIP3   OH210365   2.688   2.642   1.298
 3475TIP3    H110366   2.601   2.625   1.335
 3475TIP3    H210367   2.673   2.648   1.204
 3476TIP3   OH210368   4.319   2.755   0.455
 3476TIP3    H110369   4.225   2.739   0.444
 3476TIP3    H210370   4.331   2.762   0.550
 3477TIP3   OH210371   4.903   5.189   4.582
 3477TIP3    H110372   4.886   5.096   4.575
 3477TIP3    H210373   4.912   5.219   4.492
 3478TIP3   OH210374   6.805   2.691   1.653
 3478TIP3    H110375   6.757   2.611   1.635
 3478TIP3    H210376   6.811   2.695   1.748
 3479TIP3   OH210377   0.152   7.358   1.423
 3479TIP3    H110378   0.198   7.441   1.433
 3479TIP3    H210379   0.142   7.348   1.328
 3480TIP3   OH210380   0.276   5.342   0.397
 3480TIP3    H110381   0.192   5.337   0.352
 3480TIP3    H210382   0.336   5.292   0.341
 3481TIP3   OH210383   0.662   0.621   0.764
 3481TIP3    H110384   0.571   0.597   0.750
 3481TIP3    H210385   0.711   0.570   0.698
 3482TIP3   OH210386   1.099   7.442   1.618
 3482TIP3    H110387   1.078   7.472   1.530
 3482TIP3    H210388   1.028   7.382   1.641
 3483TIP3   OH210389   5.768   6.847   5.637
 3483TIP3    H110390   5.854   6.886   5.650
 3483TIP3    H210391   5.779   6.785   5.565
 3484TIP3   OH210392   3.087   6.344   1.603
 3484TIP3    H110393   3.075   6.271   1.663
 3484TIP3    H210394   3.019   6.331   1.536
 3485TIP3   OH210395   3.889   5.838   2.143
 3485TIP3    H110396   3.929   5.886   2.070
 3485TIP3    H210397   3.807   5.804   2.108
 3486TIP3   OH210398   5.347   5.736   3.861
 3486TIP3    H110399   5.325   5.824   3.831
 3486TIP3    H210400   5.307   5.729   3.947
 3487TIP3   OH210401   6.069   2.739   1.494
 3487TIP3    H110402   6.039   2.789   1.571
 3487TIP3    H210403   6.061   2.801   1.421
 3488TIP3   OH210404   0.396   4.028   0.084
 3488TIP3    H110405   0.402   4.099   0.148
 3488TIP3    H210406   0.442   4.060   0.007
 3489TIP3   OH210407   6.739   4.122   3.241
 3489TIP3    H110408   6.721   4.200   3.190
 3489TIP3    H210409   6.779   4.155   3.322
 3490TIP3   OH210410   3.006   6.225   5.132
 3490TIP3    H110411   2.950   6.289   5.087
 3490TIP3    H210412   3.042   6.171   5.061
 3491TIP3   OH210413   0.239   5.706   6.235
 3491TIP3    H110414   0.144   5.692   6.232
 3491TIP3    H210415   0.276   5.618   6.247
 3492TIP3   OH210416   6.116   2.385   6.430
 3492TIP3    H110417   6.184   2.377   6.363
 3492TIP3    H210418   6.050   2.321   6.405
 3493TIP3   OH210419   1.774   2.024   3.466
 3493TIP3    H110420   1.686   2.030   3.504
 3493TIP3    H210421   1.760   2.030   3.372
 3494TIP3   OH210422   7.150   0.535   4.171
 3494TIP3    H110423   7.177   0.492   4.090
 3494TIP3    H210424   7.220   0.596   4.191
 3495TIP3   OH210425   2.255   3.277   4.453
 3495TIP3    H110426   2.192   3.348   4.464
 3495TIP3    H210427   2.310   3.281   4.532
 3496TIP3   OH210428   6.039   0.970   1.521
 3496TIP3    H110429   5.949   1.004   1.519
 3496TIP3    H210430   6.090   1.039   1.564
 3497TIP3   OH210431   7.966   7.839   6.725
 3497TIP3    H110432   7.907   7.896   6.774
 3497TIP3    H210433   8.004   7.896   6.658
 3498TIP3   OH210434   2.418   0.386   5.039
 3498TIP3    H110435   2.455   0.452   5.099
 3498TIP3    H210436   2.407   0.308   5.094
 3499TIP3   OH210437   5.164   5.820   6.744
 3499TIP3    H110438   5.252   5.786   6.730
 3499TIP3    H210439   5.106   5.753   6.707
 3500TIP3   OH210440   4.092   7.628   3.339
 3500TIP3    H110441   4.148   7.635   3.416
 3500TIP3    H210442   4.065   7.536   3.337
 3501TIP3   OH210443   0.478   0.197   5.837
 3501TIP3    H110444   0.493   0.162   5.749
 3501TIP3    H210445   0.386   0.223   5.836
 3502TIP3   OH210446   6.338   3.909   4.363
 3502TIP3    H110447   6.288   3.871   4.291
 3502TIP3    H210448   6.382   3.834   4.403
 3503TIP3   OH210449   4.399   7.368   4.384
 3503TIP3    H110450   4.418   7.461   4.398
 3503TIP3    H210451   4.390   7.360   4.289
 3504TIP3   OH210452   2.144   2.783   3.433
 3504TIP3    H110453   2.202   2.742   3.497
 3504TIP3    H210454   2.061   2.736   3.443
 3505TIP3   OH210455   8.182   6.262   3.212
 3505TIP3    H110456   8.115   6.284   3.147
 3505TIP3    H210457   8.138   6.277   3.296
 3506TIP3   OH210458   3.555   3.199   4.639
 3506TIP3    H110459   3.530   3.113   4.607
 3506TIP3    H210460   3.571   3.187   4.733
 3507TIP3   OH210461   3.201   0.200   1.651
 3507TIP3    H110462   3.288   0.235   1.667
 3507TIP3    H210463   3.178   0.230   1.563
 3508TIP3   OH210464   5.627   1.012   4.507
 3508TIP3    H110465   5.560   1.057   4.456
 3508TIP3    H210466   5.705   1.066   4.497
 3509TIP3   OH210467   6.332   5.440   1.625
 3509TIP3    H110468   6.346   5.529   1.592
 3509TIP3    H210469   6.310   5.451   1.717
 3510TIP3   OH210470   7.824   1.296   5.747
 3510TIP3    H110471   7.877   1.217   5.760
 3510TIP3    H210472   7.836   1.318   5.655
 3511TIP3   OH210473   5.683   6.717   4.455
 3511TIP3    H110474   5.687   6.626   4.426
 3511TIP3    H210475   5.667   6.711   4.550
 3512TIP3   OH210476   5.368   7.170   0.944
 3512TIP3    H110477   5.388   7.255   0.983
 3512TIP3    H210478   5.344   7.191   0.854
 3513TIP3   OH210479   1.675   7.460   6.211
 3513TIP3    H110480   1.594   7.410   6.202
 3513TIP3    H210481   1.716   7.424   6.290
 3514TIP3   OH210482   6.934   4.592   4.834
 3514TIP3    H110483   6.861   4.622   4.780
 3514TIP3    H210484   6.913   4.623   4.922
 3515TIP3   OH210485   2.130   1.600   4.796
 3515TIP3    H110486   2.164   1.577   4.883
 3515TIP3    H210487   2.085   1.521   4.766
 3516TIP3   OH210488   4.250   1.036   4.646
 3516TIP3    H110489   4.235   0.963   4.706
 3516TIP3    H210490   4.265   1.111   4.704
 3517TIP3   OH210491   7.681   6.035   1.640
 3517TIP3    H110492   7.683   6.046   1.735
 3517TIP3    H210493   7.685   5.940   1.627
 3518TIP3   OH210494   0.978   3.513   6.758
 3518TIP3    H110495   1.072   3.511   6.777
 3518TIP3    H210496   0.969   3.576   6.686
 3519TIP3   OH210497   7.176   6.387   3.546
 3519TIP3    H110498   7.172   6.448   3.472
 3519TIP3    H210499   7.098   6.406   3.597
 3520TIP3   OH210500   0.251   0.512   3.030
 3520TIP3    H110501   0.247   0.461   3.111
 3520TIP3    H210502   0.328   0.567   3.040
 3521TIP3   OH210503   4.913   0.286   0.213
 3521TIP3    H110504   4.982   0.315   0.274
 3521TIP3    H210505   4.917   0.349   0.141
 3522TIP3   OH210506   6.533   7.345   0.746
 3522TIP3    H110507   6.472   7.326   0.675
 3522TIP3    H210508   6.599   7.275   0.740
 3523TIP3   OH210509   1.690   0.521   6.685
 3523TIP3    H110510   1.755   0.565   6.631
 3523TIP3    H210511   1.739   0.490   6.761
 3524TIP3   OH210512   5.405   1.952   0.547
 3524TIP3    H110513   5.471   2.012   0.582
 3524TIP3    H210514   5.354   2.005   0.486
 3525TIP3   OH210515   2.902   7.452   1.326
 3525TIP3    H110516   2.955   7.411   1.258
 3525TIP3    H210517   2.819   7.405   1.325
 3526TIP3   OH210518   1.688   2.179   1.866
 3526TIP3    H110519   1.633   2.233   1.809
 3526TIP3    H210520   1.662   2.203   1.955
 3527TIP3   OH210521   3.092   4.950   1.350
 3527TIP3    H110522   3.182   4.934   1.323
 3527TIP3    H210523   3.092   4.933   1.444
 3528TIP3   OH210524   1.531   5.617   3.597
 3528TIP3    H110525   1.540   5.660   3.682
 3528TIP3    H210526   1.605   5.650   3.545
 3529TIP3   OH210527   4.460   1.214   5.714
 3529TIP3    H110528   4.440   1.158   5.640
 3529TIP3    H210529   4.411   1.176   5.787
 3530TIP3   OH210530   4.839   3.253   1.333
 3530TIP3    H110531   4.830   3.222   1.243
 3530TIP3    H210532   4.925   3.295   1.335
 3531TIP3   OH210533   4.082   6.651   3.178
 3531TIP3    H110534   3.998   6.685   3.210
 3531TIP3    H210535   4.062   6.610   3.095
 3532TIP3   OH210536   6.314   7.329   5.092
 3532TIP3    H110537   6.374   7.264   5.128
 3532TIP3    H210538   6.250   7.278   5.042
 3533TIP3   OH210539   7.006   5.084   6.468
 3533TIP3    H110540   6.926   5.106   6.517
 3533TIP3    H210541   7.067   5.053   6.534
 3534TIP3   OH210542   5.238   2.013   4.096
 3534TIP3    H110543   5.159   1.962   4.080
 3534TIP3    H210544   5.233   2.038   4.188
 3535TIP3   OH210545   0.510   1.803   4.336
 3535TIP3    H110546   0.604   1.816   4.324
 3535TIP3    H210547   0.480   1.763   4.254
 3536TIP3   OH210548   3.593   0.306   5.569
 3536TIP3    H110549   3.575   0.239   5.635
 3536TIP3    H210550   3.567   0.266   5.487
 3537TIP3   OH210551   5.709   2.057   2.745
 3537TIP3    H110552   5.640   2.040   2.810
 3537TIP3    H210553   5.718   1.975   2.698
 3538TIP3   OH210554   2.145   2.868   6.238
 3538TIP3    H110555   2.228   2.819   6.237
 3538TIP3    H210556   2.091   2.821   6.301
 3539TIP3   OH210557   2.524   5.652   2.965
 3539TIP3    H110558   2.497   5.660   2.873
 3539TIP3    H210559   2.506   5.560   2.987
 3540TIP3   OH210560   6.455   5.222   1.173
 3540TIP3    H110561   6.443   5.189   1.084
 3540TIP3    H210562   6.468   5.143   1.226
 3541TIP3   OH210563   0.464   6.592   0.828
 3541TIP3    H110564   0.551   6.628   0.840
 3541TIP3    H210565   0.424   6.595   0.915
 3542TIP3   OH210566   5.845   0.367   4.479
 3542TIP3    H110567   5.931   0.335   4.504
 3542TIP3    H210568   5.796   0.369   4.561
 3543TIP3   OH210569   1.640   0.939   6.604
 3543TIP3    H110570   1.667   0.977   6.688
 3543TIP3    H210571   1.578   0.870   6.628
 3544TIP3   OH210572   8.224   6.592   3.911
 3544TIP3    H110573   8.284   6.609   3.984
 3544TIP3    H210574   8.267   6.634   3.836
 3545TIP3   OH210575   8.026   6.983   4.318
 3545TIP3    H110576   8.008   7.012   4.228
 3545TIP3    H210577   8.039   6.888   4.311
 3546TIP3   OH210578   5.810   6.870   6.298
 3546TIP3    H110579   5.735   6.811   6.296
 3546TIP3    H210580   5.804   6.912   6.384
 3547TIP3   OH210581   5.555   1.982   5.097
 3547TIP3    H110582   5.481   2.009   5.043
 3547TIP3    H210583   5.616   2.056   5.092
 3548TIP3   OH210584   5.567   1.028   5.842
 3548TIP3    H110585   5.495   1.073   5.798
 3548TIP3    H210586   5.531   1.004   5.928
 3549TIP3   OH210587   2.054   1.686   0.940
 3549TIP3    H110588   1.991   1.617   0.919
 3549TIP3    H210589   2.110   1.692   0.862
 3550TIP3   OH210590   5.796   1.196   2.555
 3550TIP3    H110591   5.718   1.183   2.609
 3550TIP3    H210592   5.773   1.156   2.471
 3551TIP3   OH210593   2.724   6.378   0.573
 3551TIP3    H110594   2.664   6.427   0.516
 3551TIP3    H210595   2.707   6.412   0.660
 3552TIP3   OH210596   3.125   6.390   0.165
 3552TIP3    H110597   3.116   6.317   0.226
 3552TIP3    H210598   3.036   6.421   0.150
 3553TIP3   OH210599   3.304   0.028   0.412
 3553TIP3    H110600   3.328   0.088   0.342
 3553TIP3    H210601   3.381  -0.029   0.421
 3554TIP3   OH210602   5.758   0.600   4.018
 3554TIP3    H110603   5.757   0.694   4.037
 3554TIP3    H210604   5.783   0.560   4.101
 3555TIP3   OH210605   0.831   6.746   4.647
 3555TIP3    H110606   0.827   6.729   4.553
 3555TIP3    H210607   0.790   6.832   4.658
 3556TIP3   OH210608   2.553   7.754   5.390
 3556TIP3    H110609   2.505   7.831   5.363
 3556TIP3    H210610   2.522   7.684   5.333
 3557TIP3   OH210611   3.742   5.846   6.852
 3557TIP3    H110612   3.805   5.831   6.782
 3557TIP3    H210613   3.704   5.760   6.869
 3558TIP3   OH210614   1.124   6.713   3.997
 3558TIP3    H110615   1.121   6.743   4.088
 3558TIP3    H210616   1.157   6.789   3.948
 3559TIP3   OH210617   3.730   2.303   6.699
 3559TIP3    H110618   3.706   2.277   6.788
 3559TIP3    H210619   3.648   2.332   6.659
 3560TIP3   OH210620   3.385   1.616   4.650
 3560TIP3    H110621   3.397   1.707   4.623
 3560TIP3    H210622   3.378   1.567   4.568
 3561TIP3   OH210623   8.190   0.141   4.285
 3561TIP3    H110624   8.119   0.095   4.329
 3561TIP3    H210625   8.242   0.072   4.244
 3562TIP3   OH210626   7.489   0.090   1.684
 3562TIP3    H110627   7.432   0.057   1.753
 3562TIP3    H210628   7.490   0.185   1.696
 3563TIP3   OH210629   7.648   2.567   2.151
 3563TIP3    H110630   7.604   2.651   2.138
 3563TIP3    H210631   7.688   2.548   2.066
 3564TIP3   OH210632   0.569   6.981   5.446
 3564TIP3    H110633   0.656   6.998   5.409
 3564TIP3    H210634   0.580   6.996   5.540
 3565TIP3   OH210635   1.744   2.924   4.392
 3565TIP3    H110636   1.741   2.829   4.404
 3565TIP3    H210637   1.653   2.948   4.373
 3566TIP3   OH210638   3.969   3.025   0.751
 3566TIP3    H110639   3.988   2.988   0.837
 3566TIP3    H210640   3.954   3.118   0.768
 3567TIP3   OH210641   2.294   5.076   5.559
 3567TIP3    H110642   2.256   5.065   5.472
 3567TIP3    H210643   2.265   4.999   5.608
 3568TIP3   OH210644   3.922   5.067   2.690
 3568TIP3    H110645   3.891   5.052   2.780
 3568TIP3    H210646   3.979   5.144   2.698
 3569TIP3   OH210647   6.557   6.039   3.534
 3569TIP3    H110648   6.506   6.120   3.531
 3569TIP3    H210649   6.616   6.051   3.609
 3570TIP3   OH210650   7.511   7.087   3.269
 3570TIP3    H110651   7.462   7.081   3.351
 3570TIP3    H210652   7.469   7.159   3.222
 3571TIP3   OH210653   1.049   6.544   2.571
 3571TIP3    H110654   1.013   6.629   2.595
 3571TIP3    H210655   1.062   6.548   2.477
 3572TIP3   OH210656   1.934   5.627   6.520
 3572TIP3    H110657   1.856   5.640   6.574
 3572TIP3    H210658   1.902   5.580   6.443
 3573TIP3   OH210659   6.486   3.170   3.720
 3573TIP3    H110660   6.521   3.172   3.630
 3573TIP3    H210661   6.412   3.109   3.715
 3574TIP3   OH210662   6.642   0.883   0.473
 3574TIP3    H110663   6.703   0.925   0.534
 3574TIP3    H210664   6.609   0.955   0.419
 3575TIP3   OH210665   4.584   2.937   0.363
 3575TIP3    H110666   4.596   3.029   0.338
 3575TIP3    H210667   4.491   2.920   0.347
 3576TIP3   OH210668   6.607   6.446   3.492
 3576TIP3    H110669   6.676   6.506   3.521
 3576TIP3    H210670   6.588   6.474   3.402
 3577TIP3   OH210671   7.125   1.701   5.075
 3577TIP3    H110672   7.157   1.647   5.002
 3577TIP3    H210673   7.030   1.684   5.077
 3578TIP3   OH210674   2.358   0.854   2.272
 3578TIP3    H110675   2.345   0.895   2.187
 3578TIP3    H210676   2.400   0.922   2.325
 3579TIP3   OH210677   7.771   2.664   1.581
 3579TIP3    H110678   7.676   2.678   1.580
 3579TIP3    H210679   7.807   2.752   1.593
 3580TIP3   OH210680   0.003   2.968   4.516
 3580TIP3    H110681  -0.004   2.913   4.438
 3580TIP3    H210682   0.077   2.931   4.564
 3581TIP3   OH210683   4.874   1.858   1.620
 3581TIP3    H110684   4.927   1.877   1.698
 3581TIP3    H210685   4.812   1.791   1.649
 3582TIP3   OH210686   5.617   6.168   0.903
 3582TIP3    H110687   5.526   6.198   0.898
 3582TIP3    H210688   5.655   6.193   0.819
 3583TIP3   OH210689   1.417   4.607   5.646
 3583TIP3    H110690   1.375   4.556   5.715
 3583TIP3    H210691   1.346   4.630   5.586
 3584TIP3   OH210692   0.430   4.522   3.365
 3584TIP3    H110693   0.409   4.442   3.413
 3584TIP3    H210694   0.453   4.493   3.277
 3585TIP3   OH210695   1.757   0.095   6.457
 3585TIP3    H110696   1.694   0.031   6.488
 3585TIP3    H210697   1.717   0.133   6.379
 3586TIP3   OH210698   2.300   7.158   5.500
 3586TIP3    H110699   2.328   7.206   5.578
 3586TIP3    H210700   2.335   7.070   5.513
 3587TIP3   OH210701   4.015   6.815   5.289
 3587TIP3    H110702   3.969   6.804   5.372
 3587TIP3    H210703   4.060   6.732   5.275
 3588TIP3   OH210704   5.354   6.366   2.379
 3588TIP3    H110705   5.389   6.455   2.375
 3588TIP3    H210706   5.259   6.378   2.381
 3589TIP3   OH210707   4.334   7.529   2.000
 3589TIP3    H110708   4.395   7.529   2.074
 3589TIP3    H210709   4.268   7.465   2.024
 3590TIP3   OH210710   6.004   5.284   5.438
 3590TIP3    H110711   6.090   5.317   5.465
 3590TIP3    H210712   5.947   5.361   5.437
 3591TIP3   OH210713   4.789   4.936   2.063
 3591TIP3    H110714   4.874   4.966   2.095
 3591TIP3    H210715   4.777   4.850   2.105
 3592TIP3   OH210716   6.630   7.533   5.509
 3592TIP3    H110717   6.588   7.447   5.499
 3592TIP3    H210718   6.668   7.551   5.424
 3593TIP3   OH210719   6.884   1.935   4.053
 3593TIP3    H110720   6.926   2.019   4.035
 3593TIP3    H210721   6.793   1.948   4.024
 3594TIP3   OH210722   3.745   3.810   0.996
 3594TIP3    H110723   3.676   3.751   1.024
 3594TIP3    H210724   3.815   3.753   0.964
 3595TIP3   OH210725   7.005   3.316   2.912
 3595TIP3    H110726   7.049   3.241   2.954
 3595TIP3    H210727   7.069   3.387   2.916
 3596TIP3   OH210728   8.336   3.787   3.668
 3596TIP3    H110729   8.278   3.834   3.608
 3596TIP3    H210730   8.389   3.855   3.709
 3597TIP3   OH210731   3.968   6.576   0.522
 3597TIP3    H110732   3.991   6.655   0.572
 3597TIP3    H210733   4.032   6.511   0.550
 3598TIP3   OH210734   3.454   2.875   5.164
 3598TIP3    H110735   3.504   2.915   5.092
 3598TIP3    H210736   3.367   2.860   5.127
 3599TIP3   OH210737   6.505   6.813   4.937
 3599TIP3    H110738   6.440   6.775   4.996
 3599TIP3    H210739   6.589   6.800   4.982
 3600TIP3   OH210740   2.839   4.714   3.397
 3600TIP3    H110741   2.923   4.759   3.407
 3600TIP3    H210742   2.778   4.783   3.370
 3601TIP3   OH210743   6.153   5.585   0.227
 3601TIP3    H110744   6.097   5.663   0.232
 3601TIP3    H210745   6.208   5.591   0.306
 3602TIP3   OH210746   0.358   6.723   5.898
 3602TIP3    H110747   0.417   6.794   5.924
 3602TIP3    H210748   0.276   6.742   5.943
 3603TIP3   OH210749   3.008   4.999   5.942
 3603TIP3    H110750   3.100   4.987   5.918
 3603TIP3    H210751   3.001   5.092   5.963
 3604TIP3   OH210752   6.001   6.763   2.743
 3604TIP3    H110753   5.934   6.811   2.693
 3604TIP3    H210754   6.083   6.805   2.718
 3605TIP3   OH210755   7.604   4.900   6.037
 3605TIP3    H110756   7.683   4.927   5.990
 3605TIP3    H210757   7.532   4.936   5.986
 3606TIP3   OH210758   7.508   2.582   5.686
 3606TIP3    H110759   7.494   2.532   5.766
 3606TIP3    H210760   7.603   2.580   5.673
 3607TIP3   OH210761   0.078   3.196   6.090
 3607TIP3    H110762   0.097   3.181   6.183
 3607TIP3    H210763   0.035   3.281   6.089
 3608TIP3   OH210764   3.208   7.230   4.141
 3608TIP3    H110765   3.242   7.319   4.148
 3608TIP3    H210766   3.186   7.206   4.231
 3609TIP3   OH210767   7.924   0.374   1.849
 3609TIP3    H110768   7.988   0.437   1.815
 3609TIP3    H210769   7.975   0.315   1.903
 3610TIP3   OH210770   5.448   0.805   4.111
 3610TIP3    H110771   5.444   0.712   4.133
 3610TIP3    H210772   5.510   0.842   4.173
 3611TIP3   OH210773   5.612   0.419   6.768
 3611TIP3    H110774   5.630   0.393   6.677
 3611TIP3    H210775   5.537   0.478   6.761
 3612TIP3   OH210776   4.947   4.327   5.597
 3612TIP3    H110777   4.906   4.251   5.637
 3612TIP3    H210778   4.881   4.396   5.602
 3613TIP3   OH210779   5.200   4.174   1.256
 3613TIP3    H110780   5.163   4.180   1.168
 3613TIP3    H210781   5.293   4.155   1.242
 3614TIP3   OH210782   2.638   2.246   5.051
 3614TIP3    H110783   2.557   2.214   5.092
 3614TIP3    H210784   2.614   2.259   4.959
 3615TIP3   OH210785   3.736   0.421   5.863
 3615TIP3    H110786   3.786   0.393   5.786
 3615TIP3    H210787   3.704   0.508   5.841
 3616TIP3   OH210788   0.053   0.969  -0.011
 3616TIP3    H110789   0.088   0.930   0.069
 3616TIP3    H210790  -0.024   1.018   0.017
 3617TIP3   OH210791   6.890   1.288   5.411
 3617TIP3    H110792   6.850   1.264   5.494
 3617TIP3    H210793   6.825   1.263   5.345
 3618TIP3   OH210794   5.722   6.674   2.572
 3618TIP3    H110795   5.667   6.629   2.636
 3618TIP3    H210796   5.730   6.763   2.606
 3619TIP3   OH210797   4.686   3.630   6.830
 3619TIP3    H110798   4.703   3.625   6.736
 3619TIP3    H210799   4.753   3.574   6.869
 3620TIP3   OH210800   3.946   7.755   1.776
 3620TIP3    H110801   3.898   7.673   1.763
 3620TIP3    H210802   4.017   7.752   1.712
 3621TIP3   OH210803   2.761   5.561   4.400
 3621TIP3    H110804   2.690   5.498   4.387
 3621TIP3    H210805   2.761   5.577   4.494
 3622TIP3   OH210806   2.262   6.179   5.357
 3622TIP3    H110807   2.285   6.119   5.428
 3622TIP3    H210808   2.287   6.266   5.389
 3623TIP3   OH210809   5.196   0.195   6.365
 3623TIP3    H110810   5.269   0.136   6.386
 3623TIP3    H210811   5.191   0.253   6.440
 3624TIP3   OH210812   3.782   1.226   5.023
 3624TIP3    H110813   3.791   1.275   4.941
 3624TIP3    H210814   3.703   1.173   5.011
 3625TIP3   OH210815   5.752   2.649   1.996
 3625TIP3    H110816   5.730   2.740   1.974
 3625TIP3    H210817   5.718   2.637   2.085
 3626TIP3   OH210818   2.057   6.285   6.605
 3626TIP3    H110819   2.004   6.254   6.679
 3626TIP3    H210820   2.015   6.366   6.578
 3627TIP3   OH210821   4.085   6.634   1.595
 3627TIP3    H110822   4.038   6.555   1.623
 3627TIP3    H210823   4.053   6.703   1.654
 3628TIP3   OH210824   4.995   0.427   3.565
 3628TIP3    H110825   5.059   0.383   3.510
 3628TIP3    H210826   4.955   0.357   3.617
 3629TIP3   OH210827   7.079   2.211   0.962
 3629TIP3    H110828   7.083   2.124   0.999
 3629TIP3    H210829   7.117   2.268   1.028
 3630TIP3   OH210830   7.566   1.718   2.063
 3630TIP3    H110831   7.528   1.696   2.148
 3630TIP3    H210832   7.498   1.769   2.019
 3631TIP3   OH210833   3.234   4.657   2.132
 3631TIP3    H110834   3.224   4.733   2.190
 3631TIP3    H210835   3.269   4.695   2.051
 3632TIP3   OH210836   7.381   4.083   3.313
 3632TIP3    H110837   7.366   4.124   3.399
 3632TIP3    H210838   7.413   3.995   3.334
 3633TIP3   OH210839   6.943   3.817   0.103
 3633TIP3    H110840   6.993   3.898   0.101
 3633TIP3    H210841   6.914   3.809   0.194
 3634TIP3   OH210842   7.556   1.094   4.576
 3634TIP3    H110843   7.611   1.039   4.520
 3634TIP3    H210844   7.601   1.096   4.660
 3635TIP3   OH210845   0.403   5.686   5.005
 3635TIP3    H110846   0.400   5.715   4.914
 3635TIP3    H210847   0.466   5.614   5.005
 3636TIP3   OH210848   0.692   0.572   4.934
 3636TIP3    H110849   0.644   0.499   4.894
 3636TIP3    H210850   0.647   0.650   4.902
 3637TIP3   OH210851   6.925   4.856   6.662
 3637TIP3    H110852   6.912   4.823   6.573
 3637TIP3    H210853   6.979   4.934   6.651
 3638TIP3   OH210854   2.533   1.559   6.133
 3638TIP3    H110855   2.463   1.494   6.146
 3638TIP3    H210856   2.532   1.576   6.039
 3639TIP3   OH210857   3.245   5.908   2.383
 3639TIP3    H110858   3.242   5.883   2.475
 3639TIP3    H210859   3.258   5.826   2.336
 3640TIP3   OH210860   3.006   3.567   3.534
 3640TIP3    H110861   3.002   3.573   3.438
 3640TIP3    H210862   3.095   3.596   3.555
 3641TIP3   OH210863   5.733   6.801   3.838
 3641TIP3    H110864   5.819   6.759   3.850
 3641TIP3    H210865   5.751   6.895   3.845
 3642TIP3   OH210866   0.596   7.460   6.825
 3642TIP3    H110867   0.654   7.446   6.900
 3642TIP3    H210868   0.651   7.497   6.757
 3643TIP3   OH210869   4.552   6.449   5.623
 3643TIP3    H110870   4.576   6.508   5.695
 3643TIP3    H210871   4.547   6.506   5.546
 3644TIP3   OH210872   6.101   1.773   1.650
 3644TIP3    H110873   6.058   1.692   1.620
 3644TIP3    H210874   6.120   1.821   1.569
 3645TIP3   OH210875   7.471   6.269   2.792
 3645TIP3    H110876   7.397   6.318   2.756
 3645TIP3    H210877   7.548   6.309   2.751
 3646TIP3   OH210878   2.430   4.491   2.402
 3646TIP3    H110879   2.459   4.400   2.397
 3646TIP3    H210880   2.350   4.488   2.453
 3647TIP3   OH210881   6.192   1.845   3.669
 3647TIP3    H110882   6.256   1.909   3.699
 3647TIP3    H210883   6.134   1.895   3.611
 3648TIP3   OH210884   1.182   3.189   3.893
 3648TIP3    H110885   1.189   3.168   3.800
 3648TIP3    H210886   1.121   3.124   3.928
 3649TIP3   OH210887   1.182   6.036   5.179
 3649TIP3    H110888   1.172   6.127   5.207
 3649TIP3    H210889   1.241   5.997   5.244
 3650TIP3   OH210890  -0.010   3.832   2.662
 3650TIP3    H110891   0.019   3.756   2.611
 3650TIP3    H210892  -0.045   3.794   2.743
 3651TIP3   OH210893   4.510   1.504   5.421
 3651TIP3    H110894   4.572   1.433   5.437
 3651TIP3    H210895   4.560   1.584   5.435
 3652TIP3   OH210896   4.895   7.935   6.847
 3652TIP3    H110897   4.927   7.847   6.869
 3652TIP3    H210898   4.967   7.976   6.800
 3653TIP3   OH210899   5.108   6.860   4.727
 3653TIP3    H110900   5.077   6.931   4.784
 3653TIP3    H210901   5.161   6.903   4.660
 3654TIP3   OH210902   7.299   5.341   2.423
 3654TIP3    H110903   7.339   5.355   2.509
 3654TIP3    H210904   7.366   5.297   2.371
 3655TIP3   OH210905   1.543   4.312   3.378
 3655TIP3    H110906   1.631   4.343   3.358
 3655TIP3    H210907   1.510   4.279   3.295
 3656TIP3   OH210908   5.069   7.176   6.703
 3656TIP3    H110909   5.139   7.239   6.716
 3656TIP3    H210910   4.992   7.216   6.744
 3657TIP3   OH210911   8.217   1.576   4.229
 3657TIP3    H110912   8.291   1.571   4.168
 3657TIP3    H210913   8.255   1.557   4.314
 3658TIP3   OH210914   8.325   4.941   4.471
 3658TIP3    H110915   8.347   5.033   4.456
 3658TIP3    H210916   8.399   4.892   4.434
 3659TIP3   OH210917   6.860   2.791   6.634
 3659TIP3    H110918   6.945   2.802   6.593
 3659TIP3    H210919   6.836   2.700   6.618
 3660TIP3   OH210920   0.979   2.211   3.690
 3660TIP3    H110921   1.064   2.196   3.730
 3660TIP3    H210922   0.983   2.301   3.658
 3661TIP3   OH210923   6.271   0.900   1.356
 3661TIP3    H110924   6.183   0.900   1.393
 3661TIP3    H210925   6.309   0.817   1.383
 3662TIP3   OH210926   1.008   5.130   4.301
 3662TIP3    H110927   0.952   5.202   4.332
 3662TIP3    H210928   0.947   5.059   4.283
 3663TIP3   OH210929   4.574   0.205   6.415
 3663TIP3    H110930   4.559   0.292   6.379
 3663TIP3    H210931   4.583   0.149   6.338
 3664TIP3   OH210932   6.400   7.735   0.259
 3664TIP3    H110933   6.400   7.640   0.253
 3664TIP3    H210934   6.313   7.758   0.293
 3665TIP3   OH210935   2.179   6.850   0.206
 3665TIP3    H110936   2.253   6.839   0.266
 3665TIP3    H210937   2.215   6.833   0.119
 3666TIP3   OH210938   4.822   4.073   5.700
 3666TIP3    H110939   4.757   4.021   5.749
 3666TIP3    H210940   4.906   4.048   5.738
 3667TIP3   OH210941   5.923   3.566   0.064
 3667TIP3    H110942   5.930   3.662   0.066
 3667TIP3    H210943   6.007   3.536   0.030
 3668TIP3   OH210944   0.198   7.229   6.299
 3668TIP3    H110945   0.195   7.137   6.273
 3668TIP3    H210946   0.151   7.232   6.382
 3669TIP3   OH210947   7.977   6.947   4.761
 3669TIP3    H110948   7.909   6.882   4.740
 3669TIP3    H210949   7.929   7.019   4.801
 3670TIP3   OH210950   8.389   7.880   1.777
 3670TIP3    H110951   8.331   7.954   1.796
 3670TIP3    H210952   8.332   7.804   1.776
 3671TIP3   OH210953   1.042   6.547   3.269
 3671TIP3    H110954   1.092   6.543   3.187
 3671TIP3    H210955   0.950   6.548   3.242
 3672TIP3   OH210956   4.079   5.097   0.247
 3672TIP3    H110957   4.096   5.045   0.169
 3672TIP3    H210958   4.089   5.187   0.219
 3673TIP3   OH210959   4.518   3.329   4.031
 3673TIP3    H110960   4.613   3.315   4.030
 3673TIP3    H210961   4.483   3.253   4.078
 3674TIP3   OH210962   7.956   1.676   4.257
 3674TIP3    H110963   8.046   1.643   4.263
 3674TIP3    H210964   7.963   1.766   4.289
 3675TIP3   OH210965   5.597   7.459   6.668
 3675TIP3    H110966   5.685   7.449   6.633
 3675TIP3    H210967   5.600   7.413   6.753
 3676TIP3   OH210968   0.546   1.308   5.045
 3676TIP3    H110969   0.530   1.367   5.118
 3676TIP3    H210970   0.565   1.365   4.971
 3677TIP3   OH210971   4.584   4.688   3.287
 3677TIP3    H110972   4.615   4.612   3.238
 3677TIP3    H210973   4.566   4.654   3.375
 3678TIP3   OH210974   1.659   7.097   3.024
 3678TIP3    H110975   1.695   7.110   2.936
 3678TIP3    H210976   1.582   7.154   3.027
 3679TIP3   OH210977   3.219   0.357   3.436
 3679TIP3    H110978   3.265   0.298   3.496
 3679TIP3    H210979   3.156   0.301   3.391
 3680TIP3   OH210980   6.057   6.580   1.574
 3680TIP3    H110981   6.113   6.650   1.542
 3680TIP3    H210982   6.012   6.619   1.649
 3681TIP3   OH210983   7.411   5.286   6.231
 3681TIP3    H110984   7.316   5.273   6.232
 3681TIP3    H210985   7.439   5.260   6.319
 3682TIP3   OH210986   6.154   3.660   6.818
 3682TIP3    H110987   6.170   3.748   6.784
 3682TIP3    H210988   6.240   3.618   6.817
 3683TIP3   OH210989   2.880   1.113   1.665
 3683TIP3    H110990   2.801   1.168   1.666
 3683TIP3    H210991   2.926   1.138   1.745
 3684TIP3   OH210992   1.502   7.012   0.897
 3684TIP3    H110993   1.596   7.006   0.917
 3684TIP3    H210994   1.497   6.992   0.804
 3685TIP3   OH210995   4.227   5.014   6.194
 3685TIP3    H110996   4.290   4.949   6.226
 3685TIP3    H210997   4.142   4.975   6.211
 3686TIP3   OH210998   6.909   4.556   1.601
 3686TIP3    H110999   6.866   4.628   1.554
 3686TIP3    H211000   6.867   4.555   1.687
 3687TIP3   OH211001   7.380   2.557   6.414
 3687TIP3    H111002   7.361   2.609   6.492
 3687TIP3    H211003   7.471   2.579   6.392
 3688TIP3   OH211004   1.021   2.274   5.278
 3688TIP3    H111005   0.955   2.259   5.346
 3688TIP3    H211006   0.983   2.236   5.199
 3689TIP3   OH211007   7.952   5.556   2.002
 3689TIP3    H111008   7.882   5.502   2.038
 3689TIP3    H211009   7.996   5.500   1.938
 3690TIP3   OH211010   2.732   2.490   0.184
 3690TIP3    H111011   2.655   2.435   0.168
 3690TIP3    H211012   2.707   2.577   0.152
 3691TIP3   OH211013   2.985   0.193   3.470
 3691TIP3    H111014   3.023   0.194   3.558
 3691TIP3    H211015   2.918   0.261   3.472
 3692TIP3   OH211016   1.924   1.952   5.761
 3692TIP3    H111017   1.918   1.857   5.774
 3692TIP3    H211018   2.005   1.964   5.712
 3693TIP3   OH211019   0.788   7.718   5.739
 3693TIP3    H111020   0.856   7.754   5.682
 3693TIP3    H211021   0.713   7.703   5.681
 3694TIP3   OH211022   8.329   1.444   1.357
 3694TIP3    H111023   8.252   1.397   1.389
 3694TIP3    H211024   8.298   1.490   1.279
 3695TIP3   OH211025   7.088   7.608   1.634
 3695TIP3    H111026   7.037   7.672   1.683
 3695TIP3    H211027   7.032   7.586   1.559
 3696TIP3   OH211028   3.416   1.072   5.559
 3696TIP3    H111029   3.498   1.090   5.606
 3696TIP3    H211030   3.439   1.083   5.466
 3697TIP3   OH211031   3.964   1.495   6.629
 3697TIP3    H111032   3.932   1.573   6.675
 3697TIP3    H211033   4.051   1.479   6.667
 3698TIP3   OH211034   6.820   6.733   1.467
 3698TIP3    H111035   6.743   6.755   1.416
 3698TIP3    H211036   6.890   6.786   1.429
 3699TIP3   OH211037  -0.013   1.228   1.985
 3699TIP3    H111038   0.049   1.181   1.929
 3699TIP3    H211039   0.040   1.258   2.059
 3700TIP3   OH211040   6.448   2.017   5.559
 3700TIP3    H111041   6.395   1.943   5.530
 3700TIP3    H211042   6.507   2.035   5.486
 3701TIP3   OH211043   2.081   1.072   1.000
 3701TIP3    H111044   2.082   1.168   1.007
 3701TIP3    H211045   2.120   1.042   1.081
 3702TIP3   OH211046   0.739   7.177   0.289
 3702TIP3    H111047   0.815   7.119   0.283
 3702TIP3    H211048   0.771   7.254   0.335
 3703TIP3   OH211049   8.238   6.976   4.906
 3703TIP3    H111050   8.241   6.887   4.941
 3703TIP3    H211051   8.162   6.975   4.847
 3704TIP3   OH211052   3.652   3.853   2.974
 3704TIP3    H111053   3.708   3.788   3.018
 3704TIP3    H211054   3.563   3.821   2.989
 3705TIP3   OH211055   2.510   2.496   2.405
 3705TIP3    H111056   2.528   2.449   2.324
 3705TIP3    H211057   2.515   2.429   2.473
 3706TIP3   OH211058   4.600   2.492   6.166
 3706TIP3    H111059   4.583   2.409   6.209
 3706TIP3    H211060   4.550   2.487   6.084
 3707TIP3   OH211061   1.832   4.639   3.431
 3707TIP3    H111062   1.866   4.617   3.518
 3707TIP3    H211063   1.737   4.640   3.441
 3708TIP3   OH211064   2.775   4.938   2.310
 3708TIP3    H111065   2.702   4.916   2.368
 3708TIP3    H211066   2.789   4.859   2.257
 3709TIP3   OH211067   6.181   1.954   1.476
 3709TIP3    H111068   6.275   1.938   1.474
 3709TIP3    H211069   6.165   2.012   1.401
 3710TIP3   OH211070   8.316   4.893   3.610
 3710TIP3    H111071   8.290   4.812   3.653
 3710TIP3    H211072   8.233   4.940   3.595
 3711TIP3   OH211073   0.351   3.870   5.583
 3711TIP3    H111074   0.306   3.920   5.516
 3711TIP3    H211075   0.297   3.792   5.597
 3712TIP3   OH211076   7.158   0.540   2.599
 3712TIP3    H111077   7.171   0.543   2.693
 3712TIP3    H211078   7.187   0.452   2.573
 3713TIP3   OH211079   2.021   5.243   5.592
 3713TIP3    H111080   2.013   5.327   5.637
 3713TIP3    H211081   2.111   5.241   5.559
 3714TIP3   OH211082   7.072   2.998   3.145
 3714TIP3    H111083   7.146   2.939   3.131
 3714TIP3    H211084   7.084   3.068   3.080
 3715TIP3   OH211085   7.485   1.196   5.050
 3715TIP3    H111086   7.421   1.218   4.983
 3715TIP3    H211087   7.453   1.240   5.129
 3716TIP3   OH211088   1.414   1.403   0.882
 3716TIP3    H111089   1.404   1.394   0.787
 3716TIP3    H211090   1.325   1.418   0.913
 3717TIP3   OH211091   5.938   6.605   1.061
 3717TIP3    H111092   5.851   6.644   1.054
 3717TIP3    H211093   5.944   6.577   1.153
 3718TIP3   OH211094   7.489   3.746   6.070
 3718TIP3    H111095   7.399   3.771   6.091
 3718TIP3    H211096   7.543   3.798   6.130
 3719TIP3   OH211097   6.932   0.218   3.029
 3719TIP3    H111098   6.947   0.143   3.087
 3719TIP3    H211099   6.945   0.294   3.085
 3720TIP3   OH211100   2.175   0.652   5.233
 3720TIP3    H111101   2.141   0.580   5.180
 3720TIP3    H211102   2.222   0.707   5.172
 3721TIP3   OH211103   7.610   0.509   6.187
 3721TIP3    H111104   7.609   0.416   6.209
 3721TIP3    H211105   7.563   0.551   6.259
 3722TIP3   OH211106   6.674   6.905   5.321
 3722TIP3    H111107   6.681   6.837   5.388
 3722TIP3    H211108   6.723   6.871   5.247
 3723TIP3   OH211109   2.664   6.373   0.847
 3723TIP3    H111110   2.755   6.366   0.877
 3723TIP3    H211111   2.619   6.419   0.917
 3724TIP3   OH211112   5.546   3.248   3.232
 3724TIP3    H111113   5.456   3.280   3.229
 3724TIP3    H211114   5.596   3.310   3.178
 3725TIP3   OH211115   6.397   2.026   6.119
 3725TIP3    H111116   6.490   2.005   6.126
 3725TIP3    H211117   6.356   1.942   6.099
 3726TIP3   OH211118   1.048   3.201   0.587
 3726TIP3    H111119   0.992   3.150   0.527
 3726TIP3    H211120   1.063   3.143   0.661
 3727TIP3   OH211121   3.467   6.316   4.032
 3727TIP3    H111122   3.542   6.297   4.089
 3727TIP3    H211123   3.458   6.237   3.978
 3728TIP3   OH211124   5.758   3.222   6.255
 3728TIP3    H111125   5.770   3.314   6.233
 3728TIP3    H211126   5.672   3.218   6.296
 3729TIP3   OH211127   6.169   3.500   4.401
 3729TIP3    H111128   6.117   3.553   4.340
 3729TIP3    H211129   6.192   3.561   4.471
 3730TIP3   OH211130   2.891   2.252   0.481
 3730TIP3    H111131   2.950   2.328   0.483
 3730TIP3    H211132   2.876   2.237   0.387
 3731TIP3   OH211133   2.005   7.440   6.262
 3731TIP3    H111134   1.927   7.418   6.314
 3731TIP3    H211135   2.058   7.494   6.320
 3732TIP3   OH211136   8.385   7.035   4.471
 3732TIP3    H111137   8.318   6.977   4.508
 3732TIP3    H211138   8.463   6.980   4.465
 3733TIP3   OH211139   6.650   7.454   1.740
 3733TIP3    H111140   6.678   7.509   1.667
 3733TIP3    H211141   6.730   7.439   1.791
 3734TIP3   OH211142   4.509   7.087   2.605
 3734TIP3    H111143   4.471   7.152   2.664
 3734TIP3    H211144   4.435   7.034   2.576
 3735TIP3   OH211145   1.853   1.714   5.867
 3735TIP3    H111146   1.771   1.664   5.859
 3735TIP3    H211147   1.917   1.650   5.898
 3736TIP3   OH211148   1.553   1.613   4.462
 3736TIP3    H111149   1.601   1.541   4.421
 3736TIP3    H211150   1.617   1.684   4.469
 3737TIP3   OH211151   0.323   6.107   4.595
 3737TIP3    H111152   0.399   6.101   4.538
 3737TIP3    H211153   0.323   6.198   4.625
 3738TIP3   OH211154   3.058   1.091   2.696
 3738TIP3    H111155   3.007   1.075   2.616
 3738TIP3    H211156   2.992   1.109   2.763
 3739TIP3   OH211157   7.296   7.665   6.363
 3739TIP3    H111158   7.372   7.695   6.414
 3739TIP3    H211159   7.223   7.667   6.425
 3740TIP3   OH211160   4.611   5.932   3.860
 3740TIP3    H111161   4.571   5.846   3.849
 3740TIP3    H211162   4.567   5.987   3.795
 3741TIP3   OH211163   1.910   5.821   3.633
 3741TIP3    H111164   1.962   5.744   3.611
 3741TIP3    H211165   1.825   5.806   3.591
 3742TIP3   OH211166   2.496   7.568   5.817
 3742TIP3    H111167   2.404   7.592   5.816
 3742TIP3    H211168   2.505   7.507   5.744
 3743TIP3   OH211169   7.114   5.824   2.555
 3743TIP3    H111170   7.139   5.732   2.560
 3743TIP3    H211171   7.114   5.855   2.645
 3744TIP3   OH211172   2.068   0.331   4.301
 3744TIP3    H111173   2.006   0.397   4.332
 3744TIP3    H211174   2.033   0.303   4.217
 3745TIP3   OH211175   1.204   5.593   5.011
 3745TIP3    H111176   1.146   5.655   5.055
 3745TIP3    H211177   1.197   5.513   5.063
 3746TIP3   OH211178   5.817   6.486   2.847
 3746TIP3    H111179   5.902   6.529   2.854
 3746TIP3    H211180   5.838   6.393   2.837
 3747TIP3   OH211181   2.507   7.332   5.969
 3747TIP3    H111182   2.593   7.292   5.978
 3747TIP3    H211183   2.525   7.420   5.937
 3748TIP3   OH211184   7.057   4.982   4.086
 3748TIP3    H111185   7.061   4.950   4.176
 3748TIP3    H211186   7.122   5.052   4.082
 3749TIP3   OH211187   1.515   4.293   6.865
 3749TIP3    H111188   1.547   4.367   6.813
 3749TIP3    H211189   1.426   4.318   6.891
 3750TIP3   OH211190   0.161   3.706   5.657
 3750TIP3    H111191   0.183   3.628   5.606
 3750TIP3    H211192   0.114   3.671   5.733
 3751TIP3   OH211193   3.943   5.594   6.365
 3751TIP3    H111194   3.871   5.608   6.427
 3751TIP3    H211195   4.021   5.626   6.410
 3752TIP3   OH211196   0.487   6.495   4.116
 3752TIP3    H111197   0.544   6.423   4.140
 3752TIP3    H211198   0.406   6.453   4.087
 3753TIP3   OH211199   7.632   0.191   6.012
 3753TIP3    H111200   7.686   0.257   5.969
 3753TIP3    H211201   7.615   0.126   5.944
 3754TIP3   OH211202   5.751   4.907   1.837
 3754TIP3    H111203   5.768   4.842   1.905
 3754TIP3    H211204   5.825   4.968   1.844
 3755TIP3   OH211205   4.297   7.514   3.134
 3755TIP3    H111206   4.339   7.596   3.161
 3755TIP3    H211207   4.206   7.538   3.118
 3756TIP3   OH211208   1.068   2.246   0.884
 3756TIP3    H111209   1.143   2.271   0.830
 3756TIP3    H211210   1.103   2.184   0.947
 3757TIP3   OH211211   0.933   5.129   1.390
 3757TIP3    H111212   1.000   5.069   1.358
 3757TIP3    H211213   0.977   5.214   1.395
 3758TIP3   OH211214   7.560   7.311   1.460
 3758TIP3    H111215   7.621   7.324   1.387
 3758TIP3    H211216   7.587   7.229   1.500
 3759TIP3   OH211217   3.692   6.147   0.903
 3759TIP3    H111218   3.656   6.097   0.830
 3759TIP3    H211219   3.648   6.112   0.981
 3760TIP3   OH211220   4.152   7.042   3.031
 3760TIP3    H111221   4.110   7.128   3.032
 3760TIP3    H211222   4.238   7.056   2.992
 3761TIP3   OH211223   3.834   6.417   1.277
 3761TIP3    H111224   3.891   6.487   1.311
 3761TIP3    H211225   3.818   6.441   1.186
 3762TIP3   OH211226   7.848   1.234   6.674
 3762TIP3    H111227   7.801   1.225   6.757
 3762TIP3    H211228   7.888   1.321   6.679
 3763TIP3   OH211229   1.579   6.368   6.236
 3763TIP3    H111230   1.545   6.457   6.234
 3763TIP3    H211231   1.670   6.376   6.208
 3764TIP3   OH211232   6.739   3.843   2.812
 3764TIP3    H111233   6.701   3.870   2.729
 3764TIP3    H211234   6.690   3.763   2.835
 3765TIP3   OH211235   3.744   3.521   1.679
 3765TIP3    H111236   3.719   3.527   1.587
 3765TIP3    H211237   3.839   3.522   1.678
 3766TIP3   OH211238   0.577   2.767   5.539
 3766TIP3    H111239   0.591   2.802   5.451
 3766TIP3    H211240   0.665   2.763   5.576
 3767TIP3   OH211241   2.136   7.049   2.422
 3767TIP3    H111242   2.103   6.963   2.394
 3767TIP3    H211243   2.175   7.032   2.507
 3768TIP3   OH211244   4.707   1.224   3.157
 3768TIP3    H111245   4.675   1.281   3.227
 3768TIP3    H211246   4.720   1.283   3.082
 3769TIP3   OH211247   6.626   0.903   6.439
 3769TIP3    H111248   6.720   0.890   6.453
 3769TIP3    H211249   6.616   0.913   6.344
 3770TIP3   OH211250   4.435   1.153   6.080
 3770TIP3    H111251   4.509   1.186   6.130
 3770TIP3    H211252   4.366   1.219   6.092
 3771TIP3   OH211253   5.234   0.721   0.903
 3771TIP3    H111254   5.290   0.797   0.919
 3771TIP3    H211255   5.150   0.758   0.874
 3772TIP3   OH211256   2.090   5.721   4.027
 3772TIP3    H111257   2.022   5.661   4.056
 3772TIP3    H211258   2.142   5.670   3.964
 3773TIP3   OH211259   3.838   2.595   1.134
 3773TIP3    H111260   3.925   2.559   1.150
 3773TIP3    H211261   3.792   2.526   1.085
 3774TIP3   OH211262   3.905   1.180   5.867
 3774TIP3    H111263   3.862   1.265   5.856
 3774TIP3    H211264   3.994   1.194   5.833
 3775TIP3   OH211265   4.702   0.813   3.798
 3775TIP3    H111266   4.661   0.856   3.723
 3775TIP3    H211267   4.711   0.721   3.771
 3776TIP3   OH211268   2.286   1.672   3.229
 3776TIP3    H111269   2.309   1.675   3.136
 3776TIP3    H211270   2.364   1.638   3.273
 3777TIP3   OH211271   5.419   3.202   1.160
 3777TIP3    H111272   5.400   3.275   1.100
 3777TIP3    H211273   5.486   3.236   1.219
 3778TIP3   OH211274   0.145   7.444   5.126
 3778TIP3    H111275   0.156   7.399   5.209
 3778TIP3    H211276   0.100   7.526   5.148
 3779TIP3   OH211277   6.158   0.124   1.372
 3779TIP3    H111278   6.210   0.197   1.339
 3779TIP3    H211279   6.162   0.059   1.302
 3780TIP3   OH211280   2.255   5.137   4.817
 3780TIP3    H111281   2.235   5.148   4.910
 3780TIP3    H211282   2.299   5.052   4.813
 3781TIP3   OH211283   5.010   3.244   5.440
 3781TIP3    H111284   5.037   3.224   5.351
 3781TIP3    H211285   5.061   3.320   5.465
 3782TIP3   OH211286   3.383   4.772   6.338
 3782TIP3    H111287   3.311   4.806   6.391
 3782TIP3    H211288   3.347   4.764   6.250
 3783TIP3   OH211289   6.303   7.094   3.931
 3783TIP3    H111290   6.256   7.058   4.006
 3783TIP3    H211291   6.265   7.050   3.855
 3784TIP3   OH211292   4.665   3.797   5.458
 3784TIP3    H111293   4.679   3.892   5.462
 3784TIP3    H211294   4.749   3.759   5.481
 3785TIP3   OH211295   0.695   7.296   0.828
 3785TIP3    H111296   0.628   7.227   0.822
 3785TIP3    H211297   0.657   7.360   0.888
 3786TIP3   OH211298   4.386   4.831   6.334
 3786TIP3    H111299   4.442   4.867   6.403
 3786TIP3    H211300   4.339   4.759   6.375
 3787TIP3   OH211301   0.903   2.867   3.031
 3787TIP3    H111302   0.886   2.920   3.109
 3787TIP3    H211303   0.862   2.783   3.050
 3788TIP3   OH211304   4.419   0.048   1.981
 3788TIP3    H111305   4.444  -0.038   1.948
 3788TIP3    H211306   4.357   0.030   2.052
 3789TIP3   OH211307   5.237   1.756   6.829
 3789TIP3    H111308   5.313   1.717   6.786
 3789TIP3    H211309   5.262   1.847   6.843
 3790TIP3   OH211310   3.258   6.283   0.515
 3790TIP3    H111311   3.204   6.356   0.484
 3790TIP3    H211312   3.196   6.217   0.545
 3791TIP3   OH211313   1.818   5.766   6.038
 3791TIP3    H111314   1.883   5.783   5.971
 3791TIP3    H211315   1.786   5.678   6.018
 3792TIP3   OH211316   2.266   0.666   0.494
 3792TIP3    H111317   2.311   0.609   0.431
 3792TIP3    H211318   2.317   0.748   0.492
 3793TIP3   OH211319   6.853   4.721   2.040
 3793TIP3    H111320   6.908   4.646   2.061
 3793TIP3    H211321   6.848   4.771   2.121
 3794TIP3   OH211322   8.140   4.947   0.883
 3794TIP3    H111323   8.185   4.969   0.801
 3794TIP3    H211324   8.210   4.942   0.948
 3795TIP3   OH211325   3.657   1.517   3.582
 3795TIP3    H111326   3.654   1.429   3.544
 3795TIP3    H211327   3.572   1.555   3.560
 3796TIP3   OH211328   5.014   2.561   6.694
 3796TIP3    H111329   4.978   2.576   6.782
 3796TIP3    H211330   5.065   2.639   6.675
 3797TIP3   OH211331   0.841   0.134   4.342
 3797TIP3    H111332   0.825   0.198   4.272
 3797TIP3    H211333   0.934   0.143   4.362
 3798TIP3   OH211334   4.866   5.471   2.009
 3798TIP3    H111335   4.880   5.381   2.040
 3798TIP3    H211336   4.797   5.506   2.066
 3799TIP3   OH211337   4.438   7.641   4.424
 3799TIP3    H111338   4.395   7.721   4.393
 3799TIP3    H211339   4.468   7.663   4.512
 3800TIP3   OH211340   4.580   2.360   4.788
 3800TIP3    H111341   4.592   2.280   4.838
 3800TIP3    H211342   4.665   2.375   4.745
 3801TIP3   OH211343   4.709   3.560   3.391
 3801TIP3    H111344   4.668   3.549   3.477
 3801TIP3    H211345   4.699   3.653   3.371
 3802TIP3   OH211346   4.237   7.359   0.630
 3802TIP3    H111347   4.216   7.287   0.690
 3802TIP3    H211348   4.169   7.355   0.563
 3803TIP3   OH211349   0.705   6.998   1.300
 3803TIP3    H111350   0.713   7.089   1.274
 3803TIP3    H211351   0.736   6.996   1.391
 3804TIP3   OH211352   2.981   2.543   6.205
 3804TIP3    H111353   2.965   2.452   6.180
 3804TIP3    H211354   2.952   2.595   6.130
 3805TIP3   OH211355   1.945   3.995   4.727
 3805TIP3    H111356   1.888   4.017   4.654
 3805TIP3    H211357   2.018   3.947   4.687
 3806TIP3   OH211358   6.422   2.872   2.603
 3806TIP3    H111359   6.465   2.791   2.575
 3806TIP3    H211360   6.448   2.883   2.694
 3807TIP3   OH211361   1.072   1.743   5.457
 3807TIP3    H111362   1.142   1.678   5.466
 3807TIP3    H211363   1.021   1.713   5.382
 3808TIP3   OH211364   0.369   0.196   0.824
 3808TIP3    H111365   0.463   0.197   0.802
 3808TIP3    H211366   0.352   0.281   0.863
 3809TIP3   OH211367   7.112   3.142   3.944
 3809TIP3    H111368   7.037   3.097   3.903
 3809TIP3    H211369   7.189   3.098   3.908
 3810TIP3   OH211370   2.135   3.690   6.135
 3810TIP3    H111371   2.144   3.784   6.151
 3810TIP3    H211372   2.098   3.654   6.215
 3811TIP3   OH211373   7.529   5.308   4.409
 3811TIP3    H111374   7.450   5.274   4.367
 3811TIP3    H211375   7.597   5.298   4.343
 3812TIP3   OH211376   4.848   4.884   2.390
 3812TIP3    H111377   4.797   4.963   2.372
 3812TIP3    H211378   4.894   4.866   2.307
 3813TIP3   OH211379   3.034   3.431   2.959
 3813TIP3    H111380   3.039   3.352   2.906
 3813TIP3    H211381   2.941   3.449   2.967
 3814TIP3   OH211382   4.870   3.213   6.572
 3814TIP3    H111383   4.908   3.300   6.587
 3814TIP3    H211384   4.791   3.231   6.521
 3815TIP3   OH211385   3.795   5.084   2.100
 3815TIP3    H111386   3.751   5.117   2.021
 3815TIP3    H211387   3.742   5.117   2.172
 3816TIP3   OH211388   7.062   1.854   1.432
 3816TIP3    H111389   7.149   1.817   1.446
 3816TIP3    H211390   7.038   1.893   1.516
 3817TIP3   OH211391   1.430   5.111   1.505
 3817TIP3    H111392   1.516   5.100   1.545
 3817TIP3    H211393   1.439   5.187   1.448
 3818TIP3   OH211394   1.752   6.226   0.245
 3818TIP3    H111395   1.700   6.164   0.296
 3818TIP3    H211396   1.831   6.177   0.221
 3819TIP3   OH211397   1.517   6.863   5.911
 3819TIP3    H111398   1.589   6.926   5.916
 3819TIP3    H211399   1.459   6.898   5.843
 3820TIP3   OH211400   2.980   6.659   0.287
 3820TIP3    H111401   3.074   6.642   0.292
 3820TIP3    H211402   2.958   6.648   0.195
 3821TIP3   OH211403   5.388   7.468   2.731
 3821TIP3    H111404   5.355   7.552   2.700
 3821TIP3    H211405   5.483   7.474   2.721
 3822TIP3   OH211406   4.535   6.349   0.326
 3822TIP3    H111407   4.577   6.344   0.411
 3822TIP3    H211408   4.484   6.430   0.328
 3823TIP3   OH211409   5.853   4.398   0.659
 3823TIP3    H111410   5.924   4.377   0.720
 3823TIP3    H211411   5.776   4.407   0.714
 3824TIP3   OH211412   5.232   6.295   5.397
 3824TIP3    H111413   5.324   6.316   5.384
 3824TIP3    H211414   5.185   6.376   5.377
 3825TIP3   OH211415   7.758   4.215   1.475
 3825TIP3    H111416   7.838   4.169   1.502
 3825TIP3    H211417   7.787   4.282   1.414
 3826TIP3   OH211418   1.350   0.099   0.649
 3826TIP3    H111419   1.268   0.135   0.684
 3826TIP3    H211420   1.414   0.114   0.718
 3827TIP3   OH211421   3.882   6.777   3.297
 3827TIP3    H111422   3.843   6.744   3.378
 3827TIP3    H211423   3.861   6.870   3.297
 3828TIP3   OH211424   0.980   4.543   1.098
 3828TIP3    H111425   1.008   4.630   1.070
 3828TIP3    H211426   1.058   4.504   1.138
 3829TIP3   OH211427   1.284   4.643   3.493
 3829TIP3    H111428   1.289   4.553   3.526
 3829TIP3    H211429   1.337   4.642   3.413
 3830TIP3   OH211430   7.006   7.526   6.554
 3830TIP3    H111431   6.932   7.560   6.502
 3830TIP3    H211432   7.050   7.465   6.495
 3831TIP3   OH211433   2.385   0.572   2.541
 3831TIP3    H111434   2.388   0.483   2.506
 3831TIP3    H211435   2.460   0.616   2.501
 3832TIP3   OH211436   4.729   2.447   4.533
 3832TIP3    H111437   4.760   2.370   4.485
 3832TIP3    H211438   4.794   2.460   4.602
 3833TIP3   OH211439   0.107   1.851   0.401
 3833TIP3    H111440   0.025   1.867   0.449
 3833TIP3    H211441   0.081   1.847   0.309
 3834TIP3   OH211442   4.049   7.567   3.025
 3834TIP3    H111443   3.972   7.595   3.074
 3834TIP3    H211444   4.063   7.636   2.960
 3835TIP3   OH211445   0.351   1.593   0.675
 3835TIP3    H111446   0.258   1.592   0.698
 3835TIP3    H211447   0.385   1.674   0.713
 3836TIP3   OH211448   7.802   7.515   5.033
 3836TIP3    H111449   7.884   7.466   5.031
 3836TIP3    H211450   7.745   7.464   5.090
 3837TIP3   OH211451   6.286   3.679   4.892
 3837TIP3    H111452   6.314   3.688   4.983
 3837TIP3    H211453   6.206   3.626   4.896
 3838TIP3   OH211454   3.604   0.661   5.815
 3838TIP3    H111455   3.602   0.754   5.836
 3838TIP3    H211456   3.521   0.627   5.849
 3839TIP3   OH211457   6.615   5.448   6.164
 3839TIP3    H111458   6.562   5.459   6.085
 3839TIP3    H211459   6.610   5.355   6.185
 3840TIP3   OH211460   2.092   7.433   4.326
 3840TIP3    H111461   2.085   7.458   4.234
 3840TIP3    H211462   2.160   7.366   4.328
 3841TIP3   OH211463   4.883   0.523   0.739
 3841TIP3    H111464   4.914   0.612   0.755
 3841TIP3    H211465   4.860   0.522   0.647
 3842TIP3   OH211466   4.112   1.072   4.135
 3842TIP3    H111467   4.088   1.153   4.181
 3842TIP3    H211468   4.184   1.036   4.187
 3843TIP3   OH211469   3.626   1.698   4.344
 3843TIP3    H111470   3.678   1.697   4.424
 3843TIP3    H211471   3.639   1.611   4.306
 3844TIP3   OH211472   8.197   3.870   5.809
 3844TIP3    H111473   8.137   3.944   5.803
 3844TIP3    H211474   8.154   3.799   5.762
 3845TIP3   OH211475   4.244   6.479   2.545
 3845TIP3    H111476   4.200   6.468   2.461
 3845TIP3    H211477   4.329   6.437   2.534
 3846TIP3   OH211478   2.742   1.125   0.767
 3846TIP3    H111479   2.651   1.147   0.750
 3846TIP3    H211480   2.772   1.190   0.830
 3847TIP3   OH211481   3.074   1.380   0.957
 3847TIP3    H111482   3.091   1.474   0.959
 3847TIP3    H211483   3.081   1.355   0.865
 3848TIP3   OH211484   7.686   7.789   2.161
 3848TIP3    H111485   7.650   7.701   2.164
 3848TIP3    H211486   7.780   7.776   2.147
 3849TIP3   OH211487   0.825   6.668   3.640
 3849TIP3    H111488   0.882   6.609   3.690
 3849TIP3    H211489   0.786   6.612   3.572
 3850TIP3   OH211490   4.968   4.430   6.270
 3850TIP3    H111491   4.943   4.500   6.210
 3850TIP3    H211492   5.004   4.476   6.346
 3851TIP3   OH211493   2.406   4.789   1.245
 3851TIP3    H111494   2.495   4.823   1.248
 3851TIP3    H211495   2.415   4.697   1.271
 3852TIP3   OH211496   2.397   4.600   3.672
 3852TIP3    H111497   2.340   4.549   3.729
 3852TIP3    H211498   2.401   4.686   3.713
 3853TIP3   OH211499   3.554   3.708   3.666
 3853TIP3    H111500   3.511   3.785   3.629
 3853TIP3    H211501   3.646   3.719   3.645
 3854TIP3   OH211502   3.570   1.899   1.920
 3854TIP3    H111503   3.548   1.979   1.968
 3854TIP3    H211504   3.515   1.831   1.960
 3855TIP3   OH211505   3.602   3.872   5.834
 3855TIP3    H111506   3.590   3.943   5.896
 3855TIP3    H211507   3.565   3.904   5.752
 3856TIP3   OH211508   6.894   6.611   3.620
 3856TIP3    H111509   6.865   6.664   3.545
 3856TIP3    H211510   6.970   6.658   3.654
 3857TIP3   OH211511   6.356   0.244   3.284
 3857TIP3    H111512   6.350   0.306   3.211
 3857TIP3    H211513   6.400   0.293   3.353
 3858TIP3   OH211514   3.012   5.148   3.510
 3858TIP3    H111515   2.969   5.113   3.432
 3858TIP3    H211516   3.057   5.227   3.479
 3859TIP3   OH211517   3.235   2.682   1.616
 3859TIP3    H111518   3.243   2.670   1.521
 3859TIP3    H211519   3.319   2.717   1.643
 3860TIP3   OH211520   1.017   5.143   3.656
 3860TIP3    H111521   1.055   5.069   3.704
 3860TIP3    H211522   1.084   5.211   3.660
 3861TIP3   OH211523   6.577   3.170   1.509
 3861TIP3    H111524   6.597   3.215   1.591
 3861TIP3    H211525   6.609   3.081   1.522
 3862TIP3   OH211526   5.155   0.367   0.320
 3862TIP3    H111527   5.156   0.325   0.406
 3862TIP3    H211528   5.223   0.321   0.270
 3863TIP3   OH211529   7.698   7.640   5.977
 3863TIP3    H111530   7.715   7.547   5.962
 3863TIP3    H211531   7.762   7.666   6.042
 3864TIP3   OH211532   5.341   2.949   4.437
 3864TIP3    H111533   5.281   2.981   4.369
 3864TIP3    H211534   5.420   2.923   4.390
 3865TIP3   OH211535   1.819   6.044   3.274
 3865TIP3    H111536   1.810   6.041   3.369
 3865TIP3    H211537   1.768   5.970   3.242
 3866TIP3   OH211538   2.071   2.897   3.189
 3866TIP3    H111539   2.162   2.898   3.161
 3866TIP3    H211540   2.075   2.875   3.283
 3867TIP3   OH211541   3.139   2.245   1.693
 3867TIP3    H111542   3.147   2.218   1.784
 3867TIP3    H211543   3.229   2.242   1.659
 3868TIP3   OH211544   0.232   2.907   4.766
 3868TIP3    H111545   0.254   2.816   4.746
 3868TIP3    H211546   0.177   2.902   4.844
 3869TIP3   OH211547   4.988   7.516   3.919
 3869TIP3    H111548   4.943   7.474   3.992
 3869TIP3    H211549   4.937   7.596   3.902
 3870TIP3   OH211550   4.128   7.688   1.596
 3870TIP3    H111551   4.104   7.698   1.504
 3870TIP3    H211552   4.153   7.597   1.605
 3871TIP3   OH211553   4.378   0.241   6.176
 3871TIP3    H111554   4.413   0.161   6.215
 3871TIP3    H211555   4.410   0.311   6.233
 3872TIP3   OH211556   8.196   7.487   0.491
 3872TIP3    H111557   8.288   7.513   0.486
 3872TIP3    H211558   8.161   7.506   0.404
 3873TIP3   OH211559   1.888   6.649   2.921
 3873TIP3    H111560   1.805   6.631   2.877
 3873TIP3    H211561   1.864   6.682   3.008
 3874TIP3   OH211562   3.062   0.635   5.123
 3874TIP3    H111563   3.038   0.563   5.064
 3874TIP3    H211564   2.994   0.636   5.190
 3875TIP3   OH211565   1.956   0.917   2.602
 3875TIP3    H111566   2.034   0.936   2.550
 3875TIP3    H211567   1.899   0.992   2.589
 3876TIP3   OH211568   6.262   1.337   5.140
 3876TIP3    H111569   6.283   1.393   5.216
 3876TIP3    H211570   6.228   1.256   5.179
 3877TIP3   OH211571   0.558   2.477   1.130
 3877TIP3    H111572   0.649   2.505   1.135
 3877TIP3    H211573   0.538   2.479   1.036
 3878TIP3   OH211574   7.002   5.603   4.532
 3878TIP3    H111575   7.025   5.653   4.610
 3878TIP3    H211576   7.068   5.627   4.467
 3879TIP3   OH211577   8.277   5.642   0.275
 3879TIP3    H111578   8.307   5.711   0.216
 3879TIP3    H211579   8.182   5.639   0.262
 3880TIP3   OH211580   2.014   1.949   3.595
 3880TIP3    H111581   1.944   1.995   3.549
 3880TIP3    H211582   2.031   1.871   3.542
 3881TIP3   OH211583   1.098   1.525   6.724
 3881TIP3    H111584   1.069   1.463   6.791
 3881TIP3    H211585   1.193   1.517   6.723
 3882TIP3   OH211586   0.182   0.799   4.149
 3882TIP3    H111587   0.093   0.765   4.154
 3882TIP3    H211588   0.206   0.791   4.057
 3883TIP3   OH211589   3.952   5.987   4.720
 3883TIP3    H111590   3.877   6.022   4.767
 3883TIP3    H211591   3.967   5.900   4.758
 3884TIP3   OH211592   5.835   3.006   3.380
 3884TIP3    H111593   5.867   3.095   3.371
 3884TIP3    H211594   5.790   3.005   3.465
 3885TIP3   OH211595   1.099   0.612   6.293
 3885TIP3    H111596   1.044   0.539   6.265
 3885TIP3    H211597   1.121   0.592   6.384
 3886TIP3   OH211598   2.572   2.531   6.712
 3886TIP3    H111599   2.538   2.513   6.625
 3886TIP3    H211600   2.586   2.445   6.751
 3887TIP3   OH211601   4.795   6.161   2.565
 3887TIP3    H111602   4.832   6.074   2.574
 3887TIP3    H211603   4.852   6.217   2.618
 3888TIP3   OH211604   5.661   1.143   2.816
 3888TIP3    H111605   5.566   1.128   2.819
 3888TIP3    H211606   5.698   1.068   2.862
 3889TIP3   OH211607   1.159   5.140   5.749
 3889TIP3    H111608   1.172   5.197   5.674
 3889TIP3    H211609   1.069   5.158   5.778
 3890TIP3   OH211610   5.315   3.724   2.036
 3890TIP3    H111611   5.372   3.747   2.109
 3890TIP3    H211612   5.242   3.676   2.076
 3891TIP3   OH211613   0.936   1.795   6.405
 3891TIP3    H111614   0.968   1.705   6.393
 3891TIP3    H211615   0.996   1.848   6.352
 3892TIP3   OH211616   1.268   2.914   2.004
 3892TIP3    H111617   1.360   2.902   1.981
 3892TIP3    H211618   1.223   2.844   1.957
 3893TIP3   OH211619   7.747   3.485   0.740
 3893TIP3    H111620   7.780   3.436   0.814
 3893TIP3    H211621   7.654   3.462   0.736
 3894TIP3   OH211622   7.419   4.458   5.020
 3894TIP3    H111623   7.471   4.485   4.944
 3894TIP3    H211624   7.332   4.442   4.984
 3895TIP3   OH211625   4.961   3.013   3.767
 3895TIP3    H111626   4.998   2.960   3.697
 3895TIP3    H211627   4.921   3.088   3.723
 3896TIP3   OH211628   1.971   5.045   5.802
 3896TIP3    H111629   1.993   5.049   5.709
 3896TIP3    H211630   1.882   5.008   5.804
 3897TIP3   OH211631   1.665   0.626   5.207
 3897TIP3    H111632   1.629   0.576   5.280
 3897TIP3    H211633   1.753   0.591   5.194
 3898TIP3   OH211634   6.431   2.791   3.595
 3898TIP3    H111635   6.364   2.819   3.532
 3898TIP3    H211636   6.492   2.738   3.543
 3899TIP3   OH211637   0.829   1.353   5.186
 3899TIP3    H111638   0.762   1.286   5.199
 3899TIP3    H211639   0.821   1.377   5.093
 3900TIP3   OH211640   3.717   1.501   0.872
 3900TIP3    H111641   3.673   1.444   0.935
 3900TIP3    H211642   3.647   1.528   0.811
 3901TIP3   OH211643   8.166   0.483   1.491
 3901TIP3    H111644   8.183   0.390   1.505
 3901TIP3    H211645   8.247   0.527   1.516
 3902TIP3   OH211646   8.035   4.056   1.996
 3902TIP3    H111647   7.981   3.993   1.949
 3902TIP3    H211648   8.003   4.142   1.969
 3903TIP3   OH211649   6.891   1.239   2.969
 3903TIP3    H111650   6.890   1.234   2.873
 3903TIP3    H211651   6.809   1.283   2.991
 3904TIP3   OH211652   4.883   3.178   2.088
 3904TIP3    H111653   4.838   3.102   2.125
 3904TIP3    H211654   4.816   3.246   2.085
 3905TIP3   OH211655   1.625   0.145   3.926
 3905TIP3    H111656   1.661   0.234   3.916
 3905TIP3    H211657   1.556   0.139   3.861
 3906TIP3   OH211658   4.258   6.957   3.738
 3906TIP3    H111659   4.353   6.942   3.738
 3906TIP3    H211660   4.239   6.991   3.651
 3907TIP3   OH211661   5.836   6.048   1.416
 3907TIP3    H111662   5.812   6.091   1.498
 3907TIP3    H211663   5.866   6.119   1.360
 3908TIP3   OH211664   7.663   5.115   4.866
 3908TIP3    H111665   7.730   5.121   4.934
 3908TIP3    H211666   7.670   5.025   4.834
 3909TIP3   OH211667   4.094   5.329   0.118
 3909TIP3    H111668   4.117   5.325   0.025
 3909TIP3    H211669   4.138   5.407   0.150
 3910TIP3   OH211670   7.358   4.826   0.978
 3910TIP3    H111671   7.383   4.866   0.895
 3910TIP3    H211672   7.440   4.794   1.015
 3911TIP3   OH211673   1.512   2.501   0.655
 3911TIP3    H111674   1.598   2.472   0.625
 3911TIP3    H211675   1.515   2.596   0.650
 3912TIP3   OH211676   5.639   0.454   5.409
 3912TIP3    H111677   5.607   0.506   5.335
 3912TIP3    H211678   5.561   0.413   5.445
 3913TIP3   OH211679   5.157   2.757   3.837
 3913TIP3    H111680   5.148   2.822   3.767
 3913TIP3    H211681   5.067   2.734   3.860
 3914TIP3   OH211682   7.075   5.912   1.616
 3914TIP3    H111683   7.012   5.909   1.688
 3914TIP3    H211684   7.027   5.878   1.541
 3915TIP3   OH211685   1.508   2.052   0.987
 3915TIP3    H111686   1.442   2.013   1.044
 3915TIP3    H211687   1.488   2.145   0.986
 3916TIP3   OH211688   2.507   0.218   4.590
 3916TIP3    H111689   2.510   0.122   4.598
 3916TIP3    H211690   2.569   0.238   4.520
 3917TIP3   OH211691   0.175   3.182   4.961
 3917TIP3    H111692   0.265   3.150   4.957
 3917TIP3    H211693   0.180   3.273   4.934
 3918TIP3   OH211694   0.893   2.912   1.650
 3918TIP3    H111695   0.954   2.876   1.585
 3918TIP3    H211696   0.835   2.969   1.599
 3919TIP3   OH211697   2.154   7.054   1.343
 3919TIP3    H111698   2.133   7.118   1.411
 3919TIP3    H211699   2.127   6.970   1.379
 3920TIP3   OH211700   2.971   6.164   6.303
 3920TIP3    H111701   2.884   6.195   6.328
 3920TIP3    H211702   2.970   6.163   6.208
 3921TIP3   OH211703   1.953   2.725   4.239
 3921TIP3    H111704   1.964   2.797   4.177
 3921TIP3    H211705   2.023   2.663   4.217
 3922TIP3   OH211706   2.105   6.727   2.754
 3922TIP3    H111707   2.097   6.750   2.662
 3922TIP3    H211708   2.017   6.736   2.790
 3923TIP3   OH211709   4.192   1.409   1.484
 3923TIP3    H111710   4.275   1.370   1.510
 3923TIP3    H211711   4.216   1.479   1.424
 3924TIP3   OH211712   0.202   7.206   3.273
 3924TIP3    H111713   0.204   7.201   3.178
 3924TIP3    H211714   0.203   7.300   3.292
 3925TIP3   OH211715   0.732   5.910   4.673
 3925TIP3    H111716   0.769   5.905   4.761
 3925TIP3    H211717   0.788   5.853   4.620
 3926TIP3   OH211718   5.269   0.058   6.021
 3926TIP3    H111719   5.298  -0.016   6.073
 3926TIP3    H211720   5.331   0.128   6.041
 3927TIP3   OH211721   8.204   3.319   5.285
 3927TIP3    H111722   8.149   3.257   5.333
 3927TIP3    H211723   8.201   3.289   5.194
 3928TIP3   OH211724   6.658   1.860   3.187
 3928TIP3    H111725   6.570   1.880   3.154
 3928TIP3    H211726   6.643   1.802   3.262
 3929TIP3   OH211727   3.062   6.101   6.816
 3929TIP3    H111728   3.120   6.055   6.756
 3929TIP3    H211729   2.985   6.045   6.822
 3930TIP3   OH211730   2.520   7.700   1.146
 3930TIP3    H111731   2.515   7.794   1.131
 3930TIP3    H211732   2.545   7.692   1.239
 3931TIP3   OH211733   6.535   7.031   1.198
 3931TIP3    H111734   6.447   7.070   1.202
 3931TIP3    H211735   6.586   7.082   1.262
 3932TIP3   OH211736   0.379   1.769   4.588
 3932TIP3    H111737   0.451   1.821   4.623
 3932TIP3    H211738   0.414   1.731   4.507
 3933TIP3   OH211739   5.056   3.810   1.489
 3933TIP3    H111740   5.137   3.861   1.496
 3933TIP3    H211741   5.012   3.846   1.412
 3934TIP3   OH211742   1.987   3.638   5.907
 3934TIP3    H111743   1.903   3.648   5.953
 3934TIP3    H211744   2.053   3.641   5.976
 3935TIP3   OH211745   0.171   4.605   0.037
 3935TIP3    H111746   0.262   4.613   0.068
 3935TIP3    H211747   0.152   4.511   0.044
 3936TIP3   OH211748   0.098   1.226   1.292
 3936TIP3    H111749   0.047   1.145   1.305
 3936TIP3    H211750   0.035   1.296   1.308
 3937TIP3   OH211751   7.347   5.129   5.260
 3937TIP3    H111752   7.328   5.198   5.196
 3937TIP3    H211753   7.360   5.176   5.342
 3938TIP3   OH211754   6.170   1.391   5.943
 3938TIP3    H111755   6.090   1.337   5.949
 3938TIP3    H211756   6.148   1.459   5.879
 3939TIP3   OH211757   4.868   6.378   4.909
 3939TIP3    H111758   4.782   6.405   4.941
 3939TIP3    H211759   4.919   6.361   4.988
 3940TIP3   OH211760   4.812   4.286   5.003
 3940TIP3    H111761   4.762   4.358   4.963
 3940TIP3    H211762   4.868   4.254   4.933
 3941TIP3   OH211763   0.978   3.108   6.428
 3941TIP3    H111764   0.926   3.036   6.393
 3941TIP3    H211765   0.919   3.154   6.488
 3942TIP3   OH211766   6.911   6.454   5.179
 3942TIP3    H111767   6.822   6.443   5.145
 3942TIP3    H211768   6.910   6.539   5.221
 3943TIP3   OH211769   6.921   5.314   3.229
 3943TIP3    H111770   6.927   5.316   3.134
 3943TIP3    H211771   6.966   5.233   3.254
 3944TIP3   OH211772   4.919   7.699   6.060
 3944TIP3    H111773   4.983   7.751   6.110
 3944TIP3    H211774   4.934   7.609   6.088
 3945TIP3   OH211775   8.233   0.708   3.308
 3945TIP3    H111776   8.188   0.764   3.371
 3945TIP3    H211777   8.258   0.767   3.237
 3946TIP3   OH211778   3.945   4.730   2.948
 3946TIP3    H111779   3.981   4.753   2.863
 3946TIP3    H211780   3.971   4.803   3.005
 3947TIP3   OH211781   6.194   1.744   4.185
 3947TIP3    H111782   6.218   1.803   4.114
 3947TIP3    H211783   6.228   1.785   4.264
 3948TIP3   OH211784   2.746   3.677   0.208
 3948TIP3    H111785   2.796   3.748   0.248
 3948TIP3    H211786   2.792   3.659   0.125
 3949TIP3   OH211787   5.093   6.143   4.703
 3949TIP3    H111788   5.044   6.214   4.744
 3949TIP3    H211789   5.162   6.187   4.653
 3950TIP3   OH211790   1.082   6.839   2.486
 3950TIP3    H111791   1.172   6.811   2.469
 3950TIP3    H211792   1.065   6.810   2.576
 3951TIP3   OH211793   6.665   4.143   6.846
 3951TIP3    H111794   6.682   4.172   6.935
 3951TIP3    H211795   6.664   4.223   6.794
 3952TIP3   OH211796   2.365   5.957   0.918
 3952TIP3    H111797   2.429   6.009   0.870
 3952TIP3    H211798   2.357   6.000   1.003
 3953TIP3   OH211799   7.113   3.393   3.772
 3953TIP3    H111800   7.173   3.331   3.812
 3953TIP3    H211801   7.143   3.479   3.803
 3954TIP3   OH211802   1.014   5.129   2.131
 3954TIP3    H111803   0.931   5.106   2.172
 3954TIP3    H211804   0.990   5.166   2.046
 3955TIP3   OH211805   5.638   3.258   3.521
 3955TIP3    H111806   5.588   3.221   3.448
 3955TIP3    H211807   5.624   3.352   3.514
 3956TIP3   OH211808   5.298   5.811   1.310
 3956TIP3    H111809   5.345   5.885   1.270
 3956TIP3    H211810   5.361   5.739   1.306
 3957TIP3   OH211811   5.887   1.898   3.134
 3957TIP3    H111812   5.907   1.867   3.222
 3957TIP3    H211813   5.884   1.819   3.080
 3958TIP3   OH211814   3.004   1.662   1.947
 3958TIP3    H111815   3.002   1.586   2.005
 3958TIP3    H211816   3.080   1.648   1.891
 3959TIP3   OH211817   1.986   7.645   3.487
 3959TIP3    H111818   1.910   7.693   3.455
 3959TIP3    H211819   2.020   7.699   3.559
 3960TIP3   OH211820   2.422   2.746   6.407
 3960TIP3    H111821   2.451   2.836   6.390
 3960TIP3    H211822   2.350   2.755   6.470
 3961TIP3   OH211823   2.935   6.956   5.355
 3961TIP3    H111824   2.984   7.015   5.297
 3961TIP3    H211825   3.003   6.915   5.409
 3962TIP3   OH211826   3.485   3.720   3.313
 3962TIP3    H111827   3.441   3.704   3.396
 3962TIP3    H211828   3.420   3.696   3.247
 3963TIP3   OH211829   5.228   7.240   1.513
 3963TIP3    H111830   5.211   7.333   1.521
 3963TIP3    H211831   5.323   7.233   1.510
 3964TIP3   OH211832   0.483   7.543   2.783
 3964TIP3    H111833   0.453   7.461   2.822
 3964TIP3    H211834   0.447   7.612   2.840
 3965TIP3   OH211835   6.705   3.990   0.102
 3965TIP3    H111836   6.797   3.962   0.101
 3965TIP3    H211837   6.694   4.037   0.019
 3966TIP3   OH211838   1.806   4.556   5.205
 3966TIP3    H111839   1.879   4.512   5.160
 3966TIP3    H211840   1.750   4.484   5.235
 3967TIP3   OH211841   1.216   7.482   5.206
 3967TIP3    H111842   1.236   7.531   5.285
 3967TIP3    H211843   1.234   7.542   5.134
 3968TIP3   OH211844   2.116   7.202   6.167
 3968TIP3    H111845   2.077   7.152   6.239
 3968TIP3    H211846   2.111   7.293   6.197
 3969TIP3   OH211847   3.377   5.601   4.720
 3969TIP3    H111848   3.413   5.577   4.634
 3969TIP3    H211849   3.450   5.641   4.766
 3970TIP3   OH211850   8.220   1.553   4.752
 3970TIP3    H111851   8.273   1.577   4.828
 3970TIP3    H211852   8.264   1.595   4.678
 3971TIP3   OH211853   7.439   4.043   1.725
 3971TIP3    H111854   7.355   4.063   1.683
 3971TIP3    H211855   7.424   3.961   1.772
 3972TIP3   OH211856   8.345   0.784   3.719
 3972TIP3    H111857   8.254   0.811   3.734
 3972TIP3    H211858   8.339   0.690   3.701
 3973TIP3   OH211859   5.188   2.785   6.709
 3973TIP3    H111860   5.226   2.816   6.627
 3973TIP3    H211861   5.256   2.802   6.775
 3974TIP3   OH211862   2.275   0.997   6.546
 3974TIP3    H111863   2.322   1.080   6.541
 3974TIP3    H211864   2.297   0.963   6.633
 3975TIP3   OH211865   1.139   3.437   3.130
 3975TIP3    H111866   1.223   3.419   3.086
 3975TIP3    H211867   1.104   3.513   3.083
 3976TIP3   OH211868   1.250   3.515   5.261
 3976TIP3    H111869   1.196   3.447   5.301
 3976TIP3    H211870   1.195   3.593   5.262
 3977TIP3   OH211871   2.432   3.513   5.138
 3977TIP3    H111872   2.464   3.448   5.076
 3977TIP3    H211873   2.346   3.481   5.165
 3978TIP3   OH211874   8.108   5.256   0.642
 3978TIP3    H111875   8.124   5.336   0.692
 3978TIP3    H211876   8.013   5.244   0.646
 3979TIP3   OH211877   1.685   4.179   1.216
 3979TIP3    H111878   1.752   4.215   1.159
 3979TIP3    H211879   1.731   4.113   1.268
 3980TIP3   OH211880   4.898   5.082   2.740
 3980TIP3    H111881   4.826   5.132   2.701
 3980TIP3    H211882   4.855   5.008   2.784
 3981TIP3   OH211883   0.951   4.805   2.996
 3981TIP3    H111884   1.039   4.840   2.981
 3981TIP3    H211885   0.955   4.717   2.961
 3982TIP3   OH211886   1.616   3.323   4.992
 3982TIP3    H111887   1.647   3.310   5.081
 3982TIP3    H211888   1.659   3.254   4.941
 3983TIP3   OH211889   0.165   3.422   1.999
 3983TIP3    H111890   0.163   3.351   1.935
 3983TIP3    H211891   0.159   3.378   2.084
 3984TIP3   OH211892   0.152   7.753   6.637
 3984TIP3    H111893   0.178   7.841   6.661
 3984TIP3    H211894   0.150   7.754   6.541
 3985TIP3   OH211895   1.927   3.277   2.208
 3985TIP3    H111896   1.909   3.278   2.114
 3985TIP3    H211897   1.967   3.362   2.226
 3986TIP3   OH211898   6.505   1.804   1.991
 3986TIP3    H111899   6.492   1.831   1.900
 3986TIP3    H211900   6.418   1.784   2.023
 3987TIP3   OH211901   1.239   4.366   3.551
 3987TIP3    H111902   1.320   4.330   3.585
 3987TIP3    H211903   1.175   4.354   3.621
 3988TIP3   OH211904   1.129   1.911   1.604
 3988TIP3    H111905   1.105   1.863   1.683
 3988TIP3    H211906   1.079   1.992   1.609
 3989TIP3   OH211907   6.290   0.979   4.582
 3989TIP3    H111908   6.225   0.965   4.514
 3989TIP3    H211909   6.308   1.073   4.580
 3990TIP3   OH211910   2.315   1.805   4.729
 3990TIP3    H111911   2.364   1.886   4.722
 3990TIP3    H211912   2.373   1.746   4.777
 3991TIP3   OH211913   0.304   0.162   2.636
 3991TIP3    H111914   0.335   0.209   2.714
 3991TIP3    H211915   0.226   0.209   2.609
 3992TIP3   OH211916   4.456   3.034   1.170
 3992TIP3    H111917   4.519   3.100   1.200
 3992TIP3    H211918   4.381   3.044   1.229
 3993TIP3   OH211919   7.853   3.359   0.963
 3993TIP3    H111920   7.828   3.271   0.933
 3993TIP3    H211921   7.948   3.357   0.967
 3994TIP3   OH211922   8.044   4.422   4.937
 3994TIP3    H111923   8.011   4.347   4.985
 3994TIP3    H211924   8.065   4.388   4.850
 3995TIP3   OH211925   1.265   3.481   1.452
 3995TIP3    H111926   1.204   3.426   1.403
 3995TIP3    H211927   1.324   3.516   1.386
 3996TIP3   OH211928   2.247   2.083   4.992
 3996TIP3    H111929   2.298   2.128   4.924
 3996TIP3    H211930   2.159   2.075   4.954
 3997TIP3   OH211931   0.324   0.700   6.167
 3997TIP3    H111932   0.286   0.693   6.255
 3997TIP3    H211933   0.412   0.736   6.182
 3998TIP3   OH211934   1.662   5.823   4.178
 3998TIP3    H111935   1.595   5.755   4.186
 3998TIP3    H211936   1.734   5.781   4.131
 3999TIP3   OH211937   6.140   1.546   4.341
 3999TIP3    H111938   6.082   1.607   4.386
 3999TIP3    H211939   6.177   1.597   4.268
 4000TIP3   OH211940   1.280   5.179   1.752
 4000TIP3    H111941   1.312   5.165   1.662
 4000TIP3    H211942   1.206   5.118   1.760
 4001TIP3   OH211943   6.251   4.895   2.305
 4001TIP3    H111944   6.298   4.935   2.378
 4001TIP3    H211945   6.207   4.969   2.263
 4002TIP3   OH211946   6.819   3.153   6.387
 4002TIP3    H111947   6.733   3.172   6.349
 4002TIP3    H211948   6.802   3.142   6.481
 4003TIP3   OH211949   4.499   1.142   2.835
 4003TIP3    H111950   4.464   1.064   2.879
 4003TIP3    H211951   4.428   1.206   2.838
 4004TIP3   OH211952   3.210   1.601   0.067
 4004TIP3    H111953   3.134   1.584   0.011
 4004TIP3    H211954   3.270   1.528   0.050
 4005TIP3   OH211955   6.869   1.419   2.056
 4005TIP3    H111956   6.932   1.458   1.995
 4005TIP3    H211957   6.907   1.334   2.077
 4006TIP3   OH211958   0.568   1.103   5.879
 4006TIP3    H111959   0.525   1.161   5.816
 4006TIP3    H211960   0.662   1.117   5.864
 4007TIP3   OH211961   0.388   1.816   5.432
 4007TIP3    H111962   0.295   1.796   5.418
 4007TIP3    H211963   0.414   1.760   5.505
 4008TIP3   OH211964   1.890   5.249   3.367
 4008TIP3    H111965   1.944   5.170   3.361
 4008TIP3    H211966   1.810   5.220   3.412
 4009TIP3   OH211967   2.111   0.394   6.340
 4009TIP3    H111968   2.042   0.448   6.301
 4009TIP3    H211969   2.133   0.331   6.272
 4010TIP3   OH211970   6.302   3.106   2.242
 4010TIP3    H111971   6.397   3.099   2.254
 4010TIP3    H211972   6.282   3.042   2.174
 4011TIP3   OH211973   5.777   0.679   1.625
 4011TIP3    H111974   5.755   0.733   1.549
 4011TIP3    H211975   5.726   0.717   1.697
 4012TIP3   OH211976   8.276   4.564   5.496
 4012TIP3    H111977   8.350   4.504   5.506
 4012TIP3    H211978   8.308   4.632   5.436
 4013TIP3   OH211979   5.282   0.711   3.143
 4013TIP3    H111980   5.201   0.754   3.172
 4013TIP3    H211981   5.265   0.618   3.156
 4014TIP3   OH211982   1.877   7.868   3.086
 4014TIP3    H111983   1.957   7.816   3.094
 4014TIP3    H211984   1.806   7.809   3.112
 4015TIP3   OH211985   4.949   2.849   2.617
 4015TIP3    H111986   4.876   2.807   2.572
 4015TIP3    H211987   4.930   2.942   2.611
 4016TIP3   OH211988   0.278   1.250   6.244
 4016TIP3    H111989   0.362   1.204   6.233
 4016TIP3    H211990   0.233   1.200   6.312
 4017TIP3   OH211991   2.184   7.885   0.765
 4017TIP3    H111992   2.103   7.844   0.735
 4017TIP3    H211993   2.229   7.911   0.685
 4018TIP3   OH211994   6.609   1.703   3.912
 4018TIP3    H111995   6.551   1.711   3.836
 4018TIP3    H211996   6.565   1.752   3.981
 4019TIP3   OH211997   3.350   2.654   2.841
 4019TIP3    H111998   3.359   2.694   2.928
 4019TIP3    H211999   3.384   2.721   2.781
 4020TIP3   OH212000   0.520   3.573   5.819
 4020TIP3    H112001   0.510   3.486   5.857
 4020TIP3    H212002   0.519   3.558   5.724
 4021TIP3   OH212003   1.208   1.926   5.183
 4021TIP3    H112004   1.192   1.899   5.274
 4021TIP3    H212005   1.252   1.851   5.143
 4022TIP3   OH212006   1.701   7.169   5.221
 4022TIP3    H112007   1.665   7.140   5.137
 4022TIP3    H212008   1.653   7.249   5.242
 4023TIP3   OH212009   3.630   1.042   3.230
 4023TIP3    H112010   3.571   0.989   3.284
 4023TIP3    H212011   3.717   1.008   3.249
 4024TIP3   OH212012   6.136   3.342   1.956
 4024TIP3    H112013   6.087   3.269   1.995
 4024TIP3    H212014   6.113   3.339   1.863
 4025TIP3   OH212015   0.031   3.194   3.357
 4025TIP3    H112016  -0.008   3.144   3.285
 4025TIP3    H212017  -0.037   3.196   3.424
 4026TIP3   OH212018   5.004   3.115   4.037
 4026TIP3    H112019   5.001   3.073   3.951
 4026TIP3    H212020   4.916   3.148   4.051
 4027TIP3   OH212021   3.901   5.979   4.169
 4027TIP3    H112022   3.971   6.009   4.112
 4027TIP3    H212023   3.946   5.956   4.251
 4028TIP3   OH212024   3.532   2.316   0.215
 4028TIP3    H112025   3.549   2.268   0.297
 4028TIP3    H212026   3.557   2.255   0.146
 4029TIP3   OH212027   5.211   6.694   4.288
 4029TIP3    H112028   5.276   6.735   4.345
 4029TIP3    H212029   5.263   6.647   4.222
 4030TIP3   OH212030   0.032   1.932   3.987
 4030TIP3    H112031  -0.009   1.980   4.060
 4030TIP3    H212032   0.027   1.840   4.014
 4031TIP3   OH212033   1.526   0.911   2.417
 4031TIP3    H112034   1.432   0.900   2.404
 4031TIP3    H212035   1.536   1.003   2.442
 4032TIP3   OH212036   5.490   5.839   5.767
 4032TIP3    H112037   5.561   5.826   5.703
 4032TIP3    H212038   5.466   5.751   5.794
 4033TIP3   OH212039   6.884   6.631   4.318
 4033TIP3    H112040   6.848   6.646   4.405
 4033TIP3    H212041   6.840   6.696   4.263
 4034TIP3   OH212042   3.734   6.776   4.487
 4034TIP3    H112043   3.788   6.815   4.418
 4034TIP3    H212044   3.671   6.721   4.440
 4035TIP3   OH212045   1.124   5.285   4.519
 4035TIP3    H112046   1.081   5.227   4.582
 4035TIP3    H212047   1.141   5.229   4.443
 4036TIP3   OH212048   5.950   4.536   5.987
 4036TIP3    H112049   5.877   4.482   6.017
 4036TIP3    H212050   5.953   4.609   6.049
 4037TIP3   OH212051   6.302   3.047   1.352
 4037TIP3    H112052   6.306   3.025   1.445
 4037TIP3    H212053   6.390   3.081   1.332
 4038TIP3   OH212054   2.332   0.587   1.050
 4038TIP3    H112055   2.331   0.648   1.123
 4038TIP3    H212056   2.386   0.513   1.080
 4039TIP3   OH212057   7.415   7.676   1.584
 4039TIP3    H112058   7.439   7.596   1.631
 4039TIP3    H212059   7.489   7.693   1.526
 4040TIP3   OH212060   0.376   3.608   0.361
 4040TIP3    H112061   0.356   3.668   0.433
 4040TIP3    H212062   0.305   3.543   0.364
 4041TIP3   OH212063   0.242   1.407   1.983
 4041TIP3    H112064   0.326   1.387   2.024
 4041TIP3    H212065   0.178   1.403   2.055
 4042TIP3   OH212066   4.870   6.966   3.056
 4042TIP3    H112067   4.812   7.016   2.998
 4042TIP3    H212068   4.951   7.016   3.058
 4043TIP3   OH212069   7.482   7.518   6.724
 4043TIP3    H112070   7.421   7.553   6.790
 4043TIP3    H212071   7.539   7.459   6.773
 4044TIP3   OH212072   3.236   3.160   4.130
 4044TIP3    H112073   3.313   3.215   4.119
 4044TIP3    H212074   3.222   3.120   4.043
 4045TIP3   OH212075   1.616   5.859   0.339
 4045TIP3    H112076   1.522   5.865   0.322
 4045TIP3    H212077   1.630   5.913   0.416
 4046TIP3   OH212078   1.252   6.312   4.543
 4046TIP3    H112079   1.265   6.381   4.478
 4046TIP3    H212080   1.307   6.338   4.617
 4047TIP3   OH212081   1.444   2.172   6.292
 4047TIP3    H112082   1.373   2.139   6.346
 4047TIP3    H212083   1.504   2.216   6.353
 4048TIP3   OH212084   0.463   3.648   2.421
 4048TIP3    H112085   0.518   3.576   2.392
 4048TIP3    H212086   0.449   3.700   2.342
 4049TIP3   OH212087   0.831   0.569   4.190
 4049TIP3    H112088   0.848   0.563   4.096
 4049TIP3    H212089   0.743   0.533   4.201
 4050TIP3   OH212090   2.011   4.486   5.898
 4050TIP3    H112091   1.931   4.481   5.950
 4050TIP3    H212092   2.051   4.569   5.924
 4051TIP3   OH212093   3.587   4.558   0.748
 4051TIP3    H112094   3.569   4.584   0.838
 4051TIP3    H212095   3.605   4.641   0.702
 4052TIP3   OH212096   5.688   4.864   6.297
 4052TIP3    H112097   5.657   4.914   6.372
 4052TIP3    H212098   5.658   4.775   6.314
 4053TIP3   OH212099   0.210   6.867   4.554
 4053TIP3    H112100   0.303   6.884   4.545
 4053TIP3    H212101   0.192   6.880   4.647
 4054TIP3   OH212102   6.675   5.399   2.281
 4054TIP3    H112103   6.603   5.448   2.241
 4054TIP3    H212104   6.667   5.418   2.375
 4055TIP3   OH212105   7.966   7.805   2.462
 4055TIP3    H112106   7.912   7.871   2.421
 4055TIP3    H212107   8.005   7.849   2.537
 4056TIP3   OH212108   7.955   3.513   6.138
 4056TIP3    H112109   8.020   3.582   6.151
 4056TIP3    H212110   7.897   3.547   6.070
 4057TIP3   OH212111   0.075   4.620   1.136
 4057TIP3    H112112   0.004   4.583   1.083
 4057TIP3    H212113   0.037   4.628   1.223
 4058TIP3   OH212114   7.600   3.115   4.489
 4058TIP3    H112115   7.674   3.101   4.431
 4058TIP3    H212116   7.632   3.178   4.554
 4059TIP3   OH212117   3.330   6.365   3.710
 4059TIP3    H112118   3.383   6.439   3.681
 4059TIP3    H212119   3.382   6.324   3.779
 4060TIP3   OH212120   8.144   7.018   6.815
 4060TIP3    H112121   8.111   7.098   6.773
 4060TIP3    H212122   8.211   7.049   6.876
 4061TIP3   OH212123   5.777   0.153   6.625
 4061TIP3    H112124   5.798   0.232   6.674
 4061TIP3    H212125   5.681   0.150   6.624
 4062TIP3   OH212126   1.700   4.735   5.794
 4062TIP3    H112127   1.712   4.755   5.887
 4062TIP3    H212128   1.695   4.640   5.791
 4063TIP3   OH212129   7.954   2.824   2.971
 4063TIP3    H112130   8.017   2.753   2.956
 4063TIP3    H212131   7.997   2.880   3.036
 4064TIP3   OH212132   5.313   5.368   3.593
 4064TIP3    H112133   5.287   5.348   3.682
 4064TIP3    H212134   5.233   5.397   3.550
 4065TIP3   OH212135   3.388   7.727   2.406
 4065TIP3    H112136   3.434   7.750   2.486
 4065TIP3    H212137   3.355   7.811   2.372
 4066TIP3   OH212138   0.098   0.465   3.586
 4066TIP3    H112139   0.159   0.517   3.639
 4066TIP3    H212140   0.108   0.499   3.497
 4067TIP3   OH212141   6.838   4.595   3.986
 4067TIP3    H112142   6.918   4.593   4.039
 4067TIP3    H212143   6.857   4.657   3.916
 4068TIP3   OH212144   6.841   5.362   1.474
 4068TIP3    H112145   6.756   5.391   1.440
 4068TIP3    H212146   6.859   5.423   1.546
 4069TIP3   OH212147   7.192   2.384   1.144
 4069TIP3    H112148   7.273   2.348   1.181
 4069TIP3    H212149   7.221   2.460   1.093
 4070TIP3   OH212150   8.293   6.182   5.002
 4070TIP3    H112151   8.268   6.214   4.915
 4070TIP3    H212152   8.388   6.175   4.998
 4071TIP3   OH212153   6.363   1.918   4.908
 4071TIP3    H112154   6.411   1.908   4.826
 4071TIP3    H212155   6.274   1.942   4.881
 4072TIP3   OH212156   2.831   7.888   5.043
 4072TIP3    H112157   2.833   7.817   4.980
 4072TIP3    H212158   2.836   7.845   5.129
 4073TIP3   OH212159   3.056   0.922   3.864
 4073TIP3    H112160   2.972   0.966   3.879
 4073TIP3    H212161   3.069   0.868   3.941
 4074TIP3   OH212162   7.416   2.983   1.389
 4074TIP3    H112163   7.335   2.955   1.431
 4074TIP3    H212164   7.394   3.067   1.348
 4075TIP3   OH212165   4.590   7.526   0.304
 4075TIP3    H112166   4.522   7.591   0.320
 4075TIP3    H212167   4.581   7.504   0.211
 4076TIP3   OH212168   6.252   3.405   0.626
 4076TIP3    H112169   6.235   3.420   0.719
 4076TIP3    H212170   6.168   3.375   0.591
 4077TIP3   OH212171   1.676   3.472   2.633
 4077TIP3    H112172   1.771   3.478   2.633
 4077TIP3    H212173   1.652   3.474   2.726
 4078TIP3   OH212174   7.591   2.416   4.656
 4078TIP3    H112175   7.612   2.333   4.699
 4078TIP3    H212176   7.546   2.391   4.576
 4079TIP3   OH212177   6.276   1.555   3.079
 4079TIP3    H112178   6.290   1.615   3.152
 4079TIP3    H212179   6.218   1.487   3.113
 4080TIP3   OH212180   6.460   0.594   4.753
 4080TIP3    H112181   6.506   0.570   4.834
 4080TIP3    H212182   6.436   0.510   4.713
 4081TIP3   OH212183   4.455   1.554   6.065
 4081TIP3    H112184   4.546   1.571   6.090
 4081TIP3    H212185   4.460   1.520   5.976
 4082TIP3   OH212186   5.065   1.994   1.466
 4082TIP3    H112187   4.998   1.979   1.533
 4082TIP3    H212188   5.067   2.089   1.453
 4083TIP3   OH212189   8.185   7.388   3.282
 4083TIP3    H112190   8.147   7.443   3.351
 4083TIP3    H212191   8.124   7.396   3.209
 4084TIP3   OH212192   7.430   5.689   2.393
 4084TIP3    H112193   7.436   5.654   2.304
 4084TIP3    H212194   7.355   5.643   2.431
 4085TIP3   OH212195   2.046   0.540   5.649
 4085TIP3    H112196   2.085   0.477   5.710
 4085TIP3    H212197   1.964   0.499   5.621
 4086TIP3   OH212198   4.770   5.681   2.692
 4086TIP3    H112199   4.786   5.651   2.781
 4086TIP3    H212200   4.809   5.612   2.637
 4087TIP3   OH212201   7.255   1.589   6.618
 4087TIP3    H112202   7.236   1.630   6.702
 4087TIP3    H212203   7.234   1.496   6.631
 4088TIP3   OH212204   2.959   5.062   1.129
 4088TIP3    H112205   2.992   5.150   1.148
 4088TIP3    H212206   3.021   5.003   1.172
 4089TIP3   OH212207   2.882   2.154   4.880
 4089TIP3    H112208   2.859   2.158   4.973
 4089TIP3    H212209   2.953   2.090   4.875
 4090TIP3   OH212210   6.597   0.855   1.280
 4090TIP3    H112211   6.525   0.852   1.342
 4090TIP3    H212212   6.596   0.769   1.238
 4091TIP3   OH212213   1.281   4.544   6.432
 4091TIP3    H112214   1.196   4.502   6.421
 4091TIP3    H212215   1.264   4.637   6.415
 4092TIP3   OH212216   2.668   1.534   0.826
 4092TIP3    H112217   2.745   1.588   0.843
 4092TIP3    H212218   2.678   1.505   0.736
 4093TIP3   OH212219   3.222   5.708   1.312
 4093TIP3    H112220   3.151   5.760   1.274
 4093TIP3    H212221   3.222   5.731   1.405
 4094TIP3   OH212222   3.067   3.369   5.112
 4094TIP3    H112223   3.057   3.450   5.163
 4094TIP3    H212224   3.157   3.372   5.081
 4095TIP3   OH212225   3.782   4.793   4.927
 4095TIP3    H112226   3.754   4.824   5.013
 4095TIP3    H212227   3.796   4.873   4.877
 4096TIP3   OH212228   6.802   3.202   1.200
 4096TIP3    H112229   6.747   3.125   1.216
 4096TIP3    H212230   6.761   3.246   1.126
 4097TIP3   OH212231   2.772   7.716   6.448
 4097TIP3    H112232   2.765   7.754   6.536
 4097TIP3    H212233   2.861   7.738   6.420
 4098TIP3   OH212234   3.713   1.880   0.146
 4098TIP3    H112235   3.632   1.876   0.095
 4098TIP3    H212236   3.686   1.862   0.236
 4099TIP3   OH212237   4.845   5.837   5.817
 4099TIP3    H112238   4.864   5.931   5.813
 4099TIP3    H212239   4.753   5.831   5.791
 4100TIP3   OH212240   2.666   2.349   4.022
 4100TIP3    H112241   2.718   2.287   3.972
 4100TIP3    H212242   2.729   2.412   4.057
 4101TIP3   OH212243   4.334   3.144   0.965
 4101TIP3    H112244   4.384   3.100   1.034
 4101TIP3    H212245   4.244   3.144   0.997
 4102TIP3   OH212246   0.999   5.387   4.036
 4102TIP3    H112247   1.062   5.401   4.107
 4102TIP3    H212248   0.917   5.422   4.070
 4103TIP3   OH212249   2.345   6.325   4.070
 4103TIP3    H112250   2.294   6.305   4.149
 4103TIP3    H212251   2.431   6.350   4.103
 4104TIP3   OH212252   4.492   0.737   6.867
 4104TIP3    H112253   4.482   0.741   6.772
 4104TIP3    H212254   4.483   0.644   6.888
 4105TIP3   OH212255   4.011   2.503   5.138
 4105TIP3    H112256   4.057   2.565   5.195
 4105TIP3    H212257   3.918   2.517   5.157
 4106TIP3   OH212258   5.598   4.426   0.759
 4106TIP3    H112259   5.520   4.372   0.770
 4106TIP3    H212260   5.596   4.487   0.833
 4107TIP3   OH212261   7.906   0.077   3.850
 4107TIP3    H112262   7.973   0.008   3.851
 4107TIP3    H212263   7.945   0.148   3.903
 4108TIP3   OH212264   7.602   2.140   4.723
 4108TIP3    H112265   7.552   2.069   4.684
 4108TIP3    H212266   7.693   2.116   4.707
 4109TIP3   OH212267   0.374   4.119   1.980
 4109TIP3    H112268   0.424   4.079   1.909
 4109TIP3    H212269   0.402   4.211   1.980
 4110TIP3   OH212270   3.328   4.996   1.688
 4110TIP3    H112271   3.378   4.997   1.607
 4110TIP3    H212272   3.247   5.042   1.667
 4111TIP3   OH212273   5.142   4.805   3.817
 4111TIP3    H112274   5.088   4.766   3.886
 4111TIP3    H212275   5.231   4.805   3.853
 4112TIP3   OH212276   6.562   1.443   4.455
 4112TIP3    H112277   6.570   1.537   4.468
 4112TIP3    H212278   6.648   1.416   4.420
 4113TIP3   OH212279   6.800   6.871   6.077
 4113TIP3    H112280   6.795   6.907   6.165
 4113TIP3    H212281   6.745   6.930   6.024
 4114TIP3   OH212282   2.211   3.326   5.756
 4114TIP3    H112283   2.217   3.403   5.813
 4114TIP3    H212284   2.299   3.318   5.718
 4115TIP3   OH212285   7.182   7.407   0.533
 4115TIP3    H112286   7.219   7.469   0.470
 4115TIP3    H212287   7.210   7.440   0.619
 4116TIP3   OH212288   5.619   3.964   1.549
 4116TIP3    H112289   5.583   4.052   1.544
 4116TIP3    H212290   5.576   3.924   1.624
 4117TIP3   OH212291   4.047   7.799   5.398
 4117TIP3    H112292   3.960   7.761   5.411
 4117TIP3    H212293   4.102   7.725   5.374
 4118TIP3   OH212294   0.533   6.086   4.851
 4118TIP3    H112295   0.549   6.082   4.757
 4118TIP3    H212296   0.484   6.168   4.864
 4119TIP3   OH212297   1.528   2.136   2.089
 4119TIP3    H112298   1.598   2.133   2.154
 4119TIP3    H212299   1.490   2.047   2.090
 4120TIP3   OH212300   0.635   1.728   5.292
 4120TIP3    H112301   0.562   1.767   5.339
 4120TIP3    H212302   0.696   1.701   5.360
 4121TIP3   OH212303   2.127   7.276   6.541
 4121TIP3    H112304   2.149   7.227   6.620
 4121TIP3    H212305   2.076   7.216   6.488
 4122TIP3   OH212306   4.235   0.455   3.821
 4122TIP3    H112307   4.148   0.480   3.791
 4122TIP3    H212308   4.293   0.524   3.787
 4123TIP3   OH212309   0.939   7.822   5.544
 4123TIP3    H112310   0.975   7.902   5.583
 4123TIP3    H212311   0.920   7.846   5.453
 4124TIP3   OH212312   2.178   1.898   1.761
 4124TIP3    H112313   2.141   1.857   1.682
 4124TIP3    H212314   2.272   1.903   1.743
 4125TIP3   OH212315   7.766   2.574   5.609
 4125TIP3    H112316   7.780   2.614   5.523
 4125TIP3    H212317   7.826   2.500   5.612
 4126TIP3   OH212318  -0.009   7.155   1.054
 4126TIP3    H112319  -0.020   7.187   0.964
 4126TIP3    H212320   0.039   7.226   1.098
 4127TIP3   OH212321   0.501   3.497   4.971
 4127TIP3    H112322   0.507   3.592   4.972
 4127TIP3    H212323   0.589   3.467   4.952
 4128TIP3   OH212324   4.667   5.269   5.068
 4128TIP3    H112325   4.682   5.360   5.043
 4128TIP3    H212326   4.581   5.247   5.032
 4129TIP3   OH212327   2.935   7.677   1.458
 4129TIP3    H112328   2.929   7.608   1.392
 4129TIP3    H212329   3.025   7.707   1.453
 4130TIP3   OH212330   0.136   6.028   4.762
 4130TIP3    H112331   0.223   6.036   4.721
 4130TIP3    H212332   0.143   6.081   4.841
 4131TIP3   OH212333   0.412   5.315  -0.015
 4131TIP3    H112334   0.483   5.254  -0.035
 4131TIP3    H212335   0.372   5.280   0.064
 4132TIP3   OH212336   7.829   5.531   4.704
 4132TIP3    H112337   7.877   5.504   4.782
 4132TIP3    H212338   7.784   5.452   4.674
 4133TIP3   OH212339   0.282   3.165   4.616
 4133TIP3    H112340   0.243   3.109   4.684
 4133TIP3    H212341   0.297   3.107   4.542
 4134TIP3   OH212342   1.598   5.652   1.433
 4134TIP3    H112343   1.648   5.696   1.364
 4134TIP3    H212344   1.546   5.721   1.473
 4135TIP3   OH212345   6.747   6.750   5.107
 4135TIP3    H112346   6.836   6.785   5.101
 4135TIP3    H212347   6.759   6.659   5.136
 4136TIP3   OH212348   3.888   3.771   4.398
 4136TIP3    H112349   3.863   3.707   4.331
 4136TIP3    H212350   3.978   3.796   4.374
 4137TIP3   OH212351   4.725   4.858   3.871
 4137TIP3    H112352   4.804   4.839   3.921
 4137TIP3    H212353   4.754   4.917   3.801
 4138TIP3   OH212354   2.935   5.848   1.910
 4138TIP3    H112355   2.867   5.781   1.912
 4138TIP3    H212356   3.000   5.817   1.973
 4139TIP3   OH212357   5.468   3.652   5.767
 4139TIP3    H112358   5.485   3.732   5.718
 4139TIP3    H212359   5.460   3.681   5.858
 4140TIP3   OH212360   5.155   0.412   6.544
 4140TIP3    H112361   5.091   0.353   6.584
 4140TIP3    H212362   5.118   0.499   6.554
 4141TIP3   OH212363   7.693   6.602   1.377
 4141TIP3    H112364   7.640   6.556   1.312
 4141TIP3    H212365   7.743   6.534   1.421
 4142TIP3   OH212366   6.332   1.616   6.202
 4142TIP3    H112367   6.252   1.565   6.209
 4142TIP3    H212368   6.369   1.614   6.291
 4143TIP3   OH212369   1.094   5.651   0.195
 4143TIP3    H112370   1.037   5.674   0.121
 4143TIP3    H212371   1.059   5.568   0.227
 4144TIP3   OH212372   3.558   6.018   0.694
 4144TIP3    H112373   3.464   6.016   0.675
 4144TIP3    H212374   3.597   5.965   0.624
 4145TIP3   OH212375   6.776   6.728   3.414
 4145TIP3    H112376   6.722   6.696   3.342
 4145TIP3    H212377   6.777   6.823   3.403
 4146TIP3   OH212378   7.630   1.462   3.668
 4146TIP3    H112379   7.711   1.513   3.658
 4146TIP3    H212380   7.564   1.513   3.622
 4147TIP3   OH212381   0.846   2.191   5.456
 4147TIP3    H112382   0.803   2.111   5.485
 4147TIP3    H212383   0.860   2.242   5.536
 4148TIP3   OH212384   5.943   6.810   4.468
 4148TIP3    H112385   5.850   6.801   4.448
 4148TIP3    H212386   5.952   6.774   4.556
 4149TIP3   OH212387   2.860   4.135   1.635
 4149TIP3    H112388   2.922   4.139   1.562
 4149TIP3    H212389   2.790   4.195   1.611
 4150TIP3   OH212390   6.667   6.135   0.369
 4150TIP3    H112391   6.610   6.071   0.412
 4150TIP3    H212392   6.646   6.218   0.412
 4151TIP3   OH212393   4.088   0.658   5.438
 4151TIP3    H112394   4.071   0.565   5.427
 4151TIP3    H212395   4.035   0.700   5.370
 4152TIP3   OH212396   0.777   1.586   3.525
 4152TIP3    H112397   0.712   1.653   3.508
 4152TIP3    H212398   0.734   1.504   3.501
 4153TIP3   OH212399   2.945   1.335   0.156
 4153TIP3    H112400   2.966   1.417   0.202
 4153TIP3    H212401   3.028   1.287   0.155
 4154TIP3   OH212402   0.389   5.379   5.076
 4154TIP3    H112403   0.385   5.296   5.029
 4154TIP3    H212404   0.298   5.410   5.078
 4155TIP3   OH212405   1.455   2.942   4.371
 4155TIP3    H112406   1.452   2.848   4.358
 4155TIP3    H212407   1.404   2.979   4.299
 4156TIP3   OH212408   7.026   3.069   2.768
 4156TIP3    H112409   7.052   3.032   2.684
 4156TIP3    H212410   6.959   3.134   2.746
 4157TIP3   OH212411   1.657   3.860   5.001
 4157TIP3    H112412   1.622   3.790   5.055
 4157TIP3    H212413   1.581   3.912   4.976
 4158TIP3   OH212414   2.661   7.091   4.272
 4158TIP3    H112415   2.621   7.086   4.185
 4158TIP3    H212416   2.651   7.182   4.298
 4159TIP3   OH212417   4.521   0.637   2.948
 4159TIP3    H112418   4.454   0.614   3.013
 4159TIP3    H212419   4.559   0.553   2.923
 4160TIP3   OH212420   7.690   6.381   1.117
 4160TIP3    H112421   7.595   6.371   1.128
 4160TIP3    H212422   7.722   6.292   1.102
 4161TIP3   OH212423   6.517   7.837   0.580
 4161TIP3    H112424   6.422   7.821   0.578
 4161TIP3    H212425   6.537   7.875   0.495
 4162TIP3   OH212426   0.055   0.366   2.304
 4162TIP3    H112427   0.056   0.351   2.210
 4162TIP3    H212428   0.032   0.459   2.314
 4163TIP3   OH212429   2.503   7.062   4.012
 4163TIP3    H112430   2.490   6.998   3.942
 4163TIP3    H212431   2.580   7.112   3.986
 4164TIP3   OH212432   8.334   0.937   3.196
 4164TIP3    H112433   8.363   1.015   3.243
 4164TIP3    H212434   8.374   0.945   3.110
 4165TIP3   OH212435   0.129   5.622   1.333
 4165TIP3    H112436   0.136   5.707   1.289
 4165TIP3    H212437   0.217   5.584   1.325
 4166TIP3   OH212438   2.394   6.220   5.104
 4166TIP3    H112439   2.413   6.313   5.111
 4166TIP3    H212440   2.365   6.195   5.192
 4167TIP3   OH212441   3.860   2.404   5.405
 4167TIP3    H112442   3.838   2.490   5.441
 4167TIP3    H212443   3.779   2.373   5.365
 4168TIP3   OH212444   5.878   0.242   6.086
 4168TIP3    H112445   5.963   0.205   6.062
 4168TIP3    H212446   5.854   0.198   6.167
 4169TIP3   OH212447   4.758   6.948   6.423
 4169TIP3    H112448   4.750   7.038   6.392
 4169TIP3    H212449   4.674   6.907   6.399
 4170TIP3   OH212450   4.829   4.878   4.540
 4170TIP3    H112451   4.846   4.822   4.615
 4170TIP3    H212452   4.735   4.866   4.522
 4171TIP3   OH212453   1.101   4.620   4.552
 4171TIP3    H112454   1.077   4.597   4.642
 4171TIP3    H212455   1.164   4.552   4.526
 4172TIP3   OH212456   2.828   5.041   5.283
 4172TIP3    H112457   2.858   5.119   5.329
 4172TIP3    H212458   2.864   4.968   5.335
 4173TIP3   OH212459   8.138   2.262   4.358
 4173TIP3    H112460   8.095   2.347   4.345
 4173TIP3    H212461   8.144   2.253   4.453
 4174TIP3   OH212462   3.034   4.489   3.353
 4174TIP3    H112463   2.967   4.470   3.419
 4174TIP3    H212464   3.082   4.407   3.344
 4175TIP3   OH212465   3.580   0.480   5.191
 4175TIP3    H112466   3.648   0.483   5.258
 4175TIP3    H212467   3.534   0.397   5.207
 4176TIP3   OH212468   4.082   1.881   0.383
 4176TIP3    H112469   4.068   1.975   0.367
 4176TIP3    H212470   3.997   1.849   0.412
 4177TIP3   OH212471   7.210   7.843   0.965
 4177TIP3    H112472   7.196   7.934   0.939
 4177TIP3    H212473   7.304   7.828   0.951
 4178TIP3   OH212474   1.367   2.879   1.183
 4178TIP3    H112475   1.324   2.929   1.114
 4178TIP3    H212476   1.458   2.869   1.153
 4179TIP3   OH212477   1.320   5.318   2.345
 4179TIP3    H112478   1.306   5.401   2.299
 4179TIP3    H212479   1.319   5.252   2.275
 4180TIP3   OH212480   7.522   0.141   2.058
 4180TIP3    H112481   7.529   0.227   2.019
 4180TIP3    H212482   7.435   0.110   2.034
 4181TIP3   OH212483   4.871   6.864   1.439
 4181TIP3    H112484   4.959   6.901   1.439
 4181TIP3    H212485   4.825   6.910   1.510
 4182TIP3   OH212486   4.428   2.396   0.536
 4182TIP3    H112487   4.372   2.435   0.604
 4182TIP3    H212488   4.435   2.304   0.562
 4183TIP3   OH212489   1.463   6.534   3.466
 4183TIP3    H112490   1.458   6.444   3.432
 4183TIP3    H212491   1.452   6.589   3.388
 4184TIP3   OH212492   8.353   3.748   4.150
 4184TIP3    H112493   8.350   3.683   4.220
 4184TIP3    H212494   8.427   3.722   4.095
 4185TIP3   OH212495   0.629   7.208   5.936
 4185TIP3    H112496   0.615   7.280   5.873
 4185TIP3    H212497   0.724   7.203   5.945
 4186TIP3   OH212498   6.088   7.423   3.478
 4186TIP3    H112499   6.013   7.364   3.487
 4186TIP3    H212500   6.090   7.471   3.561
 4187TIP3   OH212501   2.765   7.717   3.390
 4187TIP3    H112502   2.717   7.797   3.370
 4187TIP3    H212503   2.712   7.674   3.457
 4188TIP3   OH212504   3.599   1.174   2.321
 4188TIP3    H112505   3.543   1.248   2.347
 4188TIP3    H212506   3.538   1.106   2.293
 4189TIP3   OH212507   6.031   7.887   0.291
 4189TIP3    H112508   6.068   7.801   0.308
 4189TIP3    H212509   5.974   7.875   0.215
 4190TIP3   OH212510   6.046   3.217   4.886
 4190TIP3    H112511   6.130   3.263   4.893
 4190TIP3    H212512   6.034   3.205   4.792
 4191TIP3   OH212513   4.713   0.435   0.953
 4191TIP3    H112514   4.750   0.426   0.865
 4191TIP3    H212515   4.633   0.384   0.952
 4192TIP3   OH212516   1.010   3.016   1.154
 4192TIP3    H112517   0.966   2.940   1.116
 4192TIP3    H212518   1.008   3.083   1.085
 4193TIP3   OH212519   6.756   7.902   4.788
 4193TIP3    H112520   6.737   7.809   4.794
 4193TIP3    H212521   6.739   7.937   4.876
 4194TIP3   OH212522   5.606   5.709   5.163
 4194TIP3    H112523   5.683   5.726   5.110
 4194TIP3    H212524   5.640   5.667   5.242
 4195TIP3   OH212525   7.116   6.985   3.978
 4195TIP3    H112526   7.145   7.045   3.909
 4195TIP3    H212527   7.132   7.032   4.059
 4196TIP3   OH212528   1.312   4.488   0.805
 4196TIP3    H112529   1.383   4.428   0.784
 4196TIP3    H212530   1.350   4.550   0.868
 4197TIP3   OH212531   2.443   5.416   1.130
 4197TIP3    H112532   2.494   5.453   1.202
 4197TIP3    H212533   2.508   5.389   1.065
 4198TIP3   OH212534   0.311   7.867   6.054
 4198TIP3    H112535   0.269   7.951   6.074
 4198TIP3    H212536   0.243   7.802   6.068
 4199TIP3   OH212537   5.472   6.194   4.298
 4199TIP3    H112538   5.391   6.230   4.335
 4199TIP3    H212539   5.498   6.124   4.359
 4200TIP3   OH212540   6.728   0.127   2.170
 4200TIP3    H112541   6.751   0.126   2.077
 4200TIP3    H212542   6.743   0.217   2.197
 4201TIP3   OH212543   0.284   1.140   1.115
 4201TIP3    H112544   0.351   1.166   1.179
 4201TIP3    H212545   0.202   1.174   1.151
 4202TIP3   OH212546   7.444   5.493   2.184
 4202TIP3    H112547   7.451   5.480   2.090
 4202TIP3    H212548   7.460   5.406   2.222
 4203TIP3   OH212549   2.434   1.907   2.468
 4203TIP3    H112550   2.467   1.975   2.408
 4203TIP3    H212551   2.347   1.938   2.493
 4204TIP3   OH212552   2.283   2.565   0.704
 4204TIP3    H112553   2.200   2.612   0.701
 4204TIP3    H212554   2.349   2.631   0.685
 4205TIP3   OH212555   6.858   0.803   1.305
 4205TIP3    H112556   6.786   0.866   1.312
 4205TIP3    H212557   6.937   0.856   1.304
 4206TIP3   OH212558   1.861   4.561   4.222
 4206TIP3    H112559   1.771   4.546   4.191
 4206TIP3    H212560   1.856   4.643   4.271
 4207TIP3   OH212561   6.550   5.498   1.195
 4207TIP3    H112562   6.619   5.512   1.130
 4207TIP3    H212563   6.498   5.426   1.160
 4208TIP3   OH212564   0.072   5.152   1.862
 4208TIP3    H112565   0.158   5.168   1.901
 4208TIP3    H212566   0.089   5.090   1.791
 4209TIP3   OH212567   6.751   3.671   2.483
 4209TIP3    H112568   6.790   3.607   2.544
 4209TIP3    H212569   6.669   3.697   2.524
 4210TIP3   OH212570   5.116   0.632   0.264
 4210TIP3    H112571   5.194   0.620   0.319
 4210TIP3    H212572   5.087   0.543   0.244
 4211TIP3   OH212573   5.238   4.222   4.414
 4211TIP3    H112574   5.210   4.215   4.323
 4211TIP3    H212575   5.333   4.210   4.411
 4212TIP3   OH212576   6.540   2.096   1.357
 4212TIP3    H112577   6.606   2.129   1.296
 4212TIP3    H212578   6.475   2.053   1.302
 4213TIP3   OH212579   8.341   0.567   5.901
 4213TIP3    H112580   8.307   0.657   5.901
 4213TIP3    H212581   8.402   0.564   5.827
 4214TIP3   OH212582   4.291   7.252   0.074
 4214TIP3    H112583   4.307   7.238   0.168
 4214TIP3    H212584   4.318   7.169   0.033
 4215TIP3   OH212585   4.858   1.234   0.563
 4215TIP3    H112586   4.809   1.162   0.601
 4215TIP3    H212587   4.906   1.272   0.637
 4216TIP3   OH212588   0.887   3.010   0.823
 4216TIP3    H112589   0.975   3.007   0.785
 4216TIP3    H212590   0.884   2.936   0.883
 4217TIP3   OH212591   5.891   0.344   6.875
 4217TIP3    H112592   5.973   0.370   6.915
 4217TIP3    H212593   5.888   0.391   6.792
 4218TIP3   OH212594   5.854   2.949   2.607
 4218TIP3    H112595   5.913   2.895   2.553
 4218TIP3    H212596   5.891   3.037   2.603
 4219TIP3   OH212597   5.634   3.341   4.316
 4219TIP3    H112598   5.705   3.404   4.304
 4219TIP3    H212599   5.555   3.394   4.316
 4220TIP3   OH212600   0.890   2.404   5.675
 4220TIP3    H112601   0.962   2.445   5.724
 4220TIP3    H212602   0.882   2.458   5.596
 4221TIP3   OH212603   6.614   0.221   4.333
 4221TIP3    H112604   6.536   0.179   4.370
 4221TIP3    H212605   6.597   0.314   4.341
 4222TIP3   OH212606   8.377   1.190   6.733
 4222TIP3    H112607   8.318   1.265   6.723
 4222TIP3    H212608   8.397   1.189   6.827
 4223TIP3   OH212609   0.444   0.755   2.032
 4223TIP3    H112610   0.501   0.805   2.089
 4223TIP3    H212611   0.424   0.675   2.081
 4224TIP3   OH212612   2.781   2.621   2.527
 4224TIP3    H112613   2.775   2.709   2.489
 4224TIP3    H212614   2.768   2.562   2.454
 4225TIP3   OH212615   2.263   5.265   4.427
 4225TIP3    H112616   2.269   5.188   4.483
 4225TIP3    H212617   2.343   5.263   4.375
 4226TIP3   OH212618   7.445   4.191   3.056
 4226TIP3    H112619   7.526   4.149   3.028
 4226TIP3    H212620   7.416   4.139   3.131
 4227TIP3   OH212621   8.071   4.390   0.205
 4227TIP3    H112622   8.073   4.458   0.272
 4227TIP3    H212623   8.133   4.420   0.138
 4228TIP3   OH212624   5.479   5.093   6.329
 4228TIP3    H112625   5.446   5.009   6.297
 4228TIP3    H212626   5.459   5.155   6.260
 4229TIP3   OH212627   7.003   3.751   2.837
 4229TIP3    H112628   6.909   3.746   2.858
 4229TIP3    H212629   7.006   3.789   2.750
 4230TIP3   OH212630   7.964   2.316   2.828
 4230TIP3    H112631   8.058   2.331   2.814
 4230TIP3    H212632   7.956   2.303   2.922
 4231TIP3   OH212633   2.916   3.665   3.995
 4231TIP3    H112634   2.853   3.733   3.970
 4231TIP3    H212635   2.867   3.584   3.986
 4232TIP3   OH212636   6.394   6.824   5.973
 4232TIP3    H112637   6.359   6.789   6.055
 4232TIP3    H212638   6.353   6.771   5.905
 4233TIP3   OH212639   3.541   4.327   5.899
 4233TIP3    H112640   3.457   4.372   5.906
 4233TIP3    H212641   3.602   4.382   5.948
 4234TIP3   OH212642   0.700   2.644   3.342
 4234TIP3    H112643   0.660   2.570   3.389
 4234TIP3    H212644   0.646   2.719   3.366
 4235TIP3   OH212645   4.922   4.325   2.585
 4235TIP3    H112646   4.907   4.239   2.544
 4235TIP3    H212647   4.940   4.305   2.677
 4236TIP3   OH212648   2.590   6.382   1.097
 4236TIP3    H112649   2.578   6.456   1.157
 4236TIP3    H212650   2.630   6.315   1.152
 4237TIP3   OH212651   3.139   7.671   2.811
 4237TIP3    H112652   3.155   7.682   2.905
 4237TIP3    H212653   3.199   7.601   2.785
 4238TIP3   OH212654   4.819   2.223   1.565
 4238TIP3    H112655   4.781   2.183   1.486
 4238TIP3    H212656   4.911   2.236   1.543
 4239TIP3   OH212657   6.483   4.708   3.022
 4239TIP3    H112658   6.547   4.778   3.010
 4239TIP3    H212659   6.422   4.742   3.087
 4240TIP3   OH212660   5.327   4.290   5.299
 4240TIP3    H112661   5.238   4.266   5.273
 4240TIP3    H212662   5.355   4.353   5.233
 4241TIP3   OH212663   1.684   6.598   4.837
 4241TIP3    H112664   1.606   6.639   4.874
 4241TIP3    H212665   1.717   6.663   4.775
 4242TIP3   OH212666   8.392   1.160   2.457
 4242TIP3    H112667   8.330   1.160   2.530
 4242TIP3    H212668   8.464   1.104   2.486
 4243TIP3   OH212669   6.553   7.748   5.669
 4243TIP3    H112670   6.570   7.676   5.608
 4243TIP3    H212671   6.505   7.812   5.617
 4244TIP3   OH212672   6.324   1.973   0.422
 4244TIP3    H112673   6.258   1.907   0.443
 4244TIP3    H212674   6.407   1.927   0.425
 4245TIP3   OH212675   0.995   2.495   0.783
 4245TIP3    H112676   1.015   2.418   0.838
 4245TIP3    H212677   0.907   2.477   0.748
 4246TIP3   OH212678   3.148   2.532   2.516
 4246TIP3    H112679   3.234   2.573   2.515
 4246TIP3    H212680   3.129   2.512   2.425
 4247TIP3   OH212681   0.713   0.252  -0.048
 4247TIP3    H112682   0.782   0.290   0.006
 4247TIP3    H212683   0.640   0.239   0.013
 4248TIP3   OH212684   5.372   2.466   0.930
 4248TIP3    H112685   5.434   2.394   0.943
 4248TIP3    H212686   5.288   2.430   0.958
 4249TIP3   OH212687   2.672   4.621   0.501
 4249TIP3    H112688   2.598   4.639   0.559
 4249TIP3    H212689   2.632   4.605   0.416
 4250TIP3   OH212690   2.285   1.841   3.898
 4250TIP3    H112691   2.292   1.930   3.862
 4250TIP3    H212692   2.261   1.787   3.823
 4251TIP3   OH212693   7.674   2.712   5.174
 4251TIP3    H112694   7.584   2.700   5.143
 4251TIP3    H212695   7.685   2.806   5.181
 4252TIP3   OH212696   6.492   7.864   6.100
 4252TIP3    H112697   6.572   7.900   6.061
 4252TIP3    H212698   6.425   7.877   6.033
 4253TIP3   OH212699   7.937   2.158   6.559
 4253TIP3    H112700   7.851   2.129   6.591
 4253TIP3    H212701   7.995   2.084   6.575
 4254TIP3   OH212702   7.195   5.190   5.691
 4254TIP3    H112703   7.216   5.124   5.757
 4254TIP3    H212704   7.104   5.172   5.668
 4255TIP3   OH212705   4.000   0.409   6.798
 4255TIP3    H112706   3.938   0.394   6.870
 4255TIP3    H212707   4.010   0.323   6.757
 4256TIP3   OH212708   6.210   7.360   1.896
 4256TIP3    H112709   6.215   7.394   1.806
 4256TIP3    H212710   6.300   7.363   1.928
 4257TIP3   OH212711   2.716   5.726   2.570
 4257TIP3    H112712   2.791   5.775   2.604
 4257TIP3    H212713   2.644   5.789   2.571
 4258TIP3   OH212714   3.385   6.362   4.677
 4258TIP3    H112715   3.360   6.338   4.588
 4258TIP3    H212716   3.340   6.299   4.733
 4259TIP3   OH212717   3.791   3.803   3.974
 4259TIP3    H112718   3.842   3.858   3.913
 4259TIP3    H212719   3.851   3.785   4.046
 4260TIP3   OH212720   0.789   3.065   1.407
 4260TIP3    H112721   0.731   3.046   1.333
 4260TIP3    H212722   0.865   3.008   1.392
 4261TIP3   OH212723   5.626   0.417   2.941
 4261TIP3    H112724   5.591   0.415   2.852
 4261TIP3    H212725   5.643   0.510   2.957
 4262TIP3   OH212726   6.358   4.741   1.483
 4262TIP3    H112727   6.415   4.795   1.538
 4262TIP3    H212728   6.305   4.805   1.436
 4263TIP3   OH212729   3.815   4.376   5.035
 4263TIP3    H112730   3.895   4.342   5.077
 4263TIP3    H212731   3.843   4.457   4.992
 4264TIP3   OH212732   3.509   2.398   2.007
 4264TIP3    H112733   3.415   2.401   2.024
 4264TIP3    H212734   3.545   2.471   2.057
 4265TIP3   OH212735   0.108   6.146   0.766
 4265TIP3    H112736   0.151   6.073   0.720
 4265TIP3    H212737   0.039   6.104   0.817
 4266TIP3   OH212738   2.999   0.675   0.885
 4266TIP3    H112739   2.978   0.583   0.872
 4266TIP3    H212740   2.967   0.695   0.973
 4267TIP3   OH212741   5.249   4.044   6.044
 4267TIP3    H112742   5.334   4.055   6.087
 4267TIP3    H212743   5.191   4.015   6.113
 4268TIP3   OH212744   1.565   7.300   3.394
 4268TIP3    H112745   1.533   7.258   3.473
 4268TIP3    H212746   1.581   7.228   3.333
 4269TIP3   OH212747   5.569   4.978   2.872
 4269TIP3    H112748   5.502   5.037   2.906
 4269TIP3    H212749   5.642   5.035   2.848
 4270TIP3   OH212750   4.219   5.103   0.670
 4270TIP3    H112751   4.140   5.070   0.628
 4270TIP3    H212752   4.197   5.106   0.763
 4271TIP3   OH212753   7.896   5.108   1.662
 4271TIP3    H112754   7.882   5.190   1.613
 4271TIP3    H212755   7.821   5.053   1.638
 4272TIP3   OH212756   4.643   5.051   2.321
 4272TIP3    H112757   4.577   5.011   2.377
 4272TIP3    H212758   4.596   5.069   2.239
 4273TIP3   OH212759   7.961   4.759   1.607
 4273TIP3    H112760   8.026   4.689   1.601
 4273TIP3    H212761   8.006   4.836   1.571
 4274TIP3   OH212762   0.081   4.760   3.219
 4274TIP3    H112763  -0.010   4.787   3.207
 4274TIP3    H212764   0.080   4.704   3.296
 4275TIP3   OH212765   3.808   3.387   1.131
 4275TIP3    H112766   3.828   3.480   1.137
 4275TIP3    H212767   3.799   3.359   1.223
 4276TIP3   OH212768   1.698   1.533   5.105
 4276TIP3    H112769   1.722   1.564   5.018
 4276TIP3    H212770   1.626   1.471   5.090
 4277TIP3   OH212771   6.544   6.716   5.644
 4277TIP3    H112772   6.482   6.679   5.707
 4277TIP3    H212773   6.548   6.809   5.666
 4278TIP3   OH212774   4.985   1.608   5.728
 4278TIP3    H112775   5.061   1.567   5.769
 4278TIP3    H212776   4.969   1.556   5.649
 4279TIP3   OH212777   0.479   6.105   5.876
 4279TIP3    H112778   0.416   6.119   5.947
 4279TIP3    H212779   0.443   6.033   5.826
 4280TIP3   OH212780   0.674   5.437   2.722
 4280TIP3    H112781   0.738   5.367   2.733
 4280TIP3    H212782   0.593   5.392   2.698
 4281TIP3   OH212783   6.697   3.813   0.624
 4281TIP3    H112784   6.649   3.740   0.585
 4281TIP3    H212785   6.693   3.882   0.558
 4282TIP3   OH212786   3.851   5.119   5.256
 4282TIP3    H112787   3.932   5.137   5.208
 4282TIP3    H212788   3.880   5.075   5.336
 4283TIP3   OH212789   3.886   6.978   3.557
 4283TIP3    H112790   3.919   6.897   3.596
 4283TIP3    H212791   3.958   7.041   3.569
 4284TIP3   OH212792   5.760   6.438   5.995
 4284TIP3    H112793   5.745   6.482   5.911
 4284TIP3    H212794   5.759   6.345   5.973
 4285TIP3   OH212795   5.764   4.375   6.085
 4285TIP3    H112796   5.747   4.324   6.165
 4285TIP3    H212797   5.679   4.383   6.043
 4286TIP3   OH212798   6.258   0.721   0.788
 4286TIP3    H112799   6.252   0.701   0.882
 4286TIP3    H212800   6.304   0.646   0.751
 4287TIP3   OH212801   6.671   4.478   5.403
 4287TIP3    H112802   6.621   4.481   5.321
 4287TIP3    H212803   6.608   4.504   5.471
 4288TIP3   OH212804   6.854   7.708   2.337
 4288TIP3    H112805   6.904   7.699   2.418
 4288TIP3    H212806   6.763   7.699   2.364
 4289TIP3   OH212807   5.490   1.042   3.901
 4289TIP3    H112808   5.468   0.979   3.970
 4289TIP3    H212809   5.445   1.009   3.823
 4290TIP3   OH212810   2.679   4.760   0.058
 4290TIP3    H112811   2.669   4.808  -0.024
 4290TIP3    H212812   2.726   4.820   0.116
 4291TIP3   OH212813   0.715   6.731   1.189
 4291TIP3    H112814   0.715   6.817   1.231
 4291TIP3    H212815   0.807   6.713   1.171
 4292TIP3   OH212816   2.946   1.776   5.667
 4292TIP3    H112817   2.917   1.720   5.739
 4292TIP3    H212818   3.040   1.787   5.680
 4293TIP3   OH212819   4.709   4.932   0.310
 4293TIP3    H112820   4.755   4.851   0.287
 4293TIP3    H212821   4.641   4.904   0.371
 4294TIP3   OH212822   4.801   5.490   4.958
 4294TIP3    H112823   4.840   5.515   4.874
 4294TIP3    H212824   4.813   5.567   5.013
 4295TIP3   OH212825   4.324   4.387   2.615
 4295TIP3    H112826   4.358   4.405   2.703
 4295TIP3    H212827   4.398   4.348   2.569
 4296TIP3   OH212828   8.152   4.236   6.114
 4296TIP3    H112829   8.069   4.253   6.158
 4296TIP3    H212830   8.133   4.250   6.021
 4297TIP3   OH212831   2.124   4.705   4.048
 4297TIP3    H112832   2.062   4.716   3.976
 4297TIP3    H212833   2.110   4.781   4.104
 4298TIP3   OH212834   6.248   6.408   2.551
 4298TIP3    H112835   6.164   6.445   2.576
 4298TIP3    H212836   6.280   6.364   2.630
 4299TIP3   OH212837   8.266   6.485   6.103
 4299TIP3    H112838   8.173   6.463   6.092
 4299TIP3    H212839   8.286   6.541   6.028
 4300TIP3   OH212840   2.897   3.127   3.994
 4300TIP3    H112841   2.823   3.075   3.962
 4300TIP3    H212842   2.973   3.093   3.946
 4301TIP3   OH212843   6.308   2.540   3.490
 4301TIP3    H112844   6.353   2.559   3.408
 4301TIP3    H212845   6.378   2.520   3.552
 4302TIP3   OH212846   4.692   1.383   4.819
 4302TIP3    H112847   4.761   1.409   4.758
 4302TIP3    H212848   4.618   1.441   4.798
 4303TIP3   OH212849   7.607   1.131   0.148
 4303TIP3    H112850   7.616   1.195   0.078
 4303TIP3    H212851   7.537   1.072   0.119
 4304TIP3   OH212852   3.958   4.218   5.208
 4304TIP3    H112853   3.991   4.136   5.171
 4304TIP3    H212854   3.886   4.191   5.265
 4305TIP3   OH212855   5.048   4.641   2.159
 4305TIP3    H112856   5.041   4.546   2.149
 4305TIP3    H212857   5.142   4.657   2.169
 4306TIP3   OH212858   4.354   6.100   1.125
 4306TIP3    H112859   4.396   6.041   1.188
 4306TIP3    H212860   4.424   6.157   1.094
 4307TIP3   OH212861   4.861   1.457   1.552
 4307TIP3    H112862   4.809   1.528   1.590
 4307TIP3    H212863   4.820   1.441   1.467
 4308TIP3   OH212864   0.539   5.905   5.123
 4308TIP3    H112865   0.496   5.990   5.132
 4308TIP3    H212866   0.474   5.849   5.081
 4309TIP3   OH212867   6.885   4.943   0.477
 4309TIP3    H112868   6.796   4.961   0.509
 4309TIP3    H212869   6.872   4.887   0.401
 4310TIP3   OH212870   7.627   3.772   0.087
 4310TIP3    H112871   7.721   3.768   0.069
 4310TIP3    H212872   7.604   3.682   0.112
 4311TIP3   OH212873   5.900   4.975   3.454
 4311TIP3    H112874   5.947   4.894   3.472
 4311TIP3    H212875   5.811   4.959   3.486
 4312TIP3   OH212876   5.831   5.029   0.610
 4312TIP3    H112877   5.764   4.965   0.634
 4312TIP3    H212878   5.878   5.046   0.692
 4313TIP3   OH212879   4.464   7.187   5.162
 4313TIP3    H112880   4.372   7.167   5.147
 4313TIP3    H212881   4.475   7.184   5.257
 4314TIP3   OH212882   2.730   4.257   1.148
 4314TIP3    H112883   2.671   4.309   1.094
 4314TIP3    H212884   2.673   4.219   1.215
 4315TIP3   OH212885   4.463   6.926   2.932
 4315TIP3    H112886   4.489   6.839   2.902
 4315TIP3    H212887   4.395   6.953   2.870
 4316TIP3   OH212888   3.860   1.786   2.217
 4316TIP3    H112889   3.917   1.748   2.150
 4316TIP3    H212890   3.850   1.717   2.282
 4317TIP3   OH212891   0.894   3.737   4.718
 4317TIP3    H112892   0.929   3.703   4.636
 4317TIP3    H212893   0.816   3.683   4.735
 4318TIP3   OH212894   2.959   6.410   3.381
 4318TIP3    H112895   3.030   6.455   3.427
 4318TIP3    H212896   2.879   6.446   3.420
 4319TIP3   OH212897   0.197   2.207   5.267
 4319TIP3    H112898   0.180   2.213   5.361
 4319TIP3    H212899   0.284   2.168   5.261
 4320TIP3   OH212900   5.010   1.564   0.389
 4320TIP3    H112901   5.035   1.505   0.318
 4320TIP3    H212902   4.987   1.646   0.346
 4321TIP3   OH212903   2.444   0.424   3.475
 4321TIP3    H112904   2.493   0.447   3.554
 4321TIP3    H212905   2.369   0.483   3.476
 4322TIP3   OH212906   4.028   2.193   4.282
 4322TIP3    H112907   4.076   2.229   4.357
 4322TIP3    H212908   3.969   2.128   4.320
 4323TIP3   OH212909   5.130   6.972   1.405
 4323TIP3    H112910   5.141   7.035   1.476
 4323TIP3    H212911   5.184   6.897   1.432
 4324TIP3   OH212912   7.851   7.843   3.957
 4324TIP3    H112913   7.864   7.754   3.990
 4324TIP3    H212914   7.895   7.844   3.872
 4325TIP3   OH212915   4.115   2.103   4.792
 4325TIP3    H112916   4.033   2.065   4.759
 4325TIP3    H212917   4.105   2.197   4.778
 4326TIP3   OH212918   3.510   3.810   4.843
 4326TIP3    H112919   3.576   3.867   4.802
 4326TIP3    H212920   3.534   3.722   4.816
 4327TIP3   OH212921   0.348   3.738   0.613
 4327TIP3    H112922   0.287   3.717   0.683
 4327TIP3    H212923   0.406   3.662   0.608
 4328TIP3   OH212924   4.347   1.663   5.625
 4328TIP3    H112925   4.330   1.639   5.533
 4328TIP3    H212926   4.347   1.759   5.625
 4329TIP3   OH212927   2.344   3.864   0.885
 4329TIP3    H112928   2.269   3.853   0.943
 4329TIP3    H212929   2.402   3.791   0.906
 4330TIP3   OH212930   3.727   4.087   2.876
 4330TIP3    H112931   3.706   3.996   2.897
 4330TIP3    H212932   3.645   4.134   2.893
 4331TIP3   OH212933   5.245   7.656   0.212
 4331TIP3    H112934   5.184   7.729   0.221
 4331TIP3    H212935   5.290   7.674   0.129
 4332TIP3   OH212936   0.815   6.671   0.214
 4332TIP3    H112937   0.733   6.704   0.250
 4332TIP3    H212938   0.814   6.698   0.122
 4333TIP3   OH212939   1.998   0.041   4.893
 4333TIP3    H112940   1.914   0.021   4.851
 4333TIP3    H212941   2.060   0.048   4.821
 4334TIP3   OH212942   5.279   5.031   4.390
 4334TIP3    H112943   5.267   5.022   4.296
 4334TIP3    H212944   5.271   5.125   4.407
 4335TIP3   OH212945   2.625   0.456   5.919
 4335TIP3    H112946   2.682   0.532   5.914
 4335TIP3    H212947   2.651   0.401   5.845
 4336TIP3   OH212948   0.230   3.967   3.122
 4336TIP3    H112949   0.284   3.904   3.170
 4336TIP3    H212950   0.282   3.991   3.046
 4337TIP3   OH212951   2.427   7.322   2.364
 4337TIP3    H112952   2.428   7.301   2.457
 4337TIP3    H212953   2.512   7.364   2.348
 4338TIP3   OH212954   6.883   2.308   0.068
 4338TIP3    H112955   6.826   2.348   0.002
 4338TIP3    H212956   6.824   2.284   0.139
 4339TIP3   OH212957   7.467   6.591   6.696
 4339TIP3    H112958   7.433   6.572   6.784
 4339TIP3    H212959   7.423   6.672   6.671
 4340TIP3   OH212960   8.262   7.776   3.609
 4340TIP3    H112961   8.271   7.753   3.702
 4340TIP3    H212962   8.259   7.871   3.608
 4341TIP3   OH212963   6.146   4.941   3.797
 4341TIP3    H112964   6.180   4.854   3.817
 4341TIP3    H212965   6.099   4.929   3.714
 4342TIP3   OH212966   1.765   3.763   3.982
 4342TIP3    H112967   1.745   3.669   3.982
 4342TIP3    H212968   1.762   3.788   3.890
 4343TIP3   OH212969   2.060   7.451   1.732
 4343TIP3    H112970   2.142   7.477   1.690
 4343TIP3    H212971   2.080   7.448   1.825
 4344TIP3   OH212972   7.647   6.684   0.635
 4344TIP3    H112973   7.666   6.609   0.691
 4344TIP3    H212974   7.568   6.723   0.673
 4345TIP3   OH212975   3.460   2.550   2.483
 4345TIP3    H112976   3.555   2.554   2.468
 4345TIP3    H212977   3.425   2.625   2.434
 4346TIP3   OH212978   7.745   2.585   2.532
 4346TIP3    H112979   7.737   2.501   2.486
 4346TIP3    H212980   7.831   2.618   2.505
 4347TIP3   OH212981   2.921   0.235   1.254
 4347TIP3    H112982   2.951   0.262   1.167
 4347TIP3    H212983   2.984   0.275   1.314
 4348TIP3   OH212984   7.418   5.376   0.016
 4348TIP3    H112985   7.424   5.459  -0.031
 4348TIP3    H212986   7.334   5.381   0.062
 4349TIP3   OH212987   0.772   1.598   1.146
 4349TIP3    H112988   0.764   1.614   1.052
 4349TIP3    H212989   0.708   1.657   1.186
 4350TIP3   OH212990   0.190   0.275   1.202
 4350TIP3    H112991   0.141   0.291   1.283
 4350TIP3    H212992   0.267   0.225   1.231
 4351TIP3   OH212993   7.143   6.173   0.397
 4351TIP3    H112994   7.188   6.207   0.319
 4351TIP3    H212995   7.113   6.251   0.443
 4352TIP3   OH212996   1.080   7.161   2.144
 4352TIP3    H112997   1.151   7.212   2.183
 4352TIP3    H212998   1.094   7.072   2.176
 4353TIP3   OH212999   0.951   4.464   5.538
 4353TIP3    H113000   0.932   4.527   5.608
 4353TIP3    H213001   1.019   4.407   5.575
 4354TIP3   OH213002   2.287   2.783   0.033
 4354TIP3    H113003   2.305   2.846  -0.037
 4354TIP3    H213004   2.373   2.755   0.063
 4355TIP3   OH213005   1.179   2.454   2.972
 4355TIP3    H113006   1.095   2.413   2.993
 4355TIP3    H213007   1.244   2.389   2.998
 4356TIP3   OH213008   5.767   4.537   4.932
 4356TIP3    H113009   5.810   4.530   4.847
 4356TIP3    H213010   5.829   4.587   4.986
 4357TIP3   OH213011   5.023   0.851   6.058
 4357TIP3    H113012   5.015   0.801   5.977
 4357TIP3    H213013   4.962   0.809   6.119
 4358TIP3   OH213014   0.742   2.188   1.485
 4358TIP3    H113015   0.666   2.199   1.428
 4358TIP3    H213016   0.803   2.134   1.434
 4359TIP3   OH213017   7.383   2.884   1.838
 4359TIP3    H113018   7.408   2.972   1.866
 4359TIP3    H213019   7.290   2.878   1.858
 4360TIP3   OH213020   8.233   4.427   4.419
 4360TIP3    H113021   8.312   4.456   4.373
 4360TIP3    H213022   8.254   4.435   4.511
 4361TIP3   OH213023   0.503   1.707   5.648
 4361TIP3    H113024   0.589   1.676   5.620
 4361TIP3    H213025   0.521   1.764   5.723
 4362TIP3   OH213026   5.886   4.790   4.436
 4362TIP3    H113027   5.869   4.696   4.432
 4362TIP3    H213028   5.934   4.809   4.355
 4363TIP3   OH213029   0.815   2.913   1.924
 4363TIP3    H113030   0.832   2.925   1.831
 4363TIP3    H213031   0.878   2.970   1.968
 4364TIP3   OH213032   0.390   1.992   6.100
 4364TIP3    H113033   0.369   1.900   6.084
 4364TIP3    H213034   0.331   2.018   6.171
 4365TIP3   OH213035   1.860   4.220   6.119
 4365TIP3    H113036   1.927   4.227   6.187
 4365TIP3    H213037   1.777   4.229   6.166
 4366TIP3   OH213038   2.702   4.200   1.939
 4366TIP3    H113039   2.680   4.253   1.862
 4366TIP3    H213040   2.733   4.117   1.903
 4367TIP3   OH213041   7.921   3.920   6.569
 4367TIP3    H113042   7.870   3.980   6.625
 4367TIP3    H213043   7.913   3.835   6.611
 4368TIP3   OH213044   5.451   3.328   0.883
 4368TIP3    H113045   5.512   3.274   0.833
 4368TIP3    H213046   5.388   3.360   0.819
 4369TIP3   OH213047   7.811   5.646   6.497
 4369TIP3    H113048   7.827   5.625   6.405
 4369TIP3    H213049   7.723   5.613   6.515
 4370TIP3   OH213050   1.159   6.675   2.075
 4370TIP3    H113051   1.255   6.671   2.071
 4370TIP3    H213052   1.130   6.640   1.991
 4371TIP3   OH213053   6.009   5.611   0.979
 4371TIP3    H113054   5.941   5.567   1.031
 4371TIP3    H213055   6.048   5.542   0.927
 4372TIP3   OH213056   2.116   0.226   6.111
 4372TIP3    H113057   2.101   0.278   6.032
 4372TIP3    H213058   2.040   0.168   6.116
 4373TIP3   OH213059   5.256   5.300   1.622
 4373TIP3    H113060   5.322   5.351   1.575
 4373TIP3    H213061   5.174   5.318   1.576
 4374TIP3   OH213062   1.673   5.676   0.974
 4374TIP3    H113063   1.703   5.704   0.888
 4374TIP3    H213064   1.666   5.581   0.968
 4375TIP3   OH213065   1.636   7.804   1.536
 4375TIP3    H113066   1.730   7.810   1.553
 4375TIP3    H213067   1.605   7.734   1.593
 4376TIP3   OH213068   2.852   2.113   4.231
 4376TIP3    H113069   2.785   2.118   4.164
 4376TIP3    H213070   2.827   2.039   4.286
 4377TIP3   OH213071   6.764   6.355   5.487
 4377TIP3    H113072   6.724   6.442   5.485
 4377TIP3    H213073   6.799   6.347   5.576
 4378TIP3   OH213074   3.186   3.425   3.879
 4378TIP3    H113075   3.245   3.350   3.874
 4378TIP3    H213076   3.109   3.399   3.828
 4379TIP3   OH213077   6.133   7.613   2.293
 4379TIP3    H113078   6.197   7.646   2.229
 4379TIP3    H213079   6.182   7.611   2.376
 4380TIP3   OH213080   3.110   5.312   0.317
 4380TIP3    H113081   3.065   5.361   0.386
 4380TIP3    H213082   3.062   5.334   0.237
 4381TIP3   OH213083   7.016   0.688   6.291
 4381TIP3    H113084   6.946   0.717   6.233
 4381TIP3    H213085   6.971   0.659   6.371
 4382TIP3   OH213086   4.699   5.828   1.452
 4382TIP3    H113087   4.658   5.833   1.538
 4382TIP3    H213088   4.769   5.893   1.455
 4383TIP3   OH213089   7.020   7.832   0.184
 4383TIP3    H113090   7.053   7.899   0.243
 4383TIP3    H213091   7.021   7.751   0.237
 4384TIP3   OH213092   4.920   2.634   3.896
 4384TIP3    H113093   4.851   2.665   3.956
 4384TIP3    H213094   4.872   2.601   3.820
 4385TIP3   OH213095   0.851   5.642   2.642
 4385TIP3    H113096   0.800   5.566   2.671
 4385TIP3    H213097   0.918   5.653   2.709
 4386TIP3   OH213098   3.628   2.520   0.430
 4386TIP3    H113099   3.644   2.582   0.359
 4386TIP3    H213100   3.711   2.516   0.477
 4387TIP3   OH213101   3.317   2.825   0.874
 4387TIP3    H113102   3.344   2.829   0.965
 4387TIP3    H213103   3.400   2.830   0.825
 4388TIP3   OH213104   3.607   4.413   1.411
 4388TIP3    H113105   3.543   4.439   1.345
 4388TIP3    H213106   3.657   4.493   1.429
 4389TIP3   OH213107   3.586   3.360   0.057
 4389TIP3    H113108   3.672   3.391   0.083
 4389TIP3    H213109   3.588   3.361  -0.039
 4390TIP3   OH213110   4.833   0.941   0.249
 4390TIP3    H113111   4.808   0.852   0.225
 4390TIP3    H213112   4.915   0.931   0.297
 4391TIP3   OH213113   3.419   0.484   6.235
 4391TIP3    H113114   3.420   0.551   6.167
 4391TIP3    H213115   3.511   0.467   6.253
 4392TIP3   OH213116   6.975   2.928   6.886
 4392TIP3    H113117   6.944   2.877   6.811
 4392TIP3    H213118   7.042   2.985   6.849
 4393TIP3   OH213119   6.074   6.371   0.953
 4393TIP3    H113120   6.098   6.349   1.043
 4393TIP3    H213121   6.021   6.450   0.961
 4394TIP3   OH213122   1.926   0.499   3.362
 4394TIP3    H113123   1.898   0.494   3.453
 4394TIP3    H213124   1.946   0.592   3.349
 4395TIP3   OH213125   5.025   2.447   2.746
 4395TIP3    H113126   5.077   2.442   2.827
 4395TIP3    H213127   4.955   2.509   2.766
 4396TIP3   OH213128   1.971   6.347   2.801
 4396TIP3    H113129   2.051   6.390   2.830
 4396TIP3    H213130   1.972   6.355   2.706
 4397TIP3   OH213131   4.271   1.916   2.814
 4397TIP3    H113132   4.359   1.897   2.779
 4397TIP3    H213133   4.224   1.954   2.739
 4398TIP3   OH213134   7.532   7.054   5.653
 4398TIP3    H113135   7.491   7.030   5.570
 4398TIP3    H213136   7.555   7.146   5.643
 4399TIP3   OH213137   2.116   3.824   4.937
 4399TIP3    H113138   2.185   3.869   4.985
 4399TIP3    H213139   2.037   3.835   4.990
 4400TIP3   OH213140   6.983   0.934   3.812
 4400TIP3    H113141   6.894   0.936   3.778
 4400TIP3    H213142   6.992   1.015   3.862
 4401TIP3   OH213143   1.589   4.938   1.191
 4401TIP3    H113144   1.629   5.025   1.194
 4401TIP3    H213145   1.645   4.884   1.248
 4402TIP3   OH213146   5.755   7.283   0.554
 4402TIP3    H113147   5.730   7.224   0.483
 4402TIP3    H213148   5.851   7.285   0.549
 4403TIP3   OH213149   7.089   5.049   2.142
 4403TIP3    H113150   7.099   4.955   2.158
 4403TIP3    H213151   7.098   5.089   2.229
 4404TIP3   OH213152   6.568   4.673   4.997
 4404TIP3    H113153   6.642   4.725   5.029
 4404TIP3    H213154   6.585   4.662   4.904
 4405TIP3   OH213155   1.872   7.147   1.875
 4405TIP3    H113156   1.880   7.187   1.789
 4405TIP3    H213157   1.954   7.168   1.920
 4406TIP3   OH213158   6.043   1.648   3.805
 4406TIP3    H113159   5.961   1.697   3.806
 4406TIP3    H213160   6.108   1.712   3.776
 4407TIP3   OH213161   7.375   1.663   1.126
 4407TIP3    H113162   7.411   1.651   1.038
 4407TIP3    H213163   7.417   1.596   1.179
 4408TIP3   OH213164   4.530   2.253   3.930
 4408TIP3    H113165   4.608   2.236   3.877
 4408TIP3    H213166   4.458   2.253   3.867
 4409TIP3   OH213167   1.614   2.103   6.840
 4409TIP3    H113168   1.599   2.014   6.808
 4409TIP3    H213169   1.709   2.113   6.840
 4410TIP3   OH213170   6.113   3.044   0.929
 4410TIP3    H113171   6.168   2.980   0.974
 4410TIP3    H213172   6.060   2.992   0.869
 4411TIP3   OH213173   7.040   7.947   6.768
 4411TIP3    H113174   7.132   7.971   6.783
 4411TIP3    H213175   7.019   7.886   6.838
 4412TIP3   OH213176   7.480   2.070   3.389
 4412TIP3    H113177   7.433   2.153   3.397
 4412TIP3    H213178   7.432   2.010   3.447
 4413TIP3   OH213179   7.482   1.832   6.773
 4413TIP3    H113180   7.489   1.847   6.868
 4413TIP3    H213181   7.402   1.877   6.747
 4414TIP3   OH213182   3.940   7.639   6.132
 4414TIP3    H113183   3.937   7.677   6.220
 4414TIP3    H213184   3.889   7.700   6.078
 4415TIP3   OH213185   8.340   5.139   4.950
 4415TIP3    H113186   8.367   5.205   5.014
 4415TIP3    H213187   8.278   5.185   4.894
 4416TIP3   OH213188   2.192   2.761   6.545
 4416TIP3    H113189   2.110   2.712   6.533
 4416TIP3    H213190   2.186   2.796   6.634
 4417TIP3   OH213191   7.637   6.481   4.315
 4417TIP3    H113192   7.708   6.491   4.378
 4417TIP3    H213193   7.681   6.456   4.233
 4418TIP3   OH213194   2.531   0.108   0.562
 4418TIP3    H113195   2.514   0.014   0.557
 4418TIP3    H213196   2.514   0.141   0.474
 4419TIP3   OH213197   6.936   4.166   3.760
 4419TIP3    H113198   6.881   4.188   3.835
 4419TIP3    H213199   6.902   4.219   3.688
 4420TIP3   OH213200   3.769   1.399   5.977
 4420TIP3    H113201   3.835   1.431   6.038
 4420TIP3    H213202   3.714   1.475   5.960
 4421TIP3   OH213203   3.340   1.829   6.801
 4421TIP3    H113204   3.330   1.843   6.895
 4421TIP3    H213205   3.275   1.888   6.762
 4422TIP3   OH213206   7.683   3.006   1.320
 4422TIP3    H113207   7.595   3.004   1.358
 4422TIP3    H213208   7.676   2.957   1.238
 4423TIP3   OH213209   5.779   1.556   5.717
 4423TIP3    H113210   5.794   1.562   5.623
 4423TIP3    H213211   5.721   1.481   5.728
 4424TIP3   OH213212   4.451   0.537   4.491
 4424TIP3    H113213   4.541   0.569   4.479
 4424TIP3    H213214   4.421   0.578   4.572
 4425TIP3   OH213215   6.957   6.197   5.987
 4425TIP3    H113216   7.042   6.167   6.019
 4425TIP3    H213217   6.894   6.165   6.052
 4426TIP3   OH213218   4.147   7.230   5.335
 4426TIP3    H113219   4.070   7.287   5.328
 4426TIP3    H213220   4.201   7.271   5.403
 4427TIP3   OH213221   8.178   5.419   6.407
 4427TIP3    H113222   8.155   5.508   6.382
 4427TIP3    H213223   8.213   5.380   6.327
 4428TIP3   OH213224   2.718   1.700   2.851
 4428TIP3    H113225   2.811   1.724   2.852
 4428TIP3    H213226   2.676   1.768   2.800
 4429TIP3   OH213227   8.157   2.031   6.207
 4429TIP3    H113228   8.131   2.072   6.290
 4429TIP3    H213229   8.216   2.094   6.166
 4430TIP3   OH213230   4.373   2.902   4.584
 4430TIP3    H113231   4.439   2.832   4.576
 4430TIP3    H213232   4.420   2.976   4.621
 4431TIP3   OH213233   2.632   4.955   1.521
 4431TIP3    H113234   2.588   4.894   1.580
 4431TIP3    H213235   2.599   5.041   1.546
 4432TIP3   OH213236   5.417   5.925   3.449
 4432TIP3    H113237   5.399   5.920   3.355
 4432TIP3    H213238   5.511   5.944   3.454
 4433TIP3   OH213239   8.177   4.247   1.299
 4433TIP3    H113240   8.178   4.212   1.210
 4433TIP3    H213241   8.150   4.338   1.289
 4434TIP3   OH213242   6.733   3.844   1.520
 4434TIP3    H113243   6.772   3.930   1.502
 4434TIP3    H213244   6.646   3.864   1.555
 4435TIP3   OH213245   5.070   4.175   5.378
 4435TIP3    H113246   5.107   4.087   5.388
 4435TIP3    H213247   5.047   4.200   5.468
 4436TIP3   OH213248   4.309   5.556   3.581
 4436TIP3    H113249   4.291   5.462   3.585
 4436TIP3    H213250   4.240   5.592   3.526
 4437TIP3   OH213251   2.150   6.849   0.795
 4437TIP3    H113252   2.187   6.901   0.724
 4437TIP3    H213253   2.154   6.758   0.763
 4438TIP3   OH213254   6.853   6.341   1.677
 4438TIP3    H113255   6.825   6.286   1.750
 4438TIP3    H213256   6.775   6.349   1.622
 4439TIP3   OH213257   6.484   7.669   3.372
 4439TIP3    H113258   6.560   7.651   3.316
 4439TIP3    H213259   6.512   7.740   3.429
 4440TIP3   OH213260   7.637   7.382   6.518
 4440TIP3    H113261   7.611   7.438   6.445
 4440TIP3    H213262   7.619   7.434   6.596
 4441TIP3   OH213263   4.771   3.063   3.484
 4441TIP3    H113264   4.816   3.147   3.475
 4441TIP3    H213265   4.700   3.067   3.420
 4442TIP3   OH213266   5.740   3.475   6.182
 4442TIP3    H113267   5.764   3.523   6.103
 4442TIP3    H213268   5.739   3.542   6.251
 4443TIP3   OH213269   2.134   5.963   5.544
 4443TIP3    H113270   2.086   6.033   5.588
 4443TIP3    H213271   2.226   5.978   5.567
 4444TIP3   OH213272   7.342   7.227   1.667
 4444TIP3    H113273   7.290   7.269   1.736
 4444TIP3    H213274   7.401   7.168   1.715
 4445TIP3   OH213275   6.158   2.908   2.564
 4445TIP3    H113276   6.253   2.902   2.564
 4445TIP3    H213277   6.135   2.915   2.657
 4446TIP3   OH213278   6.142   4.132   3.042
 4446TIP3    H113279   6.175   4.161   2.957
 4446TIP3    H213280   6.056   4.174   3.050
 4447TIP3   OH213281   2.047   7.743   1.325
 4447TIP3    H113282   2.069   7.716   1.236
 4447TIP3    H213283   1.953   7.756   1.323
 4448TIP3   OH213284   1.880   5.381   1.791
 4448TIP3    H113285   1.812   5.437   1.754
 4448TIP3    H213286   1.957   5.398   1.736
 4449TIP3   OH213287   1.803   1.767   2.317
 4449TIP3    H113288   1.853   1.730   2.390
 4449TIP3    H213289   1.855   1.843   2.289
 4450TIP3   OH213290   1.273   4.216   2.572
 4450TIP3    H113291   1.210   4.166   2.624
 4450TIP3    H213292   1.258   4.307   2.598
 4451TIP3   OH213293   6.952   7.178   6.468
 4451TIP3    H113294   6.897   7.157   6.392
 4451TIP3    H213295   6.891   7.181   6.541
 4452TIP3   OH213296   3.593   6.186   4.443
 4452TIP3    H113297   3.530   6.257   4.444
 4452TIP3    H213298   3.666   6.217   4.498
 4453TIP3   OH213299   4.331   0.288   3.534
 4453TIP3    H113300   4.321   0.225   3.463
 4453TIP3    H213301   4.393   0.247   3.594
 4454TIP3   OH213302   3.423   3.658   4.186
 4454TIP3    H113303   3.481   3.647   4.111
 4454TIP3    H213304   3.446   3.743   4.223
 4455TIP3   OH213305   3.538   2.432   2.944
 4455TIP3    H113306   3.496   2.346   2.936
 4455TIP3    H213307   3.467   2.494   2.932
 4456TIP3   OH213308   2.363   6.737   2.830
 4456TIP3    H113309   2.270   6.758   2.843
 4456TIP3    H213310   2.366   6.642   2.828
 4457TIP3   OH213311   5.437   3.046   4.027
 4457TIP3    H113312   5.508   3.064   4.088
 4457TIP3    H213313   5.435   2.951   4.018
 4458TIP3   OH213314   1.420   1.471   6.076
 4458TIP3    H113315   1.496   1.448   6.024
 4458TIP3    H213316   1.402   1.563   6.055
 4459TIP3   OH213317   3.046   7.695   2.183
 4459TIP3    H113318   3.093   7.728   2.259
 4459TIP3    H213319   3.039   7.769   2.123
 4460TIP3   OH213320   5.206   1.420   3.576
 4460TIP3    H113321   5.127   1.390   3.621
 4460TIP3    H213322   5.205   1.373   3.493
 4461TIP3   OH213323   5.004   4.467   4.021
 4461TIP3    H113324   5.077   4.505   4.070
 4461TIP3    H213325   4.929   4.476   4.080
 4462TIP3   OH213326   2.536   4.222   5.895
 4462TIP3    H113327   2.474   4.207   5.966
 4462TIP3    H213328   2.621   4.201   5.932
 4463TIP3   OH213329   6.474   0.667   1.072
 4463TIP3    H113330   6.508   0.750   1.040
 4463TIP3    H213331   6.440   0.623   0.993
 4464TIP3   OH213332   5.460   4.717   0.670
 4464TIP3    H113333   5.388   4.742   0.612
 4464TIP3    H213334   5.417   4.672   0.743
 4465TIP3   OH213335   6.140   6.134   0.175
 4465TIP3    H113336   6.102   6.143   0.087
 4465TIP3    H213337   6.162   6.223   0.201
 4466TIP3   OH213338   2.695   1.215   5.323
 4466TIP3    H113339   2.766   1.279   5.316
 4466TIP3    H213340   2.738   1.130   5.311
 4467TIP3   OH213341   0.236   2.896   5.741
 4467TIP3    H113342   0.318   2.846   5.742
 4467TIP3    H213343   0.255   2.973   5.795
 4468TIP3   OH213344   1.885   0.776   3.052
 4468TIP3    H113345   1.874   0.688   3.015
 4468TIP3    H213346   1.887   0.834   2.975
 4469TIP3   OH213347   6.622   7.085   3.968
 4469TIP3    H113348   6.584   7.155   3.915
 4469TIP3    H213349   6.703   7.122   4.002
 4470TIP3   OH213350   4.322   3.032   3.860
 4470TIP3    H113351   4.303   3.030   3.954
 4470TIP3    H213352   4.237   3.048   3.819
 4471TIP3   OH213353   6.328   3.759   5.135
 4471TIP3    H113354   6.383   3.834   5.113
 4471TIP3    H213355   6.256   3.795   5.186
 4472TIP3   OH213356   2.503   0.073   1.145
 4472TIP3    H113357   2.420   0.041   1.181
 4472TIP3    H213358   2.569   0.040   1.206
 4473TIP3   OH213359   8.287   7.544   2.124
 4473TIP3    H113360   8.197   7.566   2.146
 4473TIP3    H213361   8.296   7.568   2.032
 4474TIP3   OH213362   3.733   2.321   1.875
 4474TIP3    H113363   3.709   2.295   1.785
 4474TIP3    H213364   3.655   2.365   1.908
 4475TIP3   OH213365   5.515   5.989   6.012
 4475TIP3    H113366   5.437   6.042   6.026
 4475TIP3    H213367   5.509   5.960   5.920
 4476TIP3   OH213368   3.291   0.816   3.765
 4476TIP3    H113369   3.356   0.882   3.788
 4476TIP3    H213370   3.208   0.849   3.800
 4477TIP3   OH213371   4.769   7.046   2.655
 4477TIP3    H113372   4.685   7.066   2.615
 4477TIP3    H213373   4.788   6.956   2.626
 4478TIP3   OH213374   7.081   5.928   2.824
 4478TIP3    H113375   7.148   5.983   2.866
 4478TIP3    H213376   7.036   5.885   2.898
 4479TIP3   OH213377   2.332   6.357   0.969
 4479TIP3    H113378   2.348   6.352   1.063
 4479TIP3    H213379   2.411   6.321   0.929
 4480TIP3   OH213380   8.203   1.928   5.076
 4480TIP3    H113381   8.114   1.914   5.043
 4480TIP3    H213382   8.254   1.952   4.998
 4481TIP3   OH213383   2.624   4.747   0.917
 4481TIP3    H113384   2.637   4.705   1.001
 4481TIP3    H213385   2.698   4.807   0.908
 4482TIP3   OH213386   4.815   6.079   6.651
 4482TIP3    H113387   4.727   6.114   6.646
 4482TIP3    H213388   4.805   5.985   6.637
 4483TIP3   OH213389   4.199   4.930   2.867
 4483TIP3    H113390   4.293   4.950   2.870
 4483TIP3    H213391   4.163   4.970   2.945
 4484TIP3   OH213392   4.980   1.888   4.072
 4484TIP3    H113393   4.954   1.861   4.160
 4484TIP3    H213394   4.907   1.943   4.042
 4485TIP3   OH213395   3.755   6.348   0.595
 4485TIP3    H113396   3.817   6.420   0.585
 4485TIP3    H213397   3.674   6.390   0.624
 4486TIP3   OH213398   1.139   1.558   5.184
 4486TIP3    H113399   1.121   1.473   5.225
 4486TIP3    H213400   1.226   1.582   5.215
 4487TIP3   OH213401   2.908   5.905   2.703
 4487TIP3    H113402   2.983   5.891   2.760
 4487TIP3    H213403   2.910   5.998   2.682
 4488TIP3   OH213404   6.627   2.050   4.513
 4488TIP3    H113405   6.651   2.141   4.532
 4488TIP3    H213406   6.695   1.998   4.556
 4489TIP3   OH213407   7.839   4.443   0.050
 4489TIP3    H113408   7.750   4.457   0.084
 4489TIP3    H213409   7.895   4.447   0.128
 4490TIP3   OH213410   5.556   4.046   3.793
 4490TIP3    H113411   5.598   4.103   3.728
 4490TIP3    H213412   5.481   4.009   3.747
 4491TIP3   OH213413   0.593   2.852   6.561
 4491TIP3    H113414   0.644   2.891   6.490
 4491TIP3    H213415   0.502   2.862   6.533
 4492TIP3   OH213416   0.682   2.007   6.149
 4492TIP3    H113417   0.595   2.043   6.135
 4492TIP3    H213418   0.742   2.077   6.124
 4493TIP3   OH213419   1.269   1.171   2.018
 4493TIP3    H113420   1.349   1.120   2.001
 4493TIP3    H213421   1.233   1.188   1.931
 4494TIP3   OH213422   3.527   7.566   5.381
 4494TIP3    H113423   3.510   7.659   5.372
 4494TIP3    H213424   3.463   7.536   5.445
 4495TIP3   OH213425   7.648   4.389   0.568
 4495TIP3    H113426   7.671   4.481   0.582
 4495TIP3    H213427   7.637   4.382   0.473
 4496TIP3   OH213428   5.529   2.452   0.446
 4496TIP3    H113429   5.573   2.512   0.385
 4496TIP3    H213430   5.527   2.500   0.529
 4497TIP3   OH213431   6.527   6.166   6.850
 4497TIP3    H113432   6.581   6.203   6.781
 4497TIP3    H213433   6.481   6.093   6.808
 4498TIP3   OH213434   7.454   2.806   6.005
 4498TIP3    H113435   7.402   2.845   6.076
 4498TIP3    H213436   7.503   2.880   5.969
 4499TIP3   OH213437   4.949   1.557   1.973
 4499TIP3    H113438   4.853   1.561   1.971
 4499TIP3    H213439   4.969   1.488   2.036
 4500TIP3   OH213440   3.526   4.080   0.928
 4500TIP3    H113441   3.507   4.109   1.017
 4500TIP3    H213442   3.592   4.141   0.896
 4501TIP3   OH213443   5.708   2.149   4.439
 4501TIP3    H113444   5.737   2.227   4.485
 4501TIP3    H213445   5.621   2.171   4.406
 4502TIP3   OH213446   4.556   0.256   1.874
 4502TIP3    H113447   4.534   0.186   1.934
 4502TIP3    H213448   4.554   0.215   1.787
 4503TIP3   OH213449   3.721   5.041   3.437
 4503TIP3    H113450   3.633   5.011   3.461
 4503TIP3    H213451   3.767   5.047   3.521
 4504TIP3   OH213452   0.954   1.408   5.590
 4504TIP3    H113453   0.880   1.349   5.578
 4504TIP3    H213454   1.028   1.350   5.610
 4505TIP3   OH213455   0.573   0.830   4.394
 4505TIP3    H113456   0.594   0.893   4.463
 4505TIP3    H213457   0.652   0.829   4.339
 4506TIP3   OH213458   0.807   7.186   4.451
 4506TIP3    H113459   0.860   7.162   4.527
 4506TIP3    H213460   0.750   7.256   4.483
 4507TIP3   OH213461   6.787   1.726   2.986
 4507TIP3    H113462   6.865   1.751   3.034
 4507TIP3    H213463   6.714   1.760   3.039
 4508TIP3   OH213464   1.223   6.245   0.278
 4508TIP3    H113465   1.253   6.313   0.218
 4508TIP3    H213466   1.135   6.222   0.246
 4509TIP3   OH213467   1.344   1.236   3.358
 4509TIP3    H113468   1.423   1.206   3.312
 4509TIP3    H213469   1.378   1.278   3.438
 4510TIP3   OH213470   8.346   7.104   2.423
 4510TIP3    H113471   8.415   7.156   2.463
 4510TIP3    H213472   8.294   7.071   2.496
 4511TIP3   OH213473   8.231   4.677   0.169
 4511TIP3    H113474   8.214   4.663   0.262
 4511TIP3    H213475   8.245   4.772   0.162
 4512TIP3   OH213476   0.878   5.706   1.209
 4512TIP3    H113477   0.890   5.777   1.146
 4512TIP3    H213478   0.840   5.635   1.158
 4513TIP3   OH213479   2.697   1.952   6.720
 4513TIP3    H113480   2.698   1.875   6.777
 4513TIP3    H213481   2.632   1.932   6.653
 4514TIP3   OH213482   7.314   0.214   3.805
 4514TIP3    H113483   7.263   0.253   3.734
 4514TIP3    H213484   7.397   0.189   3.764
 4515TIP3   OH213485   3.886   0.705   5.195
 4515TIP3    H113486   3.814   0.744   5.245
 4515TIP3    H213487   3.887   0.755   5.113
 4516TIP3   OH213488   0.588   7.899   1.753
 4516TIP3    H113489   0.621   7.836   1.688
 4516TIP3    H213490   0.496   7.874   1.766
 4517TIP3   OH213491   5.046   7.592   0.950
 4517TIP3    H113492   5.088   7.583   0.865
 4517TIP3    H213493   5.090   7.666   0.991
 4518TIP3   OH213494   1.462   3.621   2.119
 4518TIP3    H113495   1.454   3.648   2.210
 4518TIP3    H213496   1.433   3.696   2.068
 4519TIP3   OH213497   7.639   4.852   3.141
 4519TIP3    H113498   7.640   4.884   3.232
 4519TIP3    H213499   7.547   4.826   3.127
 4520TIP3   OH213500   2.917   6.772   4.074
 4520TIP3    H113501   3.008   6.751   4.052
 4520TIP3    H213502   2.871   6.765   3.991
 4521TIP3   OH213503   2.987   0.140   5.642
 4521TIP3    H113504   3.035   0.203   5.696
 4521TIP3    H213505   3.027   0.149   5.555
 4522TIP3   OH213506   1.298   1.648   2.293
 4522TIP3    H113507   1.305   1.565   2.246
 4522TIP3    H213508   1.234   1.699   2.244
 4523TIP3   OH213509   7.830   7.587   3.580
 4523TIP3    H113510   7.741   7.554   3.566
 4523TIP3    H213511   7.847   7.571   3.673
 4524TIP3   OH213512   5.477   3.174   6.395
 4524TIP3    H113513   5.445   3.212   6.313
 4524TIP3    H213514   5.401   3.175   6.453
 4525TIP3   OH213515   1.648   1.371   5.647
 4525TIP3    H113516   1.566   1.345   5.691
 4525TIP3    H213517   1.620   1.400   5.561
 4526TIP3   OH213518   7.776   4.154   0.653
 4526TIP3    H113519   7.745   4.138   0.742
 4526TIP3    H213520   7.726   4.231   0.624
 4527TIP3   OH213521   6.333   3.851   0.672
 4527TIP3    H113522   6.383   3.775   0.640
 4527TIP3    H213523   6.369   3.925   0.623
 4528TIP3   OH213524   5.619   2.715   5.337
 4528TIP3    H113525   5.548   2.703   5.400
 4528TIP3    H213526   5.693   2.668   5.376
 4529TIP3   OH213527   3.887   2.512   0.552
 4529TIP3    H113528   3.876   2.599   0.588
 4529TIP3    H213529   3.977   2.511   0.518
 4530TIP3   OH213530   7.345   3.604   3.519
 4530TIP3    H113531   7.253   3.592   3.496
 4530TIP3    H213532   7.345   3.612   3.615
 4531TIP3   OH213533   2.936   2.659   5.638
 4531TIP3    H113534   2.948   2.574   5.680
 4531TIP3    H213535   3.013   2.710   5.665
 4532TIP3   OH213536   1.587   4.862   2.929
 4532TIP3    H113537   1.518   4.923   2.903
 4532TIP3    H213538   1.609   4.887   3.019
 4533TIP3   OH213539   5.180   2.977   2.745
 4533TIP3    H113540   5.242   2.932   2.687
 4533TIP3    H213541   5.094   2.949   2.715
 4534TIP3   OH213542   0.034   5.585   5.522
 4534TIP3    H113543   0.092   5.576   5.597
 4534TIP3    H213544  -0.035   5.520   5.537
 4535TIP3   OH213545   6.715   1.675   5.676
 4535TIP3    H113546   6.652   1.617   5.719
 4535TIP3    H213547   6.772   1.705   5.748
 4536TIP3   OH213548   3.918   4.238   0.566
 4536TIP3    H113549   3.915   4.327   0.531
 4536TIP3    H213550   4.009   4.211   0.554
 4537TIP3   OH213551   6.383   4.586   2.781
 4537TIP3    H113552   6.294   4.606   2.753
 4537TIP3    H213553   6.405   4.657   2.842
 4538TIP3   OH213554   0.693   4.197   0.903
 4538TIP3    H113555   0.626   4.129   0.913
 4538TIP3    H213556   0.644   4.279   0.912
 4539TIP3   OH213557   6.301   5.836   6.665
 4539TIP3    H113558   6.262   5.923   6.659
 4539TIP3    H213559   6.286   5.809   6.755
 4540TIP3   OH213560   2.195   5.053   0.474
 4540TIP3    H113561   2.173   4.986   0.409
 4540TIP3    H213562   2.221   5.003   0.552
 4541TIP3   OH213563   5.404   3.567   3.296
 4541TIP3    H113564   5.490   3.610   3.296
 4541TIP3    H213565   5.381   3.560   3.204
 4542TIP3   OH213566   7.044   4.455   1.996
 4542TIP3    H113567   7.058   4.544   1.965
 4542TIP3    H213568   7.045   4.462   2.092
 4543TIP3   OH213569   8.094   2.634   0.076
 4543TIP3    H113570   8.118   2.645  -0.016
 4543TIP3    H213571   8.026   2.699   0.091
 4544TIP3   OH213572   1.900   0.263   3.209
 4544TIP3    H113573   1.939   0.277   3.123
 4544TIP3    H213574   1.938   0.332   3.264
 4545TIP3   OH213575   0.150   2.935   0.553
 4545TIP3    H113576   0.142   2.998   0.481
 4545TIP3    H213577   0.140   2.850   0.510
 4546TIP3   OH213578   7.647   0.563   4.142
 4546TIP3    H113579   7.644   0.480   4.095
 4546TIP3    H213580   7.633   0.540   4.233
 4547TIP3   OH213581   4.206   4.713   1.116
 4547TIP3    H113582   4.271   4.729   1.047
 4547TIP3    H213583   4.181   4.800   1.146
 4548TIP3   OH213584   4.960   2.116   6.201
 4548TIP3    H113585   5.032   2.060   6.229
 4548TIP3    H213586   4.996   2.204   6.201
 4549TIP3   OH213587   8.330   2.118   4.868
 4549TIP3    H113588   8.414   2.154   4.840
 4549TIP3    H213589   8.282   2.192   4.905
 4550TIP3   OH213590   5.426   7.740   3.364
 4550TIP3    H113591   5.380   7.691   3.296
 4550TIP3    H213592   5.367   7.812   3.387
 4551TIP3   OH213593   7.156   0.283   6.442
 4551TIP3    H113594   7.236   0.258   6.396
 4551TIP3    H213595   7.090   0.288   6.373
 4552TIP3   OH213596   2.039   1.030   1.371
 4552TIP3    H113597   2.056   0.954   1.426
 4552TIP3    H213598   2.116   1.037   1.315
 4553TIP3   OH213599   0.324   3.300   2.981
 4553TIP3    H113600   0.369   3.383   2.962
 4553TIP3    H213601   0.393   3.235   2.986
 4554TIP3   OH213602   7.286   1.344   3.754
 4554TIP3    H113603   7.337   1.342   3.835
 4554TIP3    H213604   7.203   1.303   3.776
 4555TIP3   OH213605   2.141   3.131   6.607
 4555TIP3    H113606   2.203   3.192   6.646
 4555TIP3    H213607   2.142   3.055   6.665
 4556TIP3   OH213608   2.670   7.692   2.996
 4556TIP3    H113609   2.741   7.754   2.980
 4556TIP3    H213610   2.598   7.746   3.030
 4557TIP3   OH213611   7.515   2.180   4.191
 4557TIP3    H113612   7.569   2.257   4.173
 4557TIP3    H213613   7.556   2.110   4.139
 4558TIP3   OH213614   3.260   7.885   1.003
 4558TIP3    H113615   3.284   7.802   0.961
 4558TIP3    H213616   3.198   7.925   0.942
 4559TIP3   OH213617   3.367   5.774   3.653
 4559TIP3    H113618   3.307   5.840   3.688
 4559TIP3    H213619   3.449   5.822   3.640
 4560TIP3   OH213620   6.586   6.571   3.232
 4560TIP3    H113621   6.557   6.480   3.220
 4560TIP3    H213622   6.504   6.620   3.243
 4561TIP3   OH213623   4.783   5.306   5.493
 4561TIP3    H113624   4.740   5.391   5.501
 4561TIP3    H213625   4.859   5.323   5.437
 4562TIP3   OH213626   2.489   1.095   6.388
 4562TIP3    H113627   2.472   1.055   6.303
 4562TIP3    H213628   2.508   1.021   6.447
 4563TIP3   OH213629   6.263   2.266   1.288
 4563TIP3    H113630   6.296   2.307   1.208
 4563TIP3    H213631   6.187   2.215   1.260
 4564TIP3   OH213632   4.192   4.317   5.326
 4564TIP3    H113633   4.261   4.259   5.294
 4564TIP3    H213634   4.114   4.291   5.277
 4565TIP3   OH213635   1.472   2.251   3.782
 4565TIP3    H113636   1.537   2.188   3.813
 4565TIP3    H213637   1.479   2.325   3.842
 4566TIP3   OH213638   7.579   0.281   2.534
 4566TIP3    H113639   7.589   0.365   2.578
 4566TIP3    H213640   7.657   0.274   2.479
 4567TIP3   OH213641   5.881   1.884   0.092
 4567TIP3    H113642   5.870   1.842   0.177
 4567TIP3    H213643   5.887   1.811   0.030
 4568TIP3   OH213644   6.489   5.586   2.177
 4568TIP3    H113645   6.420   5.638   2.219
 4568TIP3    H213646   6.483   5.609   2.084
 4569TIP3   OH213647   5.667   2.312   2.923
 4569TIP3    H113648   5.610   2.289   2.849
 4569TIP3    H213649   5.646   2.247   2.990
 4570TIP3   OH213650   6.169   0.398   0.426
 4570TIP3    H113651   6.115   0.477   0.431
 4570TIP3    H213652   6.180   0.370   0.517
 4571TIP3   OH213653   5.155   5.426   6.269
 4571TIP3    H113654   5.137   5.492   6.203
 4571TIP3    H213655   5.082   5.364   6.262
 4572TIP3   OH213656   1.241   4.878   3.076
 4572TIP3    H113657   1.300   4.901   3.148
 4572TIP3    H213658   1.232   4.783   3.082
 4573TIP3   OH213659   1.635   7.028   3.300
 4573TIP3    H113660   1.601   6.942   3.275
 4573TIP3    H213661   1.684   7.059   3.224
 4574TIP3   OH213662   3.207   2.906   3.501
 4574TIP3    H113663   3.167   2.934   3.583
 4574TIP3    H213664   3.166   2.962   3.434
 4575TIP3   OH213665   7.627   4.463   6.589
 4575TIP3    H113666   7.539   4.431   6.570
 4575TIP3    H213667   7.647   4.522   6.516
 4576TIP3   OH213668   6.325   2.506   2.515
 4576TIP3    H113669   6.270   2.563   2.568
 4576TIP3    H213670   6.379   2.459   2.578
 4577TIP3   OH213671   6.526   1.356   5.621
 4577TIP3    H113672   6.469   1.279   5.617
 4577TIP3    H213673   6.467   1.427   5.647
 4578TIP3   OH213674   5.655   2.855   2.760
 4578TIP3    H113675   5.650   2.769   2.718
 4578TIP3    H213676   5.728   2.900   2.717
 4579TIP3   OH213677   5.305   5.729   5.455
 4579TIP3    H113678   5.374   5.672   5.489
 4579TIP3    H213679   5.320   5.732   5.361
 4580TIP3   OH213680   7.182   6.114   6.128
 4580TIP3    H113681   7.278   6.109   6.127
 4580TIP3    H213682   7.153   6.024   6.120
 4581TIP3   OH213683   5.081   3.817   0.236
 4581TIP3    H113684   5.052   3.909   0.239
 4581TIP3    H213685   5.013   3.772   0.188
 4582TIP3   OH213686   1.986   3.749   6.609
 4582TIP3    H113687   1.911   3.749   6.669
 4582TIP3    H213688   2.062   3.757   6.666
 4583TIP3   OH213689   8.090   7.633   1.151
 4583TIP3    H113690   8.140   7.687   1.212
 4583TIP3    H213691   8.086   7.685   1.070
 4584TIP3   OH213692   1.673   3.678   0.136
 4584TIP3    H113693   1.728   3.711   0.065
 4584TIP3    H213694   1.700   3.728   0.213
 4585TIP3   OH213695   7.689   2.700   0.395
 4585TIP3    H113696   7.751   2.668   0.461
 4585TIP3    H213697   7.603   2.674   0.427
 4586TIP3   OH213698   1.781   4.800   2.316
 4586TIP3    H113699   1.758   4.844   2.398
 4586TIP3    H213700   1.722   4.837   2.251
 4587TIP3   OH213701   2.755   2.416   4.798
 4587TIP3    H113702   2.804   2.347   4.844
 4587TIP3    H213703   2.724   2.374   4.718
 4588TIP3   OH213704   7.923   6.852   2.779
 4588TIP3    H113705   7.870   6.891   2.849
 4588TIP3    H213706   7.940   6.924   2.719
 4589TIP3   OH213707   7.995   3.330   0.297
 4589TIP3    H113708   7.962   3.374   0.218
 4589TIP3    H213709   8.078   3.290   0.269
 4590TIP3   OH213710   2.388   1.758   6.264
 4590TIP3    H113711   2.315   1.700   6.240
 4590TIP3    H213712   2.466   1.705   6.247
 4591TIP3   OH213713   5.680   3.166   4.546
 4591TIP3    H113714   5.667   3.226   4.473
 4591TIP3    H213715   5.661   3.218   4.624
 4592TIP3   OH213716   7.635   7.350   3.384
 4592TIP3    H113717   7.555   7.328   3.336
 4592TIP3    H213718   7.617   7.322   3.474
 4593TIP3   OH213719   4.135   2.508   2.136
 4593TIP3    H113720   4.048   2.483   2.107
 4593TIP3    H213721   4.149   2.456   2.216
 4594TIP3   OH213722   5.352   3.812   0.092
 4594TIP3    H113723   5.259   3.810   0.069
 4594TIP3    H213724   5.394   3.855   0.017
 4595TIP3   OH213725   0.668   0.702   2.456
 4595TIP3    H113726   0.658   0.724   2.363
 4595TIP3    H213727   0.602   0.754   2.501
 4596TIP3   OH213728   2.738   3.857   5.936
 4596TIP3    H113729   2.766   3.948   5.934
 4596TIP3    H213730   2.657   3.858   5.986
 4597TIP3   OH213731   0.494   7.273   3.637
 4597TIP3    H113732   0.588   7.255   3.645
 4597TIP3    H213733   0.489   7.365   3.612
 4598TIP3   OH213734   6.495   3.438   2.298
 4598TIP3    H113735   6.488   3.454   2.204
 4598TIP3    H213736   6.581   3.398   2.309
 4599TIP3   OH213737   5.124   4.685   3.574
 4599TIP3    H113738   5.149   4.699   3.665
 4599TIP3    H213739   5.029   4.699   3.573
 4600TIP3   OH213740   3.815   3.509   3.780
 4600TIP3    H113741   3.882   3.444   3.760
 4600TIP3    H213742   3.863   3.587   3.807
 4601TIP3   OH213743   3.694   3.502   6.050
 4601TIP3    H113744   3.600   3.507   6.033
 4601TIP3    H213745   3.733   3.562   5.986
 4602TIP3   OH213746   3.134   6.197   5.389
 4602TIP3    H113747   3.214   6.145   5.393
 4602TIP3    H213748   3.103   6.187   5.299
 4603TIP3   OH213749   6.310   4.313   1.114
 4603TIP3    H113750   6.237   4.261   1.081
 4603TIP3    H213751   6.269   4.390   1.152
 4604TIP3   OH213752   1.971   6.915   6.590
 4604TIP3    H113753   1.988   6.951   6.678
 4604TIP3    H213754   1.996   6.823   6.597
 4605TIP3   OH213755   1.377   0.852   4.377
 4605TIP3    H113756   1.380   0.943   4.406
 4605TIP3    H213757   1.370   0.858   4.281
 4606TIP3   OH213758   4.273   1.081   6.779
 4606TIP3    H113759   4.335   1.137   6.732
 4606TIP3    H213760   4.248   1.132   6.855
 4607TIP3   OH213761   0.337   5.215   6.742
 4607TIP3    H113762   0.272   5.222   6.812
 4607TIP3    H213763   0.350   5.120   6.732
 4608TIP3   OH213764   0.380   5.047   1.488
 4608TIP3    H113765   0.450   5.109   1.510
 4608TIP3    H213766   0.421   4.986   1.426
 4609TIP3   OH213767   1.598   5.285   6.001
 4609TIP3    H113768   1.663   5.246   6.060
 4609TIP3    H213769   1.587   5.220   5.932
 4610TIP3   OH213770   7.765   3.787   1.286
 4610TIP3    H113771   7.713   3.863   1.315
 4610TIP3    H213772   7.783   3.739   1.366
 4611TIP3   OH213773   0.157   4.014   0.639
 4611TIP3    H113774   0.149   4.076   0.567
 4611TIP3    H213775   0.226   4.051   0.695
 4612TIP3   OH213776   6.820   7.860   1.406
 4612TIP3    H113777   6.895   7.816   1.368
 4612TIP3    H213778   6.776   7.902   1.332
 4613TIP3   OH213779   3.501   3.456   0.821
 4613TIP3    H113780   3.570   3.468   0.756
 4613TIP3    H213781   3.483   3.362   0.821
 4614TIP3   OH213782   6.016   4.373   0.874
 4614TIP3    H113783   6.103   4.393   0.839
 4614TIP3    H213784   6.023   4.283   0.906
 4615TIP3   OH213785   2.909   1.170   4.962
 4615TIP3    H113786   2.822   1.167   5.002
 4615TIP3    H213787   2.950   1.248   5.000
 4616TIP3   OH213788   5.565   1.110   5.479
 4616TIP3    H113789   5.505   1.036   5.482
 4616TIP3    H213790   5.608   1.103   5.393
 4617TIP3   OH213791   6.677   3.153   6.654
 4617TIP3    H113792   6.587   3.184   6.642
 4617TIP3    H213793   6.668   3.077   6.713
 4618TIP3   OH213794   1.088   1.490   4.325
 4618TIP3    H113795   1.133   1.409   4.346
 4618TIP3    H213796   1.004   1.463   4.288
 4619TIP3   OH213797   6.386   4.088   0.457
 4619TIP3    H113798   6.395   4.176   0.421
 4619TIP3    H213799   6.402   4.029   0.383
 4620TIP3   OH213800   2.035   6.661   6.685
 4620TIP3    H113801   1.975   6.612   6.628
 4620TIP3    H213802   2.010   6.634   6.774
 4621TIP3   OH213803   6.409   0.138   1.519
 4621TIP3    H113804   6.433   0.058   1.473
 4621TIP3    H213805   6.368   0.193   1.453
 4622TIP3   OH213806   2.573   6.914   3.759
 4622TIP3    H113807   2.619   6.860   3.695
 4622TIP3    H213808   2.518   6.973   3.706
 4623TIP3   OH213809   1.228   1.978   4.486
 4623TIP3    H113810   1.310   1.982   4.437
 4623TIP3    H213811   1.224   2.062   4.533
 4624TIP3   OH213812   3.791   7.451   5.198
 4624TIP3    H113813   3.697   7.461   5.211
 4624TIP3    H213814   3.801   7.433   5.105
 4625TIP3   OH213815   8.059   4.994   3.521
 4625TIP3    H113816   8.036   4.936   3.448
 4625TIP3    H213817   7.975   5.014   3.563
 4626TIP3   OH213818   5.889   3.674   1.845
 4626TIP3    H113819   5.924   3.627   1.769
 4626TIP3    H213820   5.849   3.607   1.899
 4627TIP3   OH213821   3.408   2.110   2.595
 4627TIP3    H113822   3.363   2.038   2.639
 4627TIP3    H213823   3.377   2.189   2.640
 4628TIP3   OH213824   0.130   7.072   4.820
 4628TIP3    H113825   0.043   7.100   4.846
 4628TIP3    H213826   0.124   6.976   4.813
 4629TIP3   OH213827   1.252   3.404   3.621
 4629TIP3    H113828   1.204   3.432   3.699
 4629TIP3    H213829   1.285   3.316   3.643
 4630TIP3   OH213830   4.153   6.057   4.051
 4630TIP3    H113831   4.125   6.022   3.966
 4630TIP3    H213832   4.248   6.042   4.052
 4631TIP3   OH213833   1.260   5.506   2.611
 4631TIP3    H113834   1.338   5.555   2.636
 4631TIP3    H213835   1.239   5.537   2.523
 4632TIP3   OH213836   5.587   5.146   5.953
 4632TIP3    H113837   5.509   5.163   6.006
 4632TIP3    H213838   5.604   5.230   5.909
 4633TIP3   OH213839   1.908   7.268   4.968
 4633TIP3    H113840   1.979   7.317   4.926
 4633TIP3    H213841   1.953   7.201   5.019
 4634TIP3   OH213842   0.581   5.439   6.184
 4634TIP3    H113843   0.580   5.345   6.201
 4634TIP3    H213844   0.611   5.479   6.266
 4635TIP3   OH213845   3.526   2.830   0.656
 4635TIP3    H113846   3.512   2.808   0.564
 4635TIP3    H213847   3.602   2.889   0.656
 4636TIP3   OH213848   6.490   6.209   6.416
 4636TIP3    H113849   6.534   6.209   6.501
 4636TIP3    H213850   6.512   6.123   6.379
 4637TIP3   OH213851   1.673   0.916   4.991
 4637TIP3    H113852   1.610   0.846   4.974
 4637TIP3    H213853   1.758   0.876   4.980
 4638TIP3   OH213854   6.648   2.058   4.233
 4638TIP3    H113855   6.650   2.032   4.325
 4638TIP3    H213856   6.738   2.081   4.213
 4639TIP3   OH213857   7.429   3.893   2.694
 4639TIP3    H113858   7.513   3.859   2.663
 4639TIP3    H213859   7.373   3.894   2.616
 4640TIP3   OH213860   6.247   6.386   4.575
 4640TIP3    H113861   6.239   6.454   4.509
 4640TIP3    H213862   6.338   6.390   4.604
 4641TIP3   OH213863   1.055   6.549   5.438
 4641TIP3    H113864   1.062   6.516   5.348
 4641TIP3    H213865   1.145   6.575   5.460
 4642TIP3   OH213866   2.821   5.186   4.241
 4642TIP3    H113867   2.882   5.127   4.284
 4642TIP3    H213868   2.867   5.270   4.237
 4643TIP3   OH213869   0.630   2.102   4.618
 4643TIP3    H113870   0.669   2.081   4.533
 4643TIP3    H213871   0.610   2.017   4.657
 4644TIP3   OH213872   7.401   1.902   4.062
 4644TIP3    H113873   7.448   1.885   4.144
 4644TIP3    H213874   7.309   1.891   4.085
 4645TIP3   OH213875   2.472   4.377   0.035
 4645TIP3    H113876   2.449   4.289   0.065
 4645TIP3    H213877   2.451   4.377  -0.058
 4646TIP3   OH213878   4.985   5.016   3.032
 4646TIP3    H113879   4.913   4.957   3.010
 4646TIP3    H213880   4.974   5.033   3.125
 4647TIP3   OH213881   4.416   4.259   0.231
 4647TIP3    H113882   4.499   4.306   0.235
 4647TIP3    H213883   4.352   4.319   0.269
 4648TIP3   OH213884   5.461   3.756   6.281
 4648TIP3    H113885   5.488   3.848   6.293
 4648TIP3    H213886   5.528   3.706   6.328
 4649TIP3   OH213887   3.916   1.793   3.578
 4649TIP3    H113888   3.976   1.866   3.586
 4649TIP3    H213889   3.861   1.815   3.503
 4650TIP3   OH213890   6.180   0.138   4.284
 4650TIP3    H113891   6.142   0.062   4.239
 4650TIP3    H213892   6.220   0.189   4.214
 4651TIP3   OH213893   7.519   6.619   5.830
 4651TIP3    H113894   7.600   6.576   5.801
 4651TIP3    H213895   7.485   6.661   5.751
 4652TIP3   OH213896   1.313   0.944   4.934
 4652TIP3    H113897   1.333   0.936   5.027
 4652TIP3    H213898   1.283   0.857   4.908
 4653TIP3   OH213899   1.123   4.605   4.022
 4653TIP3    H113900   1.084   4.690   4.004
 4653TIP3    H213901   1.063   4.562   4.083
 4654TIP3   OH213902   4.267   1.620   1.340
 4654TIP3    H113903   4.355   1.650   1.316
 4654TIP3    H213904   4.212   1.643   1.265
 4655TIP3   OH213905   1.956   0.786   5.375
 4655TIP3    H113906   1.971   0.725   5.447
 4655TIP3    H213907   2.008   0.751   5.303
 4656TIP3   OH213908   7.981   6.144   4.883
 4656TIP3    H113909   7.931   6.151   4.964
 4656TIP3    H213910   8.008   6.052   4.879
 4657TIP3   OH213911   5.054   5.122   1.775
 4657TIP3    H113912   5.138   5.163   1.755
 4657TIP3    H213913   5.024   5.088   1.690
 4658TIP3   OH213914   4.060   5.564   0.477
 4658TIP3    H113915   4.076   5.657   0.462
 4658TIP3    H213916   3.977   5.546   0.433
 4659TIP3   OH213917   1.950   3.634   3.592
 4659TIP3    H113918   1.993   3.550   3.610
 4659TIP3    H213919   1.972   3.654   3.501
 4660TIP3   OH213920   5.556   5.546   6.594
 4660TIP3    H113921   5.467   5.559   6.562
 4660TIP3    H213922   5.546   5.511   6.682
 4661TIP3   OH213923   8.114   2.166   3.042
 4661TIP3    H113924   8.038   2.122   3.078
 4661TIP3    H213925   8.153   2.102   2.982
 4662TIP3   OH213926   3.738   1.910   3.916
 4662TIP3    H113927   3.810   1.966   3.887
 4662TIP3    H213928   3.690   1.889   3.836
 4663TIP3   OH213929   1.017   7.559   1.379
 4663TIP3    H113930   1.100   7.540   1.335
 4663TIP3    H213931   0.979   7.631   1.329
 4664TIP3   OH213932   8.014   4.642   6.827
 4664TIP3    H113933   7.959   4.672   6.900
 4664TIP3    H213934   7.984   4.553   6.810
 4665TIP3   OH213935   3.707   5.059   6.735
 4665TIP3    H113936   3.738   4.974   6.764
 4665TIP3    H213937   3.773   5.121   6.767
 4666TIP3   OH213938   0.541   2.487   2.245
 4666TIP3    H113939   0.493   2.469   2.164
 4666TIP3    H213940   0.617   2.429   2.241
 4667TIP3   OH213941   5.442   6.524   3.209
 4667TIP3    H113942   5.442   6.576   3.129
 4667TIP3    H213943   5.534   6.513   3.231
 4668TIP3   OH213944   8.198   3.151   3.521
 4668TIP3    H113945   8.132   3.081   3.523
 4668TIP3    H213946   8.202   3.183   3.611
 4669TIP3   OH213947   3.213   2.605   5.709
 4669TIP3    H113948   3.293   2.657   5.710
 4669TIP3    H213949   3.226   2.543   5.637
 4670TIP3   OH213950   7.677   6.565   2.523
 4670TIP3    H113951   7.671   6.475   2.556
 4670TIP3    H213952   7.666   6.620   2.600
 4671TIP3   OH213953   4.198   3.843   6.143
 4671TIP3    H113954   4.184   3.914   6.206
 4671TIP3    H213955   4.196   3.886   6.058
 4672TIP3   OH213956   4.586   6.426   3.786
 4672TIP3    H113957   4.652   6.432   3.855
 4672TIP3    H213958   4.594   6.507   3.737
 4673TIP3   OH213959   2.557   4.460   4.500
 4673TIP3    H113960   2.481   4.448   4.445
 4673TIP3    H213961   2.563   4.379   4.552
 4674TIP3   OH213962   7.681   5.945   1.900
 4674TIP3    H113963   7.678   5.911   1.989
 4674TIP3    H213964   7.756   5.901   1.860
 4675TIP3   OH213965   4.436   6.838   0.149
 4675TIP3    H113966   4.344   6.863   0.161
 4675TIP3    H213967   4.456   6.866   0.059
 4676TIP3   OH213968   3.059   4.178   0.574
 4676TIP3    H113969   2.974   4.216   0.594
 4676TIP3    H213970   3.086   4.222   0.492
 4677TIP3   OH213971   5.735   6.855   1.437
 4677TIP3    H113972   5.796   6.843   1.364
 4677TIP3    H213973   5.752   6.781   1.495
 4678TIP3   OH213974   6.139   1.002   5.719
 4678TIP3    H113975   6.124   1.010   5.625
 4678TIP3    H213976   6.052   0.999   5.758
 4679TIP3   OH213977   7.569   4.998   5.353
 4679TIP3    H113978   7.531   4.987   5.440
 4679TIP3    H213979   7.497   5.031   5.299
 4680TIP3   OH213980   6.700   1.407   4.213
 4680TIP3    H113981   6.774   1.347   4.207
 4680TIP3    H213982   6.726   1.482   4.159
 4681TIP3   OH213983   6.646   2.329   0.239
 4681TIP3    H113984   6.588   2.378   0.297
 4681TIP3    H213985   6.589   2.266   0.195
 4682TIP3   OH213986   0.115   0.617   4.894
 4682TIP3    H113987   0.191   0.635   4.838
 4682TIP3    H213988   0.150   0.560   4.963
 4683TIP3   OH213989   6.251   4.527   3.439
 4683TIP3    H113990   6.336   4.490   3.465
 4683TIP3    H213991   6.273   4.593   3.372
 4684TIP3   OH213992   5.064   0.876   2.865
 4684TIP3    H113993   5.002   0.942   2.834
 4684TIP3    H213994   5.113   0.920   2.934
 4685TIP3   OH213995   1.901   1.091   3.284
 4685TIP3    H113996   1.962   1.141   3.230
 4685TIP3    H213997   1.946   1.008   3.299
 4686TIP3   OH213998   4.013   1.850   5.889
 4686TIP3    H113999   3.935   1.873   5.939
 4686TIP3    H214000   4.066   1.799   5.949
 4687TIP3   OH214001   2.571   3.290   1.048
 4687TIP3    H114002   2.604   3.380   1.055
 4687TIP3    H214003   2.482   3.300   1.013
 4688TIP3   OH214004   1.891   7.004   5.333
 4688TIP3    H114005   1.844   7.073   5.284
 4688TIP3    H214006   1.902   7.041   5.421
 4689TIP3   OH214007   6.857   0.445   2.419
 4689TIP3    H114008   6.776   0.474   2.377
 4689TIP3    H214009   6.852   0.481   2.508
 4690TIP3   OH214010   1.534   1.389   5.366
 4690TIP3    H114011   1.613   1.399   5.314
 4690TIP3    H214012   1.491   1.311   5.330
 4691TIP3   OH214013   3.120   7.918   3.538
 4691TIP3    H114014   3.201   7.940   3.491
 4691TIP3    H214015   3.151   7.878   3.620
 4692TIP3   OH214016   7.624   5.404   5.842
 4692TIP3    H114017   7.675   5.482   5.865
 4692TIP3    H214018   7.542   5.439   5.806
 4693TIP3   OH214019   1.363   3.799   5.845
 4693TIP3    H114020   1.318   3.733   5.898
 4693TIP3    H214021   1.332   3.882   5.880
 4694TIP3   OH214022   2.783   5.382   3.556
 4694TIP3    H114023   2.747   5.425   3.633
 4694TIP3    H214024   2.719   5.313   3.535
 4695TIP3   OH214025   3.169   1.123   4.063
 4695TIP3    H114026   3.241   1.169   4.021
 4695TIP3    H214027   3.107   1.105   3.993
 4696TIP3   OH214028   0.860   6.328   4.833
 4696TIP3    H114029   0.823   6.294   4.752
 4696TIP3    H214030   0.868   6.252   4.890
 4697TIP3   OH214031   6.689   2.096   2.810
 4697TIP3    H114032   6.722   2.170   2.759
 4697TIP3    H214033   6.725   2.019   2.767
 4698TIP3   OH214034   0.212   4.531   2.315
 4698TIP3    H114035   0.201   4.586   2.238
 4698TIP3    H214036   0.250   4.589   2.381
 4699TIP3   OH214037   5.933   2.192   6.350
 4699TIP3    H114038   5.862   2.154   6.403
 4699TIP3    H214039   5.996   2.120   6.340
 4700TIP3   OH214040   2.059   7.666   4.644
 4700TIP3    H114041   1.982   7.663   4.587
 4700TIP3    H214042   2.100   7.750   4.626
 4701TIP3   OH214043   2.865   4.958   6.445
 4701TIP3    H114044   2.874   4.880   6.390
 4701TIP3    H214045   2.846   4.924   6.533
 4702TIP3   OH214046   0.535   6.587   2.497
 4702TIP3    H114047   0.473   6.517   2.517
 4702TIP3    H214048   0.485   6.667   2.511
 4703TIP3   OH214049   2.893   1.183   0.536
 4703TIP3    H114050   2.833   1.182   0.462
 4703TIP3    H214051   2.843   1.146   0.608
 4704TIP3   OH214052   1.873   3.097   6.635
 4704TIP3    H114053   1.829   3.171   6.593
 4704TIP3    H214054   1.966   3.111   6.618
 4705TIP3   OH214055   7.621   3.731   1.718
 4705TIP3    H114056   7.560   3.774   1.777
 4705TIP3    H214057   7.648   3.801   1.658
 4706TIP3   OH214058   8.240   3.403   3.111
 4706TIP3    H114059   8.335   3.399   3.095
 4706TIP3    H214060   8.232   3.398   3.206
 4707TIP3   OH214061   5.779   5.363   2.931
 4707TIP3    H114062   5.837   5.410   2.992
 4707TIP3    H214063   5.763   5.279   2.975
 4708TIP3   OH214064   5.004   6.288   2.688
 4708TIP3    H114065   5.010   6.363   2.747
 4708TIP3    H214066   5.032   6.214   2.741
 4709TIP3   OH214067   1.938   0.201   3.748
 4709TIP3    H114068   2.009   0.226   3.690
 4709TIP3    H214069   1.952   0.107   3.765
 4710TIP3   OH214070   6.366   5.108   0.922
 4710TIP3    H114071   6.285   5.156   0.904
 4710TIP3    H214072   6.340   5.015   0.915
 4711TIP3   OH214073   4.490   0.389   2.254
 4711TIP3    H114074   4.409   0.357   2.293
 4711TIP3    H214075   4.466   0.415   2.166
 4712TIP3   OH214076   0.076   0.745   4.587
 4712TIP3    H114077   0.097   0.675   4.525
 4712TIP3    H214078   0.162   0.778   4.615
 4713TIP3   OH214079   5.479   5.517   2.218
 4713TIP3    H114080   5.442   5.435   2.188
 4713TIP3    H214081   5.539   5.493   2.288
 4714TIP3   OH214082   3.694   1.655   2.039
 4714TIP3    H114083   3.757   1.714   1.998
 4714TIP3    H214084   3.717   1.656   2.132
 4715TIP3   OH214085   8.317   7.188   3.095
 4715TIP3    H114086   8.286   7.150   3.012
 4715TIP3    H214087   8.272   7.272   3.101
 4716TIP3   OH214088   3.789   7.814   5.984
 4716TIP3    H114089   3.812   7.857   5.901
 4716TIP3    H214090   3.781   7.887   6.046
 4717TIP3   OH214091   2.957   2.933   0.598
 4717TIP3    H114092   2.895   2.897   0.661
 4717TIP3    H214093   3.041   2.935   0.645
 4718TIP3   OH214094   3.362   2.385   2.680
 4718TIP3    H114095   3.373   2.459   2.739
 4718TIP3    H214096   3.379   2.420   2.593
 4719TIP3   OH214097   2.475   6.921   5.433
 4719TIP3    H114098   2.482   6.936   5.339
 4719TIP3    H214099   2.566   6.917   5.463
 4720TIP3   OH214100   1.947   4.715   3.189
 4720TIP3    H114101   1.902   4.673   3.263
 4720TIP3    H214102   2.035   4.679   3.190
 4721TIP3   OH214103   2.524   0.735   4.339
 4721TIP3    H114104   2.513   0.640   4.340
 4721TIP3    H214105   2.601   0.750   4.394
 4722TIP3   OH214106   1.482   2.764   5.458
 4722TIP3    H114107   1.542   2.800   5.523
 4722TIP3    H214108   1.530   2.690   5.420
 4723TIP3   OH214109   6.429   7.379   6.613
 4723TIP3    H114110   6.441   7.472   6.628
 4723TIP3    H214111   6.499   7.355   6.552
 4724TIP3   OH214112   5.006   2.170   5.475
 4724TIP3    H114113   5.091   2.212   5.462
 4724TIP3    H214114   5.026   2.092   5.527
 4725TIP3   OH214115   6.269   4.987   6.574
 4725TIP3    H114116   6.264   5.070   6.526
 4725TIP3    H214117   6.352   4.948   6.546
 4726TIP3   OH214118   3.674   6.918   3.045
 4726TIP3    H114119   3.679   6.910   3.140
 4726TIP3    H214120   3.764   6.909   3.015
 4727TIP3   OH214121   5.947   6.122   0.866
 4727TIP3    H114122   5.903   6.118   0.781
 4727TIP3    H214123   5.982   6.211   0.870
 4728TIP3   OH214124   3.854   7.634   0.585
 4728TIP3    H114125   3.817   7.564   0.530
 4728TIP3    H214126   3.862   7.709   0.526
 4729TIP3   OH214127   7.477   4.020   6.517
 4729TIP3    H114128   7.492   4.081   6.445
 4729TIP3    H214129   7.542   4.043   6.583
 4730TIP3   OH214130   4.440   3.811   3.686
 4730TIP3    H114131   4.462   3.724   3.654
 4730TIP3    H214132   4.514   3.866   3.660
 4731TIP3   OH214133   2.422   1.000   4.401
 4731TIP3    H114134   2.386   1.016   4.489
 4731TIP3    H214135   2.441   0.906   4.400
 4732TIP3   OH214136   6.162   6.095   1.444
 4732TIP3    H114137   6.152   6.148   1.365
 4732TIP3    H214138   6.087   6.119   1.498
 4733TIP3   OH214139   0.625   7.813   5.149
 4733TIP3    H114140   0.619   7.852   5.062
 4733TIP3    H214141   0.706   7.847   5.186
 4734TIP3   OH214142   0.407   2.019   0.440
 4734TIP3    H114143   0.471   2.048   0.375
 4734TIP3    H214144   0.406   1.924   0.432
 4735TIP3   OH214145   6.758   6.033   2.990
 4735TIP3    H114146   6.833   6.092   2.979
 4735TIP3    H214147   6.797   5.951   3.019
 4736TIP3   OH214148   4.482   5.597   6.486
 4736TIP3    H114149   4.508   5.569   6.574
 4736TIP3    H214150   4.554   5.567   6.429
 4737TIP3   OH214151   3.826   1.842   1.891
 4737TIP3    H114152   3.862   1.931   1.883
 4737TIP3    H214153   3.735   1.855   1.917
 4738TIP3   OH214154   4.697   5.414   3.356
 4738TIP3    H114155   4.704   5.497   3.402
 4738TIP3    H214156   4.758   5.422   3.282
 4739TIP3   OH214157   3.224   5.726   0.144
 4739TIP3    H114158   3.266   5.722   0.058
 4739TIP3    H214159   3.280   5.783   0.196
 4740TIP3   OH214160   1.568   4.921   0.805
 4740TIP3    H114161   1.501   4.909   0.737
 4740TIP3    H214162   1.647   4.947   0.757
 4741TIP3   OH214163   3.859   5.881   5.022
 4741TIP3    H114164   3.810   5.852   5.099
 4741TIP3    H214165   3.791   5.900   4.956
 4742TIP3   OH214166   5.796   6.004   5.707
 4742TIP3    H114167   5.716   5.962   5.677
 4742TIP3    H214168   5.866   5.963   5.656
 4743TIP3   OH214169   2.477   1.988   6.392
 4743TIP3    H114170   2.500   1.986   6.299
 4743TIP3    H214171   2.489   1.898   6.422
 4744TIP3   OH214172   8.139   7.111   0.781
 4744TIP3    H114173   8.045   7.126   0.777
 4744TIP3    H214174   8.165   7.093   0.691
 4745TIP3   OH214175   3.979   6.022   4.430
 4745TIP3    H114176   3.938   6.106   4.410
 4745TIP3    H214177   3.963   6.008   4.523
 4746TIP3   OH214178   6.904   4.837   1.741
 4746TIP3    H114179   6.908   4.747   1.773
 4746TIP3    H214180   6.896   4.890   1.820
 4747TIP3   OH214181   6.705   5.191   2.029
 4747TIP3    H114182   6.733   5.195   2.121
 4747TIP3    H214183   6.624   5.139   2.031
 4748TIP3   OH214184   4.130   5.826   0.480
 4748TIP3    H114185   4.161   5.868   0.560
 4748TIP3    H214186   4.166   5.879   0.409
 4749TIP3   OH214187   1.158   0.916   5.934
 4749TIP3    H114188   1.127   0.885   5.849
 4749TIP3    H214189   1.158   1.011   5.927
 4750TIP3   OH214190   7.171   3.257   3.227
 4750TIP3    H114191   7.098   3.238   3.287
 4750TIP3    H214192   7.176   3.179   3.171
 4751TIP3   OH214193   3.839   0.911   2.779
 4751TIP3    H114194   3.925   0.878   2.752
 4751TIP3    H214195   3.797   0.938   2.698
 4752TIP3   OH214196   4.273   3.229   6.297
 4752TIP3    H114197   4.281   3.165   6.226
 4752TIP3    H214198   4.307   3.184   6.374
 4753TIP3   OH214199   5.797   5.991   1.689
 4753TIP3    H114200   5.886   5.988   1.654
 4753TIP3    H214201   5.805   5.955   1.777
 4754TIP3   OH214202   4.264   0.804   6.322
 4754TIP3    H114203   4.209   0.726   6.320
 4754TIP3    H214204   4.304   0.808   6.236
 4755TIP3   OH214205   3.992   1.634   1.687
 4755TIP3    H114206   4.004   1.726   1.711
 4755TIP3    H214207   3.981   1.636   1.592
 4756TIP3   OH214208   1.983   5.473   1.274
 4756TIP3    H114209   1.951   5.432   1.194
 4756TIP3    H214210   1.984   5.567   1.254
 4757TIP3   OH214211   6.105   3.535   5.626
 4757TIP3    H114212   6.190   3.538   5.671
 4757TIP3    H214213   6.079   3.443   5.630
 4758TIP3   OH214214   0.893   5.359   5.871
 4758TIP3    H114215   0.866   5.450   5.882
 4758TIP3    H214216   0.852   5.331   5.789
 4759TIP3   OH214217   4.327   6.131   5.707
 4759TIP3    H114218   4.287   6.079   5.776
 4759TIP3    H214219   4.306   6.083   5.626
 4760TIP3   OH214220   4.130   0.359   0.710
 4760TIP3    H114221   4.118   0.418   0.636
 4760TIP3    H214222   4.168   0.280   0.672
 4761TIP3   OH214223   0.926   3.964   2.543
 4761TIP3    H114224   1.012   3.950   2.504
 4761TIP3    H214225   0.921   4.058   2.560
 4762TIP3   OH214226   2.073   7.423   5.217
 4762TIP3    H114227   2.112   7.509   5.232
 4762TIP3    H214228   2.029   7.432   5.132
 4763TIP3   OH214229   4.553   0.287   4.450
 4763TIP3    H114230   4.638   0.311   4.414
 4763TIP3    H214231   4.510   0.371   4.468
 4764TIP3   OH214232   6.247   6.871   2.705
 4764TIP3    H114233   6.303   6.860   2.629
 4764TIP3    H214234   6.306   6.899   2.775
 4765TIP3   OH214235   4.377   4.841   1.456
 4765TIP3    H114236   4.319   4.814   1.385
 4765TIP3    H214237   4.422   4.761   1.483
 4766TIP3   OH214238   5.479   1.324   0.177
 4766TIP3    H114239   5.518   1.241   0.149
 4766TIP3    H214240   5.440   1.360   0.097
 4767TIP3   OH214241   5.514   6.445   6.172
 4767TIP3    H114242   5.585   6.426   6.110
 4767TIP3    H214243   5.434   6.426   6.123
 4768TIP3   OH214244   1.303   6.401   6.638
 4768TIP3    H114245   1.235   6.421   6.574
 4768TIP3    H214246   1.355   6.331   6.598
 4769TIP3   OH214247   4.912   6.449   0.214
 4769TIP3    H114248   4.850   6.378   0.199
 4769TIP3    H214249   4.967   6.417   0.286
 4770TIP3   OH214250   4.401   1.441   4.271
 4770TIP3    H114251   4.404   1.364   4.215
 4770TIP3    H214252   4.399   1.515   4.210
 4771TIP3   OH214253   0.928   5.432   1.702
 4771TIP3    H114254   1.002   5.483   1.735
 4771TIP3    H214255   0.916   5.462   1.612
 4772TIP3   OH214256   6.115   0.314   5.729
 4772TIP3    H114257   6.091   0.266   5.650
 4772TIP3    H214258   6.209   0.330   5.721
 4773TIP3   OH214259   7.124   4.978   3.379
 4773TIP3    H114260   7.045   5.032   3.390
 4773TIP3    H214261   7.185   5.033   3.331
 4774TIP3   OH214262   6.132   7.091   1.868
 4774TIP3    H114263   6.039   7.073   1.885
 4774TIP3    H214264   6.135   7.184   1.849
 4775TIP3   OH214265   0.891   3.481   2.111
 4775TIP3    H114266   0.876   3.460   2.019
 4775TIP3    H214267   0.980   3.449   2.129
 4776TIP3   OH214268   3.263   0.479   2.080
 4776TIP3    H114269   3.197   0.530   2.127
 4776TIP3    H214270   3.236   0.484   1.989
 4777TIP3   OH214271   6.250   6.789   6.226
 4777TIP3    H114272   6.215   6.795   6.314
 4777TIP3    H214273   6.223   6.702   6.195
 4778TIP3   OH214274   2.324   4.465   2.131
 4778TIP3    H114275   2.412   4.483   2.100
 4778TIP3    H214276   2.322   4.501   2.220
 4779TIP3   OH214277   4.814   5.253   2.191
 4779TIP3    H114278   4.722   5.280   2.188
 4779TIP3    H214279   4.816   5.182   2.255
 4780TIP3   OH214280   7.125   3.676   2.251
 4780TIP3    H114281   7.182   3.739   2.295
 4780TIP3    H214282   7.050   3.728   2.221
 4781TIP3   OH214283   2.883   5.447   5.314
 4781TIP3    H114284   2.954   5.468   5.254
 4781TIP3    H214285   2.835   5.530   5.325
 4782TIP3   OH214286   0.537   3.632   2.028
 4782TIP3    H114287   0.585   3.633   1.945
 4782TIP3    H214288   0.593   3.582   2.088
 4783TIP3   OH214289   7.402   4.851   2.445
 4783TIP3    H114290   7.428   4.892   2.362
 4783TIP3    H214291   7.308   4.866   2.450
 4784TIP3   OH214292   1.927   2.512   1.831
 4784TIP3    H114293   1.956   2.573   1.763
 4784TIP3    H214294   1.902   2.568   1.905
 4785TIP3   OH214295   3.203   5.407   5.826
 4785TIP3    H114296   3.216   5.484   5.770
 4785TIP3    H214297   3.108   5.392   5.825
 4786TIP3   OH214298   5.685   0.385   0.305
 4786TIP3    H114299   5.680   0.289   0.301
 4786TIP3    H214300   5.718   0.410   0.219
 4787TIP3   OH214301   3.521   3.059   1.388
 4787TIP3    H114302   3.543   3.152   1.390
 4787TIP3    H214303   3.600   3.017   1.355
 4788TIP3   OH214304   3.612   3.022   4.991
 4788TIP3    H114305   3.650   3.108   4.974
 4788TIP3    H214306   3.671   2.960   4.948
 4789TIP3   OH214307   3.448   1.982   6.227
 4789TIP3    H114308   3.509   2.047   6.191
 4789TIP3    H214309   3.502   1.905   6.241
 4790TIP3   OH214310   5.440   3.406   0.106
 4790TIP3    H114311   5.439   3.468   0.033
 4790TIP3    H214312   5.431   3.460   0.184
 4791TIP3   OH214313   5.161   6.989   3.632
 4791TIP3    H114314   5.198   7.005   3.718
 4791TIP3    H214315   5.168   7.073   3.586
 4792TIP3   OH214316   5.154   5.507   4.267
 4792TIP3    H114317   5.189   5.432   4.219
 4792TIP3    H214318   5.081   5.539   4.214
 4793TIP3   OH214319   5.757   3.305   6.550
 4793TIP3    H114320   5.820   3.373   6.574
 4793TIP3    H214321   5.798   3.260   6.475
 4794TIP3   OH214322   5.358   6.921   6.447
 4794TIP3    H114323   5.295   6.867   6.495
 4794TIP3    H214324   5.384   6.989   6.509
 4795TIP3   OH214325   0.756   2.233   3.854
 4795TIP3    H114326   0.718   2.320   3.842
 4795TIP3    H214327   0.822   2.225   3.785
 4796TIP3   OH214328   3.606   7.368   1.946
 4796TIP3    H114329   3.525   7.344   1.992
 4796TIP3    H214330   3.672   7.372   2.015
 4797TIP3   OH214331   1.500   6.159   6.782
 4797TIP3    H114332   1.506   6.107   6.702
 4797TIP3    H214333   1.407   6.177   6.793
 4798TIP3   OH214334   2.142   4.731   2.903
 4798TIP3    H114335   2.177   4.717   2.991
 4798TIP3    H214336   2.216   4.714   2.845
 4799TIP3   OH214337   6.235   6.145   0.888
 4799TIP3    H114338   6.209   6.065   0.933
 4799TIP3    H214339   6.156   6.200   0.888
 4800TIP3   OH214340   0.204   6.834   3.453
 4800TIP3    H114341   0.117   6.865   3.428
 4800TIP3    H214342   0.256   6.913   3.466
 4801TIP3   OH214343   4.271   6.366   5.243
 4801TIP3    H114344   4.231   6.288   5.205
 4801TIP3    H214345   4.311   6.335   5.325
 4802TIP3   OH214346   1.813   6.190   4.841
 4802TIP3    H114347   1.877   6.156   4.903
 4802TIP3    H214348   1.849   6.275   4.814
 4803TIP3   OH214349   7.926   5.546   0.178
 4803TIP3    H114350   7.833   5.545   0.156
 4803TIP3    H214351   7.964   5.609   0.117
 4804TIP3   OH214352   7.206   2.538   6.739
 4804TIP3    H114353   7.281   2.514   6.793
 4804TIP3    H214354   7.138   2.476   6.763
 4805TIP3   OH214355   2.209   5.878   4.294
 4805TIP3    H114356   2.185   5.938   4.223
 4805TIP3    H214357   2.231   5.936   4.367
 4806TIP3   OH214358   6.850   5.495   2.913
 4806TIP3    H114359   6.767   5.449   2.908
 4806TIP3    H214360   6.916   5.426   2.920
 4807TIP3   OH214361   7.963   2.148   0.425
 4807TIP3    H114362   7.948   2.054   0.423
 4807TIP3    H214363   7.888   2.185   0.378
 4808TIP3   OH214364   1.925   0.786   3.311
 4808TIP3    H114365   1.920   0.785   3.215
 4808TIP3    H214366   1.837   0.807   3.339
 4809TIP3   OH214367   2.041   1.197   2.184
 4809TIP3    H114368   2.118   1.180   2.129
 4809TIP3    H214369   2.032   1.292   2.185
 4810TIP3   OH214370   0.693   3.962   4.982
 4810TIP3    H114371   0.652   4.049   4.986
 4810TIP3    H214372   0.668   3.928   4.896
 4811TIP3   OH214373   5.522   1.867   6.536
 4811TIP3    H114374   5.571   1.946   6.516
 4811TIP3    H214375   5.469   1.851   6.459
 4812TIP3   OH214376   0.959   1.987   1.955
 4812TIP3    H114377   0.870   2.009   1.926
 4812TIP3    H214378   0.990   2.066   1.998
 4813TIP3   OH214379   3.192   3.545   4.133
 4813TIP3    H114380   3.201   3.507   4.045
 4813TIP3    H214381   3.279   3.580   4.152
 4814TIP3   OH214382   6.323   2.620   6.494
 4814TIP3    H114383   6.387   2.556   6.462
 4814TIP3    H214384   6.255   2.567   6.535
 4815TIP3   OH214385   5.754   5.131   4.450
 4815TIP3    H114386   5.668   5.167   4.467
 4815TIP3    H214387   5.760   5.055   4.509
 4816TIP3   OH214388   3.146   0.571   2.880
 4816TIP3    H114389   3.219   0.544   2.825
 4816TIP3    H214390   3.187   0.606   2.959
 4817TIP3   OH214391   0.297   1.532   4.390
 4817TIP3    H114392   0.272   1.537   4.297
 4817TIP3    H214393   0.227   1.578   4.436
 4818TIP3   OH214394   3.986   6.532   6.046
 4818TIP3    H114395   3.915   6.589   6.018
 4818TIP3    H214396   3.957   6.496   6.130
 4819TIP3   OH214397   7.337   1.545   1.637
 4819TIP3    H114398   7.309   1.455   1.653
 4819TIP3    H214399   7.365   1.546   1.545
 4820TIP3   OH214400   2.111   4.226   0.537
 4820TIP3    H114401   2.124   4.139   0.500
 4820TIP3    H214402   2.165   4.227   0.616
 4821TIP3   OH214403   6.439   2.844   6.693
 4821TIP3    H114404   6.426   2.800   6.610
 4821TIP3    H214405   6.368   2.909   6.697
 4822TIP3   OH214406   6.246   0.353   0.181
 4822TIP3    H114407   6.235   0.373   0.274
 4822TIP3    H214408   6.332   0.389   0.159
 4823TIP3   OH214409   0.602   0.444   2.377
 4823TIP3    H114410   0.625   0.499   2.451
 4823TIP3    H214411   0.634   0.492   2.300
 4824TIP3   OH214412   0.190   0.875   3.015
 4824TIP3    H114413   0.226   0.838   3.096
 4824TIP3    H214414   0.254   0.942   2.989
 4825TIP3   OH214415   4.595   3.103   3.038
 4825TIP3    H114416   4.681   3.099   3.078
 4825TIP3    H214417   4.586   3.194   3.008
 4826TIP3   OH214418   4.485   6.670   5.051
 4826TIP3    H114419   4.498   6.736   5.119
 4826TIP3    H214420   4.418   6.707   4.994
 4827TIP3   OH214421   3.584   7.160   0.362
 4827TIP3    H114422   3.593   7.197   0.274
 4827TIP3    H214423   3.646   7.209   0.415
 4828TIP3   OH214424   4.670   0.665   4.369
 4828TIP3    H114425   4.663   0.639   4.277
 4828TIP3    H214426   4.762   0.691   4.380
 4829TIP3   OH214427   1.184   0.797   6.827
 4829TIP3    H114428   1.255   0.821   6.767
 4829TIP3    H214429   1.228   0.784   6.912
 4830TIP3   OH214430   1.351   4.226   0.432
 4830TIP3    H114431   1.291   4.290   0.393
 4830TIP3    H214432   1.437   4.265   0.421
 4831TIP3   OH214433   6.908   2.712   5.382
 4831TIP3    H114434   6.830   2.702   5.436
 4831TIP3    H214435   6.977   2.666   5.429
 4832TIP3   OH214436   5.500   4.525   0.407
 4832TIP3    H114437   5.498   4.564   0.319
 4832TIP3    H214438   5.572   4.570   0.451
 4833TIP3   OH214439   4.878   7.892   1.004
 4833TIP3    H114440   4.789   7.921   1.024
 4833TIP3    H214441   4.931   7.925   1.077
 4834TIP3   OH214442   1.099   1.331   4.982
 4834TIP3    H114443   1.121   1.413   4.937
 4834TIP3    H214444   1.028   1.355   5.041
 4835TIP3   OH214445   8.304   4.037   0.900
 4835TIP3    H114446   8.254   4.059   0.978
 4835TIP3    H214447   8.239   4.031   0.830
 4836TIP3   OH214448   5.373   6.477   1.771
 4836TIP3    H114449   5.349   6.393   1.731
 4836TIP3    H214450   5.390   6.535   1.697
 4837TIP3   OH214451   3.978   3.240   6.339
 4837TIP3    H114452   4.073   3.247   6.328
 4837TIP3    H214453   3.963   3.268   6.430
 4838TIP3   OH214454   6.779   3.595   6.180
 4838TIP3    H114455   6.687   3.578   6.159
 4838TIP3    H214456   6.824   3.514   6.158
 4839TIP3   OH214457   2.065   0.848   4.403
 4839TIP3    H114458   2.056   0.765   4.356
 4839TIP3    H214459   2.104   0.824   4.487
 4840TIP3   OH214460   3.165   0.688   6.709
 4840TIP3    H114461   3.148   0.726   6.623
 4840TIP3    H214462   3.244   0.636   6.697
 4841TIP3   OH214463   1.277   7.223   3.178
 4841TIP3    H114464   1.203   7.164   3.194
 4841TIP3    H214465   1.262   7.296   3.238
 4842TIP3   OH214466   5.821   7.008   1.740
 4842TIP3    H114467   5.841   7.101   1.726
 4842TIP3    H214468   5.740   6.994   1.690
 4843TIP3   OH214469   7.099   4.141   5.394
 4843TIP3    H114470   7.059   4.066   5.349
 4843TIP3    H214471   7.098   4.212   5.330
 4844TIP3   OH214472   1.552   6.249   5.961
 4844TIP3    H114473   1.594   6.164   5.950
 4844TIP3    H214474   1.547   6.262   6.055
 4845TIP3   OH214475   3.791   4.809   2.187
 4845TIP3    H114476   3.783   4.896   2.147
 4845TIP3    H214477   3.724   4.808   2.255
 4846TIP3   OH214478   2.197   7.243   3.234
 4846TIP3    H114479   2.128   7.275   3.176
 4846TIP3    H214480   2.160   7.251   3.322
 4847TIP3   OH214481   0.152   2.931   6.580
 4847TIP3    H114482   0.103   2.998   6.628
 4847TIP3    H214483   0.099   2.852   6.589
 4848TIP3   OH214484   5.557   0.682   0.786
 4848TIP3    H114485   5.576   0.674   0.880
 4848TIP3    H214486   5.545   0.591   0.756
 4849TIP3   OH214487   4.641   0.095   1.390
 4849TIP3    H114488   4.552   0.129   1.386
 4849TIP3    H214489   4.678   0.114   1.304
 4850TIP3   OH214490   7.403   7.821   0.414
 4850TIP3    H114491   7.355   7.789   0.337
 4850TIP3    H214492   7.387   7.915   0.415
 4851TIP3   OH214493   5.793   4.787   5.852
 4851TIP3    H114494   5.847   4.719   5.814
 4851TIP3    H214495   5.850   4.864   5.856
 4852TIP3   OH214496   4.626   6.445   5.007
 4852TIP3    H114497   4.646   6.412   5.095
 4852TIP3    H214498   4.568   6.519   5.022
 4853TIP3   OH214499   0.087   2.903   4.011
 4853TIP3    H114500   0.080   2.886   3.917
 4853TIP3    H214501   0.150   2.839   4.042
 4854TIP3   OH214502   3.391   5.423   0.291
 4854TIP3    H114503   3.332   5.478   0.342
 4854TIP3    H214504   3.357   5.334   0.304
 4855TIP3   OH214505   7.839   3.195   2.478
 4855TIP3    H114506   7.864   3.270   2.532
 4855TIP3    H214507   7.822   3.232   2.391
 4856TIP3   OH214508   5.942   1.320   3.924
 4856TIP3    H114509   5.977   1.388   3.981
 4856TIP3    H214510   5.979   1.239   3.958
 4857TIP3   OH214511   0.692   5.731   1.461
 4857TIP3    H114512   0.630   5.726   1.388
 4857TIP3    H214513   0.755   5.662   1.443
 4858TIP3   OH214514   7.131   4.897   2.990
 4858TIP3    H114515   7.160   4.943   2.911
 4858TIP3    H214516   7.167   4.948   3.063
 4859TIP3   OH214517   5.419   5.086   5.721
 4859TIP3    H114518   5.353   5.089   5.790
 4859TIP3    H214519   5.492   5.138   5.756
 4860TIP3   OH214520   2.146   0.296   3.585
 4860TIP3    H114521   2.215   0.283   3.649
 4860TIP3    H214522   2.170   0.376   3.539
 4861TIP3   OH214523   3.384   2.038   5.617
 4861TIP3    H114524   3.307   2.094   5.623
 4861TIP3    H214525   3.457   2.096   5.640
 4862TIP3   OH214526   5.833   4.725   2.031
 4862TIP3    H114527   5.869   4.651   1.982
 4862TIP3    H214528   5.909   4.770   2.067
 4863TIP3   OH214529   3.111   3.022   3.229
 4863TIP3    H114530   3.168   3.092   3.198
 4863TIP3    H214531   3.127   2.950   3.169
 4864TIP3   OH214532   6.910   6.254   4.713
 4864TIP3    H114533   6.898   6.347   4.693
 4864TIP3    H214534   6.964   6.221   4.641
 4865TIP3   OH214535   3.708   6.876   0.299
 4865TIP3    H114536   3.687   6.911   0.213
 4865TIP3    H214537   3.669   6.939   0.360
 4866TIP3   OH214538   6.942   6.522   1.316
 4866TIP3    H114539   6.892   6.573   1.379
 4866TIP3    H214540   6.984   6.587   1.260
 4867TIP3   OH214541   0.252   2.841   5.450
 4867TIP3    H114542   0.288   2.860   5.537
 4867TIP3    H214543   0.231   2.748   5.452
 4868TIP3   OH214544   7.908   6.030   4.257
 4868TIP3    H114545   7.862   6.079   4.325
 4868TIP3    H214546   7.975   6.091   4.225
 4869TIP3   OH214547   4.511   4.508   4.163
 4869TIP3    H114548   4.431   4.531   4.115
 4869TIP3    H214549   4.494   4.419   4.195
 4870TIP3   OH214550   3.613   5.853   6.020
 4870TIP3    H114551   3.583   5.818   5.937
 4870TIP3    H214552   3.653   5.937   5.997
 4871TIP3   OH214553   2.929   4.949   3.972
 4871TIP3    H114554   2.877   4.876   3.940
 4871TIP3    H214555   2.923   4.944   4.067
 4872TIP3   OH214556   2.128  -0.004   2.956
 4872TIP3    H114557   2.130  -0.080   2.898
 4872TIP3    H214558   2.215   0.036   2.946
 4873TIP3   OH214559   0.285   7.086   5.763
 4873TIP3    H114560   0.235   7.158   5.802
 4873TIP3    H214561   0.218   7.022   5.738
 4874TIP3   OH214562   8.154   7.332   1.194
 4874TIP3    H114563   8.230   7.352   1.249
 4874TIP3    H214564   8.126   7.418   1.162
 4875TIP3   OH214565   2.084   1.113   4.455
 4875TIP3    H114566   2.040   1.028   4.449
 4875TIP3    H214567   2.156   1.107   4.392
 4876TIP3   OH214568   4.256   2.375   3.425
 4876TIP3    H114569   4.324   2.382   3.491
 4876TIP3    H214570   4.184   2.329   3.469
 4877TIP3   OH214571   3.108   5.846   4.082
 4877TIP3    H114572   3.049   5.771   4.081
 4877TIP3    H214573   3.128   5.862   3.990
 4878TIP3   OH214574   1.337   3.833   1.142
 4878TIP3    H114575   1.301   3.857   1.057
 4878TIP3    H214576   1.297   3.895   1.203
 4879TIP3   OH214577   6.298   3.147   0.346
 4879TIP3    H114578   6.295   3.073   0.284
 4879TIP3    H214579   6.357   3.118   0.415
 4880TIP3   OH214580   7.398   0.780   3.154
 4880TIP3    H114581   7.337   0.792   3.081
 4880TIP3    H214582   7.485   0.789   3.115
 4881TIP3   OH214583   5.142   2.028   4.374
 4881TIP3    H114584   5.100   1.942   4.383
 4881TIP3    H214585   5.076   2.090   4.406
 4882TIP3   OH214586   0.313   7.009   0.122
 4882TIP3    H114587   0.269   7.088   0.091
 4882TIP3    H214588   0.241   6.949   0.145
 4883TIP3   OH214589   3.867   0.891   6.827
 4883TIP3    H114590   3.918   0.939   6.762
 4883TIP3    H214591   3.842   0.810   6.783
 4884TIP3   OH214592   4.662   5.946   0.407
 4884TIP3    H114593   4.624   5.864   0.376
 4884TIP3    H214594   4.691   5.928   0.496
 4885TIP3   OH214595   2.331   6.887   4.229
 4885TIP3    H114596   2.343   6.917   4.139
 4885TIP3    H214597   2.411   6.838   4.249
 4886TIP3   OH214598   3.976   2.740   2.472
 4886TIP3    H114599   3.929   2.820   2.448
 4886TIP3    H214600   4.012   2.758   2.559
 4887TIP3   OH214601   2.967   5.276   2.599
 4887TIP3    H114602   2.878   5.243   2.588
 4887TIP3    H214603   2.979   5.284   2.693
 4888TIP3   OH214604   5.792   7.510   0.745
 4888TIP3    H114605   5.767   7.562   0.668
 4888TIP3    H214606   5.866   7.457   0.715
 4889TIP3   OH214607   3.717   2.192   1.207
 4889TIP3    H114608   3.673   2.125   1.259
 4889TIP3    H214609   3.729   2.265   1.267
 4890TIP3   OH214610   4.542   3.901   1.687
 4890TIP3    H114611   4.624   3.949   1.701
 4890TIP3    H214612   4.477   3.951   1.736
 4891TIP3   OH214613   0.691   5.884   5.813
 4891TIP3    H114614   0.668   5.954   5.874
 4891TIP3    H214615   0.610   5.864   5.767
 4892TIP3   OH214616   0.451   3.394   6.041
 4892TIP3    H114617   0.486   3.351   5.963
 4892TIP3    H214618   0.356   3.387   6.032
 4893TIP3   OH214619   2.850   0.045   3.838
 4893TIP3    H114620   2.782   0.051   3.771
 4893TIP3    H214621   2.931   0.063   3.790
 4894TIP3   OH214622   6.417   1.277   5.934
 4894TIP3    H114623   6.405   1.183   5.918
 4894TIP3    H214624   6.328   1.310   5.945
 4895TIP3   OH214625   2.903   1.832   0.272
 4895TIP3    H114626   2.931   1.911   0.226
 4895TIP3    H214627   2.835   1.794   0.216
 4896TIP3   OH214628   5.063   6.320   5.827
 4896TIP3    H114629   5.018   6.386   5.773
 4896TIP3    H214630   5.141   6.297   5.776
 4897TIP3   OH214631   3.031   7.047   3.539
 4897TIP3    H114632   2.944   7.036   3.499
 4897TIP3    H214633   3.078   7.105   3.479
 4898TIP3   OH214634   3.266   3.576   3.654
 4898TIP3    H114635   3.251   3.501   3.712
 4898TIP3    H214636   3.352   3.559   3.615
 4899TIP3   OH214637   4.231   5.887   4.764
 4899TIP3    H114638   4.184   5.940   4.699
 4899TIP3    H214639   4.267   5.814   4.714
 4900TIP3   OH214640   7.791   7.802   5.452
 4900TIP3    H114641   7.842   7.749   5.513
 4900TIP3    H214642   7.720   7.839   5.506
 4901TIP3   OH214643   5.223   5.539   4.717
 4901TIP3    H114644   5.165   5.568   4.647
 4901TIP3    H214645   5.188   5.455   4.745
 4902TIP3   OH214646   0.631   5.529   6.445
 4902TIP3    H114647   0.708   5.545   6.500
 4902TIP3    H214648   0.564   5.498   6.506
 4903TIP3   OH214649   8.234   1.881   4.636
 4903TIP3    H114650   8.183   1.877   4.555
 4903TIP3    H214651   8.169   1.872   4.706
 4904TIP3   OH214652   5.926   4.199   5.117
 4904TIP3    H114653   5.844   4.248   5.111
 4904TIP3    H214654   5.990   4.265   5.144
 4905TIP3   OH214655   5.564   0.141   0.077
 4905TIP3    H114656   5.567   0.062   0.023
 4905TIP3    H214657   5.637   0.194   0.046
 4906TIP3   OH214658   8.165   5.279   2.713
 4906TIP3    H114659   8.254   5.249   2.731
 4906TIP3    H214660   8.177   5.368   2.680
 4907TIP3   OH214661   4.565   2.430   2.724
 4907TIP3    H114662   4.644   2.447   2.775
 4907TIP3    H214663   4.523   2.516   2.715
 4908TIP3   OH214664   6.150   2.644   0.822
 4908TIP3    H114665   6.130   2.694   0.743
 4908TIP3    H214666   6.073   2.588   0.835
 4909TIP3   OH214667   4.840   4.185   6.201
 4909TIP3    H114668   4.786   4.216   6.128
 4909TIP3    H214669   4.894   4.261   6.224
 4910TIP3   OH214670   6.364   0.634   3.815
 4910TIP3    H114671   6.315   0.716   3.820
 4910TIP3    H214672   6.349   0.592   3.900
 4911TIP3   OH214673   3.411   1.996   6.503
 4911TIP3    H114674   3.407   1.990   6.407
 4911TIP3    H214675   3.341   1.938   6.533
 4912TIP3   OH214676   0.228   5.668   6.601
 4912TIP3    H114677   0.150   5.719   6.621
 4912TIP3    H214678   0.201   5.610   6.530
 4913TIP3   OH214679   5.226   6.808   1.621
 4913TIP3    H114680   5.177   6.730   1.648
 4913TIP3    H214681   5.316   6.777   1.610
 4914TIP3   OH214682   2.472   0.460   1.969
 4914TIP3    H114683   2.482   0.474   2.063
 4914TIP3    H214684   2.380   0.436   1.957
 4915TIP3   OH214685   6.751   7.173   6.279
 4915TIP3    H114686   6.663   7.136   6.279
 4915TIP3    H214687   6.765   7.201   6.188
 4916TIP3   OH214688   3.660   3.487   4.034
 4916TIP3    H114689   3.601   3.527   3.969
 4916TIP3    H214690   3.713   3.426   3.984
 4917TIP3   OH214691   0.193   5.159   5.436
 4917TIP3    H114692   0.181   5.093   5.505
 4917TIP3    H214693   0.156   5.118   5.357
 4918TIP3   OH214694   0.174   5.878   1.234
 4918TIP3    H114695   0.211   5.890   1.147
 4918TIP3    H214696   0.098   5.936   1.236
 4919TIP3   OH214697   0.992   7.044   4.293
 4919TIP3    H114698   0.923   7.104   4.322
 4919TIP3    H214699   1.023   7.003   4.373
 4920TIP3   OH214700   2.097   5.067   6.027
 4920TIP3    H114701   2.059   5.146   6.065
 4920TIP3    H214702   2.045   5.051   5.948
 4921TIP3   OH214703   3.367   3.268   6.587
 4921TIP3    H114704   3.298   3.334   6.581
 4921TIP3    H214705   3.439   3.306   6.536
 4922TIP3   OH214706   1.781   1.821   1.192
 4922TIP3    H114707   1.835   1.757   1.238
 4922TIP3    H214708   1.743   1.874   1.262
 4923TIP3   OH214709   0.969   3.290   2.872
 4923TIP3    H114710   0.922   3.207   2.868
 4923TIP3    H214711   1.057   3.269   2.840
 4924TIP3   OH214712   2.872   3.130   3.005
 4924TIP3    H114713   2.859   3.035   2.997
 4924TIP3    H214714   2.930   3.152   2.933
 4925TIP3   OH214715   0.343   4.679   3.722
 4925TIP3    H114716   0.338   4.753   3.783
 4925TIP3    H214717   0.437   4.667   3.708
 4926TIP3   OH214718   4.971   1.445   3.311
 4926TIP3    H114719   4.969   1.540   3.327
 4926TIP3    H214720   4.897   1.411   3.360
 4927TIP3   OH214721   4.084   2.312   6.705
 4927TIP3    H114722   4.025   2.366   6.758
 4927TIP3    H214723   4.099   2.234   6.758
 4928TIP3   OH214724   1.305   5.673   1.485
 4928TIP3    H114725   1.362   5.602   1.456
 4928TIP3    H214726   1.258   5.700   1.406
 4929TIP3   OH214727   1.939   5.891   1.016
 4929TIP3    H114728   2.020   5.847   1.042
 4929TIP3    H214729   1.921   5.856   0.928
 4930TIP3   OH214730   2.225   4.726   4.479
 4930TIP3    H114731   2.184   4.694   4.558
 4930TIP3    H214732   2.203   4.662   4.412
 4931TIP3   OH214733   1.653   0.247   1.939
 4931TIP3    H114734   1.661   0.324   1.883
 4931TIP3    H214735   1.585   0.271   2.002
 4932TIP3   OH214736   7.009   7.861   6.250
 4932TIP3    H114737   7.016   7.910   6.167
 4932TIP3    H214738   7.016   7.769   6.224
 4933TIP3   OH214739   1.400   5.384   6.658
 4933TIP3    H114740   1.470   5.373   6.721
 4933TIP3    H214741   1.320   5.364   6.707
 4934TIP3   OH214742   3.455   3.631   3.909
 4934TIP3    H114743   3.364   3.601   3.917
 4934TIP3    H214744   3.463   3.658   3.817
 4935TIP3   OH214745   6.262   7.791   1.683
 4935TIP3    H114746   6.247   7.857   1.750
 4935TIP3    H214747   6.306   7.838   1.612
 4936TIP3   OH214748   7.396   0.469   6.020
 4936TIP3    H114749   7.338   0.535   5.983
 4936TIP3    H214750   7.482   0.511   6.024
 4937TIP3   OH214751   7.096   4.351   3.482
 4937TIP3    H114752   7.166   4.292   3.510
 4937TIP3    H214753   7.109   4.359   3.387
 4938TIP3   OH214754   1.315   5.542   5.584
 4938TIP3    H114755   1.334   5.452   5.557
 4938TIP3    H214756   1.395   5.590   5.563
 4939TIP3   OH214757   3.402   4.610   5.195
 4939TIP3    H114758   3.326   4.568   5.236
 4939TIP3    H214759   3.367   4.651   5.116
 4940TIP3   OH214760   5.396   2.686   5.529
 4940TIP3    H114761   5.446   2.606   5.546
 4940TIP3    H214762   5.386   2.727   5.614
 4941TIP3   OH214763   2.869   6.299   3.972
 4941TIP3    H114764   2.963   6.300   3.953
 4941TIP3    H214765   2.864   6.305   4.067
 4942TIP3   OH214766   5.878   5.457   1.692
 4942TIP3    H114767   5.837   5.543   1.702
 4942TIP3    H214768   5.937   5.467   1.618
 4943TIP3   OH214769   3.099   3.799   6.582
 4943TIP3    H114770   3.156   3.821   6.508
 4943TIP3    H214771   3.073   3.708   6.566
 4944TIP3   OH214772   7.373   6.523   1.333
 4944TIP3    H114773   7.401   6.435   1.305
 4944TIP3    H214774   7.320   6.507   1.411
 4945TIP3   OH214775   7.730   1.513   2.099
 4945TIP3    H114776   7.787   1.536   2.173
 4945TIP3    H214777   7.686   1.595   2.077
 4946TIP3   OH214778   0.343   5.873   0.428
 4946TIP3    H114779   0.322   5.780   0.436
 4946TIP3    H214780   0.438   5.876   0.419
 4947TIP3   OH214781   5.927   5.566   2.408
 4947TIP3    H114782   5.990   5.515   2.357
 4947TIP3    H214783   5.920   5.519   2.491
 4948TIP3   OH214784   0.695   4.973   4.834
 4948TIP3    H114785   0.641   4.912   4.884
 4948TIP3    H214786   0.729   5.034   4.900
 4949TIP3   OH214787   5.080   6.859   5.862
 4949TIP3    H114788   5.017   6.810   5.915
 4949TIP3    H214789   5.049   6.849   5.772
 4950TIP3   OH214790   7.468   3.035   2.270
 4950TIP3    H114791   7.497   2.945   2.285
 4950TIP3    H214792   7.531   3.089   2.318
 4951TIP3   OH214793   5.507   3.035   2.010
 4951TIP3    H114794   5.580   2.988   1.968
 4951TIP3    H214795   5.548   3.110   2.052
 4952TIP3   OH214796   0.983   4.472   1.484
 4952TIP3    H114797   1.062   4.460   1.432
 4952TIP3    H214798   0.927   4.529   1.431
 4953TIP3   OH214799   8.024   2.273   6.788
 4953TIP3    H114800   8.012   2.252   6.695
 4953TIP3    H214801   7.983   2.199   6.834
 4954TIP3   OH214802   4.828   3.871   2.896
 4954TIP3    H114803   4.758   3.881   2.832
 4954TIP3    H214804   4.834   3.957   2.939
 4955TIP3   OH214805   2.338   4.199   6.095
 4955TIP3    H114806   2.247   4.181   6.069
 4955TIP3    H214807   2.330   4.241   6.180
 4956TIP3   OH214808   1.481   7.811   2.541
 4956TIP3    H114809   1.480   7.831   2.635
 4956TIP3    H214810   1.571   7.827   2.514
 4957TIP3   OH214811   6.400   5.667   1.455
 4957TIP3    H114812   6.327   5.720   1.489
 4957TIP3    H214813   6.375   5.650   1.364
 4958TIP3   OH214814   4.034   0.022   4.265
 4958TIP3    H114815   4.091  -0.032   4.319
 4958TIP3    H214816   4.091   0.089   4.228
 4959TIP3   OH214817   4.972   0.805   3.642
 4959TIP3    H114818   4.953   0.889   3.683
 4959TIP3    H214819   4.932   0.811   3.555
 4960TIP3   OH214820   5.785   4.502   4.407
 4960TIP3    H114821   5.795   4.475   4.315
 4960TIP3    H214822   5.711   4.562   4.406
 4961TIP3   OH214823   0.584   2.039   3.091
 4961TIP3    H114824   0.615   2.020   3.179
 4961TIP3    H214825   0.594   2.134   3.082
 4962TIP3   OH214826   4.940   7.821   1.877
 4962TIP3    H114827   5.022   7.819   1.926
 4962TIP3    H214828   4.947   7.900   1.823
 4963TIP3   OH214829   8.036   7.130   1.016
 4963TIP3    H114830   8.106   7.119   0.952
 4963TIP3    H214831   8.071   7.192   1.080
 4964TIP3   OH214832   7.497   1.660   2.306
 4964TIP3    H114833   7.452   1.717   2.369
 4964TIP3    H214834   7.553   1.604   2.360
 4965TIP3   OH214835   3.568   6.727   5.191
 4965TIP3    H114836   3.600   6.693   5.107
 4965TIP3    H214837   3.521   6.807   5.168
 4966TIP3   OH214838   6.576   0.826   2.486
 4966TIP3    H114839   6.587   0.910   2.440
 4966TIP3    H214840   6.482   0.820   2.503
 4967TIP3   OH214841   3.321   1.906   1.584
 4967TIP3    H114842   3.327   1.999   1.563
 4967TIP3    H214843   3.261   1.870   1.519
 4968TIP3   OH214844   3.378   1.778   5.431
 4968TIP3    H114845   3.364   1.873   5.432
 4968TIP3    H214846   3.331   1.747   5.354
 4969TIP3   OH214847   7.357   0.253   6.230
 4969TIP3    H114848   7.347   0.161   6.210
 4969TIP3    H214849   7.362   0.296   6.145
 4970TIP3   OH214850   5.486   5.860   4.831
 4970TIP3    H114851   5.493   5.948   4.795
 4970TIP3    H214852   5.566   5.848   4.882
 4971TIP3   OH214853   5.877   1.878   3.910
 4971TIP3    H114854   5.930   1.939   3.961
 4971TIP3    H214855   5.830   1.933   3.847
 4972TIP3   OH214856   2.426   7.468   6.221
 4972TIP3    H114857   2.454   7.403   6.156
 4972TIP3    H214858   2.374   7.417   6.283
 4973TIP3   OH214859   6.894   3.802   3.497
 4973TIP3    H114860   6.988   3.798   3.483
 4973TIP3    H214861   6.856   3.800   3.409
 4974TIP3   OH214862   6.914   5.109   2.727
 4974TIP3    H114863   6.880   5.111   2.638
 4974TIP3    H214864   6.962   5.026   2.732
 4975TIP3   OH214865   4.029   3.995   2.418
 4975TIP3    H114866   4.120   3.976   2.445
 4975TIP3    H214867   3.987   4.029   2.496
 4976TIP3   OH214868   4.789   0.812   2.386
 4976TIP3    H114869   4.706   0.781   2.349
 4976TIP3    H214870   4.786   0.785   2.478
 4977TIP3   OH214871   4.178   2.612   4.640
 4977TIP3    H114872   4.144   2.639   4.555
 4977TIP3    H214873   4.271   2.594   4.625
 4978TIP3   OH214874   1.993   4.839   5.072
 4978TIP3    H114875   2.088   4.851   5.069
 4978TIP3    H214876   1.976   4.802   5.158
 4979TIP3   OH214877   6.339   0.576   2.403
 4979TIP3    H114878   6.286   0.530   2.338
 4979TIP3    H214879   6.309   0.667   2.398
 4980TIP3   OH214880   7.211   0.542   1.895
 4980TIP3    H114881   7.219   0.579   1.807
 4980TIP3    H214882   7.296   0.500   1.912
 4981TIP3   OH214883   4.916   1.664   3.888
 4981TIP3    H114884   4.915   1.708   3.973
 4981TIP3    H214885   4.908   1.571   3.909
 4982TIP3   OH214886   2.501   5.901   2.496
 4982TIP3    H114887   2.542   5.971   2.446
 4982TIP3    H214888   2.420   5.881   2.449
 4983TIP3   OH214889   1.977   0.639   0.709
 4983TIP3    H114890   2.014   0.675   0.790
 4983TIP3    H214891   2.049   0.589   0.670
 4984TIP3   OH214892   1.090   4.896   1.271
 4984TIP3    H114893   1.075   4.879   1.178
 4984TIP3    H214894   1.171   4.947   1.274
 4985TIP3   OH214895   7.374   1.014   6.766
 4985TIP3    H114896   7.333   1.037   6.683
 4985TIP3    H214897   7.467   1.009   6.746
 4986TIP3   OH214898   6.493   0.459   2.625
 4986TIP3    H114899   6.504   0.536   2.680
 4986TIP3    H214900   6.497   0.491   2.535
 4987TIP3   OH214901   2.330   0.303   0.854
 4987TIP3    H114902   2.268   0.324   0.924
 4987TIP3    H214903   2.293   0.344   0.776
 4988TIP3   OH214904   3.375   6.911   5.895
 4988TIP3    H114905   3.285   6.886   5.917
 4988TIP3    H214906   3.369   7.003   5.870
 4989TIP3   OH214907   6.495   1.431   1.202
 4989TIP3    H114908   6.528   1.346   1.170
 4989TIP3    H214909   6.439   1.409   1.276
 4990TIP3   OH214910   0.921   4.829   1.851
 4990TIP3    H114911   0.933   4.827   1.946
 4990TIP3    H214912   0.914   4.737   1.826
 4991TIP3   OH214913   3.444   5.948   6.755
 4991TIP3    H114914   3.444   6.041   6.730
 4991TIP3    H214915   3.369   5.911   6.709
 4992TIP3   OH214916   8.235   2.008   0.527
 4992TIP3    H114917   8.169   1.942   0.505
 4992TIP3    H214918   8.272   2.034   0.443
 4993TIP3   OH214919   3.484   1.389   2.662
 4993TIP3    H114920   3.558   1.351   2.615
 4993TIP3    H214921   3.411   1.332   2.641
 4994TIP3   OH214922   5.461   5.713   0.052
 4994TIP3    H114923   5.487   5.637   0.104
 4994TIP3    H214924   5.410   5.676  -0.021
 4995TIP3   OH214925   4.368   0.295   3.061
 4995TIP3    H114926   4.293   0.319   3.008
 4995TIP3    H214927   4.410   0.223   3.013
 4996TIP3   OH214928   5.277   2.481   4.359
 4996TIP3    H114929   5.247   2.497   4.449
 4996TIP3    H214930   5.368   2.452   4.369
 4997TIP3   OH214931   4.973   4.100   2.316
 4997TIP3    H114932   4.956   4.068   2.405
 4997TIP3    H214933   5.039   4.041   2.281
 4998TIP3   OH214934   1.977   0.701   0.359
 4998TIP3    H114935   1.913   0.731   0.425
 4998TIP3    H214936   2.051   0.669   0.411
 4999TIP3   OH214937   2.468   1.586   5.877
 4999TIP3    H114938   2.502   1.676   5.872
 4999TIP3    H214939   2.379   1.592   5.843
 5000TIP3   OH214940   7.812   7.135   2.257
 5000TIP3    H114941   7.834   7.187   2.334
 5000TIP3    H214942   7.717   7.126   2.261
 5001TIP3   OH214943   5.089   4.370   4.856
 5001TIP3    H114944   5.159   4.433   4.875
 5001TIP3    H214945   5.088   4.365   4.760
 5002TIP3   OH214946   3.579   4.765   5.792
 5002TIP3    H114947   3.552   4.683   5.751
 5002TIP3    H214948   3.600   4.823   5.719
 5003TIP3   OH214949   1.560   5.473   2.711
 5003TIP3    H114950   1.592   5.426   2.788
 5003TIP3    H214951   1.537   5.404   2.649
 5004TIP3   OH214952   4.444   1.166   2.065
 5004TIP3    H114953   4.366   1.205   2.025
 5004TIP3    H214954   4.468   1.095   2.006
 5005TIP3   OH214955   0.362   5.677   0.171
 5005TIP3    H114956   0.309   5.628   0.107
 5005TIP3    H214957   0.352   5.629   0.253
 5006TIP3   OH214958   0.853   2.042   0.795
 5006TIP3    H114959   0.935   2.082   0.824
 5006TIP3    H214960   0.784   2.095   0.835
 5007TIP3   OH214961   2.049   2.293   0.238
 5007TIP3    H114962   2.034   2.373   0.188
 5007TIP3    H214963   2.036   2.318   0.329
 5008TIP3   OH214964   7.226   3.898   5.724
 5008TIP3    H114965   7.174   3.826   5.759
 5008TIP3    H214966   7.288   3.918   5.794
 5009TIP3   OH214967   6.889   6.510   2.540
 5009TIP3    H114968   6.966   6.457   2.560
 5009TIP3    H214969   6.862   6.481   2.453
 5010TIP3   OH214970   7.758   3.267   3.845
 5010TIP3    H114971   7.755   3.312   3.761
 5010TIP3    H214972   7.847   3.232   3.851
 5011TIP3   OH214973   5.597   7.481   2.033
 5011TIP3    H114974   5.655   7.537   1.981
 5011TIP3    H214975   5.559   7.420   1.970
 5012TIP3   OH214976   1.720   4.322   6.414
 5012TIP3    H114977   1.626   4.337   6.409
 5012TIP3    H214978   1.733   4.235   6.376
 5013TIP3   OH214979   1.541   2.859   6.487
 5013TIP3    H114980   1.508   2.869   6.577
 5013TIP3    H214981   1.614   2.798   6.495
 5014TIP3   OH214982   6.259   6.190   2.777
 5014TIP3    H114983   6.292   6.238   2.852
 5014TIP3    H214984   6.172   6.159   2.804
 5015TIP3   OH214985   8.139   4.016   2.660
 5015TIP3    H114986   8.222   4.063   2.652
 5015TIP3    H214987   8.164   3.924   2.662
 5016TIP3   OH214988   0.520   0.269   6.095
 5016TIP3    H114989   0.514   0.240   6.004
 5016TIP3    H214990   0.455   0.340   6.102
 5017TIP3   OH214991   1.733   5.290   2.459
 5017TIP3    H114992   1.751   5.383   2.474
 5017TIP3    H214993   1.793   5.244   2.518
 5018TIP3   OH214994   7.308   7.471   0.271
 5018TIP3    H114995   7.295   7.549   0.217
 5018TIP3    H214996   7.262   7.401   0.224
 5019TIP3   OH214997   0.598   7.794   2.413
 5019TIP3    H114998   0.678   7.807   2.363
 5019TIP3    H214999   0.624   7.736   2.485
 5020TIP3   OH215000   5.046   2.475   3.028
 5020TIP3    H115001   4.992   2.488   3.106
 5020TIP3    H215002   5.087   2.560   3.012
 5021TIP3   OH215003   7.686   3.480   3.283
 5021TIP3    H115004   7.668   3.500   3.191
 5021TIP3    H215005   7.778   3.503   3.295
 5022TIP3   OH215006   4.259   0.967   0.610
 5022TIP3    H115007   4.232   1.017   0.532
 5022TIP3    H215008   4.261   1.031   0.680
 5023TIP3   OH215009   0.891   0.517   3.712
 5023TIP3    H115010   0.917   0.522   3.804
 5023TIP3    H215011   0.818   0.579   3.705
 5024TIP3   OH215012   0.965   7.084   5.586
 5024TIP3    H115013   1.025   7.118   5.652
 5024TIP3    H215014   0.880   7.119   5.610
 5025TIP3   OH215015   6.933   1.345   1.014
 5025TIP3    H115016   6.893   1.431   1.024
 5025TIP3    H215017   6.939   1.310   1.102
 5026TIP3   OH215018   3.685   0.974   2.526
 5026TIP3    H115019   3.754   0.977   2.460
 5026TIP3    H215020   3.631   0.899   2.502
 5027TIP3   OH215021   6.796  -0.022   2.618
 5027TIP3    H115022   6.711  -0.019   2.573
 5027TIP3    H215023   6.844   0.053   2.582
 5028TIP3   OH215024   7.306   7.552   2.738
 5028TIP3    H115025   7.266   7.490   2.677
 5028TIP3    H215026   7.235   7.612   2.761
 5029TIP3   OH215027   5.370   7.672   1.711
 5029TIP3    H115028   5.459   7.707   1.711
 5029TIP3    H215029   5.332   7.703   1.793
 5030TIP3   OH215030   2.037   4.942   1.364
 5030TIP3    H115031   2.060   5.030   1.334
 5030TIP3    H215032   2.111   4.888   1.337
 5031TIP3   OH215033   5.408   4.546   5.861
 5031TIP3    H115034   5.485   4.546   5.805
 5031TIP3    H215035   5.337   4.516   5.804
 5032TIP3   OH215036   2.646   6.074   3.580
 5032TIP3    H115037   2.714   6.127   3.537
 5032TIP3    H215038   2.693   6.027   3.649
 5033TIP3   OH215039   6.781   4.928   3.282
 5033TIP3    H115040   6.775   4.840   3.319
 5033TIP3    H215041   6.718   4.927   3.210
 5034TIP3   OH215042   7.963   4.017   5.806
 5034TIP3    H115043   7.933   4.103   5.835
 5034TIP3    H215044   7.884   3.963   5.803
 5035TIP3   OH215045   3.198   5.322   1.887
 5035TIP3    H115046   3.141   5.400   1.889
 5035TIP3    H215047   3.138   5.249   1.903
 5036TIP3   OH215048   8.054   6.390   3.898
 5036TIP3    H115049   8.068   6.347   3.813
 5036TIP3    H215050   8.108   6.469   3.895
 5037TIP3   OH215051   3.060   2.451   4.623
 5037TIP3    H115052   3.100   2.475   4.539
 5037TIP3    H215053   2.975   2.494   4.622
 5038TIP3   OH215054   7.004   2.782   0.038
 5038TIP3    H115055   7.081   2.838   0.035
 5038TIP3    H215056   6.933   2.840   0.068
 5039TIP3   OH215057   8.118   2.893   3.292
 5039TIP3    H115058   8.048   2.838   3.327
 5039TIP3    H215059   8.197   2.838   3.298
 5040TIP3   OH215060   5.700   3.790   3.630
 5040TIP3    H115061   5.633   3.813   3.695
 5040TIP3    H215062   5.728   3.874   3.594
 5041TIP3   OH215063   1.148   4.371   1.290
 5041TIP3    H115064   1.150   4.338   1.200
 5041TIP3    H215065   1.212   4.318   1.336
 5042TIP3   OH215066   3.207   1.009   1.857
 5042TIP3    H115067   3.178   0.931   1.809
 5042TIP3    H215068   3.129   1.038   1.903
 5043TIP3   OH215069   0.578   4.081   6.259
 5043TIP3    H115070   0.667   4.074   6.224
 5043TIP3    H215071   0.583   4.037   6.344
 5044TIP3   OH215072   2.192   3.764   1.567
 5044TIP3    H115073   2.274   3.777   1.615
 5044TIP3    H215074   2.215   3.779   1.476
 5045TIP3   OH215075   5.831   4.854   0.210
 5045TIP3    H115076   5.808   4.940   0.247
 5045TIP3    H215077   5.906   4.872   0.153
 5046TIP3   OH215078   3.771   6.338   3.651
 5046TIP3    H115079   3.789   6.342   3.745
 5046TIP3    H215080   3.822   6.410   3.613
 5047TIP3   OH215081   2.940   2.057   2.691
 5047TIP3    H115082   2.852   2.085   2.668
 5047TIP3    H215083   2.992   2.137   2.685
 5048TIP3   OH215084   6.360   7.580   5.281
 5048TIP3    H115085   6.354   7.507   5.219
 5048TIP3    H215086   6.432   7.557   5.339
 5049TIP3   OH215087   0.784   5.260   4.423
 5049TIP3    H115088   0.786   5.182   4.479
 5049TIP3    H215089   0.804   5.333   4.482
 5050TIP3   OH215090   5.012   5.169   1.082
 5050TIP3    H115091   5.065   5.127   1.015
 5050TIP3    H215092   4.958   5.232   1.034
 5051TIP3   OH215093   7.238   0.336   1.257
 5051TIP3    H115094   7.243   0.251   1.301
 5051TIP3    H215095   7.329   0.366   1.253
 5052TIP3   OH215096   1.066   6.440   2.984
 5052TIP3    H115097   1.082   6.368   3.045
 5052TIP3    H215098   1.032   6.397   2.905
 5053TIP3   OH215099   1.953   1.459   5.920
 5053TIP3    H115100   2.009   1.440   5.995
 5053TIP3    H215101   1.867   1.425   5.945
 5054TIP3   OH215102   1.489   3.227   5.611
 5054TIP3    H115103   1.427   3.164   5.645
 5054TIP3    H215104   1.457   3.247   5.523
 5055TIP3   OH215105   3.336   2.029   5.273
 5055TIP3    H115106   3.344   2.118   5.307
 5055TIP3    H215107   3.242   2.010   5.277
 5056TIP3   OH215108   0.062   5.726   3.287
 5056TIP3    H115109   0.079   5.634   3.307
 5056TIP3    H215110   0.150   5.765   3.280
 5057TIP3   OH215111   4.003   4.023   0.849
 5057TIP3    H115112   4.064   4.079   0.897
 5057TIP3    H215113   3.975   3.958   0.914
 5058TIP3   OH215114   7.544   0.924   5.323
 5058TIP3    H115115   7.501   0.904   5.406
 5058TIP3    H215116   7.637   0.925   5.344
 5059TIP3   OH215117   0.612   2.732   5.876
 5059TIP3    H115118   0.526   2.746   5.836
 5059TIP3    H215119   0.634   2.641   5.855
 5060TIP3   OH215120   4.692   6.596   3.410
 5060TIP3    H115121   4.711   6.514   3.455
 5060TIP3    H215122   4.736   6.587   3.325
 5061TIP3   OH215123   7.707   1.600   5.757
 5061TIP3    H115124   7.684   1.562   5.842
 5061TIP3    H215125   7.802   1.594   5.753
 5062TIP3   OH215126   1.510   7.020   6.666
 5062TIP3    H115127   1.423   6.979   6.661
 5062TIP3    H215128   1.570   6.950   6.639
 5063TIP3   OH215129   5.016   5.787   4.189
 5063TIP3    H115130   4.945   5.801   4.126
 5063TIP3    H215131   5.091   5.831   4.150
 5064TIP3   OH215132   3.826   0.188   1.815
 5064TIP3    H115133   3.917   0.183   1.787
 5064TIP3    H215134   3.805   0.101   1.847
 5065TIP3   OH215135   1.802   3.233   5.787
 5065TIP3    H115136   1.763   3.276   5.712
 5065TIP3    H215137   1.891   3.209   5.758
 5066TIP3   OH215138   4.134   2.018   3.685
 5066TIP3    H115139   4.199   2.080   3.718
 5066TIP3    H215140   4.091   2.064   3.613
 5067TIP3   OH215141   2.951   7.662   0.795
 5067TIP3    H115142   2.884   7.629   0.735
 5067TIP3    H215143   3.033   7.657   0.745
 5068TIP3   OH215144   0.358   4.681   0.313
 5068TIP3    H115145   0.274   4.639   0.331
 5068TIP3    H215146   0.422   4.626   0.358
 5069TIP3   OH215147   5.002   6.855   6.218
 5069TIP3    H115148   4.991   6.906   6.137
 5069TIP3    H215149   4.985   6.918   6.288
 5070TIP3   OH215150   4.453   3.202   1.638
 5070TIP3    H115151   4.541   3.238   1.628
 5070TIP3    H215152   4.422   3.238   1.721
 5071TIP3   OH215153   1.128   7.814   3.049
 5071TIP3    H115154   1.136   7.742   2.986
 5071TIP3    H215155   1.129   7.893   2.995
 5072TIP3   OH215156   4.902   3.305   6.834
 5072TIP3    H115157   4.898   3.270   6.745
 5072TIP3    H215158   4.934   3.395   6.823
 5073TIP3   OH215159   6.403   2.025   2.751
 5073TIP3    H115160   6.488   2.053   2.784
 5073TIP3    H215161   6.353   2.002   2.829
 5074TIP3   OH215162   4.115   7.147   5.785
 5074TIP3    H115163   4.062   7.111   5.714
 5074TIP3    H215164   4.102   7.087   5.858
 5075TIP3   OH215165   2.762   2.896   3.406
 5075TIP3    H115166   2.789   2.848   3.484
 5075TIP3    H215167   2.836   2.887   3.345
 5076TIP3   OH215168   4.699   6.331   6.424
 5076TIP3    H115169   4.630   6.271   6.451
 5076TIP3    H215170   4.693   6.405   6.485
 5077TIP3   OH215171   2.387   2.912   5.936
 5077TIP3    H115172   2.346   2.828   5.959
 5077TIP3    H215173   2.395   2.909   5.841
 5078TIP3   OH215174   5.365   1.344   5.541
 5078TIP3    H115175   5.403   1.258   5.521
 5078TIP3    H215176   5.303   1.360   5.470
 5079TIP3   OH215177   7.815   7.404   5.893
 5079TIP3    H115178   7.909   7.414   5.878
 5079TIP3    H215179   7.808   7.337   5.961
 5080TIP3   OH215180   4.820   0.230   3.084
 5080TIP3    H115181   4.738   0.273   3.058
 5080TIP3    H215182   4.842   0.174   3.010
 5081TIP3   OH215183   5.939   4.751   6.173
 5081TIP3    H115184   5.998   4.823   6.194
 5081TIP3    H215185   5.857   4.773   6.217
 5082TIP3   OH215186   3.189   1.471   1.533
 5082TIP3    H115187   3.198   1.378   1.554
 5082TIP3    H215188   3.106   1.477   1.485
 5083TIP3   OH215189   1.209   5.811   2.168
 5083TIP3    H115190   1.216   5.728   2.121
 5083TIP3    H215191   1.247   5.876   2.109
 5084TIP3   OH215192   7.297   7.108   0.865
 5084TIP3    H115193   7.255   7.072   0.787
 5084TIP3    H215194   7.387   7.123   0.839
 5085TIP3   OH215195   0.022   7.698   4.735
 5085TIP3    H115196  -0.049   7.635   4.744
 5085TIP3    H215197   0.058   7.680   4.648
 5086TIP3   OH215198   6.106   5.201   3.753
 5086TIP3    H115199   6.054   5.234   3.826
 5086TIP3    H215200   6.111   5.106   3.768
 5087TIP3   OH215201   4.248   3.699   5.431
 5087TIP3    H115202   4.253   3.786   5.470
 5087TIP3    H215203   4.185   3.652   5.485
 5088TIP3   OH215204   0.202   2.412   2.899
 5088TIP3    H115205   0.201   2.430   2.805
 5088TIP3    H215206   0.223   2.319   2.906
 5089TIP3   OH215207   0.905   4.967   6.832
 5089TIP3    H115208   0.913   4.959   6.737
 5089TIP3    H215209   0.880   5.058   6.847
 5090TIP3   OH215210   0.758   4.032   4.028
 5090TIP3    H115211   0.737   4.082   4.108
 5090TIP3    H215212   0.815   4.090   3.978
 5091TIP3   OH215213   7.050   7.653   1.039
 5091TIP3    H115214   7.015   7.625   0.954
 5091TIP3    H215215   7.081   7.742   1.024
 5092TIP3   OH215216   5.507   0.228   6.610
 5092TIP3    H115217   5.455   0.286   6.554
 5092TIP3    H215218   5.443   0.191   6.671
 5093TIP3   OH215219   6.475   7.596   6.746
 5093TIP3    H115220   6.507   7.569   6.833
 5093TIP3    H215221   6.536   7.666   6.720
 5094TIP3   OH215222   3.729   2.621   2.886
 5094TIP3    H115223   3.670   2.546   2.893
 5094TIP3    H215224   3.815   2.582   2.869
 5095TIP3   OH215225   3.641   0.252   3.094
 5095TIP3    H115226   3.556   0.282   3.061
 5095TIP3    H215227   3.627   0.161   3.119
 5096TIP3   OH215228   8.361   7.274   4.621
 5096TIP3    H115229   8.376   7.208   4.554
 5096TIP3    H215230   8.436   7.333   4.615
 5097TIP3   OH215231   7.132   0.996   3.310
 5097TIP3    H115232   7.110   1.016   3.401
 5097TIP3    H215233   7.212   0.944   3.316
 5098TIP3   OH215234   2.704   4.647   1.159
 5098TIP3    H115235   2.768   4.703   1.203
 5098TIP3    H215236   2.642   4.624   1.228
 5099TIP3   OH215237   5.825   2.688   5.847
 5099TIP3    H115238   5.823   2.753   5.777
 5099TIP3    H215239   5.842   2.738   5.926
 5100TIP3   OH215240   1.439   3.535   0.158
 5100TIP3    H115241   1.505   3.603   0.143
 5100TIP3    H215242   1.383   3.538   0.081
 5101TIP3   OH215243   1.665   1.762   2.011
 5101TIP3    H115244   1.624   1.819   2.076
 5101TIP3    H215245   1.617   1.680   2.018
 5102TIP3   OH215246   4.897   2.358   0.622
 5102TIP3    H115247   4.953   2.287   0.653
 5102TIP3    H215248   4.954   2.435   0.620
 5103TIP3   OH215249   3.351   3.222   0.977
 5103TIP3    H115250   3.356   3.191   0.887
 5103TIP3    H215251   3.441   3.242   1.001
 5104TIP3   OH215252   1.959   2.936   4.046
 5104TIP3    H115253   1.903   2.979   3.982
 5104TIP3    H215254   1.979   3.003   4.111
 5105TIP3   OH215255   1.663   7.911   6.241
 5105TIP3    H115256   1.758   7.919   6.240
 5105TIP3    H215257   1.646   7.826   6.282
 5106TIP3   OH215258   1.720   1.819   4.362
 5106TIP3    H115259   1.808   1.856   4.363
 5106TIP3    H215260   1.723   1.752   4.294
 5107TIP3   OH215261   3.891   0.473   2.903
 5107TIP3    H115262   3.862   0.395   2.951
 5107TIP3    H215263   3.875   0.452   2.811
 5108TIP3   OH215264   1.201   4.640   5.462
 5108TIP3    H115265   1.221   4.564   5.407
 5108TIP3    H215266   1.108   4.629   5.485
 5109TIP3   OH215267   1.420   0.120   0.363
 5109TIP3    H115268   1.416   0.102   0.457
 5109TIP3    H215269   1.427   0.215   0.357
 5110TIP3   OH215270   7.461   4.207   5.159
 5110TIP3    H115271   7.441   4.295   5.128
 5110TIP3    H215272   7.432   4.207   5.250
 5111TIP3   OH215273   2.188   0.418   0.641
 5111TIP3    H115274   2.193   0.386   0.551
 5111TIP3    H215275   2.247   0.494   0.643
 5112TIP3   OH215276   5.487   5.580   1.308
 5112TIP3    H115277   5.547   5.599   1.380
 5112TIP3    H215278   5.464   5.488   1.320
 5113TIP3   OH215279   2.071   1.003   6.784
 5113TIP3    H115280   2.103   1.082   6.740
 5113TIP3    H215281   2.126   0.996   6.862
 5114TIP3   OH215282   8.122   5.826   0.552
 5114TIP3    H115283   8.092   5.820   0.461
 5114TIP3    H215284   8.045   5.801   0.604
 5115TIP3   OH215285   1.079   3.885   2.123
 5115TIP3    H115286   1.118   3.880   2.210
 5115TIP3    H215287   0.990   3.853   2.135
 5116TIP3   OH215288   5.956   2.582   4.578
 5116TIP3    H115289   5.916   2.495   4.575
 5116TIP3    H215290   6.050   2.566   4.579
 5117TIP3   OH215291   4.341   1.905   1.827
 5117TIP3    H115292   4.386   1.923   1.909
 5117TIP3    H215293   4.338   1.809   1.822
 5118TIP3   OH215294   7.678   6.464   0.266
 5118TIP3    H115295   7.721   6.390   0.223
 5118TIP3    H215296   7.593   6.430   0.292
 5119TIP3   OH215297   1.626   6.982   3.830
 5119TIP3    H115298   1.589   7.015   3.748
 5119TIP3    H215299   1.720   6.994   3.821
 5120TIP3   OH215300   7.365   0.835   5.144
 5120TIP3    H115301   7.425   0.862   5.075
 5120TIP3    H215302   7.401   0.874   5.224
 5121TIP3   OH215303   6.390   5.480   3.102
 5121TIP3    H115304   6.338   5.435   3.169
 5121TIP3    H215305   6.415   5.563   3.143
 5122TIP3   OH215306   1.960   2.833   5.729
 5122TIP3    H115307   2.018   2.830   5.805
 5122TIP3    H215308   1.951   2.742   5.701
 5123TIP3   OH215309   7.000   7.877   4.618
 5123TIP3    H115310   7.069   7.929   4.658
 5123TIP3    H215311   6.921   7.901   4.666
 5124TIP3   OH215312   0.413   1.226   5.695
 5124TIP3    H115313   0.325   1.193   5.715
 5124TIP3    H215314   0.403   1.272   5.612
 5125TIP3   OH215315   2.965   2.705   1.372
 5125TIP3    H115316   3.014   2.700   1.290
 5125TIP3    H215317   2.878   2.672   1.349
 5126TIP3   OH215318   7.587   3.845   4.662
 5126TIP3    H115319   7.502   3.816   4.627
 5126TIP3    H215320   7.651   3.810   4.600
 5127TIP3   OH215321   1.486   7.464   5.924
 5127TIP3    H115322   1.465   7.411   5.847
 5127TIP3    H215323   1.526   7.402   5.985
 5128TIP3   OH215324   6.804   4.581   2.905
 5128TIP3    H115325   6.743   4.566   2.833
 5128TIP3    H215326   6.840   4.668   2.886
 5129TIP3   OH215327   5.279   5.403   2.959
 5129TIP3    H115328   5.350   5.431   2.900
 5129TIP3    H215329   5.202   5.398   2.903
 5130TIP3   OH215330   0.618   0.610   6.348
 5130TIP3    H115331   0.667   0.638   6.271
 5130TIP3    H215332   0.685   0.577   6.408
 5131TIP3   OH215333   5.106   6.448   0.034
 5131TIP3    H115334   5.151   6.533   0.033
 5131TIP3    H215335   5.074   6.439   0.123
 5132TIP3   OH215336   0.612   7.359   1.554
 5132TIP3    H115337   0.690   7.305   1.540
 5132TIP3    H215338   0.581   7.379   1.466
 5133TIP3   OH215339   3.234   6.142   6.344
 5133TIP3    H115340   3.138   6.139   6.346
 5133TIP3    H215341   3.255   6.235   6.334
 5134TIP3   OH215342   8.186   2.095   2.026
 5134TIP3    H115343   8.205   2.188   2.014
 5134TIP3    H215344   8.163   2.087   2.119
 5135TIP3   OH215345   2.601   4.383   6.538
 5135TIP3    H115346   2.556   4.444   6.597
 5135TIP3    H215347   2.689   4.419   6.529
 5136TIP3   OH215348   5.337   7.676   2.553
 5136TIP3    H115349   5.279   7.702   2.480
 5136TIP3    H215350   5.425   7.688   2.518
 5137TIP3   OH215351   5.842   2.833   4.042
 5137TIP3    H115352   5.890   2.769   3.989
 5137TIP3    H215353   5.755   2.837   4.002
 5138TIP3   OH215354   7.834   2.742   6.119
 5138TIP3    H115355   7.881   2.823   6.097
 5138TIP3    H215356   7.814   2.702   6.035
 5139TIP3   OH215357   7.128   0.718   1.679
 5139TIP3    H115358   7.104   0.685   1.593
 5139TIP3    H215359   7.046   0.717   1.728
 5140TIP3   OH215360   1.544   4.798   5.071
 5140TIP3    H115361   1.504   4.783   5.157
 5140TIP3    H215362   1.589   4.881   5.080
 5141TIP3   OH215363   2.545   6.980   4.939
 5141TIP3    H115364   2.464   6.931   4.947
 5141TIP3    H215365   2.528   7.063   4.984
 5142TIP3   OH215366   8.336   3.851   6.768
 5142TIP3    H115367   8.413   3.878   6.718
 5142TIP3    H215368   8.280   3.807   6.704
 5143TIP3   OH215369   3.326   2.366   1.364
 5143TIP3    H115370   3.293   2.314   1.291
 5143TIP3    H215371   3.259   2.357   1.432
 5144TIP3   OH215372   7.591   1.489   6.777
 5144TIP3    H115373   7.607   1.577   6.742
 5144TIP3    H215374   7.535   1.447   6.711
 5145TIP3   OH215375   7.808   4.636   5.191
 5145TIP3    H115376   7.758   4.714   5.169
 5145TIP3    H215377   7.783   4.572   5.124
 5146TIP3   OH215378   1.980   7.676   2.576
 5146TIP3    H115379   2.067   7.651   2.607
 5146TIP3    H215380   1.931   7.594   2.576
 5147TIP3   OH215381   6.563   3.711   5.343
 5147TIP3    H115382   6.579   3.689   5.435
 5147TIP3    H215383   6.512   3.792   5.347
 5148TIP3   OH215384   0.817   6.165   2.479
 5148TIP3    H115385   0.844   6.208   2.398
 5148TIP3    H215386   0.730   6.200   2.497
 5149TIP3   OH215387   0.186   6.078   6.862
 5149TIP3    H115388   0.236   6.000   6.883
 5149TIP3    H215389   0.239   6.124   6.796
 5150TIP3   OH215390   0.384   4.906   5.746
 5150TIP3    H115391   0.417   4.925   5.834
 5150TIP3    H215392   0.398   4.812   5.735
 5151TIP3   OH215393   5.024   6.400   5.155
 5151TIP3    H115394   4.971   6.405   5.235
 5151TIP3    H215395   5.010   6.484   5.111
 5152TIP3   OH215396   0.766   7.532   4.237
 5152TIP3    H115397   0.816   7.609   4.263
 5152TIP3    H215398   0.807   7.502   4.156
 5153TIP3   OH215399   3.354   4.047   3.814
 5153TIP3    H115400   3.384   3.977   3.871
 5153TIP3    H215401   3.277   4.012   3.771
 5154TIP3   OH215402   6.556   3.637  -0.041
 5154TIP3    H115403   6.550   3.544  -0.063
 5154TIP3    H215404   6.518   3.643   0.047
 5155TIP3   OH215405   1.263   6.993   3.902
 5155TIP3    H115406   1.355   6.999   3.925
 5155TIP3    H215407   1.262   6.988   3.806
 5156TIP3   OH215408   3.399   6.018   4.874
 5156TIP3    H115409   3.325   6.078   4.875
 5156TIP3    H215410   3.406   5.986   4.964
 5157TIP3   OH215411   4.879   7.837   1.601
 5157TIP3    H115412   4.887   7.779   1.677
 5157TIP3    H215413   4.806   7.895   1.623
 5158TIP3   OH215414   7.673   4.975   2.478
 5158TIP3    H115415   7.763   4.958   2.447
 5158TIP3    H215416   7.618   4.943   2.406
 5159TIP3   OH215417   4.200   2.332   2.900
 5159TIP3    H115418   4.233   2.311   2.988
 5159TIP3    H215419   4.106   2.345   2.912
 5160TIP3   OH215420  -0.009   6.979   1.931
 5160TIP3    H115421   0.073   7.005   1.973
 5160TIP3    H215422   0.016   6.950   1.844
 5161TIP3   OH215423   3.154   4.649   0.082
 5161TIP3    H115424   3.137   4.732   0.038
 5161TIP3    H215425   3.144   4.668   0.175
 5162TIP3   OH215426   3.851   0.171   5.308
 5162TIP3    H115427   3.857   0.259   5.346
 5162TIP3    H215428   3.928   0.125   5.343
 5163TIP3   OH215429   1.738   5.134   4.717
 5163TIP3    H115430   1.781   5.108   4.798
 5163TIP3    H215431   1.810   5.156   4.658
 5164TIP3   OH215432   6.251   5.753   4.193
 5164TIP3    H115433   6.157   5.766   4.182
 5164TIP3    H215434   6.288   5.840   4.177
 5165TIP3   OH215435   7.518   6.208   4.400
 5165TIP3    H115436   7.610   6.186   4.407
 5165TIP3    H215437   7.516   6.284   4.341
 5166TIP3   OH215438   1.729   4.541   2.511
 5166TIP3    H115439   1.786   4.614   2.488
 5166TIP3    H215440   1.760   4.469   2.456
 5167TIP3   OH215441   4.799   5.764   2.097
 5167TIP3    H115442   4.834   5.801   2.177
 5167TIP3    H215443   4.834   5.819   2.027
 5168TIP3   OH215444   6.425   4.875   4.336
 5168TIP3    H115445   6.383   4.877   4.250
 5168TIP3    H215446   6.352   4.881   4.398
 5169TIP3   OH215447   1.381   6.312   0.893
 5169TIP3    H115448   1.449   6.339   0.831
 5169TIP3    H215449   1.302   6.304   0.839
 5170TIP3   OH215450   5.685   4.108   5.888
 5170TIP3    H115451   5.667   4.135   5.798
 5170TIP3    H215452   5.759   4.163   5.914
 5171TIP3   OH215453   6.857   3.758   0.353
 5171TIP3    H115454   6.844   3.847   0.385
 5171TIP3    H215455   6.910   3.715   0.421
 5172TIP3   OH215456   4.636   1.916   0.014
 5172TIP3    H115457   4.629   1.898   0.108
 5172TIP3    H215458   4.728   1.898  -0.007
 5173TIP3   OH215459   2.280   0.152   4.098
 5173TIP3    H115460   2.259   0.064   4.066
 5173TIP3    H215461   2.207   0.175   4.154
 5174TIP3   OH215462   0.174   3.237   1.818
 5174TIP3    H115463   0.134   3.177   1.755
 5174TIP3    H215464   0.192   3.317   1.768
 5175TIP3   OH215465   0.844   3.389   5.675
 5175TIP3    H115466   0.817   3.414   5.764
 5175TIP3    H215467   0.773   3.420   5.619
 5176TIP3   OH215468   6.516   3.108   2.854
 5176TIP3    H115469   6.487   3.035   2.909
 5176TIP3    H215470   6.568   3.067   2.786
 5177TIP3   OH215471   3.975   1.488   0.968
 5177TIP3    H115472   3.882   1.503   0.951
 5177TIP3    H215473   3.981   1.394   0.989
 5178TIP3   OH215474   0.939   1.152   0.572
 5178TIP3    H115475   0.879   1.081   0.547
 5178TIP3    H215476   0.928   1.218   0.504
 5179TIP3   OH215477   4.170   4.178   0.597
 5179TIP3    H115478   4.129   4.124   0.665
 5179TIP3    H215479   4.240   4.225   0.643
 5180TIP3   OH215480   6.464   5.208   4.262
 5180TIP3    H115481   6.498   5.285   4.308
 5180TIP3    H215482   6.396   5.243   4.205
 5181TIP3   OH215483   1.292   0.553   5.110
 5181TIP3    H115484   1.278   0.546   5.204
 5181TIP3    H215485   1.205   0.542   5.072
 5182TIP3   OH215486   4.691   6.233   5.520
 5182TIP3    H115487   4.643   6.305   5.560
 5182TIP3    H215488   4.673   6.157   5.576
 5183TIP3   OH215489   1.264   3.709   3.939
 5183TIP3    H115490   1.220   3.766   4.003
 5183TIP3    H215491   1.352   3.698   3.973
 5184TIP3   OH215492   1.155   1.495   0.967
 5184TIP3    H115493   1.084   1.470   0.908
 5184TIP3    H215494   1.119   1.481   1.055
 5185TIP3   OH215495   2.673   6.312   6.593
 5185TIP3    H115496   2.716   6.295   6.677
 5185TIP3    H215497   2.665   6.226   6.553
 5186TIP3   OH215498   1.925   3.107   3.122
 5186TIP3    H115499   1.975   3.031   3.150
 5186TIP3    H215500   1.988   3.179   3.123
 5187TIP3   OH215501   2.552   4.368   3.652
 5187TIP3    H115502   2.526   4.306   3.721
 5187TIP3    H215503   2.473   4.418   3.635
 5188TIP3   OH215504   7.496   0.116   3.301
 5188TIP3    H115505   7.587   0.142   3.314
 5188TIP3    H215506   7.474   0.152   3.215
 5189TIP3   OH215507   3.868   5.498   3.204
 5189TIP3    H115508   3.856   5.592   3.215
 5189TIP3    H215509   3.894   5.467   3.291
 5190TIP3   OH215510   8.066   6.362   5.122
 5190TIP3    H115511   8.127   6.303   5.079
 5190TIP3    H215512   7.981   6.321   5.113
 5191TIP3   OH215513   7.263   1.780   2.452
 5191TIP3    H115514   7.264   1.826   2.536
 5191TIP3    H215515   7.268   1.687   2.476
 5192TIP3   OH215516   2.987   4.887   2.821
 5192TIP3    H115517   3.000   4.794   2.801
 5192TIP3    H215518   2.967   4.926   2.736
 5193TIP3   OH215519   7.565   3.604   5.549
 5193TIP3    H115520   7.483   3.568   5.583
 5193TIP3    H215521   7.565   3.580   5.456
 5194TIP3   OH215522   6.010   6.424   6.428
 5194TIP3    H115523   6.079   6.359   6.442
 5194TIP3    H215524   5.950   6.412   6.501
 5195TIP3   OH215525   6.167   1.944   5.759
 5195TIP3    H115526   6.084   1.896   5.764
 5195TIP3    H215527   6.219   1.912   5.832
 5196TIP3   OH215528   0.291   2.678   1.552
 5196TIP3    H115529   0.350   2.619   1.504
 5196TIP3    H215530   0.216   2.623   1.573
 5197TIP3   OH215531   5.725   6.565   5.729
 5197TIP3    H115532   5.731   6.658   5.709
 5197TIP3    H215533   5.807   6.528   5.695
 5198TIP3   OH215534   3.236   6.188   2.468
 5198TIP3    H115535   3.240   6.095   2.448
 5198TIP3    H215536   3.294   6.229   2.404
 5199TIP3   OH215537   7.138   6.441   0.317
 5199TIP3    H115538   7.052   6.484   0.313
 5199TIP3    H215539   7.201   6.511   0.300
 5200TIP3   OH215540   4.830   4.518   1.531
 5200TIP3    H115541   4.856   4.457   1.462
 5200TIP3    H215542   4.911   4.559   1.558
 5201TIP3   OH215543   1.216   4.870   0.119
 5201TIP3    H115544   1.282   4.940   0.124
 5201TIP3    H215545   1.191   4.868   0.026
 5202TIP3   OH215546   6.538   1.740   3.434
 5202TIP3    H115547   6.509   1.803   3.499
 5202TIP3    H215548   6.506   1.655   3.467
 5203TIP3   OH215549   1.805   5.978   6.232
 5203TIP3    H115550   1.815   6.052   6.173
 5203TIP3    H215551   1.811   5.901   6.175
 5204TIP3   OH215552   6.821   1.057   0.896
 5204TIP3    H115553   6.781   1.107   0.967
 5204TIP3    H215554   6.879   1.119   0.852
 5205TIP3   OH215555   5.292   4.744   1.679
 5205TIP3    H115556   5.351   4.780   1.613
 5205TIP3    H215557   5.301   4.802   1.754
 5206TIP3   OH215558   2.552   7.304   1.570
 5206TIP3    H115559   2.555   7.307   1.474
 5206TIP3    H215560   2.582   7.391   1.597
 5207TIP3   OH215561   4.907   5.316   5.813
 5207TIP3    H115562   4.880   5.354   5.730
 5207TIP3    H215563   4.992   5.275   5.795
 5208TIP3   OH215564   0.157   5.442   5.311
 5208TIP3    H115565   0.195   5.368   5.359
 5208TIP3    H215566   0.109   5.491   5.377
 5209TIP3   OH215567   4.140   7.812   0.952
 5209TIP3    H115568   4.080   7.763   1.008
 5209TIP3    H215569   4.145   7.760   0.872
 5210TIP3   OH215570   0.326   1.106   2.933
 5210TIP3    H115571   0.378   1.150   3.001
 5210TIP3    H215572   0.296   1.177   2.877
 5211TIP3   OH215573   7.033   6.644   6.522
 5211TIP3    H115574   7.099   6.681   6.463
 5211TIP3    H215575   7.072   6.648   6.609
 5212TIP3   OH215576   1.836   3.521   1.652
 5212TIP3    H115577   1.797   3.582   1.714
 5212TIP3    H215578   1.803   3.435   1.679
 5213TIP3   OH215579   2.659   5.998   5.852
 5213TIP3    H115580   2.646   5.937   5.781
 5213TIP3    H215581   2.726   6.059   5.820
 5214TIP3   OH215582   7.309   1.256   3.495
 5214TIP3    H115583   7.359   1.282   3.573
 5214TIP3    H215584   7.265   1.174   3.521
 5215TIP3   OH215585   5.979   1.950   0.940
 5215TIP3    H115586   5.911   1.996   0.989
 5215TIP3    H215587   5.973   1.860   0.972
 5216TIP3   OH215588   5.088   0.070   3.662
 5216TIP3    H115589   5.136   0.122   3.597
 5216TIP3    H215590   5.155   0.046   3.726
 5217TIP3   OH215591   3.620   0.685   0.674
 5217TIP3    H115592   3.566   0.658   0.600
 5217TIP3    H215593   3.590   0.773   0.695
 5218TIP3   OH215594   4.684   6.243   2.307
 5218TIP3    H115595   4.745   6.232   2.380
 5218TIP3    H215596   4.718   6.318   2.259
 5219TIP3   OH215597   1.293   0.988   1.176
 5219TIP3    H115598   1.209   1.033   1.169
 5219TIP3    H215599   1.327   1.015   1.261
 5220TIP3   OH215600   6.570   2.292   4.707
 5220TIP3    H115601   6.530   2.359   4.653
 5220TIP3    H215602   6.532   2.305   4.794
 5221TIP3   OH215603   8.375   5.799   4.395
 5221TIP3    H115604   8.414   5.883   4.370
 5221TIP3    H215605   8.359   5.808   4.489
 5222TIP3   OH215606   5.731   0.070   1.466
 5222TIP3    H115607   5.649   0.052   1.510
 5222TIP3    H215608   5.710   0.067   1.373
 5223TIP3   OH215609   6.809   1.649   4.093
 5223TIP3    H115610   6.851   1.735   4.094
 5223TIP3    H215611   6.757   1.649   4.012
 5224TIP3   OH215612   3.139   0.707   4.422
 5224TIP3    H115613   3.107   0.797   4.425
 5224TIP3    H215614   3.074   0.660   4.370
 5225TIP3   OH215615   7.126   7.640   4.181
 5225TIP3    H115616   7.133   7.727   4.222
 5225TIP3    H215617   7.189   7.586   4.228
 5226TIP3   OH215618   4.054   4.421   2.656
 5226TIP3    H115619   4.146   4.416   2.630
 5226TIP3    H215620   4.056   4.418   2.752
 5227TIP3   OH215621   3.753   7.007   0.571
 5227TIP3    H115622   3.736   6.923   0.614
 5227TIP3    H215623   3.700   7.070   0.619
 5228TIP3   OH215624   4.617   0.973   5.566
 5228TIP3    H115625   4.594   0.991   5.657
 5228TIP3    H215626   4.540   0.999   5.516
 5229TIP3   OH215627   6.738   2.734   2.044
 5229TIP3    H115628   6.768   2.650   2.080
 5229TIP3    H215629   6.692   2.776   2.117
 5230TIP3   OH215630   7.930   0.573   4.405
 5230TIP3    H115631   7.970   0.603   4.487
 5230TIP3    H215632   7.949   0.643   4.342
 5231TIP3   OH215633   7.071   3.272   6.308
 5231TIP3    H115634   7.123   3.192   6.320
 5231TIP3    H215635   7.014   3.276   6.385
 5232TIP3   OH215636   1.725   2.784   6.126
 5232TIP3    H115637   1.674   2.737   6.059
 5232TIP3    H215638   1.790   2.833   6.075
 5233TIP3   OH215639   3.320   7.327   4.475
 5233TIP3    H115640   3.236   7.363   4.446
 5233TIP3    H215641   3.356   7.393   4.533
 5234TIP3   OH215642   5.260   3.131   3.524
 5234TIP3    H115643   5.299   3.152   3.439
 5234TIP3    H215644   5.179   3.181   3.527
 5235TIP3   OH215645   2.009   2.240   3.840
 5235TIP3    H115646   1.934   2.263   3.894
 5235TIP3    H215647   2.007   2.145   3.835
 5236TIP3   OH215648   3.403   4.027   2.725
 5236TIP3    H115649   3.329   3.973   2.755
 5236TIP3    H215650   3.417   3.999   2.634
 5237TIP3   OH215651   5.743   6.432   0.812
 5237TIP3    H115652   5.781   6.516   0.839
 5237TIP3    H215653   5.651   6.438   0.838
 5238TIP3   OH215654   1.431   0.672   2.065
 5238TIP3    H115655   1.379   0.638   2.138
 5238TIP3    H215656   1.376   0.661   1.988
 5239TIP3   OH215657   5.846   4.760   1.192
 5239TIP3    H115658   5.897   4.718   1.261
 5239TIP3    H215659   5.841   4.695   1.122
 5240TIP3   OH215660   4.260   4.554   3.996
 5240TIP3    H115661   4.186   4.590   4.046
 5240TIP3    H215662   4.220   4.484   3.944
 5241TIP3   OH215663   4.395   1.920   3.090
 5241TIP3    H115664   4.457   1.848   3.107
 5241TIP3    H215665   4.351   1.894   3.009
 5242TIP3   OH215666   3.250   3.275   3.518
 5242TIP3    H115667   3.314   3.209   3.541
 5242TIP3    H215668   3.300   3.344   3.474
 5243TIP3   OH215669   3.175   1.789   1.378
 5243TIP3    H115670   3.082   1.775   1.361
 5243TIP3    H215671   3.216   1.704   1.362
 5244TIP3   OH215672   1.217   5.459   3.567
 5244TIP3    H115673   1.219   5.474   3.661
 5244TIP3    H215674   1.227   5.546   3.528
 5245TIP3   OH215675   0.162   7.584   0.771
 5245TIP3    H115676   0.075   7.554   0.744
 5245TIP3    H215677   0.147   7.668   0.815
 5246TIP3   OH215678   7.422   3.296   1.850
 5246TIP3    H115679   7.493   3.240   1.881
 5246TIP3    H215680   7.387   3.250   1.774
 5247TIP3   OH215681   5.751   5.594   1.447
 5247TIP3    H115682   5.759   5.658   1.377
 5247TIP3    H215683   5.841   5.578   1.475
 5248TIP3   OH215684   2.045   5.004   2.829
 5248TIP3    H115685   2.078   4.914   2.822
 5248TIP3    H215686   1.959   5.001   2.789
 5249TIP3   OH215687   7.305   4.105   0.586
 5249TIP3    H115688   7.310   4.168   0.658
 5249TIP3    H215689   7.376   4.043   0.604
 5250TIP3   OH215690   3.668   7.193   1.731
 5250TIP3    H115691   3.579   7.156   1.733
 5250TIP3    H215692   3.674   7.244   1.811
 5251TIP3   OH215693   5.840   7.768   4.171
 5251TIP3    H115694   5.842   7.756   4.076
 5251TIP3    H215695   5.932   7.762   4.198
 5252TIP3   OH215696   5.747   1.631   2.686
 5252TIP3    H115697   5.664   1.610   2.729
 5252TIP3    H215698   5.811   1.634   2.758
 5253TIP3   OH215699   4.508   7.691   5.543
 5253TIP3    H115700   4.535   7.775   5.505
 5253TIP3    H215701   4.525   7.626   5.475
 5254TIP3   OH215702   5.305   1.291   1.572
 5254TIP3    H115703   5.232   1.353   1.574
 5254TIP3    H215704   5.371   1.329   1.630
 5255TIP3   OH215705   6.943   6.411   6.794
 5255TIP3    H115706   6.862   6.463   6.795
 5255TIP3    H215707   6.936   6.358   6.714
 5256TIP3   OH215708   8.317   0.851   5.915
 5256TIP3    H115709   8.349   0.940   5.925
 5256TIP3    H215710   8.350   0.805   5.993
 5257TIP3   OH215711   2.961   1.308   5.279
 5257TIP3    H115712   2.979   1.319   5.186
 5257TIP3    H215713   2.979   1.215   5.297
 5258TIP3   OH215714   4.285   6.888   5.517
 5258TIP3    H115715   4.314   6.903   5.427
 5258TIP3    H215716   4.224   6.815   5.511
 5259TIP3   OH215717   8.101   7.239   6.659
 5259TIP3    H115718   8.137   7.328   6.654
 5259TIP3    H215719   8.135   7.196   6.580
 5260TIP3   OH215720   2.799   3.850   6.218
 5260TIP3    H115721   2.821   3.764   6.183
 5260TIP3    H215722   2.845   3.911   6.161
 5261TIP3   OH215723   8.102   0.956   1.218
 5261TIP3    H115724   8.078   1.037   1.173
 5261TIP3    H215725   8.027   0.898   1.207
 5262TIP3   OH215726   6.374   4.269   5.676
 5262TIP3    H115727   6.430   4.318   5.736
 5262TIP3    H215728   6.436   4.216   5.625
 5263TIP3   OH215729   5.461   3.568   0.746
 5263TIP3    H115730   5.508   3.644   0.780
 5263TIP3    H215731   5.369   3.584   0.768
 5264TIP3   OH215732   8.086   2.597   2.995
 5264TIP3    H115733   8.028   2.540   2.945
 5264TIP3    H215734   8.174   2.573   2.967
 5265TIP3   OH215735   5.059   6.887   5.274
 5265TIP3    H115736   5.136   6.839   5.305
 5265TIP3    H215737   4.998   6.819   5.246
 5266TIP3   OH215738   4.312   0.892   0.213
 5266TIP3    H115739   4.332   0.958   0.280
 5266TIP3    H215740   4.397   0.862   0.182
 5267TIP3   OH215741   8.135   4.252   6.513
 5267TIP3    H115742   8.183   4.330   6.485
 5267TIP3    H215743   8.180   4.223   6.593
 5268TIP3   OH215744   0.451   3.144   2.265
 5268TIP3    H115745   0.379   3.087   2.294
 5268TIP3    H215746   0.429   3.167   2.175
 5269TIP3   OH215747   5.038   4.746   0.804
 5269TIP3    H115748   5.062   4.663   0.764
 5269TIP3    H215749   5.045   4.810   0.733
 5270TIP3   OH215750   8.282   5.055   6.067
 5270TIP3    H115751   8.220   5.063   6.140
 5270TIP3    H215752   8.228   5.062   5.988
 5271TIP3   OH215753   1.467   5.349   3.549
 5271TIP3    H115754   1.519   5.430   3.546
 5271TIP3    H215755   1.379   5.376   3.524
 5272TIP3   OH215756   7.660   4.430   3.296
 5272TIP3    H115757   7.584   4.449   3.241
 5272TIP3    H215758   7.673   4.335   3.286
 5273TIP3   OH215759   7.688   5.406   2.771
 5273TIP3    H115760   7.765   5.447   2.811
 5273TIP3    H215761   7.642   5.365   2.844
 5274TIP3   OH215762   2.357   6.397   5.475
 5274TIP3    H115763   2.329   6.444   5.396
 5274TIP3    H215764   2.360   6.464   5.543
 5275TIP3   OH215765   4.624   1.531   6.425
 5275TIP3    H115766   4.684   1.459   6.445
 5275TIP3    H215767   4.638   1.550   6.333
 5276TIP3   OH215768   0.891   3.699   6.202
 5276TIP3    H115769   0.806   3.657   6.211
 5276TIP3    H215770   0.886   3.747   6.119
 5277TIP3   OH215771   7.501   3.537   6.291
 5277TIP3    H115772   7.534   3.618   6.253
 5277TIP3    H215773   7.572   3.474   6.278
 5278TIP3   OH215774   8.132   3.033   2.705
 5278TIP3    H115775   8.134   3.108   2.764
 5278TIP3    H215776   8.080   2.967   2.751
 5279TIP3   OH215777   4.611   4.929   1.281
 5279TIP3    H115778   4.576   4.921   1.192
 5279TIP3    H215779   4.618   4.838   1.312
 5280TIP3   OH215780   7.197   6.599   5.004
 5280TIP3    H115781   7.291   6.578   5.002
 5280TIP3    H215782   7.154   6.514   4.993
 5281TIP3   OH215783   7.052   5.255   6.758
 5281TIP3    H115784   7.125   5.269   6.697
 5281TIP3    H215785   6.987   5.206   6.707
 5282TIP3   OH215786   5.279   5.497   6.482
 5282TIP3    H115787   5.251   5.475   6.393
 5282TIP3    H215788   5.243   5.584   6.498
 5283TIP3   OH215789   5.276   7.101   6.206
 5283TIP3    H115790   5.369   7.119   6.215
 5283TIP3    H215791   5.247   7.081   6.295
 5284TIP3   OH215792   2.262   7.775   0.012
 5284TIP3    H115793   2.348   7.817   0.021
 5284TIP3    H215794   2.205   7.824   0.071
 5285TIP3   OH215795   2.803   1.845   2.441
 5285TIP3    H115796   2.820   1.938   2.423
 5285TIP3    H215797   2.750   1.846   2.521
 5286TIP3   OH215798   0.654   1.973   2.398
 5286TIP3    H115799   0.719   1.906   2.375
 5286TIP3    H215800   0.702   2.055   2.396
 5287TIP3   OH215801   7.590   0.652   4.527
 5287TIP3    H115802   7.530   0.625   4.596
 5287TIP3    H215803   7.652   0.711   4.571
 5288TIP3   OH215804   6.089   2.673   1.827
 5288TIP3    H115805   6.031   2.601   1.803
 5288TIP3    H215806   6.156   2.675   1.758
 5289TIP3   OH215807   6.167   3.626   6.136
 5289TIP3    H115808   6.186   3.716   6.111
 5289TIP3    H215809   6.100   3.597   6.075
 5290TIP3   OH215810   2.363   2.680   6.124
 5290TIP3    H115811   2.457   2.686   6.141
 5290TIP3    H215812   2.351   2.595   6.082
 5291TIP3   OH215813   7.671   3.465   1.149
 5291TIP3    H115814   7.696   3.545   1.195
 5291TIP3    H215815   7.748   3.443   1.096
 5292TIP3   OH215816   7.953   5.080   1.192
 5292TIP3    H115817   7.878   5.022   1.200
 5292TIP3    H215818   7.921   5.155   1.142
 5293TIP3   OH215819   7.842   2.511   3.279
 5293TIP3    H115820   7.821   2.579   3.215
 5293TIP3    H215821   7.805   2.431   3.243
 5294TIP3   OH215822   1.276   7.513   4.496
 5294TIP3    H115823   1.221   7.499   4.420
 5294TIP3    H215824   1.320   7.429   4.510
 5295TIP3   OH215825   4.540   5.900   2.028
 5295TIP3    H115826   4.608   5.833   2.017
 5295TIP3    H215827   4.554   5.933   2.117
 5296TIP3   OH215828   3.172   7.557   6.024
 5296TIP3    H115829   3.252   7.530   6.068
 5296TIP3    H215830   3.135   7.625   6.080
 5297TIP3   OH215831   5.197   1.631   4.242
 5297TIP3    H115832   5.231   1.660   4.327
 5297TIP3    H215833   5.245   1.551   4.223
 5298TIP3   OH215834   3.129   2.024   6.339
 5298TIP3    H115835   3.038   2.027   6.310
 5298TIP3    H215836   3.165   1.945   6.299
 5299TIP3   OH215837   4.176   1.227   1.949
 5299TIP3    H115838   4.161   1.298   1.886
 5299TIP3    H215839   4.204   1.153   1.895
 5300TIP3   OH215840   5.761   6.065   2.200
 5300TIP3    H115841   5.845   6.110   2.208
 5300TIP3    H215842   5.701   6.119   2.252
 5301TIP3   OH215843   0.756   0.793   1.147
 5301TIP3    H115844   0.661   0.805   1.141
 5301TIP3    H215845   0.792   0.842   1.074
 5302TIP3   OH215846   4.090   5.053   3.104
 5302TIP3    H115847   4.066   4.999   3.179
 5302TIP3    H215848   4.169   5.099   3.131
 5303TIP3   OH215849   6.028   6.461   3.834
 5303TIP3    H115850   5.936   6.435   3.834
 5303TIP3    H215851   6.026   6.556   3.833
 5304TIP3   OH215852   3.199   5.896   5.547
 5304TIP3    H115853   3.237   5.950   5.478
 5304TIP3    H215854   3.238   5.929   5.628
 5305TIP3   OH215855   8.227   3.698   4.830
 5305TIP3    H115856   8.220   3.793   4.834
 5305TIP3    H215857   8.317   3.679   4.855
 5306TIP3   OH215858   2.672   5.530   5.005
 5306TIP3    H115859   2.686   5.435   5.005
 5306TIP3    H215860   2.619   5.546   5.083
 5307TIP3   OH215861   2.993   0.332   2.242
 5307TIP3    H115862   2.996   0.427   2.230
 5307TIP3    H215863   2.991   0.296   2.154
 5308TIP3   OH215864   0.099   4.591   0.304
 5308TIP3    H115865   0.105   4.599   0.209
 5308TIP3    H215866   0.006   4.580   0.322
 5309TIP3   OH215867   0.748   7.050   2.634
 5309TIP3    H115868   0.669   7.032   2.684
 5309TIP3    H215869   0.739   6.996   2.555
 5310TIP3   OH215870   7.772   3.830   5.208
 5310TIP3    H115871   7.760   3.835   5.113
 5310TIP3    H215872   7.685   3.845   5.244
 5311TIP3   OH215873   5.233   4.104   4.799
 5311TIP3    H115874   5.287   4.183   4.805
 5311TIP3    H215875   5.194   4.094   4.885
 5312TIP3   OH215876   0.856   5.387   0.653
 5312TIP3    H115877   0.771   5.344   0.664
 5312TIP3    H215878   0.854   5.421   0.564
 5313TIP3   OH215879   6.817   3.689   6.651
 5313TIP3    H115880   6.804   3.596   6.636
 5313TIP3    H215881   6.802   3.700   6.745
 5314TIP3   OH215882   0.193   0.577   0.241
 5314TIP3    H115883   0.287   0.567   0.253
 5314TIP3    H215884   0.180   0.672   0.235
 5315TIP3   OH215885   0.378   0.495   0.659
 5315TIP3    H115886   0.374   0.535   0.572
 5315TIP3    H215887   0.311   0.540   0.710
 5316TIP3   OH215888   2.723   1.569   2.491
 5316TIP3    H115889   2.754   1.659   2.483
 5316TIP3    H215890   2.643   1.566   2.437
 5317TIP3   OH215891   3.605   0.310   6.093
 5317TIP3    H115892   3.643   0.359   6.020
 5317TIP3    H215893   3.672   0.312   6.161
 5318TIP3   OH215894   4.667   3.197   0.266
 5318TIP3    H115895   4.743   3.234   0.310
 5318TIP3    H215896   4.591   3.232   0.313
 5319TIP3   OH215897   7.913   3.209   6.687
 5319TIP3    H115898   7.965   3.286   6.661
 5319TIP3    H215899   7.835   3.246   6.729
 5320TIP3   OH215900   3.796   0.110   2.145
 5320TIP3    H115901   3.703   0.129   2.158
 5320TIP3    H215902   3.799   0.015   2.135
 5321TIP3   OH215903   1.611   5.017   0.434
 5321TIP3    H115904   1.679   5.050   0.376
 5321TIP3    H215905   1.579   4.938   0.392
 5322TIP3   OH215906   7.185   3.568   4.082
 5322TIP3    H115907   7.108   3.604   4.125
 5322TIP3    H215908   7.186   3.476   4.107
 5323TIP3   OH215909   8.297   2.098   0.259
 5323TIP3    H115910   8.392   2.105   0.254
 5323TIP3    H215911   8.266   2.131   0.175
 5324TIP3   OH215912   4.494   6.932   6.288
 5324TIP3    H115913   4.435   6.901   6.358
 5324TIP3    H215914   4.443   6.998   6.241
 5325TIP3   OH215915   1.328   7.846   3.369
 5325TIP3    H115916   1.331   7.794   3.449
 5325TIP3    H215917   1.241   7.830   3.333
 5326TIP3   OH215918   8.217   6.379   5.387
 5326TIP3    H115919   8.179   6.291   5.395
 5326TIP3    H215920   8.165   6.421   5.319
 5327TIP3   OH215921   0.611   5.360   5.681
 5327TIP3    H115922   0.553   5.292   5.648
 5327TIP3    H215923   0.575   5.442   5.647
 5328TIP3   OH215924   6.200   7.362   3.745
 5328TIP3    H115925   6.268   7.314   3.700
 5328TIP3    H215926   6.163   7.300   3.808
 5329TIP3   OH215927   2.149   5.004   1.874
 5329TIP3    H115928   2.121   5.071   1.936
 5329TIP3    H215929   2.069   4.982   1.825
 5330TIP3   OH215930   8.188   0.835   0.518
 5330TIP3    H115931   8.107   0.814   0.470
 5330TIP3    H215932   8.158   0.860   0.605
 5331TIP3   OH215933   6.366   0.965   6.844
 5331TIP3    H115934   6.291   1.024   6.840
 5331TIP3    H215935   6.401   0.965   6.755
 5332TIP3   OH215936   7.245   5.298   4.685
 5332TIP3    H115937   7.289   5.373   4.726
 5332TIP3    H215938   7.288   5.221   4.723
 5333TIP3   OH215939   1.480   1.566   4.721
 5333TIP3    H115940   1.522   1.581   4.636
 5333TIP3    H215941   1.388   1.551   4.699
 5334TIP3   OH215942   1.358   0.663   0.417
 5334TIP3    H115943   1.450   0.687   0.406
 5334TIP3    H215944   1.309   0.739   0.386
 5335TIP3   OH215945   1.620   4.487   5.763
 5335TIP3    H115946   1.552   4.547   5.733
 5335TIP3    H215947   1.583   4.445   5.840
 5336TIP3   OH215948   1.786   6.125   2.045
 5336TIP3    H115949   1.693   6.150   2.041
 5336TIP3    H215950   1.831   6.192   1.994
 5337TIP3   OH215951   4.524   7.600   4.924
 5337TIP3    H115952   4.575   7.530   4.962
 5337TIP3    H215953   4.433   7.572   4.934
 5338TIP3   OH215954   2.921   0.645   1.214
 5338TIP3    H115955   2.851   0.600   1.166
 5338TIP3    H215956   2.875   0.699   1.279
 5339TIP3   OH215957  -0.033   1.291   3.719
 5339TIP3    H115958  -0.042   1.210   3.669
 5339TIP3    H215959   0.060   1.296   3.740
 5340TIP3   OH215960   4.091   3.864   1.520
 5340TIP3    H115961   4.035   3.941   1.532
 5340TIP3    H215962   4.105   3.830   1.609
 5341TIP3   OH215963   7.354   3.495   5.058
 5341TIP3    H115964   7.440   3.507   5.099
 5341TIP3    H215965   7.359   3.545   4.977
 5342TIP3   OH215966   5.257   7.602   3.176
 5342TIP3    H115967   5.202   7.640   3.107
 5342TIP3    H215968   5.197   7.549   3.228
 5343TIP3   OH215969   5.133   0.507   4.617
 5343TIP3    H115970   5.124   0.484   4.710
 5343TIP3    H215971   5.184   0.435   4.581
 5344TIP3   OH215972   5.761   3.340   2.913
 5344TIP3    H115973   5.787   3.385   2.993
 5344TIP3    H215974   5.757   3.408   2.846
 5345TIP3   OH215975   0.809   1.402   4.917
 5345TIP3    H115976   0.769   1.487   4.929
 5345TIP3    H215977   0.865   1.413   4.839
 5346TIP3   OH215978   5.515   7.529   3.092
 5346TIP3    H115979   5.433   7.560   3.132
 5346TIP3    H215980   5.572   7.605   3.092
 5347TIP3   OH215981   0.395   3.789   5.016
 5347TIP3    H115982   0.436   3.845   4.950
 5347TIP3    H215983   0.301   3.804   5.006
 5348TIP3   OH215984   2.810   6.811   0.052
 5348TIP3    H115985   2.753   6.884   0.030
 5348TIP3    H215986   2.812   6.757  -0.027
 5349TIP3   OH215987   7.624   5.553   3.322
 5349TIP3    H115988   7.529   5.561   3.310
 5349TIP3    H215989   7.642   5.599   3.404
 5350TIP3   OH215990   5.000   3.852   6.278
 5350TIP3    H115991   5.018   3.865   6.372
 5350TIP3    H215992   5.053   3.776   6.255
 5351TIP3   OH215993   4.214   3.561   2.704
 5351TIP3    H115994   4.306   3.533   2.702
 5351TIP3    H215995   4.192   3.566   2.797
 5352TIP3   OH215996   6.131   3.322   5.926
 5352TIP3    H115997   6.126   3.271   5.845
 5352TIP3    H215998   6.065   3.390   5.915
 5353TIP3   OH215999   1.874   2.718   2.022
 5353TIP3    H116000   1.832   2.716   2.108
 5353TIP3    H216001   1.959   2.760   2.037
 5354TIP3   OH216002   5.897   6.597   2.364
 5354TIP3    H116003   5.825   6.595   2.428
 5354TIP3    H216004   5.907   6.690   2.342
 5355TIP3   OH216005   6.187   2.836   6.380
 5355TIP3    H116006   6.221   2.748   6.397
 5355TIP3    H216007   6.093   2.823   6.367
 5356TIP3   OH216008   2.473   3.806   0.615
 5356TIP3    H116009   2.459   3.714   0.595
 5356TIP3    H216010   2.423   3.821   0.695
 5357TIP3   OH216011   7.222   7.048   4.417
 5357TIP3    H116012   7.236   7.001   4.500
 5357TIP3    H216013   7.127   7.045   4.405
 5358TIP3   OH216014   4.934   2.109   2.448
 5358TIP3    H116015   5.010   2.143   2.401
 5358TIP3    H216016   4.859   2.137   2.397
 5359TIP3   OH216017   3.049   3.024   0.110
 5359TIP3    H116018   3.027   2.982   0.194
 5359TIP3    H216019   2.964   3.036   0.067
 5360TIP3   OH216020   2.917   4.284   0.819
 5360TIP3    H116021   2.869   4.360   0.787
 5360TIP3    H216022   3.005   4.317   0.836
 5361TIP3   OH216023   3.312   0.013   3.258
 5361TIP3    H116024   3.346  -0.050   3.195
 5361TIP3    H216025   3.303   0.094   3.208
 5362TIP3   OH216026   5.261   4.558   4.089
 5362TIP3    H116027   5.346   4.544   4.131
 5362TIP3    H216028   5.273   4.526   3.999
 5363TIP3   OH216029   8.337   7.738   5.916
 5363TIP3    H116030   8.338   7.790   5.835
 5363TIP3    H216031   8.246   7.744   5.946
 5364TIP3   OH216032   1.536   0.374   1.103
 5364TIP3    H116033   1.528   0.425   1.184
 5364TIP3    H216034   1.597   0.424   1.050
 5365TIP3   OH216035   5.352   4.639   6.217
 5365TIP3    H116036   5.438   4.625   6.179
 5365TIP3    H216037   5.333   4.559   6.265
 5366TIP3   OH216038   2.271   4.185   0.879
 5366TIP3    H116039   2.323   4.113   0.911
 5366TIP3    H216040   2.180   4.158   0.894
 5367TIP3   OH216041   7.913   1.155   2.041
 5367TIP3    H116042   7.848   1.099   1.998
 5367TIP3    H216043   7.894   1.146   2.134
 5368TIP3   OH216044   5.797   4.133   2.363
 5368TIP3    H116045   5.849   4.091   2.432
 5368TIP3    H216046   5.827   4.093   2.282
 5369TIP3   OH216047   1.251   5.569   3.849
 5369TIP3    H116048   1.220   5.499   3.907
 5369TIP3    H216049   1.327   5.605   3.894
 5370TIP3   OH216050   5.321   1.923   3.546
 5370TIP3    H116051   5.245   1.918   3.603
 5370TIP3    H216052   5.385   1.975   3.595
 5371TIP3   OH216053   4.156   4.307   1.323
 5371TIP3    H116054   4.247   4.288   1.298
 5371TIP3    H216055   4.153   4.401   1.335
 5372TIP3   OH216056   4.397   5.038   3.440
 5372TIP3    H116057   4.323   4.987   3.472
 5372TIP3    H216058   4.366   5.074   3.357
 5373TIP3   OH216059   1.167   3.954   2.912
 5373TIP3    H116060   1.233   3.913   2.856
 5373TIP3    H216061   1.086   3.907   2.891
 5374TIP3   OH216062   2.166   3.880   5.547
 5374TIP3    H116063   2.124   3.871   5.632
 5374TIP3    H216064   2.180   3.974   5.537
 5375TIP3   OH216065   4.841   2.584   1.452
 5375TIP3    H116066   4.877   2.519   1.391
 5375TIP3    H216067   4.836   2.664   1.400
 5376TIP3   OH216068   2.856   0.575   4.756
 5376TIP3    H116069   2.923   0.635   4.724
 5376TIP3    H216070   2.797   0.631   4.806
 5377TIP3   OH216071   5.492   6.309   6.429
 5377TIP3    H116072   5.508   6.366   6.354
 5377TIP3    H216073   5.579   6.283   6.459
 5378TIP3   OH216074   2.702   7.499   4.037
 5378TIP3    H116075   2.659   7.422   4.000
 5378TIP3    H216076   2.779   7.513   3.982
 5379TIP3   OH216077   5.485   0.589   5.198
 5379TIP3    H116078   5.479   0.573   5.103
 5379TIP3    H216079   5.467   0.682   5.207
 5380TIP3   OH216080   3.395   6.888   3.586
 5380TIP3    H116081   3.466   6.932   3.539
 5380TIP3    H216082   3.399   6.925   3.674
 5381TIP3   OH216083   7.226   6.742   4.539
 5381TIP3    H116084   7.297   6.679   4.546
 5381TIP3    H216085   7.194   6.734   4.449
 5382TIP3   OH216086   1.054   7.835   3.556
 5382TIP3    H116087   1.052   7.807   3.464
 5382TIP3    H216088   1.140   7.805   3.588
 5383TIP3   OH216089   5.368   2.493   6.619
 5383TIP3    H116090   5.416   2.472   6.539
 5383TIP3    H216091   5.310   2.565   6.595
 5384TIP3   OH216092   5.382   2.072   1.557
 5384TIP3    H116093   5.439   2.136   1.600
 5384TIP3    H216094   5.300   2.078   1.606
 5385TIP3   OH216095   1.483   3.795   3.736
 5385TIP3    H116096   1.416   3.744   3.780
 5385TIP3    H216097   1.514   3.739   3.666
 5386TIP3   OH216098   2.948   3.124   0.994
 5386TIP3    H116099   3.008   3.103   1.066
 5386TIP3    H216100   2.981   3.206   0.959
 5387TIP3   OH216101   3.360   4.976   2.557
 5387TIP3    H116102   3.436   4.936   2.599
 5387TIP3    H216103   3.396   5.021   2.481
 5388TIP3   OH216104   5.989   6.992   4.785
 5388TIP3    H116105   5.970   7.028   4.698
 5388TIP3    H216106   5.905   6.991   4.830
 5389TIP3   OH216107   6.640   1.261   0.656
 5389TIP3    H116108   6.574   1.261   0.587
 5389TIP3    H216109   6.671   1.351   0.659
 5390TIP3   OH216110   6.642   0.648   1.644
 5390TIP3    H116111   6.608   0.608   1.564
 5390TIP3    H216112   6.582   0.619   1.713
 5391TIP3   OH216113   2.593   5.267   4.992
 5391TIP3    H116114   2.542   5.223   5.060
 5391TIP3    H216115   2.538   5.263   4.914
 5392TIP3   OH216116   6.677   7.401   5.764
 5392TIP3    H116117   6.635   7.393   5.679
 5392TIP3    H216118   6.639   7.480   5.803
 5393TIP3   OH216119   3.567   0.968   6.701
 5393TIP3    H116120   3.632   1.000   6.639
 5393TIP3    H216121   3.537   1.046   6.747
 5394TIP3   OH216122   6.249   4.189   5.338
 5394TIP3    H116123   6.232   4.145   5.255
 5394TIP3    H216124   6.239   4.282   5.317
 5395TIP3   OH216125   0.894   4.098   0.753
 5395TIP3    H116126   0.825   4.133   0.808
 5395TIP3    H216127   0.952   4.173   0.736
 5396TIP3   OH216128   2.181   2.207   1.711
 5396TIP3    H116129   2.096   2.197   1.753
 5396TIP3    H216130   2.205   2.118   1.684
 5397TIP3   OH216131   2.462   2.290   2.579
 5397TIP3    H116132   2.417   2.280   2.662
 5397TIP3    H216133   2.412   2.235   2.518
 5398TIP3   OH216134   6.083   0.074   0.123
 5398TIP3    H116135   6.008   0.131   0.142
 5398TIP3    H216136   6.154   0.135   0.102
 5399TIP3   OH216137   7.015   5.362   2.579
 5399TIP3    H116138   7.107   5.385   2.562
 5399TIP3    H216139   7.016   5.327   2.668
 5400TIP3   OH216140   2.377   5.211   2.812
 5400TIP3    H116141   2.324   5.286   2.783
 5400TIP3    H216142   2.455   5.215   2.756
 5401TIP3   OH216143   6.567   2.821   6.350
 5401TIP3    H116144   6.524   2.901   6.321
 5401TIP3    H216145   6.656   2.848   6.371
 5402TIP3   OH216146   5.631   3.265   1.307
 5402TIP3    H116147   5.643   3.208   1.383
 5402TIP3    H216148   5.692   3.230   1.241
 5403TIP3   OH216149   5.802   2.404   1.516
 5403TIP3    H116150   5.797   2.436   1.606
 5403TIP3    H216151   5.807   2.308   1.525
 5404TIP3   OH216152   2.097   2.690   2.769
 5404TIP3    H116153   2.174   2.728   2.728
 5404TIP3    H216154   2.117   2.596   2.775
 5405TIP3   OH216155   0.676   0.703   5.311
 5405TIP3    H116156   0.756   0.657   5.285
 5405TIP3    H216157   0.609   0.667   5.253
 5406TIP3   OH216158   5.793   0.092   4.861
 5406TIP3    H116159   5.735   0.074   4.935
 5406TIP3    H216160   5.737   0.082   4.783
 5407TIP3   OH216161   1.770   7.027   4.262
 5407TIP3    H116162   1.774   6.942   4.218
 5407TIP3    H216163   1.828   7.016   4.338
 5408TIP3   OH216164   2.372   0.776   2.753
 5408TIP3    H116165   2.405   0.715   2.687
 5408TIP3    H216166   2.279   0.756   2.759
 5409TIP3   OH216167   0.034   5.912   6.496
 5409TIP3    H116168   0.049   6.006   6.485
 5409TIP3    H216169  -0.042   5.907   6.554
 5410TIP3   OH216170   4.536   4.927   2.636
 5410TIP3    H116171   4.598   4.862   2.603
 5410TIP3    H216172   4.462   4.922   2.575
 5411TIP3   OH216173   4.826   1.906   5.216
 5411TIP3    H116174   4.792   1.851   5.145
 5411TIP3    H216175   4.861   1.844   5.280
 5412TIP3   OH216176   1.613   3.884   0.754
 5412TIP3    H116177   1.628   3.921   0.841
 5412TIP3    H216178   1.525   3.913   0.731
 5413TIP3   OH216179   4.286   7.091   4.750
 5413TIP3    H116180   4.205   7.041   4.762
 5413TIP3    H216181   4.260   7.164   4.693
 5414TIP3   OH216182   2.617   2.704   5.286
 5414TIP3    H116183   2.556   2.635   5.262
 5414TIP3    H216184   2.647   2.680   5.374
 5415TIP3   OH216185   1.979   2.690   0.452
 5415TIP3    H116186   1.947   2.775   0.483
 5415TIP3    H216187   2.062   2.711   0.408
 5416TIP3   OH216188   4.978   0.019   1.042
 5416TIP3    H116189   4.989  -0.074   1.058
 5416TIP3    H216190   4.964   0.026   0.947
 5417TIP3   OH216191   2.037   2.921   3.656
 5417TIP3    H116192   2.087   2.989   3.701
 5417TIP3    H216193   2.096   2.886   3.589
 5418TIP3   OH216194   3.352   6.637   5.366
 5418TIP3    H116195   3.279   6.661   5.308
 5418TIP3    H216196   3.421   6.609   5.306
 5419TIP3   OH216197   1.567   1.422   2.630
 5419TIP3    H116198   1.476   1.434   2.660
 5419TIP3    H216199   1.581   1.492   2.566
 5420TIP3   OH216200   6.570   5.457   2.883
 5420TIP3    H116201   6.555   5.541   2.841
 5420TIP3    H216202   6.502   5.450   2.950
 5421TIP3   OH216203   1.738   5.800   5.235
 5421TIP3    H116204   1.825   5.829   5.262
 5421TIP3    H216205   1.690   5.881   5.219
 5422TIP3   OH216206   1.913   0.011   0.812
 5422TIP3    H116207   2.008   0.014   0.824
 5422TIP3    H216208   1.890   0.100   0.784
 5423TIP3   OH216209   3.303   6.067   6.074
 5423TIP3    H116210   3.348   6.045   6.156
 5423TIP3    H216211   3.229   6.121   6.101
 5424TIP3   OH216212   8.066   7.342   3.031
 5424TIP3    H116213   8.062   7.392   2.950
 5424TIP3    H216214   7.978   7.346   3.067
 5425TIP3   OH216215   2.193   4.365   3.056
 5425TIP3    H116216   2.135   4.359   3.132
 5425TIP3    H216217   2.242   4.446   3.069
 5426TIP3   OH216218   4.464   3.626   5.949
 5426TIP3    H116219   4.478   3.655   5.859
 5426TIP3    H216220   4.376   3.589   5.949
 5427TIP3   OH216221   5.228   0.371   5.537
 5427TIP3    H116222   5.202   0.280   5.518
 5427TIP3    H216223   5.233   0.413   5.452
 5428TIP3   OH216224   0.079   3.745   3.266
 5428TIP3    H116225   0.078   3.658   3.306
 5428TIP3    H216226   0.122   3.732   3.181
 5429TIP3   OH216227   5.701   7.771   4.926
 5429TIP3    H116228   5.667   7.683   4.910
 5429TIP3    H216229   5.756   7.790   4.850
 5430TIP3   OH216230   8.153   5.517   2.549
 5430TIP3    H116231   8.059   5.513   2.531
 5430TIP3    H216232   8.171   5.610   2.562
 5431TIP3   OH216233   4.538   7.141   0.463
 5431TIP3    H116234   4.619   7.146   0.412
 5431TIP3    H216235   4.511   7.050   0.457
 5432TIP3   OH216236   3.006   2.176   3.098
 5432TIP3    H116237   2.923   2.149   3.137
 5432TIP3    H216238   3.017   2.267   3.126
 5433TIP3   OH216239   5.813   7.824   2.155
 5433TIP3    H116240   5.785   7.772   2.080
 5433TIP3    H216241   5.817   7.762   2.227
 5434TIP3   OH216242   5.514   4.083   6.122
 5434TIP3    H116243   5.576   4.110   6.190
 5434TIP3    H216244   5.545   4.126   6.043
 5435TIP3   OH216245   2.798   4.017   5.567
 5435TIP3    H116246   2.753   3.937   5.541
 5435TIP3    H216247   2.733   4.066   5.618
 5436TIP3   OH216248   7.286   0.277   2.557
 5436TIP3    H116249   7.260   0.187   2.536
 5436TIP3    H216250   7.380   0.280   2.535
 5437TIP3   OH216251   4.368   5.136   1.372
 5437TIP3    H116252   4.449   5.186   1.381
 5437TIP3    H216253   4.390   5.049   1.405
 5438TIP3   OH216254   7.316   5.857   3.421
 5438TIP3    H116255   7.337   5.932   3.366
 5438TIP3    H216256   7.257   5.892   3.488
 5439TIP3   OH216257   3.727   2.681   5.695
 5439TIP3    H116258   3.659   2.697   5.759
 5439TIP3    H216259   3.695   2.607   5.644
 5440TIP3   OH216260   5.535   7.504   5.698
 5440TIP3    H116261   5.501   7.415   5.705
 5440TIP3    H216262   5.560   7.514   5.606
 5441TIP3   OH216263   3.908   3.689   6.646
 5441TIP3    H116264   3.881   3.755   6.710
 5441TIP3    H216265   3.989   3.723   6.608
 5442TIP3   OH216266   8.313   5.914   1.429
 5442TIP3    H116267   8.259   5.848   1.387
 5442TIP3    H216268   8.321   5.984   1.363
 5443TIP3   OH216269   7.841   6.570   5.833
 5443TIP3    H116270   7.880   6.644   5.786
 5443TIP3    H216271   7.855   6.495   5.775
 5444TIP3   OH216272   7.915   7.954   1.312
 5444TIP3    H116273   7.830   7.996   1.296
 5444TIP3    H216274   7.949   7.997   1.390
 5445TIP3   OH216275   3.624   7.544   4.099
 5445TIP3    H116276   3.584   7.598   4.032
 5445TIP3    H216277   3.632   7.457   4.059
 5446TIP3   OH216278   6.368   1.931   3.293
 5446TIP3    H116279   6.364   1.977   3.377
 5446TIP3    H216280   6.364   1.839   3.316
 5447TIP3   OH216281   0.311   7.311   4.290
 5447TIP3    H116282   0.312   7.297   4.385
 5447TIP3    H216283   0.403   7.308   4.264
 5448TIP3   OH216284   5.231   6.144   0.141
 5448TIP3    H116285   5.181   6.172   0.217
 5448TIP3    H216286   5.166   6.130   0.072
 5449TIP3   OH216287   5.917   5.156   1.535
 5449TIP3    H116288   5.958   5.099   1.470
 5449TIP3    H216289   5.969   5.236   1.533
 5450TIP3   OH216290   1.470   5.592   2.398
 5450TIP3    H116291   1.564   5.594   2.418
 5450TIP3    H216292   1.466   5.592   2.302
 5451TIP3   OH216293   2.731   0.630   2.998
 5451TIP3    H116294   2.762   0.698   2.938
 5451TIP3    H216295   2.636   0.638   2.996
 5452TIP3   OH216296   5.089   0.182   2.388
 5452TIP3    H116297   5.141   0.173   2.307
 5452TIP3    H216298   5.142   0.239   2.444
 5453TIP3   OH216299   6.104   4.994   3.188
 5453TIP3    H116300   6.043   4.921   3.200
 5453TIP3    H216301   6.183   4.968   3.237
 5454TIP3   OH216302   5.574   4.955   0.830
 5454TIP3    H116303   5.570   5.041   0.787
 5454TIP3    H216304   5.522   4.898   0.774
 5455TIP3   OH216305   3.066   1.389   2.906
 5455TIP3    H116306   3.020   1.405   2.824
 5455TIP3    H216307   3.003   1.411   2.975
 5456TIP3   OH216308   6.665   6.791   0.752
 5456TIP3    H116309   6.635   6.872   0.793
 5456TIP3    H216310   6.756   6.809   0.727
 5457TIP3   OH216311   4.773   5.954   0.680
 5457TIP3    H116312   4.768   5.866   0.716
 5457TIP3    H216313   4.720   6.008   0.740
 5458TIP3   OH216314   7.026   0.884   2.830
 5458TIP3    H116315   6.988   0.804   2.795
 5458TIP3    H216316   6.981   0.897   2.914
 5459TIP3   OH216317   5.158   5.379   3.817
 5459TIP3    H116318   5.105   5.300   3.811
 5459TIP3    H216319   5.094   5.450   3.816
 5460TIP3   OH216320   2.086   0.374   4.729
 5460TIP3    H116321   2.176   0.344   4.728
 5460TIP3    H216322   2.084   0.449   4.669
 5461TIP3   OH216323   7.977   7.899   4.363
 5461TIP3    H116324   8.026   7.903   4.445
 5461TIP3    H216325   7.914   7.828   4.376
 5462TIP3   OH216326   5.081   2.301   4.153
 5462TIP3    H116327   5.099   2.335   4.066
 5462TIP3    H216328   5.136   2.353   4.211
 5463TIP3   OH216329   7.826   5.346   2.149
 5463TIP3    H116330   7.891   5.277   2.162
 5463TIP3    H216331   7.743   5.300   2.142
 5464TIP3   OH216332   8.013   6.341   2.568
 5464TIP3    H116333   8.034   6.431   2.594
 5464TIP3    H216334   8.009   6.344   2.472
 5465TIP3   OH216335   0.571   5.343   3.410
 5465TIP3    H116336   0.522   5.423   3.430
 5465TIP3    H216337   0.565   5.291   3.490
 5466TIP3   OH216338   0.789   0.114   5.344
 5466TIP3    H116339   0.840   0.173   5.288
 5466TIP3    H216340   0.778   0.035   5.290
 5467TIP3   OH216341   8.243   7.732   3.879
 5467TIP3    H116342   8.188   7.765   3.950
 5467TIP3    H216343   8.313   7.685   3.924
 5468TIP3   OH216344   7.667   5.297   3.215
 5468TIP3    H116345   7.740   5.260   3.264
 5468TIP3    H216346   7.651   5.382   3.256
 5469TIP3   OH216347   4.717   1.413   3.799
 5469TIP3    H116348   4.674   1.485   3.846
 5469TIP3    H216349   4.767   1.367   3.867
 5470TIP3   OH216350   6.895   0.655   0.563
 5470TIP3    H116351   6.806   0.657   0.530
 5470TIP3    H216352   6.944   0.711   0.502
 5471TIP3   OH216353   4.131   5.370   6.104
 5471TIP3    H116354   4.054   5.367   6.160
 5471TIP3    H216355   4.149   5.278   6.083
 5472TIP3   OH216356   2.728   2.585   3.878
 5472TIP3    H116357   2.747   2.648   3.947
 5472TIP3    H216358   2.690   2.636   3.807
 5473TIP3   OH216359   5.615   1.341   3.073
 5473TIP3    H116360   5.592   1.421   3.121
 5473TIP3    H216361   5.703   1.356   3.041
 5474TIP3   OH216362   6.057   2.836   0.324
 5474TIP3    H116363   6.106   2.893   0.265
 5474TIP3    H216364   5.980   2.887   0.348
 5475TIP3   OH216365   1.168   4.916   1.805
 5475TIP3    H116366   1.181   4.842   1.746
 5475TIP3    H216367   1.074   4.916   1.823
 5476TIP3   OH216368   7.744   1.841   6.348
 5476TIP3    H116369   7.802   1.873   6.279
 5476TIP3    H216370   7.749   1.906   6.417
 5477TIP3   OH216371   3.336   5.364   1.645
 5477TIP3    H116372   3.318   5.306   1.571
 5477TIP3    H216373   3.272   5.340   1.711
 5478TIP3   OH216374   1.450   4.961   2.623
 5478TIP3    H116375   1.379   4.920   2.673
 5478TIP3    H216376   1.423   5.053   2.615
 5479TIP3   OH216377   1.453   4.725   4.631
 5479TIP3    H116378   1.541   4.719   4.667
 5479TIP3    H216379   1.464   4.722   4.536
 5480TIP3   OH216380   5.682   2.057   3.042
 5480TIP3    H116381   5.606   2.002   3.060
 5480TIP3    H216382   5.756   1.997   3.044
 5481TIP3   OH216383   7.037   1.951   4.394
 5481TIP3    H116384   6.983   2.003   4.453
 5481TIP3    H216385   7.057   1.872   4.443
 5482TIP3   OH216386   5.268   7.760   0.835
 5482TIP3    H116387   5.237   7.848   0.855
 5482TIP3    H216388   5.245   7.747   0.743
 5483TIP3   OH216389   4.446   6.916   6.561
 5483TIP3    H116390   4.449   7.012   6.561
 5483TIP3    H216391   4.451   6.892   6.653
 5484TIP3   OH216392   2.015   6.882   2.095
 5484TIP3    H116393   2.085   6.855   2.154
 5484TIP3    H216394   2.028   6.976   2.082
 5485TIP3   OH216395   4.645   5.431   1.678
 5485TIP3    H116396   4.634   5.474   1.763
 5485TIP3    H216397   4.697   5.353   1.698
 5486TIP3   OH216398   2.078   0.756   2.131
 5486TIP3    H116399   2.033   0.697   2.070
 5486TIP3    H216400   2.151   0.791   2.081
 5487TIP3   OH216401   1.218   7.618   6.804
 5487TIP3    H116402   1.127   7.626   6.831
 5487TIP3    H216403   1.265   7.682   6.859
 5488TIP3   OH216404   7.114   3.385   0.669
 5488TIP3    H116405   7.068   3.397   0.752
 5488TIP3    H216406   7.110   3.291   0.653
 5489TIP3   OH216407   0.810   7.720   1.647
 5489TIP3    H116408   0.861   7.709   1.567
 5489TIP3    H216409   0.876   7.734   1.716
 5490TIP3   OH216410   6.931   3.775   1.726
 5490TIP3    H116411   7.010   3.754   1.776
 5490TIP3    H216412   6.902   3.859   1.762
 5491TIP3   OH216413   8.028   0.076   1.725
 5491TIP3    H116414   7.941   0.099   1.756
 5491TIP3    H216415   8.055   0.002   1.780
 5492TIP3   OH216416   4.946   1.274   1.033
 5492TIP3    H116417   4.984   1.198   1.078
 5492TIP3    H216418   4.940   1.246   0.942
 5493TIP3   OH216419   5.044   2.801   0.986
 5493TIP3    H116420   4.975   2.736   0.975
 5493TIP3    H216421   5.111   2.777   0.922
 5494TIP3   OH216422   4.117   0.804   2.216
 5494TIP3    H116423   4.165   0.771   2.140
 5494TIP3    H216424   4.095   0.894   2.193
 5495TIP3   OH216425   0.754   5.526   0.116
 5495TIP3    H116426   0.715   5.528   0.204
 5495TIP3    H216427   0.788   5.614   0.103
 5496TIP3   OH216428   6.280   7.575   5.978
 5496TIP3    H116429   6.244   7.494   5.941
 5496TIP3    H216430   6.213   7.605   6.039
 5497TIP3   OH216431   5.400   2.613   4.848
 5497TIP3    H116432   5.480   2.636   4.896
 5497TIP3    H216433   5.371   2.696   4.809
 5498TIP3   OH216434   2.401   7.465   4.810
 5498TIP3    H116435   2.424   7.543   4.758
 5498TIP3    H216436   2.359   7.406   4.748
 5499TIP3   OH216437   2.888   0.843   5.438
 5499TIP3    H116438   2.884   0.754   5.401
 5499TIP3    H216439   2.834   0.839   5.517
 5500TIP3   OH216440   7.005   7.161   5.274
 5500TIP3    H116441   7.069   7.232   5.260
 5500TIP3    H216442   6.929   7.205   5.313
 5501TIP3   OH216443   5.552   3.704   4.908
 5501TIP3    H116444   5.522   3.768   4.973
 5501TIP3    H216445   5.472   3.677   4.863
 5502TIP3   OH216446   5.399   0.763   1.348
 5502TIP3    H116447   5.345   0.715   1.286
 5502TIP3    H216448   5.363   0.740   1.434
 5503TIP3   OH216449   3.594   5.254   5.233
 5503TIP3    H116450   3.681   5.221   5.252
 5503TIP3    H216451   3.571   5.308   5.309
 5504TIP3   OH216452   1.413   3.030   2.843
 5504TIP3    H116453   1.347   3.035   2.773
 5504TIP3    H216454   1.494   3.058   2.801
 5505TIP3   OH216455   3.602   5.108   1.888
 5505TIP3    H116456   3.509   5.112   1.909
 5505TIP3    H216457   3.620   5.014   1.879
 5506TIP3   OH216458   6.220   1.680   1.276
 5506TIP3    H116459   6.219   1.673   1.180
 5506TIP3    H216460   6.313   1.679   1.299
 5507TIP3   OH216461   7.897   0.786   1.262
 5507TIP3    H116462   7.889   0.722   1.332
 5507TIP3    H216463   7.817   0.776   1.211
 5508TIP3   OH216464   7.398   1.649   6.398
 5508TIP3    H116465   7.369   1.579   6.339
 5508TIP3    H216466   7.343   1.639   6.475
 5509TIP3   OH216467   8.050   2.559   5.545
 5509TIP3    H116468   8.055   2.557   5.449
 5509TIP3    H216469   7.988   2.629   5.564
 5510TIP3   OH216470   1.216   3.044   1.698
 5510TIP3    H116471   1.297   3.086   1.727
 5510TIP3    H216472   1.183   3.101   1.629
 5511TIP3   OH216473   7.934   5.259   3.326
 5511TIP3    H116474   8.011   5.289   3.279
 5511TIP3    H216475   7.934   5.310   3.407
 5512TIP3   OH216476   3.106   0.851   0.594
 5512TIP3    H116477   3.074   0.870   0.682
 5512TIP3    H216478   3.199   0.872   0.596
 5513TIP3   OH216479   1.264   1.609   0.025
 5513TIP3    H116480   1.315   1.564   0.092
 5513TIP3    H216481   1.295   1.700   0.028
 5514TIP3   OH216482   6.952   5.995   3.897
 5514TIP3    H116483   7.038   5.975   3.859
 5514TIP3    H216484   6.970   6.062   3.963
 5515TIP3   OH216485   6.840   4.653   0.867
 5515TIP3    H116486   6.777   4.698   0.811
 5515TIP3    H216487   6.924   4.691   0.844
 5516TIP3   OH216488   2.220   2.432   6.636
 5516TIP3    H116489   2.134   2.474   6.629
 5516TIP3    H216490   2.255   2.462   6.720
 5517TIP3   OH216491   2.687   2.947   3.880
 5517TIP3    H116492   2.638   2.873   3.916
 5517TIP3    H216493   2.624   3.018   3.875
 5518TIP3   OH216494   2.930   5.951   2.333
 5518TIP3    H116495   2.933   5.856   2.322
 5518TIP3    H216496   2.838   5.970   2.350
 5519TIP3   OH216497   6.967   4.406   4.308
 5519TIP3    H116498   6.912   4.340   4.351
 5519TIP3    H216499   7.027   4.355   4.254
 5520TIP3   OH216500   5.027   7.266   4.597
 5520TIP3    H116501   4.956   7.294   4.655
 5520TIP3    H216502   5.100   7.325   4.618
 5521TIP3   OH216503   3.574   2.471   4.557
 5521TIP3    H116504   3.490   2.430   4.578
 5521TIP3    H216505   3.621   2.473   4.640
 5522TIP3   OH216506   3.991   1.477   3.569
 5522TIP3    H116507   3.928   1.541   3.536
 5522TIP3    H216508   3.943   1.429   3.636
 5523TIP3   OH216509   1.985   2.759   4.733
 5523TIP3    H116510   1.964   2.699   4.805
 5523TIP3    H216511   2.080   2.753   4.724
 5524TIP3   OH216512   1.752   1.614   4.851
 5524TIP3    H116513   1.789   1.677   4.790
 5524TIP3    H216514   1.665   1.594   4.816
 5525TIP3   OH216515   3.328   7.635   0.905
 5525TIP3    H116516   3.360   7.570   0.968
 5525TIP3    H216517   3.242   7.603   0.879
 5526TIP3   OH216518   3.703   2.725   4.578
 5526TIP3    H116519   3.633   2.660   4.574
 5526TIP3    H216520   3.771   2.683   4.631
 5527TIP3   OH216521   3.072   3.099   5.186
 5527TIP3    H116522   3.154   3.105   5.235
 5527TIP3    H216523   3.070   3.178   5.132
 5528TIP3   OH216524   5.212   1.699   2.990
 5528TIP3    H116525   5.237   1.634   3.056
 5528TIP3    H216526   5.190   1.647   2.913
 5529TIP3   OH216527   2.104   0.635   6.194
 5529TIP3    H116528   2.171   0.657   6.258
 5529TIP3    H216529   2.149   0.578   6.131
 5530TIP3   OH216530   7.196   1.490   2.810
 5530TIP3    H116531   7.101   1.488   2.816
 5530TIP3    H216532   7.216   1.570   2.760
 5531TIP3   OH216533   7.540   1.411   2.670
 5531TIP3    H116534   7.516   1.418   2.762
 5531TIP3    H216535   7.519   1.321   2.646
 5532TIP3   OH216536   6.235   2.454   3.795
 5532TIP3    H116537   6.315   2.407   3.774
 5532TIP3    H216538   6.215   2.428   3.885
 5533TIP3   OH216539   0.405   1.020   5.363
 5533TIP3    H116540   0.417   1.114   5.350
 5533TIP3    H216541   0.469   0.997   5.431
 5534TIP3   OH216542   3.980   2.179   1.385
 5534TIP3    H116543   4.073   2.197   1.397
 5534TIP3    H216544   3.937   2.263   1.400
 5535TIP3   OH216545   0.108   4.461   3.198
 5535TIP3    H116546   0.159   4.489   3.122
 5535TIP3    H216547   0.138   4.372   3.216
 5536TIP3   OH216548   3.181   6.053   4.462
 5536TIP3    H116549   3.093   6.044   4.426
 5536TIP3    H216550   3.169   6.099   4.545
 5537TIP3   OH216551   0.420   7.198   1.066
 5537TIP3    H116552   0.432   7.270   1.004
 5537TIP3    H216553   0.346   7.226   1.121
 5538TIP3   OH216554   6.969   0.342   5.883
 5538TIP3    H116555   6.924   0.294   5.813
 5538TIP3    H216556   7.021   0.276   5.928
 5539TIP3   OH216557   2.371   6.064   2.062
 5539TIP3    H116558   2.288   6.066   2.014
 5539TIP3    H216559   2.387   5.971   2.079
 5540TIP3   OH216560   3.107  -0.028   1.262
 5540TIP3    H116561   3.139  -0.022   1.352
 5540TIP3    H216562   3.072   0.059   1.242
 5541TIP3   OH216563   6.859   6.034   4.329
 5541TIP3    H116564   6.921   6.009   4.260
 5541TIP3    H216565   6.789   6.081   4.283
 5542TIP3   OH216566   5.970   3.880   1.067
 5542TIP3    H116567   6.029   3.870   0.992
 5542TIP3    H216568   5.944   3.790   1.089
 5543TIP3   OH216569   4.755   4.284   1.955
 5543TIP3    H116570   4.741   4.371   1.917
 5543TIP3    H216571   4.850   4.273   1.955
 5544TIP3   OH216572   3.270   7.774   6.189
 5544TIP3    H116573   3.319   7.816   6.118
 5544TIP3    H216574   3.337   7.748   6.252
 5545TIP3   OH216575   0.993   4.541   4.300
 5545TIP3    H116576   0.908   4.505   4.324
 5545TIP3    H216577   1.006   4.615   4.359
 5546TIP3   OH216578   5.166   6.623   6.473
 5546TIP3    H116579   5.107   6.547   6.472
 5546TIP3    H216580   5.108   6.698   6.484
 5547TIP3   OH216581   3.693   7.334   4.381
 5547TIP3    H116582   3.627   7.369   4.322
 5547TIP3    H216583   3.662   7.246   4.403
 5548TIP3   OH216584   0.811   4.641   1.343
 5548TIP3    H116585   0.787   4.583   1.270
 5548TIP3    H216586   0.784   4.728   1.313
 5549TIP3   OH216587   4.973   6.190   1.003
 5549TIP3    H116588   4.970   6.127   1.076
 5549TIP3    H216589   4.963   6.275   1.046
 5550TIP3   OH216590   1.206   7.668   4.723
 5550TIP3    H116591   1.114   7.690   4.739
 5550TIP3    H216592   1.208   7.633   4.634
 5551TIP3   OH216593   7.054   2.274   6.379
 5551TIP3    H116594   6.961   2.278   6.355
 5551TIP3    H216595   7.086   2.363   6.363
 5552TIP3   OH216596   5.777   5.095   5.288
 5552TIP3    H116597   5.800   5.065   5.200
 5552TIP3    H216598   5.714   5.031   5.320
 5553TIP3   OH216599   2.904   5.809   4.503
 5553TIP3    H116600   2.843   5.746   4.541
 5553TIP3    H216601   2.901   5.884   4.563
 5554TIP3   OH216602   7.052   7.293   5.640
 5554TIP3    H116603   6.963   7.265   5.622
 5554TIP3    H216604   7.058   7.382   5.604
 5555TIP3   OH216605   1.313   1.664   4.357
 5555TIP3    H116606   1.371   1.655   4.433
 5555TIP3    H216607   1.263   1.582   4.356
 5556TIP3   OH216608   2.945   3.807   2.061
 5556TIP3    H116609   2.896   3.860   1.998
 5556TIP3    H216610   2.988   3.740   2.008
 5557TIP3   OH216611   1.510   0.667   4.970
 5557TIP3    H116612   1.434   0.614   4.993
 5557TIP3    H216613   1.576   0.642   5.034
 5558TIP3   OH216614   4.533   2.421   1.444
 5558TIP3    H116615   4.536   2.477   1.366
 5558TIP3    H216616   4.565   2.336   1.415
 5559TIP3   OH216617   1.996   6.959   3.177
 5559TIP3    H116618   1.919   6.943   3.121
 5559TIP3    H216619   1.961   6.953   3.266
 5560TIP3   OH216620   1.022   3.462   0.674
 5560TIP3    H116621   1.039   3.373   0.643
 5560TIP3    H216622   1.069   3.469   0.757
 5561TIP3   OH216623   5.241   4.907   6.243
 5561TIP3    H116624   5.188   4.914   6.322
 5561TIP3    H216625   5.274   4.817   6.244
 5562TIP3   OH216626   4.764   5.644   3.672
 5562TIP3    H116627   4.707   5.589   3.725
 5562TIP3    H216628   4.711   5.665   3.595
 5563TIP3   OH216629   6.866   4.261   1.887
 5563TIP3    H116630   6.850   4.313   1.808
 5563TIP3    H216631   6.937   4.308   1.932
 5564TIP3   OH216632   6.051   3.657   3.708
 5564TIP3    H116633   6.071   3.724   3.643
 5564TIP3    H216634   6.005   3.705   3.777
 5565TIP3   OH216635   1.328   0.762   6.468
 5565TIP3    H116636   1.351   0.670   6.459
 5565TIP3    H216637   1.239   0.769   6.433
 5566TIP3   OH216638   8.399   4.563   6.754
 5566TIP3    H116639   8.363   4.477   6.734
 5566TIP3    H216640   8.339   4.599   6.820
 5567TIP3   OH216641   6.420   7.016   6.271
 5567TIP3    H116642   6.391   7.088   6.216
 5567TIP3    H216643   6.345   6.957   6.275
 5568TIP3   OH216644   7.968   5.327   4.423
 5568TIP3    H116645   8.002   5.409   4.458
 5568TIP3    H216646   7.876   5.344   4.406
 5569TIP3   OH216647   7.312   0.995   2.362
 5569TIP3    H116648   7.371   1.021   2.291
 5569TIP3    H216649   7.231   0.970   2.317
 5570TIP3   OH216650   0.069   2.503   6.478
 5570TIP3    H116651   0.129   2.574   6.455
 5570TIP3    H216652   0.123   2.425   6.481
 5571TIP3   OH216653   2.307   0.204   3.797
 5571TIP3    H116654   2.275   0.200   3.887
 5571TIP3    H216655   2.339   0.116   3.778
 5572TIP3   OH216656   2.873   5.445   0.130
 5572TIP3    H116657   2.892   5.538   0.114
 5572TIP3    H216658   2.805   5.445   0.197
 5573TIP3   OH216659   0.498   7.156   0.439
 5573TIP3    H116660   0.578   7.154   0.386
 5573TIP3    H216661   0.452   7.075   0.416
 5574TIP3   OH216662   3.033   0.709   6.006
 5574TIP3    H116663   3.013   0.789   6.055
 5574TIP3    H216664   3.053   0.738   5.918
 5575TIP3   OH216665   4.618   4.847   4.326
 5575TIP3    H116666   4.539   4.869   4.376
 5575TIP3    H216667   4.636   4.756   4.347
 5576TIP3   OH216668   4.371   0.630   1.769
 5576TIP3    H116669   4.400   0.547   1.733
 5576TIP3    H216670   4.448   0.665   1.814
 5577TIP3   OH216671   2.066   1.329   2.547
 5577TIP3    H116672   1.980   1.290   2.534
 5577TIP3    H216673   2.076   1.334   2.642
 5578TIP3   OH216674   1.209   4.190   5.102
 5578TIP3    H116675   1.213   4.097   5.079
 5578TIP3    H216676   1.115   4.211   5.097
 5579TIP3   OH216677   1.326   4.320   4.287
 5579TIP3    H116678   1.334   4.231   4.251
 5579TIP3    H216679   1.349   4.377   4.214
 5580TIP3   OH216680   0.913   7.866   6.309
 5580TIP3    H116681   0.973   7.936   6.283
 5580TIP3    H216682   0.969   7.789   6.317
 5581TIP3   OH216683   7.705   2.790   4.584
 5581TIP3    H116684   7.701   2.853   4.512
 5581TIP3    H216685   7.747   2.713   4.546
 5582TIP3   OH216686   0.814   5.591   6.633
 5582TIP3    H116687   0.787   5.651   6.702
 5582TIP3    H216688   0.904   5.567   6.655
 5583TIP3   OH216689   5.204   0.667   3.660
 5583TIP3    H116690   5.120   0.713   3.663
 5583TIP3    H216691   5.199   0.604   3.731
 5584TIP3   OH216692   5.291   3.463   6.500
 5584TIP3    H116693   5.263   3.372   6.508
 5584TIP3    H216694   5.384   3.461   6.522
 5585TIP3   OH216695   2.425   1.513   5.040
 5585TIP3    H116696   2.334   1.484   5.050
 5585TIP3    H216697   2.461   1.511   5.129
 5586TIP3   OH216698   7.083   0.126   1.048
 5586TIP3    H116699   7.115   0.104   1.136
 5586TIP3    H216700   7.045   0.044   1.015
 5587TIP3   OH216701   2.811   5.223   2.284
 5587TIP3    H116702   2.737   5.277   2.311
 5587TIP3    H216703   2.792   5.136   2.318
 5588TIP3   OH216704   7.464   2.138   6.822
 5588TIP3    H116705   7.478   2.069   6.887
 5588TIP3    H216706   7.388   2.109   6.772
 5589TIP3   OH216707   3.182   5.043   4.551
 5589TIP3    H116708   3.144   5.014   4.633
 5589TIP3    H216709   3.270   5.072   4.574
 5590TIP3   OH216710   6.482   3.565   3.223
 5590TIP3    H116711   6.449   3.641   3.271
 5590TIP3    H216712   6.408   3.537   3.169
 5591TIP3   OH216713   5.494   2.429   5.323
 5591TIP3    H116714   5.524   2.360   5.264
 5591TIP3    H216715   5.550   2.420   5.401
 5592TIP3   OH216716   0.735   2.439   0.695
 5592TIP3    H116717   0.666   2.480   0.749
 5592TIP3    H216718   0.699   2.438   0.607
 5593TIP3   OH216719   2.487   3.163   3.919
 5593TIP3    H116720   2.489   3.248   3.962
 5593TIP3    H216721   2.453   3.103   3.986
 5594TIP3   OH216722   5.466   0.310   3.351
 5594TIP3    H116723   5.434   0.399   3.360
 5594TIP3    H216724   5.461   0.291   3.258
 5595TIP3   OH216725   3.331   5.670   2.217
 5595TIP3    H116726   3.418   5.711   2.208
 5595TIP3    H216727   3.350   5.579   2.241
 5596TIP3   OH216728   5.567   2.251   3.284
 5596TIP3    H116729   5.487   2.265   3.232
 5596TIP3    H216730   5.602   2.339   3.298
 5597TIP3   OH216731   3.227   7.814   1.976
 5597TIP3    H116732   3.281   7.739   1.952
 5597TIP3    H216733   3.288   7.873   2.023
 5598TIP3   OH216734   1.752   3.641   2.895
 5598TIP3    H116735   1.738   3.728   2.856
 5598TIP3    H216736   1.665   3.614   2.924
 5599TIP3   OH216737   7.335   7.232   5.899
 5599TIP3    H116738   7.373   7.319   5.895
 5599TIP3    H216739   7.335   7.209   5.992
 5600TIP3   OH216740   6.128   6.800   3.094
 5600TIP3    H116741   6.178   6.790   3.012
 5600TIP3    H216742   6.117   6.894   3.103
 5601TIP3   OH216743   4.438   3.317   0.316
 5601TIP3    H116744   4.386   3.273   0.382
 5601TIP3    H216745   4.429   3.411   0.336
 5602TIP3   OH216746   3.292   4.297   5.615
 5602TIP3    H116747   3.218   4.270   5.560
 5602TIP3    H216748   3.292   4.235   5.688
 5603TIP3   OH216749   2.000   7.067   6.374
 5603TIP3    H116750   2.020   7.006   6.445
 5603TIP3    H216751   1.907   7.054   6.356
 5604TIP3   OH216752   5.709   1.605   3.636
 5604TIP3    H116753   5.653   1.599   3.713
 5604TIP3    H216754   5.677   1.683   3.589
 5605TIP3   OH216755   1.414   4.346   5.026
 5605TIP3    H116756   1.343   4.286   5.048
 5605TIP3    H216757   1.375   4.410   4.967
 5606TIP3   OH216758   6.283   5.108   6.003
 5606TIP3    H116759   6.371   5.097   5.968
 5606TIP3    H216760   6.242   5.172   5.945
 5607TIP3   OH216761   4.035   6.059   1.697
 5607TIP3    H116762   3.972   6.114   1.649
 5607TIP3    H216763   4.084   6.014   1.628
 5608TIP3   OH216764  -0.002   2.512   5.460
 5608TIP3    H116765   0.013   2.598   5.501
 5608TIP3    H216766   0.081   2.465   5.472
 5609TIP3   OH216767   7.842   0.367   1.454
 5609TIP3    H116768   7.884   0.281   1.455
 5609TIP3    H216769   7.750   0.348   1.438
 5610TIP3   OH216770   0.306   1.511   1.255
 5610TIP3    H116771   0.281   1.490   1.165
 5610TIP3    H216772   0.332   1.427   1.293
 5611TIP3   OH216773   4.299   5.267   1.133
 5611TIP3    H116774   4.320   5.212   1.208
 5611TIP3    H216775   4.347   5.348   1.150
 5612TIP3   OH216776   3.105   2.267   2.602
 5612TIP3    H116777   3.163   2.266   2.678
 5612TIP3    H216778   3.084   2.359   2.589
 5613TIP3   OH216779   1.583   1.647   5.754
 5613TIP3    H116780   1.639   1.625   5.680
 5613TIP3    H216781   1.521   1.711   5.719
 5614TIP3   OH216782   2.816   0.645   3.771
 5614TIP3    H116783   2.787   0.699   3.698
 5614TIP3    H216784   2.747   0.654   3.837
 5615TIP3   OH216785   4.253   4.705   3.603
 5615TIP3    H116786   4.242   4.799   3.620
 5615TIP3    H216787   4.170   4.678   3.564
 5616TIP3   OH216788   0.399   3.721   5.281
 5616TIP3    H116789   0.392   3.745   5.188
 5616TIP3    H216790   0.456   3.788   5.318
 5617TIP3   OH216791   3.648   0.583   1.851
 5617TIP3    H116792   3.742   0.572   1.869
 5617TIP3    H216793   3.614   0.494   1.850
 5618TIP3   OH216794   0.492   1.180   3.127
 5618TIP3    H116795   0.493   1.225   3.212
 5618TIP3    H216796   0.578   1.196   3.090
 5619TIP3   OH216797   1.815   0.877   1.196
 5619TIP3    H116798   1.755   0.948   1.171
 5619TIP3    H216799   1.855   0.908   1.277
 5620TIP3   OH216800   7.561   6.357   2.052
 5620TIP3    H116801   7.480   6.398   2.022
 5620TIP3    H216802   7.618   6.430   2.074
 5621TIP3   OH216803   7.444   2.183   5.496
 5621TIP3    H116804   7.438   2.089   5.511
 5621TIP3    H216805   7.524   2.210   5.542
 5622TIP3   OH216806   1.250   1.849   4.904
 5622TIP3    H116807   1.344   1.862   4.919
 5622TIP3    H216808   1.213   1.937   4.905
 5623TIP3   OH216809   0.541   6.773   1.694
 5623TIP3    H116810   0.447   6.788   1.699
 5623TIP3    H216811   0.574   6.792   1.782
 5624TIP3   OH216812   1.854   1.154   2.501
 5624TIP3    H116813   1.889   1.093   2.436
 5624TIP3    H216814   1.763   1.167   2.475
 5625TIP3   OH216815   1.747   3.161   4.068
 5625TIP3    H116816   1.684   3.224   4.102
 5625TIP3    H216817   1.709   3.076   4.087
 5626TIP3   OH216818   5.517   3.598   2.600
 5626TIP3    H116819   5.426   3.618   2.624
 5626TIP3    H216820   5.562   3.682   2.606
 5627TIP3   OH216821   1.918   5.018   6.362
 5627TIP3    H116822   1.994   5.066   6.395
 5627TIP3    H216823   1.881   4.975   6.439
 5628TIP3   OH216824   8.122   2.483   3.339
 5628TIP3    H116825   8.163   2.523   3.262
 5628TIP3    H216826   8.028   2.485   3.321
 5629TIP3   OH216827   3.633   0.589   5.560
 5629TIP3    H116828   3.629   0.618   5.651
 5629TIP3    H216829   3.594   0.502   5.561
 5630TIP3   OH216830   1.548   1.594   3.462
 5630TIP3    H116831   1.544   1.670   3.520
 5630TIP3    H216832   1.478   1.537   3.493
 5631TIP3   OH216833   0.981   0.523   1.965
 5631TIP3    H116834   0.972   0.443   2.016
 5631TIP3    H216835   0.896   0.536   1.924
 5632TIP3   OH216836   8.242   6.296   3.506
 5632TIP3    H116837   8.296   6.223   3.476
 5632TIP3    H216838   8.182   6.256   3.570
 5633TIP3   OH216839   6.199   6.661   4.453
 5633TIP3    H116840   6.281   6.709   4.449
 5633TIP3    H216841   6.131   6.728   4.446
 5634TIP3   OH216842   7.652   1.566   1.582
 5634TIP3    H116843   7.734   1.560   1.630
 5634TIP3    H216844   7.622   1.656   1.598
 5635TIP3   OH216845   6.522   4.523   6.400
 5635TIP3    H116846   6.502   4.481   6.317
 5635TIP3    H216847   6.602   4.479   6.430
 5636TIP3   OH216848   0.045   5.421   0.787
 5636TIP3    H116849   0.031   5.356   0.856
 5636TIP3    H216850   0.113   5.383   0.732
 5637TIP3   OH216851   7.086   6.413   2.036
 5637TIP3    H116852   7.135   6.386   1.959
 5637TIP3    H216853   7.051   6.499   2.014
 5638TIP3   OH216854   6.877   3.626   3.121
 5638TIP3    H116855   6.884   3.717   3.153
 5638TIP3    H216856   6.967   3.597   3.113
 5639TIP3   OH216857   7.144   6.654   4.311
 5639TIP3    H116858   7.154   6.565   4.343
 5639TIP3    H216859   7.050   6.665   4.298
 5640TIP3   OH216860   1.221   3.557   2.327
 5640TIP3    H116861   1.296   3.539   2.383
 5640TIP3    H216862   1.224   3.488   2.260
 5641TIP3   OH216863   1.369   4.110   5.930
 5641TIP3    H116864   1.291   4.056   5.944
 5641TIP3    H216865   1.363   4.178   5.996
 5642TIP3   OH216866   0.677   6.104   2.779
 5642TIP3    H116867   0.625   6.036   2.820
 5642TIP3    H216868   0.758   6.060   2.754
 5643TIP3   OH216869   8.386   4.277   5.277
 5643TIP3    H116870   8.294   4.268   5.303
 5643TIP3    H216871   8.418   4.188   5.269
 5644TIP3   OH216872   1.650   3.655   1.824
 5644TIP3    H116873   1.555   3.666   1.836
 5644TIP3    H216874   1.676   3.596   1.895
 5645TIP3   OH216875   5.429   6.522   6.586
 5645TIP3    H116876   5.417   6.427   6.582
 5645TIP3    H216877   5.352   6.557   6.540
 5646TIP3   OH216878   7.170   4.570   2.939
 5646TIP3    H116879   7.112   4.580   2.863
 5646TIP3    H216880   7.166   4.477   2.959
 5647TIP3   OH216881   0.610   1.329   1.756
 5647TIP3    H116882   0.637   1.268   1.688
 5647TIP3    H216883   0.589   1.410   1.709
 5648TIP3   OH216884   5.692   1.627   1.861
 5648TIP3    H116885   5.786   1.644   1.869
 5648TIP3    H216886   5.669   1.583   1.942
 5649TIP3   OH216887   6.397   6.006   4.149
 5649TIP3    H116888   6.427   6.058   4.075
 5649TIP3    H216889   6.396   6.067   4.223
 5650TIP3   OH216890   7.210   0.256   5.301
 5650TIP3    H116891   7.119   0.274   5.280
 5650TIP3    H216892   7.248   0.342   5.319
 5651TIP3   OH216893   5.294   7.351   6.755
 5651TIP3    H116894   5.381   7.326   6.786
 5651TIP3    H216895   5.297   7.447   6.754
 5652TIP3   OH216896   5.463   3.256   1.735
 5652TIP3    H116897   5.455   3.204   1.816
 5652TIP3    H216898   5.375   3.254   1.698
 5653TIP3   OH216899   5.535   7.772   0.924
 5653TIP3    H116900   5.470   7.741   0.861
 5653TIP3    H216901   5.487   7.780   1.006
 5654TIP3   OH216902   1.563   0.181   3.491
 5654TIP3    H116903   1.508   0.190   3.413
 5654TIP3    H216904   1.644   0.142   3.458
 5655TIP3   OH216905   0.610   4.906   3.580
 5655TIP3    H116906   0.521   4.941   3.570
 5655TIP3    H216907   0.654   4.930   3.499
 5656TIP3   OH216908   3.087   0.155   0.765
 5656TIP3    H116909   3.000   0.156   0.726
 5656TIP3    H216910   3.145   0.190   0.697
 5657TIP3   OH216911   0.703   5.650   2.905
 5657TIP3    H116912   0.792   5.631   2.933
 5657TIP3    H216913   0.674   5.569   2.861
 5658TIP3   OH216914   4.871   3.619   0.594
 5658TIP3    H116915   4.897   3.710   0.579
 5658TIP3    H216916   4.839   3.618   0.684
 5659TIP3   OH216917   0.773   0.746   5.695
 5659TIP3    H116918   0.738   0.659   5.677
 5659TIP3    H216919   0.716   0.782   5.763
 5660TIP3   OH216920   0.430   7.757   2.953
 5660TIP3    H116921   0.363   7.825   2.952
 5660TIP3    H216922   0.512   7.804   2.962
 5661TIP3   OH216923   1.737   3.549   2.073
 5661TIP3    H116924   1.659   3.596   2.102
 5661TIP3    H216925   1.809   3.610   2.087
 5662TIP3   OH216926   1.761   7.868   0.901
 5662TIP3    H116927   1.684   7.844   0.849
 5662TIP3    H216928   1.827   7.893   0.837
 5663TIP3   OH216929   3.811   0.143   1.171
 5663TIP3    H116930   3.854   0.058   1.161
 5663TIP3    H216931   3.791   0.171   1.082
 5664TIP3   OH216932   0.848   3.556   1.089
 5664TIP3    H116933   0.813   3.513   1.166
 5664TIP3    H216934   0.791   3.528   1.017
 5665TIP3   OH216935   2.222   1.089   5.699
 5665TIP3    H116936   2.311   1.069   5.668
 5665TIP3    H216937   2.171   1.011   5.680
 5666TIP3   OH216938   7.221   5.771   4.032
 5666TIP3    H116939   7.261   5.731   4.109
 5666TIP3    H216940   7.294   5.815   3.987
 5667TIP3   OH216941   1.281   0.497   3.737
 5667TIP3    H116942   1.190   0.516   3.718
 5667TIP3    H216943   1.324   0.583   3.736
 5668TIP3   OH216944   3.344   7.306   2.598
 5668TIP3    H116945   3.364   7.213   2.611
 5668TIP3    H216946   3.389   7.329   2.517
 5669TIP3   OH216947   2.167   7.879   4.394
 5669TIP3    H116948   2.190   7.890   4.486
 5669TIP3    H216949   2.231   7.816   4.361
 5670TIP3   OH216950   7.151   7.784   2.768
 5670TIP3    H116951   7.172   7.861   2.714
 5670TIP3    H216952   7.148   7.818   2.857
 5671TIP3   OH216953   3.542   6.555   3.708
 5671TIP3    H116954   3.514   6.584   3.795
 5671TIP3    H216955   3.621   6.504   3.724
 5672TIP3   OH216956   3.660   1.676   1.636
 5672TIP3    H116957   3.745   1.716   1.657
 5672TIP3    H216958   3.596   1.745   1.655
 5673TIP3   OH216959   5.710   3.771   4.191
 5673TIP3    H116960   5.737   3.851   4.235
 5673TIP3    H216961   5.658   3.801   4.116
 5674TIP3   OH216962   0.081   1.488   3.295
 5674TIP3    H116963   0.151   1.463   3.234
 5674TIP3    H216964   0.104   1.578   3.320
 5675TIP3   OH216965   3.531   1.095   5.838
 5675TIP3    H116966   3.496   1.044   5.911
 5675TIP3    H216967   3.469   1.166   5.826
 5676TIP3   OH216968   5.138   3.463   3.751
 5676TIP3    H116969   5.222   3.427   3.724
 5676TIP3    H216970   5.122   3.536   3.691
 5677TIP3   OH216971   0.523   1.709   2.306
 5677TIP3    H116972   0.602   1.692   2.358
 5677TIP3    H216973   0.524   1.804   2.291
 5678TIP3   OH216974   0.501   6.456   6.044
 5678TIP3    H116975   0.543   6.402   5.977
 5678TIP3    H216976   0.408   6.450   6.025
 5679TIP3   OH216977   0.322   0.639   2.342
 5679TIP3    H116978   0.367   0.577   2.284
 5679TIP3    H216979   0.362   0.724   2.320
 5680TIP3   OH216980   1.835   0.338   6.104
 5680TIP3    H116981   1.853   0.397   6.177
 5680TIP3    H216982   1.853   0.390   6.026
 5681TIP3   OH216983   0.728   2.621   6.489
 5681TIP3    H116984   0.818   2.636   6.516
 5681TIP3    H216985   0.683   2.704   6.507
 5682TIP3   OH216986   1.687   6.827   5.356
 5682TIP3    H116987   1.767   6.879   5.368
 5682TIP3    H216988   1.715   6.747   5.312
 5683TIP3   OH216989   1.921   7.402   3.595
 5683TIP3    H116990   1.938   7.482   3.546
 5683TIP3    H216991   1.837   7.416   3.637
 5684TIP3   OH216992   7.034   0.515   5.597
 5684TIP3    H116993   7.011   0.601   5.632
 5684TIP3    H216994   7.085   0.534   5.518
 5685TIP3   OH216995   3.973   7.261   2.963
 5685TIP3    H116996   3.879   7.245   2.972
 5685TIP3    H216997   3.981   7.356   2.963
 5686TIP3   OH216998   7.508   7.429   1.733
 5686TIP3    H116999   7.509   7.371   1.657
 5686TIP3    H217000   7.571   7.391   1.794
 5687TIP3   OH217001   2.472   5.381   0.563
 5687TIP3    H117002   2.479   5.463   0.514
 5687TIP3    H217003   2.406   5.330   0.516
 5688TIP3   OH217004   3.670   5.920   4.530
 5688TIP3    H117005   3.577   5.919   4.508
 5688TIP3    H217006   3.707   5.990   4.477
 5689TIP3   OH217007   0.673   5.312   0.933
 5689TIP3    H117008   0.608   5.366   0.889
 5689TIP3    H217009   0.744   5.304   0.869
 5690TIP3   OH217010   2.833   6.394   3.149
 5690TIP3    H117011   2.882   6.412   3.229
 5690TIP3    H217012   2.833   6.477   3.101
 5691TIP3   OH217013   8.094   0.504   0.867
 5691TIP3    H117014   8.143   0.585   0.853
 5691TIP3    H217015   8.106   0.485   0.960
 5692TIP3   OH217016   4.278   6.650   0.915
 5692TIP3    H117017   4.314   6.729   0.875
 5692TIP3    H217018   4.309   6.579   0.859
 5693TIP3   OH217019   0.607   0.946   5.090
 5693TIP3    H117020   0.616   1.034   5.126
 5693TIP3    H217021   0.514   0.927   5.095
 5694TIP3   OH217022   3.993   6.123   5.516
 5694TIP3    H117023   3.918   6.069   5.539
 5694TIP3    H217024   4.049   6.066   5.463
 5695TIP3   OH217025   5.147   2.038   2.888
 5695TIP3    H117026   5.116   1.954   2.857
 5695TIP3    H217027   5.141   2.096   2.812
 5696TIP3   OH217028   5.744   2.472   6.376
 5696TIP3    H117029   5.790   2.391   6.353
 5696TIP3    H217030   5.744   2.474   6.472
 5697TIP3   OH217031   6.981   2.975   4.569
 5697TIP3    H117032   6.929   2.933   4.637
 5697TIP3    H217033   7.068   2.986   4.607
 5698TIP3   OH217034   3.429   5.473   0.929
 5698TIP3    H117035   3.516   5.473   0.969
 5698TIP3    H217036   3.423   5.387   0.886
 5699TIP3   OH217037   7.485   0.627   3.565
 5699TIP3    H117038   7.485   0.708   3.515
 5699TIP3    H217039   7.504   0.558   3.501
 5700TIP3   OH217040   4.932   1.332   5.226
 5700TIP3    H117041   4.853   1.352   5.178
 5700TIP3    H217042   4.919   1.243   5.259
 5701TIP3   OH217043   6.220   7.307   6.391
 5701TIP3    H117044   6.192   7.395   6.415
 5701TIP3    H217045   6.314   7.316   6.373
 5702TIP3   OH217046   2.961   5.666   2.356
 5702TIP3    H117047   2.875   5.644   2.392
 5702TIP3    H217048   3.023   5.640   2.424
 5703TIP3   OH217049   5.904   2.311   2.621
 5703TIP3    H117050   5.992   2.320   2.584
 5703TIP3    H217051   5.909   2.232   2.676
 5704TIP3   OH217052   1.945   0.723   4.810
 5704TIP3    H117053   1.864   0.687   4.775
 5704TIP3    H217054   2.010   0.711   4.740
 5705TIP3   OH217055   0.777   0.150   1.127
 5705TIP3    H117056   0.686   0.176   1.140
 5705TIP3    H217057   0.793   0.163   1.034
 5706TIP3   OH217058   3.618   6.758   1.759
 5706TIP3    H117059   3.666   6.734   1.679
 5706TIP3    H217060   3.578   6.842   1.739
 5707TIP3   OH217061   4.714   7.186   3.523
 5707TIP3    H117062   4.628   7.151   3.503
 5707TIP3    H217063   4.772   7.110   3.523
 5708TIP3   OH217064   3.998   2.442   5.673
 5708TIP3    H117065   4.013   2.535   5.685
 5708TIP3    H217066   3.954   2.435   5.588
 5709TIP3   OH217067   2.781   0.471   0.453
 5709TIP3    H117068   2.873   0.455   0.476
 5709TIP3    H217069   2.778   0.565   0.433
 5710TIP3   OH217070   0.977   7.440   2.021
 5710TIP3    H117071   0.903   7.404   1.973
 5710TIP3    H217072   1.019   7.364   2.061
 5711TIP3   OH217073   7.042   2.548   6.080
 5711TIP3    H117074   7.074   2.567   5.991
 5711TIP3    H217075   6.957   2.592   6.085
 5712TIP3   OH217076   2.088   5.450   4.301
 5712TIP3    H117077   2.173   5.495   4.301
 5712TIP3    H217078   2.104   5.370   4.251
 5713TIP3   OH217079   4.413   2.131   1.665
 5713TIP3    H117080   4.504   2.150   1.689
 5713TIP3    H217081   4.389   2.055   1.719
 5714TIP3   OH217082   5.414   2.708   3.706
 5714TIP3    H117083   5.322   2.699   3.731
 5714TIP3    H217084   5.430   2.635   3.646
 5715TIP3   OH217085   0.133   7.625   0.167
 5715TIP3    H117086   0.079   7.659   0.238
 5715TIP3    H217087   0.203   7.689   0.157
 5716TIP3   OH217088   1.032   4.994   0.297
 5716TIP3    H117089   1.024   4.996   0.202
 5716TIP3    H217090   1.127   5.000   0.313
 5717TIP3   OH217091   2.432   5.820   0.633
 5717TIP3    H117092   2.520   5.785   0.616
 5717TIP3    H217093   2.401   5.772   0.710
 5718TIP3   OH217094   3.765   2.554   3.396
 5718TIP3    H117095   3.859   2.568   3.384
 5718TIP3    H217096   3.740   2.613   3.467
 5719TIP3   OH217097   3.958   3.580   1.541
 5719TIP3    H117098   4.033   3.622   1.584
 5719TIP3    H217099   3.914   3.652   1.496
 5720TIP3   OH217100   5.717   4.611   1.518
 5720TIP3    H117101   5.686   4.699   1.536
 5720TIP3    H217102   5.667   4.555   1.578
 5721TIP3   OH217103   3.222   7.018   4.977
 5721TIP3    H117104   3.199   7.066   5.057
 5721TIP3    H217105   3.273   6.944   5.008
 5722TIP3   OH217106   2.654   6.695   3.336
 5722TIP3    H117107   2.748   6.707   3.325
 5722TIP3    H217108   2.617   6.781   3.314
 5723TIP3   OH217109   3.991   4.596   4.984
 5723TIP3    H117110   4.037   4.570   4.904
 5723TIP3    H217111   3.933   4.666   4.957
 5724TIP3   OH217112   4.282   2.939   3.303
 5724TIP3    H117113   4.366   2.985   3.307
 5724TIP3    H217114   4.216   3.008   3.317
 5725TIP3   OH217115   3.619   5.576   1.405
 5725TIP3    H117116   3.610   5.517   1.479
 5725TIP3    H217117   3.540   5.561   1.352
 5726TIP3   OH217118   0.734   4.167   0.502
 5726TIP3    H117119   0.804   4.123   0.550
 5726TIP3    H217120   0.752   4.146   0.410
 5727TIP3   OH217121   2.223   5.996   2.649
 5727TIP3    H117122   2.205   5.921   2.706
 5727TIP3    H217123   2.225   5.960   2.561
 5728TIP3   OH217124   2.777   0.442   2.454
 5728TIP3    H117125   2.818   0.383   2.390
 5728TIP3    H217126   2.804   0.408   2.539
 5729TIP3   OH217127   0.946   1.733   0.249
 5729TIP3    H117128   0.865   1.710   0.205
 5729TIP3    H217129   0.922   1.800   0.313
 5730TIP3   OH217130   7.187   5.355   6.026
 5730TIP3    H117131   7.262   5.414   6.018
 5730TIP3    H217132   7.171   5.350   6.120
 5731TIP3   OH217133   6.214   0.526   6.355
 5731TIP3    H117134   6.204   0.446   6.304
 5731TIP3    H217135   6.205   0.498   6.446
 5732TIP3   OH217136   0.244   1.325   3.812
 5732TIP3    H117137   0.214   1.402   3.763
 5732TIP3    H217138   0.276   1.360   3.895
 5733TIP3   OH217139   5.720   7.002   6.580
 5733TIP3    H117140   5.695   7.009   6.672
 5733TIP3    H217141   5.669   7.070   6.536
 5734TIP3   OH217142   1.918   5.715   1.644
 5734TIP3    H117143   1.875   5.727   1.560
 5734TIP3    H217144   1.856   5.664   1.696
 5735TIP3   OH217145   5.061   4.592   4.615
 5735TIP3    H117146   4.980   4.616   4.660
 5735TIP3    H217147   5.107   4.675   4.602
 5736TIP3   OH217148   1.877   7.890   1.628
 5736TIP3    H117149   1.960   7.911   1.672
 5736TIP3    H217150   1.882   7.937   1.545
 5737TIP3   OH217151   4.147   7.080   1.029
 5737TIP3    H117152   4.223   7.058   1.083
 5737TIP3    H217153   4.109   7.157   1.071
 5738TIP3   OH217154   1.734   2.299   0.836
 5738TIP3    H117155   1.732   2.297   0.740
 5738TIP3    H217156   1.803   2.237   0.860
 5739TIP3   OH217157   3.677   7.940   2.282
 5739TIP3    H117158   3.611   7.939   2.213
 5739TIP3    H217159   3.755   7.978   2.241
 5740TIP3   OH217160   6.467   1.894   1.495
 5740TIP3    H117161   6.532   1.953   1.456
 5740TIP3    H217162   6.465   1.818   1.437
 5741TIP3   OH217163   8.217   1.119   2.673
 5741TIP3    H117164   8.268   1.131   2.753
 5741TIP3    H217165   8.132   1.159   2.692
 5742TIP3   OH217166   1.465   5.288   0.169
 5742TIP3    H117167   1.507   5.309   0.253
 5742TIP3    H217168   1.535   5.253   0.114
 5743TIP3   OH217169   0.863   4.311   6.085
 5743TIP3    H117170   0.875   4.250   6.013
 5743TIP3    H217171   0.769   4.330   6.084
 5744TIP3   OH217172   6.949   2.736   4.362
 5744TIP3    H117173   6.857   2.765   4.367
 5744TIP3    H217174   6.996   2.799   4.417
 5745TIP3   OH217175   1.877   4.396   5.686
 5745TIP3    H117176   1.791   4.392   5.729
 5745TIP3    H217177   1.936   4.427   5.754
 5746TIP3   OH217178   5.791   6.673   6.854
 5746TIP3    H117179   5.767   6.678   6.762
 5746TIP3    H217180   5.734   6.737   6.897
 5747TIP3   OH217181   7.346   3.638   3.107
 5747TIP3    H117182   7.404   3.684   3.168
 5747TIP3    H217183   7.291   3.582   3.163
 5748TIP3   OH217184   8.231   1.803   1.530
 5748TIP3    H117185   8.302   1.753   1.572
 5748TIP3    H217186   8.257   1.808   1.438
 5749TIP3   OH217187   0.511   3.777   4.319
 5749TIP3    H117188   0.516   3.866   4.352
 5749TIP3    H217189   0.579   3.730   4.368
 5750TIP3   OH217190   1.082   3.623   3.731
 5750TIP3    H117191   1.123   3.651   3.813
 5750TIP3    H217192   0.988   3.620   3.751
 5751TIP3   OH217193   0.028   7.180   3.507
 5751TIP3    H117194   0.082   7.159   3.430
 5751TIP3    H217195   0.027   7.276   3.509
 5752TIP3   OH217196   6.404   1.016   1.128
 5752TIP3    H117197   6.463   0.994   1.200
 5752TIP3    H217198   6.331   0.955   1.137
 5753TIP3   OH217199   5.732   4.427   2.661
 5753TIP3    H117200   5.716   4.491   2.592
 5753TIP3    H217201   5.645   4.402   2.691
 5754TIP3   OH217202   7.894   7.726   1.872
 5754TIP3    H117203   7.915   7.633   1.868
 5754TIP3    H217204   7.888   7.753   1.781
 5755TIP3   OH217205   6.509   3.218   4.403
 5755TIP3    H117206   6.590   3.173   4.378
 5755TIP3    H217207   6.514   3.225   4.498
 5756TIP3   OH217208   8.327   0.127   2.404
 5756TIP3    H117209   8.347   0.216   2.377
 5756TIP3    H217210   8.251   0.136   2.461
 5757TIP3   OH217211   6.368   5.739   3.261
 5757TIP3    H117212   6.345   5.818   3.308
 5757TIP3    H217213   6.409   5.683   3.327
 5758TIP3   OH217214   2.102   3.933   5.837
 5758TIP3    H117215   2.131   4.013   5.882
 5758TIP3    H217216   2.177   3.874   5.841
 5759TIP3   OH217217   3.158   1.970   3.039
 5759TIP3    H117218   3.140   2.063   3.052
 5759TIP3    H217219   3.116   1.927   3.114
 5760TIP3   OH217220   3.659   2.106   0.850
 5760TIP3    H117221   3.744   2.122   0.810
 5760TIP3    H217222   3.596   2.142   0.788
 5761TIP3   OH217223   5.989   1.019   3.460
 5761TIP3    H117224   6.042   0.965   3.519
 5761TIP3    H217225   6.043   1.097   3.444
 5762TIP3   OH217226   4.949   6.434   3.663
 5762TIP3    H117227   4.958   6.524   3.695
 5762TIP3    H217228   4.973   6.379   3.737
 5763TIP3   OH217229   3.849   0.434   1.031
 5763TIP3    H117230   3.857   0.365   0.965
 5763TIP3    H217231   3.851   0.516   0.981
 5764TIP3   OH217232   0.589   6.980   0.927
 5764TIP3    H117233   0.535   7.050   0.889
 5764TIP3    H217234   0.554   6.968   1.015
 5765TIP3   OH217235   1.385   4.084   3.401
 5765TIP3    H117236   1.425   4.170   3.397
 5765TIP3    H217237   1.339   4.075   3.317
 5766TIP3   OH217238   7.734   0.427   5.390
 5766TIP3    H117239   7.791   0.504   5.395
 5766TIP3    H217240   7.648   0.462   5.369
 5767TIP3   OH217241   1.628   6.089   4.112
 5767TIP3    H117242   1.647   5.998   4.134
 5767TIP3    H217243   1.567   6.118   4.180
 5768TIP3   OH217244   7.284   7.373   3.979
 5768TIP3    H117245   7.263   7.349   3.889
 5768TIP3    H217246   7.279   7.468   3.980
 5769TIP3   OH217247   2.169   2.235   3.407
 5769TIP3    H117248   2.217   2.303   3.454
 5769TIP3    H217249   2.131   2.280   3.332
 5770TIP3   OH217250   8.370   0.281   6.880
 5770TIP3    H117251   8.281   0.306   6.854
 5770TIP3    H217252   8.426   0.314   6.811
 5771TIP3   OH217253   8.044   7.343   2.298
 5771TIP3    H117254   7.959   7.385   2.282
 5771TIP3    H217255   8.089   7.400   2.360
 5772TIP3   OH217256   1.422   6.752   2.889
 5772TIP3    H117257   1.440   6.763   2.796
 5772TIP3    H217258   1.397   6.660   2.898
 5773TIP3   OH217259   1.651   0.181   6.216
 5773TIP3    H117260   1.656   0.134   6.133
 5773TIP3    H217261   1.707   0.257   6.203
 5774TIP3   OH217262   8.232   2.235   5.450
 5774TIP3    H117263   8.209   2.170   5.517
 5774TIP3    H217264   8.250   2.315   5.500
 5775TIP3   OH217265   2.584   0.891   2.897
 5775TIP3    H117266   2.528   0.839   2.840
 5775TIP3    H217267   2.642   0.938   2.837
 5776TIP3   OH217268   4.791   2.113   3.833
 5776TIP3    H117269   4.804   2.037   3.777
 5776TIP3    H217270   4.836   2.184   3.787
 5777TIP3   OH217271   4.530   7.635   1.255
 5777TIP3    H117272   4.543   7.669   1.343
 5777TIP3    H217273   4.603   7.574   1.241
 5778TIP3   OH217274   2.315   3.588   3.608
 5778TIP3    H117275   2.229   3.546   3.602
 5778TIP3    H217276   2.340   3.577   3.699
 5779TIP3   OH217277   1.589   1.778   5.088
 5779TIP3    H117278   1.512   1.724   5.068
 5779TIP3    H217279   1.654   1.717   5.121
 5780TIP3   OH217280   3.857   7.805   0.354
 5780TIP3    H117281   3.871   7.875   0.291
 5780TIP3    H217282   3.893   7.727   0.311
 5781TIP3   OH217283   0.453   3.123   0.929
 5781TIP3    H117284   0.377   3.064   0.932
 5781TIP3    H217285   0.443   3.178   1.007
 5782TIP3   OH217286   3.963   3.299   6.044
 5782TIP3    H117287   3.950   3.281   6.137
 5782TIP3    H217288   3.942   3.392   6.034
 5783TIP3   OH217289   4.495   4.009   6.833
 5783TIP3    H117290   4.491   3.943   6.764
 5783TIP3    H217291   4.464   4.089   6.791
 5784TIP3   OH217292   7.801   0.461   0.135
 5784TIP3    H117293   7.892   0.492   0.138
 5784TIP3    H217294   7.750   0.538   0.111
 5785TIP3   OH217295   1.096   1.614   4.923
 5785TIP3    H117296   1.140   1.694   4.893
 5785TIP3    H217297   1.093   1.623   5.018
 5786TIP3   OH217298   0.760   6.971   3.316
 5786TIP3    H117299   0.668   6.961   3.292
 5786TIP3    H217300   0.770   6.918   3.395
 5787TIP3   OH217301   6.792   1.112   3.307
 5787TIP3    H117302   6.855   1.119   3.236
 5787TIP3    H217303   6.779   1.202   3.336
 5788TIP3   OH217304   8.123   4.127   3.956
 5788TIP3    H117305   8.045   4.072   3.962
 5788TIP3    H217306   8.149   4.121   3.864
 5789TIP3   OH217307   4.739   0.394   1.729
 5789TIP3    H117308   4.680   0.446   1.674
 5789TIP3    H217309   4.680   0.338   1.780
 5790TIP3   OH217310   1.749   7.513   2.467
 5790TIP3    H117311   1.787   7.433   2.503
 5790TIP3    H217312   1.674   7.484   2.415
 5791TIP3   OH217313   0.820   3.604   3.850
 5791TIP3    H117314   0.811   3.510   3.866
 5791TIP3    H217315   0.803   3.644   3.934
 5792TIP3   OH217316   0.963   7.038   0.136
 5792TIP3    H117317   0.946   6.974   0.205
 5792TIP3    H217318   1.015   6.991   0.071
 5793TIP3   OH217319   2.922   1.711   1.397
 5793TIP3    H117320   2.933   1.617   1.410
 5793TIP3    H217321   2.917   1.748   1.485
 5794TIP3   OH217322   7.273   0.079   2.887
 5794TIP3    H117323   7.238   0.000   2.929
 5794TIP3    H217324   7.201   0.112   2.833
 5795TIP3   OH217325   4.023   5.062   5.888
 5795TIP3    H117326   4.073   5.006   5.828
 5795TIP3    H217327   4.086   5.128   5.916
 5796TIP3   OH217328   5.310   1.294   6.407
 5796TIP3    H117329   5.360   1.365   6.447
 5796TIP3    H217330   5.349   1.283   6.320
 5797TIP3   OH217331   2.070   5.860   0.396
 5797TIP3    H117332   2.022   5.819   0.468
 5797TIP3    H217333   2.160   5.831   0.407
 5798TIP3   OH217334   7.760   0.949   5.094
 5798TIP3    H117335   7.783   1.041   5.108
 5798TIP3    H217336   7.665   0.946   5.107
 5799TIP3   OH217337   6.561   5.285   5.067
 5799TIP3    H117338   6.631   5.300   5.004
 5799TIP3    H217339   6.490   5.343   5.039
 5800TIP3   OH217340   1.673   1.269   0.235
 5800TIP3    H117341   1.622   1.213   0.177
 5800TIP3    H217342   1.674   1.354   0.190
 5801TIP3   OH217343   1.589   1.600   0.338
 5801TIP3    H117344   1.662   1.634   0.389
 5801TIP3    H217345   1.518   1.662   0.353
 5802TIP3   OH217346   2.606   1.869   2.675
 5802TIP3    H117347   2.624   1.951   2.629
 5802TIP3    H217348   2.532   1.830   2.627
 5803TIP3   OH217349   6.266   6.450   3.701
 5803TIP3    H117350   6.172   6.455   3.716
 5803TIP3    H217351   6.304   6.438   3.788
 5804TIP3   OH217352   2.359   4.857   6.253
 5804TIP3    H117353   2.451   4.881   6.263
 5804TIP3    H217354   2.318   4.933   6.212
 5805TIP3   OH217355   0.581   3.479   5.564
 5805TIP3    H117356   0.558   3.470   5.471
 5805TIP3    H217357   0.642   3.554   5.565
 5806TIP3   OH217358   1.788   5.681   0.458
 5806TIP3    H117359   1.802   5.734   0.535
 5806TIP3    H217360   1.712   5.721   0.414
 5807TIP3   OH217361   0.048   2.138   6.789
 5807TIP3    H117362   0.007   2.095   6.714
 5807TIP3    H217363  -0.015   2.128   6.860
 5808TIP3   OH217364   5.925   0.703   4.335
 5808TIP3    H117365   5.999   0.681   4.392
 5808TIP3    H217366   5.893   0.619   4.304
 5809TIP3   OH217367   8.240   4.893   3.175
 5809TIP3    H117368   8.211   4.965   3.120
 5809TIP3    H217369   8.163   4.870   3.227
 5810TIP3   OH217370   7.349   3.854   2.299
 5810TIP3    H117371   7.434   3.853   2.343
 5810TIP3    H217372   7.368   3.890   2.212
 5811TIP3   OH217373   1.272   4.155   1.763
 5811TIP3    H117374   1.210   4.117   1.825
 5811TIP3    H217375   1.218   4.177   1.686
 5812TIP3   OH217376   1.876   1.333   1.906
 5812TIP3    H117377   1.808   1.366   1.966
 5812TIP3    H217378   1.841   1.352   1.818
 5813TIP3   OH217379   5.531   4.683   5.080
 5813TIP3    H117380   5.595   4.713   5.016
 5813TIP3    H217381   5.489   4.763   5.113
 5814TIP3   OH217382   2.866   1.133   1.393
 5814TIP3    H117383   2.771   1.121   1.385
 5814TIP3    H217384   2.885   1.120   1.486
 5815TIP3   OH217385   0.521   5.690   3.150
 5815TIP3    H117386   0.576   5.616   3.176
 5815TIP3    H217387   0.523   5.688   3.054
 5816TIP3   OH217388   1.693   2.244   5.458
 5816TIP3    H117389   1.676   2.185   5.532
 5816TIP3    H217390   1.621   2.307   5.460
 5817TIP3   OH217391   0.287   0.084   4.474
 5817TIP3    H117392   0.217   0.019   4.467
 5817TIP3    H217393   0.242   0.168   4.481
 5818TIP3   OH217394   6.033   5.093   4.413
 5818TIP3    H117395   5.938   5.089   4.411
 5818TIP3    H217396   6.054   5.180   4.378
 5819TIP3   OH217397   8.329   3.214   4.605
 5819TIP3    H117398   8.320   3.269   4.528
 5819TIP3    H217399   8.347   3.127   4.571
 5820TIP3   OH217400   3.053   6.695   1.760
 5820TIP3    H117401   3.042   6.646   1.842
 5820TIP3    H217402   3.038   6.786   1.785
 5821TIP3   OH217403   4.040   3.256   2.663
 5821TIP3    H117404   4.002   3.333   2.621
 5821TIP3    H217405   4.093   3.216   2.594
 5822TIP3   OH217406   1.232   2.124   3.467
 5822TIP3    H117407   1.213   2.145   3.558
 5822TIP3    H217408   1.219   2.206   3.420
 5823TIP3   OH217409   6.899   4.698   3.687
 5823TIP3    H117410   6.936   4.734   3.607
 5823TIP3    H217411   6.910   4.768   3.752
 5824TIP3   OH217412   1.083   2.590   1.133
 5824TIP3    H117413   1.122   2.622   1.215
 5824TIP3    H217414   1.154   2.596   1.069
 5825TIP3   OH217415   6.079   5.901   1.685
 5825TIP3    H117416   6.116   5.875   1.600
 5825TIP3    H217417   6.155   5.928   1.737
 5826TIP3   OH217418   3.121   1.608   5.319
 5826TIP3    H117419   3.092   1.560   5.397
 5826TIP3    H217420   3.097   1.699   5.336
 5827TIP3   OH217421   0.235   4.727   6.330
 5827TIP3    H117422   0.156   4.768   6.296
 5827TIP3    H217423   0.215   4.708   6.422
 5828TIP3   OH217424   7.006   1.152   4.521
 5828TIP3    H117425   7.070   1.203   4.472
 5828TIP3    H217426   7.058   1.085   4.567
 5829TIP3   OH217427   6.068   7.359   2.125
 5829TIP3    H117428   6.105   7.372   2.038
 5829TIP3    H217429   6.108   7.427   2.179
 5830TIP3   OH217430   5.953   0.800   6.530
 5830TIP3    H117431   5.863   0.768   6.542
 5830TIP3    H217432   5.985   0.750   6.454
 5831TIP3   OH217433   8.106   1.768   0.059
 5831TIP3    H117434   8.096   1.792  -0.034
 5831TIP3    H217435   8.029   1.806   0.102
 5832TIP3   OH217436   5.612   1.108   1.312
 5832TIP3    H117437   5.639   1.112   1.220
 5832TIP3    H217438   5.517   1.096   1.308
 5833TIP3   OH217439   6.601   6.160   2.396
 5833TIP3    H117440   6.606   6.096   2.467
 5833TIP3    H217441   6.532   6.220   2.421
 5834TIP3   OH217442   3.789   1.718   5.495
 5834TIP3    H117443   3.878   1.722   5.530
 5834TIP3    H217444   3.782   1.630   5.459
 5835TIP3   OH217445   0.911   5.315   0.170
 5835TIP3    H117446   0.873   5.228   0.158
 5835TIP3    H217447   0.838   5.376   0.157
 5836TIP3   OH217448   5.139   2.648   4.203
 5836TIP3    H117449   5.197   2.605   4.266
 5836TIP3    H217450   5.193   2.661   4.125
 5837TIP3   OH217451   3.087   2.157   4.588
 5837TIP3    H117452   2.998   2.149   4.623
 5837TIP3    H217453   3.135   2.204   4.655
 5838TIP3   OH217454   4.596   5.098   1.956
 5838TIP3    H117455   4.594   5.169   2.020
 5838TIP3    H217456   4.657   5.034   1.992
 5839TIP3   OH217457   5.674   0.505   5.958
 5839TIP3    H117458   5.688   0.510   5.864
 5839TIP3    H217459   5.599   0.446   5.968
 5840TIP3   OH217460   6.741   4.187   0.609
 5840TIP3    H117461   6.707   4.276   0.609
 5840TIP3    H217462   6.757   4.167   0.701
 5841TIP3   OH217463   5.751   1.974   1.896
 5841TIP3    H117464   5.699   1.911   1.846
 5841TIP3    H217465   5.841   1.959   1.866
 5842TIP3   OH217466   1.130   7.603   5.559
 5842TIP3    H117467   1.154   7.615   5.650
 5842TIP3    H217468   1.069   7.675   5.540
 5843TIP3   OH217469   7.344   5.512   4.351
 5843TIP3    H117470   7.284   5.440   4.373
 5843TIP3    H217471   7.398   5.522   4.429
 5844TIP3   OH217472   0.349   4.789   2.730
 5844TIP3    H117473   0.288   4.770   2.801
 5844TIP3    H217474   0.436   4.774   2.768
 5845TIP3   OH217475   6.348   3.854   2.817
 5845TIP3    H117476   6.401   3.857   2.897
 5845TIP3    H217477   6.258   3.840   2.849
 5846TIP3   OH217478   4.980   5.396   5.306
 5846TIP3    H117479   4.975   5.452   5.229
 5846TIP3    H217480   5.042   5.327   5.282
 5847TIP3   OH217481   6.421   0.906   5.471
 5847TIP3    H117482   6.425   0.811   5.467
 5847TIP3    H217483   6.490   0.930   5.533
 5848TIP3   OH217484   3.790   4.244   5.521
 5848TIP3    H117485   3.697   4.256   5.501
 5848TIP3    H217486   3.815   4.322   5.571
 5849TIP3   OH217487   8.186   3.471   4.120
 5849TIP3    H117488   8.276   3.489   4.147
 5849TIP3    H217489   8.174   3.525   4.041
 5850TIP3   OH217490   6.143   3.947   4.924
 5850TIP3    H117491   6.212   3.893   4.886
 5850TIP3    H217492   6.076   3.952   4.855
 5851TIP3   OH217493   0.462   2.209   5.455
 5851TIP3    H117494   0.486   2.170   5.371
 5851TIP3    H217495   0.528   2.277   5.470
 5852TIP3   OH217496   2.760  -0.053   6.168
 5852TIP3    H117497   2.811   0.027   6.185
 5852TIP3    H217498   2.768  -0.067   6.074
 5853TIP3   OH217499   4.466   2.507   4.228
 5853TIP3    H117500   4.509   2.424   4.249
 5853TIP3    H217501   4.520   2.545   4.160
 5854TIP3   OH217502   4.821   1.556   5.522
 5854TIP3    H117503   4.778   1.471   5.511
 5854TIP3    H217504   4.763   1.605   5.580
 5855TIP3   OH217505   1.525   6.257   4.689
 5855TIP3    H117506   1.557   6.263   4.599
 5855TIP3    H217507   1.451   6.196   4.684
 5856TIP3   OH217508   5.916   7.075   5.667
 5856TIP3    H117509   5.822   7.068   5.651
 5856TIP3    H217510   5.954   7.092   5.581
 5857TIP3   OH217511   8.120   2.102   0.767
 5857TIP3    H117512   8.139   2.075   0.678
 5857TIP3    H217513   8.074   2.185   0.758
 5858TIP3   OH217514   3.980   4.393   2.387
 5858TIP3    H117515   3.893   4.364   2.359
 5858TIP3    H217516   3.974   4.399   2.483
 5859TIP3   OH217517   7.576   1.582   0.985
 5859TIP3    H117518   7.624   1.597   1.066
 5859TIP3    H217519   7.644   1.562   0.920
 5860TIP3   OH217520   4.064   0.291   3.447
 5860TIP3    H117521   4.127   0.322   3.381
 5860TIP3    H217522   4.118   0.248   3.513
 5861TIP3   OH217523   2.710   2.935   5.642
 5861TIP3    H117524   2.759   3.005   5.598
 5861TIP3    H217525   2.707   2.963   5.734
 5862TIP3   OH217526   5.191   0.654   1.171
 5862TIP3    H117527   5.213   0.669   1.079
 5862TIP3    H217528   5.114   0.709   1.186
 5863TIP3   OH217529   0.886   1.598   5.272
 5863TIP3    H117530   0.865   1.509   5.244
 5863TIP3    H217531   0.953   1.628   5.210
 5864TIP3   OH217532   1.766   7.015   1.010
 5864TIP3    H117533   1.799   6.985   1.094
 5864TIP3    H217534   1.835   7.071   0.976
 5865TIP3   OH217535   0.463   2.110   6.807
 5865TIP3    H117536   0.426   2.160   6.733
 5865TIP3    H217537   0.554   2.096   6.783
 5866TIP3   OH217538   1.691   5.468   4.528
 5866TIP3    H117539   1.658   5.474   4.618
 5866TIP3    H217540   1.723   5.556   4.508
 5867TIP3   OH217541   7.271   5.454   1.685
 5867TIP3    H117542   7.331   5.423   1.752
 5867TIP3    H217543   7.316   5.436   1.602
 5868TIP3   OH217544   2.012   5.559   3.591
 5868TIP3    H117545   2.066   5.527   3.518
 5868TIP3    H217546   1.934   5.504   3.588
 5869TIP3   OH217547   1.897   6.859   2.424
 5869TIP3    H117548   1.898   6.763   2.426
 5869TIP3    H217549   1.866   6.885   2.511
 5870TIP3   OH217550   1.550   1.530   1.637
 5870TIP3    H117551   1.511   1.617   1.629
 5870TIP3    H217552   1.552   1.496   1.547
 5871TIP3   OH217553   2.450   0.876   3.258
 5871TIP3    H117554   2.451   0.969   3.283
 5871TIP3    H217555   2.406   0.832   3.331
 5872TIP3   OH217556   2.382   0.920   6.810
 5872TIP3    H117557   2.331   0.959   6.882
 5872TIP3    H217558   2.471   0.952   6.824
 5873TIP3   OH217559   4.746   0.330   2.634
 5873TIP3    H117560   4.757   0.236   2.650
 5873TIP3    H217561   4.815   0.352   2.571
 5874TIP3   OH217562   7.313   4.851   5.558
 5874TIP3    H117563   7.265   4.915   5.505
 5874TIP3    H217564   7.310   4.770   5.506
 5875TIP3   OH217565   4.568   1.019   0.671
 5875TIP3    H117566   4.482   0.983   0.646
 5875TIP3    H217567   4.631   0.957   0.636
 5876TIP3   OH217568   5.881   1.978   0.456
 5876TIP3    H117569   5.833   1.943   0.381
 5876TIP3    H217570   5.889   2.072   0.439
 5877TIP3   OH217571   0.675   5.427   1.910
 5877TIP3    H117572   0.760   5.449   1.872
 5877TIP3    H217573   0.651   5.344   1.868
 5878TIP3   OH217574   1.695   7.120   0.343
 5878TIP3    H117575   1.618   7.173   0.361
 5878TIP3    H217576   1.666   7.029   0.357
 5879TIP3   OH217577   1.105   6.556   1.820
 5879TIP3    H117578   1.025   6.606   1.804
 5879TIP3    H217579   1.075   6.477   1.865
 5880TIP3   OH217580   4.174   7.627   2.559
 5880TIP3    H117581   4.244   7.653   2.500
 5880TIP3    H217582   4.096   7.671   2.526
 5881TIP3   OH217583   1.902   0.605   1.422
 5881TIP3    H117584   1.823   0.583   1.372
 5881TIP3    H217585   1.910   0.535   1.487
 5882TIP3   OH217586   7.270   2.051   6.361
 5882TIP3    H117587   7.359   2.085   6.365
 5882TIP3    H217588   7.215   2.129   6.355
 5883TIP3   OH217589   6.340   1.533   1.699
 5883TIP3    H117590   6.323   1.624   1.723
 5883TIP3    H217591   6.270   1.510   1.638
 5884TIP3   OH217592   3.650   5.345   4.252
 5884TIP3    H117593   3.653   5.265   4.200
 5884TIP3    H217594   3.742   5.362   4.274
 5885TIP3   OH217595   6.089   1.589   5.773
 5885TIP3    H117596   6.043   1.670   5.794
 5885TIP3    H217597   6.025   1.537   5.724
 5886TIP3   OH217598   6.741   2.321   5.380
 5886TIP3    H117599   6.692   2.239   5.374
 5886TIP3    H217600   6.818   2.307   5.325
 5887TIP3   OH217601   6.717   1.599   1.776
 5887TIP3    H117602   6.658   1.537   1.818
 5887TIP3    H217603   6.798   1.593   1.826
 5888TIP3   OH217604   8.098   7.561   2.564
 5888TIP3    H117605   8.084   7.647   2.525
 5888TIP3    H217606   8.169   7.573   2.626
 5889TIP3   OH217607   1.632   5.550   6.075
 5889TIP3    H117608   1.547   5.593   6.085
 5889TIP3    H217609   1.611   5.457   6.065
 5890TIP3   OH217610   5.673   0.301   2.579
 5890TIP3    H117611   5.660   0.245   2.656
 5890TIP3    H217612   5.762   0.334   2.588
 5891TIP3   OH217613   1.331   5.699   2.797
 5891TIP3    H117614   1.374   5.784   2.793
 5891TIP3    H217615   1.390   5.644   2.850
 5892TIP3   OH217616   2.820   4.226   3.325
 5892TIP3    H117617   2.802   4.317   3.349
 5892TIP3    H217618   2.911   4.226   3.295
 5893TIP3   OH217619   0.236   2.858   3.072
 5893TIP3    H117620   0.251   2.793   3.004
 5893TIP3    H217621   0.279   2.821   3.150
 5894TIP3   OH217622   3.860   2.051   4.670
 5894TIP3    H117623   3.865   2.016   4.581
 5894TIP3    H217624   3.782   2.010   4.708
 5895TIP3   OH217625   4.493   7.083   3.431
 5895TIP3    H117626   4.456   6.995   3.440
 5895TIP3    H217627   4.500   7.097   3.337
 5896TIP3   OH217628   5.487   4.952   4.555
 5896TIP3    H117629   5.429   4.954   4.479
 5896TIP3    H217630   5.433   4.915   4.625
 5897TIP3   OH217631   2.160   5.182   3.007
 5897TIP3    H117632   2.249   5.173   2.973
 5897TIP3    H217633   2.104   5.150   2.937
 5898TIP3   OH217634   1.174   3.409   2.079
 5898TIP3    H117635   1.232   3.337   2.054
 5898TIP3    H217636   1.172   3.466   2.002
 5899TIP3   OH217637   6.170   2.257   0.847
 5899TIP3    H117638   6.113   2.184   0.823
 5899TIP3    H217639   6.160   2.319   0.775
 5900TIP3   OH217640   1.894   5.908   0.187
 5900TIP3    H117641   1.809   5.889   0.226
 5900TIP3    H217642   1.957   5.867   0.248
 5901TIP3   OH217643   8.404   1.210   4.548
 5901TIP3    H117644   8.331   1.150   4.531
 5901TIP3    H217645   8.408   1.217   4.643
 5902TIP3   OH217646   2.755   1.398   3.366
 5902TIP3    H117647   2.793   1.321   3.324
 5902TIP3    H217648   2.830   1.444   3.403
 5903TIP3   OH217649   6.621   4.041   5.528
 5903TIP3    H117650   6.557   4.043   5.457
 5903TIP3    H217651   6.661   3.954   5.521
 5904TIP3   OH217652   3.277   4.212   1.599
 5904TIP3    H117653   3.322   4.199   1.682
 5904TIP3    H217654   3.222   4.289   1.612
 5905TIP3   OH217655   6.783   0.929   2.625
 5905TIP3    H117656   6.709   0.885   2.583
 5905TIP3    H217657   6.856   0.918   2.564
 5906TIP3   OH217658   6.700   1.325   5.938
 5906TIP3    H117659   6.605   1.329   5.937
 5906TIP3    H217660   6.720   1.238   5.972
 5907TIP3   OH217661   4.431   0.900   3.930
 5907TIP3    H117662   4.511   0.950   3.915
 5907TIP3    H217663   4.399   0.930   4.015
 5908TIP3   OH217664   2.606   2.915   5.048
 5908TIP3    H117665   2.575   2.841   5.100
 5908TIP3    H217666   2.589   2.992   5.102
 5909TIP3   OH217667   1.051   7.376   6.094
 5909TIP3    H117668   0.969   7.347   6.135
 5909TIP3    H217669   1.027   7.453   6.043
 5910TIP3   OH217670   6.524  -0.015   1.301
 5910TIP3    H117671   6.457  -0.047   1.240
 5910TIP3    H217672   6.565   0.058   1.255
 5911TIP3   OH217673   6.285   4.866   5.321
 5911TIP3    H117674   6.241   4.851   5.404
 5911TIP3    H217675   6.323   4.953   5.328
 5912TIP3   OH217676   5.434   3.756   3.591
 5912TIP3    H117677   5.522   3.724   3.571
 5912TIP3    H217678   5.381   3.676   3.599
 5913TIP3   OH217679   4.016   1.037   6.656
 5913TIP3    H117680   4.025   1.008   6.566
 5913TIP3    H217681   4.106   1.053   6.685
 5914TIP3   OH217682   3.880   2.438   2.718
 5914TIP3    H117683   3.846   2.349   2.730
 5914TIP3    H217684   3.938   2.431   2.642
 5915TIP3   OH217685   4.968   1.050   4.269
 5915TIP3    H117686   4.994   0.962   4.243
 5915TIP3    H217687   4.962   1.046   4.364
 5916TIP3   OH217688   7.162   1.505   1.302
 5916TIP3    H117689   7.233   1.462   1.349
 5916TIP3    H217690   7.204   1.546   1.227
 5917TIP3   OH217691   0.876   5.099   1.090
 5917TIP3    H117692   0.783   5.098   1.065
 5917TIP3    H217693   0.881   5.041   1.165
 5918TIP3   OH217694   7.431   0.622   2.681
 5918TIP3    H117695   7.406   0.562   2.611
 5918TIP3    H217696   7.429   0.709   2.640
 5919TIP3   OH217697   7.410   6.377   4.110
 5919TIP3    H117698   7.459   6.332   4.041
 5919TIP3    H217699   7.471   6.444   4.142
 5920TIP3   OH217700   1.785   1.452   4.294
 5920TIP3    H117701   1.877   1.454   4.323
 5920TIP3    H217702   1.783   1.510   4.218
 5921TIP3   OH217703   1.435   3.295   3.916
 5921TIP3    H117704   1.358   3.239   3.926
 5921TIP3    H217705   1.479   3.291   4.001
 5922TIP3   OH217706   6.389   2.518   1.730
 5922TIP3    H117707   6.414   2.512   1.823
 5922TIP3    H217708   6.347   2.434   1.711
 5923TIP3   OH217709   2.477   2.578   1.734
 5923TIP3    H117710   2.506   2.609   1.820
 5923TIP3    H217711   2.478   2.656   1.679
 5924TIP3   OH217712   0.250   6.777   6.283
 5924TIP3    H117713   0.272   6.857   6.235
 5924TIP3    H217714   0.163   6.753   6.250
 5925TIP3   OH217715   0.098   0.335   2.045
 5925TIP3    H117716   0.107   0.240   2.050
 5925TIP3    H217717   0.062   0.350   1.957
 5926TIP3   OH217718   4.834   7.691   4.310
 5926TIP3    H117719   4.798   7.773   4.277
 5926TIP3    H217720   4.774   7.624   4.279
 5927TIP3   OH217721   6.065   7.643   1.894
 5927TIP3    H117722   6.096   7.682   1.812
 5927TIP3    H217723   6.143   7.642   1.950
 5928TIP3   OH217724   4.701   4.143   2.222
 5928TIP3    H117725   4.796   4.136   2.235
 5928TIP3    H217726   4.689   4.224   2.172
 5929TIP3   OH217727   0.487   0.535   6.580
 5929TIP3    H117728   0.508   0.541   6.487
 5929TIP3    H217729   0.444   0.618   6.600
 5930TIP3   OH217730   7.226   6.459   1.023
 5930TIP3    H117731   7.269   6.393   0.969
 5930TIP3    H217732   7.246   6.433   1.113
 5931TIP3   OH217733   0.618   2.407   0.466
 5931TIP3    H117734   0.654   2.371   0.385
 5931TIP3    H217735   0.550   2.468   0.437
 5932TIP3   OH217736   5.450   4.285   0.082
 5932TIP3    H117737   5.440   4.227   0.007
 5932TIP3    H217738   5.477   4.227   0.153
 5933TIP3   OH217739   6.786   4.234   2.681
 5933TIP3    H117740   6.770   4.166   2.746
 5933TIP3    H217741   6.731   4.308   2.710
 5934TIP3   OH217742   4.792   0.771   2.653
 5934TIP3    H117743   4.820   0.692   2.699
 5934TIP3    H217744   4.824   0.843   2.708
 5935TIP3   OH217745   1.559   4.365   5.990
 5935TIP3    H117746   1.477   4.334   6.029
 5935TIP3    H217747   1.610   4.286   5.975
 5936TIP3   OH217748   6.201   2.726   3.742
 5936TIP3    H117749   6.201   2.636   3.776
 5936TIP3    H217750   6.279   2.731   3.687
 5937TIP3   OH217751   5.448   6.662   1.544
 5937TIP3    H117752   5.387   6.679   1.472
 5937TIP3    H217753   5.525   6.625   1.501
 5938TIP3   OH217754   1.942   3.457   6.724
 5938TIP3    H117755   1.942   3.397   6.650
 5938TIP3    H217756   1.849   3.470   6.744
 5939TIP3   OH217757   1.043   4.538   4.822
 5939TIP3    H117758   1.138   4.537   4.833
 5939TIP3    H217759   1.010   4.596   4.890
 5940TIP3   OH217760   4.407   3.154   0.571
 5940TIP3    H117761   4.377   3.233   0.616
 5940TIP3    H217762   4.495   3.138   0.604
 5941TIP3   OH217763   5.406   1.214   0.417
 5941TIP3    H117764   5.312   1.198   0.408
 5941TIP3    H217765   5.430   1.261   0.337
 5942TIP3   OH217766   8.290   2.879   5.471
 5942TIP3    H117767   8.371   2.925   5.448
 5942TIP3    H217768   8.319   2.808   5.528
 5943TIP3   OH217769   1.232   2.114   3.786
 5943TIP3    H117770   1.303   2.172   3.813
 5943TIP3    H217771   1.225   2.050   3.858
 5944TIP3   OH217772   6.434   1.836   2.493
 5944TIP3    H117773   6.471   1.754   2.524
 5944TIP3    H217774   6.406   1.882   2.573
 5945TIP3   OH217775   0.404   7.402   2.114
 5945TIP3    H117776   0.419   7.481   2.062
 5945TIP3    H217777   0.308   7.392   2.115
 5946TIP3   OH217778   1.858   7.314   5.841
 5946TIP3    H117779   1.850   7.380   5.909
 5946TIP3    H217780   1.852   7.363   5.759
 5947TIP3   OH217781   8.098   2.315   3.952
 5947TIP3    H117782   8.022   2.359   3.917
 5947TIP3    H217783   8.154   2.297   3.876
 5948TIP3   OH217784   4.238   2.251   1.488
 5948TIP3    H117785   4.211   2.325   1.542
 5948TIP3    H217786   4.282   2.191   1.549
 5949TIP3   OH217787   5.062   5.904   5.553
 5949TIP3    H117788   5.113   5.823   5.549
 5949TIP3    H217789   5.091   5.947   5.633
 5950TIP3   OH217790   3.457   0.239   6.486
 5950TIP3    H117791   3.539   0.281   6.460
 5950TIP3    H217792   3.389   0.302   6.462
 5951TIP3   OH217793   2.236   5.524   0.236
 5951TIP3    H117794   2.258   5.617   0.242
 5951TIP3    H217795   2.165   5.512   0.299
 5952TIP3   OH217796   0.946   5.940   6.322
 5952TIP3    H117797   0.890   5.862   6.318
 5952TIP3    H217798   0.900   6.005   6.269
 5953TIP3   OH217799   3.571   3.362   3.772
 5953TIP3    H117800   3.544   3.343   3.682
 5953TIP3    H217801   3.632   3.435   3.763
 5954TIP3   OH217802   1.490   7.546   3.331
 5954TIP3    H117803   1.499   7.453   3.352
 5954TIP3    H217804   1.398   7.566   3.352
 5955TIP3   OH217805   5.629   1.850   5.638
 5955TIP3    H117806   5.563   1.794   5.678
 5955TIP3    H217807   5.676   1.792   5.578
 5956TIP3   OH217808   3.031   0.450   0.595
 5956TIP3    H117809   2.976   0.448   0.673
 5956TIP3    H217810   3.104   0.508   0.618
 5957TIP3   OH217811   2.248   1.157   2.742
 5957TIP3    H117812   2.224   1.154   2.649
 5957TIP3    H217813   2.205   1.081   2.781
 5958TIP3   OH217814   5.006   2.255   1.367
 5958TIP3    H117815   5.085   2.308   1.382
 5958TIP3    H217816   4.985   2.269   1.275
 5959TIP3   OH217817   3.556   1.100   4.914
 5959TIP3    H117818   3.573   1.117   4.822
 5959TIP3    H217819   3.524   1.183   4.949
 5960TIP3   OH217820   4.688   5.525   3.016
 5960TIP3    H117821   4.780   5.530   2.993
 5960TIP3    H217822   4.659   5.440   2.983
 5961TIP3   OH217823   0.473   4.668   6.238
 5961TIP3    H117824   0.381   4.674   6.264
 5961TIP3    H217825   0.478   4.590   6.183
 5962TIP3   OH217826   7.054   3.223   3.583
 5962TIP3    H117827   7.069   3.293   3.646
 5962TIP3    H217828   7.122   3.159   3.602
 5963TIP3   OH217829   2.588   0.813   2.099
 5963TIP3    H117830   2.557   0.763   2.023
 5963TIP3    H217831   2.509   0.829   2.151
 5964TIP3   OH217832   7.417   6.170   2.370
 5964TIP3    H117833   7.510   6.191   2.380
 5964TIP3    H217834   7.410   6.134   2.281
 5965TIP3   OH217835   0.684   3.174   2.395
 5965TIP3    H117836   0.595   3.156   2.364
 5965TIP3    H217837   0.701   3.264   2.366
 5966TIP3   OH217838   8.200   5.874   2.159
 5966TIP3    H117839   8.203   5.778   2.161
 5966TIP3    H217840   8.153   5.897   2.240
 5967TIP3   OH217841   6.161   2.319   2.440
 5967TIP3    H117842   6.095   2.362   2.386
 5967TIP3    H217843   6.228   2.386   2.454
 5968TIP3   OH217844   5.641   1.083   2.364
 5968TIP3    H117845   5.648   1.082   2.268
 5968TIP3    H217846   5.606   0.996   2.386
 5969TIP3   OH217847   5.733   7.701   5.770
 5969TIP3    H117848   5.773   7.635   5.713
 5969TIP3    H217849   5.685   7.651   5.836
 5970TIP3   OH217850   7.311   1.625   5.544
 5970TIP3    H117851   7.388   1.568   5.539
 5970TIP3    H217852   7.302   1.661   5.456
 5971TIP3   OH217853   2.471   1.475   2.392
 5971TIP3    H117854   2.406   1.433   2.336
 5971TIP3    H217855   2.458   1.437   2.478
 5972TIP3   OH217856   7.309   1.536   0.266
 5972TIP3    H117857   7.353   1.476   0.326
 5972TIP3    H217858   7.229   1.490   0.241
 5973TIP3   OH217859   2.779   3.759   4.478
 5973TIP3    H117860   2.759   3.795   4.565
 5973TIP3    H217861   2.763   3.665   4.487
 5974TIP3   OH217862   3.947   5.872   3.034
 5974TIP3    H117863   3.988   5.956   3.056
 5974TIP3    H217864   4.011   5.806   3.060
 5975TIP3   OH217865   6.434   7.553   3.794
 5975TIP3    H117866   6.413   7.635   3.750
 5975TIP3    H217867   6.361   7.495   3.772
 5976TIP3   OH217868   6.523   0.036   3.329
 5976TIP3    H117869   6.452   0.100   3.328
 5976TIP3    H217870   6.513  -0.010   3.413
 5977TIP3   OH217871   4.782   0.635   1.422
 5977TIP3    H117872   4.792   0.730   1.428
 5977TIP3    H217873   4.693   0.622   1.390
 5978TIP3   OH217874   7.445   6.061   3.271
 5978TIP3    H117875   7.482   6.128   3.329
 5978TIP3    H217876   7.461   6.095   3.183
 5979TIP3   OH217877   2.930   4.162   5.051
 5979TIP3    H117878   2.903   4.244   5.010
 5979TIP3    H217879   2.901   4.169   5.141
 5980TIP3   OH217880   6.421   5.560   6.354
 5980TIP3    H117881   6.350   5.578   6.292
 5980TIP3    H217882   6.482   5.505   6.305
 5981TIP3   OH217883   7.976   7.108   6.157
 5981TIP3    H117884   7.937   7.029   6.120
 5981TIP3    H217885   7.909   7.142   6.216
 5982TIP3   OH217886   3.480   6.922   6.443
 5982TIP3    H117887   3.464   6.912   6.349
 5982TIP3    H217888   3.447   6.840   6.482
 5983TIP3   OH217889   4.209   3.833   4.318
 5983TIP3    H117890   4.281   3.864   4.263
 5983TIP3    H217891   4.234   3.858   4.406
 5984TIP3   OH217892   7.557   4.575   4.814
 5984TIP3    H117893   7.565   4.500   4.755
 5984TIP3    H217894   7.644   4.586   4.853
 5985TIP3   OH217895   6.110   6.285   5.990
 5985TIP3    H117896   6.138   6.342   5.919
 5985TIP3    H217897   6.079   6.345   6.058
 5986TIP3   OH217898   1.508   6.297   1.620
 5986TIP3    H117899   1.430   6.270   1.667
 5986TIP3    H217900   1.475   6.339   1.540
 5987TIP3   OH217901   5.783   7.360   3.162
 5987TIP3    H117902   5.806   7.338   3.071
 5987TIP3    H217903   5.705   7.415   3.154
 5988TIP3   OH217904   0.150   1.799   4.736
 5988TIP3    H117905   0.069   1.829   4.695
 5988TIP3    H217906   0.216   1.810   4.668
 5989TIP3   OH217907   2.495   1.540   4.589
 5989TIP3    H117908   2.561   1.470   4.586
 5989TIP3    H217909   2.506   1.579   4.675
 5990TIP3   OH217910   4.666   1.092   2.621
 5990TIP3    H117911   4.597   1.104   2.687
 5990TIP3    H217912   4.652   1.002   2.590
 5991TIP3   OH217913   8.007   0.115   4.504
 5991TIP3    H117914   7.950   0.053   4.550
 5991TIP3    H217915   7.947   0.170   4.454
 5992TIP3   OH217916   7.724   1.854   5.599
 5992TIP3    H117917   7.779   1.776   5.586
 5992TIP3    H217918   7.747   1.884   5.687
 5993TIP3   OH217919   7.323   5.576   0.562
 5993TIP3    H117920   7.231   5.601   0.567
 5993TIP3    H217921   7.324   5.493   0.514
 5994TIP3   OH217922   5.951   0.752   5.617
 5994TIP3    H117923   6.038   0.722   5.644
 5994TIP3    H217924   5.926   0.693   5.547
 5995TIP3   OH217925   8.380   7.003   1.629
 5995TIP3    H117926   8.330   7.084   1.623
 5995TIP3    H217927   8.339   6.944   1.565
 5996TIP3   OH217928   7.727   0.535   2.621
 5996TIP3    H117929   7.699   0.592   2.692
 5996TIP3    H217930   7.749   0.595   2.549
 5997TIP3   OH217931   0.919   6.367   5.599
 5997TIP3    H117932   0.843   6.373   5.540
 5997TIP3    H217933   0.985   6.424   5.559
 5998TIP3   OH217934   4.579   2.898   3.561
 5998TIP3    H117935   4.642   2.961   3.525
 5998TIP3    H217936   4.556   2.934   3.647
 5999TIP3   OH217937   5.941   0.163   2.144
 5999TIP3    H117938   5.956   0.256   2.130
 5999TIP3    H217939   5.912   0.130   2.059
 6000TIP3   OH217940   7.601   5.788   5.426
 6000TIP3    H117941   7.507   5.795   5.405
 6000TIP3    H217942   7.645   5.823   5.348
 6001TIP3   OH217943   5.462   0.054   3.291
 6001TIP3    H117944   5.449   0.138   3.335
 6001TIP3    H217945   5.374   0.028   3.264
 6002TIP3   OH217946   4.089   2.665   3.740
 6002TIP3    H117947   4.032   2.628   3.672
 6002TIP3    H217948   4.155   2.714   3.691
 6003TIP3   OH217949   3.224   7.091   2.818
 6003TIP3    H117950   3.188   7.003   2.806
 6003TIP3    H217951   3.312   7.076   2.852
 6004TIP3   OH217952   8.110   5.352   0.396
 6004TIP3    H117953   8.115   5.308   0.481
 6004TIP3    H217954   8.201   5.368   0.372
 6005TIP3   OH217955  -0.006   3.874   1.777
 6005TIP3    H117956   0.046   3.820   1.836
 6005TIP3    H217957   0.043   3.956   1.771
 6006TIP3   OH217958   6.139   5.722   1.901
 6006TIP3    H117959   6.064   5.714   1.843
 6006TIP3    H217960   6.139   5.813   1.930
 6007TIP3   OH217961   4.126   0.155   0.928
 6007TIP3    H117962   4.172   0.102   0.863
 6007TIP3    H217963   4.099   0.233   0.881
 6008TIP3   OH217964   3.663   4.596   0.161
 6008TIP3    H117965   3.702   4.618   0.076
 6008TIP3    H217966   3.585   4.650   0.166
 6009TIP3   OH217967   2.596   4.370   0.727
 6009TIP3    H117968   2.633   4.457   0.712
 6009TIP3    H217969   2.553   4.348   0.644
 6010TIP3   OH217970   7.204   7.232   1.906
 6010TIP3    H117971   7.180   7.169   1.973
 6010TIP3    H217972   7.171   7.316   1.938
 6011TIP3   OH217973   4.171   5.641   3.096
 6011TIP3    H117974   4.251   5.666   3.049
 6011TIP3    H217975   4.126   5.581   3.036
 6012TIP3   OH217976   4.928   2.360   1.116
 6012TIP3    H117977   4.912   2.449   1.148
 6012TIP3    H217978   4.841   2.328   1.092
 6013TIP3   OH217979   1.612   1.430   1.385
 6013TIP3    H117980   1.655   1.350   1.355
 6013TIP3    H217981   1.618   1.490   1.311
 6014TIP3   OH217982   1.794   7.566   2.187
 6014TIP3    H117983   1.827   7.623   2.257
 6014TIP3    H217984   1.832   7.481   2.206
 6015TIP3   OH217985   1.299   0.772   3.790
 6015TIP3    H117986   1.253   0.737   3.866
 6015TIP3    H217987   1.391   0.774   3.817
 6016TIP3   OH217988   8.082   1.267   5.657
 6016TIP3    H117989   8.050   1.314   5.580
 6016TIP3    H217990   8.116   1.185   5.622
 6017TIP3   OH217991   5.927   3.196   1.113
 6017TIP3    H117992   5.850   3.209   1.057
 6017TIP3    H217993   5.982   3.134   1.064
 6018TIP3   OH217994   2.459   3.669   0.105
 6018TIP3    H117995   2.471   3.705   0.018
 6018TIP3    H217996   2.523   3.598   0.111
 6019TIP3   OH217997   5.080   3.370   5.832
 6019TIP3    H117998   5.072   3.438   5.765
 6019TIP3    H217999   5.072   3.418   5.915
 6020TIP3   OH218000   2.290   5.017   1.469
 6020TIP3    H118001   2.220   5.083   1.473
 6020TIP3    H218002   2.340   5.040   1.391
 6021TIP3   OH218003   2.979   0.577   6.466
 6021TIP3    H118004   2.915   0.648   6.477
 6021TIP3    H218005   3.031   0.604   6.390
 6022TIP3   OH218006   6.334   5.505   1.892
 6022TIP3    H118007   6.318   5.453   1.971
 6022TIP3    H218008   6.255   5.559   1.882
 6023TIP3   OH218009   1.345   4.680   1.284
 6023TIP3    H118010   1.416   4.736   1.316
 6023TIP3    H218011   1.278   4.741   1.253
 6024TIP3   OH218012   2.183   7.677   1.072
 6024TIP3    H118013   2.278   7.664   1.082
 6024TIP3    H218014   2.163   7.644   0.985
 6025TIP3   OH218015   1.238   5.972   4.420
 6025TIP3    H118016   1.251   5.882   4.391
 6025TIP3    H218017   1.149   5.993   4.393
 6026TIP3   OH218018   3.510   4.664   1.007
 6026TIP3    H118019   3.420   4.655   1.038
 6026TIP3    H218020   3.534   4.754   1.028
 6027TIP3   OH218021   8.309   2.344   2.068
 6027TIP3    H118022   8.399   2.375   2.078
 6027TIP3    H218023   8.295   2.345   1.973
 6028TIP3   OH218024   1.852   7.267   0.682
 6028TIP3    H118025   1.884   7.239   0.768
 6028TIP3    H218026   1.787   7.201   0.658
 6029TIP3   OH218027   0.069   3.497   4.230
 6029TIP3    H118028   0.102   3.448   4.305
 6029TIP3    H218029   0.123   3.467   4.157
 6030TIP3   OH218030   7.249   7.410   1.136
 6030TIP3    H118031   7.284   7.489   1.177
 6030TIP3    H218032   7.156   7.410   1.158
 6031TIP3   OH218033   1.462   5.370   4.837
 6031TIP3    H118034   1.470   5.284   4.879
 6031TIP3    H218035   1.512   5.429   4.893
 6032TIP3   OH218036   7.918   1.088   4.670
 6032TIP3    H118037   7.835   1.087   4.717
 6032TIP3    H218038   7.942   1.180   4.664
 6033TIP3   OH218039   6.219   7.916   1.934
 6033TIP3    H118040   6.178   7.933   2.019
 6033TIP3    H218041   6.271   7.837   1.949
 6034TIP3   OH218042   0.823   2.990   0.106
 6034TIP3    H118043   0.787   3.071   0.143
 6034TIP3    H218044   0.908   2.980   0.148
 6035TIP3   OH218045   6.984   4.068   0.658
 6035TIP3    H118046   6.889   4.062   0.673
 6035TIP3    H218047   6.997   4.156   0.624
 6036TIP3   OH218048   6.668   5.801   4.657
 6036TIP3    H118049   6.701   5.739   4.592
 6036TIP3    H218050   6.589   5.838   4.617
 6037TIP3   OH218051   1.876   3.536   2.388
 6037TIP3    H118052   1.947   3.568   2.333
 6037TIP3    H218053   1.920   3.489   2.458
 6038TIP3   OH218054   6.415   3.481   2.797
 6038TIP3    H118055   6.381   3.396   2.824
 6038TIP3    H218056   6.484   3.501   2.860
 6039TIP3   OH218057   2.561   7.039   0.932
 6039TIP3    H118058   2.474   7.044   0.892
 6039TIP3    H218059   2.597   6.955   0.903
 6040TIP3   OH218060   7.469   2.940   0.938
 6040TIP3    H118061   7.561   2.920   0.953
 6040TIP3    H218062   7.421   2.885   1.000
 6041TIP3   OH218063   6.460   0.924   1.819
 6041TIP3    H118064   6.409   0.844   1.809
 6041TIP3    H218065   6.551   0.895   1.825
 6042TIP3   OH218066   2.207   7.793   0.460
 6042TIP3    H118067   2.123   7.778   0.503
 6042TIP3    H218068   2.184   7.823   0.372
 6043TIP3   OH218069   0.881   1.384   4.204
 6043TIP3    H118070   0.841   1.451   4.149
 6043TIP3    H218071   0.816   1.314   4.208
 6044TIP3   OH218072   1.214   6.114   0.513
 6044TIP3    H118073   1.123   6.129   0.537
 6044TIP3    H218074   1.237   6.188   0.457
 6045TIP3   OH218075   3.805   6.553   5.256
 6045TIP3    H118076   3.739   6.618   5.230
 6045TIP3    H218077   3.767   6.469   5.230
 6046TIP3   OH218078   4.849   0.841   5.515
 6046TIP3    H118079   4.757   0.863   5.528
 6046TIP3    H218080   4.854   0.746   5.530
 6047TIP3   OH218081   5.078   2.799   1.970
 6047TIP3    H118082   5.075   2.865   2.039
 6047TIP3    H218083   5.157   2.821   1.920
 6048TIP3   OH218084   8.225   1.778   6.125
 6048TIP3    H118085   8.141   1.752   6.086
 6048TIP3    H218086   8.206   1.862   6.168
 6049TIP3   OH218087   2.298   0.767   3.642
 6049TIP3    H118088   2.256   0.812   3.568
 6049TIP3    H218089   2.231   0.765   3.710
 6050TIP3   OH218090   1.819   0.999   2.909
 6050TIP3    H118091   1.762   1.065   2.948
 6050TIP3    H218092   1.776   0.975   2.827
 6051TIP3   OH218093   6.928   7.098   4.453
 6051TIP3    H118094   6.968   7.181   4.479
 6051TIP3    H218095   6.838   7.104   4.486
 6052TIP3   OH218096   2.451   1.556   6.777
 6052TIP3    H118097   2.355   1.548   6.781
 6052TIP3    H218098   2.472   1.545   6.685
 6053TIP3   OH218099   2.651   7.743   0.408
 6053TIP3    H118100   2.623   7.672   0.351
 6053TIP3    H218101   2.569   7.789   0.430
 6054TIP3   OH218102   1.708   0.708   2.467
 6054TIP3    H118103   1.673   0.797   2.471
 6054TIP3    H218104   1.671   0.671   2.387
 6055TIP3   OH218105   4.851   6.470   3.227
 6055TIP3    H118106   4.922   6.523   3.264
 6055TIP3    H218107   4.896   6.398   3.183
 6056TIP3   OH218108   0.454   0.834   2.605
 6056TIP3    H118109   0.375   0.797   2.645
 6056TIP3    H218110   0.429   0.852   2.515
 6057TIP3   OH218111   1.376   1.457   6.664
 6057TIP3    H118112   1.438   1.445   6.592
 6057TIP3    H218113   1.415   1.526   6.718
 6058TIP3   OH218114   5.243   6.509   2.735
 6058TIP3    H118115   5.185   6.526   2.661
 6058TIP3    H218116   5.225   6.580   2.796
 6059TIP3   OH218117   1.893   0.563   2.914
 6059TIP3    H118118   1.983   0.544   2.886
 6059TIP3    H218119   1.841   0.492   2.878
 6060TIP3   OH218120   3.464   7.843   1.210
 6060TIP3    H118121   3.433   7.852   1.120
 6060TIP3    H218122   3.493   7.752   1.217
 6061TIP3   OH218123   7.496   4.269   1.061
 6061TIP3    H118124   7.587   4.239   1.060
 6061TIP3    H218125   7.498   4.354   1.017
 6062TIP3   OH218126   0.092   3.411   0.416
 6062TIP3    H118127   0.046   3.334   0.449
 6062TIP3    H218128   0.024   3.478   0.406
 6063TIP3   OH218129   5.533   1.643   6.693
 6063TIP3    H118130   5.523   1.717   6.633
 6063TIP3    H218131   5.576   1.576   6.641
 6064TIP3   OH218132   2.656   7.849   3.659
 6064TIP3    H118133   2.736   7.896   3.634
 6064TIP3    H218134   2.626   7.894   3.738
 6065TIP3   OH218135  -0.049   6.492   4.283
 6065TIP3    H118136  -0.039   6.491   4.188
 6065TIP3    H218137   0.022   6.549   4.314
 6066TIP3   OH218138   2.473   3.863   6.105
 6066TIP3    H118139   2.521   3.935   6.146
 6066TIP3    H218140   2.483   3.790   6.166
 6067TIP3   OH218141   4.194   1.055   1.759
 6067TIP3    H118142   4.115   1.104   1.739
 6067TIP3    H218143   4.191   0.980   1.700
 6068TIP3   OH218144   6.635   3.624   5.088
 6068TIP3    H118145   6.714   3.576   5.114
 6068TIP3    H218146   6.602   3.661   5.170
 6069TIP3   OH218147   2.560   5.199   3.481
 6069TIP3    H118148   2.528   5.230   3.566
 6069TIP3    H218149   2.488   5.218   3.420
 6070TIP3   OH218150   4.987   3.284   4.667
 6070TIP3    H118151   4.956   3.244   4.748
 6070TIP3    H218152   5.076   3.249   4.655
 6071TIP3   OH218153   8.317   0.029   2.820
 6071TIP3    H118154   8.371  -0.050   2.816
 6071TIP3    H218155   8.380   0.101   2.821
 6072TIP3   OH218156   5.255   5.589   5.749
 6072TIP3    H118157   5.243   5.516   5.688
 6072TIP3    H218158   5.193   5.656   5.719
 6073TIP3   OH218159   3.958   1.880   4.131
 6073TIP3    H118160   3.946   1.904   4.039
 6073TIP3    H218161   3.991   1.959   4.173
 6074TIP3   OH218162   7.087   2.215   3.079
 6074TIP3    H118163   7.031   2.140   3.059
 6074TIP3    H218164   7.127   2.238   2.995
 6075TIP3   OH218165   7.879   5.914   0.878
 6075TIP3    H118166   7.834   5.853   0.820
 6075TIP3    H218167   7.919   5.978   0.819
 6076TIP3   OH218168   7.857   2.017   5.425
 6076TIP3    H118169   7.871   1.947   5.362
 6076TIP3    H218170   7.779   1.990   5.474
 6077TIP3   OH218171   7.109   3.891   0.479
 6077TIP3    H118172   7.201   3.915   0.479
 6077TIP3    H218173   7.064   3.969   0.510
 6078TIP3   OH218174   3.309   2.431   4.197
 6078TIP3    H118175   3.355   2.386   4.125
 6078TIP3    H218176   3.265   2.361   4.245
 6079TIP3   OH218177   7.699   7.850   3.535
 6079TIP3    H118178   7.732   7.923   3.483
 6079TIP3    H218179   7.776   7.796   3.552
 6080TIP3   OH218180   1.740   7.097   6.474
 6080TIP3    H118181   1.651   7.109   6.439
 6080TIP3    H218182   1.742   7.006   6.503
 6081TIP3   OH218183   3.471   2.873   0.359
 6081TIP3    H118184   3.476   2.952   0.304
 6081TIP3    H218185   3.537   2.815   0.322
 6082TIP3   OH218186   8.247   4.898   1.919
 6082TIP3    H118187   8.207   4.921   1.835
 6082TIP3    H218188   8.316   4.835   1.896
 6083TIP3   OH218189   1.819   4.770   0.116
 6083TIP3    H118190   1.889   4.724   0.071
 6083TIP3    H218191   1.759   4.798   0.046
 6084TIP3   OH218192   2.924   0.088   5.011
 6084TIP3    H118193   2.982   0.016   4.984
 6084TIP3    H218194   2.837   0.059   4.987
 6085TIP3   OH218195   0.768   1.450   2.891
 6085TIP3    H118196   0.703   1.493   2.948
 6085TIP3    H218197   0.744   1.357   2.894
 6086TIP3   OH218198   2.564   3.010   6.334
 6086TIP3    H118199   2.472   3.035   6.331
 6086TIP3    H218200   2.584   2.982   6.244
 6087TIP3   OH218201   4.724   2.796   1.887
 6087TIP3    H118202   4.648   2.768   1.836
 6087TIP3    H218203   4.715   2.891   1.894
 6088TIP3   OH218204   5.942   6.417   5.652
 6088TIP3    H118205   5.892   6.357   5.596
 6088TIP3    H218206   5.984   6.477   5.590
 6089TIP3   OH218207   8.232   3.216   0.188
 6089TIP3    H118208   8.197   3.197   0.101
 6089TIP3    H218209   8.296   3.286   0.173
 6090TIP3   OH218210   4.581   3.457   0.700
 6090TIP3    H118211   4.498   3.453   0.748
 6090TIP3    H218212   4.637   3.513   0.754
 6091TIP3   OH218213   4.828   0.524   4.056
 6091TIP3    H118214   4.881   0.557   3.983
 6091TIP3    H218215   4.750   0.581   4.056
 6092TIP3   OH218216   2.116   7.137   0.157
 6092TIP3    H118217   2.164   7.198   0.213
 6092TIP3    H218218   2.162   7.054   0.168
 6093TIP3   OH218219   4.721   3.372   2.343
 6093TIP3    H118220   4.789   3.334   2.399
 6093TIP3    H218221   4.645   3.316   2.354
 6094TIP3   OH218222   1.502   6.872   4.645
 6094TIP3    H118223   1.455   6.935   4.699
 6094TIP3    H218224   1.480   6.897   4.555
 6095TIP3   OH218225   4.785   7.602   0.079
 6095TIP3    H118226   4.793   7.535   0.010
 6095TIP3    H218227   4.700   7.642   0.063
 6096TIP3   OH218228   7.145   3.831   3.386
 6096TIP3    H118229   7.084   3.892   3.345
 6096TIP3    H218230   7.190   3.789   3.313
 6097TIP3   OH218231   1.959   6.154   6.031
 6097TIP3    H118232   1.951   6.095   5.956
 6097TIP3    H218233   2.045   6.193   6.022
 6098TIP3   OH218234   7.776   1.025   3.850
 6098TIP3    H118235   7.863   1.059   3.828
 6098TIP3    H218236   7.745   0.985   3.769
 6099TIP3   OH218237   1.093   0.921   4.676
 6099TIP3    H118238   1.107   0.996   4.733
 6099TIP3    H218239   1.119   0.845   4.728
 6100TIP3   OH218240   4.383   0.628   3.327
 6100TIP3    H118241   4.444   0.573   3.377
 6100TIP3    H218242   4.350   0.691   3.391
 6101TIP3   OH218243   5.926   6.769   5.044
 6101TIP3    H118244   5.856   6.829   5.018
 6101TIP3    H218245   5.886   6.682   5.039
 6102TIP3   OH218246   7.991   5.039   3.142
 6102TIP3    H118247   7.966   5.109   3.203
 6102TIP3    H218248   8.021   5.085   3.064
 6103TIP3   OH218249   5.103   1.096   4.726
 6103TIP3    H118250   5.153   1.046   4.661
 6103TIP3    H218251   5.149   1.180   4.732
 6104TIP3   OH218252   0.759   5.728   3.390
 6104TIP3    H118253   0.729   5.659   3.331
 6104TIP3    H218254   0.798   5.682   3.464
 6105TIP3   OH218255   6.394   2.448   5.582
 6105TIP3    H118256   6.393   2.496   5.499
 6105TIP3    H218257   6.355   2.508   5.646
 6106TIP3   OH218258   5.269   1.654   6.443
 6106TIP3    H118259   5.239   1.744   6.458
 6106TIP3    H218260   5.205   1.618   6.381
 6107TIP3   OH218261   0.690   3.183   0.244
 6107TIP3    H118262   0.604   3.167   0.204
 6107TIP3    H218263   0.685   3.274   0.274
 6108TIP3   OH218264   5.199   1.911   6.411
 6108TIP3    H118265   5.235   1.977   6.352
 6108TIP3    H218266   5.132   1.958   6.461
 6109TIP3   OH218267   0.932   5.221   6.488
 6109TIP3    H118268   0.954   5.310   6.461
 6109TIP3    H218269   0.845   5.228   6.526
 6110TIP3   OH218270   2.962   4.468   5.386
 6110TIP3    H118271   2.935   4.534   5.323
 6110TIP3    H218272   2.908   4.484   5.463
 6111TIP3   OH218273   6.515   0.229   0.277
 6111TIP3    H118274   6.604   0.192   0.275
 6111TIP3    H218275   6.523   0.309   0.330
 6112TIP3   OH218276   5.265   3.311   3.294
 6112TIP3    H118277   5.249   3.401   3.265
 6112TIP3    H218278   5.184   3.265   3.274
 6113TIP3   OH218279   4.987   2.316   4.955
 6113TIP3    H118280   5.073   2.340   4.990
 6113TIP3    H218281   4.974   2.226   4.984
 6114TIP3   OH218282   3.650   0.512   6.746
 6114TIP3    H118283   3.574   0.565   6.722
 6114TIP3    H218284   3.623   0.422   6.727
 6115TIP3   OH218285   3.799   2.709   6.496
 6115TIP3    H118286   3.856   2.636   6.520
 6115TIP3    H218287   3.796   2.764   6.575
 6116TIP3   OH218288   3.876   3.037   3.616
 6116TIP3    H118289   3.828   3.016   3.536
 6116TIP3    H218290   3.817   3.011   3.687
 6117TIP3   OH218291   2.290   2.285   0.631
 6117TIP3    H118292   2.305   2.364   0.682
 6117TIP3    H218293   2.362   2.226   0.655
 6118TIP3   OH218294   1.993   3.324   4.117
 6118TIP3    H118295   1.955   3.385   4.180
 6118TIP3    H218296   1.923   3.262   4.097
 6119TIP3   OH218297   3.249   2.426   6.647
 6119TIP3    H118298   3.326   2.461   6.602
 6119TIP3    H218299   3.180   2.427   6.582
 6120TIP3   OH218300   4.954   6.679   2.420
 6120TIP3    H118301   4.921   6.730   2.494
 6120TIP3    H218302   4.876   6.638   2.383
 6121TIP3   OH218303   4.387   5.761   0.157
 6121TIP3    H118304   4.353   5.827   0.218
 6121TIP3    H218305   4.472   5.736   0.194
 6122TIP3   OH218306   0.062   1.275   4.184
 6122TIP3    H118307   0.111   1.228   4.251
 6122TIP3    H218308  -0.016   1.222   4.169
 6123TIP3   OH218309   7.572   4.375   4.571
 6123TIP3    H118310   7.506   4.427   4.525
 6123TIP3    H218311   7.527   4.293   4.593
 6124TIP3   OH218312   0.397   0.223   4.259
 6124TIP3    H118313   0.423   0.162   4.190
 6124TIP3    H218314   0.362   0.167   4.329
 6125TIP3   OH218315   6.885   2.834   5.743
 6125TIP3    H118316   6.868   2.749   5.703
 6125TIP3    H218317   6.948   2.876   5.684
 6126TIP3   OH218318   0.615   2.033   4.160
 6126TIP3    H118319   0.651   2.042   4.248
 6126TIP3    H218320   0.550   2.103   4.153
 6127TIP3   OH218321   1.547   0.574   2.825
 6127TIP3    H118322   1.590   0.491   2.806
 6127TIP3    H218323   1.614   0.625   2.870
 6128TIP3   OH218324   5.499   4.325   2.218
 6128TIP3    H118325   5.557   4.343   2.292
 6128TIP3    H218326   5.435   4.264   2.253
 6129TIP3   OH218327   1.697   5.495   0.680
 6129TIP3    H118328   1.716   5.423   0.740
 6129TIP3    H218329   1.771   5.555   0.689
 6130TIP3   OH218330   1.512   5.928   1.495
 6130TIP3    H118331   1.418   5.941   1.505
 6130TIP3    H218332   1.536   5.979   1.418
 6131TIP3   OH218333   7.288   5.731   1.568
 6131TIP3    H118334   7.270   5.639   1.589
 6131TIP3    H218335   7.206   5.776   1.587
 6132TIP3   OH218336   6.885   2.543   6.517
 6132TIP3    H118337   6.909   2.455   6.545
 6132TIP3    H218338   6.955   2.570   6.458
 6133TIP3   OH218339   1.039   5.867   2.926
 6133TIP3    H118340   1.004   5.897   3.010
 6133TIP3    H218341   1.087   5.943   2.891
 6134TIP3   OH218342   4.426   4.721   0.956
 6134TIP3    H118343   4.466   4.808   0.964
 6134TIP3    H218344   4.409   4.710   0.863
 6135TIP3   OH218345   4.865   6.715   1.816
 6135TIP3    H118346   4.772   6.709   1.796
 6135TIP3    H218347   4.879   6.806   1.842
 6136TIP3   OH218348   4.318   4.119   5.102
 6136TIP3    H118349   4.394   4.099   5.157
 6136TIP3    H218350   4.246   4.072   5.143
 6137TIP3   OH218351   5.285   5.904   1.898
 6137TIP3    H118352   5.308   5.938   1.811
 6137TIP3    H218353   5.308   5.974   1.958
 6138TIP3   OH218354   2.597   3.539   1.134
 6138TIP3    H118355   2.575   3.574   1.220
 6138TIP3    H218356   2.682   3.578   1.113
 6139TIP3   OH218357   4.095   5.943   3.805
 6139TIP3    H118358   4.162   5.964   3.741
 6139TIP3    H218359   4.022   5.910   3.753
 6140TIP3   OH218360   4.093   0.652   0.318
 6140TIP3    H118361   4.013   0.701   0.339
 6140TIP3    H218362   4.157   0.719   0.293
 6141TIP3   OH218363   6.583   2.704   4.583
 6141TIP3    H118364   6.618   2.616   4.568
 6141TIP3    H218365   6.575   2.742   4.496
 6142TIP3   OH218366   6.747   7.519   3.732
 6142TIP3    H118367   6.837   7.504   3.762
 6142TIP3    H218368   6.748   7.487   3.641
 6143TIP3   OH218369   1.910   2.225   6.412
 6143TIP3    H118370   1.879   2.196   6.326
 6143TIP3    H218371   1.833   2.263   6.454
 6144TIP3   OH218372   7.000   0.537   6.720
 6144TIP3    H118373   6.945   0.459   6.715
 6144TIP3    H218374   7.057   0.530   6.643
 6145TIP3   OH218375   8.244   7.339   4.031
 6145TIP3    H118376   8.277   7.281   4.099
 6145TIP3    H218377   8.260   7.427   4.065
 6146TIP3   OH218378   7.433   5.491   4.842
 6146TIP3    H118379   7.477   5.423   4.893
 6146TIP3    H218380   7.465   5.573   4.880
 6147TIP3   OH218381   0.055   3.176   6.666
 6147TIP3    H118382   0.029   3.234   6.594
 6147TIP3    H218383   0.100   3.233   6.728
 6148TIP3   OH218384   7.873   2.779   6.837
 6148TIP3    H118385   7.806   2.776   6.769
 6148TIP3    H218386   7.882   2.688   6.867
 6149TIP3   OH218387   0.683   6.269   0.242
 6149TIP3    H118388   0.701   6.193   0.297
 6149TIP3    H218389   0.589   6.284   0.252
 6150TIP3   OH218390   3.748   4.481   5.682
 6150TIP3    H118391   3.655   4.501   5.689
 6150TIP3    H218392   3.769   4.434   5.763
 6151TIP3   OH218393   4.736   3.622   1.882
 6151TIP3    H118394   4.656   3.599   1.834
 6151TIP3    H218395   4.792   3.664   1.817
 6152TIP3   OH218396   6.377   0.275   4.030
 6152TIP3    H118397   6.334   0.348   4.075
 6152TIP3    H218398   6.338   0.276   3.942
 6153TIP3   OH218399   4.009   4.973   5.051
 6153TIP3    H118400   3.922   4.943   5.079
 6153TIP3    H218401   4.023   4.930   4.967
 6154TIP3   OH218402   0.502   0.926   3.389
 6154TIP3    H118403   0.515   1.019   3.405
 6154TIP3    H218404   0.462   0.921   3.302
 6155TIP3   OH218405   1.761   6.817   4.681
 6155TIP3    H118406   1.670   6.843   4.666
 6155TIP3    H218407   1.812   6.872   4.623
 6156TIP3   OH218408   5.950   6.413   5.313
 6156TIP3    H118409   5.893   6.358   5.367
 6156TIP3    H218410   6.037   6.403   5.353
 6157TIP3   OH218411   7.026   7.102   0.691
 6157TIP3    H118412   6.981   7.038   0.747
 6157TIP3    H218413   7.023   7.184   0.740
 6158TIP3   OH218414   2.007   2.092   2.979
 6158TIP3    H118415   2.079   2.031   2.996
 6158TIP3    H218416   2.048   2.178   2.972
 6159TIP3   OH218417   3.070   5.675   3.727
 6159TIP3    H118418   2.984   5.707   3.701
 6159TIP3    H218419   3.120   5.753   3.750
 6160TIP3   OH218420   7.788   7.179   5.425
 6160TIP3    H118421   7.726   7.125   5.475
 6160TIP3    H218422   7.818   7.246   5.487
 6161TIP3   OH218423   4.388   1.055   5.443
 6161TIP3    H118424   4.321   0.987   5.454
 6161TIP3    H218425   4.383   1.078   5.350
 6162TIP3   OH218426   5.678   0.417   4.709
 6162TIP3    H118427   5.702   0.434   4.801
 6162TIP3    H218428   5.641   0.500   4.679
 6163TIP3   OH218429   4.655   6.634   0.374
 6163TIP3    H118430   4.667   6.552   0.422
 6163TIP3    H218431   4.734   6.644   0.322
 6164TIP3   OH218432   0.690   3.437   0.858
 6164TIP3    H118433   0.689   3.362   0.799
 6164TIP3    H218434   0.651   3.404   0.939
 6165TIP3   OH218435   3.189   2.233   2.314
 6165TIP3    H118436   3.283   2.225   2.304
 6165TIP3    H218437   3.173   2.212   2.406
 6166TIP3   OH218438   7.987   1.827   4.956
 6166TIP3    H118439   7.985   1.786   4.869
 6166TIP3    H218440   7.920   1.895   4.952
 6167TIP3   OH218441   0.985   7.144   5.084
 6167TIP3    H118442   1.024   7.195   5.014
 6167TIP3    H218443   1.039   7.162   5.160
 6168TIP3   OH218444   6.751   5.921   5.483
 6168TIP3    H118445   6.822   5.903   5.422
 6168TIP3    H218446   6.792   5.973   5.552
 6169TIP3   OH218447   2.855   1.447   1.500
 6169TIP3    H118448   2.848   1.426   1.407
 6169TIP3    H218449   2.782   1.400   1.541
 6170TIP3   OH218450   0.060   3.122   1.273
 6170TIP3    H118451   0.110   3.041   1.257
 6170TIP3    H218452   0.126   3.184   1.305
 6171TIP3   OH218453   4.875   2.681   5.185
 6171TIP3    H118454   4.817   2.611   5.155
 6171TIP3    H218455   4.950   2.676   5.127
 6172TIP3   OH218456   1.956   5.389   1.007
 6172TIP3    H118457   1.974   5.446   0.931
 6172TIP3    H218458   2.024   5.322   1.003
 6173TIP3   OH218459   4.574   0.654   4.076
 6173TIP3    H118460   4.498   0.596   4.065
 6173TIP3    H218461   4.546   0.738   4.039
 6174TIP3   OH218462   8.128   0.543   1.800
 6174TIP3    H118463   8.201   0.532   1.739
 6174TIP3    H218464   8.170   0.569   1.882
 6175TIP3   OH218465   4.268   3.476   5.249
 6175TIP3    H118466   4.290   3.561   5.286
 6175TIP3    H218467   4.351   3.427   5.250
 6176TIP3   OH218468   4.445   5.184   2.736
 6176TIP3    H118469   4.476   5.102   2.697
 6176TIP3    H218470   4.429   5.242   2.661
 6177TIP3   OH218471   5.296   2.530   6.062
 6177TIP3    H118472   5.268   2.586   5.989
 6177TIP3    H218473   5.386   2.505   6.041
 6178TIP3   OH218474   2.480   1.522   5.314
 6178TIP3    H118475   2.469   1.436   5.355
 6178TIP3    H218476   2.414   1.577   5.356
 6179TIP3   OH218477   6.463   0.204   0.720
 6179TIP3    H118478   6.502   0.129   0.676
 6179TIP3    H218479   6.369   0.187   0.717
 6180TIP3   OH218480   8.175   6.472   2.003
 6180TIP3    H118481   8.259   6.437   2.031
 6180TIP3    H218482   8.164   6.552   2.054
 6181TIP3   OH218483   7.882   5.576   6.195
 6181TIP3    H118484   7.881   5.485   6.166
 6181TIP3    H218485   7.834   5.623   6.127
 6182TIP3   OH218486   6.416   0.634   3.326
 6182TIP3    H118487   6.353   0.680   3.269
 6182TIP3    H218488   6.490   0.695   3.333
 6183TIP3   OH218489   6.107   2.661   5.970
 6183TIP3    H118490   6.032   2.685   5.916
 6183TIP3    H218491   6.126   2.739   6.021
 6184TIP3   OH218492   1.585   4.800   2.099
 6184TIP3    H118493   1.601   4.734   2.031
 6184TIP3    H218494   1.490   4.809   2.102
 6185TIP3   OH218495   6.825   0.245   6.709
 6185TIP3    H118496   6.749   0.198   6.674
 6185TIP3    H218497   6.895   0.179   6.710
 6186TIP3   OH218498   1.797   4.857   2.759
 6186TIP3    H118499   1.844   4.775   2.750
 6186TIP3    H218500   1.726   4.838   2.821
 6187TIP3   OH218501   5.125   3.401   0.170
 6187TIP3    H118502   5.194   3.465   0.187
 6187TIP3    H218503   5.065   3.411   0.244
 6188TIP3   OH218504   1.491   4.609   6.236
 6188TIP3    H118505   1.416   4.590   6.180
 6188TIP3    H218506   1.465   4.578   6.322
 6189TIP3   OH218507   1.167   5.724   5.770
 6189TIP3    H118508   1.239   5.717   5.708
 6189TIP3    H218509   1.147   5.634   5.794
 6190TIP3   OH218510   2.267   2.961   5.029
 6190TIP3    H118511   2.299   2.942   5.117
 6190TIP3    H218512   2.176   2.930   5.029
 6191TIP3   OH218513   8.232   2.434   6.380
 6191TIP3    H118514   8.312   2.469   6.417
 6191TIP3    H218515   8.178   2.510   6.361
 6192TIP3   OH218516   6.323   5.791   2.583
 6192TIP3    H118517   6.363   5.877   2.568
 6192TIP3    H218518   6.240   5.811   2.627
 6193TIP3   OH218519   8.046   1.810   2.469
 6193TIP3    H118520   8.098   1.785   2.545
 6193TIP3    H218521   7.996   1.732   2.446
 6194TIP3   OH218522   1.164   1.152   4.489
 6194TIP3    H118523   1.069   1.145   4.487
 6194TIP3    H218524   1.186   1.154   4.582
 6195TIP3   OH218525   3.215   2.411   0.981
 6195TIP3    H118526   3.179   2.382   0.897
 6195TIP3    H218527   3.224   2.331   1.032
 6196TIP3   OH218528   8.201   2.321   4.958
 6196TIP3    H118529   8.105   2.331   4.958
 6196TIP3    H218530   8.229   2.360   5.040
 6197TIP3   OH218531   1.096   6.272   5.317
 6197TIP3    H118532   1.069   6.268   5.409
 6197TIP3    H218533   1.015   6.260   5.268
 6198TIP3   OH218534   0.349   5.038   5.004
 6198TIP3    H118535   0.259   5.014   5.026
 6198TIP3    H218536   0.344   5.072   4.915
 6199TIP3   OH218537   7.141   7.045   6.628
 6199TIP3    H118538   7.092   7.037   6.710
 6199TIP3    H218539   7.080   7.088   6.568
 6200TIP3   OH218540   1.509   2.913   5.893
 6200TIP3    H118541   1.473   2.970   5.961
 6200TIP3    H218542   1.494   2.961   5.812
 6201TIP3   OH218543   5.379   5.768   0.848
 6201TIP3    H118544   5.429   5.761   0.929
 6201TIP3    H218545   5.327   5.847   0.859
 6202TIP3   OH218546   2.599   1.163   4.252
 6202TIP3    H118547   2.537   1.204   4.192
 6202TIP3    H218548   2.545   1.111   4.312
 6203TIP3   OH218549   1.781   0.776   0.958
 6203TIP3    H118550   1.760   0.801   1.048
 6203TIP3    H218551   1.832   0.849   0.923
 6204TIP3   OH218552   5.305   3.455   1.475
 6204TIP3    H118553   5.323   3.523   1.410
 6204TIP3    H218554   5.383   3.455   1.531
 6205TIP3   OH218555  -0.001   5.001   3.904
 6205TIP3    H118556  -0.066   4.935   3.930
 6205TIP3    H218557   0.075   4.983   3.958
 6206TIP3   OH218558   3.862   7.489   1.723
 6206TIP3    H118559   3.879   7.441   1.804
 6206TIP3    H218560   3.867   7.422   1.655
 6207TIP3   OH218561   2.505   1.381   3.487
 6207TIP3    H118562   2.597   1.359   3.476
 6207TIP3    H218563   2.502   1.476   3.475
 6208TIP3   OH218564   7.124   1.410   4.938
 6208TIP3    H118565   7.030   1.421   4.927
 6208TIP3    H218566   7.137   1.316   4.946
 6209TIP3   OH218567   1.889   2.855   2.410
 6209TIP3    H118568   1.889   2.950   2.418
 6209TIP3    H218569   1.797   2.830   2.422
 6210TIP3   OH218570   5.508   5.990   1.174
 6210TIP3    H118571   5.454   6.068   1.160
 6210TIP3    H218572   5.598   6.022   1.169
 6211TIP3   OH218573   8.088   2.084   1.319
 6211TIP3    H118574   8.173   2.051   1.349
 6211TIP3    H218575   8.046   2.118   1.398
 6212TIP3   OH218576   4.616   1.502   0.472
 6212TIP3    H118577   4.659   1.570   0.523
 6212TIP3    H218578   4.566   1.451   0.536
 6213TIP3   OH218579   3.093   0.763   4.829
 6213TIP3    H118580   3.092   0.826   4.901
 6213TIP3    H218581   3.180   0.771   4.792
 6214TIP3   OH218582   3.295   0.664   6.028
 6214TIP3    H118583   3.319   0.655   5.936
 6214TIP3    H218584   3.200   0.648   6.030
 6215TIP3   OH218585   4.344   0.862   2.835
 6215TIP3    H118586   4.371   0.787   2.888
 6215TIP3    H218587   4.399   0.857   2.757
 6216TIP3   OH218588   3.657   3.843   0.520
 6216TIP3    H118589   3.629   3.919   0.470
 6216TIP3    H218590   3.610   3.850   0.603
 6217TIP3   OH218591   1.753   0.926   0.048
 6217TIP3    H118592   1.773   0.848  -0.003
 6217TIP3    H218593   1.833   0.943   0.098
 6218TIP3   OH218594   6.285   6.560   4.160
 6218TIP3    H118595   6.234   6.617   4.217
 6218TIP3    H218596   6.243   6.474   4.167
 6219TIP3   OH218597   4.827   6.699   4.164
 6219TIP3    H118598   4.760   6.632   4.170
 6219TIP3    H218599   4.794   6.772   4.217
 6220TIP3   OH218600   1.741   5.767   3.196
 6220TIP3    H118601   1.819   5.746   3.145
 6220TIP3    H218602   1.674   5.785   3.130
 6221TIP3   OH218603   3.507   2.574   3.282
 6221TIP3    H118604   3.492   2.663   3.314
 6221TIP3    H218605   3.599   2.556   3.301
 6222TIP3   OH218606   0.184   0.785   3.886
 6222TIP3    H118607   0.192   0.717   3.820
 6222TIP3    H218608   0.096   0.821   3.874
 6223TIP3   OH218609   4.817   1.345   4.506
 6223TIP3    H118610   4.827   1.415   4.571
 6223TIP3    H218611   4.857   1.380   4.427
 6224TIP3   OH218612   2.239   4.079   3.138
 6224TIP3    H118613   2.155   4.072   3.092
 6224TIP3    H218614   2.251   3.993   3.179
 6225TIP3   OH218615   0.591   5.979   0.336
 6225TIP3    H118616   0.524   5.961   0.270
 6225TIP3    H218617   0.671   5.992   0.285
 6226TIP3   OH218618   2.180   0.055   4.670
 6226TIP3    H118619   2.202   0.110   4.595
 6226TIP3    H218620   2.184  -0.035   4.636
 6227TIP3   OH218621   6.074   7.769   1.465
 6227TIP3    H118622   6.111   7.818   1.538
 6227TIP3    H218623   6.129   7.691   1.458
 6228TIP3   OH218624   7.401   1.516   0.774
 6228TIP3    H118625   7.422   1.586   0.712
 6228TIP3    H218626   7.449   1.540   0.854
 6229TIP3   OH218627   5.334   6.192   4.598
 6229TIP3    H118628   5.413   6.200   4.650
 6229TIP3    H218629   5.321   6.097   4.589
 6230TIP3   OH218630   3.590   6.585   2.939
 6230TIP3    H118631   3.572   6.656   3.002
 6230TIP3    H218632   3.530   6.602   2.866
 6231TIP3   OH218633   5.673   2.468   0.900
 6231TIP3    H118634   5.740   2.531   0.874
 6231TIP3    H218635   5.668   2.406   0.827
 6232TIP3   OH218636   7.666   0.288   4.022
 6232TIP3    H118637   7.640   0.237   3.946
 6232TIP3    H218638   7.741   0.339   3.992
 6233TIP3   OH218639   2.687   5.252   6.153
 6233TIP3    H118640   2.613   5.191   6.150
 6233TIP3    H218641   2.720   5.245   6.243
 6234TIP3   OH218642   0.131   7.830   0.903
 6234TIP3    H118643   0.119   7.925   0.911
 6234TIP3    H218644   0.142   7.800   0.993
 6235TIP3   OH218645   5.902   7.147   4.530
 6235TIP3    H118646   5.974   7.159   4.469
 6235TIP3    H218647   5.920   7.209   4.601
 6236TIP3   OH218648   7.415   4.990   1.364
 6236TIP3    H118649   7.420   5.045   1.286
 6236TIP3    H218650   7.340   5.023   1.412
 6237TIP3   OH218651   4.682   4.399   1.178
 6237TIP3    H118652   4.762   4.377   1.226
 6237TIP3    H218653   4.703   4.379   1.087
 6238TIP3   OH218654   3.046   6.936   0.156
 6238TIP3    H118655   2.957   6.903   0.143
 6238TIP3    H218656   3.102   6.869   0.117
 6239TIP3   OH218657   8.404   3.764   2.291
 6239TIP3    H118658   8.325   3.713   2.274
 6239TIP3    H218659   8.459   3.707   2.344
 6240TIP3   OH218660   7.010   1.188   2.152
 6240TIP3    H118661   7.048   1.101   2.158
 6240TIP3    H218662   7.045   1.225   2.071
 6241TIP3   OH218663   7.428   2.274   6.405
 6241TIP3    H118664   7.376   2.351   6.428
 6241TIP3    H218665   7.480   2.256   6.484
 6242TIP3   OH218666   2.825   1.265   1.006
 6242TIP3    H118667   2.779   1.327   1.063
 6242TIP3    H218668   2.915   1.298   1.003
 6243TIP3   OH218669   6.079   6.178   3.254
 6243TIP3    H118670   6.080   6.127   3.335
 6243TIP3    H218671   6.097   6.115   3.185
 6244TIP3   OH218672   5.975   5.458   3.102
 6244TIP3    H118673   6.031   5.384   3.126
 6244TIP3    H218674   5.979   5.516   3.177
 6245TIP3   OH218675   1.457   2.088   2.596
 6245TIP3    H118676   1.367   2.103   2.569
 6245TIP3    H218677   1.496   2.041   2.522
 6246TIP3   OH218678   5.661   3.087   3.746
 6246TIP3    H118679   5.637   3.129   3.664
 6246TIP3    H218680   5.630   3.148   3.814
 6247TIP3   OH218681   1.060   4.082   6.490
 6247TIP3    H118682   1.026   4.055   6.575
 6247TIP3    H218683   1.139   4.030   6.477
 6248TIP3   OH218684   7.474   0.839   3.883
 6248TIP3    H118685   7.516   0.837   3.968
 6248TIP3    H218686   7.495   0.925   3.847
 6249TIP3   OH218687   3.261   2.860   5.915
 6249TIP3    H118688   3.319   2.827   5.846
 6249TIP3    H218689   3.187   2.899   5.868
 6250TIP3   OH218690   3.586   0.560   4.923
 6250TIP3    H118691   3.560   0.651   4.928
 6250TIP3    H218692   3.570   0.525   5.011
 6251TIP3   OH218693   3.518   2.678   0.047
 6251TIP3    H118694   3.427   2.651   0.034
 6251TIP3    H218695   3.551   2.692  -0.042
 6252TIP3   OH218696   4.139   0.789   3.808
 6252TIP3    H118697   4.219   0.745   3.782
 6252TIP3    H218698   4.165   0.880   3.823
 6253TIP3   OH218699   4.682   6.989   6.092
 6253TIP3    H118700   4.616   7.051   6.061
 6253TIP3    H218701   4.640   6.945   6.166
 6254TIP3   OH218702   1.862   6.444   4.320
 6254TIP3    H118703   1.795   6.469   4.383
 6254TIP3    H218704   1.852   6.507   4.248
 6255TIP3   OH218705   7.938   0.650   6.897
 6255TIP3    H118706   8.006   0.582   6.891
 6255TIP3    H218707   7.955   0.707   6.822
 6256TIP3   OH218708   2.793   6.587   4.257
 6256TIP3    H118709   2.839   6.639   4.192
 6256TIP3    H218710   2.862   6.548   4.310
 6257TIP3   OH218711   0.773   6.063   0.951
 6257TIP3    H118712   0.833   6.087   1.021
 6257TIP3    H218713   0.746   6.147   0.913
 6258TIP3   OH218714   5.151   7.514   1.575
 6258TIP3    H118715   5.122   7.540   1.488
 6258TIP3    H218716   5.212   7.584   1.602
 6259TIP3   OH218717   6.939   3.468   1.690
 6259TIP3    H118718   6.936   3.439   1.781
 6259TIP3    H218719   6.972   3.392   1.642
 6260TIP3   OH218720   3.618   2.400   1.412
 6260TIP3    H118721   3.539   2.354   1.384
 6260TIP3    H218722   3.599   2.428   1.501
 6261TIP3   OH218723   5.424   4.472   4.364
 6261TIP3    H118724   5.462   4.401   4.415
 6261TIP3    H218725   5.335   4.444   4.345
 6262TIP3   OH218726   0.122   0.912   0.232
 6262TIP3    H118727   0.067   0.975   0.278
 6262TIP3    H218728   0.211   0.935   0.256
 6263TIP3   OH218729   5.189   2.588   6.369
 6263TIP3    H118730   5.124   2.521   6.390
 6263TIP3    H218731   5.238   2.552   6.295
 6264TIP3   OH218732   4.015   4.603   4.121
 6264TIP3    H118733   4.011   4.681   4.175
 6264TIP3    H218734   4.044   4.533   4.180
 6265TIP3   OH218735   7.519   3.890   5.290
 6265TIP3    H118736   7.459   3.926   5.356
 6265TIP3    H218737   7.468   3.889   5.209
 6266TIP3   OH218738   2.685   7.481   4.882
 6266TIP3    H118739   2.672   7.494   4.976
 6266TIP3    H218740   2.598   7.461   4.848
 6267TIP3   OH218741   4.245   4.306   6.026
 6267TIP3    H118742   4.249   4.242   6.097
 6267TIP3    H218743   4.176   4.274   5.968
 6268TIP3   OH218744   5.212   5.350   5.973
 6268TIP3    H118745   5.209   5.328   5.880
 6268TIP3    H218746   5.174   5.438   5.978
 6269TIP3   OH218747   5.422   5.432   0.561
 6269TIP3    H118748   5.492   5.483   0.522
 6269TIP3    H218749   5.464   5.349   0.587
 6270TIP3   OH218750   2.318   0.582   1.434
 6270TIP3    H118751   2.289   0.553   1.520
 6270TIP3    H218752   2.408   0.548   1.427
 6271TIP3   OH218753   7.480   3.047   4.195
 6271TIP3    H118754   7.537   3.067   4.120
 6271TIP3    H218755   7.491   3.123   4.253
 6272TIP3   OH218756   3.807   2.165   2.868
 6272TIP3    H118757   3.752   2.106   2.816
 6272TIP3    H218758   3.891   2.120   2.874
 6273TIP3   OH218759   5.239   5.769   4.890
 6273TIP3    H118760   5.206   5.692   4.844
 6273TIP3    H218761   5.325   5.786   4.852
 6274TIP3   OH218762   2.359   6.478   0.058
 6274TIP3    H118763   2.352   6.403  -0.001
 6274TIP3    H218764   2.314   6.450   0.138
 6275TIP3   OH218765   4.984   6.606   2.087
 6275TIP3    H118766   4.944   6.638   2.006
 6275TIP3    H218767   4.914   6.607   2.151
 6276TIP3   OH218768   1.651   4.481   0.359
 6276TIP3    H118769   1.701   4.551   0.319
 6276TIP3    H218770   1.595   4.525   0.423
 6277TIP3   OH218771   6.881   4.544   5.814
 6277TIP3    H118772   6.888   4.469   5.874
 6277TIP3    H218773   6.900   4.620   5.869
 6278TIP3   OH218774   0.594   4.635   3.587
 6278TIP3    H118775   0.618   4.725   3.563
 6278TIP3    H218776   0.539   4.606   3.514
 6279TIP3   OH218777   2.290   7.307   0.289
 6279TIP3    H118778   2.250   7.391   0.267
 6279TIP3    H218779   2.325   7.319   0.377
 6280TIP3   OH218780   3.932   4.555   3.869
 6280TIP3    H118781   3.986   4.479   3.847
 6280TIP3    H218782   3.967   4.585   3.953
 6281TIP3   OH218783   6.646   4.673   2.311
 6281TIP3    H118784   6.592   4.733   2.363
 6281TIP3    H218785   6.642   4.709   2.223
 6282TIP3   OH218786   1.483   7.885   6.596
 6282TIP3    H118787   1.393   7.853   6.586
 6282TIP3    H218788   1.534   7.807   6.618
 6283TIP3   OH218789   6.067   1.623   4.885
 6283TIP3    H118790   6.061   1.706   4.932
 6283TIP3    H218791   6.156   1.591   4.901
 6284TIP3   OH218792   7.060   5.734   2.294
 6284TIP3    H118793   7.132   5.744   2.231
 6284TIP3    H218794   7.083   5.792   2.366
 6285TIP3   OH218795   7.630   6.875   6.406
 6285TIP3    H118796   7.618   6.878   6.501
 6285TIP3    H218797   7.619   6.966   6.378
 6286TIP3   OH218798   8.099   1.990   4.434
 6286TIP3    H118799   8.089   2.072   4.483
 6286TIP3    H218800   8.015   1.978   4.389
 6287TIP3   OH218801   6.994   5.530   1.683
 6287TIP3    H118802   6.959   5.496   1.766
 6287TIP3    H218803   7.082   5.492   1.677
 6288TIP3   OH218804   7.227   0.307   4.612
 6288TIP3    H118805   7.207   0.297   4.519
 6288TIP3    H218806   7.161   0.255   4.657
 6289TIP3   OH218807   3.644   2.158   5.631
 6289TIP3    H118808   3.618   2.245   5.602
 6289TIP3    H218809   3.740   2.160   5.632
 6290TIP3   OH218810   3.255   5.126   3.097
 6290TIP3    H118811   3.272   5.114   3.003
 6290TIP3    H218812   3.340   5.115   3.138
 6291TIP3   OH218813   6.494   1.877   4.122
 6291TIP3    H118814   6.414   1.919   4.092
 6291TIP3    H218815   6.537   1.943   4.177
 6292TIP3   OH218816   4.032   7.111   3.819
 6292TIP3    H118817   4.110   7.159   3.845
 6292TIP3    H218818   4.063   7.041   3.763
 6293TIP3   OH218819   3.447   6.123   3.818
 6293TIP3    H118820   3.353   6.103   3.810
 6293TIP3    H218821   3.479   6.061   3.883
 6294TIP3   OH218822   2.992   5.957   4.895
 6294TIP3    H118823   3.082   5.965   4.865
 6294TIP3    H218824   2.999   5.917   4.982
 6295TIP3   OH218825   0.323   2.676   0.114
 6295TIP3    H118826   0.406   2.712   0.082
 6295TIP3    H218827   0.259   2.702   0.049
 6296TIP3   OH218828   6.658   4.120   2.361
 6296TIP3    H118829   6.664   4.215   2.355
 6296TIP3    H218830   6.580   4.097   2.309
 6297TIP3   OH218831   5.984   6.129   2.863
 6297TIP3    H118832   6.022   6.081   2.936
 6297TIP3    H218833   5.917   6.071   2.828
 6298TIP3   OH218834   6.510   3.629   5.962
 6298TIP3    H118835   6.447   3.652   6.030
 6298TIP3    H218836   6.535   3.539   5.982
 6299TIP3   OH218837   0.405   3.002   5.304
 6299TIP3    H118838   0.419   2.998   5.209
 6299TIP3    H218839   0.340   2.934   5.322
 6300TIP3   OH218840   8.452   7.127   5.523
 6300TIP3    H118841   8.390   7.187   5.564
 6300TIP3    H218842   8.419   7.040   5.545
 6301TIP3   OH218843   1.930   3.948   2.658
 6301TIP3    H118844   1.961   3.952   2.749
 6301TIP3    H218845   1.873   4.025   2.650
 6302TIP3   OH218846   0.054   2.367   4.391
 6302TIP3    H118847   0.060   2.298   4.325
 6302TIP3    H218848   0.094   2.329   4.469
 6303TIP3   OH218849   5.752   4.026   1.087
 6303TIP3    H118850   5.711   3.975   1.156
 6303TIP3    H218851   5.836   3.982   1.070
 6304TIP3   OH218852   7.165   2.102   3.740
 6304TIP3    H118853   7.256   2.094   3.769
 6304TIP3    H218854   7.153   2.195   3.723
 6305TIP3   OH218855   0.303   3.096   5.934
 6305TIP3    H118856   0.317   3.173   5.879
 6305TIP3    H218857   0.217   3.111   5.973
 6306TIP3   OH218858   4.821   4.844   4.930
 6306TIP3    H118859   4.908   4.869   4.960
 6306TIP3    H218860   4.767   4.921   4.946
 6307TIP3   OH218861   1.381   1.119   1.448
 6307TIP3    H118862   1.463   1.121   1.497
 6307TIP3    H218863   1.361   1.211   1.430
 6308TIP3   OH218864   3.669   7.081   5.032
 6308TIP3    H118865   3.664   7.054   4.940
 6308TIP3    H218866   3.760   7.062   5.058
 6309TIP3   OH218867   1.067   5.776   5.169
 6309TIP3    H118868   1.096   5.866   5.152
 6309TIP3    H218869   0.973   5.777   5.150
 6310TIP3   OH218870   0.438   2.328   4.629
 6310TIP3    H118871   0.497   2.259   4.598
 6310TIP3    H218872   0.491   2.380   4.689
 6311TIP3   OH218873   1.410   5.887   6.250
 6311TIP3    H118874   1.462   5.807   6.245
 6311TIP3    H218875   1.329   5.860   6.292
 6312TIP3   OH218876   3.966   5.557   3.644
 6312TIP3    H118877   4.037   5.601   3.597
 6312TIP3    H218878   3.913   5.629   3.680
 6313TIP3   OH218879   2.289   0.779   1.701
 6313TIP3    H118880   2.335   0.859   1.675
 6313TIP3    H218881   2.204   0.786   1.658
 6314TIP3   OH218882   7.355   1.199   3.119
 6314TIP3    H118883   7.368   1.110   3.153
 6314TIP3    H218884   7.267   1.223   3.149
 6315TIP3   OH218885   1.933   6.605   2.103
 6315TIP3    H118886   1.990   6.566   2.169
 6315TIP3    H218887   1.937   6.699   2.120
 6316TIP3   OH218888   0.974   7.705   1.136
 6316TIP3    H118889   1.027   7.757   1.076
 6316TIP3    H218890   0.990   7.614   1.108
 6317TIP3   OH218891   5.680   3.852   1.286
 6317TIP3    H118892   5.711   3.763   1.306
 6317TIP3    H218893   5.670   3.893   1.372
 6318TIP3   OH218894   7.428   1.873   3.586
 6318TIP3    H118895   7.333   1.883   3.588
 6318TIP3    H218896   7.443   1.804   3.522
 6319TIP3   OH218897   7.078  -0.028   2.650
 6319TIP3    H118898   7.015  -0.100   2.645
 6319TIP3    H218899   7.025   0.051   2.641
 6320TIP3   OH218900   1.912   5.979   5.808
 6320TIP3    H118901   1.859   5.927   5.748
 6320TIP3    H218902   1.919   6.065   5.766
 6321TIP3   OH218903   0.923   7.120   1.049
 6321TIP3    H118904   0.835   7.151   1.072
 6321TIP3    H218905   0.963   7.098   1.133
 6322TIP3   OH218906   5.788   7.280   2.383
 6322TIP3    H118907   5.882   7.285   2.401
 6322TIP3    H218908   5.780   7.220   2.310
 6323TIP3   OH218909   2.730   1.385   6.437
 6323TIP3    H118910   2.700   1.318   6.498
 6323TIP3    H218911   2.797   1.434   6.486
 6324TIP3   OH218912   1.786   1.427   1.668
 6324TIP3    H118913   1.807   1.411   1.575
 6324TIP3    H218914   1.700   1.469   1.666
 6325TIP3   OH218915   7.115   0.454   5.037
 6325TIP3    H118916   7.206   0.431   5.017
 6325TIP3    H218917   7.084   0.385   5.095
 6326TIP3   OH218918   6.389   4.272   6.711
 6326TIP3    H118919   6.345   4.307   6.788
 6326TIP3    H218920   6.468   4.326   6.702
 6327TIP3   OH218921   1.596   7.226   1.151
 6327TIP3    H118922   1.667   7.254   1.209
 6327TIP3    H218923   1.632   7.151   1.103
 6328TIP3   OH218924   3.047   0.756   1.745
 6328TIP3    H118925   3.113   0.712   1.798
 6328TIP3    H218926   2.975   0.773   1.805
 6329TIP3   OH218927   0.202   6.357   3.464
 6329TIP3    H118928   0.142   6.428   3.487
 6329TIP3    H218929   0.171   6.327   3.378
 6330TIP3   OH218930   1.721   5.523   1.648
 6330TIP3    H118931   1.693   5.561   1.565
 6330TIP3    H218932   1.677   5.575   1.715
 6331TIP3   OH218933   6.705   3.273   1.726
 6331TIP3    H118934   6.786   3.296   1.772
 6331TIP3    H218935   6.648   3.238   1.794
 6332TIP3   OH218936   3.116   7.896   2.616
 6332TIP3    H118937   3.156   7.858   2.694
 6332TIP3    H218938   3.033   7.933   2.646
 6333TIP3   OH218939   0.908   0.944   0.964
 6333TIP3    H118940   0.844   1.010   0.991
 6333TIP3    H218941   0.992   0.991   0.965
 6334TIP3   OH218942   7.261  -0.006   4.884
 6334TIP3    H118943   7.214   0.060   4.834
 6334TIP3    H218944   7.351   0.026   4.888
 6335TIP3   OH218945   7.431   0.955   3.425
 6335TIP3    H118946   7.464   0.904   3.351
 6335TIP3    H218947   7.455   1.045   3.405
 6336TIP3   OH218948   7.160   1.030   3.594
 6336TIP3    H118949   7.238   0.974   3.591
 6336TIP3    H218950   7.107   0.994   3.664
 6337TIP3   OH218951   1.398   1.612   5.337
 6337TIP3    H118952   1.435   1.694   5.371
 6337TIP3    H218953   1.470   1.549   5.344
 6338TIP3   OH218954   2.744   0.304   5.722
 6338TIP3    H118955   2.724   0.336   5.634
 6338TIP3    H218956   2.830   0.262   5.713
 6339TIP3   OH218957   2.660   6.119   0.120
 6339TIP3    H118958   2.567   6.108   0.140
 6339TIP3    H218959   2.669   6.211   0.098
 6340TIP3   OH218960   4.145   5.639   6.559
 6340TIP3    H118961   4.106   5.679   6.637
 6340TIP3    H218962   4.170   5.713   6.504
 6341TIP3   OH218963   3.401   5.111   4.688
 6341TIP3    H118964   3.450   5.192   4.695
 6341TIP3    H218965   3.442   5.052   4.752
 6342TIP3   OH218966   3.049   7.383   2.552
 6342TIP3    H118967   3.033   7.354   2.641
 6342TIP3    H218968   3.088   7.470   2.561
 6343TIP3   OH218969   6.808   3.566   4.793
 6343TIP3    H118970   6.726   3.614   4.809
 6343TIP3    H218971   6.876   3.623   4.830
 6344TIP3   OH218972   0.837   1.119   2.048
 6344TIP3    H118973   0.882   1.201   2.069
 6344TIP3    H218974   0.745   1.144   2.037
 6345TIP3   OH218975   1.901   2.547   2.319
 6345TIP3    H118976   1.874   2.632   2.352
 6345TIP3    H218977   1.876   2.485   2.388
 6346TIP3   OH218978   1.328   0.115   2.731
 6346TIP3    H118979   1.248   0.117   2.680
 6346TIP3    H218980   1.398   0.116   2.666
 6347TIP3   OH218981   6.703   6.528   1.988
 6347TIP3    H118982   6.792   6.521   2.022
 6347TIP3    H218983   6.708   6.597   1.921
 6348TIP3   OH218984   4.973   0.590   3.132
 6348TIP3    H118985   5.059   0.551   3.146
 6348TIP3    H218986   4.912   0.532   3.177
 6349TIP3   OH218987   7.789   3.678   5.901
 6349TIP3    H118988   7.805   3.767   5.868
 6349TIP3    H218989   7.734   3.637   5.835
 6350TIP3   OH218990   0.118   5.012   6.725
 6350TIP3    H118991   0.054   5.073   6.688
 6350TIP3    H218992   0.173   4.986   6.652
 6351TIP3   OH218993   1.903   5.606   5.478
 6351TIP3    H118994   1.992   5.642   5.486
 6351TIP3    H218995   1.887   5.562   5.561
 6352TIP3   OH218996   6.448   3.059   6.182
 6352TIP3    H118997   6.368   3.100   6.216
 6352TIP3    H218998   6.493   3.128   6.135
 6353TIP3   OH218999   7.137   1.813   6.425
 6353TIP3    H119000   7.174   1.901   6.414
 6353TIP3    H219001   7.212   1.758   6.449
 6354TIP3   OH219002   5.239   1.877   5.813
 6354TIP3    H119003   5.146   1.897   5.810
 6354TIP3    H219004   5.278   1.933   5.745
 6355TIP3   OH219005   1.703   6.371   1.807
 6355TIP3    H119006   1.759   6.434   1.763
 6355TIP3    H219007   1.658   6.324   1.737
 6356TIP3   OH219008   2.862   7.138   2.509
 6356TIP3    H119009   2.788   7.126   2.450
 6356TIP3    H219010   2.917   7.203   2.465
 6357TIP3   OH219011   4.959   3.459   6.603
 6357TIP3    H119012   5.032   3.515   6.630
 6357TIP3    H219013   4.882   3.517   6.610
 6358TIP3   OH219014   5.696   3.926   1.956
 6358TIP3    H119015   5.759   3.982   1.911
 6358TIP3    H219016   5.704   3.841   1.913
 6359TIP3   OH219017   8.287   0.936   4.923
 6359TIP3    H119018   8.377   0.963   4.942
 6359TIP3    H219019   8.294   0.844   4.898
 6360TIP3   OH219020   3.152   6.663   3.919
 6360TIP3    H119021   3.203   6.714   3.982
 6360TIP3    H219022   3.218   6.614   3.870
 6361TIP3   OH219023   0.680   6.391   1.221
 6361TIP3    H119024   0.653   6.384   1.313
 6361TIP3    H219025   0.597   6.388   1.172
 6362TIP3   OH219026   4.073   3.826   2.861
 6362TIP3    H119027   4.061   3.741   2.903
 6362TIP3    H219028   4.168   3.834   2.851
 6363TIP3   OH219029   4.965   1.307   2.109
 6363TIP3    H119030   4.870   1.317   2.118
 6363TIP3    H219031   4.977   1.214   2.092
 6364TIP3   OH219032   7.517   7.251   4.218
 6364TIP3    H119033   7.525   7.266   4.124
 6364TIP3    H219034   7.541   7.334   4.258
 6365TIP3   OH219035   3.294   6.899   3.304
 6365TIP3    H119036   3.327   6.895   3.393
 6365TIP3    H219037   3.234   6.974   3.305
 6366TIP3   OH219038   8.283   4.197   4.759
 6366TIP3    H119039   8.325   4.252   4.694
 6366TIP3    H219040   8.190   4.199   4.736
 6367TIP3   OH219041   2.719   5.668   0.390
 6367TIP3    H119042   2.695   5.754   0.355
 6367TIP3    H219043   2.712   5.678   0.485
 6368TIP3   OH219044   1.520   6.242   3.438
 6368TIP3    H119045   1.441   6.254   3.386
 6368TIP3    H219046   1.539   6.149   3.430
 6369TIP3   OH219047   1.328   5.722   4.792
 6369TIP3    H119048   1.335   5.652   4.728
 6369TIP3    H219049   1.287   5.681   4.868
 6370TIP3   OH219050   0.750   6.506   3.436
 6370TIP3    H119051   0.706   6.424   3.416
 6370TIP3    H219052   0.750   6.554   3.353
 6371TIP3   OH219053   7.434   5.431   1.431
 6371TIP3    H119054   7.500   5.500   1.441
 6371TIP3    H219055   7.483   5.350   1.442
 6372TIP3   OH219056   5.708   4.459   5.783
 6372TIP3    H119057   5.779   4.510   5.823
 6372TIP3    H219058   5.731   4.455   5.691
 6373TIP3   OH219059   1.845   6.847   1.881
 6373TIP3    H119060   1.901   6.873   1.954
 6373TIP3    H219061   1.756   6.855   1.916
 6374TIP3   OH219062   3.481   7.840   6.027
 6374TIP3    H119063   3.547   7.816   5.962
 6374TIP3    H219064   3.527   7.835   6.111
 6375TIP3   OH219065   0.590   3.266   5.853
 6375TIP3    H119066   0.590   3.230   5.764
 6375TIP3    H219067   0.678   3.249   5.886
 6376TIP3   OH219068   1.228   1.740   2.536
 6376TIP3    H119069   1.247   1.653   2.569
 6376TIP3    H219070   1.250   1.736   2.443
 6377TIP3   OH219071   8.277   2.258   2.428
 6377TIP3    H119072   8.212   2.197   2.394
 6377TIP3    H219073   8.349   2.254   2.365
 6378TIP3   OH219074   8.106   5.610   3.241
 6378TIP3    H119075   8.122   5.623   3.147
 6378TIP3    H219076   8.138   5.521   3.258
 6379TIP3   OH219077   2.693   4.586   6.149
 6379TIP3    H119078   2.668   4.494   6.151
 6379TIP3    H219079   2.681   4.616   6.240
 6380TIP3   OH219080   7.581   1.990   2.339
 6380TIP3    H119081   7.637   1.938   2.397
 6380TIP3    H219082   7.549   2.061   2.395
 6381TIP3   OH219083   7.965   1.858   0.457
 6381TIP3    H119084   8.027   1.784   0.457
 6381TIP3    H219085   7.886   1.823   0.416
 6382TIP3   OH219086   4.734   0.349   4.272
 6382TIP3    H119087   4.825   0.322   4.266
 6382TIP3    H219088   4.725   0.417   4.205
 6383TIP3   OH219089   2.667   1.173   5.062
 6383TIP3    H119090   2.612   1.094   5.062
 6383TIP3    H219091   2.679   1.194   5.155
 6384TIP3   OH219092   8.378   6.205   0.448
 6384TIP3    H119093   8.355   6.176   0.536
 6384TIP3    H219094   8.297   6.245   0.414
 6385TIP3   OH219095   2.573   3.102   4.287
 6385TIP3    H119096   2.529   3.042   4.227
 6385TIP3    H219097   2.507   3.169   4.306
 6386TIP3   OH219098   1.947   0.779   1.745
 6386TIP3    H119099   1.940   0.711   1.813
 6386TIP3    H219100   1.936   0.861   1.793
 6387TIP3   OH219101   7.001   0.753   0.348
 6387TIP3    H119102   7.080   0.706   0.322
 6387TIP3    H219103   6.943   0.747   0.272
 6388TIP3   OH219104   3.845   0.740   3.015
 6388TIP3    H119105   3.824   0.794   2.939
 6388TIP3    H219106   3.829   0.650   2.986
 6389TIP3   OH219107   5.820   7.337   2.708
 6389TIP3    H119108   5.868   7.366   2.630
 6389TIP3    H219109   5.729   7.357   2.688
 6390TIP3   OH219110   7.047   3.386   6.651
 6390TIP3    H119111   7.097   3.458   6.612
 6390TIP3    H219112   7.108   3.348   6.715
 6391TIP3   OH219113   7.372   3.325   0.583
 6391TIP3    H119114   7.366   3.343   0.489
 6391TIP3    H219115   7.281   3.324   0.613
 6392TIP3   OH219116   2.577   2.638   1.988
 6392TIP3    H119117   2.669   2.653   1.969
 6392TIP3    H219118   2.574   2.547   2.018
 6393TIP3   OH219119   3.458   7.111   4.098
 6393TIP3    H119120   3.463   7.039   4.160
 6393TIP3    H219121   3.382   7.163   4.126
 6394TIP3   OH219122   7.091   5.991   3.551
 6394TIP3    H119123   7.031   6.064   3.539
 6394TIP3    H219124   7.127   6.003   3.639
 6395TIP3   OH219125   0.639   3.407   2.665
 6395TIP3    H119126   0.622   3.486   2.715
 6395TIP3    H219127   0.554   3.363   2.658
 6396TIP3   OH219128   6.542   3.165   4.675
 6396TIP3    H119129   6.560   3.245   4.724
 6396TIP3    H219130   6.629   3.132   4.652
 6397TIP3   OH219131   5.924   4.035   5.344
 6397TIP3    H119132   5.961   4.105   5.291
 6397TIP3    H219133   5.889   3.972   5.281
 6398TIP3   OH219134   3.129   4.102   4.511
 6398TIP3    H119135   3.103   4.150   4.589
 6398TIP3    H219136   3.047   4.087   4.464
 6399TIP3   OH219137   0.613   4.122   6.690
 6399TIP3    H119138   0.550   4.068   6.642
 6399TIP3    H219139   0.560   4.179   6.746
 6400TIP3   OH219140   8.081   0.991   6.441
 6400TIP3    H119141   7.986   0.997   6.455
 6400TIP3    H219142   8.107   1.080   6.417
 6401TIP3   OH219143   2.236   6.243   6.057
 6401TIP3    H119144   2.274   6.313   6.005
 6401TIP3    H219145   2.303   6.174   6.059
 6402TIP3   OH219146   8.247   2.862   6.425
 6402TIP3    H119147   8.227   2.802   6.498
 6402TIP3    H219148   8.203   2.944   6.448
 6403TIP3   OH219149   5.846   6.375   0.038
 6403TIP3    H119150   5.867   6.397  -0.053
 6403TIP3    H219151   5.816   6.458   0.076
 6404TIP3   OH219152   8.261   2.569   4.004
 6404TIP3    H119153   8.259   2.480   3.967
 6404TIP3    H219154   8.273   2.626   3.928
 6405TIP3   OH219155   7.267   6.254   0.158
 6405TIP3    H119156   7.328   6.296   0.097
 6405TIP3    H219157   7.235   6.325   0.214
 6406TIP3   OH219158   6.963   1.559   5.533
 6406TIP3    H119159   6.888   1.577   5.591
 6406TIP3    H219160   6.937   1.481   5.484
 6407TIP3   OH219161   4.657   6.340   5.238
 6407TIP3    H119162   4.587   6.316   5.299
 6407TIP3    H219163   4.720   6.269   5.245
 6408TIP3   OH219164   6.676   6.569   0.323
 6408TIP3    H119165   6.596   6.544   0.277
 6408TIP3    H219166   6.657   6.553   0.416
 6409TIP3   OH219167   0.839   4.359   3.100
 6409TIP3    H119168   0.855   4.278   3.149
 6409TIP3    H219169   0.760   4.341   3.049
 6410TIP3   OH219170   7.306   1.887   1.258
 6410TIP3    H119171   7.374   1.948   1.229
 6410TIP3    H219172   7.328   1.804   1.215
 6411TIP3   OH219173   7.981   4.437   2.459
 6411TIP3    H119174   7.978   4.467   2.368
 6411TIP3    H219175   7.909   4.374   2.465
 6412TIP3   OH219176   4.935   0.597   4.395
 6412TIP3    H119177   4.953   0.508   4.365
 6412TIP3    H219178   4.975   0.600   4.483
 6413TIP3   OH219179   0.027   0.641   2.239
 6413TIP3    H119180   0.010   0.735   2.240
 6413TIP3    H219181   0.122   0.633   2.232
 6414TIP3   OH219182   0.790   2.358   4.658
 6414TIP3    H119183   0.741   2.299   4.601
 6414TIP3    H219184   0.725   2.389   4.722
 6415TIP3   OH219185   2.830   2.414   2.932
 6415TIP3    H119186   2.771   2.475   2.887
 6415TIP3    H219187   2.917   2.451   2.918
 6416TIP3   OH219188   1.934   6.579   1.038
 6416TIP3    H119189   1.940   6.495   0.992
 6416TIP3    H219190   1.923   6.554   1.130
 6417TIP3   OH219191   5.629   2.361   1.970
 6417TIP3    H119192   5.632   2.441   2.023
 6417TIP3    H219193   5.661   2.293   2.029
 6418TIP3   OH219194   3.420   7.064   2.368
 6418TIP3    H119195   3.443   6.972   2.378
 6418TIP3    H219196   3.341   7.076   2.420
 6419TIP3   OH219197   3.893   2.440   6.480
 6419TIP3    H119198   3.867   2.381   6.551
 6419TIP3    H219199   3.944   2.386   6.420
 6420TIP3   OH219200   0.098   7.133   6.536
 6420TIP3    H119201   0.103   7.140   6.632
 6420TIP3    H219202   0.180   7.092   6.510
 6421TIP3   OH219203   4.067   5.089   2.120
 6421TIP3    H119204   4.092   5.039   2.042
 6421TIP3    H219205   3.980   5.122   2.102
 6422TIP3   OH219206   2.580   4.324   2.664
 6422TIP3    H119207   2.528   4.327   2.584
 6422TIP3    H219208   2.554   4.402   2.713
 6423TIP3   OH219209   7.252   6.634   2.183
 6423TIP3    H119210   7.347   6.640   2.196
 6423TIP3    H219211   7.242   6.571   2.112
 6424TIP3   OH219212   2.092   1.215   5.450
 6424TIP3    H119213   2.161   1.212   5.516
 6424TIP3    H219214   2.015   1.178   5.494
 6425TIP3   OH219215   7.939   4.236   4.415
 6425TIP3    H119216   7.860   4.184   4.423
 6425TIP3    H219217   7.924   4.291   4.338
 6426TIP3   OH219218   7.707   4.068   4.476
 6426TIP3    H119219   7.679   3.977   4.469
 6426TIP3    H219220   7.640   4.117   4.429
 6427TIP3   OH219221   2.101   0.519   1.262
 6427TIP3    H119222   2.018   0.535   1.307
 6427TIP3    H219223   2.168   0.543   1.327
 6428TIP3   OH219224   8.210   3.975   6.169
 6428TIP3    H119225   8.131   3.952   6.120
 6428TIP3    H219226   8.221   4.069   6.155
 6429TIP3   OH219227   2.447   2.969   6.686
 6429TIP3    H119228   2.364   2.925   6.667
 6429TIP3    H219229   2.514   2.905   6.661
 6430TIP3   OH219230   7.961   1.237   0.830
 6430TIP3    H119231   8.024   1.308   0.841
 6430TIP3    H219232   7.932   1.215   0.918
 6431TIP3   OH219233   4.448   3.722   1.527
 6431TIP3    H119234   4.460   3.795   1.586
 6431TIP3    H219235   4.356   3.697   1.537
 6432TIP3   OH219236   6.322   7.658   2.012
 6432TIP3    H119237   6.396   7.701   2.056
 6432TIP3    H219238   6.357   7.575   1.982
 6433TIP3   OH219239   3.132   5.531   2.862
 6433TIP3    H119240   3.039   5.530   2.883
 6433TIP3    H219241   3.153   5.623   2.847
 6434TIP3   OH219242   7.216   2.295   0.567
 6434TIP3    H119243   7.203   2.233   0.495
 6434TIP3    H219244   7.131   2.340   0.575
 6435TIP3   OH219245   1.859   6.619   5.902
 6435TIP3    H119246   1.861   6.703   5.947
 6435TIP3    H219247   1.946   6.581   5.918
 6436TIP3   OH219248   4.872   2.279   5.902
 6436TIP3    H119249   4.861   2.340   5.975
 6436TIP3    H219250   4.967   2.272   5.892
 6437TIP3   OH219251   8.050   1.216   1.608
 6437TIP3    H119252   8.142   1.198   1.627
 6437TIP3    H219253   8.053   1.292   1.549
 6438TIP3   OH219254   1.172   3.324   4.514
 6438TIP3    H119255   1.123   3.242   4.511
 6438TIP3    H219256   1.253   3.303   4.560
 6439TIP3   OH219257   2.852   0.769   6.740
 6439TIP3    H119258   2.888   0.783   6.653
 6439TIP3    H219259   2.928   0.755   6.796
 6440TIP3   OH219260   8.065   7.843   5.874
 6440TIP3    H119261   7.986   7.890   5.900
 6440TIP3    H219262   8.114   7.906   5.820
 6441TIP3   OH219263   0.830   4.298   5.806
 6441TIP3    H119264   0.867   4.215   5.774
 6441TIP3    H219265   0.761   4.320   5.743
 6442TIP3   OH219266   4.681   2.248   1.116
 6442TIP3    H119267   4.681   2.169   1.062
 6442TIP3    H219268   4.687   2.215   1.206
 6443TIP3   OH219269   1.490   2.208   5.224
 6443TIP3    H119270   1.457   2.177   5.309
 6443TIP3    H219271   1.566   2.153   5.206
 6444TIP3   OH219272   2.738   4.796   3.845
 6444TIP3    H119273   2.654   4.755   3.866
 6444TIP3    H219274   2.738   4.802   3.749
 6445TIP3   OH219275   7.936   3.280   6.285
 6445TIP3    H119276   8.021   3.243   6.308
 6445TIP3    H219277   7.957   3.360   6.236
 6446TIP3   OH219278   4.225   7.009   0.453
 6446TIP3    H119279   4.306   6.968   0.423
 6446TIP3    H219280   4.247   7.046   0.538
 6447TIP3   OH219281  -0.001   7.407   6.171
 6447TIP3    H119282  -0.071   7.351   6.138
 6447TIP3    H219283   0.061   7.347   6.213
 6448TIP3   OH219284   7.211   0.582   6.898
 6448TIP3    H119285   7.119   0.571   6.875
 6448TIP3    H219286   7.246   0.638   6.829
 6449TIP3   OH219287   4.735   5.822   6.664
 6449TIP3    H119288   4.725   5.808   6.570
 6449TIP3    H219289   4.704   5.741   6.704
 6450TIP3   OH219290   2.935   1.861   2.904
 6450TIP3    H119291   3.019   1.880   2.945
 6450TIP3    H219292   2.928   1.925   2.833
 6451TIP3   OH219293   6.856   0.762   5.837
 6451TIP3    H119294   6.770   0.732   5.808
 6451TIP3    H219295   6.874   0.839   5.784
 6452TIP3   OH219296   7.150   5.737   4.305
 6452TIP3    H119297   7.128   5.827   4.282
 6452TIP3    H219298   7.233   5.744   4.353
 6453TIP3   OH219299   3.338   7.003   0.411
 6453TIP3    H119300   3.273   7.033   0.347
 6453TIP3    H219301   3.417   7.053   0.391
 6454TIP3   OH219302   7.962   1.817   1.649
 6454TIP3    H119303   8.056   1.802   1.634
 6454TIP3    H219304   7.960   1.885   1.715
 6455TIP3   OH219305   3.661   6.006   2.413
 6455TIP3    H119306   3.650   5.984   2.321
 6455TIP3    H219307   3.649   6.101   2.416
 6456TIP3   OH219308   7.052   3.160   2.009
 6456TIP3    H119309   7.016   3.105   2.078
 6456TIP3    H219310   7.071   3.099   1.937
 6457TIP3   OH219311   2.335   6.002   4.060
 6457TIP3    H119312   2.253   6.046   4.037
 6457TIP3    H219313   2.364   5.961   3.978
 6458TIP3   OH219314   1.806   3.461   0.735
 6458TIP3    H119315   1.739   3.412   0.782
 6458TIP3    H219316   1.757   3.520   0.678
 6459TIP3   OH219317   3.148   2.675   1.080
 6459TIP3    H119318   3.149   2.600   1.021
 6459TIP3    H219319   3.237   2.680   1.115
 6460TIP3   OH219320   2.408   7.228   2.626
 6460TIP3    H119321   2.365   7.144   2.644
 6460TIP3    H219322   2.491   7.223   2.673
 6461TIP3   OH219323   5.988   1.373   1.757
 6461TIP3    H119324   5.927   1.445   1.770
 6461TIP3    H219325   6.069   1.403   1.799
 6462TIP3   OH219326   5.845  -0.006   3.296
 6462TIP3    H119327   5.815   0.084   3.312
 6462TIP3    H219328   5.872  -0.038   3.382
 6463TIP3   OH219329   3.865   1.790   0.668
 6463TIP3    H119330   3.913   1.873   0.663
 6463TIP3    H219331   3.822   1.792   0.753
 6464TIP3   OH219332   3.024   0.935   0.846
 6464TIP3    H119333   3.012   0.976   0.932
 6464TIP3    H219334   2.997   0.844   0.859
 6465TIP3   OH219335   4.151   6.002   2.778
 6465TIP3    H119336   4.135   6.021   2.871
 6465TIP3    H219337   4.067   6.018   2.736
 6466TIP3   OH219338   6.191   7.369   5.624
 6466TIP3    H119339   6.113   7.350   5.571
 6466TIP3    H219340   6.264   7.355   5.564
 6467TIP3   OH219341   6.679   1.507   1.521
 6467TIP3    H119342   6.683   1.545   1.609
 6467TIP3    H219343   6.769   1.509   1.490
 6468TIP3   OH219344   7.026   3.968   4.173
 6468TIP3    H119345   7.010   4.014   4.255
 6468TIP3    H219346   6.971   3.890   4.178
 6469TIP3   OH219347   8.239   5.074   2.967
 6469TIP3    H119348   8.289   5.139   3.016
 6469TIP3    H219349   8.279   5.075   2.880
 6470TIP3   OH219350   0.584   2.852   2.949
 6470TIP3    H119351   0.505   2.799   2.948
 6470TIP3    H219352   0.605   2.867   2.857
 6471TIP3   OH219353   6.360   5.165   6.266
 6471TIP3    H119354   6.347   5.260   6.271
 6471TIP3    H219355   6.320   5.140   6.182
 6472TIP3   OH219356   2.952   3.896   5.045
 6472TIP3    H119357   2.991   3.883   4.959
 6472TIP3    H219358   2.926   3.988   5.045
 6473TIP3   OH219359   3.318   0.667   0.209
 6473TIP3    H119360   3.223   0.667   0.196
 6473TIP3    H219361   3.351   0.719   0.136
 6474TIP3   OH219362   6.877   5.785   3.026
 6474TIP3    H119363   6.883   5.738   3.109
 6474TIP3    H219364   6.853   5.718   2.962
 6475TIP3   OH219365   0.971   2.134   1.633
 6475TIP3    H119366   1.009   2.209   1.679
 6475TIP3    H219367   0.891   2.169   1.594
 6476TIP3   OH219368   6.232   5.540   3.527
 6476TIP3    H119369   6.322   5.527   3.498
 6476TIP3    H219370   6.239   5.566   3.618
 6477TIP3   OH219371   5.664   6.754   1.008
 6477TIP3    H119372   5.577   6.788   0.983
 6477TIP3    H219373   5.701   6.822   1.064
 6478TIP3   OH219374   8.150   4.187   2.992
 6478TIP3    H119375   8.161   4.236   2.910
 6478TIP3    H219376   8.110   4.250   3.052
 6479TIP3   OH219377   8.260   7.742   1.323
 6479TIP3    H119378   8.251   7.710   1.413
 6479TIP3    H219379   8.250   7.837   1.331
 6480TIP3   OH219380   2.209   3.641   1.153
 6480TIP3    H119381   2.188   3.560   1.200
 6480TIP3    H219382   2.282   3.616   1.095
 6481TIP3   OH219383   6.475   4.138   1.541
 6481TIP3    H119384   6.518   4.187   1.472
 6481TIP3    H219385   6.471   4.048   1.509
 6482TIP3   OH219386   4.293   6.545   5.698
 6482TIP3    H119387   4.236   6.573   5.627
 6482TIP3    H219388   4.354   6.484   5.657
 6483TIP3   OH219389   8.412   4.934   4.744
 6483TIP3    H119390   8.360   5.014   4.735
 6483TIP3    H219391   8.410   4.895   4.657
 6484TIP3   OH219392   3.837   7.576   5.703
 6484TIP3    H119393   3.900   7.646   5.719
 6484TIP3    H219394   3.888   7.496   5.707
 6485TIP3   OH219395   3.551   1.536   5.215
 6485TIP3    H119396   3.607   1.497   5.283
 6485TIP3    H219397   3.580   1.627   5.210
 6486TIP3   OH219398   3.885   2.262   5.830
 6486TIP3    H119399   3.935   2.324   5.775
 6486TIP3    H219400   3.804   2.309   5.850
 6487TIP3   OH219401   7.138   4.549   6.212
 6487TIP3    H119402   7.049   4.514   6.216
 6487TIP3    H219403   7.190   4.489   6.265
 6488TIP3   OH219404   5.100   1.377   6.044
 6488TIP3    H119405   5.085   1.342   6.132
 6488TIP3    H219406   5.139   1.304   5.996
 6489TIP3   OH219407   4.553   2.750   3.320
 6489TIP3    H119408   4.585   2.817   3.381
 6489TIP3    H219409   4.545   2.796   3.236
 6490TIP3   OH219410   4.484   1.522   3.663
 6490TIP3    H119411   4.419   1.512   3.732
 6490TIP3    H219412   4.537   1.442   3.668
 6491TIP3   OH219413   7.438   0.068   1.136
 6491TIP3    H119414   7.471   0.028   1.216
 6491TIP3    H219415   7.413   0.157   1.162
 6492TIP3   OH219416   7.291   7.388   6.581
 6492TIP3    H119417   7.334   7.305   6.602
 6492TIP3    H219418   7.356   7.454   6.604
 6493TIP3   OH219419   7.288   3.648   3.856
 6493TIP3    H119420   7.299   3.743   3.862
 6493TIP3    H219421   7.240   3.625   3.935
 6494TIP3   OH219422   2.483   2.739   0.273
 6494TIP3    H119423   2.567   2.757   0.315
 6494TIP3    H219424   2.451   2.660   0.317
 6495TIP3   OH219425   5.106   7.716   2.384
 6495TIP3    H119426   5.086   7.657   2.311
 6495TIP3    H219427   5.027   7.769   2.395
 6496TIP3   OH219428   5.426   5.909   2.661
 6496TIP3    H119429   5.468   5.978   2.609
 6496TIP3    H219430   5.486   5.894   2.734
 6497TIP3   OH219431   0.488   7.552   4.904
 6497TIP3    H119432   0.567   7.593   4.868
 6497TIP3    H219433   0.419   7.573   4.841
 6498TIP3   OH219434   3.958   4.789   4.505
 6498TIP3    H119435   4.038   4.781   4.452
 6498TIP3    H219436   3.887   4.764   4.445
 6499TIP3   OH219437   3.299   6.051   0.221
 6499TIP3    H119438   3.325   6.143   0.220
 6499TIP3    H219439   3.270   6.034   0.131
 6500TIP3   OH219440   4.438   7.476   0.031
 6500TIP3    H119441   4.381   7.544   0.066
 6500TIP3    H219442   4.384   7.397   0.028
 6501TIP3   OH219443   6.857   5.974   1.328
 6501TIP3    H119444   6.796   5.901   1.338
 6501TIP3    H219445   6.801   6.052   1.323
 6502TIP3   OH219446   3.443   6.230   5.705
 6502TIP3    H119447   3.463   6.313   5.661
 6502TIP3    H219448   3.355   6.207   5.675
 6503TIP3   OH219449   1.082   3.332   2.412
 6503TIP3    H119450   1.041   3.401   2.360
 6503TIP3    H219451   1.020   3.316   2.483
 6504TIP3   OH219452   8.401   4.238   4.002
 6504TIP3    H119453   8.469   4.288   3.957
 6504TIP3    H219454   8.324   4.296   4.000
 6505TIP3   OH219455   0.929   7.704   4.742
 6505TIP3    H119456   0.917   7.635   4.676
 6505TIP3    H219457   0.926   7.785   4.692
 6506TIP3   OH219458   3.601   3.037   5.697
 6506TIP3    H119459   3.523   3.092   5.686
 6506TIP3    H219460   3.650   3.078   5.769
 6507TIP3   OH219461   4.159   3.488   2.361
 6507TIP3    H119462   4.175   3.581   2.375
 6507TIP3    H219463   4.171   3.475   2.267
 6508TIP3   OH219464   6.531   2.013   3.529
 6508TIP3    H119465   6.511   2.087   3.586
 6508TIP3    H219466   6.569   2.053   3.450
 6509TIP3   OH219467   5.503   7.752   6.448
 6509TIP3    H119468   5.533   7.832   6.404
 6509TIP3    H219469   5.581   7.719   6.492
 6510TIP3   OH219470   6.364   6.823   2.478
 6510TIP3    H119471   6.454   6.838   2.450
 6510TIP3    H219472   6.334   6.751   2.423
 6511TIP3   OH219473   6.690   7.538   6.129
 6511TIP3    H119474   6.779   7.552   6.097
 6511TIP3    H219475   6.635   7.589   6.069
 6512TIP3   OH219476   5.949   4.125   3.369
 6512TIP3    H119477   6.033   4.091   3.338
 6512TIP3    H219478   5.960   4.220   3.370
 6513TIP3   OH219479   5.405   2.832   5.776
 6513TIP3    H119480   5.415   2.922   5.744
 6513TIP3    H219481   5.460   2.829   5.854
 6514TIP3   OH219482   4.918   1.104   2.756
 6514TIP3    H119483   4.853   1.086   2.688
 6514TIP3    H219484   4.872   1.155   2.822
 6515TIP3   OH219485   1.356   0.899   5.263
 6515TIP3    H119486   1.423   0.835   5.289
 6515TIP3    H219487   1.274   0.849   5.262
 6516TIP3   OH219488   1.582   6.030   5.185
 6516TIP3    H119489   1.557   6.053   5.095
 6516TIP3    H219490   1.509   6.060   5.239
 6517TIP3   OH219491   8.258   1.258   6.200
 6517TIP3    H119492   8.328   1.322   6.183
 6517TIP3    H219493   8.193   1.307   6.251
 6518TIP3   OH219494   6.084   2.459   1.049
 6518TIP3    H119495   6.153   2.504   1.098
 6518TIP3    H219496   6.131   2.407   0.984
 6519TIP3   OH219497   2.435   3.681   6.349
 6519TIP3    H119498   2.472   3.602   6.390
 6519TIP3    H219499   2.345   3.656   6.327
 6520TIP3   OH219500   2.277   5.295   1.578
 6520TIP3    H119501   2.274   5.282   1.673
 6520TIP3    H219502   2.202   5.352   1.559
 6521TIP3   OH219503   3.052   2.501   1.762
 6521TIP3    H119504   3.091   2.414   1.755
 6521TIP3    H219505   3.110   2.558   1.712
 6522TIP3   OH219506   4.797   7.060   4.081
 6522TIP3    H119507   4.734   7.122   4.118
 6522TIP3    H219508   4.870   7.115   4.051
 6523TIP3   OH219509   7.378   5.694   3.040
 6523TIP3    H119510   7.403   5.740   2.960
 6523TIP3    H219511   7.395   5.757   3.110
 6524TIP3   OH219512   7.676   6.896   2.957
 6524TIP3    H119513   7.691   6.900   3.051
 6524TIP3    H219514   7.583   6.918   2.946
 6525TIP3   OH219515   1.782   0.453   5.605
 6525TIP3    H119516   1.715   0.433   5.539
 6525TIP3    H219517   1.740   0.517   5.663
 6526TIP3   OH219518   2.267   3.297   4.161
 6526TIP3    H119519   2.282   3.279   4.254
 6526TIP3    H219520   2.173   3.287   4.150
 6527TIP3   OH219521   4.339   1.974   2.313
 6527TIP3    H119522   4.396   1.936   2.380
 6527TIP3    H219523   4.250   1.957   2.345
 6528TIP3   OH219524   4.325   2.859   6.335
 6528TIP3    H119525   4.239   2.861   6.376
 6528TIP3    H219526   4.361   2.773   6.358
 6529TIP3   OH219527   1.285   7.146   0.151
 6529TIP3    H119528   1.290   7.077   0.085
 6529TIP3    H219529   1.293   7.100   0.234
 6530TIP3   OH219530   6.582   7.009   5.599
 6530TIP3    H119531   6.676   7.017   5.616
 6530TIP3    H219532   6.563   7.080   5.538
 6531TIP3   OH219533   7.717   4.899   1.191
 6531TIP3    H119534   7.706   4.946   1.109
 6531TIP3    H219535   7.706   4.806   1.168
 6532TIP3   OH219536   3.981   7.770   2.871
 6532TIP3    H119537   3.922   7.832   2.915
 6532TIP3    H219538   3.987   7.803   2.781
 6533TIP3   OH219539   6.729   0.947   2.240
 6533TIP3    H119540   6.717   1.041   2.254
 6533TIP3    H219541   6.640   0.913   2.226
 6534TIP3   OH219542   0.089   5.970   0.330
 6534TIP3    H119543   0.065   6.049   0.377
 6534TIP3    H219544   0.182   5.957   0.351
 6535TIP3   OH219545   1.966   1.469   2.307
 6535TIP3    H119546   1.956   1.549   2.359
 6535TIP3    H219547   2.018   1.411   2.363
 6536TIP3   OH219548   4.050   0.870   3.105
 6536TIP3    H119549   3.977   0.819   3.068
 6536TIP3    H219550   4.068   0.937   3.039
 6537TIP3   OH219551   8.225   5.881   6.690
 6537TIP3    H119552   8.133   5.887   6.714
 6537TIP3    H219553   8.259   5.970   6.699
 6538TIP3   OH219554   7.145   1.877   2.949
 6538TIP3    H119555   7.123   1.885   3.042
 6538TIP3    H219556   7.068   1.911   2.903
 6539TIP3   OH219557   7.244   0.462   3.359
 6539TIP3    H119558   7.203   0.405   3.425
 6539TIP3    H219559   7.204   0.548   3.373
 6540TIP3   OH219560   4.484   4.932   4.615
 6540TIP3    H119561   4.392   4.945   4.593
 6540TIP3    H219562   4.485   4.911   4.708
 6541TIP3   OH219563   0.546   3.913   0.758
 6541TIP3    H119564   0.620   3.853   0.773
 6541TIP3    H219565   0.482   3.860   0.711
 6542TIP3   OH219566   5.828   6.785   3.020
 6542TIP3    H119567   5.879   6.710   3.050
 6542TIP3    H219568   5.876   6.819   2.944
 6543TIP3   OH219569   8.018   7.453   1.860
 6543TIP3    H119570   8.055   7.377   1.905
 6543TIP3    H219571   7.995   7.422   1.773
 6544TIP3   OH219572   6.835   4.477   5.099
 6544TIP3    H119573   6.839   4.389   5.136
 6544TIP3    H219574   6.881   4.532   5.162
 6545TIP3   OH219575   5.566   2.496   5.598
 6545TIP3    H119576   5.522   2.436   5.658
 6545TIP3    H219577   5.635   2.536   5.652
 6546TIP3   OH219578   0.952   4.041   5.304
 6546TIP3    H119579   1.040   4.039   5.342
 6546TIP3    H219580   0.956   4.109   5.237
 6547TIP3   OH219581   2.371   2.836   0.636
 6547TIP3    H119582   2.317   2.899   0.588
 6547TIP3    H219583   2.449   2.827   0.582
 6548TIP3   OH219584   3.921   6.861   4.267
 6548TIP3    H119585   3.974   6.940   4.279
 6548TIP3    H219586   3.982   6.789   4.286
 6549TIP3   OH219587   3.467   5.525   2.409
 6549TIP3    H119588   3.451   5.502   2.501
 6549TIP3    H219589   3.492   5.617   2.412
 6550TIP3   OH219590   5.515   2.028   4.166
 6550TIP3    H119591   5.558   2.109   4.140
 6550TIP3    H219592   5.431   2.029   4.119
 6551TIP3   OH219593   4.410   4.381   3.200
 6551TIP3    H119594   4.380   4.446   3.263
 6551TIP3    H219595   4.503   4.373   3.217
 6552TIP3   OH219596   2.956   5.997   4.296
 6552TIP3    H119597   2.909   5.930   4.346
 6552TIP3    H219598   2.997   5.948   4.224
 6553TIP3   OH219599   7.903   7.698   6.151
 6553TIP3    H119600   7.897   7.735   6.239
 6553TIP3    H219601   7.991   7.724   6.121
 6554TIP3   OH219602   4.615   0.743   6.248
 6554TIP3    H119603   4.580   0.762   6.161
 6554TIP3    H219604   4.587   0.817   6.301
 6555TIP3   OH219605   7.378   0.039   5.370
 6555TIP3    H119606   7.301   0.088   5.341
 6555TIP3    H219607   7.452   0.095   5.346
 6556TIP3   OH219608   5.468   6.538   0.143
 6556TIP3    H119609   5.489   6.629   0.124
 6556TIP3    H219610   5.432   6.504   0.061
 6557TIP3   OH219611   6.716   6.641   5.945
 6557TIP3    H119612   6.688   6.627   6.035
 6557TIP3    H219613   6.739   6.734   5.941
 6558TIP3   OH219614   5.576   7.638   3.824
 6558TIP3    H119615   5.526   7.692   3.762
 6558TIP3    H219616   5.644   7.597   3.770
 6559TIP3   OH219617   1.450   1.817   1.363
 6559TIP3    H119618   1.437   1.798   1.456
 6559TIP3    H219619   1.530   1.869   1.360
 6560TIP3   OH219620   1.133   0.566   6.563
 6560TIP3    H119621   1.131   0.472   6.586
 6560TIP3    H219622   1.130   0.610   6.648
 6561TIP3   OH219623   7.971   6.092   1.812
 6561TIP3    H119624   7.928   6.009   1.793
 6561TIP3    H219625   7.915   6.136   1.875
 6562TIP3   OH219626   6.454   5.436   5.953
 6562TIP3    H119627   6.513   5.458   5.881
 6562TIP3    H219628   6.394   5.371   5.916
 6563TIP3   OH219629   8.098   1.552   3.817
 6563TIP3    H119630   8.192   1.566   3.813
 6563TIP3    H219631   8.065   1.621   3.875
 6564TIP3   OH219632   1.630   7.475   4.049
 6564TIP3    H119633   1.579   7.469   3.968
 6564TIP3    H219634   1.564   7.480   4.118
 6565TIP3   OH219635   2.680   0.962   6.855
 6565TIP3    H119636   2.714   1.017   6.926
 6565TIP3    H219637   2.757   0.918   6.819
 6566TIP3   OH219638   7.714   5.956   2.781
 6566TIP3    H119639   7.744   5.914   2.701
 6566TIP3    H219640   7.633   6.002   2.756
 6567TIP3   OH219641   4.310   4.016   1.801
 6567TIP3    H119642   4.261   4.043   1.879
 6567TIP3    H219643   4.316   4.095   1.748
 6568TIP3   OH219644   3.135   6.267   3.889
 6568TIP3    H119645   3.130   6.172   3.877
 6568TIP3    H219646   3.159   6.301   3.803
 6569TIP3   OH219647   2.115   6.634   4.341
 6569TIP3    H119648   2.078   6.593   4.263
 6569TIP3    H219649   2.132   6.724   4.314
 6570TIP3   OH219650   1.275   1.212   4.235
 6570TIP3    H119651   1.360   1.250   4.255
 6570TIP3    H219652   1.237   1.193   4.321
 6571TIP3   OH219653   1.696   6.055   0.538
 6571TIP3    H119654   1.639   6.118   0.583
 6571TIP3    H219655   1.714   5.988   0.604
 6572TIP3   OH219656   5.987   0.769   0.784
 6572TIP3    H119657   6.078   0.740   0.792
 6572TIP3    H219658   5.956   0.776   0.875
 6573TIP3   OH219659   2.384   4.647   0.491
 6573TIP3    H119660   2.361   4.672   0.580
 6573TIP3    H219661   2.327   4.572   0.472
 6574TIP3   OH219662   2.688   2.760   0.995
 6574TIP3    H119663   2.657   2.845   1.026
 6574TIP3    H219664   2.782   2.771   0.982
 6575TIP3   OH219665   7.870   2.323   5.820
 6575TIP3    H119666   7.901   2.257   5.759
 6575TIP3    H219667   7.885   2.285   5.907
 6576TIP3   OH219668   2.143   1.911   2.514
 6576TIP3    H119669   2.121   1.972   2.585
 6576TIP3    H219670   2.134   1.824   2.553
 6577TIP3   OH219671   3.285   0.258   0.590
 6577TIP3    H119672   3.322   0.195   0.528
 6577TIP3    H219673   3.301   0.343   0.549
 6578TIP3   OH219674   5.216   3.655   6.298
 6578TIP3    H119675   5.297   3.706   6.294
 6578TIP3    H219676   5.232   3.590   6.367
 6579TIP3   OH219677   4.352   3.330   4.607
 6579TIP3    H119678   4.387   3.268   4.672
 6579TIP3    H219679   4.257   3.320   4.614
 6580TIP3   OH219680   4.061   0.091   2.047
 6580TIP3    H119681   4.118   0.045   2.109
 6580TIP3    H219682   3.975   0.089   2.088
 6581TIP3   OH219683   3.722   1.284   2.562
 6581TIP3    H119684   3.711   1.202   2.513
 6581TIP3    H219685   3.803   1.322   2.528
 6582TIP3   OH219686   3.951   4.112   2.670
 6582TIP3    H119687   3.907   4.103   2.755
 6582TIP3    H219688   4.015   4.182   2.684
 6583TIP3   OH219689   1.203   5.374   5.197
 6583TIP3    H119690   1.228   5.298   5.145
 6583TIP3    H219691   1.108   5.380   5.187
 6584TIP3   OH219692   5.564   3.583   1.923
 6584TIP3    H119693   5.488   3.526   1.938
 6584TIP3    H219694   5.639   3.533   1.956
 6585TIP3   OH219695   3.578   6.279   2.492
 6585TIP3    H119696   3.540   6.304   2.577
 6585TIP3    H219697   3.528   6.329   2.428
 6586TIP3   OH219698   0.256   7.173   4.608
 6586TIP3    H119699   0.195   7.130   4.667
 6586TIP3    H219700   0.312   7.226   4.665
 6587TIP3   OH219701   6.057   2.235   3.712
 6587TIP3    H119702   6.077   2.325   3.685
 6587TIP3    H219703   5.988   2.244   3.777
 6588TIP3   OH219704   4.570   2.263   5.398
 6588TIP3    H119705   4.632   2.219   5.340
 6588TIP3    H219706   4.549   2.345   5.352
 6589TIP3   OH219707   4.224   4.089   2.058
 6589TIP3    H119708   4.185   4.158   2.113
 6589TIP3    H219709   4.312   4.122   2.037
 6590TIP3   OH219710   6.789   3.196   0.342
 6590TIP3    H119711   6.819   3.107   0.365
 6590TIP3    H219712   6.869   3.248   0.342
 6591TIP3   OH219713   6.392   5.039   0.315
 6591TIP3    H119714   6.456   5.102   0.348
 6591TIP3    H219715   6.307   5.083   0.326
 6592TIP3   OH219716   7.480   5.545   5.248
 6592TIP3    H119717   7.445   5.565   5.335
 6592TIP3    H219718   7.410   5.497   5.205
 6593TIP3   OH219719   4.862   3.188   1.076
 6593TIP3    H119720   4.903   3.259   1.026
 6593TIP3    H219721   4.772   3.185   1.044
 6594TIP3   OH219722   5.274   7.041   5.941
 6594TIP3    H119723   5.203   6.989   5.902
 6594TIP3    H219724   5.247   7.054   6.032
 6595TIP3   OH219725   1.381   6.140   1.146
 6595TIP3    H119726   1.468   6.127   1.183
 6595TIP3    H219727   1.397   6.171   1.057
 6596TIP3   OH219728  -0.025   6.975   3.249
 6596TIP3    H119729   0.044   6.919   3.214
 6596TIP3    H219730  -0.028   7.051   3.191
 6597TIP3   OH219731   4.781   2.641   2.858
 6597TIP3    H119732   4.851   2.686   2.904
 6597TIP3    H219733   4.734   2.710   2.811
 6598TIP3   OH219734   0.629   7.847   4.131
 6598TIP3    H119735   0.622   7.939   4.157
 6598TIP3    H219736   0.651   7.851   4.038
 6599TIP3   OH219737   6.514   6.151   0.887
 6599TIP3    H119738   6.419   6.145   0.900
 6599TIP3    H219739   6.536   6.073   0.837
 6600TIP3   OH219740   2.074   5.205   2.022
 6600TIP3    H119741   2.159   5.227   2.061
 6600TIP3    H219742   2.030   5.290   2.014
 6601TIP3   OH219743   3.434   0.710   6.392
 6601TIP3    H119744   3.453   0.622   6.358
 6601TIP3    H219745   3.497   0.767   6.346
 6602TIP3   OH219746   5.231   5.056   0.843
 6602TIP3    H119747   5.299   5.120   0.863
 6602TIP3    H219748   5.191   5.089   0.762
 6603TIP3   OH219749   3.937   0.777   4.719
 6603TIP3    H119750   3.949   0.845   4.652
 6603TIP3    H219751   3.963   0.696   4.676
 6604TIP3   OH219752   3.749   5.645   6.535
 6604TIP3    H119753   3.726   5.724   6.582
 6604TIP3    H219754   3.678   5.632   6.472
 6605TIP3   OH219755   3.682   3.596   1.302
 6605TIP3    H119756   3.777   3.608   1.291
 6605TIP3    H219757   3.645   3.618   1.216
 6606TIP3   OH219758   2.330   4.177   6.691
 6606TIP3    H119759   2.262   4.139   6.747
 6606TIP3    H219760   2.409   4.177   6.745
 6607TIP3   OH219761   5.894   1.982   6.771
 6607TIP3    H119762   5.901   2.068   6.730
 6607TIP3    H219763   5.893   1.920   6.697
 6608TIP3   OH219764   7.565   3.881   5.615
 6608TIP3    H119765   7.477   3.915   5.629
 6608TIP3    H219766   7.552   3.794   5.578
 6609TIP3   OH219767   0.552   5.458   4.676
 6609TIP3    H119768   0.543   5.542   4.722
 6609TIP3    H219769   0.640   5.461   4.640
 6610TIP3   OH219770   7.313   5.689   6.703
 6610TIP3    H119771   7.285   5.618   6.761
 6610TIP3    H219772   7.346   5.756   6.762
 6611TIP3   OH219773   0.708   7.321   3.127
 6611TIP3    H119774   0.691   7.231   3.099
 6611TIP3    H219775   0.770   7.312   3.199
 6612TIP3   OH219776   4.210   5.653   1.200
 6612TIP3    H119777   4.238   5.699   1.121
 6612TIP3    H219778   4.148   5.587   1.169
 6613TIP3   OH219779   6.996   1.433   3.888
 6613TIP3    H119780   7.017   1.483   3.810
 6613TIP3    H219781   7.050   1.472   3.957
 6614TIP3   OH219782   4.613   3.589   4.795
 6614TIP3    H119783   4.599   3.568   4.703
 6614TIP3    H219784   4.533   3.560   4.839
 6615TIP3   OH219785   8.342   4.205   5.608
 6615TIP3    H119786   8.437   4.217   5.609
 6615TIP3    H219787   8.329   4.129   5.552
 6616TIP3   OH219788   2.030   1.153   3.673
 6616TIP3    H119789   2.002   1.243   3.686
 6616TIP3    H219790   2.118   1.149   3.710
 6617TIP3   OH219791   7.253   7.809   5.309
 6617TIP3    H119792   7.267   7.715   5.295
 6617TIP3    H219793   7.341   7.846   5.315
 6618TIP3   OH219794   2.493   6.290   4.590
 6618TIP3    H119795   2.523   6.240   4.515
 6618TIP3    H219796   2.543   6.371   4.587
 6619TIP3   OH219797   2.177   5.879   6.647
 6619TIP3    H119798   2.136   5.826   6.715
 6619TIP3    H219799   2.106   5.901   6.587
 6620TIP3   OH219800   5.549   0.685   2.056
 6620TIP3    H119801   5.531   0.736   1.977
 6620TIP3    H219802   5.483   0.616   2.055
 6621TIP3   OH219803   6.335   6.284   5.204
 6621TIP3    H119804   6.323   6.378   5.186
 6621TIP3    H219805   6.391   6.282   5.281
 6622TIP3   OH219806   3.231   2.649   0.080
 6622TIP3    H119807   3.141   2.673   0.059
 6622TIP3    H219808   3.224   2.600   0.162
 6623TIP3   OH219809   7.086   3.561   5.088
 6623TIP3    H119810   7.084   3.647   5.130
 6623TIP3    H219811   7.179   3.543   5.073
 6624TIP3   OH219812   0.160   7.543   5.680
 6624TIP3    H119813   0.215   7.621   5.690
 6624TIP3    H219814   0.213   7.484   5.627
 6625TIP3   OH219815   8.369   7.901   5.679
 6625TIP3    H119816   8.290   7.949   5.652
 6625TIP3    H219817   8.440   7.963   5.664
 6626TIP3   OH219818   4.416   0.764   0.949
 6626TIP3    H119819   4.324   0.788   0.957
 6626TIP3    H219820   4.464   0.835   0.991
 6627TIP3   OH219821   3.957   3.996   6.212
 6627TIP3    H119822   3.930   3.948   6.134
 6627TIP3    H219823   3.910   3.954   6.284
 6628TIP3   OH219824   2.262   2.782   4.015
 6628TIP3    H119825   2.247   2.690   3.996
 6628TIP3    H219826   2.176   2.823   4.005
 6629TIP3   OH219827   0.025   5.368   0.255
 6629TIP3    H119828   0.058   5.370   0.165
 6629TIP3    H219829  -0.023   5.450   0.265
 6630TIP3   OH219830   4.680   4.095   6.454
 6630TIP3    H119831   4.684   4.169   6.515
 6630TIP3    H219832   4.747   4.114   6.388
 6631TIP3   OH219833   8.217   5.223   1.836
 6631TIP3    H119834   8.230   5.221   1.741
 6631TIP3    H219835   8.302   5.198   1.872
 6632TIP3   OH219836   6.925   4.933   4.771
 6632TIP3    H119837   6.850   4.885   4.736
 6632TIP3    H219838   6.887   4.995   4.833
 6633TIP3   OH219839   7.197   3.177   5.655
 6633TIP3    H119840   7.205   3.229   5.735
 6633TIP3    H219841   7.274   3.202   5.603
 6634TIP3   OH219842   5.984   0.704   2.365
 6634TIP3    H119843   6.049   0.648   2.322
 6634TIP3    H219844   5.903   0.688   2.316
 6635TIP3   OH219845   0.591   4.308   4.252
 6635TIP3    H119846   0.677   4.309   4.210
 6635TIP3    H219847   0.576   4.399   4.277
 6636TIP3   OH219848   6.191   2.492   0.452
 6636TIP3    H119849   6.168   2.568   0.505
 6636TIP3    H219850   6.124   2.426   0.473
 6637TIP3   OH219851   7.608   1.328   1.962
 6637TIP3    H119852   7.668   1.400   1.979
 6637TIP3    H219853   7.640   1.287   1.882
 6638TIP3   OH219854   1.366   4.062   2.347
 6638TIP3    H119855   1.344   4.097   2.260
 6638TIP3    H219856   1.340   4.130   2.408
 6639TIP3   OH219857   0.074   6.095   5.970
 6639TIP3    H119858   0.046   6.160   6.034
 6639TIP3    H219859  -0.006   6.073   5.922
 6640TIP3   OH219860   5.978   0.026   2.920
 6640TIP3    H119861   5.967  -0.059   2.963
 6640TIP3    H219862   6.040   0.073   2.977
 6641TIP3   OH219863   2.236   2.154   0.396
 6641TIP3    H119864   2.185   2.177   0.319
 6641TIP3    H219865   2.237   2.234   0.449
 6642TIP3   OH219866   3.302   3.364   6.194
 6642TIP3    H119867   3.224   3.419   6.186
 6642TIP3    H219868   3.356   3.408   6.260
 6643TIP3   OH219869   0.618   7.071   6.244
 6643TIP3    H119870   0.628   7.097   6.152
 6643TIP3    H219871   0.610   6.976   6.241
 6644TIP3   OH219872   7.091   6.861   2.120
 6644TIP3    H119873   7.163   6.821   2.171
 6644TIP3    H219874   7.021   6.797   2.125
 6645TIP3   OH219875   7.968   5.159   2.340
 6645TIP3    H119876   7.930   5.091   2.284
 6645TIP3    H219877   8.061   5.136   2.347
 6646TIP3   OH219878   4.785   2.318   6.853
 6646TIP3    H119879   4.793   2.273   6.769
 6646TIP3    H219880   4.725   2.390   6.835
 6647TIP3   OH219881   3.238   1.771   0.280
 6647TIP3    H119882   3.225   1.703   0.213
 6647TIP3    H219883   3.304   1.734   0.339
 6648TIP3   OH219884   3.670   5.405   1.904
 6648TIP3    H119885   3.666   5.315   1.873
 6648TIP3    H219886   3.591   5.415   1.958
 6649TIP3   OH219887   8.166   0.627   6.627
 6649TIP3    H119888   8.095   0.690   6.636
 6649TIP3    H219889   8.201   0.642   6.540
 6650TIP3   OH219890   3.497   4.990   1.485
 6650TIP3    H119891   3.551   5.013   1.409
 6650TIP3    H219892   3.541   4.914   1.523
 6651TIP3   OH219893   5.830   6.522   1.865
 6651TIP3    H119894   5.839   6.526   1.960
 6651TIP3    H219895   5.742   6.486   1.851
 6652TIP3   OH219896   4.597   6.225   5.796
 6652TIP3    H119897   4.521   6.189   5.751
 6652TIP3    H219898   4.597   6.318   5.774
 6653TIP3   OH219899   3.808   4.452   0.883
 6653TIP3    H119900   3.748   4.518   0.848
 6653TIP3    H219901   3.785   4.372   0.836
 6654TIP3   OH219902   3.869   0.232   4.351
 6654TIP3    H119903   3.954   0.258   4.387
 6654TIP3    H219904   3.889   0.159   4.292
 6655TIP3   OH219905   2.081   2.881   0.945
 6655TIP3    H119906   2.028   2.948   0.989
 6655TIP3    H219907   2.166   2.923   0.933
 6656TIP3   OH219908   6.062   1.139   5.151
 6656TIP3    H119909   6.030   1.212   5.097
 6656TIP3    H219910   6.057   1.063   5.093
 6657TIP3   OH219911   3.861   1.451   2.943
 6657TIP3    H119912   3.931   1.464   3.008
 6657TIP3    H219913   3.825   1.365   2.965
 6658TIP3   OH219914   7.065   7.946   1.513
 6658TIP3    H119915   7.052   7.884   1.441
 6658TIP3    H219916   7.007   7.915   1.582
 6659TIP3   OH219917   5.213   2.717   0.108
 6659TIP3    H119918   5.154   2.774   0.058
 6659TIP3    H219919   5.217   2.636   0.056
 6660TIP3   OH219920   5.024   0.038   2.079
 6660TIP3    H119921   4.945  -0.007   2.047
 6660TIP3    H219922   5.022   0.026   2.173
 6661TIP3   OH219923   4.213   1.785   0.908
 6661TIP3    H119924   4.306   1.806   0.900
 6661TIP3    H219925   4.199   1.714   0.845
 6662TIP3   OH219926   2.947   6.517   6.362
 6662TIP3    H119927   2.866   6.513   6.413
 6662TIP3    H219928   3.017   6.511   6.428
 6663TIP3   OH219929   7.883   3.411   0.074
 6663TIP3    H119930   7.811   3.384   0.131
 6663TIP3    H219931   7.892   3.340   0.010
 6664TIP3   OH219932   5.282   2.486   2.327
 6664TIP3    H119933   5.225   2.525   2.394
 6664TIP3    H219934   5.237   2.506   2.244
 6665TIP3   OH219935   2.423   4.356   5.499
 6665TIP3    H119936   2.480   4.422   5.540
 6665TIP3    H219937   2.346   4.352   5.556
 6666TIP3   OH219938   4.551   7.234   1.906
 6666TIP3    H119939   4.558   7.160   1.967
 6666TIP3    H219940   4.566   7.312   1.960
 6667TIP3   OH219941   2.166   0.602   2.329
 6667TIP3    H119942   2.182   0.687   2.287
 6667TIP3    H219943   2.082   0.573   2.293
 6668TIP3   OH219944   0.201   7.478   3.317
 6668TIP3    H119945   0.165   7.519   3.396
 6668TIP3    H219946   0.214   7.551   3.257
 6669TIP3   OH219947   0.822   4.355   4.403
 6669TIP3    H119948   0.821   4.361   4.499
 6669TIP3    H219949   0.786   4.269   4.383
 6670TIP3   OH219950   6.946   5.892   2.031
 6670TIP3    H119951   6.921   5.870   1.942
 6670TIP3    H219952   7.036   5.859   2.040
 6671TIP3   OH219953   2.278   4.997   4.538
 6671TIP3    H119954   2.279   5.004   4.633
 6671TIP3    H219955   2.234   4.914   4.520
 6672TIP3   OH219956   3.701   0.812   5.380
 6672TIP3    H119957   3.645   0.746   5.421
 6672TIP3    H219958   3.779   0.816   5.435
 6673TIP3   OH219959   4.297   6.106   4.923
 6673TIP3    H119960   4.329   6.168   4.858
 6673TIP3    H219961   4.270   6.029   4.873
 6674TIP3   OH219962   1.687   2.671   3.772
 6674TIP3    H119963   1.693   2.679   3.677
 6674TIP3    H219964   1.628   2.597   3.787
 6675TIP3   OH219965   5.167   0.360   1.184
 6675TIP3    H119966   5.075   0.347   1.206
 6675TIP3    H219967   5.179   0.455   1.185
 6676TIP3   OH219968   1.343   0.019   3.967
 6676TIP3    H119969   1.382  -0.043   4.029
 6676TIP3    H219970   1.387   0.000   3.884
 6677TIP3   OH219971   6.058   6.441   2.960
 6677TIP3    H119972   6.150   6.420   2.947
 6677TIP3    H219973   6.050   6.453   3.055
 6678TIP3   OH219974   1.650   6.322   1.124
 6678TIP3    H119975   1.705   6.284   1.055
 6678TIP3    H219976   1.579   6.365   1.077
 6679TIP3   OH219977   5.824   6.513   5.074
 6679TIP3    H119978   5.778   6.440   5.032
 6679TIP3    H219979   5.868   6.474   5.149
 6680TIP3   OH219980   7.283   0.316   0.889
 6680TIP3    H119981   7.260   0.276   0.973
 6680TIP3    H219982   7.318   0.402   0.912
 6681TIP3   OH219983   7.856   1.608   2.345
 6681TIP3    H119984   7.904   1.525   2.345
 6681TIP3    H219985   7.767   1.584   2.370
 6682TIP3   OH219986   6.182   5.020   1.287
 6682TIP3    H119987   6.087   5.010   1.292
 6682TIP3    H219988   6.204   5.068   1.367
 6683TIP3   OH219989   3.642   0.445   1.205
 6683TIP3    H119990   3.645   0.374   1.268
 6683TIP3    H219991   3.727   0.443   1.161
 6684TIP3   OH219992   6.978   3.620   5.649
 6684TIP3    H119993   7.027   3.644   5.727
 6684TIP3    H219994   6.952   3.529   5.664
 6685TIP3   OH219995   0.513   3.961   3.250
 6685TIP3    H119996   0.465   3.997   3.325
 6685TIP3    H219997   0.524   3.868   3.271
 6686TIP3   OH219998   4.380   1.529   0.008
 6686TIP3    H119999   4.328   1.451  -0.014
 6686TIP3    H220000   4.402   1.518   0.100
 6687TIP3   OH220001   0.370   0.659   0.908
 6687TIP3    H120002   0.445   0.662   0.968
 6687TIP3    H220003   0.316   0.588   0.941
 6688TIP3   OH220004   1.329   7.771   3.679
 6688TIP3    H120005   1.339   7.806   3.767
 6688TIP3    H220006   1.416   7.780   3.639
 6689TIP3   OH220007   4.872   7.631   2.663
 6689TIP3    H120008   4.952   7.632   2.610
 6689TIP3    H220009   4.838   7.542   2.655
 6690TIP3   OH220010   4.317   7.832   2.259
 6690TIP3    H120011   4.332   7.927   2.261
 6690TIP3    H220012   4.398   7.797   2.222
 6691TIP3   OH220013   6.063   6.812   5.288
 6691TIP3    H120014   6.030   6.770   5.209
 6691TIP3    H220015   6.063   6.905   5.267
 6692TIP3   OH220016   1.971   6.196   3.021
 6692TIP3    H120017   1.952   6.103   3.009
 6692TIP3    H220018   1.993   6.228   2.933
 6693TIP3   OH220019   2.560   0.838   6.530
 6693TIP3    H120020   2.585   0.775   6.462
 6693TIP3    H220021   2.556   0.787   6.610
 6694TIP3   OH220022   3.311   0.949   0.852
 6694TIP3    H120023   3.362   0.904   0.919
 6694TIP3    H220024   3.220   0.938   0.879
 6695TIP3   OH220025   5.119   2.615   4.746
 6695TIP3    H120026   5.139   2.676   4.817
 6695TIP3    H220027   5.188   2.630   4.681
 6696TIP3   OH220028   5.509   2.080   5.385
 6696TIP3    H120029   5.588   2.131   5.365
 6696TIP3    H220030   5.457   2.086   5.305
 6697TIP3   OH220031   3.344   6.924   1.288
 6697TIP3    H120032   3.365   6.840   1.247
 6697TIP3    H220033   3.358   6.909   1.381
 6698TIP3   OH220034   2.684   2.522   5.864
 6698TIP3    H120035   2.758   2.581   5.880
 6698TIP3    H220036   2.725   2.441   5.833
 6699TIP3   OH220037   3.695   1.309   0.169
 6699TIP3    H120038   3.674   1.397   0.202
 6699TIP3    H220039   3.785   1.294   0.195
 6700TIP3   OH220040   2.101   2.343   2.914
 6700TIP3    H120041   2.132   2.417   2.966
 6700TIP3    H220042   2.039   2.382   2.852
 6701TIP3   OH220043   3.342   5.691   5.456
 6701TIP3    H120044   3.293   5.773   5.459
 6701TIP3    H220045   3.381   5.689   5.368
 6702TIP3   OH220046   6.037   3.104   2.346
 6702TIP3    H120047   6.020   3.118   2.440
 6702TIP3    H220048   6.132   3.102   2.339
 6703TIP3   OH220049   2.766   4.115   5.995
 6703TIP3    H120050   2.747   4.138   6.086
 6703TIP3    H220051   2.849   4.159   5.976
 6704TIP3   OH220052   6.304   6.961   4.637
 6704TIP3    H120053   6.370   6.914   4.586
 6704TIP3    H220054   6.274   6.899   4.703
 6705TIP3   OH220055   7.945   0.149   3.191
 6705TIP3    H120056   7.853   0.168   3.210
 6705TIP3    H220057   7.989   0.154   3.276
 6706TIP3   OH220058   7.120   3.432   6.074
 6706TIP3    H120059   7.112   3.408   6.166
 6706TIP3    H220060   7.146   3.351   6.030
 6707TIP3   OH220061   6.849   2.003   5.769
 6707TIP3    H120062   6.893   2.018   5.853
 6707TIP3    H220063   6.772   1.951   5.791
 6708TIP3   OH220064   5.538   5.208   0.704
 6708TIP3    H120065   5.482   5.257   0.765
 6708TIP3    H220066   5.624   5.249   0.712
 6709TIP3   OH220067   2.739   3.563   3.520
 6709TIP3    H120068   2.835   3.556   3.523
 6709TIP3    H220069   2.717   3.625   3.589
 6710TIP3   OH220070   6.358   3.726   1.894
 6710TIP3    H120071   6.281   3.774   1.863
 6710TIP3    H220072   6.369   3.655   1.832
 6711TIP3   OH220073   5.075   4.943   1.247
 6711TIP3    H120074   5.134   4.917   1.176
 6711TIP3    H220075   5.017   5.008   1.207
 6712TIP3   OH220076   5.396   5.460   2.514
 6712TIP3    H120077   5.357   5.388   2.563
 6712TIP3    H220078   5.485   5.431   2.495
 6713TIP3   OH220079   1.342   0.291   6.220
 6713TIP3    H120080   1.419   0.234   6.229
 6713TIP3    H220081   1.349   0.328   6.132
 6714TIP3   OH220082   4.344   4.431   4.706
 6714TIP3    H120083   4.398   4.483   4.765
 6714TIP3    H220084   4.268   4.405   4.759
 6715TIP3   OH220085   1.831   5.100   5.433
 6715TIP3    H120086   1.901   5.133   5.490
 6715TIP3    H220087   1.842   5.005   5.433
 6716TIP3   OH220088   3.632   6.012   3.174
 6716TIP3    H120089   3.604   5.926   3.207
 6716TIP3    H220090   3.709   6.034   3.227
 6717TIP3   OH220091   4.691   2.592   3.737
 6717TIP3    H120092   4.603   2.556   3.735
 6717TIP3    H220093   4.683   2.678   3.695
 6718TIP3   OH220094   6.955   4.417   0.283
 6718TIP3    H120095   6.878   4.360   0.279
 6718TIP3    H220096   6.920   4.506   0.279
 6719TIP3   OH220097   2.233   1.954   4.202
 6719TIP3    H120098   2.302   1.931   4.264
 6719TIP3    H220099   2.268   1.928   4.116
 6720TIP3   OH220100   3.724   2.583   2.517
 6720TIP3    H120101   3.750   2.523   2.587
 6720TIP3    H220102   3.799   2.642   2.508
 6721TIP3   OH220103   2.669   5.674   5.359
 6721TIP3    H120104   2.620   5.594   5.373
 6721TIP3    H220105   2.628   5.715   5.282
 6722TIP3   OH220106   3.324   4.970   1.967
 6722TIP3    H120107   3.343   4.971   1.874
 6722TIP3    H220108   3.232   4.996   1.973
 6723TIP3   OH220109   2.860   6.335   0.332
 6723TIP3    H120110   2.816   6.406   0.285
 6723TIP3    H220111   2.832   6.346   0.423
 6724TIP3   OH220112   4.682   7.909   1.389
 6724TIP3    H120113   4.641   7.922   1.475
 6724TIP3    H220114   4.764   7.863   1.408
 6725TIP3   OH220115   2.635   6.528   2.096
 6725TIP3    H120116   2.669   6.500   2.181
 6725TIP3    H220117   2.674   6.466   2.034
 6726TIP3   OH220118   5.981   0.310   2.806
 6726TIP3    H120119   5.897   0.272   2.781
 6726TIP3    H220120   5.998   0.274   2.893
 6727TIP3   OH220121   5.969   2.600   6.540
 6727TIP3    H120122   6.033   2.537   6.507
 6727TIP3    H220123   5.963   2.583   6.633
 6728TIP3   OH220124   0.640   0.198   3.403
 6728TIP3    H120125   0.547   0.202   3.383
 6728TIP3    H220126   0.672   0.286   3.385
 6729TIP3   OH220127   7.128   6.673   0.627
 6729TIP3    H120128   7.158   6.764   0.624
 6729TIP3    H220129   7.106   6.652   0.536
 6730TIP3   OH220130   3.347   7.713   0.166
 6730TIP3    H120131   3.307   7.798   0.150
 6730TIP3    H220132   3.373   7.716   0.258
 6731TIP3   OH220133   4.451   0.347   5.082
 6731TIP3    H120134   4.501   0.273   5.046
 6731TIP3    H220135   4.366   0.341   5.038
 6732TIP3   OH220136   1.154   0.977   4.107
 6732TIP3    H120137   1.237   0.928   4.113
 6732TIP3    H220138   1.179   1.068   4.125
 6733TIP3   OH220139   0.158   4.303   2.033
 6733TIP3    H120140   0.237   4.356   2.044
 6733TIP3    H220141   0.189   4.212   2.044
 6734TIP3   OH220142   5.958   1.823   3.380
 6734TIP3    H120143   5.880   1.790   3.426
 6734TIP3    H220144   5.982   1.902   3.428
 6735TIP3   OH220145   1.261   7.486   1.231
 6735TIP3    H120146   1.324   7.481   1.303
 6735TIP3    H220147   1.312   7.468   1.153
 6736TIP3   OH220148   2.692   0.269   2.189
 6736TIP3    H120149   2.748   0.294   2.116
 6736TIP3    H220150   2.663   0.181   2.168
 6737TIP3   OH220151   6.575   0.051   4.090
 6737TIP3    H120152   6.633   0.098   4.149
 6737TIP3    H220153   6.504   0.113   4.071
 6738TIP3   OH220154   4.043   5.827   0.077
 6738TIP3    H120155   4.075   5.879   0.151
 6738TIP3    H220156   3.974   5.880   0.038
 6739TIP3   OH220157   5.172   1.443   0.999
 6739TIP3    H120158   5.173   1.450   1.095
 6739TIP3    H220159   5.080   1.428   0.977
 6740TIP3   OH220160   8.389   0.172   0.904
 6740TIP3    H120161   8.475   0.128   0.908
 6740TIP3    H220162   8.330   0.113   0.949
 6741TIP3   OH220163   2.180   5.599   1.809
 6741TIP3    H120164   2.133   5.660   1.866
 6741TIP3    H220165   2.251   5.652   1.772
 6742TIP3   OH220166   1.874   2.710   6.352
 6742TIP3    H120167   1.838   2.752   6.430
 6742TIP3    H220168   1.821   2.744   6.280
 6743TIP3   OH220169   2.911   3.898   1.434
 6743TIP3    H120170   2.899   3.846   1.354
 6743TIP3    H220171   2.936   3.834   1.501
 6744TIP3   OH220172   5.482   2.944   1.611
 6744TIP3    H120173   5.568   2.986   1.609
 6744TIP3    H220174   5.437   2.977   1.533
 6745TIP3   OH220175   6.941   0.395   3.932
 6745TIP3    H120176   6.939   0.301   3.947
 6745TIP3    H220177   7.030   0.421   3.955
 6746TIP3   OH220178   3.225   6.813   6.295
 6746TIP3    H120179   3.135   6.805   6.262
 6746TIP3    H220180   3.215   6.827   6.389
 6747TIP3   OH220181   6.305   1.264   2.273
 6747TIP3    H120182   6.333   1.316   2.349
 6747TIP3    H220183   6.268   1.329   2.213
 6748TIP3   OH220184   6.677   2.892   1.528
 6748TIP3    H120185   6.602   2.833   1.518
 6748TIP3    H220186   6.727   2.856   1.601
 6749TIP3   OH220187   5.799   4.039   2.933
 6749TIP3    H120188   5.856   4.103   2.974
 6749TIP3    H220189   5.794   4.065   2.841
 6750TIP3   OH220190   2.430   1.054   2.467
 6750TIP3    H120191   2.522   1.073   2.447
 6750TIP3    H220192   2.428   1.035   2.560
 6751TIP3   OH220193   1.206   3.979   5.358
 6751TIP3    H120194   1.224   3.926   5.435
 6751TIP3    H220195   1.287   4.027   5.343
 6752TIP3   OH220196   1.721   6.880   6.139
 6752TIP3    H120197   1.791   6.844   6.085
 6752TIP3    H220198   1.687   6.954   6.089
 6753TIP3   OH220199   3.715   7.013   3.281
 6753TIP3    H120200   3.698   7.107   3.281
 6753TIP3    H220201   3.703   6.986   3.372
 6754TIP3   OH220202   5.682   7.341   3.949
 6754TIP3    H120203   5.750   7.406   3.935
 6754TIP3    H220204   5.618   7.384   4.005
 6755TIP3   OH220205   5.495   7.546   4.617
 6755TIP3    H120206   5.538   7.500   4.545
 6755TIP3    H220207   5.542   7.519   4.695
 6756TIP3   OH220208   4.049   3.035   2.979
 6756TIP3    H120209   4.030   3.093   2.906
 6756TIP3    H220210   3.974   3.042   3.037
 6757TIP3   OH220211   1.651   0.864   5.352
 6757TIP3    H120212   1.583   0.828   5.409
 6757TIP3    H220213   1.688   0.788   5.308
 6758TIP3   OH220214   3.569   6.451   1.645
 6758TIP3    H120215   3.483   6.485   1.669
 6758TIP3    H220216   3.611   6.524   1.598
 6759TIP3   OH220217   6.744   3.518   0.235
 6759TIP3    H120218   6.811   3.478   0.179
 6759TIP3    H220219   6.789   3.591   0.278
 6760TIP3   OH220220   6.013   3.822   4.696
 6760TIP3    H120221   5.935   3.780   4.733
 6760TIP3    H220222   5.981   3.904   4.659
 6761TIP3   OH220223   3.783   4.612   4.704
 6761TIP3    H120224   3.804   4.682   4.642
 6761TIP3    H220225   3.815   4.532   4.661
 6762TIP3   OH220226   7.831   5.299   6.056
 6762TIP3    H120227   7.845   5.205   6.056
 6762TIP3    H220228   7.746   5.311   6.012
 6763TIP3   OH220229   8.177   6.852   4.570
 6763TIP3    H120230   8.126   6.862   4.650
 6763TIP3    H220231   8.125   6.895   4.502
 6764TIP3   OH220232   6.687   6.064   2.684
 6764TIP3    H120233   6.776   6.054   2.649
 6764TIP3    H220234   6.700   6.100   2.772
 6765TIP3   OH220235   2.084   3.728   1.837
 6765TIP3    H120236   2.147   3.797   1.855
 6765TIP3    H220237   2.115   3.688   1.755
 6766TIP3   OH220238   6.912   2.378   0.825
 6766TIP3    H120239   6.825   2.341   0.814
 6766TIP3    H220240   6.970   2.303   0.834
 6767TIP3   OH220241   0.592   3.441   0.350
 6767TIP3    H120242   0.519   3.497   0.376
 6767TIP3    H220243   0.649   3.438   0.427
 6768TIP3   OH220244   2.248   7.172   1.125
 6768TIP3    H120245   2.250   7.145   1.217
 6768TIP3    H220246   2.169   7.225   1.117
 6769TIP3   OH220247   5.307   4.001   3.619
 6769TIP3    H120248   5.368   3.929   3.604
 6769TIP3    H220249   5.221   3.963   3.600
 6770TIP3   OH220250   5.487   7.922   6.052
 6770TIP3    H120251   5.495   7.832   6.020
 6770TIP3    H220252   5.487   7.976   5.973
 6771TIP3   OH220253   1.345   2.112   6.546
 6771TIP3    H120254   1.355   2.029   6.594
 6771TIP3    H220255   1.256   2.140   6.566
 6772TIP3   OH220256   5.251   0.472   5.287
 6772TIP3    H120257   5.328   0.512   5.246
 6772TIP3    H220258   5.221   0.407   5.224
 6773TIP3   OH220259   3.159   3.835   3.676
 6773TIP3    H120260   3.198   3.747   3.677
 6773TIP3    H220261   3.129   3.848   3.766
 6774TIP3   OH220262   1.867   2.218   1.339
 6774TIP3    H120263   1.820   2.252   1.415
 6774TIP3    H220264   1.813   2.144   1.309
 6775TIP3   OH220265   0.423   3.815   2.218
 6775TIP3    H120266   0.443   3.902   2.183
 6775TIP3    H220267   0.426   3.757   2.141
 6776TIP3   OH220268   3.396   2.809   3.050
 6776TIP3    H120269   3.357   2.765   3.125
 6776TIP3    H220270   3.379   2.902   3.066
 6777TIP3   OH220271   1.502   4.744   0.600
 6777TIP3    H120272   1.486   4.728   0.508
 6777TIP3    H220273   1.568   4.680   0.626
 6778TIP3   OH220274   6.253   4.026   6.260
 6778TIP3    H120275   6.342   4.030   6.294
 6778TIP3    H220276   6.254   3.953   6.199
 6779TIP3   OH220277   7.176   5.300   4.435
 6779TIP3    H120278   7.183   5.323   4.528
 6779TIP3    H220279   7.134   5.214   4.435
 6780TIP3   OH220280   0.439   1.280   1.356
 6780TIP3    H120281   0.478   1.353   1.405
 6780TIP3    H220282   0.513   1.228   1.326
 6781TIP3   OH220283   3.936   5.577   4.030
 6781TIP3    H120284   3.927   5.614   4.118
 6781TIP3    H220285   3.874   5.627   3.976
 6782TIP3   OH220286   8.116   0.216   2.019
 6782TIP3    H120287   8.084   0.129   1.995
 6782TIP3    H220288   8.207   0.202   2.044
 6783TIP3   OH220289   2.343   5.514   5.617
 6783TIP3    H120290   2.324   5.536   5.526
 6783TIP3    H220291   2.257   5.509   5.659
 6784TIP3   OH220292   2.537   3.816   6.840
 6784TIP3    H120293   2.500   3.904   6.833
 6784TIP3    H220294   2.629   3.826   6.818
 6785TIP3   OH220295   5.425   7.386   1.754
 6785TIP3    H120296   5.362   7.382   1.826
 6785TIP3    H220297   5.416   7.475   1.720
 6786TIP3   OH220298   5.912   4.512   3.605
 6786TIP3    H120299   5.916   4.521   3.700
 6786TIP3    H220300   5.984   4.453   3.583
 6787TIP3   OH220301   7.461   2.542   0.902
 6787TIP3    H120302   7.384   2.591   0.931
 6787TIP3    H220303   7.427   2.476   0.842
 6788TIP3   OH220304   4.526   3.519   1.751
 6788TIP3    H120305   4.534   3.429   1.720
 6788TIP3    H220306   4.495   3.568   1.675
 6789TIP3   OH220307   2.176   0.889   0.832
 6789TIP3    H120308   2.111   0.914   0.766
 6789TIP3    H220309   2.168   0.955   0.901
 6790TIP3   OH220310   6.132   4.955   6.205
 6790TIP3    H120311   6.192   4.931   6.135
 6790TIP3    H220312   6.087   5.033   6.173
 6791TIP3   OH220313   8.003   3.741   3.624
 6791TIP3    H120314   8.029   3.783   3.543
 6791TIP3    H220315   7.909   3.723   3.613
 6792TIP3   OH220316   0.442   3.822   6.138
 6792TIP3    H120317   0.389   3.817   6.217
 6792TIP3    H220318   0.378   3.823   6.066
 6793TIP3   OH220319   5.236   2.208   6.336
 6793TIP3    H120320   5.175   2.228   6.406
 6793TIP3    H220321   5.212   2.266   6.264
 6794TIP3   OH220322   7.062   2.605   1.915
 6794TIP3    H120323   7.083   2.561   1.832
 6794TIP3    H220324   7.056   2.533   1.979
 6795TIP3   OH220325   0.576   4.904   2.069
 6795TIP3    H120326   0.543   4.913   1.979
 6795TIP3    H220327   0.589   4.994   2.098
 6796TIP3   OH220328   7.786   1.803   3.847
 6796TIP3    H120329   7.738   1.771   3.924
 6796TIP3    H220330   7.828   1.725   3.811
 6797TIP3   OH220331   5.381   6.576   4.845
 6797TIP3    H120332   5.350   6.509   4.906
 6797TIP3    H220333   5.306   6.593   4.789
 6798TIP3   OH220334   5.978   2.856   2.041
 6798TIP3    H120335   5.991   2.784   1.980
 6798TIP3    H220336   5.988   2.817   2.127
 6799TIP3   OH220337   3.396   0.514   2.394
 6799TIP3    H120338   3.465   0.523   2.329
 6799TIP3    H220339   3.347   0.436   2.367
 6800TIP3   OH220340   2.509   2.821   3.439
 6800TIP3    H120341   2.446   2.882   3.399
 6800TIP3    H220342   2.594   2.864   3.428
 6801TIP3   OH220343   4.995   2.122   0.463
 6801TIP3    H120344   4.955   2.190   0.409
 6801TIP3    H220345   5.088   2.125   0.439
 6802TIP3   OH220346   2.425   5.464   6.582
 6802TIP3    H120347   2.369   5.537   6.554
 6802TIP3    H220348   2.485   5.503   6.646
 6803TIP3   OH220349   6.565   6.400   1.601
 6803TIP3    H120350   6.538   6.364   1.516
 6803TIP3    H220351   6.541   6.493   1.596
 6804TIP3   OH220352   7.389   3.811   5.059
 6804TIP3    H120353   7.300   3.809   5.096
 6804TIP3    H220354   7.393   3.895   5.014
 6805TIP3   OH220355   6.545   3.372   6.093
 6805TIP3    H120356   6.623   3.324   6.120
 6805TIP3    H220357   6.492   3.377   6.173
 6806TIP3   OH220358   4.925   0.165   6.379
 6806TIP3    H120359   5.016   0.168   6.349
 6806TIP3    H220360   4.927   0.111   6.458
 6807TIP3   OH220361   1.696   4.284   5.052
 6807TIP3    H120362   1.736   4.259   5.136
 6807TIP3    H220363   1.602   4.280   5.068
 6808TIP3   OH220364   4.093   0.100   1.298
 6808TIP3    H120365   4.067   0.190   1.280
 6808TIP3    H220366   4.187   0.106   1.317
 6809TIP3   OH220367   2.354   2.097   3.070
 6809TIP3    H120368   2.298   2.048   3.130
 6809TIP3    H220369   2.383   2.032   3.006
 6810TIP3   OH220370   6.467   5.756   5.750
 6810TIP3    H120371   6.552   5.735   5.712
 6810TIP3    H220372   6.488   5.788   5.838
 6811TIP3   OH220373   5.244   2.701   4.524
 6811TIP3    H120374   5.246   2.796   4.514
 6811TIP3    H220375   5.325   2.671   4.482
 6812TIP3   OH220376   6.374   1.271  -0.046
 6812TIP3    H120377   6.432   1.332  -0.001
 6812TIP3    H220378   6.315   1.239   0.022
 6813TIP3   OH220379   5.837   7.177   4.997
 6813TIP3    H120380   5.761   7.220   5.036
 6813TIP3    H220381   5.803   7.092   4.966
 6814TIP3   OH220382   0.941   5.853   0.573
 6814TIP3    H120383   0.905   5.941   0.583
 6814TIP3    H220384   0.985   5.854   0.488
 6815TIP3   OH220385   4.760   7.353   4.399
 6815TIP3    H120386   4.700   7.324   4.468
 6815TIP3    H220387   4.845   7.360   4.442
 6816TIP3   OH220388   7.720   4.161   5.129
 6816TIP3    H120389   7.626   4.155   5.146
 6816TIP3    H220390   7.751   4.071   5.135
 6817TIP3   OH220391   1.260   6.824   5.991
 6817TIP3    H120392   1.248   6.735   5.958
 6817TIP3    H220393   1.354   6.840   5.983
 6818TIP3   OH220394   6.268  -0.013   1.699
 6818TIP3    H120395   6.312   0.043   1.635
 6818TIP3    H220396   6.243  -0.091   1.650
 6819TIP3   OH220397   5.568   0.687   3.386
 6819TIP3    H120398   5.594   0.664   3.297
 6819TIP3    H220399   5.651   0.703   3.432
 6820TIP3   OH220400   1.399   6.362   0.468
 6820TIP3    H120401   1.356   6.310   0.400
 6820TIP3    H220402   1.328   6.407   0.513
 6821TIP3   OH220403   3.150   1.473   4.726
 6821TIP3    H120404   3.078   1.519   4.683
 6821TIP3    H220405   3.223   1.534   4.724
 6822TIP3   OH220406   7.823   2.192   4.440
 6822TIP3    H120407   7.825   2.278   4.398
 6822TIP3    H220408   7.786   2.207   4.526
 6823TIP3   OH220409   0.715   7.001   5.691
 6823TIP3    H120410   0.766   6.920   5.694
 6823TIP3    H220411   0.740   7.047   5.771
 6824TIP3   OH220412   7.694   2.970   1.652
 6824TIP3    H120413   7.638   3.023   1.709
 6824TIP3    H220414   7.693   3.015   1.568
 6825TIP3   OH220415   1.987   0.347   0.818
 6825TIP3    H120416   2.025   0.425   0.858
 6825TIP3    H220417   2.042   0.330   0.742
 6826TIP3   OH220418   4.313   1.206   0.833
 6826TIP3    H120419   4.319   1.138   0.900
 6826TIP3    H220420   4.390   1.261   0.846
 6827TIP3   OH220421   0.119   5.461   6.421
 6827TIP3    H120422   0.176   5.450   6.344
 6827TIP3    H220423   0.030   5.461   6.385
 6828TIP3   OH220424   0.318   5.451   4.197
 6828TIP3    H120425   0.288   5.416   4.281
 6828TIP3    H220426   0.383   5.517   4.221
 6829TIP3   OH220427   0.323   7.542   1.839
 6829TIP3    H120428   0.345   7.450   1.829
 6829TIP3    H220429   0.405   7.588   1.820
 6830TIP3   OH220430   7.949   4.525   2.193
 6830TIP3    H120431   7.915   4.475   2.119
 6830TIP3    H220432   8.042   4.536   2.174
 6831TIP3   OH220433   3.905   1.948   1.222
 6831TIP3    H120434   3.941   1.989   1.143
 6831TIP3    H220435   3.906   2.018   1.287
 6832TIP3   OH220436   3.387   4.415   6.681
 6832TIP3    H120437   3.344   4.368   6.609
 6832TIP3    H220438   3.453   4.353   6.713
 6833TIP3   OH220439   5.060   1.220   5.623
 6833TIP3    H120440   4.977   1.206   5.668
 6833TIP3    H220441   5.106   1.284   5.677
 6834TIP3   OH220442   8.272   3.144   2.937
 6834TIP3    H120443   8.324   3.114   3.012
 6834TIP3    H220444   8.331   3.204   2.891
 6835TIP3   OH220445   2.386   7.815   5.664
 6835TIP3    H120446   2.325   7.753   5.703
 6835TIP3    H220447   2.468   7.802   5.712
 6836TIP3   OH220448   4.626   5.489   2.478
 6836TIP3    H120449   4.544   5.439   2.482
 6836TIP3    H220450   4.600   5.578   2.500
 6837TIP3   OH220451   2.267   1.709   3.663
 6837TIP3    H120452   2.212   1.633   3.679
 6837TIP3    H220453   2.227   1.752   3.587
 6838TIP3   OH220454   0.647   7.545   3.872
 6838TIP3    H120455   0.624   7.635   3.848
 6838TIP3    H220456   0.742   7.548   3.885
 6839TIP3   OH220457   2.392   7.502   5.525
 6839TIP3    H120458   2.297   7.494   5.517
 6839TIP3    H220459   2.407   7.596   5.534
 6840TIP3   OH220460   1.303   0.181   5.333
 6840TIP3    H120461   1.264   0.102   5.369
 6840TIP3    H220462   1.236   0.248   5.345
 6841TIP3   OH220463   7.842   3.711   2.184
 6841TIP3    H120464   7.785   3.776   2.143
 6841TIP3    H220465   7.902   3.762   2.238
 6842TIP3   OH220466   3.077   0.756   4.079
 6842TIP3    H120467   3.103   0.667   4.056
 6842TIP3    H220468   2.998   0.745   4.133
 6843TIP3   OH220469   2.912   6.914   4.349
 6843TIP3    H120470   2.906   6.897   4.255
 6843TIP3    H220471   2.828   6.954   4.372
 6844TIP3   OH220472   7.559   4.949   2.222
 6844TIP3    H120473   7.635   4.891   2.222
 6844TIP3    H220474   7.494   4.903   2.169
 6845TIP3   OH220475   1.565   1.186   2.461
 6845TIP3    H120476   1.564   1.261   2.520
 6845TIP3    H220477   1.600   1.220   2.378
 6846TIP3   OH220478   1.741   5.173   1.280
 6846TIP3    H120479   1.804   5.211   1.219
 6846TIP3    H220480   1.791   5.159   1.360
 6847TIP3   OH220481   6.989   1.298   0.733
 6847TIP3    H120482   6.908   1.332   0.696
 6847TIP3    H220483   6.989   1.330   0.824
 6848TIP3   OH220484   5.694   0.378   3.535
 6848TIP3    H120485   5.662   0.451   3.588
 6848TIP3    H220486   5.621   0.355   3.478
 6849TIP3   OH220487   2.939   5.320   4.738
 6849TIP3    H120488   2.974   5.317   4.650
 6849TIP3    H220489   2.914   5.411   4.752
 6850TIP3   OH220490   5.196   5.887   6.225
 6850TIP3    H120491   5.158   5.923   6.145
 6850TIP3    H220492   5.262   5.951   6.251
 6851TIP3   OH220493   6.740   2.092   0.359
 6851TIP3    H120494   6.826   2.076   0.320
 6851TIP3    H220495   6.727   2.187   0.351
 6852TIP3   OH220496   5.797   2.131   3.416
 6852TIP3    H120497   5.862   2.139   3.346
 6852TIP3    H220498   5.714   2.120   3.370
 6853TIP3   OH220499   5.266   7.812   4.960
 6853TIP3    H120500   5.211   7.742   4.997
 6853TIP3    H220501   5.285   7.782   4.871
 6854TIP3   OH220502   6.242   1.829   4.472
 6854TIP3    H120503   6.270   1.898   4.533
 6854TIP3    H220504   6.280   1.749   4.507
 6855TIP3   OH220505   1.675   0.756   1.622
 6855TIP3    H120506   1.762   0.728   1.591
 6855TIP3    H220507   1.694   0.823   1.687
 6856TIP3   OH220508   7.694   7.505   0.629
 6856TIP3    H120509   7.658   7.581   0.674
 6856TIP3    H220510   7.783   7.532   0.604
 6857TIP3   OH220511   3.432   7.202   3.392
 6857TIP3    H120512   3.513   7.162   3.425
 6857TIP3    H220513   3.374   7.205   3.467
 6858TIP3   OH220514   2.077   7.198   1.554
 6858TIP3    H120515   1.991   7.155   1.549
 6858TIP3    H220516   2.060   7.280   1.599
 6859TIP3   OH220517   5.692   5.275   3.584
 6859TIP3    H120518   5.749   5.351   3.593
 6859TIP3    H220519   5.607   5.305   3.615
 6860TIP3   OH220520   4.464   2.665   0.094
 6860TIP3    H120521   4.436   2.575   0.111
 6860TIP3    H220522   4.386   2.718   0.110
 6861TIP3   OH220523   0.925   7.711   2.569
 6861TIP3    H120524   0.896   7.800   2.549
 6861TIP3    H220525   0.846   7.665   2.596
 6862TIP3   OH220526   0.637   3.577   1.759
 6862TIP3    H120527   0.583   3.593   1.682
 6862TIP3    H220528   0.727   3.588   1.728
 6863TIP3   OH220529   6.614   3.920   1.132
 6863TIP3    H120530   6.630   4.014   1.126
 6863TIP3    H220531   6.592   3.905   1.224
 6864TIP3   OH220532   7.791   1.084   2.680
 6864TIP3    H120533   7.808   1.022   2.609
 6864TIP3    H220534   7.825   1.167   2.647
 6865TIP3   OH220535   7.610   3.422   4.418
 6865TIP3    H120536   7.666   3.457   4.348
 6865TIP3    H220537   7.555   3.357   4.374
 6866TIP3   OH220538   8.212   4.624   6.364
 6866TIP3    H120539   8.238   4.535   6.339
 6866TIP3    H220540   8.283   4.679   6.332
 6867TIP3   OH220541   6.420   3.205   0.908
 6867TIP3    H120542   6.465   3.197   0.823
 6867TIP3    H220543   6.328   3.187   0.889
 6868TIP3   OH220544   3.128   3.306   0.149
 6868TIP3    H120545   3.198   3.300   0.215
 6868TIP3    H220546   3.130   3.222   0.104
 6869TIP3   OH220547   3.657   3.617   5.336
 6869TIP3    H120548   3.664   3.549   5.404
 6869TIP3    H220549   3.571   3.602   5.296
 6870TIP3   OH220550   1.109   2.440   2.677
 6870TIP3    H120551   1.141   2.351   2.662
 6870TIP3    H220552   1.066   2.436   2.762
 6871TIP3   OH220553   7.961   2.449   4.287
 6871TIP3    H120554   7.888   2.419   4.231
 6871TIP3    H220555   7.943   2.541   4.302
 6872TIP3   OH220556   5.024   1.331   6.326
 6872TIP3    H120557   5.015   1.426   6.331
 6872TIP3    H220558   5.095   1.310   6.386
 6873TIP3   OH220559   3.801   2.964   1.352
 6873TIP3    H120560   3.835   2.942   1.439
 6873TIP3    H220561   3.867   3.021   1.313
 6874TIP3   OH220562   7.465   1.213   1.038
 6874TIP3    H120563   7.461   1.222   0.943
 6874TIP3    H220564   7.374   1.212   1.066
 6875TIP3   OH220565   0.492   3.665   3.625
 6875TIP3    H120566   0.478   3.755   3.595
 6875TIP3    H220567   0.456   3.611   3.555
 6876TIP3   OH220568   4.986   4.827   0.542
 6876TIP3    H120569   4.950   4.739   0.530
 6876TIP3    H220570   4.913   4.885   0.521
 6877TIP3   OH220571   5.640   4.860   4.863
 6877TIP3    H120572   5.556   4.897   4.834
 6877TIP3    H220573   5.696   4.865   4.786
 6878TIP3   OH220574   0.840   4.204   1.356
 6878TIP3    H120575   0.855   4.285   1.307
 6878TIP3    H220576   0.885   4.137   1.305
 6879TIP3   OH220577   6.567   7.165   3.401
 6879TIP3    H120578   6.521   7.231   3.452
 6879TIP3    H220579   6.591   7.210   3.320
 6880TIP3   OH220580   6.064   0.452   3.656
 6880TIP3    H120581   5.996   0.443   3.723
 6880TIP3    H220582   6.141   0.410   3.694
 6881TIP3   OH220583   3.255   4.571   3.241
 6881TIP3    H120584   3.162   4.566   3.266
 6881TIP3    H220585   3.256   4.548   3.148
 6882TIP3   OH220586   4.014   6.405   5.499
 6882TIP3    H120587   4.030   6.310   5.506
 6882TIP3    H220588   3.946   6.413   5.433
 6883TIP3   OH220589   7.349   4.323   2.371
 6883TIP3    H120590   7.339   4.295   2.462
 6883TIP3    H220591   7.374   4.416   2.378
 6884TIP3   OH220592   0.797   5.845   5.211
 6884TIP3    H120593   0.803   5.908   5.283
 6884TIP3    H220594   0.712   5.863   5.171
 6885TIP3   OH220595   3.319   7.482   4.172
 6885TIP3    H120596   3.271   7.564   4.180
 6885TIP3    H220597   3.411   7.507   4.182
 6886TIP3   OH220598   0.986   0.118   2.097
 6886TIP3    H120599   0.935   0.108   2.017
 6886TIP3    H220600   0.954   0.198   2.137
 6887TIP3   OH220601   7.969   4.049   1.513
 6887TIP3    H120602   8.064   4.057   1.515
 6887TIP3    H220603   7.950   3.967   1.557
 6888TIP3   OH220604   5.414   6.829   6.837
 6888TIP3    H120605   5.346   6.862   6.778
 6888TIP3    H220606   5.453   6.756   6.790
 6889TIP3   OH220607   3.191   2.403   5.894
 6889TIP3    H120608   3.247   2.426   5.968
 6889TIP3    H220609   3.182   2.484   5.845
 6890TIP3   OH220610   4.376   4.751   0.688
 6890TIP3    H120611   4.315   4.801   0.634
 6890TIP3    H220612   4.345   4.661   0.681
 6891TIP3   OH220613   0.438   5.539   2.455
 6891TIP3    H120614   0.516   5.590   2.434
 6891TIP3    H220615   0.410   5.502   2.372
 6892TIP3   OH220616   3.813   0.252   0.838
 6892TIP3    H120617   3.863   0.267   0.758
 6892TIP3    H220618   3.764   0.171   0.821
 6893TIP3   OH220619   0.641   6.356   2.050
 6893TIP3    H120620   0.690   6.418   1.996
 6893TIP3    H220621   0.569   6.406   2.086
 6894TIP3   OH220622   1.754   4.389   3.842
 6894TIP3    H120623   1.681   4.450   3.849
 6894TIP3    H220624   1.721   4.307   3.879
 6895TIP3   OH220625   6.196   4.899   4.510
 6895TIP3    H120626   6.130   4.955   4.469
 6895TIP3    H220627   6.193   4.923   4.603
 6896TIP3   OH220628   4.772   3.373   4.406
 6896TIP3    H120629   4.835   3.303   4.388
 6896TIP3    H220630   4.691   3.328   4.430
 6897TIP3   OH220631   6.905   1.701   6.363
 6897TIP3    H120632   6.975   1.755   6.398
 6897TIP3    H220633   6.871   1.654   6.439
 6898TIP3   OH220634   3.471   3.427   3.479
 6898TIP3    H120635   3.479   3.418   3.384
 6898TIP3    H220636   3.556   3.463   3.507
 6899TIP3   OH220637   7.719   2.975   5.190
 6899TIP3    H120638   7.792   2.962   5.129
 6899TIP3    H220639   7.758   3.022   5.263
 6900TIP3   OH220640   3.761   7.826   3.851
 6900TIP3    H120641   3.780   7.872   3.933
 6900TIP3    H220642   3.792   7.885   3.782
 6901TIP3   OH220643   8.163   3.897   3.029
 6901TIP3    H120644   8.193   3.982   2.996
 6901TIP3    H220645   8.071   3.912   3.051
 6902TIP3   OH220646   2.995   1.455   6.598
 6902TIP3    H120647   2.971   1.545   6.621
 6902TIP3    H220648   2.951   1.401   6.664
 6903TIP3   OH220649   4.538   2.481   1.082
 6903TIP3    H120650   4.459   2.443   1.119
 6903TIP3    H220651   4.604   2.411   1.090
 6904TIP3   OH220652   4.781   0.879   4.051
 6904TIP3    H120653   4.734   0.873   3.968
 6904TIP3    H220654   4.869   0.846   4.032
 6905TIP3   OH220655   7.049   1.725   0.137
 6905TIP3    H120656   6.997   1.771   0.071
 6905TIP3    H220657   6.984   1.678   0.190
 6906TIP3   OH220658   7.288   1.136   0.351
 6906TIP3    H120659   7.260   1.128   0.443
 6906TIP3    H220660   7.304   1.046   0.323
 6907TIP3   OH220661   2.789   3.169   0.223
 6907TIP3    H120662   2.739   3.106   0.275
 6907TIP3    H220663   2.842   3.217   0.287
 6908TIP3   OH220664   0.502   1.355   0.283
 6908TIP3    H120665   0.586   1.375   0.242
 6908TIP3    H220666   0.483   1.431   0.337
 6909TIP3   OH220667   3.433   6.053   2.877
 6909TIP3    H120668   3.380   6.127   2.846
 6909TIP3    H220669   3.518   6.092   2.899
 6910TIP3   OH220670   8.342   3.351   1.626
 6910TIP3    H120671   8.430   3.369   1.595
 6910TIP3    H220672   8.311   3.278   1.571
 6911TIP3   OH220673   0.103   6.942   3.850
 6911TIP3    H120674   0.037   6.966   3.914
 6911TIP3    H220675   0.055   6.932   3.768
 6912TIP3   OH220676   0.860   0.335   2.210
 6912TIP3    H120677   0.790   0.400   2.202
 6912TIP3    H220678   0.900   0.355   2.295
 6913TIP3   OH220679   4.562   6.673   4.616
 6913TIP3    H120680   4.554   6.762   4.650
 6913TIP3    H220681   4.487   6.626   4.654
 6914TIP3   OH220682   1.730   7.248   5.534
 6914TIP3    H120683   1.814   7.200   5.536
 6914TIP3    H220684   1.682   7.208   5.462
 6915TIP3   OH220685   6.909   0.734   2.221
 6915TIP3    H120686   6.834   0.789   2.197
 6915TIP3    H220687   6.895   0.715   2.314
 6916TIP3   OH220688   7.617   4.648   2.802
 6916TIP3    H120689   7.581   4.576   2.855
 6916TIP3    H220690   7.543   4.677   2.748
 6917TIP3   OH220691   7.944   2.271   4.998
 6917TIP3    H120692   7.860   2.303   5.030
 6917TIP3    H220693   7.991   2.243   5.077
 6918TIP3   OH220694   4.134   3.576   3.244
 6918TIP3    H120695   4.211   3.633   3.250
 6918TIP3    H220696   4.141   3.519   3.321
 6919TIP3   OH220697   3.046   1.395   5.028
 6919TIP3    H120698   3.002   1.479   5.037
 6919TIP3    H220699   3.137   1.417   5.008
 6920TIP3   OH220700   4.019   0.752   1.516
 6920TIP3    H120701   3.946   0.789   1.466
 6920TIP3    H220702   4.011   0.658   1.503
 6921TIP3   OH220703   4.631   6.464   1.272
 6921TIP3    H120704   4.545   6.484   1.235
 6921TIP3    H220705   4.654   6.542   1.323
 6922TIP3   OH220706   4.998   1.680   0.836
 6922TIP3    H120707   5.012   1.706   0.745
 6922TIP3    H220708   5.035   1.751   0.888
 6923TIP3   OH220709   1.167   7.230   3.522
 6923TIP3    H120710   1.100   7.271   3.578
 6923TIP3    H220711   1.124   7.152   3.487
 6924TIP3   OH220712   7.869   0.632   0.598
 6924TIP3    H120713   7.956   0.656   0.628
 6924TIP3    H220714   7.854   0.687   0.521
 6925TIP3   OH220715   0.938   0.876   0.180
 6925TIP3    H120716   1.011   0.931   0.152
 6925TIP3    H220717   0.950   0.864   0.274
 6926TIP3   OH220718   3.443   6.901   4.294
 6926TIP3    H120719   3.524   6.860   4.263
 6926TIP3    H220720   3.426   6.858   4.378
 6927TIP3   OH220721   0.169   4.333   6.423
 6927TIP3    H120722   0.155   4.411   6.476
 6927TIP3    H220723   0.264   4.329   6.411
 6928TIP3   OH220724   4.417   3.722   2.607
 6928TIP3    H120725   4.446   3.671   2.531
 6928TIP3    H220726   4.489   3.783   2.624
 6929TIP3   OH220727   7.049   1.030   5.213
 6929TIP3    H120728   7.090   1.081   5.283
 6929TIP3    H220729   7.071   0.939   5.234
 6930TIP3   OH220730   2.791   4.510   6.790
 6930TIP3    H120731   2.702   4.538   6.766
 6930TIP3    H220732   2.782   4.472   6.877
 6931TIP3   OH220733   8.068   0.412   5.993
 6931TIP3    H120734   8.096   0.461   6.070
 6931TIP3    H220735   8.077   0.473   5.921
 6932TIP3   OH220736   7.119   0.767   5.203
 6932TIP3    H120737   7.055   0.765   5.132
 6932TIP3    H220738   7.201   0.794   5.161
 6933TIP3   OH220739   0.771   6.339   0.910
 6933TIP3    H120740   0.831   6.355   0.983
 6933TIP3    H220741   0.686   6.366   0.943
 6934TIP3   OH220742   4.196   7.437   1.540
 6934TIP3    H120743   4.103   7.415   1.542
 6934TIP3    H220744   4.236   7.378   1.605
 6935TIP3   OH220745   0.718   1.354   0.767
 6935TIP3    H120746   0.709   1.388   0.678
 6935TIP3    H220747   0.631   1.363   0.805
 6936TIP3   OH220748   7.942   1.325   2.572
 6936TIP3    H120749   7.999   1.366   2.507
 6936TIP3    H220750   7.970   1.362   2.655
 6937TIP3   OH220751   5.933   2.369   1.256
 6937TIP3    H120752   5.984   2.434   1.207
 6937TIP3    H220753   5.906   2.415   1.335
 6938TIP3   OH220754   7.063   6.756   3.802
 6938TIP3    H120755   7.074   6.693   3.873
 6938TIP3    H220756   6.979   6.798   3.819
 6939TIP3   OH220757   2.539   3.743   4.251
 6939TIP3    H120758   2.618   3.797   4.250
 6939TIP3    H220759   2.527   3.720   4.343
 6940TIP3   OH220760   1.247   4.913   3.934
 6940TIP3    H120761   1.171   4.885   3.985
 6940TIP3    H220762   1.286   4.984   3.984
 6941TIP3   OH220763   4.288   1.843   3.443
 6941TIP3    H120764   4.325   1.861   3.530
 6941TIP3    H220765   4.357   1.798   3.396
 6942TIP3   OH220766   4.328   4.710   6.715
 6942TIP3    H120767   4.298   4.769   6.646
 6942TIP3    H220768   4.337   4.625   6.671
 6943TIP3   OH220769   8.235   5.915   0.022
 6943TIP3    H120770   8.216   5.985   0.085
 6943TIP3    H220771   8.329   5.901   0.029
 6944TIP3   OH220772   7.536   4.399   2.057
 6944TIP3    H120773   7.530   4.476   2.115
 6944TIP3    H220774   7.445   4.378   2.036
 6945TIP3   OH220775   2.784   1.711   6.176
 6945TIP3    H120776   2.699   1.672   6.154
 6945TIP3    H220777   2.837   1.637   6.206
 6946TIP3   OH220778   0.793   2.513   6.807
 6946TIP3    H120779   0.813   2.477   6.894
 6946TIP3    H220780   0.758   2.600   6.825
 6947TIP3   OH220781   7.319   0.923   1.730
 6947TIP3    H120782   7.257   0.859   1.695
 6947TIP3    H220783   7.351   0.883   1.811
 6948TIP3   OH220784   0.521   4.470   1.761
 6948TIP3    H120785   0.561   4.534   1.703
 6948TIP3    H220786   0.478   4.407   1.703
 6949TIP3   OH220787   3.387   5.700   5.890
 6949TIP3    H120788   3.441   5.765   5.845
 6949TIP3    H220789   3.311   5.689   5.833
 6950TIP3   OH220790   5.306   2.869   6.484
 6950TIP3    H120791   5.362   2.827   6.419
 6950TIP3    H220792   5.241   2.918   6.433
 6951TIP3   OH220793   7.324   1.480   5.987
 6951TIP3    H120794   7.410   1.510   5.957
 6951TIP3    H220795   7.262   1.520   5.925
 6952TIP3   OH220796   6.609   3.349   2.625
 6952TIP3    H120797   6.618   3.420   2.561
 6952TIP3    H220798   6.523   3.362   2.664
 6953TIP3   OH220799   2.601   1.819   3.895
 6953TIP3    H120800   2.510   1.821   3.923
 6953TIP3    H220801   2.600   1.767   3.814
 6954TIP3   OH220802   6.037   7.816   4.620
 6954TIP3    H120803   5.971   7.879   4.590
 6954TIP3    H220804   6.121   7.857   4.596
 6955TIP3   OH220805   3.539   6.758   1.161
 6955TIP3    H120806   3.624   6.799   1.143
 6955TIP3    H220807   3.546   6.671   1.122
 6956TIP3   OH220808   0.504   7.408   1.287
 6956TIP3    H120809   0.552   7.473   1.236
 6956TIP3    H220810   0.434   7.457   1.330
 6957TIP3   OH220811   2.226   4.822   0.271
 6957TIP3    H120812   2.177   4.752   0.228
 6957TIP3    H220813   2.281   4.777   0.335
 6958TIP3   OH220814   5.362   6.872   0.611
 6958TIP3    H120815   5.413   6.947   0.640
 6958TIP3    H220816   5.357   6.882   0.516
 6959TIP3   OH220817   5.989   2.720   1.100
 6959TIP3    H120818   6.083   2.737   1.109
 6959TIP3    H220819   5.985   2.638   1.051
 6960TIP3   OH220820   6.374   5.259   3.775
 6960TIP3    H120821   6.394   5.257   3.869
 6960TIP3    H220822   6.280   5.241   3.771
 6961TIP3   OH220823   4.868   2.483   4.761
 6961TIP3    H120824   4.888   2.435   4.842
 6961TIP3    H220825   4.947   2.534   4.744
 6962TIP3   OH220826   1.055   2.564   0.069
 6962TIP3    H120827   1.021   2.494   0.125
 6962TIP3    H220828   1.071   2.637   0.129
 6963TIP3   OH220829   5.647   3.939   5.460
 6963TIP3    H120830   5.613   3.993   5.531
 6963TIP3    H220831   5.659   4.000   5.387
 6964TIP3   OH220832   7.793   4.329   4.770
 6964TIP3    H120833   7.716   4.273   4.759
 6964TIP3    H220834   7.768   4.412   4.729
 6965TIP3   OH220835   0.469   5.570   5.578
 6965TIP3    H120836   0.387   5.592   5.623
 6965TIP3    H220837   0.458   5.606   5.490
 6966TIP3   OH220838   1.135   3.720   1.403
 6966TIP3    H120839   1.112   3.646   1.459
 6966TIP3    H220840   1.230   3.731   1.414
 6967TIP3   OH220841   2.428   4.522   4.210
 6967TIP3    H120842   2.356   4.464   4.236
 6967TIP3    H220843   2.504   4.464   4.202
 6968TIP3   OH220844   4.774   6.241   3.606
 6968TIP3    H120845   4.818   6.160   3.630
 6968TIP3    H220846   4.824   6.310   3.649
 6969TIP3   OH220847   5.287   0.069   1.362
 6969TIP3    H120848   5.193   0.056   1.377
 6969TIP3    H220849   5.292   0.103   1.272
 6970TIP3   OH220850   3.919   2.322   4.605
 6970TIP3    H120851   3.984   2.289   4.543
 6970TIP3    H220852   3.857   2.250   4.616
 6971TIP3   OH220853   3.906   6.806   5.839
 6971TIP3    H120854   3.892   6.892   5.878
 6971TIP3    H220855   4.000   6.802   5.821
 6972TIP3   OH220856   5.453   5.834   6.665
 6972TIP3    H120857   5.521   5.807   6.603
 6972TIP3    H220858   5.442   5.928   6.649
 6973TIP3   OH220859   7.889   5.805   1.775
 6973TIP3    H120860   7.866   5.734   1.716
 6973TIP3    H220861   7.958   5.768   1.831
 6974TIP3   OH220862   5.552   1.929   0.094
 6974TIP3    H120863   5.622   1.992   0.076
 6974TIP3    H220864   5.511   1.914   0.009
 6975TIP3   OH220865   4.509   4.981   6.563
 6975TIP3    H120866   4.508   5.073   6.535
 6975TIP3    H220867   4.443   4.978   6.633
 6976TIP3   OH220868   0.694   7.616   1.198
 6976TIP3    H120869   0.774   7.664   1.174
 6976TIP3    H220870   0.643   7.679   1.250
 6977TIP3   OH220871   1.057   0.110   2.585
 6977TIP3    H120872   1.115   0.179   2.554
 6977TIP3    H220873   0.976   0.155   2.609
 6978TIP3   OH220874   7.049   7.289   4.123
 6978TIP3    H120875   7.066   7.333   4.206
 6978TIP3    H220876   7.136   7.259   4.094
 6979TIP3   OH220877   5.181   6.997   5.032
 6979TIP3    H120878   5.139   7.001   5.118
 6979TIP3    H220879   5.264   6.953   5.049
 6980TIP3   OH220880   4.750   4.677   2.175
 6980TIP3    H120881   4.843   4.657   2.168
 6980TIP3    H220882   4.720   4.628   2.251
 6981TIP3   OH220883   5.712   7.601   3.367
 6981TIP3    H120884   5.726   7.517   3.324
 6981TIP3    H220885   5.626   7.630   3.338
 6982TIP3   OH220886   5.226   0.884   2.644
 6982TIP3    H120887   5.172   0.945   2.592
 6982TIP3    H220888   5.176   0.871   2.725
 6983TIP3   OH220889   3.976   4.014   3.320
 6983TIP3    H120890   4.062   4.031   3.282
 6983TIP3    H220891   3.918   4.078   3.279
 6984TIP3   OH220892   8.109   0.408   4.217
 6984TIP3    H120893   8.032   0.424   4.271
 6984TIP3    H220894   8.150   0.330   4.256
 6985TIP3   OH220895   3.417   5.886   4.440
 6985TIP3    H120896   3.342   5.941   4.465
 6985TIP3    H220897   3.381   5.798   4.434
 6986TIP3   OH220898   2.011   3.517   1.434
 6986TIP3    H120899   2.088   3.513   1.491
 6986TIP3    H220900   1.937   3.522   1.495
 6987TIP3   OH220901   1.288   7.005   2.255
 6987TIP3    H120902   1.342   7.041   2.185
 6987TIP3    H220903   1.295   6.910   2.245
 6988TIP3   OH220904   2.358   2.152   2.348
 6988TIP3    H120905   2.349   2.088   2.277
 6988TIP3    H220906   2.330   2.235   2.309
 6989TIP3   OH220907   3.495   4.056  -0.017
 6989TIP3    H120908   3.543   3.976   0.004
 6989TIP3    H220909   3.442   4.073   0.061
 6990TIP3   OH220910   6.982   2.050   6.017
 6990TIP3    H120911   7.061   1.999   6.037
 6990TIP3    H220912   6.997   2.134   6.060
 6991TIP3   OH220913   3.347   5.450   2.672
 6991TIP3    H120914   3.280   5.464   2.739
 6991TIP3    H220915   3.420   5.411   2.719
 6992TIP3   OH220916   0.567   6.595   2.982
 6992TIP3    H120917   0.526   6.510   2.998
 6992TIP3    H220918   0.494   6.653   2.959
 6993TIP3   OH220919   6.842   5.786   0.819
 6993TIP3    H120920   6.885   5.833   0.891
 6993TIP3    H220921   6.901   5.798   0.744
 6994TIP3   OH220922   7.331   3.217   1.252
 6994TIP3    H120923   7.370   3.231   1.166
 6994TIP3    H220924   7.248   3.174   1.234
 6995TIP3   OH220925   6.960   1.760   1.206
 6995TIP3    H120926   6.866   1.746   1.217
 6995TIP3    H220927   6.989   1.795   1.290
 6996TIP3   OH220928   5.827   2.777   4.375
 6996TIP3    H120929   5.855   2.788   4.284
 6996TIP3    H220930   5.899   2.729   4.417
 6997TIP3   OH220931   7.691   2.192   1.758
 6997TIP3    H120932   7.746   2.186   1.836
 6997TIP3    H220933   7.642   2.110   1.756
 6998TIP3   OH220934   0.956   3.812   3.229
 6998TIP3    H120935   1.025   3.844   3.287
 6998TIP3    H220936   0.894   3.768   3.287
 6999TIP3   OH220937   1.254   3.298   0.384
 6999TIP3    H120938   1.167   3.303   0.423
 6999TIP3    H220939   1.305   3.245   0.445
 7000TIP3   OH220940   5.760   5.508   5.676
 7000TIP3    H120941   5.760   5.538   5.585
 7000TIP3    H220942   5.838   5.548   5.714
 7001TIP3   OH220943   5.244   1.450   1.286
 7001TIP3    H120944   5.218   1.473   1.376
 7001TIP3    H220945   5.326   1.498   1.273
 7002TIP3   OH220946   4.078   0.935   4.465
 7002TIP3    H120947   4.141   0.994   4.507
 7002TIP3    H220948   4.123   0.850   4.463
 7003TIP3   OH220949   4.553   7.077   5.425
 7003TIP3    H120950   4.487   7.084   5.495
 7003TIP3    H220951   4.616   7.146   5.445
 7004TIP3   OH220952   3.476   6.992   1.739
 7004TIP3    H120953   3.409   6.944   1.788
 7004TIP3    H220954   3.451   6.982   1.647
 7005TIP3   OH220955   2.773   6.812   2.543
 7005TIP3    H120956   2.845   6.838   2.601
 7005TIP3    H220957   2.694   6.830   2.593
 7006TIP3   OH220958   7.333   5.987   0.090
 7006TIP3    H120959   7.292   6.068   0.121
 7006TIP3    H220960   7.423   5.992   0.121
 7007TIP3   OH220961   5.490   1.581   5.337
 7007TIP3    H120962   5.529   1.638   5.270
 7007TIP3    H220963   5.554   1.510   5.347
 7008TIP3   OH220964   0.783   2.755   5.301
 7008TIP3    H120965   0.806   2.840   5.264
 7008TIP3    H220966   0.860   2.729   5.351
 7009TIP3   OH220967   6.340   5.914   1.811
 7009TIP3    H120968   6.310   5.845   1.871
 7009TIP3    H220969   6.367   5.985   1.869
 7010TIP3   OH220970   0.757   7.353   5.045
 7010TIP3    H120971   0.831   7.300   5.074
 7010TIP3    H220972   0.795   7.438   5.024
 7011TIP3   OH220973   4.843   2.380   0.018
 7011TIP3    H120974   4.825   2.436  -0.058
 7011TIP3    H220975   4.776   2.406   0.082
 7012TIP3   OH220976   2.652   5.386   0.962
 7012TIP3    H120977   2.747   5.373   0.957
 7012TIP3    H220978   2.616   5.328   0.895
 7013TIP3   OH220979   1.684   0.671   4.746
 7013TIP3    H120980   1.656   0.690   4.657
 7013TIP3    H220981   1.607   0.687   4.800
 7014TIP3   OH220982   7.542   1.845   4.316
 7014TIP3    H120983   7.488   1.883   4.386
 7014TIP3    H220984   7.569   1.760   4.350
 7015TIP3   OH220985   6.839   2.554   5.773
 7015TIP3    H120986   6.933   2.558   5.790
 7015TIP3    H220987   6.805   2.494   5.838
 7016TIP3   OH220988   1.272   7.678   0.887
 7016TIP3    H120989   1.239   7.735   0.957
 7016TIP3    H220990   1.206   7.685   0.818
 7017TIP3   OH220991   4.769   5.522   1.447
 7017TIP3    H120992   4.766   5.618   1.438
 7017TIP3    H220993   4.707   5.503   1.517
 7018TIP3   OH220994   0.993   4.726   2.450
 7018TIP3    H120995   1.015   4.733   2.543
 7018TIP3    H220996   0.897   4.726   2.448
 7019TIP3   OH220997   4.629   7.371   3.034
 7019TIP3    H120998   4.629   7.359   3.129
 7019TIP3    H220999   4.669   7.291   3.000
 7020TIP3   OH221000   3.941   2.465   4.214
 7020TIP3    H121001   3.854   2.436   4.241
 7020TIP3    H221002   3.995   2.386   4.218
 7021TIP3   OH221003   1.241   0.920   0.418
 7021TIP3    H121004   1.182   0.990   0.389
 7021TIP3    H221005   1.320   0.965   0.446
 7022TIP3   OH221006   3.303   3.141   5.362
 7022TIP3    H121007   3.276   3.219   5.411
 7022TIP3    H221008   3.398   3.151   5.351
 7023TIP3   OH221009   0.910   5.788   6.067
 7023TIP3    H121010   0.859   5.733   6.127
 7023TIP3    H221011   0.862   5.871   6.063
 7024TIP3   OH221012   3.306   3.975   2.161
 7024TIP3    H121013   3.343   3.937   2.241
 7024TIP3    H221014   3.378   4.028   2.125
 7025TIP3   OH221015   1.103   5.583   6.777
 7025TIP3    H121016   1.112   5.655   6.839
 7025TIP3    H221017   1.162   5.515   6.809
 7026TIP3   OH221018   1.122   3.258   1.580
 7026TIP3    H121019   1.044   3.308   1.603
 7026TIP3    H221020   1.114   3.243   1.486
 7027TIP3   OH221021   5.240   6.638   5.715
 7027TIP3    H121022   5.243   6.679   5.802
 7027TIP3    H221023   5.303   6.566   5.721
 7028TIP3   OH221024   5.436   5.335   1.394
 7028TIP3    H121025   5.372   5.298   1.333
 7028TIP3    H221026   5.512   5.277   1.387
 7029TIP3   OH221027   6.527   7.297   6.052
 7029TIP3    H121028   6.567   7.379   6.023
 7029TIP3    H221029   6.471   7.271   5.979
 7030TIP3   OH221030   4.138   5.249   3.795
 7030TIP3    H121031   4.129   5.160   3.830
 7030TIP3    H221032   4.049   5.281   3.788
 7031TIP3   OH221033   5.752   2.729   1.680
 7031TIP3    H121034   5.667   2.688   1.661
 7031TIP3    H221035   5.795   2.667   1.739
 7032TIP3   OH221036   1.476   1.852   3.784
 7032TIP3    H121037   1.484   1.947   3.791
 7032TIP3    H221038   1.396   1.831   3.833
 7033TIP3   OH221039   0.508   4.078   5.505
 7033TIP3    H121040   0.590   4.076   5.455
 7033TIP3    H221041   0.485   3.986   5.516
 7034TIP3   OH221042   8.066   4.879   2.848
 7034TIP3    H121043   8.005   4.938   2.805
 7034TIP3    H221044   8.126   4.937   2.896
 7035TIP3   OH221045   6.501   1.184   0.934
 7035TIP3    H121046   6.543   1.117   0.880
 7035TIP3    H221047   6.482   1.139   1.016
 7036TIP3   OH221048   7.168   7.525   5.488
 7036TIP3    H121049   7.109   7.593   5.521
 7036TIP3    H221050   7.252   7.569   5.478
 7037TIP3   OH221051   8.122   3.107   6.445
 7037TIP3    H121052   8.115   3.135   6.537
 7037TIP3    H221053   8.186   3.167   6.407
 7038TIP3   OH221054   6.631   1.487   6.195
 7038TIP3    H121055   6.707   1.534   6.158
 7038TIP3    H221056   6.653   1.395   6.185
 7039TIP3   OH221057   1.619   0.790   3.089
 7039TIP3    H121058   1.603   0.853   3.019
 7039TIP3    H221059   1.714   0.787   3.097
 7040TIP3   OH221060   3.833   5.300   0.049
 7040TIP3    H121061   3.924   5.293   0.081
 7040TIP3    H221062   3.780   5.290   0.128
 7041TIP3   OH221063   1.413   2.796   0.638
 7041TIP3    H121064   1.385   2.804   0.730
 7041TIP3    H221065   1.494   2.846   0.633
 7042TIP3   OH221066   0.751   2.368   6.322
 7042TIP3    H121067   0.725   2.294   6.268
 7042TIP3    H221068   0.670   2.419   6.332
 7043TIP3   OH221069   0.909   2.820   1.004
 7043TIP3    H121070   0.856   2.762   1.058
 7043TIP3    H221071   0.991   2.774   0.991
 7044TIP3   OH221072   0.233   3.809   0.195
 7044TIP3    H121073   0.300   3.873   0.173
 7044TIP3    H221074   0.282   3.732   0.225
 7045TIP3   OH221075   0.552   0.937   2.841
 7045TIP3    H121076   0.516   0.914   2.755
 7045TIP3    H221077   0.487   0.994   2.881
 7046TIP3   OH221078   7.863   7.299   3.194
 7046TIP3    H121079   7.778   7.331   3.224
 7046TIP3    H221080   7.903   7.261   3.273
 7047TIP3   OH221081   3.787   1.412   4.765
 7047TIP3    H121082   3.744   1.397   4.681
 7047TIP3    H221083   3.731   1.473   4.811
 7048TIP3   OH221084   5.864   2.076   5.209
 7048TIP3    H121085   5.854   2.080   5.304
 7048TIP3    H221086   5.952   2.110   5.192
 7049TIP3   OH221087   6.887   2.875   1.335
 7049TIP3    H121088   6.926   2.793   1.365
 7049TIP3    H221089   6.838   2.907   1.410
 7050TIP3   OH221090   1.944   6.097   4.541
 7050TIP3    H121091   1.850   6.079   4.532
 7050TIP3    H221092   1.968   6.140   4.459
 7051TIP3   OH221093   2.784   4.239   2.450
 7051TIP3    H121094   2.693   4.267   2.441
 7051TIP3    H221095   2.828   4.272   2.371
 7052TIP3   OH221096   1.616   1.145   3.255
 7052TIP3    H121097   1.659   1.206   3.195
 7052TIP3    H221098   1.689   1.106   3.304
 7053TIP3   OH221099   7.542   7.280   3.958
 7053TIP3    H121100   7.446   7.290   3.960
 7053TIP3    H221101   7.564   7.275   3.865
 7054TIP3   OH221102   2.509   2.061   0.372
 7054TIP3    H121103   2.416   2.081   0.374
 7054TIP3    H221104   2.527   2.040   0.280
 7055TIP3   OH221105   0.793   7.736   0.203
 7055TIP3    H121106   0.778   7.806   0.139
 7055TIP3    H221107   0.711   7.686   0.203
 7056TIP3   OH221108   3.676   6.619   4.977
 7056TIP3    H121109   3.765   6.634   4.944
 7056TIP3    H221110   3.625   6.596   4.900
 7057TIP3   OH221111   0.202   1.760   0.941
 7057TIP3    H121112   0.204   1.739   0.847
 7057TIP3    H221113   0.139   1.699   0.978
 7058TIP3   OH221114   1.245   5.463   4.702
 7058TIP3    H121115   1.234   5.408   4.625
 7058TIP3    H221116   1.323   5.429   4.745
 7059TIP3   OH221117   4.401   2.941   2.114
 7059TIP3    H121118   4.312   2.922   2.141
 7059TIP3    H221119   4.395   2.957   2.019
 7060TIP3   OH221120   2.560   2.229   6.515
 7060TIP3    H121121   2.535   2.302   6.458
 7060TIP3    H221122   2.530   2.151   6.469
 7061TIP3   OH221123   3.757   4.675   4.343
 7061TIP3    H121124   3.770   4.633   4.257
 7061TIP3    H221125   3.664   4.661   4.363
 7062TIP3   OH221126   4.157   3.188   6.654
 7062TIP3    H121127   4.226   3.199   6.588
 7062TIP3    H221128   4.189   3.117   6.711
 7063TIP3   OH221129   2.341   1.258   0.892
 7063TIP3    H121130   2.389   1.293   0.817
 7063TIP3    H221131   2.250   1.284   0.877
 7064TIP3   OH221132   3.122   3.029   3.819
 7064TIP3    H121133   3.173   2.974   3.879
 7064TIP3    H221134   3.185   3.095   3.789
 7065TIP3   OH221135   2.820   3.408   3.954
 7065TIP3    H121136   2.848   3.333   4.007
 7065TIP3    H221137   2.867   3.397   3.871
 7066TIP3   OH221138   7.558   6.973   3.922
 7066TIP3    H121139   7.513   7.006   3.845
 7066TIP3    H221140   7.581   7.052   3.972
 7067TIP3   OH221141   1.511   2.530   2.162
 7067TIP3    H121142   1.500   2.569   2.076
 7067TIP3    H221143   1.586   2.472   2.154
 7068TIP3   OH221144   4.662   1.324   2.453
 7068TIP3    H121145   4.659   1.237   2.493
 7068TIP3    H221146   4.744   1.363   2.484
 7069TIP3   OH221147   0.989   1.788   3.273
 7069TIP3    H121148   0.968   1.847   3.346
 7069TIP3    H221149   1.060   1.734   3.306
 7070TIP3   OH221150   1.721   4.568   0.673
 7070TIP3    H121151   1.700   4.490   0.723
 7070TIP3    H221152   1.798   4.543   0.621
 7071TIP3   OH221153   1.084   4.192   6.221
 7071TIP3    H121154   1.005   4.225   6.177
 7071TIP3    H221155   1.055   4.170   6.309
 7072TIP3   OH221156   7.745   2.434   6.282
 7072TIP3    H121157   7.684   2.505   6.302
 7072TIP3    H221158   7.832   2.472   6.298
 7073TIP3   OH221159   7.862   7.294   3.795
 7073TIP3    H121160   7.772   7.278   3.768
 7073TIP3    H221161   7.915   7.273   3.719
 7074TIP3   OH221162   4.512   1.666   1.236
 7074TIP3    H121163   4.591   1.719   1.249
 7074TIP3    H221164   4.521   1.630   1.147
 7075TIP3   OH221165   3.132   3.676   4.473
 7075TIP3    H121166   3.179   3.599   4.505
 7075TIP3    H221167   3.173   3.750   4.517
 7076TIP3   OH221168   7.269   7.555   0.729
 7076TIP3    H121169   7.214   7.617   0.777
 7076TIP3    H221170   7.355   7.596   0.725
 7077TIP3   OH221171   7.434   5.007   0.778
 7077TIP3    H121172   7.354   5.018   0.726
 7077TIP3    H221173   7.505   5.022   0.716
 7078TIP3   OH221174   4.768   1.833   3.447
 7078TIP3    H121175   4.720   1.863   3.370
 7078TIP3    H221176   4.844   1.786   3.411
 7079TIP3   OH221177   6.412   1.137   3.430
 7079TIP3    H121178   6.344   1.113   3.367
 7079TIP3    H221179   6.441   1.224   3.400
 7080TIP3   OH221180   1.907   1.178   6.365
 7080TIP3    H121181   1.956   1.234   6.426
 7080TIP3    H221182   1.974   1.128   6.319
 7081TIP3   OH221183   4.533   7.702   2.128
 7081TIP3    H121184   4.593   7.640   2.089
 7081TIP3    H221185   4.514   7.765   2.058
 7082TIP3   OH221186   0.577   0.286   0.688
 7082TIP3    H121187   0.513   0.345   0.649
 7082TIP3    H221188   0.637   0.265   0.617
 7083TIP3   OH221189   5.980   5.794   4.207
 7083TIP3    H121190   5.934   5.710   4.212
 7083TIP3    H221191   5.911   5.859   4.217
 7084TIP3   OH221192   0.136   1.017   0.911
 7084TIP3    H121193   0.210   1.054   0.864
 7084TIP3    H221194   0.167   1.008   1.001
 7085TIP3   OH221195   0.647   7.332   6.360
 7085TIP3    H121196   0.635   7.237   6.362
 7085TIP3    H221197   0.564   7.366   6.328
 7086TIP3   OH221198   0.840   5.258   5.615
 7086TIP3    H121199   0.757   5.303   5.601
 7086TIP3    H221200   0.890   5.274   5.534
 7087TIP3   OH221201   7.373   5.782   4.503
 7087TIP3    H121202   7.391   5.688   4.512
 7087TIP3    H221203   7.459   5.823   4.509
 7088TIP3   OH221204   0.355   7.422   2.573
 7088TIP3    H121205   0.326   7.509   2.549
 7088TIP3    H221206   0.408   7.435   2.652
 7089TIP3   OH221207   6.991   2.544   0.160
 7089TIP3    H121208   6.952   2.619   0.114
 7089TIP3    H221209   6.971   2.469   0.105
 7090TIP3   OH221210   7.716   2.651   0.136
 7090TIP3    H121211   7.693   2.683   0.223
 7090TIP3    H221212   7.640   2.601   0.108
 7091TIP3   OH221213   4.440   5.148   0.166
 7091TIP3    H121214   4.407   5.118   0.252
 7091TIP3    H221215   4.501   5.218   0.187
 7092TIP3   OH221216   4.402   3.309   2.383
 7092TIP3    H121217   4.417   3.238   2.446
 7092TIP3    H221218   4.308   3.307   2.367
 7093TIP3   OH221219   3.191   4.117   5.122
 7093TIP3    H121220   3.097   4.131   5.129
 7093TIP3    H221221   3.208   4.115   5.027
 7094TIP3   OH221222   7.459   7.582   2.162
 7094TIP3    H121223   7.415   7.625   2.089
 7094TIP3    H221224   7.464   7.490   2.136
 7095TIP3   OH221225   7.403   0.968   0.042
 7095TIP3    H121226   7.333   0.920   0.087
 7095TIP3    H221227   7.406   0.929  -0.046
 7096TIP3   OH221228   2.603   7.343   4.346
 7096TIP3    H121229   2.585   7.387   4.429
 7096TIP3    H221230   2.623   7.414   4.285
 7097TIP3   OH221231   2.765   6.763   3.647
 7097TIP3    H121232   2.769   6.696   3.715
 7097TIP3    H221233   2.827   6.734   3.581
 7098TIP3   OH221234   1.809   6.188   5.337
 7098TIP3    H121235   1.776   6.150   5.418
 7098TIP3    H221236   1.773   6.132   5.268
 7099TIP3   OH221237   1.067   7.781   3.304
 7099TIP3    H121238   1.100   7.781   3.214
 7099TIP3    H221239   1.002   7.710   3.306
 7100TIP3   OH221240   2.182   3.966   6.172
 7100TIP3    H121241   2.174   4.048   6.220
 7100TIP3    H221242   2.270   3.969   6.135
 7101TIP3   OH221243   3.682   5.728   1.704
 7101TIP3    H121244   3.650   5.818   1.702
 7101TIP3    H221245   3.765   5.731   1.656
 7102TIP3   OH221246   6.919   3.884   1.029
 7102TIP3    H121247   6.826   3.908   1.019
 7102TIP3    H221248   6.965   3.968   1.025
 7103TIP3   OH221249   0.068   6.349   1.968
 7103TIP3    H121250   0.109   6.334   2.053
 7103TIP3    H221251   0.138   6.385   1.913
 7104TIP3   OH221252   7.703   5.936   6.145
 7104TIP3    H121253   7.625   5.909   6.195
 7104TIP3    H221254   7.711   5.871   6.076
 7105TIP3   OH221255   6.943   4.735   6.000
 7105TIP3    H121256   7.001   4.736   6.076
 7105TIP3    H221257   6.869   4.790   6.026
 7106TIP3   OH221258   1.570   2.984   5.318
 7106TIP3    H121259   1.496   3.028   5.359
 7106TIP3    H221260   1.559   2.892   5.341
 7107TIP3   OH221261   7.259   2.053   2.600
 7107TIP3    H121262   7.329   2.013   2.652
 7107TIP3    H221263   7.303   2.124   2.553
 7108TIP3   OH221264   2.808   2.128   3.297
 7108TIP3    H121265   2.783   2.116   3.389
 7108TIP3    H221266   2.750   2.199   3.267
 7109TIP3   OH221267   7.103   6.862   3.486
 7109TIP3    H121268   7.053   6.900   3.558
 7109TIP3    H221269   7.073   6.910   3.408
 7110TIP3   OH221270   3.399   4.804   3.223
 7110TIP3    H121271   3.351   4.723   3.241
 7110TIP3    H221272   3.462   4.810   3.295
 7111TIP3   OH221273   5.029   6.391   6.418
 7111TIP3    H121274   5.006   6.390   6.511
 7111TIP3    H221275   4.947   6.410   6.373
 7112TIP3   OH221276   2.069   5.640   0.825
 7112TIP3    H121277   2.095   5.606   0.739
 7112TIP3    H221278   2.000   5.704   0.804
 7113TIP3   OH221279   0.365   7.900   2.500
 7113TIP3    H121280   0.310   7.823   2.515
 7113TIP3    H221281   0.452   7.864   2.483
 7114TIP3   OH221282   7.126   0.216   2.045
 7114TIP3    H121283   7.059   0.283   2.057
 7114TIP3    H221284   7.150   0.191   2.135
 7115TIP3   OH221285   0.561   6.925   2.773
 7115TIP3    H121286   0.471   6.896   2.782
 7115TIP3    H221287   0.613   6.845   2.774
 7116TIP3   OH221288   0.027   5.224   0.992
 7116TIP3    H121289   0.070   5.202   1.075
 7116TIP3    H221290   0.048   5.150   0.935
 7117TIP3   OH221291   8.395   5.507   4.062
 7117TIP3    H121292   8.300   5.504   4.046
 7117TIP3    H221293   8.421   5.415   4.070
 7118TIP3   OH221294   3.259   0.827   5.103
 7118TIP3    H121295   3.203   0.887   5.053
 7118TIP3    H221296   3.208   0.746   5.111
 7119TIP3   OH221297   2.825   2.404   1.330
 7119TIP3    H121298   2.817   2.499   1.326
 7119TIP3    H221299   2.792   2.374   1.246
 7120TIP3   OH221300   8.299   5.727   1.869
 7120TIP3    H121301   8.291   5.795   1.803
 7120TIP3    H221302   8.271   5.768   1.950
 7121TIP3   OH221303   7.911   5.012   6.061
 7121TIP3    H121304   7.919   4.918   6.041
 7121TIP3    H221305   7.923   5.016   6.156
 7122TIP3   OH221306   4.383   6.147   3.822
 7122TIP3    H121307   4.334   6.090   3.763
 7122TIP3    H221308   4.411   6.220   3.767
 7123TIP3   OH221309   4.224   3.638   0.161
 7123TIP3    H121310   4.245   3.589   0.240
 7123TIP3    H221311   4.191   3.572   0.099
 7124TIP3   OH221312   0.645   0.519   5.714
 7124TIP3    H121313   0.651   0.465   5.793
 7124TIP3    H221314   0.562   0.495   5.674
 7125TIP3   OH221315   1.423   1.770   0.654
 7125TIP3    H121316   1.443   1.785   0.562
 7125TIP3    H221317   1.329   1.756   0.656
 7126TIP3   OH221318   0.790   0.121   0.812
 7126TIP3    H121319   0.880   0.100   0.786
 7126TIP3    H221320   0.774   0.208   0.775
 7127TIP3   OH221321   0.790   5.801   0.072
 7127TIP3    H121322   0.696   5.812   0.061
 7127TIP3    H221323   0.816   5.870   0.131
 7128TIP3   OH221324   1.664   3.835   2.715
 7128TIP3    H121325   1.735   3.897   2.703
 7128TIP3    H221326   1.584   3.887   2.707
 7129TIP3   OH221327   1.029   3.119   1.907
 7129TIP3    H121328   1.055   3.074   1.827
 7129TIP3    H221329   1.112   3.145   1.948
 7130TIP3   OH221330   0.900   1.208   4.454
 7130TIP3    H121331   0.895   1.266   4.379
 7130TIP3    H221332   0.811   1.173   4.464
 7131TIP3   OH221333   0.553   2.506   5.481
 7131TIP3    H121334   0.597   2.588   5.503
 7131TIP3    H221335   0.553   2.503   5.386
 7132TIP3   OH221336   2.716   7.229   3.944
 7132TIP3    H121337   2.728   7.208   3.851
 7132TIP3    H221338   2.804   7.246   3.977
 7133TIP3   OH221339   6.742   4.230   0.224
 7133TIP3    H121340   6.669   4.253   0.282
 7133TIP3    H221341   6.716   4.147   0.183
 7134TIP3   OH221342   7.875   0.181   6.173
 7134TIP3    H121343   7.787   0.172   6.136
 7134TIP3    H221344   7.924   0.108   6.136
 7135TIP3   OH221345   5.203   6.104   1.233
 7135TIP3    H121346   5.139   6.158   1.281
 7135TIP3    H221347   5.155   6.024   1.212
 7136TIP3   OH221348   1.996   4.168   4.943
 7136TIP3    H121349   1.993   4.110   4.867
 7136TIP3    H221350   1.976   4.110   5.017
 7137TIP3   OH221351   0.726   3.848   1.101
 7137TIP3    H121352   0.656   3.894   1.146
 7137TIP3    H221353   0.732   3.764   1.146
 7138TIP3   OH221354   4.510   7.360   2.788
 7138TIP3    H121355   4.572   7.345   2.717
 7138TIP3    H221356   4.564   7.362   2.867
 7139TIP3   OH221357   5.115   2.435   3.892
 7139TIP3    H121358   5.072   2.519   3.903
 7139TIP3    H221359   5.057   2.386   3.833
 7140TIP3   OH221360   0.512   1.326   4.069
 7140TIP3    H121361   0.559   1.303   4.149
 7140TIP3    H221362   0.433   1.271   4.072
 7141TIP3   OH221363   1.279   1.403   2.191
 7141TIP3    H121364   1.276   1.324   2.137
 7141TIP3    H221365   1.216   1.386   2.261
 7142TIP3   OH221366   7.987   7.864   3.729
 7142TIP3    H121367   8.000   7.770   3.732
 7142TIP3    H221368   8.014   7.889   3.641
 7143TIP3   OH221369   7.660   4.534   3.547
 7143TIP3    H121370   7.670   4.490   3.463
 7143TIP3    H221371   7.614   4.471   3.603
 7144TIP3   OH221372   3.259   6.415   6.313
 7144TIP3    H121373   3.199   6.426   6.239
 7144TIP3    H221374   3.206   6.437   6.390
 7145TIP3   OH221375   2.378   6.051   6.842
 7145TIP3    H121376   2.329   6.075   6.763
 7145TIP3    H221377   2.341   5.966   6.867
 7146TIP3   OH221378   4.324   7.275   2.982
 7146TIP3    H121379   4.320   7.349   3.043
 7146TIP3    H221380   4.389   7.302   2.916
 7147TIP3   OH221381   8.094   1.229   2.908
 7147TIP3    H121382   8.085   1.224   3.003
 7147TIP3    H221383   8.175   1.277   2.893
 7148TIP3   OH221384   7.282   6.776   4.119
 7148TIP3    H121385   7.233   6.729   4.187
 7148TIP3    H221386   7.218   6.836   4.081
 7149TIP3   OH221387   3.191   2.266   0.254
 7149TIP3    H121388   3.096   2.277   0.251
 7149TIP3    H221389   3.205   2.180   0.293
 7150TIP3   OH221390   4.660   7.469   3.705
 7150TIP3    H121391   4.599   7.498   3.637
 7150TIP3    H221392   4.743   7.510   3.681
 7151TIP3   OH221393   5.801   3.733   0.824
 7151TIP3    H121394   5.741   3.773   0.887
 7151TIP3    H221395   5.855   3.805   0.793
 7152TIP3   OH221396   8.137   4.985   4.167
 7152TIP3    H121397   8.152   5.078   4.187
 7152TIP3    H221398   8.085   4.987   4.086
 7153TIP3   OH221399   4.324   0.507   5.534
 7153TIP3    H121400   4.391   0.458   5.486
 7153TIP3    H221401   4.279   0.557   5.466
 7154TIP3   OH221402   1.060   0.895   4.361
 7154TIP3    H121403   1.101   0.970   4.318
 7154TIP3    H221404   1.100   0.892   4.448
 7155TIP3   OH221405   3.536   2.153   4.932
 7155TIP3    H121406   3.445   2.176   4.951
 7155TIP3    H221407   3.564   2.100   5.007
 7156TIP3   OH221408   6.558   6.463   2.677
 7156TIP3    H121409   6.604   6.422   2.750
 7156TIP3    H221410   6.473   6.487   2.713
 7157TIP3   OH221411   1.292   5.379   2.855
 7157TIP3    H121412   1.288   5.415   2.766
 7157TIP3    H221413   1.356   5.434   2.900
 7158TIP3   OH221414   4.263   3.963   2.577
 7158TIP3    H121415   4.296   4.025   2.512
 7158TIP3    H221416   4.312   3.985   2.657
 7159TIP3   OH221417   7.650   5.805   3.467
 7159TIP3    H121418   7.679   5.818   3.376
 7159TIP3    H221419   7.626   5.893   3.496
 7160TIP3   OH221420   1.337   3.214   5.393
 7160TIP3    H121421   1.245   3.236   5.411
 7160TIP3    H221422   1.347   3.231   5.299
 7161TIP3   OH221423   0.613   4.632   2.171
 7161TIP3    H121424   0.639   4.652   2.261
 7161TIP3    H221425   0.597   4.717   2.131
 7162TIP3   OH221426   5.222   1.144   4.137
 7162TIP3    H121427   5.148   1.111   4.187
 7162TIP3    H221428   5.249   1.223   4.183
 7163TIP3   OH221429   3.844   5.571   2.728
 7163TIP3    H121430   3.908   5.568   2.656
 7163TIP3    H221431   3.770   5.619   2.692
 7164TIP3   OH221432   7.523   1.758   6.144
 7164TIP3    H121433   7.465   1.704   6.198
 7164TIP3    H221434   7.588   1.792   6.205
 7165TIP3   OH221435   4.616   0.667   1.880
 7165TIP3    H121436   4.634   0.743   1.935
 7165TIP3    H221437   4.697   0.616   1.883
 7166TIP3   OH221438   6.964   6.702   5.279
 7166TIP3    H121439   7.055   6.671   5.282
 7166TIP3    H221440   6.938   6.709   5.371
 7167TIP3   OH221441   5.851   6.063   4.696
 7167TIP3    H121442   5.901   5.984   4.715
 7167TIP3    H221443   5.908   6.135   4.725
 7168TIP3   OH221444   4.034   1.081   6.122
 7168TIP3    H121445   3.974   1.129   6.064
 7168TIP3    H221446   4.105   1.143   6.140
 7169TIP3   OH221447   3.176   6.165   0.837
 7169TIP3    H121448   3.144   6.150   0.748
 7169TIP3    H221449   3.236   6.092   0.854
 7170TIP3   OH221450   1.568   6.351   3.868
 7170TIP3    H121451   1.646   6.303   3.843
 7170TIP3    H221452   1.545   6.316   3.954
 7171TIP3   OH221453   3.546   4.525   2.631
 7171TIP3    H121454   3.507   4.443   2.660
 7171TIP3    H221455   3.640   4.514   2.646
 7172TIP3   OH221456   3.807   4.220   6.148
 7172TIP3    H121457   3.812   4.191   6.239
 7172TIP3    H221458   3.895   4.204   6.113
 7173TIP3   OH221459   5.133   4.002   3.260
 7173TIP3    H121460   5.180   4.085   3.268
 7173TIP3    H221461   5.178   3.954   3.191
 7174TIP3   OH221462   6.063   6.606   5.499
 7174TIP3    H121463   6.071   6.648   5.413
 7174TIP3    H221464   6.055   6.680   5.560
 7175TIP3   OH221465   7.301   2.799   5.776
 7175TIP3    H121466   7.329   2.830   5.862
 7175TIP3    H221467   7.380   2.759   5.738
 7176TIP3   OH221468   4.082   4.804   0.834
 7176TIP3    H121469   4.055   4.842   0.918
 7176TIP3    H221470   4.136   4.872   0.793
 7177TIP3   OH221471   2.702   6.341   2.605
 7177TIP3    H121472   2.610   6.319   2.596
 7177TIP3    H221473   2.705   6.401   2.679
 7178TIP3   OH221474   1.033   6.053   2.317
 7178TIP3    H121475   1.111   6.021   2.271
 7178TIP3    H221476   1.020   6.142   2.285
 7179TIP3   OH221477   7.769   7.168   1.010
 7179TIP3    H121478   7.748   7.229   1.081
 7179TIP3    H221479   7.860   7.144   1.025
 7180TIP3   OH221480   4.338   2.408   0.124
 7180TIP3    H121481   4.267   2.431   0.064
 7180TIP3    H221482   4.366   2.321   0.097
 7181TIP3   OH221483   6.113   5.999   3.905
 7181TIP3    H121484   6.102   5.915   3.950
 7181TIP3    H221485   6.167   5.978   3.829
 7182TIP3   OH221486   6.284   4.776   0.468
 7182TIP3    H121487   6.310   4.868   0.471
 7182TIP3    H221488   6.191   4.777   0.492
 7183TIP3   OH221489   6.597   4.975   4.903
 7183TIP3    H121490   6.542   4.973   4.825
 7183TIP3    H221491   6.535   4.988   4.975
 7184TIP3   OH221492   6.152   3.078   5.088
 7184TIP3    H121493   6.105   3.104   5.009
 7184TIP3    H221494   6.237   3.122   5.081
 7185TIP3   OH221495   0.429   1.354   2.164
 7185TIP3    H121496   0.508   1.342   2.217
 7185TIP3    H221497   0.389   1.433   2.198
 7186TIP3   OH221498   7.625   3.509   1.565
 7186TIP3    H121499   7.535   3.480   1.549
 7186TIP3    H221500   7.618   3.568   1.640
 7187TIP3   OH221501   2.494   2.987   4.768
 7187TIP3    H121502   2.481   2.905   4.720
 7187TIP3    H221503   2.537   2.960   4.850
 7188TIP3   OH221504   6.028   2.264   1.888
 7188TIP3    H121505   5.973   2.188   1.868
 7188TIP3    H221506   6.100   2.260   1.825
 7189TIP3   OH221507   6.110   6.441   3.255
 7189TIP3    H121508   6.082   6.353   3.281
 7189TIP3    H221509   6.199   6.429   3.222
 7190TIP3   OH221510   2.492   2.081   0.656
 7190TIP3    H121511   2.485   2.072   0.561
 7190TIP3    H221512   2.570   2.031   0.679
 7191TIP3   OH221513   5.642   7.823   4.508
 7191TIP3    H121514   5.560   7.848   4.550
 7191TIP3    H221515   5.631   7.730   4.488
 7192TIP3   OH221516   6.853   7.292   3.935
 7192TIP3    H121517   6.810   7.371   3.901
 7192TIP3    H221518   6.914   7.324   4.001
 7193TIP3   OH221519   6.755   2.463   4.510
 7193TIP3    H121520   6.748   2.474   4.415
 7193TIP3    H221521   6.755   2.369   4.524
 7194TIP3   OH221522   6.573   6.130   6.015
 7194TIP3    H121523   6.589   6.088   6.099
 7194TIP3    H221524   6.612   6.217   6.024
 7195TIP3   OH221525   8.173   1.950   2.866
 7195TIP3    H121526   8.110   1.880   2.886
 7195TIP3    H221527   8.179   1.950   2.771
 7196TIP3   OH221528   8.206   2.389   0.234
 7196TIP3    H121529   8.143   2.460   0.241
 7196TIP3    H221530   8.155   2.315   0.200
 7197TIP3   OH221531   4.174   2.559   1.118
 7197TIP3    H121532   4.170   2.644   1.161
 7197TIP3    H221533   4.222   2.575   1.037
 7198TIP3   OH221534   7.055   2.518   3.144
 7198TIP3    H121535   7.060   2.426   3.170
 7198TIP3    H221536   7.093   2.520   3.056
 7199TIP3   OH221537   0.581   0.826   5.903
 7199TIP3    H121538   0.498   0.798   5.864
 7199TIP3    H221539   0.574   0.921   5.909
 7200TIP3   OH221540   6.161   4.140   0.958
 7200TIP3    H121541   6.202   4.056   0.975
 7200TIP3    H221542   6.153   4.145   0.863
 7201TIP3   OH221543   1.111   4.582   2.080
 7201TIP3    H121544   1.054   4.655   2.053
 7201TIP3    H221545   1.174   4.574   2.008
 7202TIP3   OH221546   5.195   4.093   0.487
 7202TIP3    H121547   5.229   4.182   0.500
 7202TIP3    H221548   5.255   4.054   0.424
 7203TIP3   OH221549   6.688   7.359   6.511
 7203TIP3    H121550   6.675   7.450   6.486
 7203TIP3    H221551   6.679   7.310   6.429
 7204TIP3   OH221552   7.058   1.380   6.725
 7204TIP3    H121553   6.983   1.427   6.690
 7204TIP3    H221554   7.084   1.430   6.803
 7205TIP3   OH221555   7.438   2.542   0.433
 7205TIP3    H121556   7.379   2.543   0.358
 7205TIP3    H221557   7.432   2.452   0.467
 7206TIP3   OH221558   6.485   5.246   2.668
 7206TIP3    H121559   6.453   5.247   2.758
 7206TIP3    H221560   6.428   5.308   2.622
 7207TIP3   OH221561   1.475   0.643   4.554
 7207TIP3    H121562   1.415   0.568   4.551
 7207TIP3    H221563   1.426   0.714   4.513
 7208TIP3   OH221564   0.997   1.191   3.782
 7208TIP3    H121565   1.066   1.135   3.746
 7208TIP3    H221566   1.032   1.222   3.865
 7209TIP3   OH221567   3.163   4.691   5.683
 7209TIP3    H121568   3.110   4.669   5.760
 7209TIP3    H221569   3.100   4.725   5.619
 7210TIP3   OH221570   0.938   0.774   0.464
 7210TIP3    H121571   0.934   0.780   0.559
 7210TIP3    H221572   0.991   0.696   0.447
 7211TIP3   OH221573   6.204   7.476   2.991
 7211TIP3    H121574   6.197   7.430   3.075
 7211TIP3    H221575   6.161   7.561   3.007
 7212TIP3   OH221576   1.177   1.170   3.074
 7212TIP3    H121577   1.196   1.259   3.044
 7212TIP3    H221578   1.179   1.176   3.170
 7213TIP3   OH221579   1.567   6.356   0.691
 7213TIP3    H121580   1.531   6.361   0.603
 7213TIP3    H221581   1.629   6.429   0.696
 7214TIP3   OH221582   0.441   3.573   2.844
 7214TIP3    H121583   0.496   3.650   2.833
 7214TIP3    H221584   0.358   3.597   2.805
 7215TIP3   OH221585   1.771   2.484   1.036
 7215TIP3    H121586   1.743   2.426   0.965
 7215TIP3    H221587   1.862   2.503   1.017
 7216TIP3   OH221588   0.040   3.176   3.953
 7216TIP3    H121589   0.080   3.151   3.870
 7216TIP3    H221590   0.051   3.100   4.010
 7217TIP3   OH221591   5.033   3.250   3.527
 7217TIP3    H121592   4.976   3.264   3.451
 7217TIP3    H221593   4.984   3.286   3.600
 7218TIP3   OH221594   2.091   4.935   4.175
 7218TIP3    H121595   2.095   4.991   4.097
 7218TIP3    H221596   2.100   4.996   4.248
 7219TIP3   OH221597   2.735   5.645   1.891
 7219TIP3    H121598   2.670   5.707   1.856
 7219TIP3    H221599   2.682   5.572   1.923
 7220TIP3   OH221600   2.611   1.525   3.017
 7220TIP3    H121601   2.689   1.474   3.034
 7220TIP3    H221602   2.642   1.599   2.963
 7221TIP3   OH221603   2.561   1.615   3.343
 7221TIP3    H121604   2.642   1.563   3.343
 7221TIP3    H221605   2.579   1.686   3.281
 7222TIP3   OH221606   5.771   0.617   3.242
 7222TIP3    H121607   5.807   0.682   3.181
 7222TIP3    H221608   5.842   0.602   3.305
 7223TIP3   OH221609   2.245   5.001   0.076
 7223TIP3    H121610   2.234   4.937   0.146
 7223TIP3    H221611   2.280   5.079   0.120
 7224TIP3   OH221612   2.629   7.710   4.207
 7224TIP3    H121613   2.658   7.626   4.170
 7224TIP3    H221614   2.677   7.776   4.157
 7225TIP3   OH221615   7.076   5.038   4.542
 7225TIP3    H121616   7.032   5.004   4.619
 7225TIP3    H221617   7.008   5.086   4.494
 7226TIP3   OH221618   4.230   6.817   2.123
 7226TIP3    H121619   4.152   6.770   2.154
 7226TIP3    H221620   4.298   6.749   2.118
 7227TIP3   OH221621   7.215   6.165   5.803
 7227TIP3    H121622   7.297   6.168   5.853
 7227TIP3    H221623   7.175   6.250   5.818
 7228TIP3   OH221624   4.598   0.997   3.565
 7228TIP3    H121625   4.603   0.969   3.474
 7228TIP3    H221626   4.505   1.006   3.582
 7229TIP3   OH221627   0.664   0.368   3.876
 7229TIP3    H121628   0.715   0.306   3.927
 7229TIP3    H221629   0.645   0.440   3.936
 7230TIP3   OH221630   0.309   5.878   3.536
 7230TIP3    H121631   0.309   5.867   3.441
 7230TIP3    H221632   0.336   5.968   3.550
 7231TIP3   OH221633   2.708   6.002   4.906
 7231TIP3    H121634   2.799   5.978   4.887
 7231TIP3    H221635   2.658   5.925   4.881
 7232TIP3   OH221636   1.336   2.439   5.017
 7232TIP3    H121637   1.291   2.513   5.059
 7232TIP3    H221638   1.308   2.363   5.067
 7233TIP3   OH221639   5.779   0.589   2.725
 7233TIP3    H121640   5.730   0.611   2.646
 7233TIP3    H221641   5.858   0.546   2.692
 7234TIP3   OH221642   0.264   1.262   0.154
 7234TIP3    H121643   0.355   1.267   0.183
 7234TIP3    H221644   0.270   1.239   0.061
 7235TIP3   OH221645   5.054   3.332   2.967
 7235TIP3    H121646   5.022   3.369   2.884
 7235TIP3    H221647   5.149   3.339   2.961
 7236TIP3   OH221648   0.957   5.440   2.283
 7236TIP3    H121649   1.000   5.356   2.300
 7236TIP3    H221650   0.962   5.486   2.367
 7237TIP3   OH221651   4.550   0.222   3.650
 7237TIP3    H121652   4.629   0.231   3.596
 7237TIP3    H221653   4.558   0.135   3.690
 7238TIP3   OH221654   6.224   5.175   1.511
 7238TIP3    H121655   6.275   5.252   1.537
 7238TIP3    H221656   6.247   5.108   1.575
 7239TIP3   OH221657   2.842   4.305   2.146
 7239TIP3    H121658   2.776   4.260   2.095
 7239TIP3    H221659   2.911   4.240   2.161
 7240TIP3   OH221660   1.524   5.094   5.818
 7240TIP3    H121661   1.460   5.024   5.828
 7240TIP3    H221662   1.542   5.098   5.725
 7241TIP3   OH221663   2.337   5.140   6.109
 7241TIP3    H121664   2.246   5.128   6.082
 7241TIP3    H221665   2.382   5.164   6.028
 7242TIP3   OH221666   4.621   7.735   6.780
 7242TIP3    H121667   4.685   7.686   6.729
 7242TIP3    H221668   4.674   7.793   6.835
 7243TIP3   OH221669   0.378   5.153   0.237
 7243TIP3    H121670   0.472   5.136   0.229
 7243TIP3    H221671   0.343   5.076   0.282
 7244TIP3   OH221672   7.902   1.883   6.119
 7244TIP3    H121673   7.967   1.953   6.124
 7244TIP3    H221674   7.864   1.891   6.032
 7245TIP3   OH221675   7.120   7.445   2.040
 7245TIP3    H121676   7.175   7.509   1.996
 7245TIP3    H221677   7.064   7.498   2.098
 7246TIP3   OH221678   6.794   0.806   3.496
 7246TIP3    H121679   6.811   0.898   3.517
 7246TIP3    H221680   6.714   0.808   3.442
 7247TIP3   OH221681   5.268   2.116   0.401
 7247TIP3    H121682   5.309   2.190   0.357
 7247TIP3    H221683   5.267   2.046   0.335
 7248TIP3   OH221684   4.317   2.170   5.369
 7248TIP3    H121685   4.408   2.197   5.382
 7248TIP3    H221686   4.272   2.200   5.449
 7249TIP3   OH221687   6.962   3.688   6.405
 7249TIP3    H121688   6.916   3.674   6.488
 7249TIP3    H221689   6.894   3.677   6.338
 7250TIP3   OH221690   4.017   2.692   1.404
 7250TIP3    H121691   3.967   2.753   1.458
 7250TIP3    H221692   4.109   2.713   1.422
 7251TIP3   OH221693   4.448   1.475   5.788
 7251TIP3    H121694   4.447   1.387   5.751
 7251TIP3    H221695   4.385   1.524   5.734
 7252TIP3   OH221696   4.900   6.679   3.746
 7252TIP3    H121697   4.815   6.715   3.772
 7252TIP3    H221698   4.964   6.736   3.787
 7253TIP3   OH221699   5.508   2.431   2.441
 7253TIP3    H121700   5.522   2.337   2.447
 7253TIP3    H221701   5.418   2.440   2.409
 7254TIP3   OH221702   7.359   4.695   3.285
 7254TIP3    H121703   7.272   4.699   3.246
 7254TIP3    H221704   7.408   4.637   3.227
 7255TIP3   OH221705   2.777   4.909   0.498
 7255TIP3    H121706   2.781   4.999   0.531
 7255TIP3    H221707   2.828   4.858   0.561
 7256TIP3   OH221708   8.283   0.471   1.111
 7256TIP3    H121709   8.322   0.536   1.170
 7256TIP3    H221710   8.350   0.457   1.044
 7257TIP3   OH221711   4.373   1.192   3.337
 7257TIP3    H121712   4.362   1.158   3.248
 7257TIP3    H221713   4.284   1.196   3.372
 7258TIP3   OH221714  -0.020   1.093   2.924
 7258TIP3    H121715   0.041   1.165   2.936
 7258TIP3    H221716   0.036   1.018   2.902
 7259TIP3   OH221717   1.552   1.162   0.822
 7259TIP3    H121718   1.527   1.248   0.857
 7259TIP3    H221719   1.580   1.180   0.732
 7260TIP3   OH221720   0.418   5.398   6.574
 7260TIP3    H121721   0.374   5.332   6.628
 7260TIP3    H221722   0.347   5.452   6.540
 7261TIP3   OH221723   8.251   7.203   2.194
 7261TIP3    H121724   8.285   7.144   2.262
 7261TIP3    H221725   8.172   7.240   2.233
 7262TIP3   OH221726   8.282   6.241   1.744
 7262TIP3    H121727   8.310   6.312   1.687
 7262TIP3    H221728   8.214   6.196   1.695
 7263TIP3   OH221729   2.727   4.230   6.725
 7263TIP3    H121730   2.763   4.317   6.712
 7263TIP3    H221731   2.794   4.183   6.775
 7264TIP3   OH221732   5.827   1.270   0.538
 7264TIP3    H121733   5.752   1.329   0.542
 7264TIP3    H221734   5.885   1.302   0.608
 7265TIP3   OH221735   5.061   4.068   1.728
 7265TIP3    H121736   5.109   4.060   1.646
 7265TIP3    H221737   5.077   3.985   1.773
 7266TIP3   OH221738   3.872   2.809   0.971
 7266TIP3    H121739   3.959   2.839   0.996
 7266TIP3    H221740   3.863   2.723   1.012
 7267TIP3   OH221741   6.891   7.246   3.472
 7267TIP3    H121742   6.914   7.212   3.559
 7267TIP3    H221743   6.976   7.257   3.429
 7268TIP3   OH221744   4.079   7.514   3.902
 7268TIP3    H121745   4.020   7.524   3.827
 7268TIP3    H221746   4.034   7.452   3.959
 7269TIP3   OH221747   1.016   2.476   6.337
 7269TIP3    H121748   1.006   2.517   6.423
 7269TIP3    H221749   0.927   2.454   6.310
 7270TIP3   OH221750   6.427   2.983   4.875
 7270TIP3    H121751   6.446   3.046   4.806
 7270TIP3    H221752   6.402   3.036   4.951
 7271TIP3   OH221753   4.836   3.404   4.866
 7271TIP3    H121754   4.864   3.391   4.775
 7271TIP3    H221755   4.751   3.448   4.858
 7272TIP3   OH221756   3.867   6.046   2.643
 7272TIP3    H121757   3.823   5.997   2.712
 7272TIP3    H221758   3.828   6.015   2.562
 7273TIP3   OH221759   2.502   6.984   2.914
 7273TIP3    H121760   2.468   7.065   2.952
 7273TIP3    H221761   2.424   6.929   2.901
 7274TIP3   OH221762   5.864   0.185   0.583
 7274TIP3    H121763   5.919   0.153   0.512
 7274TIP3    H221764   5.834   0.271   0.553
 7275TIP3   OH221765   1.374   0.359   4.921
 7275TIP3    H121766   1.376   0.429   4.986
 7275TIP3    H221767   1.372   0.278   4.973
 7276TIP3   OH221768   2.076   4.851   3.678
 7276TIP3    H121769   2.014   4.809   3.737
 7276TIP3    H221770   2.022   4.912   3.627
 7277TIP3   OH221771   2.268   0.596   3.990
 7277TIP3    H121772   2.224   0.666   3.942
 7277TIP3    H221773   2.221   0.516   3.964
 7278TIP3   OH221774   3.520   7.712   4.306
 7278TIP3    H121775   3.448   7.772   4.286
 7278TIP3    H221776   3.532   7.662   4.225
 7279TIP3   OH221777   3.709   4.507   4.086
 7279TIP3    H121778   3.761   4.528   4.009
 7279TIP3    H221779   3.744   4.425   4.118
 7280TIP3   OH221780   6.583   1.443   2.705
 7280TIP3    H121781   6.608   1.417   2.616
 7280TIP3    H221782   6.617   1.373   2.760
 7281TIP3   OH221783   1.788   2.267   5.778
 7281TIP3    H121784   1.746   2.208   5.716
 7281TIP3    H221785   1.717   2.300   5.832
 7282TIP3   OH221786   5.543   2.416   1.415
 7282TIP3    H121787   5.591   2.424   1.333
 7282TIP3    H221788   5.610   2.419   1.483
 7283TIP3   OH221789   0.902   3.862   5.954
 7283TIP3    H121790   0.818   3.863   5.908
 7283TIP3    H221791   0.956   3.801   5.903
 7284TIP3   OH221792   0.541   6.836   6.710
 7284TIP3    H121793   0.548   6.869   6.620
 7284TIP3    H221794   0.631   6.823   6.738
 7285TIP3   OH221795   1.394   2.798   3.383
 7285TIP3    H121796   1.425   2.829   3.298
 7285TIP3    H221797   1.472   2.794   3.438
 7286TIP3   OH221798   7.549   2.943   3.371
 7286TIP3    H121799   7.516   2.962   3.284
 7286TIP3    H221800   7.642   2.965   3.368
 7287TIP3   OH221801   3.687   2.808   3.113
 7287TIP3    H121802   3.732   2.746   3.055
 7287TIP3    H221803   3.599   2.815   3.077
 7288TIP3   OH221804   5.482   6.964   2.523
 7288TIP3    H121805   5.498   6.995   2.433
 7288TIP3    H221806   5.516   7.034   2.578
 7289TIP3   OH221807   4.990   4.922   5.202
 7289TIP3    H121808   4.999   4.864   5.278
 7289TIP3    H221809   4.903   4.962   5.213
 7290TIP3   OH221810   1.376   1.010   2.997
 7290TIP3    H121811   1.443   1.041   3.059
 7290TIP3    H221812   1.298   1.061   3.020
 7291TIP3   OH221813   4.579   2.261   4.197
 7291TIP3    H121814   4.532   2.245   4.115
 7291TIP3    H221815   4.671   2.259   4.173
 7292TIP3   OH221816   1.845   2.032   0.028
 7292TIP3    H121817   1.875   2.018   0.118
 7292TIP3    H221818   1.858   1.948  -0.015
 7293TIP3   OH221819   3.522   2.793   1.061
 7293TIP3    H121820   3.566   2.768   1.142
 7293TIP3    H221821   3.470   2.716   1.037
 7294TIP3   OH221822   7.136   3.107   0.527
 7294TIP3    H121823   7.071   3.038   0.542
 7294TIP3    H221824   7.218   3.070   0.561
 7295TIP3   OH221825   3.615   1.893   0.448
 7295TIP3    H121826   3.587   1.976   0.410
 7295TIP3    H221827   3.647   1.915   0.535
 7296TIP3   OH221828   6.822   3.477   3.641
 7296TIP3    H121829   6.748   3.536   3.631
 7296TIP3    H221830   6.852   3.490   3.731
 7297TIP3   OH221831   0.590   0.303   4.430
 7297TIP3    H121832   0.676   0.288   4.391
 7297TIP3    H221833   0.527   0.275   4.364
 7298TIP3   OH221834   7.081   3.656   5.911
 7298TIP3    H121835   7.119   3.587   5.965
 7298TIP3    H221836   7.095   3.737   5.960
 7299TIP3   OH221837   5.364   7.222   5.706
 7299TIP3    H121838   5.294   7.274   5.667
 7299TIP3    H221839   5.319   7.159   5.762
 7300TIP3   OH221840   1.772   1.934   2.816
 7300TIP3    H121841   1.722   2.013   2.838
 7300TIP3    H221842   1.788   1.942   2.722
 7301TIP3   OH221843   4.632   0.887   5.128
 7301TIP3    H121844   4.608   0.979   5.128
 7301TIP3    H221845   4.568   0.845   5.184
 7302TIP3   OH221846   1.533   2.970   6.241
 7302TIP3    H121847   1.542   2.929   6.327
 7302TIP3    H221848   1.606   2.934   6.190
 7303TIP3   OH221849   5.539   7.014   2.247
 7303TIP3    H121850   5.500   7.084   2.193
 7303TIP3    H221851   5.623   7.050   2.275
 7304TIP3   OH221852   0.719   6.905   3.584
 7304TIP3    H121853   0.631   6.881   3.553
 7304TIP3    H221854   0.755   6.823   3.619
 7305TIP3   OH221855   6.523   3.771   5.623
 7305TIP3    H121856   6.441   3.721   5.622
 7305TIP3    H221857   6.578   3.725   5.686
 7306TIP3   OH221858   8.109   1.445   6.352
 7306TIP3    H121859   8.020   1.457   6.384
 7306TIP3    H221860   8.162   1.503   6.408
 7307TIP3   OH221861   5.497   4.727   1.952
 7307TIP3    H121862   5.574   4.669   1.943
 7307TIP3    H221863   5.440   4.680   2.013
 7308TIP3   OH221864   4.902   2.035   2.024
 7308TIP3    H121865   4.967   1.981   1.980
 7308TIP3    H221866   4.950   2.115   2.048
 7309TIP3   OH221867   0.748   0.270   6.426
 7309TIP3    H121868   0.732   0.233   6.339
 7309TIP3    H221869   0.793   0.353   6.408
 7310TIP3   OH221870   8.354   2.018   5.301
 7310TIP3    H121871   8.292   2.010   5.228
 7310TIP3    H221872   8.345   2.109   5.330
 7311TIP3   OH221873   4.895   7.444   5.223
 7311TIP3    H121874   4.843   7.515   5.261
 7311TIP3    H221875   4.972   7.437   5.279
 7312TIP3   OH221876   8.036   1.410   1.410
 7312TIP3    H121877   8.000   1.394   1.322
 7312TIP3    H221878   7.987   1.485   1.442
 7313TIP3   OH221879   2.093   0.789   3.909
 7313TIP3    H121880   2.082   0.884   3.914
 7313TIP3    H221881   2.011   0.758   3.870
 7314TIP3   OH221882   5.426   7.443   0.642
 7314TIP3    H121883   5.395   7.507   0.578
 7314TIP3    H221884   5.517   7.427   0.617
 7315TIP3   OH221885   7.581   6.737   2.078
 7315TIP3    H121886   7.647   6.807   2.074
 7315TIP3    H221887   7.627   6.660   2.046
 7316TIP3   OH221888   7.130   5.302   6.286
 7316TIP3    H121889   7.133   5.391   6.321
 7316TIP3    H221890   7.041   5.272   6.305
 7317TIP3   OH221891   7.849   7.636   5.688
 7317TIP3    H121892   7.804   7.687   5.756
 7317TIP3    H221893   7.847   7.546   5.722
 7318TIP3   OH221894   1.891   4.920   3.447
 7318TIP3    H121895   1.917   4.954   3.362
 7318TIP3    H221896   1.876   4.827   3.433
 7319TIP3   OH221897   1.523   7.048   6.335
 7319TIP3    H121898   1.429   7.046   6.317
 7319TIP3    H221899   1.546   6.957   6.351
 7320TIP3   OH221900   0.641   2.019   6.416
 7320TIP3    H121901   0.646   1.983   6.328
 7320TIP3    H221902   0.635   1.943   6.474
 7321TIP3   OH221903   7.935   6.695   1.536
 7321TIP3    H121904   7.955   6.606   1.508
 7321TIP3    H221905   7.898   6.737   1.458
 7322TIP3   OH221906   0.712   3.373   3.319
 7322TIP3    H121907   0.766   3.364   3.240
 7322TIP3    H221908   0.765   3.334   3.389
 7323TIP3   OH221909   3.868   3.863   5.997
 7323TIP3    H121910   3.807   3.921   5.951
 7323TIP3    H221911   3.836   3.775   5.979
 7324TIP3   OH221912   6.940   3.325   4.756
 7324TIP3    H121913   6.889   3.400   4.786
 7324TIP3    H221914   7.000   3.361   4.691
 7325TIP3   OH221915   7.777   2.335   2.192
 7325TIP3    H121916   7.746   2.425   2.199
 7325TIP3    H221917   7.698   2.284   2.173
 7326TIP3   OH221918   4.018   4.001   1.126
 7326TIP3    H121919   4.042   4.094   1.126
 7326TIP3    H221920   4.059   3.966   1.205
 7327TIP3   OH221921   2.875   1.974   6.238
 7327TIP3    H121922   2.867   1.880   6.223
 7327TIP3    H221923   2.801   2.013   6.192
 7328TIP3   OH221924   1.243   0.076   2.226
 7328TIP3    H121925   1.156   0.100   2.196
 7328TIP3    H221926   1.232  -0.010   2.266
 7329TIP3   OH221927   0.611   4.454   6.003
 7329TIP3    H121928   0.528   4.444   6.050
 7329TIP3    H221929   0.596   4.410   5.919
 7330TIP3   OH221930   0.718   3.199   0.728
 7330TIP3    H121931   0.626   3.174   0.725
 7330TIP3    H221932   0.763   3.122   0.762
 7331TIP3   OH221933   4.366   2.284   6.459
 7331TIP3    H121934   4.273   2.304   6.447
 7331TIP3    H221935   4.398   2.353   6.517
 7332TIP3   OH221936   5.774   3.881   0.215
 7332TIP3    H121937   5.823   3.842   0.288
 7332TIP3    H221938   5.834   3.878   0.141
 7333TIP3   OH221939   0.383   4.804   3.987
 7333TIP3    H121940   0.304   4.848   4.019
 7333TIP3    H221941   0.374   4.714   4.018
 7334TIP3   OH221942   0.047   4.343   6.007
 7334TIP3    H121943   0.061   4.250   5.991
 7334TIP3    H221944  -0.037   4.363   5.966
 7335TIP3   OH221945   2.233   5.447   6.003
 7335TIP3    H121946   2.213   5.378   6.065
 7335TIP3    H221947   2.249   5.524   6.058
 7336TIP3   OH221948   4.946   5.596   2.936
 7336TIP3    H121949   5.003   5.668   2.963
 7336TIP3    H221950   4.998   5.547   2.872
 7337TIP3   OH221951   0.340   7.603   1.415
 7337TIP3    H121952   0.338   7.686   1.464
 7337TIP3    H221953   0.375   7.626   1.329
 7338TIP3   OH221954   2.693   0.749   2.670
 7338TIP3    H121955   2.778   0.711   2.690
 7338TIP3    H221956   2.710   0.843   2.660
 7339TIP3   OH221957   2.029   7.895   5.220
 7339TIP3    H121958   2.083   7.973   5.207
 7339TIP3    H221959   1.939   7.927   5.218
 7340TIP3   OH221960   4.462   6.082   2.737
 7340TIP3    H121961   4.371   6.109   2.743
 7340TIP3    H221962   4.497   6.127   2.660
 7341TIP3   OH221963   4.234   0.847   5.574
 7341TIP3    H121964   4.186   0.877   5.651
 7341TIP3    H221965   4.190   0.767   5.547
 7342TIP3   OH221966   6.493   0.114   5.519
 7342TIP3    H121967   6.531   0.088   5.603
 7342TIP3    H221968   6.568   0.120   5.460
 7343TIP3   OH221969   0.193   2.738   2.214
 7343TIP3    H121970   0.139   2.702   2.285
 7343TIP3    H221971   0.246   2.805   2.255
 7344TIP3   OH221972   5.760   7.062   3.947
 7344TIP3    H121973   5.831   7.063   4.010
 7344TIP3    H221974   5.720   7.149   3.955
 7345TIP3   OH221975   1.775   2.648   4.427
 7345TIP3    H121976   1.716   2.591   4.378
 7345TIP3    H221977   1.836   2.681   4.361
 7346TIP3   OH221978   2.065   4.443   3.288
 7346TIP3    H121979   2.108   4.360   3.310
 7346TIP3    H221980   2.098   4.505   3.353
 7347TIP3   OH221981   3.846   2.679   5.441
 7347TIP3    H121982   3.933   2.720   5.433
 7347TIP3    H221983   3.816   2.705   5.528
 7348TIP3   OH221984   3.224   1.396   6.237
 7348TIP3    H121985   3.279   1.438   6.304
 7348TIP3    H221986   3.260   1.426   6.154
 7349TIP3   OH221987   5.991   7.195   3.868
 7349TIP3    H121988   6.003   7.165   3.957
 7349TIP3    H221989   5.908   7.157   3.840
 7350TIP3   OH221990   2.443   3.335   5.631
 7350TIP3    H121991   2.407   3.409   5.582
 7350TIP3    H221992   2.537   3.347   5.628
 7351TIP3   OH221993   5.808   2.920   3.064
 7351TIP3    H121994   5.822   2.999   3.011
 7351TIP3    H221995   5.806   2.951   3.154
 7352TIP3   OH221996   2.152   1.434   0.758
 7352TIP3    H121997   2.180   1.497   0.692
 7352TIP3    H221998   2.095   1.374   0.710
 7353TIP3   OH221999   7.207   2.066   4.877
 7353TIP3    H122000   7.273   2.054   4.809
 7353TIP3    H222001   7.172   2.154   4.863
 7354TIP3   OH222002   2.945   7.533   1.685
 7354TIP3    H122003   2.961   7.604   1.747
 7354TIP3    H222004   2.949   7.575   1.599
 7355TIP3   OH222005   0.205   5.371   5.882
 7355TIP3    H122006   0.161   5.305   5.936
 7355TIP3    H222007   0.296   5.369   5.911
 7356TIP3   OH222008   3.600   0.729   2.404
 7356TIP3    H122009   3.636   0.687   2.482
 7356TIP3    H222010   3.675   0.737   2.344
 7357TIP3   OH222011   3.352   1.402   4.461
 7357TIP3    H122012   3.346   1.382   4.368
 7357TIP3    H222013   3.341   1.318   4.504
 7358TIP3   OH222014   8.065   7.529   5.918
 7358TIP3    H122015   8.090   7.554   6.007
 7358TIP3    H222016   8.031   7.609   5.879
 7359TIP3   OH222017   1.699   5.990   4.626
 7359TIP3    H122018   1.698   6.069   4.679
 7359TIP3    H222019   1.608   5.958   4.628
 7360TIP3   OH222020   0.046   6.655   1.705
 7360TIP3    H122021  -0.028   6.703   1.743
 7360TIP3    H222022   0.116   6.721   1.698
 7361TIP3   OH222023   2.158   1.431   5.708
 7361TIP3    H122024   2.238   1.399   5.749
 7361TIP3    H222025   2.091   1.420   5.775
 7362TIP3   OH222026   0.910   5.182   5.120
 7362TIP3    H122027   0.817   5.170   5.100
 7362TIP3    H222028   0.955   5.119   5.064
 7363TIP3   OH222029   5.109   4.388   3.142
 7363TIP3    H122030   5.198   4.360   3.167
 7363TIP3    H222031   5.073   4.424   3.222
 7364TIP3   OH222032   3.784   6.899   2.216
 7364TIP3    H122033   3.729   6.924   2.141
 7364TIP3    H222034   3.855   6.848   2.177
 7365TIP3   OH222035   1.574   2.720   0.085
 7365TIP3    H122036   1.651   2.664   0.080
 7365TIP3    H222037   1.515   2.685   0.019
 7366TIP3   OH222038   2.657   3.733   4.800
 7366TIP3    H122039   2.696   3.814   4.765
 7366TIP3    H222040   2.589   3.763   4.859
 7367TIP3   OH222041   4.586   6.519   6.798
 7367TIP3    H122042   4.535   6.528   6.718
 7367TIP3    H222043   4.575   6.427   6.824
 7368TIP3   OH222044   3.650   3.885   2.226
 7368TIP3    H122045   3.594   3.812   2.202
 7368TIP3    H222046   3.651   3.884   2.322
 7369TIP3   OH222047   2.166   7.039   2.958
 7369TIP3    H122048   2.126   7.028   3.045
 7369TIP3    H222049   2.257   7.060   2.977
 7370TIP3   OH222050   0.808   1.024   4.745
 7370TIP3    H122051   0.873   0.986   4.686
 7370TIP3    H222052   0.852   1.028   4.830
 7371TIP3   OH222053   0.670   2.407   3.505
 7371TIP3    H122054   0.635   2.343   3.567
 7371TIP3    H222055   0.678   2.488   3.557
 7372TIP3   OH222056   1.113   2.657   1.989
 7372TIP3    H122057   1.171   2.682   1.917
 7372TIP3    H222058   1.159   2.586   2.034
 7373TIP3   OH222059   7.467   3.147   0.314
 7373TIP3    H122060   7.472   3.073   0.375
 7373TIP3    H222061   7.545   3.199   0.332
 7374TIP3   OH222062   3.624   7.053   3.566
 7374TIP3    H122063   3.583   7.062   3.652
 7374TIP3    H222064   3.717   7.040   3.585
 7375TIP3   OH222065   7.748   1.988   0.969
 7375TIP3    H122066   7.702   2.071   0.982
 7375TIP3    H222067   7.771   1.987   0.876
 7376TIP3   OH222068   4.863   6.114   5.826
 7376TIP3    H122069   4.901   6.196   5.796
 7376TIP3    H222070   4.773   6.136   5.849
 7377TIP3   OH222071   8.359   7.131   0.275
 7377TIP3    H122072   8.373   7.214   0.229
 7377TIP3    H222073   8.284   7.092   0.230
 7378TIP3   OH222074   4.857   7.437   1.240
 7378TIP3    H122075   4.834   7.347   1.220
 7378TIP3    H222076   4.858   7.482   1.156
 7379TIP3   OH222077   7.211   2.825   2.192
 7379TIP3    H122078   7.262   2.763   2.244
 7379TIP3    H222079   7.261   2.836   2.111
 7380TIP3   OH222080   7.851   3.433   3.654
 7380TIP3    H122081   7.927   3.481   3.621
 7380TIP3    H222082   7.778   3.494   3.641
 7381TIP3   OH222083   8.338   2.743   4.834
 7381TIP3    H122084   8.245   2.750   4.856
 7381TIP3    H222085   8.339   2.738   4.738
 7382TIP3   OH222086   8.150   7.843   4.566
 7382TIP3    H122087   8.132   7.756   4.604
 7382TIP3    H222088   8.236   7.867   4.601
 7383TIP3   OH222089   7.384   5.130   4.849
 7383TIP3    H122090   7.360   5.056   4.904
 7383TIP3    H222091   7.479   5.133   4.853
 7384TIP3   OH222092   2.528   4.347   0.999
 7384TIP3    H122093   2.538   4.255   0.977
 7384TIP3    H222094   2.534   4.393   0.915
 7385TIP3   OH222095   5.310   6.303   3.225
 7385TIP3    H122096   5.216   6.321   3.228
 7385TIP3    H222097   5.350   6.390   3.223
 7386TIP3   OH222098   6.557   4.884   1.663
 7386TIP3    H122099   6.576   4.976   1.681
 7386TIP3    H222100   6.642   4.840   1.667
 7387TIP3   OH222101   0.743   0.206   4.069
 7387TIP3    H122102   0.796   0.135   4.035
 7387TIP3    H222103   0.668   0.162   4.111
 7388TIP3   OH222104   5.282   1.060   5.021
 7388TIP3    H122105   5.361   1.073   5.072
 7388TIP3    H222106   5.248   1.148   5.005
 7389TIP3   OH222107   2.133   1.247   1.890
 7389TIP3    H122108   2.177   1.329   1.912
 7389TIP3    H222109   2.040   1.265   1.905
 7390TIP3   OH222110   2.221   7.543   2.623
 7390TIP3    H122111   2.288   7.591   2.574
 7390TIP3    H222112   2.270   7.493   2.688
 7391TIP3   OH222113   7.271   0.061   0.395
 7391TIP3    H122114   7.249   0.037   0.485
 7391TIP3    H222115   7.366   0.050   0.389
 7392TIP3   OH222116   7.385   6.837   3.260
 7392TIP3    H122117   7.317   6.865   3.321
 7392TIP3    H222118   7.443   6.913   3.253
 7393TIP3   OH222119   2.150   2.070   2.740
 7393TIP3    H122120   2.087   2.082   2.811
 7393TIP3    H222121   2.230   2.111   2.772
 7394TIP3   OH222122   2.464   1.170   0.429
 7394TIP3    H122123   2.372   1.145   0.414
 7394TIP3    H222124   2.515   1.096   0.395
 7395TIP3   OH222125   1.545   5.849   4.898
 7395TIP3    H122126   1.545   5.945   4.900
 7395TIP3    H222127   1.453   5.826   4.888
 7396TIP3   OH222128   3.112   4.384   2.310
 7396TIP3    H122129   3.188   4.422   2.356
 7396TIP3    H222130   3.150   4.316   2.254
 7397TIP3   OH222131   4.486   3.790   6.693
 7397TIP3    H122132   4.532   3.707   6.688
 7397TIP3    H222133   4.495   3.828   6.606
 7398TIP3   OH222134   3.918   4.952   1.032
 7398TIP3    H122135   3.917   5.042   1.066
 7398TIP3    H222136   3.838   4.913   1.066
 7399TIP3   OH222137   3.881   6.844   0.033
 7399TIP3    H122138   3.816   6.785  -0.005
 7399TIP3    H222139   3.909   6.801   0.113
 7400TIP3   OH222140   7.492   4.493   0.919
 7400TIP3    H122141   7.580   4.472   0.889
 7400TIP3    H222142   7.436   4.477   0.843
 7401TIP3   OH222143   8.320   5.983   0.886
 7401TIP3    H122144   8.348   5.905   0.932
 7401TIP3    H222145   8.233   6.002   0.921
 7402TIP3   OH222146   5.437   0.901   2.445
 7402TIP3    H122147   5.387   0.871   2.369
 7402TIP3    H222148   5.370   0.925   2.509
 7403TIP3   OH222149   6.247   3.208   2.738
 7403TIP3    H122150   6.281   3.230   2.651
 7403TIP3    H222151   6.300   3.133   2.766
 7404TIP3   OH222152   7.468   4.637   5.238
 7404TIP3    H122153   7.522   4.697   5.187
 7404TIP3    H222154   7.443   4.568   5.176
 7405TIP3   OH222155   2.208   7.695   6.141
 7405TIP3    H122156   2.200   7.612   6.094
 7405TIP3    H222157   2.302   7.715   6.139
 7406TIP3   OH222158   2.491   3.395   1.449
 7406TIP3    H122159   2.537   3.478   1.433
 7406TIP3    H222160   2.550   3.329   1.413
 7407TIP3   OH222161   3.538   7.730   2.644
 7407TIP3    H122162   3.571   7.647   2.611
 7407TIP3    H222163   3.487   7.707   2.722
 7408TIP3   OH222164   3.994   5.928   0.710
 7408TIP3    H122165   3.961   6.013   0.738
 7408TIP3    H222166   4.080   5.920   0.752
 7409TIP3   OH222167   2.686   2.845   4.477
 7409TIP3    H122168   2.743   2.833   4.401
 7409TIP3    H222169   2.687   2.939   4.493
 7410TIP3   OH222170   7.645   0.984   6.761
 7410TIP3    H122171   7.702   1.032   6.821
 7410TIP3    H222172   7.658   0.892   6.784
 7411TIP3   OH222173   1.469   6.612   5.544
 7411TIP3    H122174   1.386   6.582   5.583
 7411TIP3    H222175   1.511   6.662   5.614
 7412TIP3   OH222176   1.427   3.747   1.447
 7412TIP3    H122177   1.396   3.836   1.427
 7412TIP3    H222178   1.506   3.761   1.499
 7413TIP3   OH222179   0.428   3.788   1.228
 7413TIP3    H122180   0.459   3.823   1.312
 7413TIP3    H222181   0.339   3.758   1.246
 7414TIP3   OH222182   2.683   6.091   2.353
 7414TIP3    H122183   2.687   6.144   2.432
 7414TIP3    H222184   2.657   6.152   2.284
 7415TIP3   OH222185   3.731  -0.003   3.923
 7415TIP3    H122186   3.769   0.083   3.938
 7415TIP3    H222187   3.693   0.002   3.835
 7416TIP3   OH222188   4.522   0.267   0.074
 7416TIP3    H122189   4.443   0.213   0.069
 7416TIP3    H222190   4.490   0.354   0.098
 7417TIP3   OH222191   0.086   3.029   1.630
 7417TIP3    H122192   0.053   2.942   1.649
 7417TIP3    H222193   0.159   3.015   1.570
 7418TIP3   OH222194   1.052   1.142   1.127
 7418TIP3    H122195   1.065   1.163   1.034
 7418TIP3    H222196   1.017   1.222   1.165
 7419TIP3   OH222197   7.761   1.917   2.072
 7419TIP3    H122198   7.739   1.922   2.165
 7419TIP3    H222199   7.713   1.840   2.040
 7420TIP3   OH222200   7.431   0.094   4.550
 7420TIP3    H122201   7.338   0.076   4.536
 7420TIP3    H222202   7.451   0.167   4.492
 7421TIP3   OH222203   4.072   3.587   2.959
 7421TIP3    H122204   4.104   3.578   3.049
 7421TIP3    H222205   4.008   3.517   2.949
 7422TIP3   OH222206   6.962   0.922   3.099
 7422TIP3    H122207   7.034   0.939   3.161
 7422TIP3    H222208   6.926   0.838   3.127
 7423TIP3   OH222209   0.899   7.455   4.598
 7423TIP3    H122210   0.887   7.364   4.624
 7423TIP3    H222211   0.992   7.461   4.578
 7424TIP3   OH222212   8.241   3.466   0.004
 7424TIP3    H122213   8.216   3.542   0.057
 7424TIP3    H222214   8.330   3.446   0.031
 7425TIP3   OH222215   7.656   6.171   0.806
 7425TIP3    H122216   7.704   6.114   0.746
 7425TIP3    H222217   7.649   6.120   0.887
 7426TIP3   OH222218   7.513   0.361   1.183
 7426TIP3    H122219   7.593   0.402   1.151
 7426TIP3    H222220   7.443   0.407   1.137
 7427TIP3   OH222221   0.163   5.023   0.038
 7427TIP3    H122222   0.096   4.964   0.072
 7427TIP3    H222223   0.243   4.972   0.039
 7428TIP3   OH222224   0.428   6.106   3.077
 7428TIP3    H122225   0.391   6.127   2.991
 7428TIP3    H222226   0.431   6.190   3.123
 7429TIP3   OH222227   3.230   6.399   1.026
 7429TIP3    H122228   3.173   6.391   1.102
 7429TIP3    H222229   3.226   6.313   0.984
 7430TIP3   OH222230   1.373   5.952   1.980
 7430TIP3    H122231   1.410   6.040   1.977
 7430TIP3    H222232   1.327   5.943   1.896
 7431TIP3   OH222233   6.836   7.097   4.203
 7431TIP3    H122234   6.898   7.163   4.171
 7431TIP3    H222235   6.867   7.077   4.291
 7432TIP3   OH222236   0.497   1.563   0.442
 7432TIP3    H122237   0.492   1.642   0.389
 7432TIP3    H222238   0.453   1.586   0.524
 7433TIP3   OH222239   1.818   6.046   1.496
 7433TIP3    H122240   1.840   6.075   1.584
 7433TIP3    H222241   1.726   6.071   1.485
 7434TIP3   OH222242   4.738   7.015   1.641
 7434TIP3    H122243   4.684   6.967   1.704
 7434TIP3    H222244   4.785   7.079   1.693
 7435TIP3   OH222245   1.273   2.221   3.091
 7435TIP3    H122246   1.305   2.149   3.037
 7435TIP3    H222247   1.334   2.224   3.165
 7436TIP3   OH222248   1.731   3.469   3.311
 7436TIP3    H122249   1.646   3.513   3.306
 7436TIP3    H222250   1.718   3.397   3.373
 7437TIP3   OH222251   7.959   0.807   6.662
 7437TIP3    H122252   8.006   0.878   6.705
 7437TIP3    H222253   7.898   0.852   6.602
 7438TIP3   OH222254   3.331   3.214   3.853
 7438TIP3    H122255   3.406   3.273   3.867
 7438TIP3    H222256   3.370   3.127   3.849
 7439TIP3   OH222257   6.292   3.267   4.260
 7439TIP3    H122258   6.373   3.241   4.304
 7439TIP3    H222259   6.252   3.330   4.320
 7440TIP3   OH222260   0.364   2.915   6.434
 7440TIP3    H122261   0.283   2.930   6.482
 7440TIP3    H222262   0.351   2.831   6.391
 7441TIP3   OH222263   2.295   2.350   5.714
 7441TIP3    H122264   2.208   2.312   5.697
 7441TIP3    H222265   2.329   2.372   5.628
 7442TIP3   OH222266   3.927   6.885   0.781
 7442TIP3    H122267   4.017   6.854   0.770
 7442TIP3    H222268   3.880   6.811   0.821
 7443TIP3   OH222269   7.615   7.616   2.396
 7443TIP3    H122270   7.552   7.614   2.325
 7443TIP3    H222271   7.584   7.549   2.457
 7444TIP3   OH222272   8.292   5.705   5.297
 7444TIP3    H122273   8.197   5.701   5.305
 7444TIP3    H222274   8.324   5.693   5.386
 7445TIP3   OH222275   1.457   7.839   4.809
 7445TIP3    H122276   1.399   7.897   4.759
 7445TIP3    H222277   1.488   7.775   4.744
 7446TIP3   OH222278   8.454   4.054   2.278
 7446TIP3    H122279   8.423   3.966   2.297
 7446TIP3    H222280   8.419   4.074   2.191
 7447TIP3   OH222281   1.742   2.468   6.629
 7447TIP3    H122282   1.661   2.432   6.593
 7447TIP3    H222283   1.737   2.449   6.722
 7448TIP3   OH222284   2.761   1.746   2.200
 7448TIP3    H122285   2.819   1.674   2.177
 7448TIP3    H222286   2.784   1.767   2.290
 7449TIP3   OH222287   5.668   6.171   0.125
 7449TIP3    H122288   5.592   6.196   0.072
 7449TIP3    H222289   5.734   6.237   0.103
 7450TIP3   OH222290   6.936   3.146   2.351
 7450TIP3    H122291   7.031   3.154   2.339
 7450TIP3    H222292   6.912   3.071   2.297
 7451TIP3   OH222293   8.298   1.625   5.648
 7451TIP3    H122294   8.280   1.701   5.703
 7451TIP3    H222295   8.325   1.557   5.709
 7452TIP3   OH222296   8.096   1.360   4.072
 7452TIP3    H122297   8.148   1.420   4.125
 7452TIP3    H222298   8.010   1.402   4.065
 7453TIP3   OH222299   0.175   7.853   6.392
 7453TIP3    H122300   0.163   7.836   6.298
 7453TIP3    H222301   0.148   7.944   6.403
 7454TIP3   OH222302   1.094   4.146   4.624
 7454TIP3    H122303   1.090   4.130   4.530
 7454TIP3    H222304   1.160   4.085   4.656
 7455TIP3   OH222305   1.228   7.368   2.247
 7455TIP3    H122306   1.319   7.395   2.253
 7455TIP3    H222307   1.179   7.439   2.290
 7456TIP3   OH222308   2.365   1.341   3.741
 7456TIP3    H122309   2.427   1.362   3.671
 7456TIP3    H222310   2.348   1.248   3.732
 7457TIP3   OH222311   4.437   3.294   0.034
 7457TIP3    H122312   4.510   3.233   0.019
 7457TIP3    H222313   4.418   3.286   0.127
 7458TIP3   OH222314   8.120   6.604   0.898
 7458TIP3    H122315   8.069   6.675   0.936
 7458TIP3    H222316   8.068   6.574   0.824
 7459TIP3   OH222317   2.962   3.195   2.548
 7459TIP3    H122318   2.904   3.270   2.546
 7459TIP3    H222319   2.994   3.187   2.458
 7460TIP3   OH222320   7.519   7.416   2.537
 7460TIP3    H122321   7.555   7.361   2.607
 7460TIP3    H222322   7.429   7.384   2.525
 7461TIP3   OH222323   1.428   6.421   1.391
 7461TIP3    H122324   1.459   6.504   1.427
 7461TIP3    H222325   1.423   6.435   1.296
 7462TIP3   OH222326   3.085   4.806   3.411
 7462TIP3    H122327   3.142   4.847   3.346
 7462TIP3    H222328   3.140   4.795   3.489
 7463TIP3   OH222329   0.557   3.825   3.872
 7463TIP3    H122330   0.512   3.837   3.955
 7463TIP3    H222331   0.547   3.732   3.852
 7464TIP3   OH222332   1.413   0.056   3.678
 7464TIP3    H122333   1.456   0.122   3.623
 7464TIP3    H222334   1.321   0.059   3.653
 7465TIP3   OH222335   6.133   0.459   3.184
 7465TIP3    H122336   6.102   0.547   3.159
 7465TIP3    H222337   6.136   0.461   3.280
 7466TIP3   OH222338   4.431   4.619   2.799
 7466TIP3    H122339   4.523   4.597   2.813
 7466TIP3    H222340   4.384   4.563   2.861
 7467TIP3   OH222341   2.756   1.095   6.552
 7467TIP3    H122342   2.741   1.144   6.633
 7467TIP3    H222343   2.755   1.003   6.580
 7468TIP3   OH222344   0.722   1.168   2.952
 7468TIP3    H122345   0.721   1.095   2.889
 7468TIP3    H222346   0.794   1.146   3.012
 7469TIP3   OH222347   6.956   1.565   1.453
 7469TIP3    H122348   7.036   1.544   1.406
 7469TIP3    H222349   6.947   1.660   1.443
 7470TIP3   OH222350   2.043   1.786   6.607
 7470TIP3    H122351   2.020   1.778   6.515
 7470TIP3    H222352   2.023   1.878   6.629
 7471TIP3   OH222353   7.333   2.722   2.401
 7471TIP3    H122354   7.361   2.631   2.414
 7471TIP3    H222355   7.408   2.774   2.427
 7472TIP3   OH222356   8.175   3.980   3.447
 7472TIP3    H122357   8.268   3.994   3.429
 7472TIP3    H222358   8.148   3.914   3.383
 7473TIP3   OH222359   0.163   2.828   5.008
 7473TIP3    H122360   0.229   2.766   5.040
 7473TIP3    H222361   0.083   2.775   5.000
 7474TIP3   OH222362   1.770   7.504   4.943
 7474TIP3    H122363   1.743   7.489   4.852
 7474TIP3    H222364   1.811   7.421   4.969
 7475TIP3   OH222365   0.153   2.849   1.372
 7475TIP3    H122366   0.200   2.792   1.433
 7475TIP3    H222367   0.109   2.788   1.312
 7476TIP3   OH222368   3.339   7.380   0.271
 7476TIP3    H122369   3.262   7.409   0.320
 7476TIP3    H222370   3.331   7.285   0.266
 7477TIP3   OH222371   4.791   4.556   4.202
 7477TIP3    H122372   4.789   4.570   4.296
 7477TIP3    H222373   4.701   4.567   4.174
 7478TIP3   OH222374   0.883   3.493   2.728
 7478TIP3    H122375   0.795   3.464   2.703
 7478TIP3    H222376   0.905   3.441   2.804
 7479TIP3   OH222377   7.588   2.805   2.031
 7479TIP3    H122378   7.662   2.792   1.972
 7479TIP3    H222379   7.525   2.856   1.979
 7480TIP3   OH222380   8.301   6.104   2.028
 7480TIP3    H122381   8.242   6.031   2.049
 7480TIP3    H222382   8.301   6.158   2.107
 7481TIP3   OH222383   3.173   0.487   4.705
 7481TIP3    H122384   3.160   0.401   4.744
 7481TIP3    H222385   3.129   0.548   4.765
 7482TIP3   OH222386   1.300   3.161   2.110
 7482TIP3    H122387   1.393   3.174   2.096
 7482TIP3    H222388   1.280   3.079   2.065
 7483TIP3   OH222389   6.065   5.757   2.666
 7483TIP3    H122390   6.072   5.692   2.736
 7483TIP3    H222391   5.976   5.792   2.674
 7484TIP3   OH222392   7.035   6.109   4.532
 7484TIP3    H122393   7.125   6.100   4.502
 7484TIP3    H222394   6.981   6.093   4.454
 7485TIP3   OH222395   4.099   6.810   1.066
 7485TIP3    H122396   4.125   6.897   1.035
 7485TIP3    H222397   4.150   6.749   1.013
 7486TIP3   OH222398   1.045   0.900   5.701
 7486TIP3    H122399   0.984   0.876   5.631
 7486TIP3    H222400   1.085   0.981   5.670
 7487TIP3   OH222401   5.520   5.602   4.174
 7487TIP3    H122402   5.518   5.693   4.145
 7487TIP3    H222403   5.533   5.551   4.094
 7488TIP3   OH222404   1.660   3.469   6.359
 7488TIP3    H122405   1.681   3.421   6.279
 7488TIP3    H222406   1.645   3.559   6.330
 7489TIP3   OH222407   6.792   0.667   4.518
 7489TIP3    H122408   6.854   0.616   4.570
 7489TIP3    H222409   6.826   0.664   4.429
 7490TIP3   OH222410   7.808   4.154   1.108
 7490TIP3    H122411   7.836   4.226   1.164
 7490TIP3    H222412   7.854   4.078   1.143
 7491TIP3   OH222413  -0.060   2.088   1.397
 7491TIP3    H122414  -0.048   2.001   1.360
 7491TIP3    H222415  -0.011   2.146   1.339
 7492TIP3   OH222416   5.142   2.736   5.007
 7492TIP3    H122417   5.179   2.671   5.067
 7492TIP3    H222418   5.209   2.804   5.002
 7493TIP3   OH222419   3.158   2.680   3.158
 7493TIP3    H122420   3.183   2.605   3.103
 7493TIP3    H222421   3.158   2.646   3.247
 7494TIP3   OH222422   8.137   5.500   4.739
 7494TIP3    H122423   8.203   5.545   4.792
 7494TIP3    H222424   8.124   5.416   4.783
 7495TIP3   OH222425   3.800   3.021   0.287
 7495TIP3    H122426   3.772   3.112   0.293
 7495TIP3    H222427   3.753   2.985   0.212
 7496TIP3   OH222428   0.779   4.685   3.847
 7496TIP3    H122429   0.832   4.670   3.769
 7496TIP3    H222430   0.693   4.711   3.815
 7497TIP3   OH222431   5.473   2.331   2.741
 7497TIP3    H122432   5.447   2.387   2.668
 7497TIP3    H222433   5.400   2.270   2.751
 7498TIP3   OH222434   6.906   6.024   0.279
 7498TIP3    H122435   6.963   6.055   0.350
 7498TIP3    H222436   6.818   6.053   0.305
 7499TIP3   OH222437   2.572   5.836   6.397
 7499TIP3    H122438   2.579   5.745   6.370
 7499TIP3    H222439   2.491   5.867   6.357
 7500TIP3   OH222440   1.856   3.487   4.298
 7500TIP3    H122441   1.872   3.423   4.367
 7500TIP3    H222442   1.775   3.531   4.323
 7501TIP3   OH222443   2.748   2.554   3.180
 7501TIP3    H122444   2.807   2.500   3.126
 7501TIP3    H222445   2.797   2.635   3.195
 7502TIP3   OH222446   7.721   7.526   4.198
 7502TIP3    H122447   7.718   7.523   4.293
 7502TIP3    H222448   7.666   7.601   4.175
 7503TIP3   OH222449   2.073   4.697   0.012
 7503TIP3    H122450   2.166   4.685   0.031
 7503TIP3    H222451   2.052   4.627  -0.050
 7504TIP3   OH222452   2.209   7.133   6.789
 7504TIP3    H122453   2.122   7.144   6.828
 7504TIP3    H222454   2.226   7.039   6.796
 7505TIP3   OH222455   7.257   7.319   1.433
 7505TIP3    H122456   7.253   7.273   1.516
 7505TIP3    H222457   7.336   7.287   1.391
 7506TIP3   OH222458   0.083   5.586   6.879
 7506TIP3    H122459   0.045   5.582   6.791
 7506TIP3    H222460   0.040   5.661   6.921
 7507TIP3   OH222461   6.153   2.968   5.790
 7507TIP3    H122462   6.068   3.010   5.809
 7507TIP3    H222463   6.178   2.927   5.873
 7508TIP3   OH222464   0.140   7.688   4.487
 7508TIP3    H122465   0.105   7.627   4.421
 7508TIP3    H222466   0.210   7.734   4.441
 7509TIP3   OH222467   5.008   2.858   0.006
 7509TIP3    H122468   5.046   2.941   0.035
 7509TIP3    H222469   4.918   2.861   0.037
 7510TIP3   OH222470   1.901   3.181   0.716
 7510TIP3    H122471   1.902   3.175   0.812
 7510TIP3    H222472   1.938   3.268   0.697
 7511TIP3   OH222473   6.378   5.892   5.365
 7511TIP3    H122474   6.363   5.923   5.454
 7511TIP3    H222475   6.321   5.947   5.311
 7512TIP3   OH222476   4.379   2.989   5.841
 7512TIP3    H122477   4.329   3.062   5.805
 7512TIP3    H222478   4.429   2.955   5.766
 7513TIP3   OH222479   3.430   2.550   6.501
 7513TIP3    H122480   3.495   2.590   6.558
 7513TIP3    H222481   3.420   2.612   6.429
 7514TIP3   OH222482   5.712   1.425   4.006
 7514TIP3    H122483   5.789   1.380   3.973
 7514TIP3    H222484   5.745   1.507   4.041
 7515TIP3   OH222485   3.430   4.731   0.067
 7515TIP3    H122486   3.336   4.722   0.049
 7515TIP3    H222487   3.452   4.819   0.036
 7516TIP3   OH222488   7.877   7.301   4.074
 7516TIP3    H122489   7.817   7.371   4.098
 7516TIP3    H222490   7.886   7.308   3.979
 7517TIP3   OH222491   2.895   1.762   5.414
 7517TIP3    H122492   2.847   1.679   5.410
 7517TIP3    H222493   2.918   1.771   5.506
 7518TIP3   OH222494   6.717   0.291   3.811
 7518TIP3    H122495   6.676   0.358   3.756
 7518TIP3    H222496   6.781   0.339   3.864
 7519TIP3   OH222497   0.478   3.608   1.518
 7519TIP3    H122498   0.489   3.527   1.469
 7519TIP3    H222499   0.384   3.626   1.513
 7520TIP3   OH222500   6.109   2.380   6.011
 7520TIP3    H122501   6.185   2.340   5.969
 7520TIP3    H222502   6.117   2.474   5.992
 7521TIP3   OH222503   0.154   6.449   5.683
 7521TIP3    H122504   0.234   6.404   5.654
 7521TIP3    H222505   0.087   6.381   5.681
 7522TIP3   OH222506   4.165   5.912   2.214
 7522TIP3    H122507   4.167   5.830   2.165
 7522TIP3    H222508   4.108   5.969   2.162
 7523TIP3   OH222509   8.177   7.055   0.507
 7523TIP3    H122510   8.245   7.097   0.455
 7523TIP3    H222511   8.101   7.051   0.449
 7524TIP3   OH222512   5.125   5.602   6.083
 7524TIP3    H122513   5.037   5.595   6.045
 7524TIP3    H222514   5.137   5.695   6.100
 7525TIP3   OH222515   5.230   3.620   0.933
 7525TIP3    H122516   5.190   3.591   1.015
 7525TIP3    H222517   5.286   3.693   0.958
 7526TIP3   OH222518   2.690   3.745   2.547
 7526TIP3    H122519   2.650   3.747   2.634
 7526TIP3    H222520   2.757   3.813   2.549
 7527TIP3   OH222521   4.078   3.627   3.922
 7527TIP3    H122522   4.136   3.550   3.919
 7527TIP3    H222523   4.098   3.675   3.842
 7528TIP3   OH222524   0.252   2.168   3.948
 7528TIP3    H122525   0.248   2.200   3.858
 7528TIP3    H222526   0.202   2.086   3.947
 7529TIP3   OH222527   7.054   4.564   5.580
 7529TIP3    H122528   6.978   4.566   5.523
 7529TIP3    H222529   7.025   4.514   5.657
 7530TIP3   OH222530   2.739   1.804   0.075
 7530TIP3    H122531   2.689   1.726   0.053
 7530TIP3    H222532   2.727   1.863   0.000
 7531TIP3   OH222533   0.961   3.371   3.585
 7531TIP3    H122534   1.046   3.393   3.624
 7531TIP3    H222535   0.961   3.416   3.501
 7532TIP3   OH222536   8.162   7.046   5.641
 7532TIP3    H122537   8.072   7.017   5.655
 7532TIP3    H222538   8.184   7.094   5.720
 7533TIP3   OH222539   7.230   5.176   3.832
 7533TIP3    H122540   7.204   5.254   3.880
 7533TIP3    H222541   7.171   5.173   3.756
 7534TIP3   OH222542   1.288   2.326   1.488
 7534TIP3    H122543   1.323   2.413   1.502
 7534TIP3    H222544   1.194   2.334   1.504
 7535TIP3   OH222545   2.346   3.051   3.388
 7535TIP3    H122546   2.429   3.086   3.421
 7535TIP3    H222547   2.284   3.123   3.399
 7536TIP3   OH222548   3.598   3.551   4.816
 7536TIP3    H122549   3.680   3.558   4.863
 7536TIP3    H222550   3.598   3.462   4.780
 7537TIP3   OH222551   8.287   7.374   1.481
 7537TIP3    H122552   8.380   7.358   1.496
 7537TIP3    H222553   8.242   7.312   1.539
 7538TIP3   OH222554   3.433   7.171   1.234
 7538TIP3    H122555   3.399   7.082   1.244
 7538TIP3    H222556   3.449   7.201   1.323
 7539TIP3   OH222557   2.577   2.044   3.546
 7539TIP3    H122558   2.559   2.137   3.559
 7539TIP3    H222559   2.504   2.013   3.492
 7540TIP3   OH222560   2.780   0.867   0.661
 7540TIP3    H122561   2.730   0.893   0.583
 7540TIP3    H222562   2.808   0.949   0.700
 7541TIP3   OH222563   2.381   5.116   2.358
 7541TIP3    H122564   2.427   5.077   2.283
 7541TIP3    H222565   2.298   5.148   2.321
 7542TIP3   OH222566   4.440   6.620   3.125
 7542TIP3    H122567   4.401   6.629   3.212
 7542TIP3    H222568   4.518   6.676   3.128
 7543TIP3   OH222569   4.645   3.497   0.148
 7543TIP3    H122570   4.628   3.493   0.242
 7543TIP3    H222571   4.584   3.433   0.110
 7544TIP3   OH222572   3.208   6.228   4.856
 7544TIP3    H122573   3.116   6.245   4.833
 7544TIP3    H222574   3.229   6.294   4.921
 7545TIP3   OH222575   4.019   6.631   2.895
 7545TIP3    H122576   4.094   6.681   2.861
 7545TIP3    H222577   3.964   6.697   2.937
 7546TIP3   OH222578   7.447   0.234   3.038
 7546TIP3    H122579   7.402   0.205   2.959
 7546TIP3    H222580   7.389   0.302   3.074
 7547TIP3   OH222581   4.467   2.780   6.010
 7547TIP3    H122582   4.423   2.695   6.001
 7547TIP3    H222583   4.410   2.841   5.962
 7548TIP3   OH222584   0.705   0.664   1.842
 7548TIP3    H122585   0.769   0.729   1.871
 7548TIP3    H222586   0.757   0.600   1.794
 7549TIP3   OH222587   3.968   7.619   1.080
 7549TIP3    H122588   3.885   7.584   1.047
 7549TIP3    H222589   4.017   7.542   1.109
 7550TIP3   OH222590   3.209   1.501   2.516
 7550TIP3    H122591   3.127   1.536   2.484
 7550TIP3    H222592   3.261   1.578   2.541
 7551TIP3   OH222593   3.349   6.788   2.370
 7551TIP3    H122594   3.399   6.783   2.452
 7551TIP3    H222595   3.263   6.821   2.397
 7552TIP3   OH222596   7.454   6.617   2.843
 7552TIP3    H122597   7.538   6.653   2.814
 7552TIP3    H222598   7.465   6.602   2.937
 7553TIP3   OH222599   3.391   7.901   6.453
 7553TIP3    H122600   3.425   7.833   6.511
 7553TIP3    H222601   3.303   7.872   6.431
 7554TIP3   OH222602   0.276   4.228   3.235
 7554TIP3    H122603   0.245   4.140   3.212
 7554TIP3    H222604   0.370   4.226   3.220
 7555TIP3   OH222605   2.859   5.419   3.177
 7555TIP3    H122606   2.938   5.441   3.127
 7555TIP3    H222607   2.884   5.430   3.268
 7556TIP3   OH222608   5.619   5.287   4.946
 7556TIP3    H122609   5.572   5.204   4.931
 7556TIP3    H222610   5.708   5.270   4.915
 7557TIP3   OH222611   5.098   1.683   2.168
 7557TIP3    H122612   5.100   1.777   2.149
 7557TIP3    H222613   5.043   1.647   2.099
 7558TIP3   OH222614   1.352   3.651   1.743
 7558TIP3    H122615   1.338   3.664   1.649
 7558TIP3    H222616   1.343   3.557   1.756
 7559TIP3   OH222617   3.641   7.571   1.141
 7559TIP3    H122618   3.688   7.563   1.224
 7559TIP3    H222619   3.567   7.512   1.149
 7560TIP3   OH222620   7.780   6.134   3.805
 7560TIP3    H122621   7.760   6.188   3.881
 7560TIP3    H222622   7.763   6.044   3.835
 7561TIP3   OH222623   2.810   0.841   5.035
 7561TIP3    H122624   2.892   0.792   5.027
 7561TIP3    H222625   2.748   0.793   4.981
 7562TIP3   OH222626   0.256   4.947   0.363
 7562TIP3    H122627   0.291   4.919   0.448
 7562TIP3    H222628   0.280   4.877   0.303
 7563TIP3   OH222629   7.168   4.381   3.218
 7563TIP3    H122630   7.252   4.427   3.211
 7563TIP3    H222631   7.139   4.372   3.127
 7564TIP3   OH222632   4.273   4.023   3.578
 7564TIP3    H122633   4.319   4.106   3.566
 7564TIP3    H222634   4.338   3.966   3.620
 7565TIP3   OH222635   4.973   5.236   4.325
 7565TIP3    H122636   5.062   5.254   4.355
 7565TIP3    H222637   4.984   5.179   4.249
 7566TIP3   OH222638   7.950   2.781   3.472
 7566TIP3    H122639   7.858   2.798   3.494
 7566TIP3    H222640   7.965   2.691   3.502
 7567TIP3   OH222641   8.028   0.647   5.862
 7567TIP3    H122642   7.947   0.697   5.877
 7567TIP3    H222643   8.070   0.691   5.788
 7568TIP3   OH222644   8.008   7.895   4.866
 7568TIP3    H122645   7.952   7.920   4.793
 7568TIP3    H222646   7.965   7.933   4.943
 7569TIP3   OH222647   0.787   5.103   0.415
 7569TIP3    H122648   0.795   5.031   0.478
 7569TIP3    H222649   0.876   5.112   0.380
 7570TIP3   OH222650   6.851   3.442   5.858
 7570TIP3    H122651   6.866   3.364   5.805
 7570TIP3    H222652   6.906   3.429   5.935
 7571TIP3   OH222653   5.334   2.868   1.862
 7571TIP3    H122654   5.376   2.942   1.905
 7571TIP3    H222655   5.369   2.868   1.773
 7572TIP3   OH222656   6.792   0.380   5.625
 7572TIP3    H122657   6.877   0.421   5.609
 7572TIP3    H222658   6.776   0.326   5.548
 7573TIP3   OH222659   7.418   5.629   0.210
 7573TIP3    H122660   7.441   5.689   0.282
 7573TIP3    H222661   7.347   5.675   0.163
 7574TIP3   OH222662   7.361   1.245   0.792
 7574TIP3    H122663   7.357   1.330   0.749
 7574TIP3    H222664   7.280   1.202   0.766
 7575TIP3   OH222665   4.269   5.096   4.531
 7575TIP3    H122666   4.255   5.096   4.436
 7575TIP3    H222667   4.183   5.116   4.568
 7576TIP3   OH222668   2.889   5.860   5.278
 7576TIP3    H122669   2.814   5.801   5.280
 7576TIP3    H222670   2.949   5.820   5.214
 7577TIP3   OH222671   2.677   5.484   2.720
 7577TIP3    H122672   2.755   5.520   2.763
 7577TIP3    H222673   2.652   5.552   2.657
 7578TIP3   OH222674   2.804   1.433   2.051
 7578TIP3    H122675   2.854   1.465   2.126
 7578TIP3    H222676   2.844   1.348   2.031
 7579TIP3   OH222677   0.430   1.147   0.442
 7579TIP3    H122678   0.480   1.212   0.392
 7579TIP3    H222679   0.492   1.115   0.508
 7580TIP3   OH222680   2.249   6.116   2.323
 7580TIP3    H122681   2.167   6.107   2.275
 7580TIP3    H222682   2.288   6.198   2.290
 7581TIP3   OH222683   6.348   3.290   1.574
 7581TIP3    H122684   6.301   3.337   1.505
 7581TIP3    H222685   6.405   3.229   1.527
 7582TIP3   OH222686   1.308   2.644   0.978
 7582TIP3    H122687   1.346   2.558   0.958
 7582TIP3    H222688   1.381   2.697   1.007
 7583TIP3   OH222689   0.869   0.428   5.549
 7583TIP3    H122690   0.896   0.336   5.555
 7583TIP3    H222691   0.803   0.439   5.617
 7584TIP3   OH222692   3.077   5.954   1.449
 7584TIP3    H122693   3.008   5.929   1.510
 7584TIP3    H222694   3.031   5.986   1.371
 7585TIP3   OH222695   8.065   2.730   0.673
 7585TIP3    H122696   8.157   2.705   0.657
 7585TIP3    H222697   8.061   2.822   0.647
 7586TIP3   OH222698   8.025   0.341   5.147
 7586TIP3    H122699   7.996   0.268   5.093
 7586TIP3    H222700   8.082   0.300   5.213
 7587TIP3   OH222701   7.276   3.714   0.700
 7587TIP3    H122702   7.216   3.728   0.772
 7587TIP3    H222703   7.226   3.665   0.635
 7588TIP3   OH222704   4.436   5.894   3.382
 7588TIP3    H122705   4.530   5.914   3.373
 7588TIP3    H222706   4.396   5.929   3.303
 7589TIP3   OH222707   5.295   4.267   3.560
 7589TIP3    H122708   5.306   4.181   3.600
 7589TIP3    H222709   5.224   4.308   3.611
 7590TIP3   OH222710   0.243   1.982   2.095
 7590TIP3    H122711   0.264   2.014   2.183
 7590TIP3    H222712   0.255   1.887   2.100
 7591TIP3   OH222713   5.716   5.615   3.729
 7591TIP3    H122714   5.783   5.586   3.667
 7591TIP3    H222715   5.677   5.692   3.689
 7592TIP3   OH222716   1.546   0.720   0.182
 7592TIP3    H122717   1.601   0.704   0.259
 7592TIP3    H222718   1.598   0.779   0.127
 7593TIP3   OH222719   7.105   2.531   6.333
 7593TIP3    H122720   7.092   2.542   6.239
 7593TIP3    H222721   7.198   2.549   6.347
 7594TIP3   OH222722   5.198   7.348   0.232
 7594TIP3    H122723   5.109   7.361   0.198
 7594TIP3    H222724   5.250   7.414   0.186
 7595TIP3   OH222725   7.290   5.484   3.874
 7595TIP3    H122726   7.243   5.565   3.897
 7595TIP3    H222727   7.317   5.447   3.958
 7596TIP3   OH222728   8.128   7.150   3.377
 7596TIP3    H122729   8.145   7.234   3.334
 7596TIP3    H222730   8.189   7.089   3.336
 7597TIP3   OH222731   7.752   7.765   6.529
 7597TIP3    H122732   7.813   7.696   6.505
 7597TIP3    H222733   7.781   7.842   6.479
 7598TIP3   OH222734   5.689   5.332   1.862
 7598TIP3    H122735   5.627   5.358   1.794
 7598TIP3    H222736   5.772   5.319   1.815
 7599TIP3   OH222737   5.613   6.407   0.330
 7599TIP3    H122738   5.547   6.455   0.280
 7599TIP3    H222739   5.621   6.323   0.285
 7600TIP3   OH222740   0.759   6.135   5.011
 7600TIP3    H122741   0.663   6.138   5.007
 7600TIP3    H222742   0.781   6.166   5.099
 7601TIP3   OH222743   7.434   4.802   6.221
 7601TIP3    H122744   7.512   4.838   6.179
 7601TIP3    H222745   7.368   4.872   6.214
 7602TIP3   OH222746   8.387   6.702   6.202
 7602TIP3    H122747   8.336   6.756   6.263
 7602TIP3    H222748   8.334   6.623   6.191
 7603TIP3   OH222749   5.195   1.306   5.049
 7603TIP3    H122750   5.135   1.374   5.079
 7603TIP3    H222751   5.276   1.353   5.030
 7604TIP3   OH222752   6.652   2.910   5.894
 7604TIP3    H122753   6.637   3.003   5.912
 7604TIP3    H222754   6.732   2.909   5.842
 7605TIP3   OH222755   2.757   3.382   1.600
 7605TIP3    H122756   2.788   3.297   1.570
 7605TIP3    H222757   2.758   3.437   1.522
 7606TIP3   OH222758   6.550   4.820   1.118
 7606TIP3    H122759   6.539   4.725   1.117
 7606TIP3    H222760   6.538   4.846   1.026
 7607TIP3   OH222761   4.155   4.741   4.299
 7607TIP3    H122762   4.208   4.663   4.314
 7607TIP3    H222763   4.213   4.803   4.256
 7608TIP3   OH222764   0.721   6.461   4.477
 7608TIP3    H122765   0.753   6.387   4.528
 7608TIP3    H222766   0.679   6.518   4.542
 7609TIP3   OH222767   5.362   5.152   4.875
 7609TIP3    H122768   5.270   5.168   4.854
 7609TIP3    H222769   5.405   5.146   4.790
 7610TIP3   OH222770   0.401   6.964   1.210
 7610TIP3    H122771   0.404   7.046   1.160
 7610TIP3    H222772   0.431   6.987   1.297
 7611TIP3   OH222773   7.570   6.605   5.290
 7611TIP3    H122774   7.592   6.563   5.373
 7611TIP3    H222775   7.570   6.534   5.226
 7612TIP3   OH222776   5.843   5.376   0.831
 7612TIP3    H122777   5.882   5.311   0.889
 7612TIP3    H222778   5.748   5.366   0.845
 7613TIP3   OH222779   7.818   6.146   6.443
 7613TIP3    H122780   7.849   6.203   6.513
 7613TIP3    H222781   7.783   6.069   6.488
 7614TIP3   OH222782   5.625   1.384   1.407
 7614TIP3    H122783   5.598   1.460   1.355
 7614TIP3    H222784   5.603   1.309   1.352
 7615TIP3   OH222785   3.452   6.595   0.571
 7615TIP3    H122786   3.459   6.500   0.581
 7615TIP3    H222787   3.484   6.630   0.654
 7616TIP3   OH222788   1.920   2.339   6.046
 7616TIP3    H122789   1.923   2.414   6.105
 7616TIP3    H222790   1.857   2.364   5.978
 7617TIP3   OH222791   4.648   7.459   2.062
 7617TIP3    H122792   4.599   7.450   2.144
 7617TIP3    H222793   4.732   7.415   2.079
 7618TIP3   OH222794   6.888   3.224   5.688
 7618TIP3    H122795   6.808   3.172   5.685
 7618TIP3    H222796   6.959   3.160   5.679
 7619TIP3   OH222797   2.247   2.464   2.716
 7619TIP3    H122798   2.220   2.425   2.633
 7619TIP3    H222799   2.280   2.390   2.767
 7620TIP3   OH222800   6.121   2.789   0.596
 7620TIP3    H122801   6.169   2.870   0.617
 7620TIP3    H222802   6.118   2.787   0.501
 7621TIP3   OH222803   6.574   1.966   5.061
 7621TIP3    H122804   6.486   1.978   5.025
 7621TIP3    H222805   6.632   2.000   4.993
 7622TIP3   OH222806   3.826   6.909   6.201
 7622TIP3    H122807   3.789   6.824   6.225
 7622TIP3    H222808   3.755   6.971   6.219
 7623TIP3   OH222809   6.214   7.813   3.657
 7623TIP3    H122810   6.156   7.867   3.709
 7623TIP3    H222811   6.272   7.875   3.613
 7624TIP3   OH222812   2.323   6.569   3.946
 7624TIP3    H122813   2.308   6.477   3.966
 7624TIP3    H222814   2.415   6.585   3.967
 7625TIP3   OH222815   1.420   7.200   5.405
 7625TIP3    H122816   1.365   7.262   5.454
 7625TIP3    H222817   1.377   7.192   5.320
 7626TIP3   OH222818   7.460   0.920   5.610
 7626TIP3    H122819   7.404   0.902   5.685
 7626TIP3    H222820   7.473   1.015   5.612
 7627TIP3   OH222821   2.342   6.577   0.828
 7627TIP3    H122822   2.332   6.505   0.891
 7627TIP3    H222823   2.262   6.575   0.777
 7628TIP3   OH222824   5.760   6.965   5.266
 7628TIP3    H122825   5.853   6.972   5.244
 7628TIP3    H222826   5.715   6.961   5.182
 7629TIP3   OH222827   0.493   7.737   6.253
 7629TIP3    H122828   0.439   7.658   6.260
 7629TIP3    H222829   0.444   7.794   6.193
 7630TIP3   OH222830   2.862   3.622   4.949
 7630TIP3    H122831   2.781   3.660   4.917
 7630TIP3    H222832   2.911   3.696   4.985
 7631TIP3   OH222833   1.616   5.631   5.060
 7631TIP3    H122834   1.598   5.701   4.998
 7631TIP3    H222835   1.690   5.663   5.111
 7632TIP3   OH222836   3.306   1.002   3.136
 7632TIP3    H122837   3.379   0.986   3.076
 7632TIP3    H222838   3.282   1.093   3.122
 7633TIP3   OH222839   1.463   7.494   1.047
 7633TIP3    H122840   1.439   7.533   0.962
 7633TIP3    H222841   1.543   7.446   1.029
 7634TIP3   OH222842   0.484   2.492   3.216
 7634TIP3    H122843   0.519   2.472   3.129
 7634TIP3    H222844   0.431   2.415   3.239
 7635TIP3   OH222845   7.720   0.225   2.880
 7635TIP3    H122846   7.749   0.315   2.898
 7635TIP3    H222847   7.671   0.200   2.958
 7636TIP3   OH222848   3.854   3.739   4.907
 7636TIP3    H122849   3.883   3.648   4.899
 7636TIP3    H222850   3.839   3.768   4.817
 7637TIP3   OH222851   6.499   7.673   6.333
 7637TIP3    H122852   6.406   7.649   6.326
 7637TIP3    H222853   6.514   7.733   6.260
 7638TIP3   OH222854   7.962   6.012   2.402
 7638TIP3    H122855   7.896   6.042   2.340
 7638TIP3    H222856   7.922   5.936   2.445
 7639TIP3   OH222857   3.081   4.643   2.738
 7639TIP3    H122858   3.109   4.651   2.647
 7639TIP3    H222859   3.047   4.554   2.745
 7640TIP3   OH222860   3.633   0.402   0.540
 7640TIP3    H122861   3.595   0.351   0.468
 7640TIP3    H222862   3.697   0.459   0.498
 7641TIP3   OH222863   5.259   6.483   6.030
 7641TIP3    H122864   5.179   6.430   6.026
 7641TIP3    H222865   5.240   6.550   6.095
 7642TIP3   OH222866   3.236   6.441   5.032
 7642TIP3    H122867   3.277   6.385   5.098
 7642TIP3    H222868   3.189   6.508   5.082
 7643TIP3   OH222869   3.023   4.027   6.150
 7643TIP3    H122870   3.066   4.100   6.195
 7643TIP3    H222871   3.028   4.050   6.057
 7644TIP3   OH222872   5.147   1.334   2.824
 7644TIP3    H122873   5.094   1.301   2.897
 7644TIP3    H222874   5.206   1.261   2.803
 7645TIP3   OH222875   2.439   4.883   3.124
 7645TIP3    H122876   2.469   4.964   3.082
 7645TIP3    H222877   2.496   4.815   3.089
 7646TIP3   OH222878   3.583   0.306   0.291
 7646TIP3    H122879   3.502   0.276   0.248
 7646TIP3    H222880   3.608   0.385   0.243
 7647TIP3   OH222881   7.130   4.328   5.177
 7647TIP3    H122882   7.106   4.410   5.220
 7647TIP3    H222883   7.148   4.353   5.087
 7648TIP3   OH222884   2.385   2.552   3.927
 7648TIP3    H122885   2.413   2.593   3.845
 7648TIP3    H222886   2.292   2.534   3.914
 7649TIP3   OH222887   3.944   3.855   0.626
 7649TIP3    H122888   3.850   3.846   0.609
 7649TIP3    H222889   3.949   3.922   0.694
 7650TIP3   OH222890   7.943   6.445   1.829
 7650TIP3    H122891   8.014   6.451   1.893
 7650TIP3    H222892   7.981   6.477   1.748
 7651TIP3   OH222893   6.590   6.607   4.231
 7651TIP3    H122894   6.495   6.606   4.229
 7651TIP3    H222895   6.614   6.544   4.299
 7652TIP3   OH222896   7.977   1.698   3.400
 7652TIP3    H122897   8.036   1.635   3.359
 7652TIP3    H222898   7.975   1.772   3.339
 7653TIP3   OH222899   7.696   3.926   2.157
 7653TIP3    H122900   7.766   3.975   2.113
 7653TIP3    H222901   7.635   3.994   2.186
 7654TIP3   OH222902   2.713   0.712   3.398
 7654TIP3    H122903   2.676   0.681   3.481
 7654TIP3    H222904   2.640   0.751   3.352
 7655TIP3   OH222905   3.266   1.260   3.052
 7655TIP3    H122906   3.200   1.309   3.004
 7655TIP3    H222907   3.348   1.278   3.007
 7656TIP3   OH222908   3.294   4.467   1.352
 7656TIP3    H122909   3.357   4.522   1.398
 7656TIP3    H222910   3.229   4.443   1.418
 7657TIP3   OH222911   4.108   6.379   3.040
 7657TIP3    H122912   4.184   6.430   3.070
 7657TIP3    H222913   4.113   6.384   2.945
 7658TIP3   OH222914   5.158   1.059   3.060
 7658TIP3    H122915   5.212   1.138   3.066
 7658TIP3    H222916   5.181   1.007   3.137
 7659TIP3   OH222917   0.552   6.304   1.709
 7659TIP3    H122918   0.573   6.249   1.634
 7659TIP3    H222919   0.557   6.393   1.676
 7660TIP3   OH222920   0.205   3.577   5.422
 7660TIP3    H122921   0.189   3.499   5.369
 7660TIP3    H222922   0.255   3.635   5.365
 7661TIP3   OH222923   1.409   3.554   5.482
 7661TIP3    H122924   1.335   3.522   5.534
 7661TIP3    H222925   1.395   3.518   5.395
 7662TIP3   OH222926   5.190   4.780   5.949
 7662TIP3    H122927   5.111   4.738   5.982
 7662TIP3    H222928   5.258   4.712   5.952
 7663TIP3   OH222929   6.271   5.075   1.953
 7663TIP3    H122930   6.353   5.033   1.979
 7663TIP3    H222931   6.257   5.143   2.019
 7664TIP3   OH222932   8.369   2.769   1.721
 7664TIP3    H122933   8.450   2.730   1.753
 7664TIP3    H222934   8.318   2.694   1.688
 7665TIP3   OH222935   4.139   5.782   1.747
 7665TIP3    H122936   4.078   5.856   1.746
 7665TIP3    H222937   4.182   5.785   1.662
 7666TIP3   OH222938   1.671   2.683   5.852
 7666TIP3    H122939   1.663   2.774   5.823
 7666TIP3    H222940   1.581   2.650   5.853
 7667TIP3   OH222941   2.227   4.158   2.862
 7667TIP3    H122942   2.233   4.220   2.935
 7667TIP3    H222943   2.144   4.112   2.875
 7668TIP3   OH222944   1.597   3.589   4.397
 7668TIP3    H122945   1.651   3.662   4.428
 7668TIP3    H222946   1.591   3.531   4.473
 7669TIP3   OH222947   2.910   2.902   6.181
 7669TIP3    H122948   2.823   2.892   6.219
 7669TIP3    H222949   2.970   2.896   6.255
 7670TIP3   OH222950   0.604   1.829   2.659
 7670TIP3    H122951   0.693   1.852   2.687
 7670TIP3    H222952   0.608   1.833   2.563
 7671TIP3   OH222953   6.226   0.606   5.981
 7671TIP3    H122954   6.132   0.602   5.966
 7671TIP3    H222955   6.234   0.652   6.065
 7672TIP3   OH222956   3.989   2.056   0.622
 7672TIP3    H122957   4.004   2.111   0.545
 7672TIP3    H222958   4.065   2.073   0.678
 7673TIP3   OH222959   4.506   0.993   4.471
 7673TIP3    H122960   4.429   1.024   4.518
 7673TIP3    H222961   4.555   1.073   4.451
 7674TIP3   OH222962   2.375   1.931   2.155
 7674TIP3    H122963   2.323   1.887   2.088
 7674TIP3    H222964   2.419   1.859   2.202
 7675TIP3   OH222965   7.840   4.350   1.714
 7675TIP3    H122966   7.934   4.332   1.722
 7675TIP3    H222967   7.798   4.271   1.747
 7676TIP3   OH222968   7.986   5.278   4.860
 7676TIP3    H122969   8.019   5.195   4.825
 7676TIP3    H222970   7.940   5.254   4.941
 7677TIP3   OH222971   5.986   4.641   5.692
 7677TIP3    H122972   6.034   4.667   5.614
 7677TIP3    H222973   6.019   4.554   5.714
 7678TIP3   OH222974   5.898   2.243   0.411
 7678TIP3    H122975   5.822   2.244   0.352
 7678TIP3    H222976   5.974   2.244   0.353
 7679TIP3   OH222977   8.223   6.078   0.235
 7679TIP3    H122978   8.203   6.171   0.240
 7679TIP3    H222979   8.300   6.067   0.292
 7680TIP3   OH222980   8.098   1.449   6.035
 7680TIP3    H122981   8.003   1.444   6.022
 7680TIP3    H222982   8.109   1.473   6.127
 7681TIP3   OH222983   2.925   3.046   6.598
 7681TIP3    H122984   2.971   3.085   6.672
 7681TIP3    H222985   2.993   3.002   6.547
 7682TIP3   OH222986   6.156   4.660   1.690
 7682TIP3    H122987   6.217   4.662   1.617
 7682TIP3    H222988   6.107   4.742   1.683
 7683TIP3   OH222989   2.994   0.340   4.353
 7683TIP3    H122990   3.000   0.246   4.342
 7683TIP3    H222991   3.009   0.376   4.265
 7684TIP3   OH222992   6.922   1.162   2.709
 7684TIP3    H122993   6.884   1.076   2.695
 7684TIP3    H222994   6.938   1.197   2.621
 7685TIP3   OH222995   3.341   2.275   3.972
 7685TIP3    H122996   3.418   2.230   4.008
 7685TIP3    H222997   3.363   2.291   3.880
 7686TIP3   OH222998   7.328   0.575   4.679
 7686TIP3    H122999   7.275   0.497   4.668
 7686TIP3    H223000   7.332   0.589   4.774
 7687TIP3   OH223001   5.509   2.589   4.564
 7687TIP3    H123002   5.558   2.636   4.632
 7687TIP3    H223003   5.435   2.550   4.610
 7688TIP3   OH223004   0.280   5.612   0.431
 7688TIP3    H123005   0.197   5.619   0.478
 7688TIP3    H223006   0.304   5.520   0.437
 7689TIP3   OH223007   6.636   3.707   4.149
 7689TIP3    H123008   6.623   3.612   4.156
 7689TIP3    H223009   6.605   3.741   4.232
 7690TIP3   OH223010   0.762   5.702   0.896
 7690TIP3    H123011   0.740   5.717   0.804
 7690TIP3    H223012   0.686   5.733   0.944
 7691TIP3   OH223013   1.647   7.786   5.849
 7691TIP3    H123014   1.688   7.870   5.866
 7691TIP3    H223015   1.572   7.782   5.908
 7692TIP3   OH223016   1.564   6.505   5.928
 7692TIP3    H123017   1.571   6.410   5.928
 7692TIP3    H223018   1.641   6.535   5.879
 7693TIP3   OH223019   8.141   1.781   5.318
 7693TIP3    H123020   8.159   1.818   5.231
 7693TIP3    H223021   8.216   1.724   5.336
 7694TIP3   OH223022   0.723   6.695   0.913
 7694TIP3    H123023   0.710   6.694   1.008
 7694TIP3    H223024   0.741   6.787   0.893
 7695TIP3   OH223025   0.148   7.285   2.977
 7695TIP3    H123026   0.130   7.370   2.937
 7695TIP3    H223027   0.068   7.264   3.026
 7696TIP3   OH223028   6.047   5.856   4.752
 7696TIP3    H123029   6.067   5.815   4.668
 7696TIP3    H223030   6.042   5.783   4.814
 7697TIP3   OH223031   6.927   7.672   5.869
 7697TIP3    H123032   7.000   7.609   5.869
 7697TIP3    H223033   6.894   7.669   5.959
 7698TIP3   OH223034   3.526   2.924   4.596
 7698TIP3    H123035   3.597   2.860   4.590
 7698TIP3    H223036   3.468   2.890   4.664
 7699TIP3   OH223037   8.078   6.652   5.503
 7699TIP3    H123038   7.983   6.656   5.492
 7699TIP3    H223039   8.093   6.577   5.561
 7700TIP3   OH223040   5.322   0.946   5.501
 7700TIP3    H123041   5.236   0.968   5.467
 7700TIP3    H223042   5.304   0.899   5.583
 7701TIP3   OH223043   5.071   6.599   4.051
 7701TIP3    H123044   5.101   6.659   3.983
 7701TIP3    H223045   5.112   6.515   4.029
 7702TIP3   OH223046   0.384   3.974   0.446
 7702TIP3    H123047   0.300   4.013   0.424
 7702TIP3    H223048   0.361   3.901   0.504
 7703TIP3   OH223049   6.520   5.450   4.380
 7703TIP3    H123050   6.604   5.495   4.392
 7703TIP3    H223051   6.455   5.515   4.407
 7704TIP3   OH223052   1.507   3.999   0.171
 7704TIP3    H123053   1.571   3.969   0.235
 7704TIP3    H223054   1.423   3.967   0.204
 7705TIP3   OH223055   5.814   0.432   4.216
 7705TIP3    H123056   5.825   0.353   4.162
 7705TIP3    H223057   5.829   0.401   4.306
 7706TIP3   OH223058   5.260   1.248   3.386
 7706TIP3    H123059   5.315   1.183   3.343
 7706TIP3    H223060   5.204   1.282   3.316
 7707TIP3   OH223061   7.147   4.690   1.863
 7707TIP3    H123062   7.185   4.775   1.886
 7707TIP3    H223063   7.204   4.657   1.794
 7708TIP3   OH223064   5.802   2.131   1.614
 7708TIP3    H123065   5.758   2.051   1.584
 7708TIP3    H223066   5.880   2.100   1.660
 7709TIP3   OH223067   4.880   7.222   1.462
 7709TIP3    H123068   4.866   7.225   1.556
 7709TIP3    H223069   4.975   7.216   1.452
 7710TIP3   OH223070   3.485   0.192   4.242
 7710TIP3    H123071   3.548   0.247   4.196
 7710TIP3    H223072   3.493   0.217   4.334
 7711TIP3   OH223073   7.672   4.336   2.453
 7711TIP3    H123074   7.673   4.336   2.549
 7711TIP3    H223075   7.635   4.421   2.430
 7712TIP3   OH223076   0.151   2.282   4.640
 7712TIP3    H123077   0.130   2.363   4.687
 7712TIP3    H223078   0.246   2.285   4.630
 7713TIP3   OH223079   0.046   2.659   1.201
 7713TIP3    H123080  -0.020   2.643   1.134
 7713TIP3    H223081   0.016   2.610   1.277
 7714TIP3   OH223082   7.047   5.259   1.007
 7714TIP3    H123083   7.074   5.261   0.915
 7714TIP3    H223084   7.034   5.351   1.029
 7715TIP3   OH223085   7.549   0.255   4.368
 7715TIP3    H123086   7.504   0.329   4.327
 7715TIP3    H223087   7.633   0.290   4.396
 7716TIP3   OH223088   0.444   2.296   2.404
 7716TIP3    H123089   0.539   2.288   2.411
 7716TIP3    H223090   0.431   2.378   2.357
 7717TIP3   OH223091   0.377   4.259   5.347
 7717TIP3    H123092   0.344   4.176   5.379
 7717TIP3    H223093   0.468   4.241   5.321
 7718TIP3   OH223094   1.200   6.451   3.965
 7718TIP3    H123095   1.246   6.475   3.884
 7718TIP3    H223096   1.168   6.534   4.000
 7719TIP3   OH223097   7.479   0.460   1.998
 7719TIP3    H123098   7.434   0.481   2.080
 7719TIP3    H223099   7.513   0.544   1.967
 7720TIP3   OH223100   3.035   0.620   2.191
 7720TIP3    H123101   3.036   0.634   2.286
 7720TIP3    H223102   3.007   0.703   2.155
 7721TIP3   OH223103   5.594   2.699   5.038
 7721TIP3    H123104   5.672   2.754   5.030
 7721TIP3    H223105   5.591   2.675   5.130
 7722TIP3   OH223106   3.601   3.059   4.033
 7722TIP3    H123107   3.545   3.110   4.091
 7722TIP3    H223108   3.655   3.006   4.092
 7723TIP3   OH223109   8.096   4.536   5.744
 7723TIP3    H123110   8.151   4.548   5.666
 7723TIP3    H223111   8.011   4.571   5.718
 7724TIP3   OH223112   3.807   0.137   5.022
 7724TIP3    H123113   3.740   0.070   5.009
 7724TIP3    H223114   3.824   0.137   5.116
 7725TIP3   OH223115   4.370   6.530   4.731
 7725TIP3    H123116   4.374   6.436   4.716
 7725TIP3    H223117   4.324   6.539   4.814
 7726TIP3   OH223118   0.364   4.873   4.621
 7726TIP3    H123119   0.325   4.954   4.654
 7726TIP3    H223120   0.289   4.820   4.594
 7727TIP3   OH223121   7.465   0.121   2.352
 7727TIP3    H123122   7.509   0.186   2.407
 7727TIP3    H223123   7.503   0.135   2.265
 7728TIP3   OH223124   6.837   7.228   6.730
 7728TIP3    H123125   6.885   7.306   6.756
 7728TIP3    H223126   6.771   7.260   6.668
 7729TIP3   OH223127   3.949   4.160   0.222
 7729TIP3    H123128   4.043   4.153   0.236
 7729TIP3    H223129   3.928   4.251   0.239
 7730TIP3   OH223130   7.772   4.630   6.154
 7730TIP3    H123131   7.826   4.675   6.089
 7730TIP3    H223132   7.711   4.697   6.184
 7731TIP3   OH223133   5.016   6.254   1.344
 7731TIP3    H123134   4.967   6.257   1.427
 7731TIP3    H223135   4.978   6.324   1.291
 7732TIP3   OH223136   8.257   3.077   6.841
 7732TIP3    H123137   8.193   3.023   6.796
 7732TIP3    H223138   8.330   3.083   6.780
 7733TIP3   OH223139   5.904   2.232   6.077
 7733TIP3    H123140   5.974   2.293   6.052
 7733TIP3    H223141   5.918   2.218   6.171
 7734TIP3   OH223142   4.855   7.827   2.134
 7734TIP3    H123143   4.884   7.794   2.049
 7734TIP3    H223144   4.814   7.911   2.115
 7735TIP3   OH223145   1.987   5.920   5.283
 7735TIP3    H123146   2.037   5.846   5.251
 7735TIP3    H223147   2.030   5.944   5.366
 7736TIP3   OH223148   0.216   0.712   0.682
 7736TIP3    H123149   0.221   0.791   0.628
 7736TIP3    H223150   0.262   0.735   0.762
 7737TIP3   OH223151   3.263   5.012   3.632
 7737TIP3    H123152   3.186   5.046   3.585
 7737TIP3    H223153   3.318   5.089   3.646
 7738TIP3   OH223154   5.931   7.347   6.303
 7738TIP3    H123155   5.847   7.303   6.290
 7738TIP3    H223156   5.907   7.437   6.326
 7739TIP3   OH223157   7.932   0.030   2.226
 7739TIP3    H123158   7.962  -0.018   2.149
 7739TIP3    H223159   7.943  -0.033   2.298
 7740TIP3   OH223160   3.859   4.486   1.153
 7740TIP3    H123161   3.846   4.581   1.163
 7740TIP3    H223162   3.865   4.473   1.058
 7741TIP3   OH223163   4.678   4.968   6.111
 7741TIP3    H123164   4.603   5.022   6.084
 7741TIP3    H223165   4.749   4.994   6.053
 7742TIP3   OH223166   3.121   0.936   0.144
 7742TIP3    H123167   3.185   0.986   0.094
 7742TIP3    H223168   3.103   0.990   0.221
 7743TIP3   OH223169   0.816   5.029   6.065
 7743TIP3    H123170   0.844   4.943   6.098
 7743TIP3    H223171   0.849   5.031   5.975
 7744TIP3   OH223172   7.955   7.746   1.567
 7744TIP3    H123173   7.941   7.840   1.561
 7744TIP3    H223174   8.050   7.736   1.580
 7745TIP3   OH223175   4.307   2.080   6.656
 7745TIP3    H123176   4.342   2.168   6.659
 7745TIP3    H223177   4.283   2.061   6.747
 7746TIP3   OH223178   0.422   0.420   5.596
 7746TIP3    H123179   0.349   0.369   5.630
 7746TIP3    H223180   0.472   0.358   5.543
 7747TIP3   OH223181   6.867   7.757   1.773
 7747TIP3    H123182   6.797   7.707   1.730
 7747TIP3    H223183   6.885   7.709   1.854
 7748TIP3   OH223184   2.910   6.028   5.514
 7748TIP3    H123185   2.986   6.078   5.482
 7748TIP3    H223186   2.896   5.961   5.446
 7749TIP3   OH223187   1.641   2.713   2.396
 7749TIP3    H123188   1.606   2.717   2.307
 7749TIP3    H223189   1.568   2.682   2.450
 7750TIP3   OH223190   7.567   2.623   3.947
 7750TIP3    H123191   7.498   2.624   3.880
 7750TIP3    H223192   7.523   2.591   4.026
 7751TIP3   OH223193   1.877   2.366   4.268
 7751TIP3    H123194   1.967   2.382   4.240
 7751TIP3    H223195   1.880   2.377   4.363
 7752TIP3   OH223196   1.329   4.111   3.866
 7752TIP3    H123197   1.356   4.082   3.779
 7752TIP3    H223198   1.235   4.125   3.859
 7753TIP3   OH223199   6.388   5.660   0.047
 7753TIP3    H123200   6.340   5.717  -0.014
 7753TIP3    H223201   6.337   5.662   0.128
 7754TIP3   OH223202   7.078   5.087   6.031
 7754TIP3    H123203   7.102   5.177   6.013
 7754TIP3    H223204   6.995   5.092   6.079
 7755TIP3   OH223205   1.229   7.905   5.343
 7755TIP3    H123206   1.312   7.902   5.297
 7755TIP3    H223207   1.253   7.921   5.435
 7756TIP3   OH223208   4.664   4.376   0.296
 7756TIP3    H123209   4.644   4.442   0.363
 7756TIP3    H223210   4.726   4.316   0.340
 7757TIP3   OH223211   3.266   4.319   1.882
 7757TIP3    H123212   3.313   4.367   1.950
 7757TIP3    H223213   3.298   4.229   1.890
 7758TIP3   OH223214   5.659   0.832   4.300
 7758TIP3    H123215   5.749   0.826   4.269
 7758TIP3    H223216   5.664   0.887   4.379
 7759TIP3   OH223217   7.512   5.036   5.632
 7759TIP3    H123218   7.560   5.045   5.714
 7759TIP3    H223219   7.450   4.965   5.648
 7760TIP3   OH223220   3.491   1.154   0.336
 7760TIP3    H123221   3.560   1.215   0.309
 7760TIP3    H223222   3.503   1.078   0.279
 7761TIP3   OH223223   7.514   6.591   0.903
 7761TIP3    H123224   7.446   6.534   0.868
 7761TIP3    H223225   7.493   6.678   0.867
 7762TIP3   OH223226   6.518   1.713   2.731
 7762TIP3    H123227   6.535   1.619   2.723
 7762TIP3    H223228   6.601   1.754   2.711
 7763TIP3   OH223229   0.810   7.904   4.907
 7763TIP3    H123230   0.716   7.898   4.892
 7763TIP3    H223231   0.849   7.851   4.837
 7764TIP3   OH223232   4.476   0.179   4.198
 7764TIP3    H123233   4.524   0.239   4.255
 7764TIP3    H223234   4.535   0.163   4.125
 7765TIP3   OH223235   2.849   7.881   0.969
 7765TIP3    H123236   2.892   7.802   0.936
 7765TIP3    H223237   2.756   7.864   0.958
 7766TIP3   OH223238   5.426   4.558   0.085
 7766TIP3    H123239   5.511   4.603   0.075
 7766TIP3    H223240   5.449   4.466   0.094
 7767TIP3   OH223241   0.109   1.113   6.432
 7767TIP3    H123242   0.156   1.079   6.508
 7767TIP3    H223243   0.036   1.162   6.469
 7768TIP3   OH223244   6.275   1.761   2.865
 7768TIP3    H123245   6.274   1.689   2.928
 7768TIP3    H223246   6.360   1.753   2.821
 7769TIP3   OH223247   7.405   1.560   3.580
 7769TIP3    H123248   7.378   1.552   3.488
 7769TIP3    H223249   7.340   1.508   3.628
 7770TIP3   OH223250   5.888   3.420   3.693
 7770TIP3    H123251   5.930   3.503   3.672
 7770TIP3    H223252   5.811   3.416   3.635
 7771TIP3   OH223253   8.170   3.271   2.505
 7771TIP3    H123254   8.222   3.262   2.426
 7771TIP3    H223255   8.178   3.187   2.550
 7772TIP3   OH223256   0.604   2.473   3.812
 7772TIP3    H123257   0.543   2.451   3.742
 7772TIP3    H223258   0.655   2.547   3.778
 7773TIP3   OH223259   6.816   1.399   4.616
 7773TIP3    H123260   6.733   1.367   4.650
 7773TIP3    H223261   6.871   1.320   4.611
 7774TIP3   OH223262   7.187   2.560   4.546
 7774TIP3    H123263   7.193   2.558   4.450
 7774TIP3    H223264   7.272   2.594   4.574
 7775TIP3   OH223265   5.397   0.707   1.815
 7775TIP3    H123266   5.367   0.758   1.740
 7775TIP3    H223267   5.341   0.630   1.816
 7776TIP3   OH223268   8.159   1.586   1.786
 7776TIP3    H123269   8.209   1.504   1.776
 7776TIP3    H223270   8.177   1.613   1.876
 7777TIP3   OH223271   5.227   4.354   2.859
 7777TIP3    H123272   5.240   4.442   2.824
 7777TIP3    H223273   5.173   4.367   2.938
 7778TIP3   OH223274   1.751   7.090   2.320
 7778TIP3    H123275   1.694   7.074   2.395
 7778TIP3    H223276   1.797   7.007   2.307
 7779TIP3   OH223277   5.589   5.504   3.203
 7779TIP3    H123278   5.582   5.411   3.181
 7779TIP3    H223279   5.609   5.546   3.119
 7780TIP3   OH223280   5.415   3.010   0.516
 7780TIP3    H123281   5.336   3.061   0.534
 7780TIP3    H223282   5.384   2.922   0.495
 7781TIP3   OH223283   6.078   1.348   5.518
 7781TIP3    H123284   6.039   1.261   5.509
 7781TIP3    H223285   6.172   1.332   5.514
 7782TIP3   OH223286   0.171   3.614   2.776
 7782TIP3    H123287   0.139   3.661   2.853
 7782TIP3    H223288   0.127   3.529   2.780
 7783TIP3   OH223289   3.002   6.128   1.941
 7783TIP3    H123290   3.065   6.150   1.872
 7783TIP3    H223291   2.974   6.039   1.922
 7784TIP3   OH223292   7.929   1.040   5.843
 7784TIP3    H123293   7.983   1.057   5.920
 7784TIP3    H223294   7.993   1.031   5.771
 7785TIP3   OH223295   6.467   3.898   0.264
 7785TIP3    H123296   6.487   3.805   0.258
 7785TIP3    H223297   6.523   3.938   0.197
 7786TIP3   OH223298   6.488   7.943   6.500
 7786TIP3    H123299   6.491   8.038   6.503
 7786TIP3    H223300   6.572   7.918   6.460
 7787TIP3   OH223301   4.636   4.943   3.360
 7787TIP3    H123302   4.547   4.975   3.373
 7787TIP3    H223303   4.626   4.848   3.350
 7788TIP3   OH223304   6.140   1.208   1.604
 7788TIP3    H123305   6.228   1.244   1.609
 7788TIP3    H223306   6.084   1.279   1.635
 7789TIP3   OH223307   5.331   2.688   0.561
 7789TIP3    H123308   5.259   2.641   0.603
 7789TIP3    H223309   5.410   2.646   0.596
 7790TIP3   OH223310   4.023   3.244   0.165
 7790TIP3    H123311   4.038   3.258   0.071
 7790TIP3    H223312   3.946   3.298   0.184
 7791TIP3   OH223313   7.732   4.836   5.784
 7791TIP3    H123314   7.731   4.927   5.754
 7791TIP3    H223315   7.640   4.812   5.791
 7792TIP3   OH223316   2.689   6.442   5.718
 7792TIP3    H123317   2.620   6.447   5.652
 7792TIP3    H223318   2.645   6.410   5.797
 7793TIP3   OH223319   6.495   3.374   3.893
 7793TIP3    H123320   6.418   3.359   3.948
 7793TIP3    H223321   6.496   3.300   3.832
 7794TIP3   OH223322   4.312   2.028   4.638
 7794TIP3    H123323   4.330   2.095   4.572
 7794TIP3    H223324   4.242   2.066   4.692
 7795TIP3   OH223325   5.521   6.379   5.718
 7795TIP3    H123326   5.558   6.467   5.723
 7795TIP3    H223327   5.587   6.323   5.760
 7796TIP3   OH223328   1.902   0.117   2.796
 7796TIP3    H123329   1.963   0.050   2.827
 7796TIP3    H223330   1.958   0.192   2.774
 7797TIP3   OH223331   6.916   3.720   4.168
 7797TIP3    H123332   6.822   3.729   4.159
 7797TIP3    H223333   6.928   3.678   4.254
 7798TIP3   OH223334   6.127   3.569   5.350
 7798TIP3    H123335   6.081   3.632   5.295
 7798TIP3    H223336   6.155   3.620   5.426
 7799TIP3   OH223337   8.368   0.378   4.960
 7799TIP3    H123338   8.393   0.315   4.892
 7799TIP3    H223339   8.322   0.325   5.026
 7800TIP3   OH223340   7.713   7.324   5.193
 7800TIP3    H123341   7.728   7.244   5.142
 7800TIP3    H223342   7.724   7.297   5.284
 7801TIP3   OH223343   5.695   5.658   6.017
 7801TIP3    H123344   5.738   5.672   5.932
 7801TIP3    H223345   5.603   5.647   5.995
 7802TIP3   OH223346   1.505   3.687   3.508
 7802TIP3    H123347   1.505   3.596   3.477
 7802TIP3    H223348   1.557   3.734   3.443
 7803TIP3   OH223349   6.625   2.169   3.340
 7803TIP3    H123350   6.578   2.151   3.259
 7803TIP3    H223351   6.639   2.263   3.340
 7804TIP3   OH223352   1.119   7.228   5.315
 7804TIP3    H123353   1.162   7.232   5.400
 7804TIP3    H223354   1.118   7.319   5.285
 7805TIP3   OH223355   5.609   5.383   5.841
 7805TIP3    H123356   5.552   5.452   5.876
 7805TIP3    H223357   5.634   5.414   5.754
 7806TIP3   OH223358   0.650   6.396   6.615
 7806TIP3    H123359   0.589   6.468   6.601
 7806TIP3    H223360   0.691   6.414   6.699
 7807TIP3   OH223361   0.157   2.556   3.208
 7807TIP3    H123362   0.246   2.532   3.181
 7807TIP3    H223363   0.104   2.544   3.129
 7808TIP3   OH223364   3.390   2.211   3.020
 7808TIP3    H123365   3.442   2.131   3.026
 7808TIP3    H223366   3.371   2.234   3.111
 7809TIP3   OH223367   6.520   7.192   2.927
 7809TIP3    H123368   6.582   7.119   2.928
 7809TIP3    H223369   6.565   7.261   2.880
 7810TIP3   OH223370   6.346   0.374   4.595
 7810TIP3    H123371   6.353   0.428   4.517
 7810TIP3    H223372   6.382   0.289   4.569
 7811TIP3   OH223373   0.360   6.659   3.158
 7811TIP3    H123374   0.334   6.604   3.085
 7811TIP3    H223375   0.292   6.727   3.162
 7812TIP3   OH223376   6.861   6.934   1.265
 7812TIP3    H123377   6.795   6.866   1.248
 7812TIP3    H223378   6.943   6.895   1.238
 7813TIP3   OH223379   4.338   7.442   1.296
 7813TIP3    H123380   4.396   7.518   1.285
 7813TIP3    H223381   4.310   7.446   1.387
 7814TIP3   OH223382   2.895   6.969   4.866
 7814TIP3    H123383   2.892   7.036   4.799
 7814TIP3    H223384   2.855   7.010   4.943
 7815TIP3   OH223385   8.206   5.799   3.392
 7815TIP3    H123386   8.188   5.737   3.321
 7815TIP3    H223387   8.300   5.787   3.410
 7816TIP3   OH223388   0.896   7.608   5.972
 7816TIP3    H123389   0.826   7.648   5.921
 7816TIP3    H223390   0.859   7.600   6.060
 7817TIP3   OH223391   8.118   0.391   0.387
 7817TIP3    H123392   8.186   0.344   0.435
 7817TIP3    H223393   8.156   0.407   0.300
 7818TIP3   OH223394   5.785   7.201   5.403
 7818TIP3    H123395   5.712   7.210   5.463
 7818TIP3    H223396   5.766   7.121   5.353
 7819TIP3   OH223397   6.493   4.997   2.072
 7819TIP3    H123398   6.479   4.907   2.042
 7819TIP3    H223399   6.481   4.993   2.167
 7820TIP3   OH223400   4.309   5.933   2.543
 7820TIP3    H123401   4.251   5.948   2.619
 7820TIP3    H223402   4.279   5.997   2.478
 7821TIP3   OH223403   4.045   7.081   2.203
 7821TIP3    H123404   4.110   7.095   2.135
 7821TIP3    H223405   3.961   7.079   2.157
 7822TIP3   OH223406   1.555   7.574   2.723
 7822TIP3    H123407   1.536   7.662   2.753
 7822TIP3    H223408   1.582   7.585   2.632
 7823TIP3   OH223409   0.364   1.894   0.091
 7823TIP3    H123410   0.272   1.914   0.109
 7823TIP3    H223411   0.371   1.900  -0.004
 7824TIP3   OH223412   6.442   6.958   1.610
 7824TIP3    H123413   6.405   6.888   1.662
 7824TIP3    H223414   6.376   7.027   1.610
 7825TIP3   OH223415   7.949   7.565   0.553
 7825TIP3    H123416   8.018   7.504   0.580
 7825TIP3    H223417   7.996   7.645   0.530
 7826TIP3   OH223418   4.124   3.715   1.732
 7826TIP3    H123419   4.058   3.735   1.798
 7826TIP3    H223420   4.202   3.691   1.782
 7827TIP3   OH223421   0.951   2.053   3.462
 7827TIP3    H123422   0.926   2.098   3.543
 7827TIP3    H223423   1.046   2.061   3.458
 7828TIP3   OH223424   3.317   7.234   3.645
 7828TIP3    H123425   3.359   7.315   3.675
 7828TIP3    H223426   3.245   7.220   3.706
 7829TIP3   OH223427   2.564   3.653   1.382
 7829TIP3    H123428   2.594   3.718   1.446
 7829TIP3    H223429   2.495   3.698   1.333
 7830TIP3   OH223430   1.277   2.577   6.653
 7830TIP3    H123431   1.264   2.536   6.738
 7830TIP3    H223432   1.310   2.664   6.673
 7831TIP3   OH223433   6.416   6.354   3.281
 7831TIP3    H123434   6.444   6.298   3.209
 7831TIP3    H223435   6.432   6.302   3.360
 7832TIP3   OH223436   3.358   3.254   5.942
 7832TIP3    H123437   3.335   3.298   6.024
 7832TIP3    H223438   3.404   3.174   5.969
 7833TIP3   OH223439   2.266   0.246   3.257
 7833TIP3    H123440   2.330   0.305   3.297
 7833TIP3    H223441   2.199   0.303   3.222
 7834TIP3   OH223442   2.063   2.506   5.436
 7834TIP3    H123443   2.048   2.519   5.529
 7834TIP3    H223444   1.994   2.446   5.408
 7835TIP3   OH223445   4.686   2.923   3.889
 7835TIP3    H123446   4.777   2.900   3.874
 7835TIP3    H223447   4.663   2.880   3.971
 7836TIP3   OH223448   4.737   7.349   2.643
 7836TIP3    H123449   4.815   7.339   2.697
 7836TIP3    H223450   4.740   7.275   2.582
 7837TIP3   OH223451   1.718   4.755   4.665
 7837TIP3    H123452   1.791   4.775   4.607
 7837TIP3    H223453   1.758   4.715   4.743
 7838TIP3   OH223454   4.608   3.233   5.978
 7838TIP3    H123455   4.620   3.138   5.976
 7838TIP3    H223456   4.681   3.267   5.927
 7839TIP3   OH223457   7.166   1.092   6.059
 7839TIP3    H123458   7.233   1.121   5.997
 7839TIP3    H223459   7.152   1.000   6.039
 7840TIP3   OH223460   2.513   7.105   6.274
 7840TIP3    H123461   2.457   7.161   6.327
 7840TIP3    H223462   2.601   7.141   6.284
 7841TIP3   OH223463   0.677   0.528   2.097
 7841TIP3    H123464   0.618   0.466   2.054
 7841TIP3    H223465   0.721   0.572   2.025
 7842TIP3   OH223466   2.655   4.538   2.139
 7842TIP3    H123467   2.697   4.457   2.168
 7842TIP3    H223468   2.653   4.593   2.217
 7843TIP3   OH223469   0.393   5.804   3.834
 7843TIP3    H123470   0.432   5.718   3.815
 7843TIP3    H223471   0.333   5.820   3.762
 7844TIP3   OH223472   4.485   5.145   3.775
 7844TIP3    H123473   4.481   5.237   3.800
 7844TIP3    H223474   4.519   5.146   3.686
 7845TIP3   OH223475   4.823   7.603   6.695
 7845TIP3    H123476   4.820   7.519   6.650
 7845TIP3    H223477   4.884   7.589   6.768
 7846TIP3   OH223478   2.470   0.985   5.056
 7846TIP3    H123479   2.397   1.032   5.016
 7846TIP3    H223480   2.441   0.894   5.060
 7847TIP3   OH223481   1.984   5.163   3.998
 7847TIP3    H123482   1.903   5.113   3.995
 7847TIP3    H223483   1.971   5.234   3.935
 7848TIP3   OH223484   7.239   3.962   0.141
 7848TIP3    H123485   7.304   3.948   0.210
 7848TIP3    H223486   7.265   3.902   0.071
 7849TIP3   OH223487   3.527   7.845   4.695
 7849TIP3    H123488   3.432   7.861   4.689
 7849TIP3    H223489   3.549   7.863   4.786
 7850TIP3   OH223490   6.333   4.278   3.197
 7850TIP3    H123491   6.411   4.321   3.160
 7850TIP3    H223492   6.297   4.228   3.124
 7851TIP3   OH223493   6.262   6.002   4.819
 7851TIP3    H123494   6.193   5.957   4.768
 7851TIP3    H223495   6.257   5.962   4.906
 7852TIP3   OH223496   6.050   7.546   4.574
 7852TIP3    H123497   6.127   7.550   4.518
 7852TIP3    H223498   6.017   7.636   4.576
 7853TIP3   OH223499   5.406   1.792   1.095
 7853TIP3    H123500   5.351   1.831   1.163
 7853TIP3    H223501   5.350   1.787   1.019
 7854TIP3   OH223502   5.663   2.573   6.754
 7854TIP3    H123503   5.574   2.609   6.754
 7854TIP3    H223504   5.716   2.640   6.797
 7855TIP3   OH223505   4.709   2.977   1.593
 7855TIP3    H123506   4.679   3.009   1.678
 7855TIP3    H223507   4.793   3.020   1.579
 7856TIP3   OH223508   8.274   6.680   2.555
 7856TIP3    H123509   8.329   6.605   2.531
 7856TIP3    H223510   8.243   6.714   2.471
 7857TIP3   OH223511   1.514   2.741   2.674
 7857TIP3    H123512   1.486   2.816   2.622
 7857TIP3    H223513   1.448   2.732   2.742
 7858TIP3   OH223514   5.406   5.237   6.552
 7858TIP3    H123515   5.379   5.176   6.484
 7858TIP3    H223516   5.366   5.321   6.527
 7859TIP3   OH223517   4.155   3.059   3.634
 7859TIP3    H123518   4.196   2.973   3.626
 7859TIP3    H223519   4.062   3.040   3.644
 7860TIP3   OH223520   2.669   7.501   5.158
 7860TIP3    H123521   2.653   7.473   5.248
 7860TIP3    H223522   2.725   7.432   5.121
 7861TIP3   OH223523   3.972   0.368   2.654
 7861TIP3    H123524   4.066   0.376   2.664
 7861TIP3    H223525   3.960   0.330   2.567
 7862TIP3   OH223526   2.315   7.260   5.757
 7862TIP3    H123527   2.370   7.300   5.825
 7862TIP3    H223528   2.269   7.189   5.803
 7863TIP3   OH223529   0.673   1.963   1.930
 7863TIP3    H123530   0.648   1.877   1.898
 7863TIP3    H223531   0.591   2.012   1.934
 7864TIP3   OH223532   8.093   4.512   1.335
 7864TIP3    H123533   8.099   4.606   1.319
 7864TIP3    H223534   8.120   4.501   1.427
 7865TIP3   OH223535   3.446   5.989   6.373
 7865TIP3    H123536   3.382   6.059   6.364
 7865TIP3    H223537   3.396   5.914   6.404
 7866TIP3   OH223538   3.337   0.199   0.193
 7866TIP3    H123539   3.297   0.179   0.108
 7866TIP3    H223540   3.294   0.280   0.221
 7867TIP3   OH223541   3.706   1.580   2.324
 7867TIP3    H123542   3.704   1.658   2.380
 7867TIP3    H223543   3.629   1.530   2.350
 7868TIP3   OH223544   2.483   7.850   2.029
 7868TIP3    H123545   2.391   7.869   2.043
 7868TIP3    H223546   2.527   7.935   2.032
 7869TIP3   OH223547   2.682   3.481   4.481
 7869TIP3    H123548   2.635   3.399   4.497
 7869TIP3    H223549   2.697   3.481   4.386
 7870TIP3   OH223550   3.876   5.687   4.294
 7870TIP3    H123551   3.865   5.780   4.277
 7870TIP3    H223552   3.836   5.673   4.380
 7871TIP3   OH223553   7.187   7.598   4.920
 7871TIP3    H123554   7.256   7.605   4.985
 7871TIP3    H223555   7.153   7.687   4.912
 7872TIP3   OH223556   0.322   2.807   6.824
 7872TIP3    H123557   0.359   2.722   6.798
 7872TIP3    H223558   0.275   2.838   6.746
 7873TIP3   OH223559   3.898   0.224   6.475
 7873TIP3    H123560   3.932   0.142   6.439
 7873TIP3    H223561   3.968   0.287   6.460
 7874TIP3   OH223562   2.456   1.309   2.620
 7874TIP3    H123563   2.543   1.278   2.646
 7874TIP3    H223564   2.399   1.281   2.692
 7875TIP3   OH223565   0.922   7.302   0.047
 7875TIP3    H123566   0.963   7.217   0.060
 7875TIP3    H223567   0.960   7.358   0.115
 7876TIP3   OH223568   0.229   3.384   4.017
 7876TIP3    H123569   0.278   3.420   3.943
 7876TIP3    H223570   0.175   3.315   3.979
 7877TIP3   OH223571   4.484   6.286   3.582
 7877TIP3    H123572   4.538   6.296   3.503
 7877TIP3    H223573   4.536   6.325   3.652
 7878TIP3   OH223574   2.378   5.775   4.643
 7878TIP3    H123575   2.457   5.762   4.696
 7878TIP3    H223576   2.345   5.686   4.628
 7879TIP3   OH223577   3.490   5.646   6.692
 7879TIP3    H123578   3.493   5.653   6.596
 7879TIP3    H223579   3.412   5.593   6.710
 7880TIP3   OH223580   5.525   1.709   0.493
 7880TIP3    H123581   5.457   1.650   0.461
 7880TIP3    H223582   5.489   1.797   0.477
 7881TIP3   OH223583   2.554   6.943   3.276
 7881TIP3    H123584   2.545   6.929   3.181
 7881TIP3    H223585   2.464   6.958   3.306
 7882TIP3   OH223586   5.918   7.172   6.530
 7882TIP3    H123587   5.868   7.095   6.558
 7882TIP3    H223588   5.868   7.247   6.564
 7883TIP3   OH223589   6.665   2.141   6.515
 7883TIP3    H123590   6.672   2.200   6.440
 7883TIP3    H223591   6.596   2.180   6.569
 7884TIP3   OH223592   3.702   3.362   6.373
 7884TIP3    H123593   3.778   3.405   6.413
 7884TIP3    H223594   3.690   3.408   6.290
 7885TIP3   OH223595   6.002   1.542   4.062
 7885TIP3    H123596   5.985   1.594   3.984
 7885TIP3    H223597   6.028   1.606   4.128
 7886TIP3   OH223598   5.263   0.832   1.610
 7886TIP3    H123599   5.183   0.879   1.636
 7886TIP3    H223600   5.233   0.770   1.544
 7887TIP3   OH223601   6.448   2.623   4.281
 7887TIP3    H123602   6.369   2.649   4.233
 7887TIP3    H223603   6.518   2.633   4.217
 7888TIP3   OH223604   7.825   5.172   5.077
 7888TIP3    H123605   7.797   5.208   5.162
 7888TIP3    H223606   7.894   5.110   5.100
 7889TIP3   OH223607   7.725   1.076   1.593
 7889TIP3    H123608   7.773   1.135   1.650
 7889TIP3    H223609   7.782   1.062   1.518
 7890TIP3   OH223610   3.810   1.583   0.475
 7890TIP3    H123611   3.896   1.564   0.438
 7890TIP3    H223612   3.824   1.657   0.533
 7891TIP3   OH223613   2.399   2.694   2.970
 7891TIP3    H123614   2.390   2.712   2.877
 7891TIP3    H223615   2.413   2.779   3.010
 7892TIP3   OH223616   2.178   4.544   4.986
 7892TIP3    H123617   2.171   4.632   4.950
 7892TIP3    H223618   2.225   4.555   5.069
 7893TIP3   OH223619   0.830   1.190   2.595
 7893TIP3    H123620   0.813   1.096   2.602
 7893TIP3    H223621   0.876   1.201   2.512
 7894TIP3   OH223622   7.462   2.950   3.118
 7894TIP3    H123623   7.511   2.898   3.054
 7894TIP3    H223624   7.372   2.920   3.109
 7895TIP3   OH223625   2.705   1.478   3.732
 7895TIP3    H123626   2.666   1.555   3.691
 7895TIP3    H223627   2.713   1.501   3.824
 7896TIP3   OH223628   7.405   4.568   5.502
 7896TIP3    H123629   7.493   4.544   5.531
 7896TIP3    H223630   7.418   4.602   5.413
 7897TIP3   OH223631   5.994   0.551   5.865
 7897TIP3    H123632   5.900   0.536   5.875
 7897TIP3    H223633   6.026   0.474   5.819
 7898TIP3   OH223634   4.122   1.762   6.798
 7898TIP3    H123635   4.029   1.753   6.818
 7898TIP3    H223636   4.124   1.793   6.708
 7899TIP3   OH223637   5.909   5.289   6.685
 7899TIP3    H123638   6.000   5.297   6.712
 7899TIP3    H223639   5.866   5.368   6.718
 7900TIP3   OH223640   0.732   6.851   5.124
 7900TIP3    H123641   0.781   6.779   5.084
 7900TIP3    H223642   0.782   6.875   5.201
 7901TIP3   OH223643   0.959   5.235   1.888
 7901TIP3    H123644   0.950   5.308   1.827
 7901TIP3    H223645   0.902   5.166   1.853
 7902TIP3   OH223646   3.539   3.964   6.673
 7902TIP3    H123647   3.599   3.981   6.600
 7902TIP3    H223648   3.525   4.049   6.713
 7903TIP3   OH223649   5.364   3.670   1.326
 7903TIP3    H123650   5.425   3.742   1.342
 7903TIP3    H223651   5.325   3.690   1.242
 7904TIP3   OH223652   0.693   1.650   5.032
 7904TIP3    H123653   0.696   1.664   5.127
 7904TIP3    H223654   0.602   1.665   5.008
 7905TIP3   OH223655   7.889   7.618   3.101
 7905TIP3    H123656   7.857   7.582   3.018
 7905TIP3    H223657   7.813   7.612   3.160
 7906TIP3   OH223658   7.795   7.466   2.876
 7906TIP3    H123659   7.721   7.508   2.832
 7906TIP3    H223660   7.764   7.378   2.896
 7907TIP3   OH223661   3.718   6.451   3.916
 7907TIP3    H123662   3.660   6.395   3.969
 7907TIP3    H223663   3.784   6.482   3.977
 7908TIP3   OH223664   1.709   6.545   3.717
 7908TIP3    H123665   1.717   6.467   3.662
 7908TIP3    H223666   1.639   6.524   3.779
 7909TIP3   OH223667   3.455   1.260   1.438
 7909TIP3    H123668   3.529   1.317   1.456
 7909TIP3    H223669   3.406   1.256   1.520
 7910TIP3   OH223670   0.090   5.727   2.381
 7910TIP3    H123671   0.100   5.648   2.328
 7910TIP3    H223672   0.018   5.775   2.340
 7911TIP3   OH223673   1.892   5.064   2.333
 7911TIP3    H123674   1.821   5.046   2.394
 7911TIP3    H223675   1.877   5.003   2.261
 7912TIP3   OH223676   3.602   5.062   5.711
 7912TIP3    H123677   3.514   5.091   5.735
 7912TIP3    H223678   3.655   5.077   5.789
 7913TIP3   OH223679   6.054   4.011   1.346
 7913TIP3    H123680   6.019   3.977   1.264
 7913TIP3    H223681   6.137   3.965   1.357
 7914TIP3   OH223682   7.880   4.889   0.926
 7914TIP3    H123683   7.830   4.947   0.868
 7914TIP3    H223684   7.972   4.908   0.905
 7915TIP3   OH223685   0.546   3.087   5.520
 7915TIP3    H123686   0.480   3.135   5.570
 7915TIP3    H223687   0.498   3.043   5.451
 7916TIP3   OH223688   0.573   4.374   0.104
 7916TIP3    H123689   0.581   4.311   0.175
 7916TIP3    H223690   0.659   4.371   0.061
 7917TIP3   OH223691   7.552   1.696   0.593
 7917TIP3    H123692   7.506   1.780   0.596
 7917TIP3    H223693   7.624   1.710   0.531
 7918TIP3   OH223694   2.360   0.687   0.798
 7918TIP3    H123695   2.376   0.661   0.889
 7918TIP3    H223696   2.286   0.747   0.803
 7919TIP3   OH223697   6.463   2.534  -0.021
 7919TIP3    H123698   6.497   2.452  -0.057
 7919TIP3    H223699   6.461   2.520   0.074
 7920TIP3   OH223700   4.260   2.945   4.916
 7920TIP3    H123701   4.241   2.974   5.005
 7920TIP3    H223702   4.294   2.856   4.927
 7921TIP3   OH223703   8.037   4.252   4.685
 7921TIP3    H123704   7.954   4.277   4.724
 7921TIP3    H223705   8.020   4.249   4.591
 7922TIP3   OH223706   0.006   2.564   6.007
 7922TIP3    H123707   0.076   2.625   6.029
 7922TIP3    H223708  -0.063   2.619   5.969
 7923TIP3   OH223709   6.041   3.549   4.873
 7923TIP3    H123710   5.990   3.508   4.943
 7923TIP3    H223711   5.978   3.604   4.827
 7924TIP3   OH223712   3.326   5.889   1.775
 7924TIP3    H123713   3.416   5.898   1.806
 7924TIP3    H223714   3.333   5.839   1.694
 7925TIP3   OH223715   0.283   5.027   2.604
 7925TIP3    H123716   0.235   5.006   2.523
 7925TIP3    H223717   0.312   4.942   2.637
 7926TIP3   OH223718   2.515   1.988   4.603
 7926TIP3    H123719   2.492   2.034   4.522
 7926TIP3    H223720   2.564   1.911   4.574
 7927TIP3   OH223721   6.178   0.117   6.723
 7927TIP3    H123722   6.270   0.127   6.749
 7927TIP3    H223723   6.182   0.067   6.641
 7928TIP3   OH223724   8.181   0.717   5.629
 7928TIP3    H123725   8.240   0.643   5.615
 7928TIP3    H223726   8.155   0.743   5.541
 7929TIP3   OH223727   0.023   3.796   2.969
 7929TIP3    H123728  -0.058   3.796   3.019
 7929TIP3    H223729   0.081   3.856   3.016
 7930TIP3   OH223730   2.373   7.838   2.753
 7930TIP3    H123731   2.281   7.866   2.753
 7930TIP3    H223732   2.369   7.745   2.774
 7931TIP3   OH223733   2.452   7.308   3.669
 7931TIP3    H123734   2.541   7.280   3.651
 7931TIP3    H223735   2.455   7.403   3.661
 7932TIP3   OH223736   5.472   4.083   1.244
 7932TIP3    H123737   5.432   4.006   1.205
 7932TIP3    H223738   5.508   4.052   1.327
 7933TIP3   OH223739   1.888   5.242   0.734
 7933TIP3    H123740   1.960   5.182   0.755
 7933TIP3    H223741   1.890   5.249   0.639
 7934TIP3   OH223742   3.628   1.935   4.763
 7934TIP3    H123743   3.572   1.994   4.815
 7934TIP3    H223744   3.572   1.908   4.690
 7935TIP3   OH223745   7.114   2.933   2.445
 7935TIP3    H123746   7.181   2.875   2.409
 7935TIP3    H223747   7.129   3.017   2.402
 7936TIP3   OH223748   6.580   2.952   0.610
 7936TIP3    H123749   6.538   3.038   0.618
 7936TIP3    H223750   6.510   2.889   0.627
 7937TIP3   OH223751   2.893   1.799   1.654
 7937TIP3    H123752   2.867   1.716   1.694
 7937TIP3    H223753   2.886   1.863   1.724
 7938TIP3   OH223754   4.455   6.055   1.786
 7938TIP3    H123755   4.460   6.008   1.869
 7938TIP3    H223756   4.536   6.107   1.783
 7939TIP3   OH223757   1.281   1.792   3.031
 7939TIP3    H123758   1.367   1.753   3.022
 7939TIP3    H223759   1.243   1.751   3.109
 7940TIP3   OH223760   5.296   5.373   6.798
 7940TIP3    H123761   5.256   5.421   6.871
 7940TIP3    H223762   5.237   5.387   6.724
 7941TIP3   OH223763   3.223   6.102   1.203
 7941TIP3    H123764   3.275   6.034   1.245
 7941TIP3    H223765   3.152   6.055   1.161
 7942TIP3   OH223766   0.935   3.569   4.227
 7942TIP3    H123767   0.972   3.506   4.166
 7942TIP3    H223768   0.912   3.644   4.172
 7943TIP3   OH223769   0.937   5.938   4.915
 7943TIP3    H123770   0.885   6.004   4.960
 7943TIP3    H223771   0.893   5.855   4.936
 7944TIP3   OH223772   5.608   7.812   3.112
 7944TIP3    H123773   5.590   7.900   3.144
 7944TIP3    H223774   5.635   7.824   3.021
 7945TIP3   OH223775   4.202   6.585   5.452
 7945TIP3    H123776   4.126   6.530   5.469
 7945TIP3    H223777   4.221   6.574   5.359
 7946TIP3   OH223778   6.587   5.117   4.022
 7946TIP3    H123779   6.668   5.159   4.052
 7946TIP3    H223780   6.526   5.127   4.095
 7947TIP3   OH223781   1.752   0.378   2.789
 7947TIP3    H123782   1.795   0.413   2.711
 7947TIP3    H223783   1.771   0.284   2.786
 7948TIP3   OH223784   3.565   5.685   4.897
 7948TIP3    H123785   3.657   5.693   4.871
 7948TIP3    H223786   3.556   5.743   4.973
 7949TIP3   OH223787   5.129   3.759   3.636
 7949TIP3    H123788   5.045   3.779   3.677
 7949TIP3    H223789   5.107   3.719   3.552
 7950TIP3   OH223790   4.662   3.355   2.669
 7950TIP3    H123791   4.588   3.337   2.728
 7950TIP3    H223792   4.631   3.426   2.613
 7951TIP3   OH223793   1.023   0.449   2.413
 7951TIP3    H123794   1.103   0.397   2.427
 7951TIP3    H223795   1.033   0.524   2.471
 7952TIP3   OH223796   2.901   6.167   2.650
 7952TIP3    H123797   2.955   6.207   2.582
 7952TIP3    H223798   2.836   6.234   2.672
 7953TIP3   OH223799   8.213   2.441   4.683
 7953TIP3    H123800   8.269   2.509   4.645
 7953TIP3    H223801   8.258   2.414   4.763
 7954TIP3   OH223802   0.100   2.970   6.280
 7954TIP3    H123803   0.142   3.038   6.332
 7954TIP3    H223804   0.035   2.932   6.338
 7955TIP3   OH223805   7.889   4.267   4.104
 7955TIP3    H123806   7.929   4.334   4.159
 7955TIP3    H223807   7.954   4.251   4.035
 7956TIP3   OH223808   4.214   4.663   5.142
 7956TIP3    H123809   4.130   4.651   5.096
 7956TIP3    H223810   4.213   4.596   5.210
 7957TIP3   OH223811   6.907  -0.012   6.171
 7957TIP3    H123812   6.832   0.044   6.190
 7957TIP3    H223813   6.917  -0.066   6.249
 7958TIP3   OH223814   1.648   0.151   1.257
 7958TIP3    H123815   1.568   0.181   1.301
 7958TIP3    H223816   1.697   0.232   1.238
 7959TIP3   OH223817   4.389   3.074   2.524
 7959TIP3    H123818   4.377   3.073   2.619
 7959TIP3    H223819   4.325   3.012   2.491
 7960TIP3   OH223820   0.891   6.909   2.164
 7960TIP3    H123821   0.878   6.845   2.234
 7960TIP3    H223822   0.948   6.864   2.102
 7961TIP3   OH223823   7.417   4.575   1.190
 7961TIP3    H123824   7.401   4.568   1.096
 7961TIP3    H223825   7.331   4.567   1.230
 7962TIP3   OH223826   4.944   0.556   2.839
 7962TIP3    H123827   4.927   0.571   2.932
 7962TIP3    H223828   5.015   0.616   2.817
 7963TIP3   OH223829   7.363   6.969   2.697
 7963TIP3    H123830   7.297   6.992   2.632
 7963TIP3    H223831   7.353   6.875   2.710
 7964TIP3   OH223832   1.719   2.066   3.859
 7964TIP3    H123833   1.809   2.037   3.871
 7964TIP3    H223834   1.687   2.081   3.948
 7965TIP3   OH223835   4.998   1.622   6.688
 7965TIP3    H123836   4.934   1.685   6.656
 7965TIP3    H223837   5.080   1.671   6.694
 7966TIP3   OH223838   4.193   2.017   3.251
 7966TIP3    H123839   4.213   1.952   3.318
 7966TIP3    H223840   4.243   1.988   3.174
 7967TIP3   OH223841   6.176   2.132   4.452
 7967TIP3    H123842   6.232   2.117   4.376
 7967TIP3    H223843   6.153   2.225   4.447
 7968TIP3   OH223844   1.757   0.628   3.563
 7968TIP3    H123845   1.728   0.712   3.525
 7968TIP3    H223846   1.676   0.588   3.595
 7969TIP3   OH223847   0.780   7.545   6.228
 7969TIP3    H123848   0.745   7.456   6.223
 7969TIP3    H223849   0.782   7.566   6.322
 7970TIP3   OH223850   3.381   1.030   6.438
 7970TIP3    H123851   3.389   0.935   6.432
 7970TIP3    H223852   3.472   1.061   6.430
 7971TIP3   OH223853   3.443   6.597   0.169
 7971TIP3    H123854   3.521   6.594   0.224
 7971TIP3    H223855   3.377   6.641   0.222
 7972TIP3   OH223856   0.124   3.944   5.805
 7972TIP3    H123857   0.046   3.888   5.804
 7972TIP3    H223858   0.197   3.884   5.792
 7973TIP3   OH223859   3.433   4.734   0.412
 7973TIP3    H123860   3.408   4.664   0.352
 7973TIP3    H223861   3.529   4.730   0.415
 7974TIP3   OH223862   3.484   2.152   0.437
 7974TIP3    H123863   3.496   2.197   0.520
 7974TIP3    H223864   3.396   2.113   0.443
 7975TIP3   OH223865   1.983   1.138   5.944
 7975TIP3    H123866   1.983   1.044   5.963
 7975TIP3    H223867   1.895   1.167   5.968
 7976TIP3   OH223868   3.916   7.331   0.653
 7976TIP3    H123869   3.934   7.370   0.739
 7976TIP3    H223870   3.966   7.249   0.654
 7977TIP3   OH223871   6.430   7.852   3.965
 7977TIP3    H123872   6.502   7.800   3.930
 7977TIP3    H223873   6.353   7.823   3.916
 7978TIP3   OH223874   7.782   4.838   5.458
 7978TIP3    H123875   7.727   4.885   5.395
 7978TIP3    H223876   7.736   4.755   5.472
 7979TIP3   OH223877   6.597   3.403   1.353
 7979TIP3    H123878   6.605   3.327   1.410
 7979TIP3    H223879   6.649   3.381   1.276
 7980TIP3   OH223880   2.917   2.873   3.677
 7980TIP3    H123881   3.004   2.903   3.703
 7980TIP3    H223882   2.860   2.897   3.750
 7981TIP3   OH223883   6.039   1.505   0.970
 7981TIP3    H123884   5.988   1.585   0.985
 7981TIP3    H223885   6.042   1.462   1.055
 7982TIP3   OH223886   3.997   1.937   2.943
 7982TIP3    H123887   3.973   1.847   2.920
 7982TIP3    H223888   4.089   1.944   2.918
 7983TIP3   OH223889   3.463   5.483   0.024
 7983TIP3    H123890   3.449   5.462   0.117
 7983TIP3    H223891   3.433   5.405  -0.023
 7984TIP3   OH223892   1.440   5.209   3.788
 7984TIP3    H123893   1.353   5.232   3.820
 7984TIP3    H223894   1.453   5.265   3.711
 7985TIP3   OH223895   2.503   3.539   3.382
 7985TIP3    H123896   2.426   3.542   3.438
 7985TIP3    H223897   2.577   3.552   3.441
 7986TIP3   OH223898   1.192   4.242   1.006
 7986TIP3    H123899   1.282   4.263   0.981
 7986TIP3    H223900   1.142   4.251   0.925
 7987TIP3   OH223901   7.186   7.910   2.105
 7987TIP3    H123902   7.265   7.875   2.063
 7987TIP3    H223903   7.116   7.896   2.041
 7988TIP3   OH223904   4.696   4.000   4.890
 7988TIP3    H123905   4.717   4.064   4.958
 7988TIP3    H223906   4.761   4.016   4.821
 7989TIP3   OH223907   0.654   1.499   6.320
 7989TIP3    H123908   0.576   1.511   6.265
 7989TIP3    H223909   0.727   1.507   6.258
 7990TIP3   OH223910   1.970  -0.029   3.195
 7990TIP3    H123911   2.013  -0.013   3.111
 7990TIP3    H223912   1.998   0.044   3.251
 7991TIP3   OH223913   5.294   2.641   5.240
 7991TIP3    H123914   5.292   2.682   5.327
 7991TIP3    H223915   5.331   2.555   5.256
 7992TIP3   OH223916   4.166   1.454   1.798
 7992TIP3    H123917   4.189   1.431   1.708
 7992TIP3    H223918   4.095   1.518   1.789
 7993TIP3   OH223919   7.597   3.839   2.420
 7993TIP3    H123920   7.639   3.921   2.445
 7993TIP3    H223921   7.654   3.803   2.351
 7994TIP3   OH223922   1.870   5.190   6.780
 7994TIP3    H123923   1.834   5.106   6.810
 7994TIP3    H223924   1.801   5.228   6.725
 7995TIP3   OH223925   6.813   5.685   2.720
 7995TIP3    H123926   6.821   5.610   2.778
 7995TIP3    H223927   6.726   5.720   2.738
 7996TIP3   OH223928   6.499   4.356   4.691
 7996TIP3    H123929   6.469   4.409   4.617
 7996TIP3    H223930   6.569   4.408   4.730
 7997TIP3   OH223931   0.692   7.001   4.616
 7997TIP3    H123932   0.664   7.021   4.705
 7997TIP3    H223933   0.729   7.083   4.584
 7998TIP3   OH223934   0.827   2.009   3.993
 7998TIP3    H123935   0.759   2.026   4.059
 7998TIP3    H223936   0.833   2.091   3.944
 7999TIP3   OH223937   2.985   3.470   4.290
 7999TIP3    H123938   2.996   3.547   4.346
 7999TIP3    H223939   3.052   3.481   4.221
 8000TIP3   OH223940   6.100   1.816   0.523
 8000TIP3    H123941   6.069   1.741   0.573
 8000TIP3    H223942   6.021   1.860   0.493
 8001TIP3   OH223943   6.437   3.281   6.660
 8001TIP3    H123944   6.354   3.312   6.624
 8001TIP3    H223945   6.436   3.309   6.751
 8002TIP3   OH223946   2.189   5.789   1.013
 8002TIP3    H123947   2.160   5.732   0.942
 8002TIP3    H223948   2.240   5.858   0.969
 8003TIP3   OH223949   0.956   0.611   3.135
 8003TIP3    H123950   0.878   0.663   3.153
 8003TIP3    H223951   0.947   0.534   3.192
 8004TIP3   OH223952   5.722   2.679   4.735
 8004TIP3    H123953   5.790   2.632   4.687
 8004TIP3    H223954   5.730   2.770   4.705
 8005TIP3   OH223955   3.192   7.365   5.797
 8005TIP3    H123956   3.104   7.356   5.759
 8005TIP3    H223957   3.176   7.394   5.887
 8006TIP3   OH223958   7.642   1.871   4.667
 8006TIP3    H123959   7.683   1.895   4.750
 8006TIP3    H223960   7.645   1.775   4.665
 8007TIP3   OH223961   3.231   4.657   1.785
 8007TIP3    H123962   3.165   4.599   1.747
 8007TIP3    H223963   3.182   4.737   1.807
 8008TIP3   OH223964   2.358   6.955   5.167
 8008TIP3    H123965   2.303   7.028   5.195
 8008TIP3    H223966   2.296   6.887   5.139
 8009TIP3   OH223967   3.086   3.046   2.041
 8009TIP3    H123968   3.115   2.974   1.986
 8009TIP3    H223969   3.028   3.098   1.985
 8010TIP3   OH223970   8.348   6.144   1.200
 8010TIP3    H123971   8.315   6.142   1.110
 8010TIP3    H223972   8.441   6.164   1.191
 8011TIP3   OH223973   4.424   0.802   5.261
 8011TIP3    H123974   4.398   0.842   5.344
 8011TIP3    H223975   4.346   0.807   5.207
 8012TIP3   OH223976   3.524   3.033   2.405
 8012TIP3    H123977   3.581   3.103   2.373
 8012TIP3    H223978   3.465   3.015   2.333
 8013TIP3   OH223979   4.768   2.560   6.587
 8013TIP3    H123980   4.768   2.648   6.551
 8013TIP3    H223981   4.847   2.556   6.641
 8014TIP3   OH223982   1.139   4.290   5.627
 8014TIP3    H123983   1.211   4.227   5.618
 8014TIP3    H223984   1.060   4.237   5.624
 8015TIP3   OH223985   1.292   0.619   1.042
 8015TIP3    H123986   1.253   0.573   0.967
 8015TIP3    H223987   1.328   0.699   1.004
 8016TIP3   OH223988   3.154   7.397   0.914
 8016TIP3    H123989   3.220   7.338   0.876
 8016TIP3    H223990   3.121   7.350   0.991
 8017TIP3   OH223991   4.771   4.066   1.294
 8017TIP3    H123992   4.690   4.015   1.300
 8017TIP3    H223993   4.840   4.004   1.318
 8018TIP3   OH223994   6.585   4.975   2.321
 8018TIP3    H123995   6.519   5.004   2.384
 8018TIP3    H223996   6.663   5.025   2.343
 8019TIP3   OH223997   0.983   3.841   0.356
 8019TIP3    H123998   0.991   3.850   0.451
 8019TIP3    H223999   1.020   3.754   0.337
 8020TIP3   OH224000   5.566   0.106   1.842
 8020TIP3    H124001   5.475   0.132   1.827
 8020TIP3    H224002   5.602   0.176   1.897
 8021TIP3   OH224003   1.369   1.298   5.060
 8021TIP3    H124004   1.376   1.246   5.140
 8021TIP3    H224005   1.276   1.319   5.053
 8022TIP3   OH224006   2.769   3.508   0.672
 8022TIP3    H124007   2.861   3.501   0.645
 8022TIP3    H224008   2.759   3.599   0.698
 8023TIP3   OH224009   0.183   1.016   3.426
 8023TIP3    H124010   0.230   1.096   3.450
 8023TIP3    H224011   0.187   1.014   3.330
 8024TIP3   OH224012   6.490   5.919   4.499
 8024TIP3    H124013   6.516   5.869   4.421
 8024TIP3    H224014   6.453   6.000   4.463
 8025TIP3   OH224015   3.947   7.107   0.410
 8025TIP3    H124016   3.869   7.066   0.448
 8025TIP3    H224017   4.018   7.045   0.427
 8026TIP3   OH224018   1.372   6.271   3.686
 8026TIP3    H124019   1.442   6.301   3.629
 8026TIP3    H224020   1.410   6.268   3.774
 8027TIP3   OH224021   6.770   7.552   0.138
 8027TIP3    H124022   6.754   7.633   0.089
 8027TIP3    H224023   6.776   7.579   0.229
 8028TIP3   OH224024   5.414   2.866   4.721
 8028TIP3    H124025   5.461   2.884   4.640
 8028TIP3    H224026   5.458   2.921   4.787
 8029TIP3   OH224027   7.160   6.516   1.492
 8029TIP3    H124028   7.151   6.457   1.566
 8029TIP3    H224029   7.081   6.503   1.440
 8030TIP3   OH224030   4.560   7.083   2.148
 8030TIP3    H124031   4.546   7.111   2.239
 8030TIP3    H224032   4.628   7.017   2.154
 8031TIP3   OH224033   0.923   1.303   1.797
 8031TIP3    H124034   0.866   1.228   1.782
 8031TIP3    H224035   0.990   1.297   1.729
 8032TIP3   OH224036   3.460   6.723   3.155
 8032TIP3    H124037   3.444   6.671   3.234
 8032TIP3    H224038   3.428   6.810   3.177
 8033TIP3   OH224039   5.979   0.165   5.551
 8033TIP3    H124040   5.909   0.148   5.615
 8033TIP3    H224041   5.937   0.152   5.466
 8034TIP3   OH224042   1.637   7.325   0.874
 8034TIP3    H124043   1.575   7.324   0.801
 8034TIP3    H224044   1.613   7.251   0.928
 8035TIP3   OH224045   5.112   7.005   0.091
 8035TIP3    H124046   5.120   7.048   0.176
 8035TIP3    H224047   5.145   7.069   0.028
 8036TIP3   OH224048   7.448   5.789   5.926
 8036TIP3    H124049   7.480   5.711   5.971
 8036TIP3    H224050   7.375   5.758   5.873
 8037TIP3   OH224051   7.252   3.713   4.814
 8037TIP3    H124052   7.297   3.636   4.779
 8037TIP3    H224053   7.318   3.757   4.867
 8038TIP3   OH224054   3.480   4.937   3.516
 8038TIP3    H124055   3.510   4.901   3.600
 8038TIP3    H224056   3.392   4.969   3.534
 8039TIP3   OH224057   7.599   4.674   6.415
 8039TIP3    H124058   7.620   4.761   6.450
 8039TIP3    H224059   7.541   4.691   6.341
 8040TIP3   OH224060   5.734   5.488   6.394
 8040TIP3    H124061   5.782   5.570   6.397
 8040TIP3    H224062   5.668   5.496   6.463
 8041TIP3   OH224063   5.784   4.951   5.074
 8041TIP3    H124064   5.717   4.930   5.008
 8041TIP3    H224065   5.842   4.875   5.075
 8042TIP3   OH224066   4.309   4.956   4.162
 8042TIP3    H124067   4.387   4.940   4.109
 8042TIP3    H224068   4.324   5.043   4.200
 8043TIP3   OH224069   0.990   1.008   5.401
 8043TIP3    H124070   1.056   1.049   5.457
 8043TIP3    H224071   1.033   0.929   5.368
 8044TIP3   OH224072   7.686   7.467   4.466
 8044TIP3    H124073   7.768   7.451   4.514
 8044TIP3    H224074   7.618   7.427   4.521
 8045TIP3   OH224075   7.390   2.569   1.395
 8045TIP3    H124076   7.329   2.510   1.439
 8045TIP3    H224077   7.422   2.627   1.464
 8046TIP3   OH224078   0.039   4.594   3.712
 8046TIP3    H124079   0.081   4.603   3.626
 8046TIP3    H224080  -0.039   4.542   3.695
 8047TIP3   OH224081   7.525   7.140   0.459
 8047TIP3    H124082   7.523   7.171   0.550
 8047TIP3    H224083   7.528   7.219   0.406
 8048TIP3   OH224084   0.760   7.747   6.491
 8048TIP3    H124085   0.794   7.805   6.423
 8048TIP3    H224086   0.688   7.795   6.531
 8049TIP3   OH224087   1.891   1.377   3.028
 8049TIP3    H124088   1.913   1.455   3.079
 8049TIP3    H224089   1.961   1.316   3.047
 8050TIP3   OH224090   5.513   6.990   1.753
 8050TIP3    H124091   5.424   6.993   1.788
 8050TIP3    H224092   5.501   6.983   1.658
 8051TIP3   OH224093   0.923   6.553   3.854
 8051TIP3    H124094   0.967   6.603   3.923
 8051TIP3    H224095   0.983   6.481   3.833
 8052TIP3   OH224096   3.452   3.053   6.135
 8052TIP3    H124097   3.491   3.004   6.208
 8052TIP3    H224098   3.364   3.074   6.164
 8053TIP3   OH224099   2.843   4.539   0.036
 8053TIP3    H124100   2.759   4.586   0.035
 8053TIP3    H224101   2.899   4.591   0.093
 8054TIP3   OH224102   3.102   3.306   0.795
 8054TIP3    H124103   3.121   3.213   0.786
 8054TIP3    H224104   3.103   3.339   0.705
 8055TIP3   OH224105   6.805   4.127   0.870
 8055TIP3    H124106   6.884   4.148   0.919
 8055TIP3    H224107   6.742   4.195   0.897
 8056TIP3   OH224108   3.383   4.663   1.519
 8056TIP3    H124109   3.357   4.734   1.461
 8056TIP3    H224110   3.367   4.696   1.607
 8057TIP3   OH224111   1.406   6.568   2.025
 8057TIP3    H124112   1.501   6.560   2.024
 8057TIP3    H224113   1.383   6.595   1.936
 8058TIP3   OH224114   5.359   5.931   2.311
 8058TIP3    H124115   5.351   5.858   2.372
 8058TIP3    H224116   5.271   5.967   2.306
 8059TIP3   OH224117   7.624   7.697   5.242
 8059TIP3    H124118   7.661   7.669   5.158
 8059TIP3    H224119   7.693   7.750   5.282
 8060TIP3   OH224120   0.465   6.558   3.681
 8060TIP3    H124121   0.508   6.581   3.763
 8060TIP3    H224122   0.493   6.469   3.662
 8061TIP3   OH224123   3.537   7.140   4.461
 8061TIP3    H124124   3.472   7.210   4.467
 8061TIP3    H224125   3.487   7.059   4.473
 8062TIP3   OH224126   6.104   7.359   5.917
 8062TIP3    H124127   6.010   7.348   5.910
 8062TIP3    H224128   6.137   7.274   5.945
 8063TIP3   OH224129   5.074   5.157   0.643
 8063TIP3    H124130   5.121   5.171   0.561
 8063TIP3    H224131   5.059   5.244   0.678
 8064TIP3   OH224132   2.870   6.393   4.963
 8064TIP3    H124133   2.898   6.477   4.926
 8064TIP3    H224134   2.774   6.395   4.958
 8065TIP3   OH224135   7.675   0.825   1.041
 8065TIP3    H124136   7.678   0.836   0.946
 8065TIP3    H224137   7.583   0.837   1.063
 8066TIP3   OH224138   6.720   3.356   3.239
 8066TIP3    H124139   6.745   3.349   3.147
 8066TIP3    H224140   6.722   3.450   3.257
 8067TIP3   OH224141   5.997   5.811   2.284
 8067TIP3    H124142   5.939   5.823   2.208
 8067TIP3    H224143   5.968   5.728   2.323
 8068TIP3   OH224144   3.451   1.422   2.363
 8068TIP3    H124145   3.381   1.421   2.428
 8068TIP3    H224146   3.406   1.438   2.280
 8069TIP3   OH224147   5.624   1.949   1.520
 8069TIP3    H124148   5.537   1.988   1.527
 8069TIP3    H224149   5.610   1.865   1.477
 8070TIP3   OH224150   7.117   4.925   1.046
 8070TIP3    H124151   7.192   4.885   1.001
 8070TIP3    H224152   7.121   4.890   1.135
 8071TIP3   OH224153   1.617   4.448   4.159
 8071TIP3    H124154   1.601   4.367   4.111
 8071TIP3    H224155   1.545   4.506   4.134
 8072TIP3   OH224156   0.453   1.531   1.536
 8072TIP3    H124157   0.419   1.575   1.458
 8072TIP3    H224158   0.389   1.549   1.604
 8073TIP3   OH224159   8.279   0.579   4.702
 8073TIP3    H124160   8.338   0.644   4.663
 8073TIP3    H224161   8.225   0.549   4.629
 8074TIP3   OH224162   6.511   2.478   6.683
 8074TIP3    H124163   6.462   2.542   6.734
 8074TIP3    H224164   6.467   2.394   6.701
 8075TIP3   OH224165   7.030   2.390   4.050
 8075TIP3    H124166   6.947   2.407   4.004
 8075TIP3    H224167   7.048   2.298   4.032
 8076TIP3   OH224168   5.103   4.536   6.490
 8076TIP3    H124169   5.159   4.602   6.531
 8076TIP3    H224170   5.165   4.474   6.451
 8077TIP3   OH224171   1.595   4.291   2.099
 8077TIP3    H124172   1.596   4.368   2.156
 8077TIP3    H224173   1.508   4.292   2.060
 8078TIP3   OH224174   5.746   7.755   6.610
 8078TIP3    H124175   5.694   7.812   6.667
 8078TIP3    H224176   5.808   7.713   6.669
 8079TIP3   OH224177   8.310   2.854   2.932
 8079TIP3    H124178   8.295   2.948   2.936
 8079TIP3    H224179   8.396   2.845   2.891
 8080TIP3   OH224180   1.432   1.107   6.242
 8080TIP3    H124181   1.509   1.074   6.288
 8080TIP3    H224182   1.431   1.201   6.260
 8081TIP3   OH224183   1.311   1.759   6.384
 8081TIP3    H124184   1.311   1.782   6.477
 8081TIP3    H224185   1.257   1.825   6.342
 8082TIP3   OH224186   8.447   6.071   2.381
 8082TIP3    H124187   8.388   6.110   2.316
 8082TIP3    H224188   8.390   6.048   2.454
 8083TIP3   OH224189   4.881   3.499   5.326
 8083TIP3    H124190   4.931   3.569   5.368
 8083TIP3    H224191   4.906   3.503   5.234
 8084TIP3   OH224192   7.086   4.492   2.281
 8084TIP3    H124193   7.157   4.431   2.298
 8084TIP3    H224194   7.020   4.471   2.347
 8085TIP3   OH224195   4.525   2.021   5.133
 8085TIP3    H124196   4.588   1.958   5.097
 8085TIP3    H224197   4.535   2.013   5.227
 8086TIP3   OH224198   5.798   3.524   4.238
 8086TIP3    H124199   5.729   3.591   4.234
 8086TIP3    H224200   5.825   3.512   4.147
 8087TIP3   OH224201   6.573   5.959   3.208
 8087TIP3    H124202   6.528   5.921   3.284
 8087TIP3    H224203   6.660   5.981   3.241
 8088TIP3   OH224204   2.760   6.915   5.754
 8088TIP3    H124205   2.704   6.860   5.808
 8088TIP3    H224206   2.749   6.881   5.665
 8089TIP3   OH224207   0.487   0.384   4.874
 8089TIP3    H124208   0.506   0.334   4.795
 8089TIP3    H224209   0.398   0.418   4.860
 8090TIP3   OH224210   6.267   2.684   4.022
 8090TIP3    H124211   6.306   2.764   3.990
 8090TIP3    H224212   6.308   2.614   3.971
 8091TIP3   OH224213   7.588   6.246   3.041
 8091TIP3    H124214   7.539   6.248   2.959
 8091TIP3    H224215   7.583   6.335   3.075
 8092TIP3   OH224216   4.776   1.107   0.826
 8092TIP3    H124217   4.822   1.027   0.801
 8092TIP3    H224218   4.685   1.090   0.803
 8093TIP3   OH224219   3.927   7.427   3.489
 8093TIP3    H124220   3.861   7.378   3.538
 8093TIP3    H224221   4.001   7.433   3.549
 8094TIP3   OH224222   4.124   6.386   5.882
 8094TIP3    H124223   4.086   6.445   5.947
 8094TIP3    H224224   4.186   6.440   5.833
 8095TIP3   OH224225   2.534   4.920   5.770
 8095TIP3    H124226   2.440   4.917   5.785
 8095TIP3    H224227   2.562   5.002   5.811
 8096TIP3   OH224228   7.167   4.540   1.297
 8096TIP3    H124229   7.115   4.513   1.221
 8096TIP3    H224230   7.152   4.471   1.361
 8097TIP3   OH224231   3.926   0.403   0.179
 8097TIP3    H124232   3.856   0.467   0.193
 8097TIP3    H224233   4.002   0.440   0.224
 8098TIP3   OH224234   5.617   5.799   2.871
 8098TIP3    H124235   5.593   5.711   2.841
 8098TIP3    H224236   5.622   5.792   2.966
 8099TIP3   OH224237   2.674   1.741   5.104
 8099TIP3    H124238   2.594   1.691   5.116
 8099TIP3    H224239   2.654   1.829   5.136
 8100TIP3   OH224240   5.951   3.543   6.593
 8100TIP3    H124241   5.935   3.625   6.639
 8100TIP3    H224242   5.981   3.569   6.506
 8101TIP3   OH224243   7.813   4.600   5.696
 8101TIP3    H124244   7.793   4.593   5.603
 8101TIP3    H224245   7.786   4.688   5.720
 8102TIP3   OH224246   4.618   7.236   4.201
 8102TIP3    H124247   4.644   7.291   4.275
 8102TIP3    H224248   4.603   7.298   4.129
 8103TIP3   OH224249   1.476   5.238   2.550
 8103TIP3    H124250   1.414   5.260   2.479
 8103TIP3    H224251   1.562   5.240   2.508
 8104TIP3   OH224252   3.914   6.470   6.625
 8104TIP3    H124253   3.878   6.382   6.609
 8104TIP3    H224254   3.901   6.483   6.719
 8105TIP3   OH224255   8.045   0.767   6.230
 8105TIP3    H124256   8.127   0.719   6.240
 8105TIP3    H224257   8.046   0.832   6.300
 8106TIP3   OH224258   7.187   1.328   4.360
 8106TIP3    H124259   7.251   1.309   4.429
 8106TIP3    H224260   7.237   1.377   4.295
 8107TIP3   OH224261   7.505   1.356   4.545
 8107TIP3    H124262   7.498   1.261   4.536
 8107TIP3    H224263   7.599   1.372   4.557
 8108TIP3   OH224264   3.682   7.661   6.785
 8108TIP3    H124265   3.747   7.692   6.848
 8108TIP3    H224266   3.599   7.666   6.832
 8109TIP3   OH224267   3.272   6.066   2.165
 8109TIP3    H124268   3.235   6.010   2.234
 8109TIP3    H224269   3.207   6.063   2.095
 8110TIP3   OH224270   5.307   3.224   4.367
 8110TIP3    H124271   5.283   3.204   4.277
 8110TIP3    H224272   5.364   3.151   4.393
 8111TIP3   OH224273   5.418   3.098   5.694
 8111TIP3    H124274   5.356   3.111   5.621
 8111TIP3    H224275   5.379   3.145   5.767
 8112TIP3   OH224276   1.641   0.173   3.180
 8112TIP3    H124277   1.592   0.169   3.098
 8112TIP3    H224278   1.729   0.201   3.153
 8113TIP3   OH224279   0.329   3.024   4.393
 8113TIP3    H124280   0.391   2.972   4.342
 8113TIP3    H224281   0.324   3.108   4.348
 8114TIP3   OH224282   6.676   4.029   5.793
 8114TIP3    H124283   6.692   3.935   5.792
 8114TIP3    H224284   6.672   4.054   5.701
 8115TIP3   OH224285   7.452   5.266   3.396
 8115TIP3    H124286   7.396   5.199   3.358
 8115TIP3    H224287   7.484   5.317   3.321
 8116TIP3   OH224288   4.474   0.140   5.629
 8116TIP3    H124289   4.532   0.122   5.702
 8116TIP3    H224290   4.414   0.207   5.662
 8117TIP3   OH224291   1.590   7.078   2.554
 8117TIP3    H124292   1.503   7.065   2.591
 8117TIP3    H224293   1.644   7.012   2.596
 8118TIP3   OH224294   6.010   3.170   2.970
 8118TIP3    H124295   5.920   3.202   2.959
 8118TIP3    H224296   6.065   3.247   2.956
 8119TIP3   OH224297   6.953   2.952   2.181
 8119TIP3    H124298   7.011   2.890   2.225
 8119TIP3    H224299   6.909   2.899   2.114
 8120TIP3   OH224300   7.998   5.905   6.101
 8120TIP3    H124301   7.928   5.871   6.157
 8120TIP3    H224302   7.953   5.932   6.021
 8121TIP3   OH224303   1.833   7.621   1.716
 8121TIP3    H124304   1.916   7.576   1.731
 8121TIP3    H224305   1.858   7.708   1.686
 8122TIP3   OH224306   4.383   1.980   5.662
 8122TIP3    H124307   4.468   2.017   5.636
 8122TIP3    H224308   4.319   2.029   5.610
 8123TIP3   OH224309   5.666   1.846   3.520
 8123TIP3    H124310   5.638   1.908   3.588
 8123TIP3    H224311   5.634   1.884   3.438
 8124TIP3   OH224312   2.430   5.683   2.721
 8124TIP3    H124313   2.438   5.626   2.644
 8124TIP3    H224314   2.438   5.772   2.686
 8125TIP3   OH224315   3.830   7.011   6.688
 8125TIP3    H124316   3.818   6.918   6.665
 8125TIP3    H224317   3.863   7.009   6.778
 8126TIP3   OH224318   3.900   0.847   6.190
 8126TIP3    H124319   3.879   0.830   6.098
 8126TIP3    H224320   3.954   0.926   6.188
 8127TIP3   OH224321   3.742   6.217   5.614
 8127TIP3    H124322   3.830   6.187   5.638
 8127TIP3    H224323   3.713   6.268   5.689
 8128TIP3   OH224324   2.760   6.060   0.559
 8128TIP3    H124325   2.745   6.154   0.562
 8128TIP3    H224326   2.835   6.049   0.501
 8129TIP3   OH224327   0.752   1.753   3.102
 8129TIP3    H124328   0.814   1.754   3.174
 8129TIP3    H224329   0.767   1.836   3.057
 8130TIP3   OH224330   1.043   3.998   3.758
 8130TIP3    H124331   0.975   3.931   3.748
 8130TIP3    H224332   1.122   3.958   3.724
 8131TIP3   OH224333   2.115   7.667   6.442
 8131TIP3    H124334   2.019   7.659   6.436
 8131TIP3    H224335   2.142   7.695   6.354
 8132TIP3   OH224336   7.895   5.512   5.164
 8132TIP3    H124337   7.825   5.448   5.179
 8132TIP3    H224338   7.975   5.459   5.159
 8133TIP3   OH224339   4.825   6.814   0.804
 8133TIP3    H124340   4.916   6.815   0.774
 8133TIP3    H224341   4.807   6.722   0.821
 8134TIP3   OH224342   6.321   7.835   2.413
 8134TIP3    H124343   6.315   7.817   2.507
 8134TIP3    H224344   6.256   7.903   2.398
 8135TIP3   OH224345   3.799   5.549   5.910
 8135TIP3    H124346   3.821   5.619   5.971
 8135TIP3    H224347   3.758   5.482   5.964
 8136TIP3   OH224348   2.957   6.153   1.240
 8136TIP3    H124349   3.043   6.196   1.242
 8136TIP3    H224350   2.908   6.196   1.311
 8137TIP3   OH224351   5.784   1.035   0.318
 8137TIP3    H124352   5.722   1.000   0.382
 8137TIP3    H224353   5.852   1.076   0.371
 8138TIP3   OH224354   3.766   4.202   0.812
 8138TIP3    H124355   3.795   4.195   0.721
 8138TIP3    H224356   3.838   4.165   0.863
 8139TIP3   OH224357   4.810   1.862   6.605
 8139TIP3    H124358   4.731   1.913   6.621
 8139TIP3    H224359   4.882   1.924   6.618
 8140TIP3   OH224360   0.805   3.434   3.075
 8140TIP3    H124361   0.837   3.524   3.078
 8140TIP3    H224362   0.875   3.386   3.030
 8141TIP3   OH224363   3.162   1.069   3.357
 8141TIP3    H124364   3.204   0.998   3.309
 8141TIP3    H224365   3.106   1.024   3.421
 8142TIP3   OH224366   3.437   4.339   5.077
 8142TIP3    H124367   3.409   4.383   5.157
 8142TIP3    H224368   3.408   4.248   5.088
 8143TIP3   OH224369   3.006   3.221   3.397
 8143TIP3    H124370   3.093   3.244   3.429
 8143TIP3    H224371   3.019   3.140   3.348
 8144TIP3   OH224372   7.729   1.583   1.203
 8144TIP3    H124373   7.778   1.616   1.278
 8144TIP3    H224374   7.714   1.491   1.223
 8145TIP3   OH224375   7.457   3.339   1.030
 8145TIP3    H124376   7.505   3.386   1.098
 8145TIP3    H224377   7.425   3.407   0.971
 8146TIP3   OH224378   5.992   4.004   2.546
 8146TIP3    H124379   6.083   4.018   2.520
 8146TIP3    H224380   5.998   3.946   2.622
 8147TIP3   OH224381   8.102   3.252   0.914
 8147TIP3    H124382   8.067   3.170   0.949
 8147TIP3    H224383   8.183   3.266   0.963
 8148TIP3   OH224384   3.874   7.731   4.169
 8148TIP3    H124385   3.819   7.805   4.144
 8148TIP3    H224386   3.813   7.664   4.199
 8149TIP3   OH224387   7.802   0.467   3.029
 8149TIP3    H124388   7.718   0.497   2.995
 8149TIP3    H224389   7.865   0.534   3.000
 8150TIP3   OH224390   6.410   1.175   1.943
 8150TIP3    H124391   6.330   1.164   1.994
 8150TIP3    H224392   6.431   1.086   1.913
 8151TIP3   OH224393   8.201   4.579   1.601
 8151TIP3    H124394   8.281   4.630   1.599
 8151TIP3    H224395   8.218   4.510   1.665
 8152TIP3   OH224396   3.060   4.824   5.382
 8152TIP3    H124397   3.155   4.819   5.392
 8152TIP3    H224398   3.045   4.793   5.292
 8153TIP3   OH224399   0.058   4.024   3.792
 8153TIP3    H124400   0.037   4.052   3.881
 8153TIP3    H224401   0.074   4.105   3.745
 8154TIP3   OH224402   1.228   3.587  -0.044
 8154TIP3    H124403   1.154   3.631  -0.001
 8154TIP3    H224404   1.221   3.496  -0.015
 8155TIP3   OH224405   0.399   3.569   4.651
 8155TIP3    H124406   0.367   3.651   4.613
 8155TIP3    H224407   0.486   3.590   4.685
 8156TIP3   OH224408   7.399   5.904   1.884
 8156TIP3    H124409   7.378   5.954   1.805
 8156TIP3    H224410   7.490   5.876   1.872
 8157TIP3   OH224411   2.314   6.680   5.335
 8157TIP3    H124412   2.370   6.757   5.347
 8157TIP3    H224413   2.232   6.716   5.301
 8158TIP3   OH224414   4.972   3.206   2.408
 8158TIP3    H124415   5.032   3.243   2.344
 8158TIP3    H224416   4.963   3.114   2.382
 8159TIP3   OH224417   4.625   3.607   0.453
 8159TIP3    H124418   4.594   3.535   0.507
 8159TIP3    H224419   4.688   3.653   0.508
 8160TIP3   OH224420   4.390   0.679   3.750
 8160TIP3    H124421   4.370   0.724   3.668
 8160TIP3    H224422   4.471   0.719   3.780
 8161TIP3   OH224423   4.563   3.063   3.305
 8161TIP3    H124424   4.587   3.068   3.213
 8161TIP3    H224425   4.498   3.132   3.317
 8162TIP3   OH224426   3.899   2.525   2.249
 8162TIP3    H124427   3.901   2.432   2.269
 8162TIP3    H224428   3.904   2.569   2.334
 8163TIP3   OH224429   0.466   2.469   6.176
 8163TIP3    H124430   0.388   2.445   6.126
 8163TIP3    H224431   0.465   2.564   6.178
 8164TIP3   OH224432   4.630   5.518   5.524
 8164TIP3    H124433   4.538   5.501   5.504
 8164TIP3    H224434   4.660   5.575   5.454
 8165TIP3   OH224435   2.878   7.020   2.044
 8165TIP3    H124436   2.850   7.112   2.037
 8165TIP3    H224437   2.800   6.973   2.073
 8166TIP3   OH224438   2.106   4.636   2.480
 8166TIP3    H124439   2.063   4.614   2.562
 8166TIP3    H224440   2.122   4.731   2.485
 8167TIP3   OH224441   5.904   7.397   1.527
 8167TIP3    H124442   5.916   7.379   1.620
 8167TIP3    H224443   5.988   7.431   1.498
 8168TIP3   OH224444   0.678   3.838   5.810
 8168TIP3    H124445   0.620   3.762   5.808
 8168TIP3    H224446   0.720   3.838   5.724
 8169TIP3   OH224447   6.889   5.357   0.535
 8169TIP3    H124448   6.909   5.314   0.452
 8169TIP3    H224449   6.796   5.378   0.528
 8170TIP3   OH224450   8.010   0.805   3.989
 8170TIP3    H124451   8.061   0.725   4.003
 8170TIP3    H224452   7.926   0.773   3.955
 8171TIP3   OH224453   5.631   5.177   6.695
 8171TIP3    H124454   5.603   5.152   6.783
 8171TIP3    H224455   5.550   5.191   6.647
 8172TIP3   OH224456   3.439   1.791   0.075
 8172TIP3    H124457   3.404   1.714   0.030
 8172TIP3    H224458   3.368   1.820   0.132
 8173TIP3   OH224459   3.849   7.787   0.845
 8173TIP3    H124460   3.934   7.764   0.808
 8173TIP3    H224461   3.866   7.862   0.901
 8174TIP3   OH224462   1.547   1.817   5.425
 8174TIP3    H124463   1.619   1.775   5.472
 8174TIP3    H224464   1.590   1.874   5.362
 8175TIP3   OH224465   0.112   3.622   2.491
 8175TIP3    H124466   0.061   3.546   2.520
 8175TIP3    H224467   0.191   3.584   2.452
 8176TIP3   OH224468   3.674   4.214   2.583
 8176TIP3    H124469   3.757   4.178   2.615
 8176TIP3    H224470   3.674   4.195   2.489
 8177TIP3   OH224471   2.975   7.444   5.613
 8177TIP3    H124472   2.894   7.401   5.640
 8177TIP3    H224473   2.968   7.448   5.517
 8178TIP3   OH224474   7.217   3.631   0.445
 8178TIP3    H124475   7.162   3.586   0.381
 8178TIP3    H224476   7.167   3.707   0.471
 8179TIP3   OH224477   3.239   4.280   6.484
 8179TIP3    H124478   3.210   4.291   6.393
 8179TIP3    H224479   3.162   4.298   6.537
 8180TIP3   OH224480   4.098   3.501   4.899
 8180TIP3    H124481   4.058   3.442   4.962
 8180TIP3    H224482   4.083   3.460   4.814
 8181TIP3   OH224483   6.104   0.721   4.040
 8181TIP3    H124484   6.130   0.802   3.996
 8181TIP3    H224485   6.009   0.724   4.044
 8182TIP3   OH224486   0.156   4.103   1.382
 8182TIP3    H124487   0.208   4.029   1.412
 8182TIP3    H224488   0.086   4.064   1.329
 8183TIP3   OH224489   6.652   4.458   4.231
 8183TIP3    H124490   6.655   4.456   4.327
 8183TIP3    H224491   6.633   4.367   4.206
 8184TIP3   OH224492   2.849   4.184   5.336
 8184TIP3    H124493   2.856   4.121   5.407
 8184TIP3    H224494   2.894   4.262   5.369
 8185TIP3   OH224495   4.672   5.483   3.914
 8185TIP3    H124496   4.602   5.544   3.934
 8185TIP3    H224497   4.671   5.420   3.986
 8186TIP3   OH224498   4.045   1.485   5.004
 8186TIP3    H124499   4.071   1.574   5.026
 8186TIP3    H224500   4.032   1.441   5.088
 8187TIP3   OH224501   2.324   1.574   1.698
 8187TIP3    H124502   2.392   1.520   1.738
 8187TIP3    H224503   2.249   1.567   1.756
 8188TIP3   OH224504   3.804   3.549   3.196
 8188TIP3    H124505   3.815   3.644   3.194
 8188TIP3    H224506   3.851   3.518   3.119
 8189TIP3   OH224507   3.152   2.655   5.089
 8189TIP3    H124508   3.088   2.624   5.025
 8189TIP3    H224509   3.104   2.653   5.172
 8190TIP3   OH224510   4.170   5.672   5.962
 8190TIP3    H124511   4.204   5.689   6.049
 8190TIP3    H224512   4.100   5.608   5.975
 8191TIP3   OH224513   4.635   1.768   0.285
 8191TIP3    H124514   4.609   1.695   0.340
 8191TIP3    H224515   4.730   1.771   0.292
 8192TIP3   OH224516   1.214   5.405   0.757
 8192TIP3    H124517   1.297   5.453   0.752
 8192TIP3    H224518   1.241   5.314   0.770
 8193TIP3   OH224519   0.073   0.570   3.323
 8193TIP3    H124520   0.055   0.563   3.229
 8193TIP3    H224521  -0.002   0.618   3.358
 8194TIP3   OH224522   7.488   2.484   2.329
 8194TIP3    H124523   7.428   2.486   2.255
 8194TIP3    H224524   7.568   2.524   2.297
 8195TIP3   OH224525   0.721   4.433   5.408
 8195TIP3    H124526   0.683   4.397   5.488
 8195TIP3    H224527   0.815   4.442   5.427
 8196TIP3   OH224528   7.781   0.216   4.758
 8196TIP3    H124529   7.854   0.226   4.697
 8196TIP3    H224530   7.747   0.304   4.770
 8197TIP3   OH224531   3.340   3.904   1.318
 8197TIP3    H124532   3.407   3.966   1.290
 8197TIP3    H224533   3.309   3.864   1.236
 8198TIP3   OH224534   5.198   7.861   0.536
 8198TIP3    H124535   5.130   7.923   0.564
 8198TIP3    H224536   5.222   7.890   0.448
 8199TIP3   OH224537   4.520   7.170   3.785
 8199TIP3    H124538   4.524   7.079   3.755
 8199TIP3    H224539   4.567   7.219   3.718
 8200TIP3   OH224540   6.011   3.683   6.373
 8200TIP3    H124541   6.089   3.671   6.319
 8200TIP3    H224542   5.965   3.756   6.333
 8201TIP3   OH224543   1.847   5.044   0.235
 8201TIP3    H124544   1.838   5.116   0.172
 8201TIP3    H224545   1.851   4.965   0.181
 8202TIP3   OH224546   0.135   7.388   4.851
 8202TIP3    H124547   0.146   7.389   4.946
 8202TIP3    H224548   0.143   7.296   4.827
 8203TIP3   OH224549   1.308   5.515   1.818
 8203TIP3    H124550   1.383   5.573   1.825
 8203TIP3    H224551   1.239   5.568   1.780
 8204TIP3   OH224552   1.470   5.533   2.135
 8204TIP3    H124553   1.514   5.453   2.107
 8204TIP3    H224554   1.377   5.513   2.126
 8205TIP3   OH224555   4.200   2.627   2.849
 8205TIP3    H124556   4.225   2.536   2.863
 8205TIP3    H224557   4.226   2.671   2.930
 8206TIP3   OH224558   6.437   3.720   2.164
 8206TIP3    H124559   6.459   3.726   2.071
 8206TIP3    H224560   6.352   3.676   2.165
 8207TIP3   OH224561   8.303   4.906   5.089
 8207TIP3    H124562   8.307   4.985   5.035
 8207TIP3    H224563   8.247   4.847   5.040
 8208TIP3   OH224564   7.553   0.568   2.950
 8208TIP3    H124565   7.489   0.574   2.879
 8208TIP3    H224566   7.609   0.645   2.938
 8209TIP3   OH224567   0.847   7.546   5.302
 8209TIP3    H124568   0.898   7.550   5.221
 8209TIP3    H224569   0.765   7.589   5.281
 8210TIP3   OH224570   4.397   6.677   4.286
 8210TIP3    H124571   4.353   6.719   4.359
 8210TIP3    H224572   4.479   6.726   4.276
 8211TIP3   OH224573  -0.050   0.058   6.299
 8211TIP3    H124574   0.032   0.097   6.268
 8211TIP3    H224575  -0.088   0.017   6.222
 8212TIP3   OH224576   6.589   2.550   6.372
 8212TIP3    H124577   6.576   2.645   6.377
 8212TIP3    H224578   6.680   2.536   6.399
 8213TIP3   OH224579   1.217   4.989   3.392
 8213TIP3    H124580   1.290   4.977   3.452
 8213TIP3    H224581   1.168   4.907   3.397
 8214TIP3   OH224582   6.901   0.864   5.029
 8214TIP3    H124583   6.809   0.880   5.009
 8214TIP3    H224584   6.920   0.925   5.101
 8215TIP3   OH224585   6.799   1.024   4.380
 8215TIP3    H124586   6.829   1.056   4.465
 8215TIP3    H224587   6.870   0.968   4.349
 8216TIP3   OH224588   0.385   2.656   2.879
 8216TIP3    H124589   0.396   2.638   2.786
 8216TIP3    H224590   0.334   2.581   2.912
 8217TIP3   OH224591   0.752   6.194   4.579
 8217TIP3    H124592   0.745   6.099   4.587
 8217TIP3    H224593   0.843   6.209   4.556
 8218TIP3   OH224594   4.371   6.466   1.536
 8218TIP3    H124595   4.328   6.392   1.577
 8218TIP3    H224596   4.447   6.428   1.491
 8219TIP3   OH224597   3.954   0.859   1.784
 8219TIP3    H124598   3.900   0.853   1.863
 8219TIP3    H224599   3.901   0.815   1.716
 8220TIP3   OH224600   2.677   4.030   5.191
 8220TIP3    H124601   2.603   4.071   5.234
 8220TIP3    H224602   2.753   4.053   5.246
 8221TIP3   OH224603   4.243   7.486   0.883
 8221TIP3    H124604   4.252   7.497   0.788
 8221TIP3    H224605   4.332   7.471   0.914
 8222TIP3   OH224606   6.886   6.310   3.261
 8222TIP3    H124607   6.872   6.367   3.186
 8222TIP3    H224608   6.863   6.223   3.230
 8223TIP3   OH224609   1.877   0.436   5.239
 8223TIP3    H124610   1.880   0.372   5.167
 8223TIP3    H224611   1.968   0.454   5.258
 8224TIP3   OH224612   0.929   0.832   6.357
 8224TIP3    H124613   0.987   0.757   6.347
 8224TIP3    H224614   0.894   0.847   6.268
 8225TIP3   OH224615   3.788   6.768   6.560
 8225TIP3    H124616   3.732   6.768   6.483
 8225TIP3    H224617   3.876   6.750   6.526
 8226TIP3   OH224618   0.207   0.950   0.580
 8226TIP3    H124619   0.256   1.008   0.638
 8226TIP3    H224620   0.181   1.005   0.506
 8227TIP3   OH224621   4.903   4.784   3.330
 8227TIP3    H124622   4.819   4.802   3.287
 8227TIP3    H224623   4.943   4.870   3.341
 8228TIP3   OH224624   6.486   7.114   5.234
 8228TIP3    H124625   6.480   7.145   5.325
 8228TIP3    H224626   6.537   7.033   5.240
 8229TIP3   OH224627   4.792   7.387   4.736
 8229TIP3    H124628   4.710   7.340   4.754
 8229TIP3    H224629   4.774   7.478   4.761
 8230TIP3   OH224630   6.341   5.942   0.202
 8230TIP3    H124631   6.276   6.010   0.186
 8230TIP3    H224632   6.377   5.963   0.288
 8231TIP3   OH224633   1.251   7.187   6.047
 8231TIP3    H124634   1.221   7.112   6.098
 8231TIP3    H224635   1.184   7.254   6.061
 8232TIP3   OH224636   5.382   1.418   4.229
 8232TIP3    H124637   5.417   1.379   4.149
 8232TIP3    H224638   5.457   1.462   4.269
 8233TIP3   OH224639   1.807   7.890   3.771
 8233TIP3    H124640   1.842   7.908   3.858
 8233TIP3    H224641   1.824   7.797   3.757
 8234TIP3   OH224642   6.636   0.761   1.954
 8234TIP3    H124643   6.583   0.798   2.024
 8234TIP3    H224644   6.624   0.666   1.961
 8235TIP3   OH224645   5.128   7.655   5.253
 8235TIP3    H124646   5.143   7.749   5.247
 8235TIP3    H224647   5.126   7.624   5.163
 8236TIP3   OH224648   7.181   5.758   0.094
 8236TIP3    H124649   7.221   5.846   0.092
 8236TIP3    H224650   7.102   5.767   0.041
 8237TIP3   OH224651   5.218   0.231   2.934
 8237TIP3    H124652   5.190   0.140   2.944
 8237TIP3    H224653   5.157   0.269   2.871
 8238TIP3   OH224654   7.580   2.129   5.078
 8238TIP3    H124655   7.498   2.127   5.128
 8238TIP3    H224656   7.618   2.214   5.098
 8239TIP3   OH224657   8.162   4.392   3.182
 8239TIP3    H124658   8.110   4.365   3.258
 8239TIP3    H224659   8.252   4.393   3.213
 8240TIP3   OH224660   7.154   0.807   6.675
 8240TIP3    H124661   7.250   0.808   6.669
 8240TIP3    H224662   7.129   0.725   6.631
 8241TIP3   OH224663   5.881   7.865   3.152
 8241TIP3    H124664   5.938   7.860   3.229
 8241TIP3    H224665   5.801   7.819   3.178
 8242TIP3   OH224666   5.937   1.998   4.378
 8242TIP3    H124667   5.865   2.058   4.397
 8242TIP3    H224668   6.014   2.038   4.418
 8243TIP3   OH224669   0.524   3.185   3.239
 8243TIP3    H124670   0.552   3.171   3.149
 8243TIP3    H224671   0.591   3.243   3.276
 8244TIP3   OH224672   2.895   3.975   4.368
 8244TIP3    H124673   2.837   3.924   4.424
 8244TIP3    H224674   2.951   3.910   4.326
 8245TIP3   OH224675   6.987   1.032   0.358
 8245TIP3    H124676   6.994   0.941   0.385
 8245TIP3    H224677   7.027   1.081   0.430
 8246TIP3   OH224678   2.812   6.031   1.054
 8246TIP3    H124679   2.802   6.085   0.976
 8246TIP3    H224680   2.874   6.078   1.110
 8247TIP3   OH224681   2.596   2.605   4.920
 8247TIP3    H124682   2.553   2.570   4.998
 8247TIP3    H224683   2.663   2.540   4.899
 8248TIP3   OH224684   0.516   3.133   6.370
 8248TIP3    H124685   0.466   3.052   6.372
 8248TIP3    H224686   0.544   3.145   6.461
 8249TIP3   OH224687   2.661   3.830   1.562
 8249TIP3    H124688   2.591   3.892   1.583
 8249TIP3    H224689   2.732   3.885   1.528
 8250TIP3   OH224690   6.825   7.396   1.396
 8250TIP3    H124691   6.890   7.353   1.340
 8250TIP3    H224692   6.757   7.330   1.408
 8251TIP3   OH224693   5.790   5.004   6.096
 8251TIP3    H124694   5.710   5.045   6.063
 8251TIP3    H224695   5.760   4.949   6.168
 8252TIP3   OH224696   1.285   6.616   6.382
 8252TIP3    H124697   1.339   6.650   6.453
 8252TIP3    H224698   1.328   6.646   6.303
 8253TIP3   OH224699   4.468   4.823   4.890
 8253TIP3    H124700   4.389   4.876   4.881
 8253TIP3    H224701   4.526   4.875   4.945
 8254TIP3   OH224702   1.134   3.544   5.564
 8254TIP3    H124703   1.076   3.549   5.488
 8254TIP3    H224704   1.082   3.501   5.631
 8255TIP3   OH224705   2.682   0.307   1.873
 8255TIP3    H124706   2.729   0.358   1.806
 8255TIP3    H224707   2.624   0.370   1.915
 8256TIP3   OH224708   6.572   2.050   2.418
 8256TIP3    H124709   6.536   2.132   2.451
 8256TIP3    H224710   6.510   1.983   2.447
 8257TIP3   OH224711   4.634   5.964   2.283
 8257TIP3    H124712   4.628   6.060   2.282
 8257TIP3    H224713   4.728   5.947   2.278
 8258TIP3   OH224714   6.786   0.505   6.050
 8258TIP3    H124715   6.703   0.498   6.003
 8258TIP3    H224716   6.852   0.479   5.986
 8259TIP3   OH224717   7.609   6.568   5.564
 8259TIP3    H124718   7.648   6.650   5.594
 8259TIP3    H224719   7.684   6.511   5.547
 8260TIP3   OH224720   4.852   2.939   2.335
 8260TIP3    H124721   4.847   2.854   2.378
 8260TIP3    H224722   4.790   2.994   2.382
 8261TIP3   OH224723   7.804   0.360   6.395
 8261TIP3    H124724   7.836   0.309   6.320
 8261TIP3    H224725   7.724   0.316   6.422
 8262TIP3   OH224726   1.829   6.386   0.016
 8262TIP3    H124727   1.806   6.340   0.097
 8262TIP3    H224728   1.869   6.319  -0.039
 8263TIP3   OH224729   2.554   6.008   5.421
 8263TIP3    H124730   2.549   6.104   5.425
 8263TIP3    H224731   2.593   5.990   5.336
 8264TIP3   OH224732   8.346   7.668   5.497
 8264TIP3    H124733   8.377   7.723   5.569
 8264TIP3    H224734   8.289   7.604   5.539
 8265TIP3   OH224735   1.421   3.721   6.208
 8265TIP3    H124736   1.512   3.729   6.237
 8265TIP3    H224737   1.411   3.629   6.185
 8266TIP3   OH224738   5.300   5.407   2.026
 8266TIP3    H124739   5.228   5.355   2.063
 8266TIP3    H224740   5.262   5.495   2.015
 8267TIP3   OH224741   7.630   4.821   5.111
 8267TIP3    H124742   7.594   4.821   5.022
 8267TIP3    H224743   7.585   4.893   5.155
 8268TIP3   OH224744   6.846   6.143   4.948
 8268TIP3    H124745   6.834   6.157   4.854
 8268TIP3    H224746   6.759   6.159   4.985
 8269TIP3   OH224747   6.197   0.536   1.631
 8269TIP3    H124748   6.120   0.519   1.576
 8269TIP3    H224749   6.234   0.449   1.648
 8270TIP3   OH224750   2.316   6.876   3.882
 8270TIP3    H124751   2.281   6.789   3.863
 8270TIP3    H224752   2.361   6.901   3.801
 8271TIP3   OH224753   2.461   3.736   5.281
 8271TIP3    H124754   2.474   3.658   5.227
 8271TIP3    H224755   2.373   3.725   5.318
 8272TIP3   OH224756   2.497   5.126   1.908
 8272TIP3    H124757   2.505   5.207   1.857
 8272TIP3    H224758   2.426   5.144   1.970
 8273TIP3   OH224759   0.171   2.584   3.497
 8273TIP3    H124760   0.163   2.545   3.410
 8273TIP3    H224761   0.085   2.573   3.537
 8274TIP3   OH224762   1.424   2.680   4.276
 8274TIP3    H124763   1.333   2.649   4.274
 8274TIP3    H224764   1.451   2.680   4.185
 8275TIP3   OH224765   7.820   3.763   2.751
 8275TIP3    H124766   7.802   3.852   2.720
 8275TIP3    H224767   7.757   3.708   2.705
 8276TIP3   OH224768   0.273   5.950   4.163
 8276TIP3    H124769   0.271   5.992   4.077
 8276TIP3    H224770   0.249   5.859   4.144
 8277TIP3   OH224771   2.070   2.748   0.725
 8277TIP3    H124772   2.066   2.812   0.654
 8277TIP3    H224773   2.067   2.801   0.805
 8278TIP3   OH224774   7.471   1.680   2.998
 8278TIP3    H124775   7.453   1.587   3.012
 8278TIP3    H224776   7.425   1.725   3.069
 8279TIP3   OH224777   3.524   3.880   3.975
 8279TIP3    H124778   3.492   3.792   3.957
 8279TIP3    H224779   3.619   3.870   3.985
 8280TIP3   OH224780   0.201   5.614   5.741
 8280TIP3    H124781   0.209   5.531   5.787
 8280TIP3    H224782   0.138   5.664   5.793
 8281TIP3   OH224783   3.803   4.302   4.235
 8281TIP3    H124784   3.872   4.235   4.226
 8281TIP3    H224785   3.722   4.255   4.217
 8282TIP3   OH224786   7.992   0.582   3.285
 8282TIP3    H124787   8.078   0.614   3.313
 8282TIP3    H224788   7.982   0.617   3.196
 8283TIP3   OH224789   3.682   7.917   0.558
 8283TIP3    H124790   3.735   7.872   0.493
 8283TIP3    H224791   3.609   7.953   0.509
 8284TIP3   OH224792   4.260   2.077   5.058
 8284TIP3    H124793   4.348   2.040   5.056
 8284TIP3    H224794   4.239   2.094   4.967
 8285TIP3   OH224795   7.133   7.836   4.365
 8285TIP3    H124796   7.054   7.874   4.403
 8285TIP3    H224797   7.191   7.911   4.353
 8286TIP3   OH224798   0.293   4.945   3.257
 8286TIP3    H124799   0.267   4.853   3.260
 8286TIP3    H224800   0.211   4.994   3.253
 8287TIP3   OH224801   2.398   7.622   3.143
 8287TIP3    H124802   2.464   7.553   3.134
 8287TIP3    H224803   2.342   7.592   3.215
 8288TIP3   OH224804   4.279   5.923   5.930
 8288TIP3    H124805   4.241   5.837   5.949
 8288TIP3    H224806   4.269   5.972   6.012
 8289TIP3   OH224807   2.277   7.510   4.108
 8289TIP3    H124808   2.306   7.425   4.076
 8289TIP3    H224809   2.183   7.512   4.089
 8290TIP3   OH224810   1.484   5.221   4.597
 8290TIP3    H124811   1.572   5.186   4.603
 8290TIP3    H224812   1.477   5.282   4.670
 8291TIP3   OH224813   3.427   2.397   1.732
 8291TIP3    H124814   3.403   2.389   1.824
 8291TIP3    H224815   3.480   2.477   1.728
 8292TIP3   OH224816   4.652   5.136   4.350
 8292TIP3    H124817   4.655   5.134   4.445
 8292TIP3    H224818   4.640   5.044   4.324
 8293TIP3   OH224819   7.225   2.770   3.191
 8293TIP3    H124820   7.180   2.698   3.147
 8293TIP3    H224821   7.208   2.756   3.284
 8294TIP3   OH224822   8.318   4.383   6.296
 8294TIP3    H124823   8.402   4.338   6.301
 8294TIP3    H224824   8.271   4.337   6.226
 8295TIP3   OH224825   3.154   0.662   6.297
 8295TIP3    H124826   3.146   0.733   6.233
 8295TIP3    H224827   3.245   0.633   6.289
 8296TIP3   OH224828   6.252   3.726   1.531
 8296TIP3    H124829   6.193   3.675   1.475
 8296TIP3    H224830   6.339   3.693   1.510
 8297TIP3   OH224831   0.735   3.738   0.818
 8297TIP3    H124832   0.773   3.750   0.905
 8297TIP3    H224833   0.695   3.651   0.821
 8298TIP3   OH224834   1.615   2.590   3.061
 8298TIP3    H124835   1.533   2.637   3.051
 8298TIP3    H224836   1.677   2.655   3.095
 8299TIP3   OH224837   6.257   2.280   6.218
 8299TIP3    H124838   6.183   2.306   6.164
 8299TIP3    H224839   6.295   2.205   6.171
 8300TIP3   OH224840   2.881   4.957   1.668
 8300TIP3    H124841   2.898   4.886   1.729
 8300TIP3    H224842   2.786   4.955   1.655
 8301TIP3   OH224843   0.359   3.455   0.116
 8301TIP3    H124844   0.374   3.514   0.190
 8301TIP3    H224845   0.420   3.485   0.048
 8302TIP3   OH224846   2.152   0.138   1.863
 8302TIP3    H124847   2.175   0.061   1.810
 8302TIP3    H224848   2.057   0.132   1.873
 8303TIP3   OH224849   4.678   5.161   3.197
 8303TIP3    H124850   4.731   5.230   3.235
 8303TIP3    H224851   4.686   5.088   3.260
 8304TIP3   OH224852   4.631   0.577   5.446
 8304TIP3    H124853   4.665   0.603   5.360
 8304TIP3    H224854   4.573   0.503   5.428
 8305TIP3   OH224855   7.807   3.099   1.978
 8305TIP3    H124856   7.849   3.018   2.005
 8305TIP3    H224857   7.850   3.122   1.896
 8306TIP3   OH224858   1.661   7.140   4.725
 8306TIP3    H124859   1.729   7.074   4.741
 8306TIP3    H224860   1.610   7.142   4.807
 8307TIP3   OH224861   5.339   3.430   3.540
 8307TIP3    H124862   5.298   3.357   3.495
 8307TIP3    H224863   5.367   3.489   3.470
 8308TIP3   OH224864   1.756   4.181   0.322
 8308TIP3    H124865   1.817   4.159   0.252
 8308TIP3    H224866   1.747   4.276   0.316
 8309TIP3   OH224867   4.969   7.398   0.098
 8309TIP3    H124868   4.895   7.344   0.072
 8309TIP3    H224869   4.933   7.487   0.103
 8310TIP3   OH224870   1.205   5.509   2.095
 8310TIP3    H124871   1.188   5.516   2.001
 8310TIP3    H224872   1.118   5.518   2.135
 8311TIP3   OH224873   1.617   0.498   2.296
 8311TIP3    H124874   1.528   0.528   2.315
 8311TIP3    H224875   1.613   0.403   2.303
 8312TIP3   OH224876   4.438   0.384   1.308
 8312TIP3    H124877   4.450   0.417   1.219
 8312TIP3    H224878   4.400   0.297   1.297
 8313TIP3   OH224879   8.082   6.289   1.254
 8313TIP3    H124880   8.058   6.281   1.161
 8313TIP3    H224881   8.124   6.206   1.275
 8314TIP3   OH224882   3.834   5.080   5.553
 8314TIP3    H124883   3.862   5.169   5.572
 8314TIP3    H224884   3.749   5.071   5.597
 8315TIP3   OH224885   7.663   5.484   0.164
 8315TIP3    H124886   7.609   5.428   0.109
 8315TIP3    H224887   7.610   5.563   0.177
 8316TIP3   OH224888   2.017   1.570   1.745
 8316TIP3    H124889   2.050   1.549   1.833
 8316TIP3    H224890   1.924   1.551   1.749
 8317TIP3   OH224891   3.922   5.786   1.530
 8317TIP3    H124892   4.006   5.829   1.515
 8317TIP3    H224893   3.913   5.726   1.456
 8318TIP3   OH224894   4.057   6.941   4.837
 8318TIP3    H124895   4.025   6.943   4.927
 8318TIP3    H224896   3.979   6.927   4.784
 8319TIP3   OH224897   0.855   0.048   3.491
 8319TIP3    H124898   0.772   0.084   3.458
 8319TIP3    H224899   0.888   0.115   3.551
 8320TIP3   OH224900   3.081   2.184   3.678
 8320TIP3    H124901   3.051   2.132   3.604
 8320TIP3    H224902   3.115   2.120   3.741
 8321TIP3   OH224903   2.058   2.547   4.480
 8321TIP3    H124904   1.982   2.588   4.437
 8321TIP3    H224905   2.097   2.618   4.531
 8322TIP3   OH224906   7.121   7.844   3.301
 8322TIP3    H124907   7.203   7.820   3.343
 8322TIP3    H224908   7.134   7.934   3.272
 8323TIP3   OH224909   8.348   4.444   1.854
 8323TIP3    H124910   8.426   4.413   1.900
 8323TIP3    H224911   8.374   4.527   1.814
 8324TIP3   OH224912   8.231   0.945   6.689
 8324TIP3    H124913   8.286   1.023   6.683
 8324TIP3    H224914   8.192   0.935   6.602
 8325TIP3   OH224915   2.585   4.565   0.246
 8325TIP3    H124916   2.519   4.516   0.197
 8325TIP3    H224917   2.629   4.618   0.180
 8326TIP3   OH224918   5.428   0.882   0.381
 8326TIP3    H124919   5.416   0.957   0.438
 8326TIP3    H224920   5.511   0.844   0.408
 8327TIP3   OH224921   5.028   0.683   2.332
 8327TIP3    H124922   5.050   0.621   2.402
 8327TIP3    H224923   4.944   0.720   2.357
 8328TIP3   OH224924   0.403   7.072   4.971
 8328TIP3    H124925   0.411   7.110   5.058
 8328TIP3    H224926   0.309   7.061   4.957
 8329TIP3   OH224927   1.104   5.383   3.328
 8329TIP3    H124928   1.137   5.401   3.417
 8329TIP3    H224929   1.071   5.467   3.298
 8330TIP3   OH224930   7.418   4.734   3.839
 8330TIP3    H124931   7.393   4.707   3.751
 8330TIP3    H224932   7.412   4.829   3.838
 8331TIP3   OH224933   7.472   3.536   4.822
 8331TIP3    H124934   7.547   3.544   4.881
 8331TIP3    H224935   7.488   3.455   4.774
 8332TIP3   OH224936   5.631   3.947   3.105
 8332TIP3    H124937   5.692   3.981   3.039
 8332TIP3    H224938   5.593   4.025   3.145
 8333TIP3   OH224939   1.883   5.320   3.647
 8333TIP3    H124940   1.828   5.252   3.686
 8333TIP3    H224941   1.899   5.289   3.557
 8334TIP3   OH224942   6.566   7.514   2.256
 8334TIP3    H124943   6.536   7.603   2.239
 8334TIP3    H224944   6.506   7.481   2.324
 8335TIP3   OH224945   8.007   4.170   5.094
 8335TIP3    H124946   8.053   4.091   5.121
 8335TIP3    H224947   7.950   4.192   5.168
 8336TIP3   OH224948   7.129   7.826   5.564
 8336TIP3    H124949   7.217   7.826   5.603
 8336TIP3    H224950   7.144   7.846   5.472
 8337TIP3   OH224951   8.144   7.910   2.186
 8337TIP3    H124952   8.075   7.973   2.168
 8337TIP3    H224953   8.105   7.825   2.169
 8338TIP3   OH224954   4.437   3.661   3.258
 8338TIP3    H124955   4.520   3.708   3.264
 8338TIP3    H224956   4.370   3.728   3.272
 8339TIP3   OH224957   6.634   2.042   5.368
 8339TIP3    H124958   6.654   1.950   5.384
 8339TIP3    H224959   6.584   2.042   5.286
 8340TIP3   OH224960   4.986   5.985   1.593
 8340TIP3    H124961   5.074   6.017   1.614
 8340TIP3    H224962   5.001   5.909   1.536
 8341TIP3   OH224963   1.157   5.539   6.494
 8341TIP3    H124964   1.133   5.581   6.577
 8341TIP3    H224965   1.073   5.517   6.454
 8342TIP3   OH224966   6.266   2.217   5.480
 8342TIP3    H124967   6.304   2.294   5.522
 8342TIP3    H224968   6.323   2.144   5.506
 8343TIP3   OH224969   7.986   7.242   5.028
 8343TIP3    H124970   7.961   7.237   4.936
 8343TIP3    H224971   8.052   7.311   5.031
 8344TIP3   OH224972   1.653   5.583   4.781
 8344TIP3    H124973   1.721   5.648   4.796
 8344TIP3    H224974   1.593   5.592   4.855
 8345TIP3   OH224975   4.835   1.056   3.699
 8345TIP3    H124976   4.809   1.055   3.791
 8345TIP3    H224977   4.766   1.007   3.654
 8346TIP3   OH224978   7.446   0.520   4.356
 8346TIP3    H124979   7.444   0.585   4.285
 8346TIP3    H224980   7.483   0.567   4.430
 8347TIP3   OH224981   1.615   3.101   2.404
 8347TIP3    H124982   1.603   3.188   2.366
 8347TIP3    H224983   1.527   3.076   2.432
 8348TIP3   OH224984   6.919   6.229   3.535
 8348TIP3    H124985   6.890   6.279   3.459
 8348TIP3    H224986   6.901   6.287   3.609
 8349TIP3   OH224987   7.392   7.856   6.772
 8349TIP3    H124988   7.420   7.832   6.684
 8349TIP3    H224989   7.345   7.779   6.804
 8350TIP3   OH224990   2.852   6.336   1.448
 8350TIP3    H124991   2.874   6.426   1.471
 8350TIP3    H224992   2.758   6.329   1.465
 8351TIP3   OH224993   0.051   5.669   3.014
 8351TIP3    H124994   0.111   5.729   2.971
 8351TIP3    H224995   0.044   5.702   3.104
 8352TIP3   OH224996   6.929   1.008   6.455
 8352TIP3    H124997   6.895   1.097   6.456
 8352TIP3    H224998   7.007   1.013   6.399
 8353TIP3   OH224999   3.763   3.643   5.841
 8353TIP3    H125000   3.705   3.708   5.803
 8353TIP3    H225001   3.851   3.669   5.811
 8354TIP3   OH225002   6.691   1.063   0.269
 8354TIP3    H125003   6.725   1.047   0.181
 8354TIP3    H225004   6.765   1.102   0.316
 8355TIP3   OH225005   4.754   6.074   5.306
 8355TIP3    H125006   4.719   6.129   5.377
 8355TIP3    H225007   4.808   6.009   5.351
 8356TIP3   OH225008   2.365   6.085   1.175
 8356TIP3    H125009   2.298   6.150   1.197
 8356TIP3    H225010   2.447   6.131   1.188
 8357TIP3   OH225011   6.165   2.472   2.074
 8357TIP3    H125012   6.112   2.413   2.020
 8357TIP3    H225013   6.103   2.512   2.135
 8358TIP3   OH225014   3.142   1.317   1.866
 8358TIP3    H125015   3.076   1.256   1.898
 8358TIP3    H225016   3.196   1.337   1.943
 8359TIP3   OH225017   0.231   6.445   5.952
 8359TIP3    H125018   0.216   6.420   5.861
 8359TIP3    H225019   0.210   6.539   5.955
 8360TIP3   OH225020   1.698   6.358   2.859
 8360TIP3    H125021   1.669   6.410   2.785
 8360TIP3    H225022   1.794   6.359   2.854
 8361TIP3   OH225023   6.772   4.623   6.773
 8361TIP3    H125024   6.816   4.695   6.819
 8361TIP3    H225025   6.778   4.646   6.681
 8362TIP3   OH225026   5.693   5.911   6.458
 8362TIP3    H125027   5.666   5.886   6.370
 8362TIP3    H225028   5.660   6.000   6.468
 8363TIP3   OH225029   5.508   6.953   4.063
 8363TIP3    H125030   5.588   6.994   4.028
 8363TIP3    H225031   5.479   7.013   4.131
 8364TIP3   OH225032   5.459   2.930   1.088
 8364TIP3    H125033   5.463   3.024   1.069
 8364TIP3    H225034   5.382   2.899   1.040
 8365TIP3   OH225035   1.870   4.445   0.094
 8365TIP3    H125036   1.780   4.475   0.081
 8365TIP3    H225037   1.902   4.496   0.169
 8366TIP3   OH225038   4.864   3.854   4.423
 8366TIP3    H125039   4.836   3.828   4.510
 8366TIP3    H225040   4.793   3.909   4.389
 8367TIP3   OH225041   7.283   5.244   6.535
 8367TIP3    H125042   7.305   5.337   6.531
 8367TIP3    H225043   7.236   5.227   6.453
 8368TIP3   OH225044   5.932   5.343   0.343
 8368TIP3    H125045   5.907   5.390   0.264
 8368TIP3    H225046   5.882   5.385   0.413
 8369TIP3   OH225047   2.822   3.931   4.690
 8369TIP3    H125048   2.917   3.942   4.691
 8369TIP3    H225049   2.787   4.018   4.707
 8370TIP3   OH225050   0.890   2.421   2.490
 8370TIP3    H125051   0.922   2.441   2.402
 8370TIP3    H225052   0.968   2.426   2.545
 8371TIP3   OH225053   0.331   2.089   1.092
 8371TIP3    H125054   0.326   2.157   1.024
 8371TIP3    H225055   0.355   2.137   1.171
 8372TIP3   OH225056   6.178   1.215   1.292
 8372TIP3    H125057   6.162   1.137   1.346
 8372TIP3    H225058   6.261   1.250   1.323
 8373TIP3   OH225059   1.333   6.741   0.430
 8373TIP3    H125060   1.311   6.689   0.507
 8373TIP3    H225061   1.298   6.691   0.356
 8374TIP3   OH225062   2.184   3.705   0.056
 8374TIP3    H125063   2.118   3.687   0.122
 8374TIP3    H225064   2.266   3.672   0.093
 8375TIP3   OH225065   6.952   1.183   4.881
 8375TIP3    H125066   7.040   1.151   4.861
 8375TIP3    H225067   6.893   1.123   4.835
 8376TIP3   OH225068   1.738   5.735   4.475
 8376TIP3    H125069   1.751   5.826   4.501
 8376TIP3    H225070   1.795   5.723   4.399
 8377TIP3   OH225071   7.268   3.075   3.657
 8377TIP3    H125072   7.339   3.137   3.644
 8377TIP3    H225073   7.303   3.009   3.717
 8378TIP3   OH225074   1.787   2.726   5.262
 8378TIP3    H125075   1.814   2.772   5.183
 8378TIP3    H225076   1.856   2.746   5.326
 8379TIP3   OH225077   7.936   2.201   6.304
 8379TIP3    H125078   7.946   2.185   6.398
 8379TIP3    H225079   7.869   2.269   6.298
 8380TIP3   OH225080   6.906   1.819   6.740
 8380TIP3    H125081   6.918   1.864   6.656
 8380TIP3    H225082   6.811   1.806   6.746
 8381TIP3   OH225083   8.022   6.239   6.604
 8381TIP3    H125084   8.057   6.327   6.589
 8381TIP3    H225085   8.084   6.180   6.562
 8382TIP3   OH225086   2.098   7.507   5.552
 8382TIP3    H125087   2.113   7.575   5.486
 8382TIP3    H225088   2.004   7.493   5.551
 8383TIP3   OH225089   7.428   2.935   6.801
 8383TIP3    H125090   7.439   3.022   6.761
 8383TIP3    H225091   7.456   2.947   6.891
 8384TIP3   OH225092   7.648   7.269   4.779
 8384TIP3    H125093   7.582   7.301   4.841
 8384TIP3    H225094   7.612   7.187   4.747
 8385TIP3   OH225095   3.086   5.729   2.112
 8385TIP3    H125096   3.048   5.737   2.199
 8385TIP3    H225097   3.178   5.708   2.126
 8386TIP3   OH225098   3.714   2.363   4.334
 8386TIP3    H125099   3.734   2.399   4.420
 8386TIP3    H225100   3.627   2.324   4.344
 8387TIP3   OH225101   6.093   5.980   2.486
 8387TIP3    H125102   6.084   5.921   2.561
 8387TIP3    H225103   6.067   5.927   2.411
 8388TIP3   OH225104   4.548   7.293   4.782
 8388TIP3    H125105   4.476   7.347   4.814
 8388TIP3    H225106   4.556   7.223   4.848
 8389TIP3   OH225107   3.581   2.143   3.990
 8389TIP3    H125108   3.601   2.076   4.056
 8389TIP3    H225109   3.650   2.132   3.924
 8390TIP3   OH225110   7.324   0.540   2.217
 8390TIP3    H125111   7.386   0.572   2.283
 8390TIP3    H225112   7.266   0.480   2.265
 8391TIP3   OH225113   6.354   7.344   2.676
 8391TIP3    H125114   6.438   7.322   2.717
 8391TIP3    H225115   6.293   7.278   2.710
 8392TIP3   OH225116   8.093   0.806   0.193
 8392TIP3    H125117   8.106   0.809   0.098
 8392TIP3    H225118   8.181   0.797   0.230
 8393TIP3   OH225119   2.399   5.667   1.624
 8393TIP3    H125120   2.454   5.590   1.616
 8393TIP3    H225121   2.357   5.676   1.538
 8394TIP3   OH225122   1.510   3.852   4.624
 8394TIP3    H125123   1.438   3.801   4.660
 8394TIP3    H225124   1.583   3.838   4.685
 8395TIP3   OH225125   4.849   0.102   1.802
 8395TIP3    H125126   4.834   0.196   1.803
 8395TIP3    H225127   4.941   0.092   1.776
 8396TIP3   OH225128   7.045   6.603   3.381
 8396TIP3    H125129   7.032   6.684   3.429
 8396TIP3    H225130   6.956   6.575   3.357
 8397TIP3   OH225131   2.703   3.938   2.233
 8397TIP3    H125132   2.789   3.904   2.261
 8397TIP3    H225133   2.642   3.902   2.297
 8398TIP3   OH225134   4.255   3.084   5.535
 8398TIP3    H125135   4.241   3.178   5.529
 8398TIP3    H225136   4.327   3.066   5.474
 8399TIP3   OH225137   5.263   1.868   4.704
 8399TIP3    H125138   5.347   1.909   4.686
 8399TIP3    H225139   5.200   1.941   4.704
 8400TIP3   OH225140   7.078   4.490   3.761
 8400TIP3    H125141   7.083   4.435   3.683
 8400TIP3    H225142   7.012   4.556   3.740
 8401TIP3   OH225143   8.261   6.582   0.585
 8401TIP3    H125144   8.208   6.658   0.610
 8401TIP3    H225145   8.229   6.511   0.640
 8402TIP3   OH225146   2.729   5.086   1.281
 8402TIP3    H125147   2.787   5.051   1.214
 8402TIP3    H225148   2.707   5.010   1.336
 8403TIP3   OH225149   8.179   6.742   2.075
 8403TIP3    H125150   8.189   6.778   2.163
 8403TIP3    H225151   8.249   6.782   2.024
 8404TIP3   OH225152   1.019   3.000   2.565
 8404TIP3    H125153   0.962   2.955   2.504
 8404TIP3    H225154   0.981   3.088   2.574
 8405TIP3   OH225155   5.044   5.619   5.483
 8405TIP3    H125156   5.013   5.537   5.442
 8405TIP3    H225157   5.100   5.658   5.416
 8406TIP3   OH225158   4.773   2.902   1.074
 8406TIP3    H125159   4.810   2.988   1.056
 8406TIP3    H225160   4.798   2.883   1.164
 8407TIP3   OH225161   7.606   6.120   4.743
 8407TIP3    H125162   7.663   6.197   4.738
 8407TIP3    H225163   7.562   6.118   4.658
 8408TIP3   OH225164   8.024   0.969   1.697
 8408TIP3    H125165   8.027   0.944   1.605
 8408TIP3    H225166   7.993   1.060   1.696
 8409TIP3   OH225167   1.466   3.392   3.174
 8409TIP3    H125168   1.408   3.316   3.169
 8409TIP3    H225169   1.466   3.416   3.267
 8410TIP3   OH225170   0.580   2.390   1.614
 8410TIP3    H125171   0.525   2.316   1.587
 8410TIP3    H225172   0.669   2.355   1.616
 8411TIP3   OH225173   6.436   2.426   2.786
 8411TIP3    H125174   6.498   2.411   2.856
 8411TIP3    H225175   6.356   2.382   2.814
 8412TIP3   OH225176   5.299   0.171   6.803
 8412TIP3    H125177   5.282   0.187   6.896
 8412TIP3    H225178   5.286   0.077   6.791
 8413TIP3   OH225179   4.083   1.441   5.298
 8413TIP3    H125180   4.092   1.507   5.366
 8413TIP3    H225181   4.000   1.398   5.315
 8414TIP3   OH225182   0.633   1.885   3.814
 8414TIP3    H125183   0.666   1.961   3.862
 8414TIP3    H225184   0.710   1.832   3.797
 8415TIP3   OH225185   0.382   4.599   5.821
 8415TIP3    H125186   0.366   4.519   5.871
 8415TIP3    H225187   0.477   4.599   5.807
 8416TIP3   OH225188   3.527   0.045   6.112
 8416TIP3    H125189   3.579   0.011   6.185
 8416TIP3    H225190   3.524   0.140   6.126
 8417TIP3   OH225191   3.436   0.514   3.372
 8417TIP3    H125192   3.506   0.462   3.412
 8417TIP3    H225193   3.368   0.451   3.352
 8418TIP3   OH225194   6.403   2.169   0.990
 8418TIP3    H125195   6.357   2.106   1.045
 8418TIP3    H225196   6.335   2.203   0.932
 8419TIP3   OH225197   7.817   1.095   0.647
 8419TIP3    H125198   7.856   1.090   0.560
 8419TIP3    H225199   7.873   1.156   0.695
 8420TIP3   OH225200   8.113   4.799   4.360
 8420TIP3    H125201   8.192   4.815   4.412
 8420TIP3    H225202   8.120   4.859   4.286
 8421TIP3   OH225203   6.078   6.927   0.064
 8421TIP3    H125204   6.072   6.843   0.108
 8421TIP3    H225205   6.163   6.924   0.019
 8422TIP3   OH225206   2.392   0.161   6.571
 8422TIP3    H125207   2.298   0.146   6.573
 8422TIP3    H225208   2.402   0.255   6.584
 8423TIP3   OH225209   1.838   7.309   4.134
 8423TIP3    H125210   1.832   7.224   4.178
 8423TIP3    H225211   1.749   7.328   4.106
 8424TIP3   OH225212   7.977   4.999   4.775
 8424TIP3    H125213   7.882   5.003   4.772
 8424TIP3    H225214   8.004   5.010   4.684
 8425TIP3   OH225215   6.173   5.816   1.445
 8425TIP3    H125216   6.165   5.910   1.426
 8425TIP3    H225217   6.147   5.773   1.364
 8426TIP3   OH225218   0.512   0.241   0.140
 8426TIP3    H125219   0.505   0.146   0.153
 8426TIP3    H225220   0.519   0.277   0.228
 8427TIP3   OH225221   0.410   6.015   1.348
 8427TIP3    H125222   0.327   5.968   1.354
 8427TIP3    H225223   0.424   6.028   1.255
 8428TIP3   OH225224   4.505   7.405   0.974
 8428TIP3    H125225   4.503   7.331   1.035
 8428TIP3    H225226   4.598   7.416   0.953
 8429TIP3   OH225227   0.281   0.350   4.658
 8429TIP3    H125228   0.197   0.318   4.691
 8429TIP3    H225229   0.257   0.415   4.592
 8430TIP3   OH225230   0.973   6.298   2.757
 8430TIP3    H125231   0.878   6.284   2.766
 8430TIP3    H225232   0.989   6.295   2.663
 8431TIP3   OH225233   0.087   3.265   2.559
 8431TIP3    H125234   0.094   3.300   2.470
 8431TIP3    H225235   0.102   3.171   2.549
 8432TIP3   OH225236   5.475   0.366   5.648
 8432TIP3    H125237   5.457   0.273   5.662
 8432TIP3    H225238   5.390   0.403   5.624
 8433TIP3   OH225239   2.631   4.948   6.277
 8433TIP3    H125240   2.716   4.974   6.240
 8433TIP3    H225241   2.651   4.872   6.332
 8434TIP3   OH225242   7.592   3.491   3.532
 8434TIP3    H125243   7.638   3.462   3.454
 8434TIP3    H225244   7.508   3.524   3.500
 8435TIP3   OH225245   4.384   7.325   0.333
 8435TIP3    H125246   4.453   7.390   0.324
 8435TIP3    H225247   4.418   7.263   0.398
 8436TIP3   OH225248   3.447   3.507   6.400
 8436TIP3    H125249   3.461   3.601   6.386
 8436TIP3    H225250   3.533   3.474   6.428
 8437TIP3   OH225251   2.738   0.333   6.451
 8437TIP3    H125252   2.713   0.358   6.362
 8437TIP3    H225253   2.777   0.412   6.488
 8438TIP3   OH225254   4.069   3.853   5.703
 8438TIP3    H125255   3.984   3.894   5.685
 8438TIP3    H225256   4.127   3.888   5.635
 8439TIP3   OH225257   1.435   0.493   6.420
 8439TIP3    H125258   1.427   0.444   6.502
 8439TIP3    H225259   1.420   0.428   6.351
 8440TIP3   OH225260   3.986   5.602   1.854
 8440TIP3    H125261   3.892   5.609   1.836
 8440TIP3    H225262   4.020   5.690   1.836
 8441TIP3   OH225263   3.769   3.477   3.468
 8441TIP3    H125264   3.803   3.551   3.518
 8441TIP3    H225265   3.804   3.489   3.380
 8442TIP3   OH225266   5.284   5.431   5.053
 8442TIP3    H125267   5.355   5.415   4.990
 8442TIP3    H225268   5.293   5.359   5.116
 8443TIP3   OH225269   1.973   7.508   0.089
 8443TIP3    H125270   1.935   7.439   0.143
 8443TIP3    H225271   1.904   7.574   0.082
 8444TIP3   OH225272   8.039   3.864   2.294
 8444TIP3    H125273   8.065   3.895   2.207
 8444TIP3    H225274   8.080   3.927   2.355
 8445TIP3   OH225275   7.948   3.846   6.102
 8445TIP3    H125276   7.897   3.885   6.173
 8445TIP3    H225277   7.883   3.823   6.035
 8446TIP3   OH225278   3.531   2.906   1.942
 8446TIP3    H125279   3.554   2.895   2.034
 8446TIP3    H225280   3.615   2.917   1.897
 8447TIP3   OH225281   8.068   6.285   0.986
 8447TIP3    H125282   8.062   6.380   0.980
 8447TIP3    H225283   8.049   6.253   0.898
 8448TIP3   OH225284   2.705   1.096   3.473
 8448TIP3    H125285   2.695   1.047   3.555
 8448TIP3    H225286   2.749   1.035   3.414
 8449TIP3   OH225287   8.139   5.266   4.202
 8449TIP3    H125288   8.143   5.348   4.154
 8449TIP3    H225289   8.069   5.279   4.267
 8450TIP3   OH225290   0.081   4.674   4.793
 8450TIP3    H125291   0.066   4.768   4.806
 8450TIP3    H225292   0.097   4.640   4.881
 8451TIP3   OH225293   6.430   6.041   2.587
 8451TIP3    H125294   6.362   6.082   2.640
 8451TIP3    H225295   6.512   6.069   2.628
 8452TIP3   OH225296   1.266   4.489   2.600
 8452TIP3    H125297   1.291   4.550   2.530
 8452TIP3    H225298   1.244   4.545   2.674
 8453TIP3   OH225299   5.291   4.554   0.821
 8453TIP3    H125300   5.302   4.460   0.806
 8453TIP3    H225301   5.284   4.563   0.916
 8454TIP3   OH225302   3.614   5.955   1.102
 8454TIP3    H125303   3.607   5.934   1.195
 8454TIP3    H225304   3.684   5.898   1.070
 8455TIP3   OH225305   5.480   5.514   5.497
 8455TIP3    H125306   5.526   5.445   5.451
 8455TIP3    H225307   5.549   5.565   5.540
 8456TIP3   OH225308   0.143   4.141   0.392
 8456TIP3    H125309   0.186   4.226   0.404
 8456TIP3    H225310   0.117   4.140   0.300
 8457TIP3   OH225311   7.692   3.369   6.194
 8457TIP3    H125312   7.776   3.357   6.238
 8457TIP3    H225313   7.702   3.323   6.110
 8458TIP3   OH225314   0.678   4.181   5.318
 8458TIP3    H125315   0.715   4.266   5.342
 8458TIP3    H225316   0.673   4.183   5.223
 8459TIP3   OH225317   8.054   4.607   2.655
 8459TIP3    H125318   8.118   4.664   2.614
 8459TIP3    H225319   8.020   4.552   2.584
 8460TIP3   OH225320   6.926   0.199   2.520
 8460TIP3    H125321   7.005   0.228   2.565
 8460TIP3    H225322   6.879   0.280   2.499
 8461TIP3   OH225323   1.580   1.036   1.060
 8461TIP3    H125324   1.504   1.064   1.112
 8461TIP3    H225325   1.549   1.035   0.970
 8462TIP3   OH225326   1.979   5.890   6.440
 8462TIP3    H125327   1.951   5.798   6.443
 8462TIP3    H225328   1.903   5.937   6.406
 8463TIP3   OH225329   0.968   0.351   6.740
 8463TIP3    H125330   0.926   0.294   6.804
 8463TIP3    H225331   0.908   0.425   6.731
 8464TIP3   OH225332   4.678   7.170   2.403
 8464TIP3    H125333   4.602   7.140   2.454
 8464TIP3    H225334   4.735   7.093   2.397
 8465TIP3   OH225335   3.765   5.398   4.554
 8465TIP3    H125336   3.739   5.490   4.551
 8465TIP3    H225337   3.788   5.376   4.464
 8466TIP3   OH225338   0.629   2.484   2.578
 8466TIP3    H125339   0.701   2.521   2.630
 8466TIP3    H225340   0.673   2.440   2.505
 8467TIP3   OH225341   2.570   6.016   3.182
 8467TIP3    H125342   2.510   5.965   3.238
 8467TIP3    H225343   2.609   6.079   3.242
 8468TIP3   OH225344   3.043   0.213   2.559
 8468TIP3    H125345   3.076   0.123   2.558
 8468TIP3    H225346   3.044   0.240   2.468
 8469TIP3   OH225347   5.103   7.112   3.003
 8469TIP3    H125348   5.148   7.171   2.942
 8469TIP3    H225349   5.126   7.146   3.090
 8470TIP3   OH225350   6.134   2.146   0.275
 8470TIP3    H125351   6.176   2.177   0.195
 8470TIP3    H225352   6.187   2.070   0.302
 8471TIP3   OH225353   5.382   2.198   4.453
 8471TIP3    H125354   5.318   2.148   4.401
 8471TIP3    H225355   5.348   2.287   4.453
 8472TIP3   OH225356   5.775   1.032   3.796
 8472TIP3    H125357   5.694   1.032   3.847
 8472TIP3    H225358   5.776   1.116   3.752
 8473TIP3   OH225359   6.038   7.323   4.726
 8473TIP3    H125360   6.082   7.314   4.811
 8473TIP3    H225361   6.063   7.409   4.695
 8474TIP3   OH225362   5.290   2.954   3.113
 8474TIP3    H125363   5.372   2.939   3.160
 8474TIP3    H225364   5.317   2.975   3.024
 8475TIP3   OH225365   3.934   1.365   0.281
 8475TIP3    H125366   3.921   1.340   0.373
 8475TIP3    H225367   3.995   1.438   0.284
 8476TIP3   OH225368   1.359   5.482   1.068
 8476TIP3    H125369   1.415   5.421   1.116
 8476TIP3    H225370   1.283   5.429   1.043
 8477TIP3   OH225371   3.665   2.010   2.689
 8477TIP3    H125372   3.591   2.056   2.650
 8477TIP3    H225373   3.626   1.933   2.732
 8478TIP3   OH225374   8.141   0.772   2.769
 8478TIP3    H125375   8.218   0.802   2.721
 8478TIP3    H225376   8.071   0.772   2.704
 8479TIP3   OH225377   0.636   2.325   4.378
 8479TIP3    H125378   0.600   2.324   4.289
 8479TIP3    H225379   0.688   2.245   4.384
 8480TIP3   OH225380   2.145   6.922   1.053
 8480TIP3    H125381   2.197   7.002   1.058
 8480TIP3    H225382   2.128   6.911   0.959
 8481TIP3   OH225383   8.174   7.234   1.935
 8481TIP3    H125384   8.235   7.170   1.898
 8481TIP3    H225385   8.199   7.241   2.027
 8482TIP3   OH225386   0.440   6.808   4.807
 8482TIP3    H125387   0.345   6.799   4.808
 8482TIP3    H225388   0.456   6.900   4.826
 8483TIP3   OH225389   2.496   3.537   6.712
 8483TIP3    H125390   2.519   3.535   6.619
 8483TIP3    H225391   2.507   3.628   6.738
 8484TIP3   OH225392   0.206   4.015   5.401
 8484TIP3    H125393   0.130   3.973   5.443
 8484TIP3    H225394   0.192   4.001   5.308
 8485TIP3   OH225395   1.395   6.511   4.732
 8485TIP3    H125396   1.396   6.580   4.799
 8485TIP3    H225397   1.440   6.437   4.773
 8486TIP3   OH225398   2.744   4.360   0.372
 8486TIP3    H125399   2.745   4.431   0.437
 8486TIP3    H225400   2.681   4.389   0.306
 8487TIP3   OH225401   6.476   4.375   3.528
 8487TIP3    H125402   6.492   4.292   3.483
 8487TIP3    H225403   6.557   4.393   3.576
 8488TIP3   OH225404   0.610   6.033   6.513
 8488TIP3    H125405   0.550   5.959   6.502
 8488TIP3    H225406   0.568   6.105   6.466
 8489TIP3   OH225407   3.954   5.398   5.147
 8489TIP3    H125408   3.890   5.385   5.217
 8489TIP3    H225409   4.024   5.449   5.188
 8490TIP3   OH225410   7.935   1.531   4.855
 8490TIP3    H125411   7.911   1.567   4.940
 8490TIP3    H225412   8.025   1.561   4.841
 8491TIP3   OH225413   7.486   0.666   0.385
 8491TIP3    H125414   7.502   0.618   0.467
 8491TIP3    H225415   7.464   0.598   0.321
 8492TIP3   OH225416   3.992   4.181   4.844
 8492TIP3    H125417   3.896   4.182   4.847
 8492TIP3    H225418   4.016   4.096   4.880
 8493TIP3   OH225419   1.770   4.992   0.665
 8493TIP3    H125420   1.814   5.076   0.655
 8493TIP3    H225421   1.715   4.985   0.587
 8494TIP3   OH225422   5.871   5.547   0.575
 8494TIP3    H125423   5.930   5.622   0.581
 8494TIP3    H225424   5.868   5.511   0.664
 8495TIP3   OH225425   1.068   5.625   0.659
 8495TIP3    H125426   1.149   5.663   0.695
 8495TIP3    H225427   1.015   5.701   0.636
 8496TIP3   OH225428   1.284   3.353   1.787
 8496TIP3    H125429   1.355   3.290   1.771
 8496TIP3    H225430   1.218   3.332   1.721
 8497TIP3   OH225431   5.466   5.024   1.085
 8497TIP3    H125432   5.538   5.075   1.121
 8497TIP3    H225433   5.498   4.992   1.001
 8498TIP3   OH225434   5.030   5.013   0.168
 8498TIP3    H125435   5.063   5.005   0.257
 8498TIP3    H225436   5.030   5.107   0.151
 8499TIP3   OH225437   0.042   6.663   4.054
 8499TIP3    H125438   0.085   6.648   3.970
 8499TIP3    H225439   0.102   6.720   4.102
 8500TIP3   OH225440   0.886   5.312   6.156
 8500TIP3    H125441   0.868   5.323   6.063
 8500TIP3    H225442   0.860   5.222   6.175
 8501TIP3   OH225443   3.359   6.346   4.395
 8501TIP3    H125444   3.305   6.423   4.381
 8501TIP3    H225445   3.314   6.276   4.348
 8502TIP3   OH225446   4.382   5.113   0.452
 8502TIP3    H125447   4.316   5.093   0.519
 8502TIP3    H225448   4.355   5.198   0.416
 8503TIP3   OH225449   7.980   5.298   6.558
 8503TIP3    H125450   8.057   5.321   6.507
 8503TIP3    H225451   7.942   5.223   6.512
 8504TIP3   OH225452   2.668   6.829   0.713
 8504TIP3    H125453   2.719   6.772   0.656
 8504TIP3    H225454   2.580   6.829   0.674
 8505TIP3   OH225455   2.365   4.699   2.740
 8505TIP3    H125456   2.354   4.736   2.652
 8505TIP3    H225457   2.435   4.751   2.779
 8506TIP3   OH225458   1.848   0.380   1.218
 8506TIP3    H125459   1.781   0.448   1.209
 8506TIP3    H225460   1.894   0.379   1.134
 8507TIP3   OH225461   5.836   1.493   4.474
 8507TIP3    H125462   5.854   1.575   4.429
 8507TIP3    H225463   5.910   1.482   4.535
 8508TIP3   OH225464   5.081   5.986   6.004
 8508TIP3    H125465   4.994   5.999   5.966
 8508TIP3    H225466   5.141   6.000   5.930
 8509TIP3   OH225467   1.326   2.546   3.201
 8509TIP3    H125468   1.323   2.640   3.185
 8509TIP3    H225469   1.284   2.507   3.124
 8510TIP3   OH225470   6.861   0.636   3.200
 8510TIP3    H125471   6.850   0.541   3.205
 8510TIP3    H225472   6.876   0.664   3.290
 8511TIP3   OH225473   6.182   7.028   6.469
 8511TIP3    H125474   6.187   7.083   6.547
 8511TIP3    H225475   6.218   6.944   6.497
 8512TIP3   OH225476   3.904   0.254   2.403
 8512TIP3    H125477   3.884   0.345   2.382
 8512TIP3    H225478   3.922   0.213   2.318
 8513TIP3   OH225479   1.353   0.551   2.311
 8513TIP3    H125480   1.284   0.494   2.277
 8513TIP3    H225481   1.309   0.609   2.373
 8514TIP3   OH225482   4.741   1.817   2.150
 8514TIP3    H125483   4.770   1.880   2.084
 8514TIP3    H225484   4.765   1.857   2.234
 8515TIP3   OH225485   4.051   3.989   4.548
 8515TIP3    H125486   3.964   3.952   4.567
 8515TIP3    H225487   4.100   3.973   4.628
 8516TIP3   OH225488   4.946   4.755   4.001
 8516TIP3    H125489   4.969   4.805   4.080
 8516TIP3    H225490   4.905   4.675   4.035
 8517TIP3   OH225491   4.049   4.543   0.759
 8517TIP3    H125492   4.072   4.635   0.771
 8517TIP3    H225493   3.967   4.532   0.809
 8518TIP3   OH225494   1.832   6.703   5.124
 8518TIP3    H125495   1.839   6.729   5.032
 8518TIP3    H225496   1.783   6.621   5.122
 8519TIP3   OH225497   1.408   2.552   5.887
 8519TIP3    H125498   1.358   2.501   5.951
 8519TIP3    H225499   1.377   2.521   5.802
 8520TIP3   OH225500   1.393   0.509   3.113
 8520TIP3    H125501   1.488   0.519   3.102
 8520TIP3    H225502   1.380   0.504   3.207
 8521TIP3   OH225503   8.345   2.225   2.873
 8521TIP3    H125504   8.257   2.220   2.911
 8521TIP3    H225505   8.348   2.154   2.809
 8522TIP3   OH225506   1.979   6.917   0.518
 8522TIP3    H125507   1.952   6.830   0.487
 8522TIP3    H225508   1.908   6.945   0.576
 8523TIP3   OH225509   2.636   7.192   0.236
 8523TIP3    H125510   2.663   7.127   0.172
 8523TIP3    H225511   2.570   7.245   0.191
 8524TIP3   OH225512   0.144   1.973   5.087
 8524TIP3    H125513   0.095   2.051   5.064
 8524TIP3    H225514   0.112   1.949   5.174
 8525TIP3   OH225515   0.348   0.637   4.782
 8525TIP3    H125516   0.389   0.706   4.833
 8525TIP3    H225517   0.416   0.608   4.721
 8526TIP3   OH225518   0.732   7.764   0.612
 8526TIP3    H125519   0.671   7.691   0.598
 8526TIP3    H225520   0.809   7.740   0.561
 8527TIP3   OH225521   7.483   5.016   3.842
 8527TIP3    H125522   7.400   5.063   3.834
 8527TIP3    H225523   7.529   5.035   3.761
 8528TIP3   OH225524   7.680   6.599   3.342
 8528TIP3    H125525   7.633   6.607   3.425
 8528TIP3    H225526   7.695   6.690   3.315
 8529TIP3   OH225527   1.571   3.498   4.801
 8529TIP3    H125528   1.623   3.458   4.732
 8529TIP3    H225529   1.576   3.436   4.874
 8530TIP3   OH225530   4.995   4.912   6.855
 8530TIP3    H125531   4.926   4.911   6.789
 8530TIP3    H225532   5.016   5.005   6.866
 8531TIP3   OH225533   6.249   6.527   6.146
 8531TIP3    H125534   6.159   6.495   6.158
 8531TIP3    H225535   6.287   6.467   6.082
 8532TIP3   OH225536   7.334   2.069   0.886
 8532TIP3    H125537   7.397   2.097   0.953
 8532TIP3    H225538   7.266   2.136   0.888
 8533TIP3   OH225539   7.304   2.230   1.840
 8533TIP3    H125540   7.295   2.134   1.842
 8533TIP3    H225541   7.220   2.262   1.875
 8534TIP3   OH225542   2.883   5.457   2.126
 8534TIP3    H125543   2.819   5.523   2.155
 8534TIP3    H225544   2.899   5.403   2.203
 8535TIP3   OH225545   8.387   0.414   0.174
 8535TIP3    H125546   8.473   0.452   0.193
 8535TIP3    H225547   8.383   0.335   0.227
 8536TIP3   OH225548   2.511   7.707   6.097
 8536TIP3    H125549   2.498   7.640   6.163
 8536TIP3    H225550   2.606   7.711   6.085
 8537TIP3   OH225551   2.475   5.769   6.649
 8537TIP3    H125552   2.517   5.778   6.563
 8537TIP3    H225553   2.385   5.797   6.635
 8538TIP3   OH225554   6.944   3.170   3.332
 8538TIP3    H125555   6.867   3.220   3.307
 8538TIP3    H225556   6.961   3.196   3.423
 8539TIP3   OH225557   2.433   5.399   3.019
 8539TIP3    H125558   2.484   5.364   3.092
 8539TIP3    H225559   2.426   5.326   2.957
 8540TIP3   OH225560   2.467   5.630   5.163
 8540TIP3    H125561   2.429   5.655   5.247
 8540TIP3    H225562   2.392   5.606   5.109
 8541TIP3   OH225563   5.956   1.251   2.181
 8541TIP3    H125564   6.042   1.277   2.215
 8541TIP3    H225565   5.940   1.165   2.220
 8542TIP3   OH225566   6.658   0.084   1.901
 8542TIP3    H125567   6.650   0.141   1.825
 8542TIP3    H225568   6.676  -0.003   1.865
 8543TIP3   OH225569   4.543   7.621   1.543
 8543TIP3    H125570   4.622   7.567   1.546
 8543TIP3    H225571   4.491   7.591   1.617
 8544TIP3   OH225572   3.534   4.322   5.473
 8544TIP3    H125573   3.549   4.390   5.407
 8544TIP3    H225574   3.446   4.340   5.506
 8545TIP3   OH225575   4.641   2.238   1.794
 8545TIP3    H125576   4.722   2.264   1.749
 8545TIP3    H225577   4.671   2.197   1.875
 8546TIP3   OH225578   2.849   5.583   2.917
 8546TIP3    H125579   2.776   5.559   2.974
 8546TIP3    H225580   2.866   5.675   2.936
 8547TIP3   OH225581   6.936   4.822   2.807
 8547TIP3    H125582   6.988   4.806   2.885
 8547TIP3    H225583   6.997   4.808   2.734
 8548TIP3   OH225584   5.754   4.686   6.579
 8548TIP3    H125585   5.842   4.649   6.582
 8548TIP3    H225586   5.699   4.616   6.543
 8549TIP3   OH225587   8.155   5.253   1.030
 8549TIP3    H125588   8.246   5.260   1.000
 8549TIP3    H225589   8.114   5.193   0.969
 8550TIP3   OH225590   4.242   4.735   2.365
 8550TIP3    H125591   4.229   4.747   2.459
 8550TIP3    H225592   4.157   4.757   2.326
 8551TIP3   OH225593   2.469   3.545   0.525
 8551TIP3    H125594   2.502   3.527   0.437
 8551TIP3    H225595   2.538   3.513   0.583
 8552TIP3   OH225596   4.293   5.533   1.779
 8552TIP3    H125597   4.245   5.611   1.753
 8552TIP3    H225598   4.301   5.482   1.699
 8553TIP3   OH225599   6.528   0.231   2.762
 8553TIP3    H125600   6.512   0.312   2.714
 8553TIP3    H225601   6.518   0.162   2.696
 8554TIP3   OH225602   2.115   3.802   0.619
 8554TIP3    H125603   2.023   3.803   0.644
 8554TIP3    H225604   2.163   3.795   0.702
 8555TIP3   OH225605   6.183   0.166   0.770
 8555TIP3    H125606   6.103   0.119   0.797
 8555TIP3    H225607   6.151   0.250   0.739
 8556TIP3   OH225608   0.333   3.782   2.646
 8556TIP3    H125609   0.376   3.746   2.568
 8556TIP3    H225610   0.258   3.725   2.660
 8557TIP3   OH225611   6.462   4.713   3.712
 8557TIP3    H125612   6.499   4.790   3.755
 8557TIP3    H225613   6.384   4.692   3.763
 8558TIP3   OH225614   5.726   0.460   5.689
 8558TIP3    H125615   5.637   0.433   5.666
 8558TIP3    H225616   5.756   0.511   5.613
 8559TIP3   OH225617   3.779   4.183   3.952
 8559TIP3    H125618   3.693   4.219   3.974
 8559TIP3    H225619   3.779   4.178   3.856
 8560TIP3   OH225620   0.478   0.272   0.420
 8560TIP3    H125621   0.403   0.213   0.416
 8560TIP3    H225622   0.441   0.359   0.404
 8561TIP3   OH225623   7.675   7.250   6.120
 8561TIP3    H125624   7.602   7.243   6.181
 8561TIP3    H225625   7.654   7.188   6.050
 8562TIP3   OH225626   2.744   1.402   4.217
 8562TIP3    H125627   2.717   1.422   4.307
 8562TIP3    H225628   2.719   1.311   4.204
 8563TIP3   OH225629   4.474   7.547   3.459
 8563TIP3    H125630   4.393   7.517   3.418
 8563TIP3    H225631   4.505   7.617   3.403
 8564TIP3   OH225632   0.483   4.567   4.353
 8564TIP3    H125633   0.471   4.523   4.437
 8564TIP3    H225634   0.525   4.650   4.376
 8565TIP3   OH225635   6.703   2.625   5.547
 8565TIP3    H125636   6.740   2.653   5.630
 8565TIP3    H225637   6.703   2.529   5.552
 8566TIP3   OH225638   8.284   6.874   0.906
 8566TIP3    H125639   8.192   6.879   0.880
 8566TIP3    H225640   8.326   6.825   0.836
 8567TIP3   OH225641   1.047   0.910   2.804
 8567TIP3    H125642   1.099   0.893   2.882
 8567TIP3    H225643   1.106   0.957   2.745
 8568TIP3   OH225644   0.302   6.386   1.796
 8568TIP3    H125645   0.322   6.471   1.836
 8568TIP3    H225646   0.381   6.334   1.812
 8569TIP3   OH225647   1.167   3.429   6.156
 8569TIP3    H125648   1.074   3.419   6.177
 8569TIP3    H225649   1.208   3.350   6.190
 8570TIP3   OH225650   4.404   5.553   4.877
 8570TIP3    H125651   4.449   5.624   4.922
 8570TIP3    H225652   4.420   5.570   4.784
 8571TIP3   OH225653   2.207   0.113   5.308
 8571TIP3    H125654   2.213   0.025   5.346
 8571TIP3    H225655   2.233   0.171   5.379
 8572TIP3   OH225656   0.200   6.542   2.744
 8572TIP3    H125657   0.106   6.532   2.727
 8572TIP3    H225658   0.242   6.520   2.661
 8573TIP3   OH225659   2.633   6.474   6.200
 8573TIP3    H125660   2.679   6.543   6.247
 8573TIP3    H225661   2.572   6.521   6.143
 8574TIP3   OH225662   7.874   3.483   4.932
 8574TIP3    H125663   7.970   3.488   4.927
 8574TIP3    H225664   7.856   3.391   4.946
 8575TIP3   OH225665   3.057   3.786   4.226
 8575TIP3    H125666   3.055   3.716   4.161
 8575TIP3    H225667   3.099   3.746   4.302
 8576TIP3   OH225668   5.293   5.252   1.173
 8576TIP3    H125669   5.200   5.230   1.162
 8576TIP3    H225670   5.336   5.209   1.100
 8577TIP3   OH225671   8.365   1.555   3.807
 8577TIP3    H125672   8.375   1.466   3.774
 8577TIP3    H225673   8.368   1.611   3.730
 8578TIP3   OH225674   2.491   7.127   1.759
 8578TIP3    H125675   2.515   7.189   1.690
 8578TIP3    H225676   2.414   7.083   1.725
 8579TIP3   OH225677   7.399   3.025   5.536
 8579TIP3    H125678   7.368   2.971   5.464
 8579TIP3    H225679   7.492   3.039   5.518
 8580TIP3   OH225680   4.862   4.315   3.523
 8580TIP3    H125681   4.849   4.379   3.594
 8580TIP3    H225682   4.926   4.356   3.465
 8581TIP3   OH225683   1.702   2.049   5.957
 8581TIP3    H125684   1.724   2.139   5.980
 8581TIP3    H225685   1.765   2.025   5.889
 8582TIP3   OH225686   7.393   4.755   2.096
 8582TIP3    H125687   7.378   4.728   2.005
 8582TIP3    H225688   7.310   4.736   2.140
 8583TIP3   OH225689   5.315   2.940   2.468
 8583TIP3    H125690   5.277   3.020   2.432
 8583TIP3    H225691   5.376   2.909   2.401
 8584TIP3   OH225692   1.823   7.308   1.321
 8584TIP3    H125693   1.905   7.346   1.290
 8584TIP3    H225694   1.781   7.379   1.369
 8585TIP3   OH225695   1.876   0.180   4.677
 8585TIP3    H125696   1.957   0.232   4.682
 8585TIP3    H225697   1.810   0.241   4.647
 8586TIP3   OH225698   1.450   7.220   4.193
 8586TIP3    H125699   1.476   7.128   4.202
 8586TIP3    H225700   1.438   7.233   4.099
 8587TIP3   OH225701   5.063   3.215   6.293
 8587TIP3    H125702   5.128   3.281   6.266
 8587TIP3    H225703   5.082   3.139   6.238
 8588TIP3   OH225704   1.406   0.094   6.012
 8588TIP3    H125705   1.492   0.116   5.977
 8588TIP3    H225706   1.352   0.076   5.935
 8589TIP3   OH225707   0.563   1.948   0.989
 8589TIP3    H125708   0.513   2.021   1.026
 8589TIP3    H225709   0.623   1.990   0.928
 8590TIP3   OH225710   3.398   2.514   5.112
 8590TIP3    H125711   3.336   2.578   5.145
 8590TIP3    H225712   3.460   2.565   5.060
 8591TIP3   OH225713   0.902   0.947   2.324
 8591TIP3    H125714   0.982   0.991   2.296
 8591TIP3    H225715   0.932   0.865   2.365
 8592TIP3   OH225716   4.092   2.808   5.395
 8592TIP3    H125717   4.058   2.886   5.439
 8592TIP3    H225718   4.141   2.842   5.321
 8593TIP3   OH225719   3.905   0.527   3.520
 8593TIP3    H125720   3.952   0.445   3.506
 8593TIP3    H225721   3.891   0.562   3.432
 8594TIP3   OH225722   5.894   0.877   3.199
 8594TIP3    H125723   5.876   0.922   3.281
 8594TIP3    H225724   5.857   0.934   3.132
 8595TIP3   OH225725   4.732   1.726   0.876
 8595TIP3    H125726   4.824   1.736   0.852
 8595TIP3    H225727   4.714   1.633   0.865
 8596TIP3   OH225728   7.644   2.774   4.227
 8596TIP3    H125729   7.684   2.721   4.158
 8596TIP3    H225730   7.558   2.797   4.193
 8597TIP3   OH225731   0.799   4.324   4.082
 8597TIP3    H125732   0.768   4.320   3.991
 8597TIP3    H225733   0.887   4.287   4.078
 8598TIP3   OH225734   3.231   2.690   1.997
 8598TIP3    H125735   3.220   2.764   1.938
 8598TIP3    H225736   3.156   2.695   2.056
 8599TIP3   OH225737   5.779   3.439   1.998
 8599TIP3    H125738   5.732   3.379   2.057
 8599TIP3    H225739   5.815   3.382   1.930
 8600TIP3   OH225740   2.922   2.286   0.205
 8600TIP3    H125741   2.910   2.240   0.122
 8600TIP3    H225742   2.851   2.350   0.208
 8601TIP3   OH225743   2.553   3.072   2.722
 8601TIP3    H125744   2.626   3.013   2.707
 8601TIP3    H225745   2.548   3.081   2.817
 8602TIP3   OH225746   5.462   0.267   3.074
 8602TIP3    H125747   5.387   0.247   3.018
 8602TIP3    H225748   5.524   0.311   3.016
 8603TIP3   OH225749   0.525   3.912   1.481
 8603TIP3    H125750   0.574   3.841   1.523
 8603TIP3    H225751   0.456   3.934   1.543
 8604TIP3   OH225752   4.730   6.943   4.803
 8604TIP3    H125753   4.725   6.998   4.882
 8604TIP3    H225754   4.639   6.922   4.784
 8605TIP3   OH225755   6.585   5.868   5.975
 8605TIP3    H125756   6.680   5.853   5.985
 8605TIP3    H225757   6.579   5.950   5.926
 8606TIP3   OH225758   5.439   0.301   1.180
 8606TIP3    H125759   5.343   0.299   1.177
 8606TIP3    H225760   5.464   0.357   1.107
 8607TIP3   OH225761   2.385   2.744   2.414
 8607TIP3    H125762   2.436   2.663   2.413
 8607TIP3    H225763   2.306   2.724   2.363
 8608TIP3   OH225764   7.762   3.067   6.259
 8608TIP3    H125765   7.803   3.100   6.179
 8608TIP3    H225766   7.756   3.144   6.316
 8609TIP3   OH225767   2.777   1.732   6.493
 8609TIP3    H125768   2.784   1.748   6.399
 8609TIP3    H225769   2.684   1.745   6.512
 8610TIP3   OH225770   5.756   5.243   2.146
 8610TIP3    H125771   5.836   5.200   2.177
 8610TIP3    H225772   5.778   5.275   2.058
 8611TIP3   OH225773   5.371   3.980   0.304
 8611TIP3    H125774   5.453   4.028   0.294
 8611TIP3    H225775   5.369   3.921   0.228
 8612TIP3   OH225776   1.088   4.578   5.140
 8612TIP3    H125777   1.023   4.624   5.192
 8612TIP3    H225778   1.041   4.503   5.104
 8613TIP3   OH225779   2.328   6.288   1.577
 8613TIP3    H125780   2.350   6.291   1.670
 8613TIP3    H225781   2.244   6.334   1.570
 8614TIP3   OH225782   4.096   6.530   4.873
 8614TIP3    H125783   4.051   6.565   4.796
 8614TIP3    H225784   4.049   6.449   4.894
 8615TIP3   OH225785   2.367   6.455   6.406
 8615TIP3    H125786   2.434   6.405   6.359
 8615TIP3    H225787   2.285   6.430   6.364
 8616TIP3   OH225788   4.577   5.245   3.541
 8616TIP3    H125789   4.500   5.209   3.498
 8616TIP3    H225790   4.611   5.311   3.481
 8617TIP3   OH225791   0.587   4.914   1.639
 8617TIP3    H125792   0.609   4.959   1.557
 8617TIP3    H225793   0.606   4.822   1.622
 8618TIP3   OH225794   1.446   0.931   1.963
 8618TIP3    H125795   1.530   0.907   2.004
 8618TIP3    H225796   1.382   0.873   2.005
 8619TIP3   OH225797   3.316   0.665   3.082
 8619TIP3    H125798   3.301   0.636   3.172
 8619TIP3    H225799   3.383   0.733   3.089
 8620TIP3   OH225800   3.390   3.287   5.095
 8620TIP3    H125801   3.379   3.217   5.031
 8620TIP3    H225802   3.457   3.254   5.155
 8621TIP3   OH225803   0.724   6.220   0.654
 8621TIP3    H125804   0.744   6.251   0.742
 8621TIP3    H225805   0.693   6.297   0.608
 8622TIP3   OH225806   6.135   7.932   4.117
 8622TIP3    H125807   6.108   7.880   4.192
 8622TIP3    H225808   6.173   7.868   4.056
 8623TIP3   OH225809   8.321   4.303   6.691
 8623TIP3    H125810   8.265   4.279   6.764
 8623TIP3    H225811   8.404   4.261   6.709
 8624TIP3   OH225812   3.373   4.066   4.920
 8624TIP3    H125813   3.462   4.040   4.943
 8624TIP3    H225814   3.381   4.106   4.834
 8625TIP3   OH225815   3.363   1.329   4.210
 8625TIP3    H125816   3.363   1.371   4.125
 8625TIP3    H225817   3.403   1.243   4.195
 8626TIP3   OH225818   6.682   0.713   5.596
 8626TIP3    H125819   6.681   0.624   5.632
 8626TIP3    H225820   6.746   0.709   5.524
 8627TIP3   OH225821   5.370   4.233   4.009
 8627TIP3    H125822   5.397   4.319   3.976
 8627TIP3    H225823   5.437   4.173   3.977
 8628TIP3   OH225824   5.406   6.880   0.931
 8628TIP3    H125825   5.402   6.925   1.016
 8628TIP3    H225826   5.399   6.950   0.866
 8629TIP3   OH225827   2.294   4.346   4.370
 8629TIP3    H125828   2.277   4.317   4.460
 8629TIP3    H225829   2.216   4.395   4.345
 8630TIP3   OH225830   1.823   5.211   0.475
 8630TIP3    H125831   1.869   5.156   0.412
 8630TIP3    H225832   1.799   5.289   0.425
 8631TIP3   OH225833   7.284   6.468   5.872
 8631TIP3    H125834   7.226   6.478   5.948
 8631TIP3    H225835   7.327   6.554   5.865
 8632TIP3   OH225836   4.673   5.658   5.274
 8632TIP3    H125837   4.731   5.721   5.232
 8632TIP3    H225838   4.585   5.693   5.259
 8633TIP3   OH225839   4.246   5.626   3.988
 8633TIP3    H125840   4.270   5.642   4.079
 8633TIP3    H225841   4.150   5.624   3.988
 8634TIP3   OH225842   3.677   1.092   5.364
 8634TIP3    H125843   3.590   1.113   5.328
 8634TIP3    H225844   3.674   0.997   5.378
 8635TIP3   OH225845   2.154   6.910   4.426
 8635TIP3    H125846   2.195   6.856   4.493
 8635TIP3    H225847   2.219   6.915   4.356
 8636TIP3   OH225848   8.269   3.510   3.593
 8636TIP3    H125849   8.286   3.449   3.664
 8636TIP3    H225850   8.256   3.595   3.636
 8637TIP3   OH225851   7.897   4.601   1.008
 8637TIP3    H125852   7.907   4.696   1.006
 8637TIP3    H225853   7.817   4.586   1.058
 8638TIP3   OH225854   5.956   1.753   6.073
 8638TIP3    H125855   6.008   1.684   6.114
 8638TIP3    H225856   5.865   1.724   6.084
 8639TIP3   OH225857   5.950   6.258   4.105
 8639TIP3    H125858   6.045   6.263   4.119
 8639TIP3    H225859   5.920   6.349   4.114
 8640TIP3   OH225860   7.114   7.023   3.262
 8640TIP3    H125861   7.127   7.112   3.231
 8640TIP3    H225862   7.162   7.019   3.345
 8641TIP3   OH225863   4.369   5.701   6.190
 8641TIP3    H125864   4.454   5.705   6.146
 8641TIP3    H225865   4.390   5.712   6.283
 8642TIP3   OH225866   1.420   1.007   0.597
 8642TIP3    H125867   1.498   1.055   0.569
 8642TIP3    H225868   1.442   0.974   0.684
 8643TIP3   OH225869   7.771   0.154   1.779
 8643TIP3    H125870   7.806   0.242   1.790
 8643TIP3    H225871   7.739   0.151   1.689
 8644TIP3   OH225872   1.952   4.128   2.153
 8644TIP3    H125873   2.043   4.137   2.182
 8644TIP3    H225874   1.934   4.035   2.161
 8645TIP3   OH225875   1.617   2.442   4.313
 8645TIP3    H125876   1.687   2.397   4.266
 8645TIP3    H225877   1.558   2.473   4.245
 8646TIP3   OH225878   7.880   1.593   3.630
 8646TIP3    H125879   7.891   1.618   3.539
 8646TIP3    H225880   7.949   1.641   3.677
 8647TIP3   OH225881   6.507   3.052   2.424
 8647TIP3    H125882   6.473   2.980   2.478
 8647TIP3    H225883   6.573   3.094   2.480
 8648TIP3   OH225884   3.774   6.396   4.672
 8648TIP3    H125885   3.853   6.447   4.691
 8648TIP3    H225886   3.765   6.337   4.746
 8649TIP3   OH225887   3.405   0.920   6.035
 8649TIP3    H125888   3.387   0.828   6.017
 8649TIP3    H225889   3.320   0.957   6.060
 8650TIP3   OH225890   6.986   0.155   3.489
 8650TIP3    H125891   6.909   0.205   3.462
 8650TIP3    H225892   6.951   0.082   3.539
 8651TIP3   OH225893   0.585   1.200   1.999
 8651TIP3    H125894   0.609   1.242   1.917
 8651TIP3    H225895   0.521   1.259   2.039
 8652TIP3   OH225896   7.597   5.000   3.374
 8652TIP3    H125897   7.605   5.095   3.364
 8652TIP3    H225898   7.505   4.986   3.395
 8653TIP3   OH225899   1.037   4.249   6.835
 8653TIP3    H125900   0.991   4.179   6.789
 8653TIP3    H225901   0.967   4.301   6.876
 8654TIP3   OH225902   7.147   4.823   1.285
 8654TIP3    H125903   7.164   4.848   1.375
 8654TIP3    H225904   7.144   4.728   1.286
 8655TIP3   OH225905   0.997   6.549   6.186
 8655TIP3    H125906   0.988   6.461   6.149
 8655TIP3    H225907   1.090   6.569   6.176
 8656TIP3   OH225908   7.322   7.231   6.169
 8656TIP3    H125909   7.263   7.267   6.235
 8656TIP3    H225910   7.394   7.192   6.219
 8657TIP3   OH225911   4.089   3.038   1.307
 8657TIP3    H125912   4.163   3.075   1.355
 8657TIP3    H225913   4.081   3.093   1.229
 8658TIP3   OH225914   6.195   4.720   6.812
 8658TIP3    H125915   6.279   4.695   6.775
 8658TIP3    H225916   6.130   4.681   6.753
 8659TIP3   OH225917   4.975   0.197   5.199
 8659TIP3    H125918   4.903   0.260   5.188
 8659TIP3    H225919   5.051   0.241   5.161
 8660TIP3   OH225920   1.995   3.308   6.220
 8660TIP3    H125921   2.015   3.223   6.179
 8660TIP3    H225922   1.926   3.345   6.166
 8661TIP3   OH225923   1.142   3.699   3.459
 8661TIP3    H125924   1.111   3.670   3.545
 8661TIP3    H225925   1.230   3.732   3.475
 8662TIP3   OH225926   4.820   0.420   5.158
 8662TIP3    H125927   4.825   0.484   5.228
 8662TIP3    H225928   4.866   0.461   5.085
 8663TIP3   OH225929   4.449   7.084   3.150
 8663TIP3    H125930   4.465   7.010   3.091
 8663TIP3    H225931   4.415   7.153   3.093
 8664TIP3   OH225932   3.751   1.792   6.616
 8664TIP3    H125933   3.793   1.749   6.691
 8664TIP3    H225934   3.702   1.865   6.655
 8665TIP3   OH225935   4.637   3.894   2.670
 8665TIP3    H125936   4.648   3.954   2.596
 8665TIP3    H225937   4.571   3.936   2.725
 8666TIP3   OH225938   7.591   7.823   3.782
 8666TIP3    H125939   7.650   7.773   3.837
 8666TIP3    H225940   7.621   7.807   3.693
 8667TIP3   OH225941   3.161   6.529   6.583
 8667TIP3    H125942   3.137   6.621   6.588
 8667TIP3    H225943   3.092   6.484   6.632
 8668TIP3   OH225944   7.704   1.620   4.703
 8668TIP3    H125945   7.744   1.587   4.784
 8668TIP3    H225946   7.721   1.551   4.638
 8669TIP3   OH225947   2.319   1.306   6.451
 8669TIP3    H125948   2.394   1.247   6.447
 8669TIP3    H225949   2.277   1.299   6.366
 8670TIP3   OH225950   1.324   2.436   6.422
 8670TIP3    H125951   1.411   2.468   6.399
 8670TIP3    H225952   1.304   2.479   6.505
 8671TIP3   OH225953   2.161   5.825   0.042
 8671TIP3    H125954   2.099   5.815   0.115
 8671TIP3    H225955   2.145   5.750  -0.015
 8672TIP3   OH225956   4.720   6.942   0.064
 8672TIP3    H125957   4.630   6.912   0.052
 8672TIP3    H225958   4.770   6.863   0.083
 8673TIP3   OH225959   7.315   4.695   3.573
 8673TIP3    H125960   7.229   4.654   3.584
 8673TIP3    H225961   7.328   4.698   3.479
 8674TIP3   OH225962   3.400   2.181   1.587
 8674TIP3    H125963   3.416   2.261   1.636
 8674TIP3    H225964   3.473   2.175   1.526
 8675TIP3   OH225965   7.420   7.490   5.864
 8675TIP3    H125966   7.485   7.488   5.934
 8675TIP3    H225967   7.386   7.580   5.866
 8676TIP3   OH225968   4.145   7.702   0.686
 8676TIP3    H125969   4.179   7.768   0.625
 8676TIP3    H225970   4.078   7.656   0.635
 8677TIP3   OH225971   7.383   2.914   3.822
 8677TIP3    H125972   7.454   2.949   3.875
 8677TIP3    H225973   7.419   2.835   3.782
 8678TIP3   OH225974   0.073   7.445   3.774
 8678TIP3    H125975   0.095   7.440   3.867
 8678TIP3    H225976  -0.022   7.447   3.772
 8679TIP3   OH225977   6.978   6.926  -0.024
 8679TIP3    H125978   6.931   6.884  -0.096
 8679TIP3    H225979   6.958   6.870   0.052
 8680TIP3   OH225980   0.943   2.664   0.366
 8680TIP3    H125981   0.950   2.573   0.335
 8680TIP3    H225982   1.010   2.670   0.434
 8681TIP3   OH225983   6.558   2.532   5.048
 8681TIP3    H125984   6.648   2.539   5.081
 8681TIP3    H225985   6.550   2.603   4.985
 8682TIP3   OH225986   7.414   4.058   1.412
 8682TIP3    H125987   7.332   4.067   1.363
 8682TIP3    H225988   7.428   4.145   1.450
 8683TIP3   OH225989   2.210   5.662   6.489
 8683TIP3    H125990   2.209   5.747   6.533
 8683TIP3    H225991   2.120   5.630   6.497
 8684TIP3   OH225992   1.320   7.903   1.763
 8684TIP3    H125993   1.322   7.910   1.859
 8684TIP3    H225994   1.256   7.834   1.746
 8685TIP3   OH225995   8.292   2.537   3.546
 8685TIP3    H125996   8.253   2.603   3.605
 8685TIP3    H225997   8.228   2.529   3.475
 8686TIP3   OH225998   0.233   4.382   1.086
 8686TIP3    H125999   0.184   4.463   1.103
 8686TIP3    H226000   0.182   4.337   1.018
 8687TIP3   OH226001   2.229   6.560   1.325
 8687TIP3    H126002   2.263   6.587   1.411
 8687TIP3    H226003   2.271   6.621   1.264
 8688TIP3   OH226004   0.834   1.813   6.026
 8688TIP3    H126005   0.790   1.869   6.090
 8688TIP3    H226006   0.770   1.800   5.957
 8689TIP3   OH226007   5.031   5.930   5.045
 8689TIP3    H126008   5.036   5.971   5.132
 8689TIP3    H226009   5.121   5.908   5.024
 8690TIP3   OH226010   3.610   6.674   2.285
 8690TIP3    H126011   3.550   6.749   2.292
 8690TIP3    H226012   3.597   6.641   2.196
 8691TIP3   OH226013   3.360   5.870   2.689
 8691TIP3    H126014   3.398   5.948   2.729
 8691TIP3    H226015   3.413   5.798   2.722
 8692TIP3   OH226016   3.101   3.858   3.944
 8692TIP3    H126017   3.080   3.765   3.957
 8692TIP3    H226018   3.046   3.904   4.007
 8693TIP3   OH226019   5.881   5.128   0.958
 8693TIP3    H126020   5.834   5.135   1.041
 8693TIP3    H226021   5.889   5.033   0.943
 8694TIP3   OH226022   5.572   1.330   1.061
 8694TIP3    H126023   5.509   1.264   1.032
 8694TIP3    H226024   5.593   1.380   0.981
 8695TIP3   OH226025   6.361   0.326   5.615
 8695TIP3    H126026   6.391   0.393   5.553
 8695TIP3    H226027   6.403   0.246   5.587
 8696TIP3   OH226028   8.107   4.977   1.554
 8696TIP3    H126029   8.137   5.019   1.473
 8696TIP3    H226030   8.052   5.044   1.596
 8697TIP3   OH226031   7.411   7.329   3.193
 8697TIP3    H126032   7.372   7.360   3.111
 8697TIP3    H226033   7.377   7.390   3.259
 8698TIP3   OH226034   2.277   3.476   4.856
 8698TIP3    H126035   2.293   3.398   4.803
 8698TIP3    H226036   2.284   3.445   4.947
 8699TIP3   OH226037   2.100   0.951   2.830
 8699TIP3    H126038   2.066   0.882   2.773
 8699TIP3    H226039   2.023   0.988   2.872
 8700TIP3   OH226040   2.602   0.664   2.404
 8700TIP3    H126041   2.637   0.748   2.373
 8700TIP3    H226042   2.679   0.609   2.417
 8701TIP3   OH226043   7.895   3.672   0.126
 8701TIP3    H126044   7.981   3.706   0.150
 8701TIP3    H226045   7.906   3.577   0.124
 8702TIP3   OH226046   5.132   2.985   4.246
 8702TIP3    H126047   5.066   2.924   4.278
 8702TIP3    H226048   5.116   2.991   4.152
 8703TIP3   OH226049   6.207   0.718   5.396
 8703TIP3    H126050   6.199   0.810   5.422
 8703TIP3    H226051   6.179   0.669   5.472
 8704TIP3   OH226052   0.733   5.917   5.478
 8704TIP3    H126053   0.711   5.844   5.536
 8704TIP3    H226054   0.824   5.939   5.499
 8705TIP3   OH226055   7.634   5.327   1.097
 8705TIP3    H126056   7.591   5.410   1.118
 8705TIP3    H226057   7.723   5.338   1.130
 8706TIP3   OH226058   7.436   3.307   4.242
 8706TIP3    H126059   7.482   3.309   4.158
 8706TIP3    H226060   7.345   3.329   4.219
 8707TIP3   OH226061   0.001   6.157   4.005
 8707TIP3    H126062  -0.074   6.102   3.984
 8707TIP3    H226063   0.070   6.125   3.946
 8708TIP3   OH226064   0.665   3.112   3.755
 8708TIP3    H126065   0.610   3.140   3.682
 8708TIP3    H226066   0.667   3.187   3.814
 8709TIP3   OH226067   4.591   2.043   6.645
 8709TIP3    H126068   4.572   2.043   6.739
 8709TIP3    H226069   4.505   2.040   6.603
 8710TIP3   OH226070   0.229   1.860   0.643
 8710TIP3    H126071   0.209   1.871   0.550
 8710TIP3    H226072   0.146   1.878   0.687
 8711TIP3   OH226073   2.398   2.229   5.175
 8711TIP3    H126074   2.342   2.182   5.114
 8711TIP3    H226075   2.377   2.191   5.260
 8712TIP3   OH226076   8.391   2.646   4.562
 8712TIP3    H126077   8.360   2.625   4.474
 8712TIP3    H226078   8.486   2.657   4.552
 8713TIP3   OH226079   8.214   2.926   5.046
 8713TIP3    H126080   8.288   2.865   5.049
 8713TIP3    H226081   8.243   2.996   4.988
 8714TIP3   OH226082   4.534   4.046   0.595
 8714TIP3    H126083   4.555   4.040   0.502
 8714TIP3    H226084   4.563   3.962   0.632
 8715TIP3   OH226085   5.284   1.702   3.967
 8715TIP3    H126086   5.276   1.611   3.938
 8715TIP3    H226087   5.235   1.705   4.050
 8716TIP3   OH226088   3.060   3.523   1.613
 8716TIP3    H126089   3.008   3.602   1.598
 8716TIP3    H226090   3.000   3.451   1.593
 8717TIP3   OH226091   2.441   1.832   1.303
 8717TIP3    H126092   2.522   1.788   1.277
 8717TIP3    H226093   2.400   1.858   1.220
 8718TIP3   OH226094   1.174   2.485   0.556
 8718TIP3    H126095   1.114   2.493   0.630
 8718TIP3    H226096   1.256   2.454   0.594
 8719TIP3   OH226097   1.280   2.735   6.351
 8719TIP3    H126098   1.290   2.805   6.416
 8719TIP3    H226099   1.250   2.660   6.401
 8720TIP3   OH226100   3.326   2.380   6.147
 8720TIP3    H126101   3.312   2.471   6.171
 8720TIP3    H226102   3.399   2.351   6.202
 8721TIP3   OH226103   8.093   2.674   5.086
 8721TIP3    H126104   8.068   2.753   5.037
 8721TIP3    H226105   8.184   2.689   5.111
 8722TIP3   OH226106   0.239   1.022   6.047
 8722TIP3    H126107   0.158   1.058   6.011
 8722TIP3    H226108   0.264   1.084   6.116
 8723TIP3   OH226109   1.077   7.060   1.262
 8723TIP3    H126110   1.171   7.075   1.267
 8723TIP3    H226111   1.062   6.983   1.317
 8724TIP3   OH226112   7.741   0.870   0.759
 8724TIP3    H126113   7.796   0.800   0.723
 8724TIP3    H226114   7.761   0.946   0.706
 8725TIP3   OH226115   1.609   2.815   4.055
 8725TIP3    H126116   1.691   2.853   4.022
 8725TIP3    H226117   1.614   2.723   4.028
 8726TIP3   OH226118   5.193   3.242   1.698
 8726TIP3    H126119   5.152   3.158   1.680
 8726TIP3    H226120   5.123   3.307   1.685
 8727TIP3   OH226121   4.259   6.182   4.473
 8727TIP3    H126122   4.190   6.121   4.449
 8727TIP3    H226123   4.334   6.156   4.419
 8728TIP3   OH226124   1.888   2.002   0.284
 8728TIP3    H126125   1.891   2.086   0.330
 8728TIP3    H226126   1.863   1.939   0.350
 8729TIP3   OH226127   1.375   3.718   4.257
 8729TIP3    H126128   1.309   3.652   4.235
 8729TIP3    H226129   1.457   3.669   4.261
 8730TIP3   OH226130   2.615   4.043   6.271
 8730TIP3    H126131   2.670   3.965   6.261
 8730TIP3    H226132   2.598   4.047   6.365
 8731TIP3   OH226133   6.499   2.712   6.055
 8731TIP3    H126134   6.562   2.771   6.014
 8731TIP3    H226135   6.510   2.727   6.149
 8732TIP3   OH226136   0.086   1.740   4.421
 8732TIP3    H126137   0.106   1.817   4.475
 8732TIP3    H226138   0.035   1.774   4.348
 8733TIP3   OH226139   2.915   6.608   1.105
 8733TIP3    H126140   2.984   6.583   1.166
 8733TIP3    H226141   2.888   6.526   1.064
 8734TIP3   OH226142   7.133   1.287   0.202
 8734TIP3    H126143   7.199   1.236   0.247
 8734TIP3    H226144   7.050   1.248   0.229
 8735TIP3   OH226145   1.353   1.485   0.245
 8735TIP3    H126146   1.432   1.500   0.297
 8735TIP3    H226147   1.297   1.433   0.302
 8736TIP3   OH226148   4.974   2.728   1.686
 8736TIP3    H126149   4.888   2.717   1.727
 8736TIP3    H226150   4.998   2.640   1.658
 8737TIP3   OH226151   3.007   6.375   6.775
 8737TIP3    H126152   2.917   6.389   6.803
 8737TIP3    H226153   3.028   6.287   6.806
 8738TIP3   OH226154   4.474   0.408   1.587
 8738TIP3    H126155   4.468   0.407   1.491
 8738TIP3    H226156   4.466   0.316   1.612
 8739TIP3   OH226157   7.907   7.724   0.168
 8739TIP3    H126158   7.851   7.761   0.236
 8739TIP3    H226159   7.987   7.775   0.171
 8740TIP3   OH226160   5.811   6.454   2.134
 8740TIP3    H126161   5.720   6.468   2.161
 8740TIP3    H226162   5.861   6.521   2.182
 8741TIP3   OH226163   8.422   7.868   2.250
 8741TIP3    H126164   8.333   7.858   2.218
 8741TIP3    H226165   8.430   7.803   2.320
 8742TIP3   OH226166   3.432   2.312   5.302
 8742TIP3    H126167   3.413   2.381   5.238
 8742TIP3    H226168   3.525   2.294   5.292
 8743TIP3   OH226169   3.154   2.846   4.033
 8743TIP3    H126170   3.224   2.845   4.098
 8743TIP3    H226171   3.142   2.754   4.009
 8744TIP3   OH226172   3.545   0.945   0.722
 8744TIP3    H126173   3.602   1.013   0.758
 8744TIP3    H226174   3.462   0.956   0.769
 8745TIP3   OH226175   4.705   5.207   0.283
 8745TIP3    H126176   4.722   5.114   0.299
 8745TIP3    H226177   4.789   5.242   0.253
 8746TIP3   OH226178   7.331   2.465   2.700
 8746TIP3    H126179   7.391   2.531   2.664
 8746TIP3    H226180   7.385   2.387   2.709
 8747TIP3   OH226181   3.853   6.560   2.302
 8747TIP3    H126182   3.765   6.600   2.302
 8747TIP3    H226183   3.843   6.482   2.356
 8748TIP3   OH226184   0.467   0.359   2.823
 8748TIP3    H126185   0.463   0.328   2.914
 8748TIP3    H226186   0.457   0.454   2.830
 8749TIP3   OH226187   2.275   2.099   1.271
 8749TIP3    H126188   2.291   2.069   1.181
 8749TIP3    H226189   2.229   2.182   1.261
 8750TIP3   OH226190   2.426   6.722   0.598
 8750TIP3    H126191   2.376   6.685   0.670
 8750TIP3    H226192   2.463   6.646   0.553
 8751TIP3   OH226193   5.628   1.046   0.542
 8751TIP3    H126194   5.571   1.115   0.510
 8751TIP3    H226195   5.701   1.092   0.585
 8752TIP3   OH226196   5.942   0.693   1.315
 8752TIP3    H126197   5.958   0.622   1.377
 8752TIP3    H226198   5.852   0.721   1.332
 8753TIP3   OH226199   0.833   1.186   6.133
 8753TIP3    H126200   0.895   1.244   6.177
 8753TIP3    H226201   0.794   1.241   6.064
 8754TIP3   OH226202   4.831   4.153   4.694
 8754TIP3    H126203   4.768   4.204   4.644
 8754TIP3    H226204   4.917   4.182   4.663
 8755TIP3   OH226205   3.980   4.117   6.681
 8755TIP3    H126206   3.989   4.192   6.739
 8755TIP3    H226207   4.013   4.043   6.731
 8756TIP3   OH226208   1.576   3.947   1.042
 8756TIP3    H126209   1.498   3.913   1.085
 8756TIP3    H226210   1.648   3.918   1.098
 8757TIP3   OH226211   2.838   6.842   0.961
 8757TIP3    H126212   2.829   6.792   0.880
 8757TIP3    H226213   2.850   6.776   1.029
 8758TIP3   OH226214   0.115   3.427   3.096
 8758TIP3    H126215   0.089   3.421   3.004
 8758TIP3    H226216   0.200   3.383   3.100
 8759TIP3   OH226217   6.426   2.420   4.483
 8759TIP3    H126218   6.451   2.350   4.422
 8759TIP3    H226219   6.458   2.500   4.442
 8760TIP3   OH226220   6.280   5.782   3.004
 8760TIP3    H126221   6.350   5.830   2.960
 8760TIP3    H226222   6.320   5.750   3.085
 8761TIP3   OH226223   1.019  -0.009   0.307
 8761TIP3    H126224   1.010   0.059   0.240
 8761TIP3    H226225   0.941  -0.064   0.296
 8762TIP3   OH226226   4.448   4.111   4.526
 8762TIP3    H126227   4.505   4.041   4.558
 8762TIP3    H226228   4.370   4.105   4.581
 8763TIP3   OH226229   6.242   1.807   5.994
 8763TIP3    H126230   6.311   1.744   6.016
 8763TIP3    H226231   6.163   1.772   6.036
 8764TIP3   OH226232   8.415   3.121   0.853
 8764TIP3    H126233   8.441   3.047   0.908
 8764TIP3    H226234   8.396   3.192   0.914
 8765TIP3   OH226235   7.936   0.584   5.251
 8765TIP3    H126236   7.981   0.505   5.221
 8765TIP3    H226237   7.990   0.617   5.322
 8766TIP3   OH226238   3.546   2.650   1.729
 8766TIP3    H126239   3.640   2.672   1.733
 8766TIP3    H226240   3.505   2.730   1.695
 8767TIP3   OH226241   7.113   0.486   2.861
 8767TIP3    H126242   7.026   0.488   2.901
 8767TIP3    H226243   7.174   0.490   2.935
 8768TIP3   OH226244   7.742   5.869   5.198
 8768TIP3    H126245   7.832   5.839   5.185
 8768TIP3    H226246   7.702   5.863   5.111
 8769TIP3   OH226247   0.740   7.488   6.571
 8769TIP3    H126248   0.744   7.580   6.544
 8769TIP3    H226249   0.689   7.445   6.503
 8770TIP3   OH226250   1.630   7.622   5.172
 8770TIP3    H126251   1.695   7.670   5.223
 8770TIP3    H226252   1.675   7.599   5.091
 8771TIP3   OH226253   1.677   0.573   1.210
 8771TIP3    H126254   1.584   0.588   1.228
 8771TIP3    H226255   1.713   0.661   1.197
 8772TIP3   OH226256   3.758   5.126   5.944
 8772TIP3    H126257   3.738   5.191   6.011
 8772TIP3    H226258   3.850   5.140   5.923
 8773TIP3   OH226259   0.555   6.471   0.593
 8773TIP3    H126260   0.527   6.498   0.680
 8773TIP3    H226261   0.576   6.552   0.547
 8774TIP3   OH226262   4.009   5.816   2.414
 8774TIP3    H126263   3.969   5.837   2.329
 8774TIP3    H226264   4.100   5.847   2.405
 8775TIP3   OH226265   1.536   3.841   6.613
 8775TIP3    H126266   1.566   3.911   6.671
 8775TIP3    H226267   1.497   3.887   6.539
 8776TIP3   OH226268   5.729   1.706   4.063
 8776TIP3    H126269   5.706   1.773   4.127
 8776TIP3    H226270   5.765   1.755   3.989
 8777TIP3   OH226271   4.707   2.084   1.336
 8777TIP3    H126272   4.737   1.993   1.328
 8777TIP3    H226273   4.612   2.078   1.336
 8778TIP3   OH226274   1.417   6.257   2.861
 8778TIP3    H126275   1.508   6.283   2.850
 8778TIP3    H226276   1.368   6.314   2.801
 8779TIP3   OH226277   2.649   2.301   1.660
 8779TIP3    H126278   2.616   2.385   1.694
 8779TIP3    H226279   2.675   2.319   1.570
 8780TIP3   OH226280   3.400   5.511   1.211
 8780TIP3    H126281   3.375   5.521   1.119
 8780TIP3    H226282   3.319   5.529   1.260
 8781TIP3   OH226283   7.978   7.062   1.349
 8781TIP3    H126284   7.918   7.114   1.402
 8781TIP3    H226285   7.925   6.989   1.317
 8782TIP3   OH226286   6.459   6.775   0.260
 8782TIP3    H126287   6.486   6.868   0.258
 8782TIP3    H226288   6.477   6.747   0.350
 8783TIP3   OH226289   3.111   0.807   5.723
 8783TIP3    H126290   3.177   0.813   5.653
 8783TIP3    H226291   3.140   0.872   5.788
 8784TIP3   OH226292   0.052   7.491   0.442
 8784TIP3    H126293   0.115   7.430   0.482
 8784TIP3    H226294   0.106   7.564   0.412
 8785TIP3   OH226295   4.593   5.271   2.951
 8785TIP3    H126296   4.591   5.206   3.021
 8785TIP3    H226297   4.542   5.231   2.880
 8786TIP3   OH226298   2.460   3.862   3.506
 8786TIP3    H126299   2.441   3.812   3.427
 8786TIP3    H226300   2.518   3.933   3.477
 8787TIP3   OH226301   7.680   1.099   4.825
 8787TIP3    H126302   7.660   1.015   4.867
 8787TIP3    H226303   7.667   1.164   4.894
 8788TIP3   OH226304   2.036   3.688   0.273
 8788TIP3    H126305   2.075   3.651   0.352
 8788TIP3    H226306   1.987   3.764   0.304
 8789TIP3   OH226307   4.148   6.786   0.617
 8789TIP3    H126308   4.240   6.767   0.631
 8789TIP3    H226309   4.149   6.859   0.554
 8790TIP3   OH226310   6.313   0.979   6.168
 8790TIP3    H126311   6.251   1.022   6.227
 8790TIP3    H226312   6.302   0.885   6.185
 8791TIP3   OH226313   5.804   7.822   0.119
 8791TIP3    H126314   5.738   7.793   0.182
 8791TIP3    H226315   5.853   7.742   0.099
 8792TIP3   OH226316   1.964   6.068   5.027
 8792TIP3    H126317   2.019   6.146   5.015
 8792TIP3    H226318   1.980   6.041   5.117
 8793TIP3   OH226319   6.620   1.292   4.777
 8793TIP3    H126320   6.550   1.235   4.744
 8793TIP3    H226321   6.606   1.294   4.871
 8794TIP3   OH226322   0.609   1.089   0.667
 8794TIP3    H126323   0.668   1.043   0.607
 8794TIP3    H226324   0.666   1.143   0.721
 8795TIP3   OH226325   2.624   6.542   2.802
 8795TIP3    H126326   2.555   6.520   2.865
 8795TIP3    H226327   2.578   6.587   2.731
 8796TIP3   OH226328   2.041   6.450   3.517
 8796TIP3    H126329   1.977   6.381   3.538
 8796TIP3    H226330   2.104   6.447   3.589
 8797TIP3   OH226331   0.486   0.076   1.072
 8797TIP3    H126332   0.411   0.085   1.013
 8797TIP3    H226333   0.449   0.088   1.159
 8798TIP3   OH226334   7.629   0.870   6.258
 8798TIP3    H126335   7.676   0.884   6.175
 8798TIP3    H226336   7.683   0.807   6.305
 8799TIP3   OH226337   3.821   3.531   4.254
 8799TIP3    H126338   3.757   3.538   4.184
 8799TIP3    H226339   3.810   3.442   4.289
 8800TIP3   OH226340   2.626   7.478   2.749
 8800TIP3    H126341   2.544   7.476   2.797
 8800TIP3    H226342   2.682   7.538   2.799
 8801TIP3   OH226343   2.678   6.481   3.478
 8801TIP3    H126344   2.658   6.572   3.458
 8801TIP3    H226345   2.680   6.477   3.573
 8802TIP3   OH226346   7.526   2.207   3.008
 8802TIP3    H126347   7.545   2.115   3.026
 8802TIP3    H226348   7.536   2.251   3.092
 8803TIP3   OH226349   7.505   7.157   6.357
 8803TIP3    H126350   7.580   7.197   6.400
 8803TIP3    H226351   7.456   7.115   6.428
 8804TIP3   OH226352   7.324   7.517   3.389
 8804TIP3    H126353   7.297   7.590   3.334
 8804TIP3    H226354   7.308   7.546   3.478
 8805TIP3   OH226355   1.323   2.663   2.871
 8805TIP3    H126356   1.256   2.715   2.828
 8805TIP3    H226357   1.277   2.585   2.903
 8806TIP3   OH226358   7.940   6.822   5.177
 8806TIP3    H126359   7.967   6.914   5.185
 8806TIP3    H226360   7.875   6.823   5.107
 8807TIP3   OH226361   7.701   2.476   1.867
 8807TIP3    H126362   7.739   2.544   1.812
 8807TIP3    H226363   7.734   2.394   1.831
 8808TIP3   OH226364   6.294   7.506   1.659
 8808TIP3    H126365   6.301   7.599   1.680
 8808TIP3    H226366   6.384   7.474   1.658
 8809TIP3   OH226367   3.491   3.289   4.181
 8809TIP3    H126368   3.447   3.317   4.262
 8809TIP3    H226369   3.546   3.363   4.157
 8810TIP3   OH226370   6.882   4.298   4.756
 8810TIP3    H126371   6.957   4.358   4.761
 8810TIP3    H226372   6.813   4.342   4.806
 8811TIP3   OH226373   4.557   4.614   3.902
 8811TIP3    H126374   4.623   4.684   3.896
 8811TIP3    H226375   4.531   4.614   3.994
 8812TIP3   OH226376   1.099   3.619   1.147
 8812TIP3    H126377   1.120   3.667   1.228
 8812TIP3    H226378   1.004   3.623   1.141
 8813TIP3   OH226379   5.217   3.681   2.638
 8813TIP3    H126380   5.194   3.724   2.720
 8813TIP3    H226381   5.133   3.655   2.600
 8814TIP3   OH226382   1.685   5.141   1.607
 8814TIP3    H126383   1.718   5.094   1.683
 8814TIP3    H226384   1.764   5.172   1.562
 8815TIP3   OH226385   2.112   6.514   5.162
 8815TIP3    H126386   2.098   6.455   5.087
 8815TIP3    H226387   2.075   6.467   5.236
 8816TIP3   OH226388   7.149   4.358   0.469
 8816TIP3    H126389   7.063   4.380   0.433
 8816TIP3    H226390   7.202   4.334   0.393
 8817TIP3   OH226391   1.837   4.298   1.977
 8817TIP3    H126392   1.883   4.237   2.034
 8817TIP3    H226393   1.748   4.303   2.014
 8818TIP3   OH226394   3.569   5.485   5.758
 8818TIP3    H126395   3.643   5.517   5.810
 8818TIP3    H226396   3.491   5.517   5.804
 8819TIP3   OH226397   0.411   4.551   6.746
 8819TIP3    H126398   0.370   4.610   6.809
 8819TIP3    H226399   0.480   4.604   6.706
 8820TIP3   OH226400   2.415   4.614   5.144
 8820TIP3    H126401   2.472   4.539   5.128
 8820TIP3    H226402   2.469   4.690   5.123
 8821TIP3   OH226403   6.020   0.290   5.278
 8821TIP3    H126404   5.972   0.207   5.270
 8821TIP3    H226405   6.111   0.264   5.293
 8822TIP3   OH226406   4.491   6.742   2.736
 8822TIP3    H126407   4.484   6.650   2.710
 8822TIP3    H226408   4.417   6.785   2.695
 8823TIP3   OH226409   7.595   0.266   1.451
 8823TIP3    H126410   7.539   0.193   1.478
 8823TIP3    H226411   7.576   0.279   1.359
 8824TIP3   OH226412   5.160   0.606   1.455
 8824TIP3    H126413   5.127   0.584   1.368
 8824TIP3    H226414   5.096   0.568   1.515
 8825TIP3   OH226415   4.175   0.406   0.416
 8825TIP3    H126416   4.134   0.483   0.377
 8825TIP3    H226417   4.265   0.433   0.433
 8826TIP3   OH226418   0.435   3.619   4.108
 8826TIP3    H126419   0.464   3.662   4.188
 8826TIP3    H226420   0.486   3.539   4.104
 8827TIP3   OH226421   7.627   6.139   5.281
 8827TIP3    H126422   7.648   6.047   5.267
 8827TIP3    H226423   7.554   6.137   5.343
 8828TIP3   OH226424   7.080   6.833   1.443
 8828TIP3    H126425   7.121   6.822   1.358
 8828TIP3    H226426   7.142   6.795   1.505
 8829TIP3   OH226427   5.104   3.394   2.612
 8829TIP3    H126428   5.024   3.387   2.664
 8829TIP3    H226429   5.102   3.317   2.555
 8830TIP3   OH226430   6.967   2.158   3.906
 8830TIP3    H126431   7.041   2.135   3.849
 8830TIP3    H226432   6.890   2.130   3.856
 8831TIP3   OH226433   0.730   5.765   1.900
 8831TIP3    H126434   0.698   5.675   1.898
 8831TIP3    H226435   0.662   5.813   1.947
 8832TIP3   OH226436   4.798   4.658   4.742
 8832TIP3    H126437   4.815   4.728   4.804
 8832TIP3    H226438   4.754   4.591   4.794
 8833TIP3   OH226439   1.301   6.185   2.450
 8833TIP3    H126440   1.372   6.131   2.484
 8833TIP3    H226441   1.341   6.237   2.380
 8834TIP3   OH226442   3.539   2.669   4.919
 8834TIP3    H126443   3.490   2.653   4.839
 8834TIP3    H226444   3.601   2.738   4.897
 8835TIP3   OH226445   4.023   5.189   1.637
 8835TIP3    H126446   3.929   5.181   1.652
 8835TIP3    H226447   4.034   5.277   1.600
 8836TIP3   OH226448   5.000   0.065   6.069
 8836TIP3    H126449   4.977  -0.015   6.115
 8836TIP3    H226450   5.090   0.050   6.038
 8837TIP3   OH226451   4.837   6.420   3.966
 8837TIP3    H126452   4.903   6.489   3.957
 8837TIP3    H226453   4.867   6.368   4.041
 8838TIP3   OH226454   5.415   1.981   2.847
 8838TIP3    H126455   5.333   2.020   2.877
 8838TIP3    H226456   5.434   1.912   2.911
 8839TIP3   OH226457   5.403   1.792   4.936
 8839TIP3    H126458   5.338   1.794   5.007
 8839TIP3    H226459   5.353   1.804   4.856
 8840TIP3   OH226460   7.662   0.512   6.702
 8840TIP3    H126461   7.585   0.456   6.709
 8840TIP3    H226462   7.727   0.459   6.655
 8841TIP3   OH226463   0.185   3.707   3.992
 8841TIP3    H126464   0.256   3.661   4.037
 8841TIP3    H226465   0.223   3.792   3.968
 8842TIP3   OH226466   3.191   1.248   0.194
 8842TIP3    H126467   3.188   1.177   0.257
 8842TIP3    H226468   3.257   1.221   0.129
 8843TIP3   OH226469   4.187   6.904   6.462
 8843TIP3    H126470   4.266   6.860   6.493
 8843TIP3    H226471   4.118   6.872   6.520
 8844TIP3   OH226472   0.764   6.351   6.373
 8844TIP3    H126473   0.851   6.323   6.403
 8844TIP3    H226474   0.716   6.368   6.454
 8845TIP3   OH226475   0.946   4.591   1.721
 8845TIP3    H126476   0.933   4.510   1.771
 8845TIP3    H226477   0.992   4.563   1.642
 8846TIP3   OH226478   7.480   7.727   6.540
 8846TIP3    H126479   7.573   7.741   6.525
 8846TIP3    H226480   7.475   7.656   6.604
 8847TIP3   OH226481   5.423   0.316   2.761
 8847TIP3    H126482   5.337   0.320   2.804
 8847TIP3    H226483   5.429   0.227   2.727
 8848TIP3   OH226484   4.320   5.521   2.137
 8848TIP3    H126485   4.254   5.466   2.095
 8848TIP3    H226486   4.302   5.609   2.103
 8849TIP3   OH226487   3.957   1.353   4.203
 8849TIP3    H126488   3.882   1.345   4.261
 8849TIP3    H226489   3.918   1.372   4.117
 8850TIP3   OH226490   0.248   2.996   0.112
 8850TIP3    H126491   0.286   2.909   0.106
 8850TIP3    H226492   0.236   3.024   0.022
 8851TIP3   OH226493   1.040   7.752   5.180
 8851TIP3    H126494   1.090   7.801   5.245
 8851TIP3    H226495   1.095   7.751   5.102
 8852TIP3   OH226496   7.432   6.205   0.637
 8852TIP3    H126497   7.359   6.254   0.674
 8852TIP3    H226498   7.480   6.171   0.712
 8853TIP3   OH226499   7.625   3.863   6.292
 8853TIP3    H126500   7.562   3.866   6.364
 8853TIP3    H226501   7.698   3.916   6.322
 8854TIP3   OH226502   0.729   1.400   5.906
 8854TIP3    H126503   0.633   1.398   5.907
 8854TIP3    H226504   0.751   1.448   5.826
 8855TIP3   OH226505   8.096   4.065   3.688
 8855TIP3    H126506   8.158   4.023   3.628
 8855TIP3    H226507   8.011   4.058   3.644
 8856TIP3   OH226508   5.517   0.285   6.224
 8856TIP3    H126509   5.491   0.292   6.132
 8856TIP3    H226510   5.443   0.321   6.273
 8857TIP3   OH226511   8.232   4.164   1.580
 8857TIP3    H126512   8.191   4.195   1.499
 8857TIP3    H226513   8.279   4.085   1.555
 8858TIP3   OH226514   1.042   2.032   4.312
 8858TIP3    H126515   1.086   2.003   4.392
 8858TIP3    H226516   1.037   1.954   4.257
 8859TIP3   OH226517   0.439   3.189   0.161
 8859TIP3    H126518   0.368   3.127   0.144
 8859TIP3    H226519   0.405   3.273   0.131
 8860TIP3   OH226520   0.204   6.629   6.649
 8860TIP3    H126521   0.143   6.687   6.695
 8860TIP3    H226522   0.151   6.588   6.581
 8861TIP3   OH226523   4.278   1.740   4.986
 8861TIP3    H126524   4.328   1.762   4.907
 8861TIP3    H226525   4.343   1.698   5.043
 8862TIP3   OH226526   7.412   4.029   5.895
 8862TIP3    H126527   7.487   4.060   5.945
 8862TIP3    H226528   7.336   4.054   5.947
 8863TIP3   OH226529   2.910   6.731   6.131
 8863TIP3    H126530   2.907   6.700   6.222
 8863TIP3    H226531   2.848   6.804   6.129
 8864TIP3   OH226532   5.749   3.128   5.529
 8864TIP3    H126533   5.788   3.179   5.458
 8864TIP3    H226534   5.662   3.166   5.541
 8865TIP3   OH226535   3.583   2.624   6.741
 8865TIP3    H126536   3.526   2.624   6.818
 8865TIP3    H226537   3.641   2.699   6.754
 8866TIP3   OH226538   7.290   2.874   5.303
 8866TIP3    H126539   7.338   2.797   5.334
 8866TIP3    H226540   7.282   2.862   5.209
 8867TIP3   OH226541   4.065   3.604   6.142
 8867TIP3    H126542   4.117   3.550   6.082
 8867TIP3    H226543   4.107   3.690   6.139
 8868TIP3   OH226544   8.001   2.495   5.255
 8868TIP3    H126545   7.919   2.522   5.297
 8868TIP3    H226546   8.013   2.559   5.185
 8869TIP3   OH226547   7.215   3.619   1.324
 8869TIP3    H126548   7.239   3.710   1.308
 8869TIP3    H226549   7.269   3.593   1.399
 8870TIP3   OH226550   3.477   2.256   2.353
 8870TIP3    H126551   3.465   2.344   2.389
 8870TIP3    H226552   3.506   2.203   2.427
 8871TIP3   OH226553   8.262   4.027   4.181
 8871TIP3    H126554   8.248   4.072   4.098
 8871TIP3    H226555   8.278   3.935   4.157
 8872TIP3   OH226556   2.620   5.096   4.728
 8872TIP3    H126557   2.640   5.171   4.673
 8872TIP3    H226558   2.678   5.105   4.804
 8873TIP3   OH226559   3.444   1.655   0.451
 8873TIP3    H126560   3.497   1.734   0.455
 8873TIP3    H226561   3.368   1.674   0.507
 8874TIP3   OH226562   1.872   1.674   5.286
 8874TIP3    H126563   1.942   1.623   5.327
 8874TIP3    H226564   1.846   1.623   5.210
 8875TIP3   OH226565   1.496   6.975   4.092
 8875TIP3    H126566   1.543   6.958   4.010
 8875TIP3    H226567   1.507   6.895   4.143
 8876TIP3   OH226568   6.625   0.753   3.061
 8876TIP3    H126569   6.685   0.696   3.111
 8876TIP3    H226570   6.589   0.812   3.127
 8877TIP3   OH226571   6.519   4.124   2.975
 8877TIP3    H126572   6.495   4.033   2.996
 8877TIP3    H226573   6.612   4.129   2.993
 8878TIP3   OH226574   1.072   0.309   1.718
 8878TIP3    H126575   1.112   0.283   1.635
 8878TIP3    H226576   1.146   0.330   1.775
 8879TIP3   OH226577   5.668   0.500   4.954
 8879TIP3    H126578   5.708   0.467   5.035
 8879TIP3    H226579   5.672   0.595   4.962
 8880TIP3   OH226580   3.423   1.100   5.264
 8880TIP3    H126581   3.373   1.032   5.219
 8880TIP3    H226582   3.395   1.181   5.222
 8881TIP3   OH226583   8.110   6.469   1.622
 8881TIP3    H126584   8.194   6.470   1.576
 8881TIP3    H226585   8.082   6.377   1.620
 8882TIP3   OH226586   0.583   3.120   4.820
 8882TIP3    H126587   0.578   3.201   4.769
 8882TIP3    H226588   0.669   3.123   4.862
 8883TIP3   OH226589   3.524   7.801   0.819
 8883TIP3    H126590   3.490   7.890   0.829
 8883TIP3    H226591   3.455   7.744   0.852
 8884TIP3   OH226592   4.194   5.882   5.638
 8884TIP3    H126593   4.216   5.879   5.731
 8884TIP3    H226594   4.126   5.816   5.626
 8885TIP3   OH226595   6.693   2.464   3.998
 8885TIP3    H126596   6.659   2.417   3.921
 8885TIP3    H226597   6.664   2.554   3.986
 8886TIP3   OH226598   1.855   3.005   5.538
 8886TIP3    H126599   1.918   2.961   5.595
 8886TIP3    H226600   1.906   3.029   5.460
 8887TIP3   OH226601   6.133   7.612   0.296
 8887TIP3    H126602   6.073   7.575   0.360
 8887TIP3    H226603   6.215   7.563   0.308
 8888TIP3   OH226604   1.093   4.705   0.393
 8888TIP3    H126605   1.106   4.775   0.329
 8888TIP3    H226606   1.138   4.629   0.356
 8889TIP3   OH226607   0.721   1.526   2.239
 8889TIP3    H126608   0.637   1.563   2.214
 8889TIP3    H226609   0.784   1.597   2.224
 8890TIP3   OH226610   6.003   2.555   0.203
 8890TIP3    H126611   6.029   2.622   0.266
 8890TIP3    H226612   6.086   2.518   0.173
 8891TIP3   OH226613   1.764   0.480   0.936
 8891TIP3    H126614   1.852   0.449   0.915
 8891TIP3    H226615   1.771   0.576   0.935
 8892TIP3   OH226616   2.246   6.810   5.923
 8892TIP3    H126617   2.286   6.878   5.978
 8892TIP3    H226618   2.251   6.845   5.834
 8893TIP3   OH226619   3.098   1.783   3.270
 8893TIP3    H126620   3.156   1.749   3.202
 8893TIP3    H226621   3.027   1.719   3.274
 8894TIP3   OH226622   7.541   5.627   1.099
 8894TIP3    H126623   7.450   5.599   1.090
 8894TIP3    H226624   7.572   5.638   1.009
 8895TIP3   OH226625   3.184   6.562   3.105
 8895TIP3    H126626   3.150   6.487   3.153
 8895TIP3    H226627   3.266   6.583   3.149
 8896TIP3   OH226628   3.834   6.074   3.592
 8896TIP3    H126629   3.847   6.069   3.497
 8896TIP3    H226630   3.851   6.165   3.614
 8897TIP3   OH226631   3.078   7.271   2.202
 8897TIP3    H126632   3.098   7.280   2.109
 8897TIP3    H226633   3.017   7.343   2.221
 8898TIP3   OH226634   6.739   5.392   4.871
 8898TIP3    H126635   6.746   5.478   4.913
 8898TIP3    H226636   6.805   5.393   4.803
 8899TIP3   OH226637   0.043   1.652   4.043
 8899TIP3    H126638   0.005   1.616   3.963
 8899TIP3    H226639   0.137   1.635   4.034
 8900TIP3   OH226640   6.685   3.683   3.768
 8900TIP3    H126641   6.721   3.610   3.818
 8900TIP3    H226642   6.701   3.760   3.823
 8901TIP3   OH226643   3.235   3.931   1.559
 8901TIP3    H126644   3.255   3.906   1.468
 8901TIP3    H226645   3.233   4.026   1.558
 8902TIP3   OH226646   6.593   4.438   2.015
 8902TIP3    H126647   6.501   4.439   2.042
 8902TIP3    H226648   6.637   4.385   2.082
 8903TIP3   OH226649   3.247   2.728   0.424
 8903TIP3    H126650   3.327   2.767   0.390
 8903TIP3    H226651   3.251   2.637   0.397
 8904TIP3   OH226652   3.336   3.050   2.196
 8904TIP3    H126653   3.256   3.040   2.145
 8904TIP3    H226654   3.396   3.098   2.138
 8905TIP3   OH226655   5.404   3.952   4.409
 8905TIP3    H126656   5.320   3.970   4.451
 8905TIP3    H226657   5.381   3.926   4.319
 8906TIP3   OH226658   0.229   2.837   3.482
 8906TIP3    H126659   0.288   2.845   3.406
 8906TIP3    H226660   0.207   2.744   3.485
 8907TIP3   OH226661   1.943   1.659   2.541
 8907TIP3    H126662   1.897   1.593   2.592
 8907TIP3    H226663   2.036   1.638   2.552
 8908TIP3   OH226664   7.098   0.988   1.330
 8908TIP3    H126665   7.148   1.058   1.287
 8908TIP3    H226666   7.164   0.924   1.355
 8909TIP3   OH226667   4.232   5.272   3.518
 8909TIP3    H126668   4.216   5.263   3.612
 8909TIP3    H226669   4.189   5.196   3.479
 8910TIP3   OH226670   7.724   6.827   5.402
 8910TIP3    H126671   7.797   6.861   5.348
 8910TIP3    H226672   7.690   6.753   5.352
 8911TIP3   OH226673  -0.027   1.486   2.624
 8911TIP3    H126674   0.059   1.446   2.635
 8911TIP3    H226675  -0.018   1.543   2.548
 8912TIP3   OH226676   8.382   1.894   1.984
 8912TIP3    H126677   8.458   1.946   2.009
 8912TIP3    H226678   8.312   1.957   1.970
 8913TIP3   OH226679   5.861   3.728   2.557
 8913TIP3    H126680   5.821   3.747   2.472
 8913TIP3    H226681   5.954   3.715   2.538
 8914TIP3   OH226682   0.820   3.422   5.986
 8914TIP3    H126683   0.843   3.337   6.023
 8914TIP3    H226684   0.801   3.477   6.061
 8915TIP3   OH226685   3.797   1.398   3.970
 8915TIP3    H126686   3.824   1.347   3.894
 8915TIP3    H226687   3.767   1.481   3.934
 8916TIP3   OH226688   4.368   3.065   2.791
 8916TIP3    H126689   4.328   2.996   2.842
 8916TIP3    H226690   4.395   3.131   2.855
 8917TIP3   OH226691   3.456   0.971   1.465
 8917TIP3    H126692   3.458   1.067   1.464
 8917TIP3    H226693   3.470   0.947   1.556
 8918TIP3   OH226694   7.783   7.313   6.794
 8918TIP3    H126695   7.835   7.328   6.873
 8918TIP3    H226696   7.820   7.373   6.729
 8919TIP3   OH226697   4.986   0.272   5.863
 8919TIP3    H126698   5.028   0.259   5.948
 8919TIP3    H226699   4.938   0.191   5.847
 8920TIP3   OH226700   5.930   1.400   5.080
 8920TIP3    H126701   5.891   1.374   5.163
 8920TIP3    H226702   5.925   1.495   5.079
 8921TIP3   OH226703   4.395   4.695   0.292
 8921TIP3    H126704   4.425   4.696   0.201
 8921TIP3    H226705   4.447   4.764   0.335
 8922TIP3   OH226706   5.359   1.521   4.941
 8922TIP3    H126707   5.354   1.613   4.917
 8922TIP3    H226708   5.448   1.509   4.974
 8923TIP3   OH226709   7.437   7.153   5.139
 8923TIP3    H126710   7.376   7.116   5.075
 8923TIP3    H226711   7.488   7.077   5.170
 8924TIP3   OH226712   5.085   2.795   3.332
 8924TIP3    H126713   5.149   2.735   3.294
 8924TIP3    H226714   5.080   2.868   3.269
 8925TIP3   OH226715   2.478   0.963   1.606
 8925TIP3    H126716   2.538   0.938   1.536
 8925TIP3    H226717   2.421   1.029   1.566
 8926TIP3   OH226718   7.712   4.168   3.289
 8926TIP3    H126719   7.689   4.076   3.303
 8926TIP3    H226720   7.747   4.170   3.200
 8927TIP3   OH226721   0.036   5.325   3.087
 8927TIP3    H126722   0.077   5.385   3.149
 8927TIP3    H226723   0.068   5.353   3.002
 8928TIP3   OH226724   5.968   5.613   6.323
 8928TIP3    H126725   6.018   5.542   6.363
 8928TIP3    H226726   6.017   5.634   6.243
 8929TIP3   OH226727   1.044   1.282   0.030
 8929TIP3    H126728   0.968   1.325  -0.009
 8929TIP3    H226729   1.088   1.351   0.079
 8930TIP3   OH226730   3.703   5.733   4.010
 8930TIP3    H126731   3.648   5.788   3.955
 8930TIP3    H226732   3.668   5.745   4.099
 8931TIP3   OH226733   5.155   2.588   2.544
 8931TIP3    H126734   5.092   2.551   2.606
 8931TIP3    H226735   5.135   2.682   2.543
 8932TIP3   OH226736   5.596   4.225   5.338
 8932TIP3    H126737   5.507   4.258   5.327
 8932TIP3    H226738   5.608   4.163   5.267
 8933TIP3   OH226739   5.026   4.671   5.558
 8933TIP3    H126740   5.098   4.710   5.608
 8933TIP3    H226741   4.963   4.642   5.625
 8934TIP3   OH226742   2.227   3.327   1.824
 8934TIP3    H126743   2.313   3.286   1.834
 8934TIP3    H226744   2.215   3.335   1.729
 8935TIP3   OH226745   7.527   3.679   0.982
 8935TIP3    H126746   7.614   3.640   0.987
 8935TIP3    H226747   7.484   3.631   0.911
 8936TIP3   OH226748   2.134   3.888   2.215
 8936TIP3    H126749   2.110   3.838   2.293
 8936TIP3    H226750   2.229   3.895   2.220
 8937TIP3   OH226751   6.800   2.289   3.615
 8937TIP3    H126752   6.732   2.269   3.680
 8937TIP3    H226753   6.775   2.239   3.538
 8938TIP3   OH226754   0.585   5.805   4.060
 8938TIP3    H126755   0.504   5.793   4.010
 8938TIP3    H226756   0.563   5.778   4.149
 8939TIP3   OH226757   1.755   2.844   1.391
 8939TIP3    H126758   1.676   2.866   1.441
 8939TIP3    H226759   1.763   2.749   1.399
 8940TIP3   OH226760   4.601   6.663   3.671
 8940TIP3    H126761   4.629   6.665   3.579
 8940TIP3    H226762   4.548   6.742   3.681
 8941TIP3   OH226763   5.557   2.885   3.530
 8941TIP3    H126764   5.505   2.810   3.558
 8941TIP3    H226765   5.629   2.889   3.593
 8942TIP3   OH226766   3.079   3.710   0.869
 8942TIP3    H126767   3.077   3.805   0.862
 8942TIP3    H226768   3.160   3.684   0.827
 8943TIP3   OH226769   6.480   7.413   3.511
 8943TIP3    H126770   6.560   7.459   3.483
 8943TIP3    H226771   6.412   7.480   3.504
 8944TIP3   OH226772   0.735   2.263   1.015
 8944TIP3    H126773   0.650   2.257   1.058
 8944TIP3    H226774   0.715   2.254   0.922
 8945TIP3   OH226775   4.590   2.470   2.084
 8945TIP3    H126776   4.648   2.495   2.156
 8945TIP3    H226777   4.645   2.415   2.028
 8946TIP3   OH226778   4.625   1.621   2.886
 8946TIP3    H126779   4.608   1.644   2.977
 8946TIP3    H226780   4.709   1.576   2.888
 8947TIP3   OH226781   0.886   3.076   0.400
 8947TIP3    H126782   0.844   2.997   0.434
 8947TIP3    H226783   0.813   3.132   0.372
 8948TIP3   OH226784   6.595   7.000   5.938
 8948TIP3    H126785   6.528   6.941   5.971
 8948TIP3    H226786   6.561   7.030   5.854
 8949TIP3   OH226787   1.721   1.980   0.798
 8949TIP3    H126788   1.651   2.020   0.851
 8949TIP3    H226789   1.797   1.979   0.856
 8950TIP3   OH226790   2.623   2.913   6.084
 8950TIP3    H126791   2.642   2.819   6.075
 8950TIP3    H226792   2.537   2.923   6.043
 8951TIP3   OH226793   6.144   0.071   3.393
 8951TIP3    H126794   6.138   0.129   3.318
 8951TIP3    H226795   6.160  -0.015   3.356
 8952TIP3   OH226796   1.113   3.604   0.309
 8952TIP3    H126797   1.176   3.541   0.342
 8952TIP3    H226798   1.077   3.563   0.230
 8953TIP3   OH226799   2.507   0.101   1.829
 8953TIP3    H126800   2.561   0.171   1.866
 8953TIP3    H226801   2.446   0.079   1.899
 8954TIP3   OH226802   4.036   6.617   3.934
 8954TIP3    H126803   4.020   6.638   4.026
 8954TIP3    H226804   4.131   6.625   3.924
 8955TIP3   OH226805   1.134   0.888   3.621
 8955TIP3    H126806   1.195   0.862   3.690
 8955TIP3    H226807   1.119   0.808   3.570
 8956TIP3   OH226808   1.041   7.718   2.126
 8956TIP3    H126809   1.033   7.639   2.073
 8956TIP3    H226810   1.071   7.687   2.212
 8957TIP3   OH226811   2.688   6.032   5.186
 8957TIP3    H126812   2.781   6.012   5.179
 8957TIP3    H226813   2.660   6.053   5.097
 8958TIP3   OH226814   1.488   1.967   1.812
 8958TIP3    H126815   1.429   2.038   1.836
 8958TIP3    H226816   1.575   1.998   1.837
 8959TIP3   OH226817   7.374   4.372   5.943
 8959TIP3    H126818   7.329   4.423   5.876
 8959TIP3    H226819   7.310   4.307   5.971
 8960TIP3   OH226820   2.560   4.665   3.993
 8960TIP3    H126821   2.624   4.595   3.980
 8960TIP3    H226822   2.481   4.620   4.021
 8961TIP3   OH226823   0.021   2.359   0.392
 8961TIP3    H126824  -0.043   2.366   0.322
 8961TIP3    H226825   0.060   2.273   0.381
 8962TIP3   OH226826   3.432   7.681   2.927
 8962TIP3    H126827   3.476   7.758   2.964
 8962TIP3    H226828   3.369   7.656   2.993
 8963TIP3   OH226829   4.377   3.099   6.520
 8963TIP3    H126830   4.395   3.006   6.536
 8963TIP3    H226831   4.461   3.135   6.491
 8964TIP3   OH226832   6.207   5.358   5.831
 8964TIP3    H126833   6.202   5.326   5.741
 8964TIP3    H226834   6.116   5.364   5.860
 8965TIP3   OH226835   3.725   3.278   0.326
 8965TIP3    H126836   3.766   3.364   0.339
 8965TIP3    H226837   3.635   3.299   0.300
 8966TIP3   OH226838   2.439   4.160   5.308
 8966TIP3    H126839   2.424   4.211   5.388
 8966TIP3    H226840   2.352   4.135   5.279
 8967TIP3   OH226841   2.838   3.421   6.554
 8967TIP3    H126842   2.808   3.480   6.485
 8967TIP3    H226843   2.828   3.333   6.517
 8968TIP3   OH226844   7.847   6.046   3.347
 8968TIP3    H126845   7.813   6.099   3.419
 8968TIP3    H226846   7.885   5.969   3.390
 8969TIP3   OH226847   4.669   6.482   2.534
 8969TIP3    H126848   4.650   6.397   2.572
 8969TIP3    H226849   4.621   6.483   2.452
 8970TIP3   OH226850   7.434   5.865   2.842
 8970TIP3    H126851   7.442   5.890   2.750
 8970TIP3    H226852   7.392   5.939   2.884
 8971TIP3   OH226853   6.348   6.471   5.548
 8971TIP3    H126854   6.300   6.504   5.472
 8971TIP3    H226855   6.332   6.537   5.616
 8972TIP3   OH226856   5.238   2.022   5.234
 8972TIP3    H126857   5.244   1.934   5.196
 8972TIP3    H226858   5.195   2.009   5.318
 8973TIP3   OH226859   3.892   2.430   1.435
 8973TIP3    H126860   3.920   2.522   1.430
 8973TIP3    H226861   3.799   2.433   1.412
 8974TIP3   OH226862   3.121   1.208   1.314
 8974TIP3    H126863   3.033   1.170   1.323
 8974TIP3    H226864   3.162   1.194   1.399
 8975TIP3   OH226865   4.054   2.741   4.023
 8975TIP3    H126866   4.107   2.685   4.080
 8975TIP3    H226867   4.054   2.697   3.939
 8976TIP3   OH226868   7.983   2.654   2.442
 8976TIP3    H126869   7.984   2.750   2.445
 8976TIP3    H226870   8.069   2.628   2.476
 8977TIP3   OH226871   4.608   0.292   4.756
 8977TIP3    H126872   4.578   0.226   4.693
 8977TIP3    H226873   4.637   0.242   4.831
 8978TIP3   OH226874   4.476   2.192   0.006
 8978TIP3    H126875   4.496   2.099  -0.008
 8978TIP3    H226876   4.554   2.226   0.051
 8979TIP3   OH226877   4.923   5.483   2.590
 8979TIP3    H126878   4.987   5.504   2.522
 8979TIP3    H226879   4.858   5.427   2.547
 8980TIP3   OH226880   4.494   1.820   6.420
 8980TIP3    H126881   4.496   1.804   6.326
 8980TIP3    H226882   4.587   1.823   6.445
 8981TIP3   OH226883   0.311   1.258   3.511
 8981TIP3    H126884   0.309   1.248   3.606
 8981TIP3    H226885   0.356   1.342   3.496
 8982TIP3   OH226886   6.360   0.070   1.982
 8982TIP3    H126887   6.320   0.044   1.899
 8982TIP3    H226888   6.452   0.086   1.960
 8983TIP3   OH226889   1.795   1.278   5.250
 8983TIP3    H126890   1.841   1.195   5.247
 8983TIP3    H226891   1.711   1.261   5.207
 8984TIP3   OH226892   6.495   0.972   4.389
 8984TIP3    H126893   6.572   0.975   4.446
 8984TIP3    H226894   6.422   0.989   4.447
 8985TIP3   OH226895   5.421   7.404   5.174
 8985TIP3    H126896   5.507   7.410   5.131
 8985TIP3    H226897   5.412   7.311   5.197
 8986TIP3   OH226898   7.225   7.695   2.286
 8986TIP3    H126899   7.218   7.775   2.233
 8986TIP3    H226900   7.311   7.701   2.327
 8987TIP3   OH226901   6.999   1.418   1.698
 8987TIP3    H126902   6.964   1.448   1.613
 8987TIP3    H226903   7.039   1.496   1.736
 8988TIP3   OH226904   7.935   1.477   2.862
 8988TIP3    H126905   7.996   1.409   2.891
 8988TIP3    H226906   7.849   1.445   2.886
 8989TIP3   OH226907   2.967   1.222   3.275
 8989TIP3    H126908   2.914   1.143   3.280
 8989TIP3    H226909   3.053   1.196   3.308
 8990TIP3   OH226910   5.746   2.822   6.791
 8990TIP3    H126911   5.711   2.885   6.728
 8990TIP3    H226912   5.737   2.865   6.876
 8991TIP3   OH226913   6.888   7.703   3.242
 8991TIP3    H126914   6.969   7.739   3.278
 8991TIP3    H226915   6.906   7.692   3.149
 8992TIP3   OH226916   3.428   6.832   4.980
 8992TIP3    H126917   3.500   6.871   4.931
 8992TIP3    H226918   3.405   6.753   4.930
 8993TIP3   OH226919   0.584   7.568   1.734
 8993TIP3    H126920   0.571   7.506   1.662
 8993TIP3    H226921   0.669   7.608   1.716
 8994TIP3   OH226922   6.049   5.695   3.929
 8994TIP3    H126923   6.132   5.664   3.891
 8994TIP3    H226924   6.036   5.639   4.006
 8995TIP3   OH226925   7.272   6.554   2.479
 8995TIP3    H126926   7.345   6.599   2.438
 8995TIP3    H226927   7.268   6.469   2.434
 8996TIP3   OH226928   1.087   1.780   1.858
 8996TIP3    H126929   1.043   1.861   1.884
 8996TIP3    H226930   1.015   1.721   1.834
 8997TIP3   OH226931   3.427   6.655   6.490
 8997TIP3    H126932   3.437   6.603   6.411
 8997TIP3    H226933   3.401   6.592   6.558
 8998TIP3   OH226934   0.559   7.730   5.593
 8998TIP3    H126935   0.526   7.657   5.540
 8998TIP3    H226936   0.482   7.765   5.636
 8999TIP3   OH226937   3.046   5.836   0.735
 8999TIP3    H126938   2.956   5.807   0.745
 8999TIP3    H226939   3.097   5.755   0.729
 9000TIP3   OH226940   3.198   2.619   6.354
 9000TIP3    H126941   3.121   2.574   6.319
 9000TIP3    H226942   3.212   2.579   6.440
 9001TIP3   OH226943   7.205   6.656   2.726
 9001TIP3    H126944   7.285   6.641   2.776
 9001TIP3    H226945   7.208   6.591   2.656
 9002TIP3   OH226946   0.581   4.895   6.367
 9002TIP3    H126947   0.550   4.824   6.311
 9002TIP3    H226948   0.671   4.870   6.390
 9003TIP3   OH226949   1.663   3.634   5.511
 9003TIP3    H126950   1.675   3.648   5.604
 9003TIP3    H226951   1.568   3.634   5.498
 9004TIP3   OH226952   3.811   6.260   1.701
 9004TIP3    H126953   3.843   6.261   1.611
 9004TIP3    H226954   3.724   6.299   1.696
 9005TIP3   OH226955   4.569   1.881   2.776
 9005TIP3    H126956   4.601   1.791   2.786
 9005TIP3    H226957   4.647   1.933   2.760
 9006TIP3   OH226958   5.322   7.316   2.013
 9006TIP3    H126959   5.288   7.374   2.080
 9006TIP3    H226960   5.309   7.228   2.048
 9007TIP3   OH226961   2.740   3.116   0.835
 9007TIP3    H126962   2.677   3.072   0.892
 9007TIP3    H226963   2.815   3.134   0.892
 9008TIP3   OH226964   4.507   3.175   4.359
 9008TIP3    H126965   4.520   3.089   4.320
 9008TIP3    H226966   4.431   3.164   4.416
 9009TIP3   OH226967   3.347   7.839   0.479
 9009TIP3    H126968   3.390   7.910   0.431
 9009TIP3    H226969   3.318   7.881   0.561
 9010TIP3   OH226970   0.875   4.800   6.184
 9010TIP3    H126971   0.906   4.727   6.238
 9010TIP3    H226972   0.891   4.877   6.238
 9011TIP3   OH226973   7.329   6.322   4.586
 9011TIP3    H126974   7.243   6.279   4.580
 9011TIP3    H226975   7.379   6.286   4.513
 9012TIP3   OH226976   2.138   0.260   6.591
 9012TIP3    H126977   2.138   0.313   6.511
 9012TIP3    H226978   2.046   0.236   6.603
 9013TIP3   OH226979   4.242   7.185   6.451
 9013TIP3    H126980   4.177   7.253   6.471
 9013TIP3    H226981   4.195   7.102   6.465
 9014TIP3   OH226982   4.793   1.469   0.767
 9014TIP3    H126983   4.828   1.403   0.707
 9014TIP3    H226984   4.869   1.494   0.821
 9015TIP3   OH226985   3.552   3.243   2.963
 9015TIP3    H126986   3.598   3.173   2.917
 9015TIP3    H226987   3.575   3.322   2.914
 9016TIP3   OH226988   7.735   2.416   5.118
 9016TIP3    H126989   7.671   2.430   5.188
 9016TIP3    H226990   7.707   2.477   5.049
 9017TIP3   OH226991   5.167   0.240   1.914
 9017TIP3    H126992   5.213   0.191   1.846
 9017TIP3    H226993   5.123   0.173   1.967
 9018TIP3   OH226994   6.019   7.083   5.188
 9018TIP3    H126995   6.103   7.046   5.160
 9018TIP3    H226996   5.972   7.100   5.106
 9019TIP3   OH226997   2.065   6.577   6.161
 9019TIP3    H126998   2.069   6.657   6.214
 9019TIP3    H226999   2.086   6.507   6.222
 9020TIP3   OH227000   5.753   2.463   5.006
 9020TIP3    H127001   5.840   2.494   4.982
 9020TIP3    H227002   5.696   2.539   4.993
 9021TIP3   OH227003   3.399   5.739   1.557
 9021TIP3    H127004   3.473   5.689   1.522
 9021TIP3    H227005   3.333   5.672   1.578
 9022TIP3   OH227006   4.635   6.432   4.732
 9022TIP3    H127007   4.600   6.509   4.687
 9022TIP3    H227008   4.609   6.445   4.824
 9023TIP3   OH227009   1.929   3.323   5.031
 9023TIP3    H127010   1.914   3.279   5.114
 9023TIP3    H227011   1.944   3.253   4.968
 9024TIP3   OH227012   4.253   1.797   0.597
 9024TIP3    H127013   4.194   1.849   0.543
 9024TIP3    H227014   4.196   1.745   0.654
 9025TIP3   OH227015   7.780   0.431   2.125
 9025TIP3    H127016   7.792   0.418   2.031
 9025TIP3    H227017   7.735   0.352   2.154
 9026TIP3   OH227018   6.693   6.151   1.841
 9026TIP3    H127019   6.709   6.183   1.930
 9026TIP3    H227020   6.601   6.171   1.824
 9027TIP3   OH227021   4.665   3.491   3.854
 9027TIP3    H127022   4.600   3.465   3.918
 9027TIP3    H227023   4.748   3.491   3.902
 9028TIP3   OH227024   0.866   2.818   5.971
 9028TIP3    H127025   0.873   2.765   6.051
 9028TIP3    H227026   0.776   2.807   5.942
 9029TIP3   OH227027   6.821   1.053   5.945
 9029TIP3    H127028   6.801   1.056   5.851
 9029TIP3    H227029   6.905   1.008   5.950
 9030TIP3   OH227030   7.994   7.590   4.064
 9030TIP3    H127031   8.055   7.527   4.103
 9030TIP3    H227032   7.907   7.557   4.088
 9031TIP3   OH227033   4.259   3.235   4.153
 9031TIP3    H127034   4.194   3.283   4.101
 9031TIP3    H227035   4.237   3.143   4.139
 9032TIP3   OH227036   6.672   3.227   0.105
 9032TIP3    H127037   6.720   3.291   0.052
 9032TIP3    H227038   6.678   3.261   0.194
 9033TIP3   OH227039   7.803   6.029   0.591
 9033TIP3    H127040   7.825   6.064   0.505
 9033TIP3    H227041   7.794   5.934   0.577
 9034TIP3   OH227042   8.203   4.875   2.186
 9034TIP3    H127043   8.208   4.782   2.169
 9034TIP3    H227044   8.214   4.917   2.101
 9035TIP3   OH227045   3.626   4.743   2.900
 9035TIP3    H127046   3.599   4.652   2.910
 9035TIP3    H227047   3.721   4.742   2.915
 9036TIP3   OH227048   4.712   4.733   2.560
 9036TIP3    H127049   4.768   4.792   2.509
 9036TIP3    H227050   4.715   4.650   2.512
 9037TIP3   OH227051   7.875   4.671   2.885
 9037TIP3    H127052   7.791   4.665   2.840
 9037TIP3    H227053   7.853   4.667   2.978
 9038TIP3   OH227054   2.798   3.700   3.038
 9038TIP3    H127055   2.788   3.614   2.996
 9038TIP3    H227056   2.708   3.731   3.049
 9039TIP3   OH227057   4.465   5.175   6.241
 9039TIP3    H127058   4.427   5.257   6.273
 9039TIP3    H227059   4.389   5.120   6.222
 9040TIP3   OH227060   5.866   0.906   4.044
 9040TIP3    H127061   5.836   0.929   3.956
 9040TIP3    H227062   5.850   0.985   4.096
 9041TIP3   OH227063   3.972   1.215   1.002
 9041TIP3    H127064   3.886   1.207   1.043
 9041TIP3    H227065   4.026   1.148   1.043
 9042TIP3   OH227066   2.719   4.630   2.627
 9042TIP3    H127067   2.741   4.586   2.545
 9042TIP3    H227068   2.744   4.568   2.695
 9043TIP3   OH227069   0.126   6.082   1.762
 9043TIP3    H127070   0.218   6.060   1.779
 9043TIP3    H227071   0.092   6.008   1.712
 9044TIP3   OH227072   0.070   5.908   5.735
 9044TIP3    H127073   0.086   5.984   5.792
 9044TIP3    H227074   0.015   5.850   5.788
 9045TIP3   OH227075   6.976   7.762   5.192
 9045TIP3    H127076   7.055   7.782   5.242
 9045TIP3    H227077   6.997   7.790   5.103
 9046TIP3   OH227078   3.979   5.316   2.332
 9046TIP3    H127079   4.013   5.232   2.364
 9046TIP3    H227080   4.021   5.381   2.389
 9047TIP3   OH227081   3.063   1.979   5.306
 9047TIP3    H127082   3.017   1.926   5.371
 9047TIP3    H227083   3.000   1.990   5.234
 9048TIP3   OH227084   6.988   2.183   5.281
 9048TIP3    H127085   6.968   2.090   5.267
 9048TIP3    H227086   7.013   2.189   5.373
 9049TIP3   OH227087   4.791   7.470   1.511
 9049TIP3    H127088   4.791   7.507   1.422
 9049TIP3    H227089   4.803   7.376   1.497
 9050TIP3   OH227090   4.562   6.896   1.845
 9050TIP3    H127091   4.553   6.934   1.932
 9050TIP3    H227092   4.577   6.803   1.862
 9051TIP3   OH227093   5.900   6.494   0.330
 9051TIP3    H127094   5.819   6.444   0.343
 9051TIP3    H227095   5.958   6.466   0.400
 9052TIP3   OH227096   0.322   3.421   6.535
 9052TIP3    H127097   0.256   3.486   6.559
 9052TIP3    H227098   0.403   3.471   6.525
 9053TIP3   OH227099   3.705   0.055   5.901
 9053TIP3    H127100   3.646   0.030   5.831
 9053TIP3    H227101   3.647   0.083   5.973
 9054TIP3   OH227102   7.768   0.151   0.138
 9054TIP3    H127103   7.756   0.246   0.132
 9054TIP3    H227104   7.710   0.116   0.070
 9055TIP3   OH227105   2.767   7.817   1.603
 9055TIP3    H127106   2.787   7.836   1.695
 9055TIP3    H227107   2.847   7.775   1.570
 9056TIP3   OH227108   1.473   4.300   3.649
 9056TIP3    H127109   1.512   4.281   3.564
 9056TIP3    H227110   1.510   4.385   3.674
 9057TIP3   OH227111   1.254   6.280   4.919
 9057TIP3    H127112   1.246   6.184   4.926
 9057TIP3    H227113   1.326   6.302   4.978
 9058TIP3   OH227114   4.815   5.974   1.849
 9058TIP3    H127115   4.904   6.003   1.826
 9058TIP3    H227116   4.761   6.052   1.838
 9059TIP3   OH227117   2.025   6.212   4.301
 9059TIP3    H127118   2.043   6.184   4.211
 9059TIP3    H227119   1.968   6.289   4.291
 9060TIP3   OH227120   1.660   4.158  -0.034
 9060TIP3    H127121   1.711   4.192   0.039
 9060TIP3    H227122   1.574   4.140   0.003
 9061TIP3   OH227123   6.168   4.568   4.752
 9061TIP3    H127124   6.082   4.538   4.782
 9061TIP3    H227125   6.220   4.577   4.833
 9062TIP3   OH227126   7.864   4.384   1.276
 9062TIP3    H127127   7.810   4.452   1.235
 9062TIP3    H227128   7.951   4.423   1.283
 9063TIP3   OH227129   5.600   4.945   4.214
 9063TIP3    H127130   5.669   4.957   4.148
 9063TIP3    H227131   5.644   4.901   4.287
 9064TIP3   OH227132   4.177   4.007   5.493
 9064TIP3    H127133   4.149   3.997   5.402
 9064TIP3    H227134   4.159   4.099   5.514
 9065TIP3   OH227135   7.475   4.326   1.405
 9065TIP3    H127136   7.478   4.394   1.338
 9065TIP3    H227137   7.563   4.289   1.406
 9066TIP3   OH227138   1.254   2.544   0.308
 9066TIP3    H127139   1.296   2.628   0.323
 9066TIP3    H227140   1.227   2.514   0.395
 9067TIP3   OH227141   1.340   0.867   0.926
 9067TIP3    H127142   1.323   0.932   0.994
 9067TIP3    H227143   1.274   0.886   0.859
 9068TIP3   OH227144   3.101   2.223   4.314
 9068TIP3    H127145   3.006   2.228   4.304
 9068TIP3    H227146   3.114   2.196   4.405
 9069TIP3   OH227147   4.172   6.176   0.814
 9069TIP3    H127148   4.254   6.207   0.777
 9069TIP3    H227149   4.191   6.088   0.846
 9070TIP3   OH227150   5.795   6.449   4.443
 9070TIP3    H127151   5.761   6.360   4.437
 9070TIP3    H227152   5.863   6.453   4.376
 9071TIP3   OH227153   3.793   0.625   2.596
 9071TIP3    H127154   3.834   0.542   2.573
 9071TIP3    H227155   3.866   0.682   2.621
 9072TIP3   OH227156   3.959   3.750   1.941
 9072TIP3    H127157   3.993   3.771   2.027
 9072TIP3    H227158   3.865   3.768   1.947
 9073TIP3   OH227159   1.331   3.952   5.059
 9073TIP3    H127160   1.299   3.864   5.080
 9073TIP3    H227161   1.388   3.975   5.132
 9074TIP3   OH227162   0.929   7.355   0.661
 9074TIP3    H127163   0.904   7.388   0.574
 9074TIP3    H227164   0.849   7.359   0.712
 9075TIP3   OH227165   1.364   5.148   3.206
 9075TIP3    H127166   1.291   5.123   3.263
 9075TIP3    H227167   1.340   5.112   3.120
 9076TIP3   OH227168   5.890   1.953   2.316
 9076TIP3    H127169   5.825   1.965   2.384
 9076TIP3    H227170   5.974   1.969   2.360
 9077TIP3   OH227171   6.687   1.168   5.270
 9077TIP3    H127172   6.630   1.237   5.305
 9077TIP3    H227173   6.637   1.132   5.196
 9078TIP3   OH227174   6.636   7.419   2.808
 9078TIP3    H127175   6.650   7.514   2.804
 9078TIP3    H227176   6.706   7.382   2.755
 9079TIP3   OH227177   0.520   1.119   6.196
 9079TIP3    H127178   0.562   1.117   6.110
 9079TIP3    H227179   0.592   1.108   6.258
 9080TIP3   OH227180   2.892   1.136   6.313
 9080TIP3    H127181   2.864   1.139   6.404
 9080TIP3    H227182   2.986   1.116   6.318
 9081TIP3   OH227183   2.967   0.926   6.128
 9081TIP3    H127184   3.009   1.009   6.151
 9081TIP3    H227185   2.881   0.930   6.168
 9082TIP3   OH227186   1.991   7.811   1.972
 9082TIP3    H127187   1.903   7.802   2.007
 9082TIP3    H227188   1.990   7.894   1.924
 9083TIP3   OH227189   7.858   3.351   2.721
 9083TIP3    H127190   7.838   3.259   2.740
 9083TIP3    H227191   7.881   3.388   2.807
 9084TIP3   OH227192   6.160   4.408   5.732
 9084TIP3    H127193   6.097   4.354   5.780
 9084TIP3    H227194   6.222   4.345   5.695
 9085TIP3   OH227195   1.234   6.146   5.600
 9085TIP3    H127196   1.163   6.082   5.603
 9085TIP3    H227197   1.301   6.109   5.658
 9086TIP3   OH227198   6.609   4.999   0.528
 9086TIP3    H127199   6.598   5.002   0.433
 9086TIP3    H227200   6.525   5.029   0.562
 9087TIP3   OH227201   3.943   6.160   1.113
 9087TIP3    H127202   3.889   6.147   1.036
 9087TIP3    H227203   3.884   6.197   1.178
 9088TIP3   OH227204   2.164   7.095   0.559
 9088TIP3    H127205   2.121   7.180   0.555
 9088TIP3    H227206   2.099   7.033   0.525
 9089TIP3   OH227207   4.212   4.994   5.640
 9089TIP3    H127208   4.142   4.929   5.631
 9089TIP3    H227209   4.173   5.076   5.610
 9090TIP3   OH227210   4.455   6.049   5.145
 9090TIP3    H127211   4.402   6.061   5.067
 9090TIP3    H227212   4.545   6.044   5.112
 9091TIP3   OH227213   1.817   5.296   5.195
 9091TIP3    H127214   1.818   5.273   5.288
 9091TIP3    H227215   1.905   5.332   5.179
 9092TIP3   OH227216   7.792   4.806   0.408
 9092TIP3    H127217   7.702   4.830   0.384
 9092TIP3    H227218   7.847   4.858   0.350
 9093TIP3   OH227219   7.590   7.048   5.943
 9093TIP3    H127220   7.511   7.012   5.983
 9093TIP3    H227221   7.564   7.070   5.854
 9094TIP3   OH227222   7.831   4.843   4.170
 9094TIP3    H127223   7.802   4.924   4.128
 9094TIP3    H227224   7.764   4.826   4.236
 9095TIP3   OH227225   1.924   6.911   1.225
 9095TIP3    H127226   1.964   6.907   1.312
 9095TIP3    H227227   1.998   6.910   1.165
 9096TIP3   OH227228   1.087   0.616   5.798
 9096TIP3    H127229   1.122   0.705   5.792
 9096TIP3    H227230   0.993   0.625   5.783
 9097TIP3   OH227231   6.961   6.557   4.018
 9097TIP3    H127232   6.868   6.536   4.021
 9097TIP3    H227233   6.980   6.597   4.103
 9098TIP3   OH227234   5.325   1.031   3.657
 9098TIP3    H127235   5.251   1.021   3.716
 9098TIP3    H227236   5.315   0.959   3.594
 9099TIP3   OH227237   4.645   6.184   4.584
 9099TIP3    H127238   4.668   6.252   4.646
 9099TIP3    H227239   4.669   6.102   4.628
 9100TIP3   OH227240   1.970   1.413   3.612
 9100TIP3    H127241   1.934   1.460   3.688
 9100TIP3    H227242   1.895   1.402   3.554
 9101TIP3   OH227243   1.181   5.476   5.849
 9101TIP3    H127244   1.098   5.430   5.839
 9101TIP3    H227245   1.219   5.478   5.761
 9102TIP3   OH227246   1.272   3.985   0.536
 9102TIP3    H127247   1.309   4.066   0.502
 9102TIP3    H227248   1.267   4.000   0.631
 9103TIP3   OH227249   6.631   4.160   6.048
 9103TIP3    H127250   6.645   4.118   5.963
 9103TIP3    H227251   6.554   4.215   6.035
 9104TIP3   OH227252   6.208   5.395   1.294
 9104TIP3    H127253   6.294   5.352   1.289
 9104TIP3    H227254   6.160   5.361   1.219
 9105TIP3   OH227255   1.078   6.923   3.654
 9105TIP3    H127256   0.983   6.924   3.665
 9105TIP3    H227257   1.094   6.977   3.577
 9106TIP3   OH227258   2.744   3.887   3.926
 9106TIP3    H127259   2.805   3.954   3.954
 9106TIP3    H227260   2.660   3.913   3.964
 9107TIP3   OH227261   0.276   5.149   2.931
 9107TIP3    H127262   0.336   5.093   2.980
 9107TIP3    H227263   0.314   5.236   2.938
 9108TIP3   OH227264   1.982   1.950   2.282
 9108TIP3    H127265   2.034   1.985   2.210
 9108TIP3    H227266   2.047   1.919   2.346
 9109TIP3   OH227267   3.649   7.004   0.011
 9109TIP3    H127268   3.740   6.996  -0.015
 9109TIP3    H227269   3.628   7.097   0.002
 9110TIP3   OH227270   0.513   5.507   3.789
 9110TIP3    H127271   0.490   5.546   3.705
 9110TIP3    H227272   0.481   5.417   3.784
 9111TIP3   OH227273   0.767   2.180   2.079
 9111TIP3    H127274   0.766   2.230   1.998
 9111TIP3    H227275   0.710   2.105   2.062
 9112TIP3   OH227276   8.268   5.338   5.548
 9112TIP3    H127277   8.266   5.257   5.498
 9112TIP3    H227278   8.286   5.310   5.638
 9113TIP3   OH227279   5.291   1.676   0.881
 9113TIP3    H127280   5.237   1.600   0.903
 9113TIP3    H227281   5.251   1.711   0.801
 9114TIP3   OH227282   3.052   3.782   5.477
 9114TIP3    H127283   3.106   3.720   5.525
 9114TIP3    H227284   2.980   3.803   5.537
 9115TIP3   OH227285   0.179   2.411   2.063
 9115TIP3    H127286   0.259   2.365   2.037
 9115TIP3    H227287   0.182   2.494   2.016
 9116TIP3   OH227288   0.335   6.385   2.513
 9116TIP3    H127289   0.240   6.380   2.500
 9116TIP3    H227290   0.360   6.298   2.544
 9117TIP3   OH227291   3.598   0.586   2.788
 9117TIP3    H127292   3.518   0.561   2.742
 9117TIP3    H227293   3.660   0.608   2.718
 9118TIP3   OH227294   6.294   4.970   1.704
 9118TIP3    H127295   6.384   4.939   1.702
 9118TIP3    H227296   6.280   4.999   1.794
 9119TIP3   OH227297   4.208   0.964   0.958
 9119TIP3    H127298   4.147   0.893   0.978
 9119TIP3    H227299   4.192   1.029   1.027
 9120TIP3   OH227300   6.601   7.012   0.335
 9120TIP3    H127301   6.646   7.092   0.362
 9120TIP3    H227302   6.587   7.023   0.241
 9121TIP3   OH227303   0.512   3.323   4.625
 9121TIP3    H127304   0.443   3.259   4.609
 9121TIP3    H227305   0.466   3.406   4.636
 9122TIP3   OH227306   5.779   6.032   4.164
 9122TIP3    H127307   5.738   6.074   4.239
 9122TIP3    H227308   5.843   6.096   4.132
 9123TIP3   OH227309   5.093   2.357   0.859
 9123TIP3    H127310   5.138   2.283   0.901
 9123TIP3    H227311   5.018   2.374   0.916
 9124TIP3   OH227312   5.289   7.421   1.145
 9124TIP3    H127313   5.311   7.441   1.054
 9124TIP3    H227314   5.364   7.454   1.195
 9125TIP3   OH227315   6.830   5.600   3.504
 9125TIP3    H127316   6.894   5.625   3.436
 9125TIP3    H227317   6.800   5.684   3.540
 9126TIP3   OH227318   0.446   4.331   6.313
 9126TIP3    H127319   0.498   4.373   6.382
 9126TIP3    H227320   0.500   4.256   6.286
 9127TIP3   OH227321   5.713   2.216   2.193
 9127TIP3    H127322   5.806   2.200   2.209
 9127TIP3    H227323   5.675   2.225   2.281
 9128TIP3   OH227324   7.395   7.776   1.971
 9128TIP3    H127325   7.352   7.730   1.898
 9128TIP3    H227326   7.474   7.813   1.932
 9129TIP3   OH227327   4.852   4.130   5.233
 9129TIP3    H127328   4.842   4.222   5.205
 9129TIP3    H227329   4.941   4.124   5.266
 9130TIP3   OH227330   3.091   1.519   5.598
 9130TIP3    H127331   3.124   1.604   5.627
 9130TIP3    H227332   3.097   1.463   5.676
 9131TIP3   OH227333   6.225   5.456   0.731
 9131TIP3    H127334   6.198   5.538   0.690
 9131TIP3    H227335   6.189   5.388   0.675
 9132TIP3   OH227336   1.132   3.525   2.628
 9132TIP3    H127337   1.039   3.527   2.652
 9132TIP3    H227338   1.132   3.526   2.532
 9133TIP3   OH227339   0.272   1.773   6.692
 9133TIP3    H127340   0.345   1.716   6.717
 9133TIP3    H227341   0.308   1.861   6.693
 9134TIP3   OH227342   5.963   6.817   6.680
 9134TIP3    H127343   5.898   6.851   6.619
 9134TIP3    H227344   5.911   6.780   6.751
 9135TIP3   OH227345   2.980   6.879   2.725
 9135TIP3    H127346   2.924   6.927   2.786
 9135TIP3    H227347   3.040   6.831   2.781
 9136TIP3   OH227348   5.376   2.184   2.230
 9136TIP3    H127349   5.454   2.147   2.189
 9136TIP3    H227350   5.356   2.261   2.178
 9137TIP3   OH227351   5.777   2.495   0.084
 9137TIP3    H127352   5.859   2.529   0.121
 9137TIP3    H227353   5.780   2.521  -0.008
 9138TIP3   OH227354   1.261   7.330   2.599
 9138TIP3    H127355   1.228   7.247   2.563
 9138TIP3    H227356   1.340   7.349   2.549
 9139TIP3   OH227357   2.688   3.251   3.748
 9139TIP3    H127358   2.683   3.338   3.788
 9139TIP3    H227359   2.637   3.196   3.807
 9140TIP3   OH227360   6.192   0.287   6.252
 9140TIP3    H127361   6.255   0.249   6.190
 9140TIP3    H227362   6.106   0.266   6.215
 9141TIP3   OH227363   4.088   2.809   1.169
 9141TIP3    H127364   4.112   2.884   1.224
 9141TIP3    H227365   4.028   2.758   1.222
 9142TIP3   OH227366   7.188   4.166   3.853
 9142TIP3    H127367   7.173   4.090   3.909
 9142TIP3    H227368   7.101   4.192   3.823
 9143TIP3   OH227369   4.213   5.666   1.469
 9143TIP3    H127370   4.201   5.576   1.501
 9143TIP3    H227371   4.240   5.654   1.378
 9144TIP3   OH227372   6.703   1.454   3.892
 9144TIP3    H127373   6.672   1.542   3.912
 9144TIP3    H227374   6.798   1.464   3.884
 9145TIP3   OH227375   0.622   2.924   2.689
 9145TIP3    H127376   0.537   2.960   2.665
 9145TIP3    H227377   0.650   2.874   2.612
 9146TIP3   OH227378   5.899   6.542   1.348
 9146TIP3    H127379   5.908   6.570   1.439
 9146TIP3    H227380   5.804   6.544   1.332
 9147TIP3   OH227381   5.688   1.361   6.829
 9147TIP3    H127382   5.741   1.283   6.847
 9147TIP3    H227383   5.621   1.330   6.768
 9148TIP3   OH227384   5.121   7.753   6.501
 9148TIP3    H127385   5.169   7.830   6.470
 9148TIP3    H227386   5.032   7.783   6.514
 9149TIP3   OH227387   1.225   5.692   2.404
 9149TIP3    H127388   1.318   5.668   2.393
 9149TIP3    H227389   1.210   5.758   2.337
 9150TIP3   OH227390   1.589   4.741   4.322
 9150TIP3    H127391   1.519   4.798   4.290
 9150TIP3    H227392   1.670   4.783   4.292
 9151TIP3   OH227393   2.482   3.273   2.523
 9151TIP3    H127394   2.485   3.188   2.568
 9151TIP3    H227395   2.483   3.338   2.593
 9152TIP3   OH227396   8.158   3.055   1.915
 9152TIP3    H127397   8.181   3.130   1.970
 9152TIP3    H227398   8.096   3.090   1.852
 9153TIP3   OH227399   4.413   6.353   3.112
 9153TIP3    H127400   4.413   6.449   3.105
 9153TIP3    H227401   4.491   6.325   3.065
 9154TIP3   OH227402   3.260   0.113   4.610
 9154TIP3    H127403   3.304   0.180   4.557
 9154TIP3    H227404   3.167   0.126   4.594
 9155TIP3   OH227405   5.841   0.456   5.191
 9155TIP3    H127406   5.900   0.387   5.219
 9155TIP3    H227407   5.773   0.459   5.257
 9156TIP3   OH227408   6.589   0.302   3.106
 9156TIP3    H127409   6.532   0.362   3.058
 9156TIP3    H227410   6.536   0.273   3.181
 9157TIP3   OH227411   7.635   7.605   6.297
 9157TIP3    H127412   7.706   7.602   6.233
 9157TIP3    H227413   7.562   7.559   6.255
 9158TIP3   OH227414   8.025   3.093   3.162
 9158TIP3    H127415   8.091   3.144   3.115
 9158TIP3    H227416   8.075   3.030   3.214
 9159TIP3   OH227417   5.081   7.411   3.286
 9159TIP3    H127418   5.048   7.380   3.370
 9159TIP3    H227419   5.136   7.340   3.254
 9160TIP3   OH227420   7.171   0.427   1.565
 9160TIP3    H127421   7.139   0.353   1.617
 9160TIP3    H227422   7.092   0.478   1.546
 9161TIP3   OH227423   7.250   0.824   6.362
 9161TIP3    H127424   7.181   0.776   6.317
 9161TIP3    H227425   7.332   0.786   6.330
 9162TIP3   OH227426   7.681   0.317   0.365
 9162TIP3    H127427   7.760   0.338   0.415
 9162TIP3    H227428   7.705   0.336   0.274
 9163TIP3   OH227429   5.330   5.131   2.424
 9163TIP3    H127430   5.367   5.163   2.341
 9163TIP3    H227431   5.388   5.167   2.491
 9164TIP3   OH227432   5.099   0.792   4.292
 9164TIP3    H127433   5.071   0.702   4.305
 9164TIP3    H227434   5.131   0.820   4.377
 9165TIP3   OH227435   2.102   6.309   4.966
 9165TIP3    H127436   2.062   6.358   4.894
 9165TIP3    H227437   2.193   6.296   4.938
 9166TIP3   OH227438   2.682   0.678   5.578
 9166TIP3    H127439   2.598   0.665   5.534
 9166TIP3    H227440   2.738   0.608   5.542
 9167TIP3   OH227441   4.612   3.193   0.980
 9167TIP3    H127442   4.576   3.278   0.954
 9167TIP3    H227443   4.538   3.133   0.974
 9168TIP3   OH227444   3.818   5.528   0.348
 9168TIP3    H127445   3.801   5.435   0.334
 9168TIP3    H227446   3.807   5.568   0.262
 9169TIP3   OH227447   3.137   0.096   5.400
 9169TIP3    H127448   3.228   0.091   5.372
 9169TIP3    H227449   3.098   0.013   5.372
 9170TIP3   OH227450   3.755   1.170   2.999
 9170TIP3    H127451   3.734   1.126   3.081
 9170TIP3    H227452   3.787   1.101   2.942
 9171TIP3   OH227453   1.001   4.990   6.344
 9171TIP3    H127454   0.985   5.048   6.418
 9171TIP3    H227455   1.049   5.044   6.281
 9172TIP3   OH227456   2.830   2.607   6.680
 9172TIP3    H127457   2.821   2.649   6.594
 9172TIP3    H227458   2.744   2.567   6.696
 9173TIP3   OH227459   1.171   7.617   0.489
 9173TIP3    H127460   1.183   7.541   0.432
 9173TIP3    H227461   1.257   7.631   0.530
 9174TIP3   OH227462   8.301   6.787   3.428
 9174TIP3    H127463   8.304   6.833   3.344
 9174TIP3    H227464   8.353   6.709   3.414
 9175TIP3   OH227465   8.009   5.037   0.480
 9175TIP3    H127466   7.931   4.987   0.506
 9175TIP3    H227467   8.070   5.025   0.552
 9176TIP3   OH227468   2.038   4.949   0.881
 9176TIP3    H127469   1.958   4.902   0.859
 9176TIP3    H227470   2.079   4.897   0.950
 9177TIP3   OH227471   6.965   3.833   2.066
 9177TIP3    H127472   6.919   3.844   1.982
 9177TIP3    H227473   6.938   3.908   2.118
 9178TIP3   OH227474   7.070   5.477   5.368
 9178TIP3    H127475   6.995   5.481   5.309
 9178TIP3    H227476   7.139   5.437   5.316
 9179TIP3   OH227477   1.849   4.543   3.007
 9179TIP3    H127478   1.905   4.606   3.051
 9179TIP3    H227479   1.864   4.557   2.913
 9180TIP3   OH227480   2.774   0.213   0.960
 9180TIP3    H127481   2.695   0.173   0.923
 9180TIP3    H227482   2.757   0.218   1.054
 9181TIP3   OH227483   5.935   4.070   4.568
 9181TIP3    H127484   5.974   4.157   4.570
 9181TIP3    H227485   5.862   4.075   4.629
 9182TIP3   OH227486   5.981   1.330   0.757
 9182TIP3    H127487   6.067   1.294   0.782
 9182TIP3    H227488   5.957   1.387   0.830
 9183TIP3   OH227489   5.813   1.460   6.241
 9183TIP3    H127490   5.772   1.522   6.181
 9183TIP3    H227491   5.784   1.374   6.212
 9184TIP3   OH227492   5.875   2.513   1.796
 9184TIP3    H127493   5.895   2.423   1.819
 9184TIP3    H227494   5.834   2.550   1.874
 9185TIP3   OH227495   5.062   5.391   2.791
 9185TIP3    H127496   5.023   5.426   2.712
 9185TIP3    H227497   4.988   5.358   2.842
 9186TIP3   OH227498   7.352   7.814   6.125
 9186TIP3    H127499   7.306   7.757   6.186
 9186TIP3    H227500   7.401   7.874   6.181
 9187TIP3   OH227501   1.681   1.070   1.864
 9187TIP3    H127502   1.767   1.075   1.905
 9187TIP3    H227503   1.619   1.088   1.935
 9188TIP3   OH227504   0.089   2.301   3.479
 9188TIP3    H127505   0.052   2.225   3.433
 9188TIP3    H227506   0.035   2.374   3.451
 9189TIP3   OH227507   4.552   5.623   3.477
 9189TIP3    H127508   4.506   5.660   3.401
 9189TIP3    H227509   4.489   5.560   3.514
 9190TIP3   OH227510   8.002   2.910   2.177
 9190TIP3    H127511   8.038   2.974   2.115
 9190TIP3    H227512   8.028   2.942   2.263
 9191TIP3   OH227513   7.019   0.362   6.221
 9191TIP3    H127514   7.056   0.308   6.152
 9191TIP3    H227515   6.941   0.401   6.182
 9192TIP3   OH227516   3.595   0.599   1.432
 9192TIP3    H127517   3.596   0.564   1.343
 9192TIP3    H227518   3.650   0.539   1.483
 9193TIP3   OH227519   4.411   0.157   1.660
 9193TIP3    H127520   4.421   0.061   1.657
 9193TIP3    H227521   4.317   0.171   1.665
 9194TIP3   OH227522   6.570   3.983   1.773
 9194TIP3    H127523   6.513   4.059   1.759
 9194TIP3    H227524   6.509   3.911   1.789
 9195TIP3   OH227525   2.071   2.712   5.990
 9195TIP3    H127526   2.161   2.727   6.018
 9195TIP3    H227527   2.078   2.643   5.924
 9196TIP3   OH227528   3.177   6.546   3.441
 9196TIP3    H127529   3.169   6.612   3.509
 9196TIP3    H227530   3.270   6.523   3.439
 9197TIP3   OH227531   5.269   1.547   2.502
 9197TIP3    H127532   5.271   1.456   2.472
 9197TIP3    H227533   5.360   1.576   2.497
 9198TIP3   OH227534   2.160   1.395   5.063
 9198TIP3    H127535   2.108   1.450   5.122
 9198TIP3    H227536   2.133   1.305   5.084
 9199TIP3   OH227537   8.165   6.846   2.315
 9199TIP3    H127538   8.181   6.933   2.351
 9199TIP3    H227539   8.071   6.843   2.299
 9200TIP3   OH227540   2.817   2.621   3.471
 9200TIP3    H127541   2.746   2.570   3.432
 9200TIP3    H227542   2.788   2.639   3.560
 9201TIP3   OH227543   1.770   1.402   3.442
 9201TIP3    H127544   1.763   1.430   3.351
 9201TIP3    H227545   1.681   1.413   3.477
 9202TIP3   OH227546   5.559   5.499   2.845
 9202TIP3    H127547   5.624   5.443   2.888
 9202TIP3    H227548   5.544   5.457   2.761
 9203TIP3   OH227549   0.624   6.721   6.063
 9203TIP3    H127550   0.625   6.689   6.154
 9203TIP3    H227551   0.579   6.653   6.014
 9204TIP3   OH227552   8.012   0.613   2.121
 9204TIP3    H127553   8.011   0.518   2.133
 9204TIP3    H227554   8.099   0.632   2.085
 9205TIP3   OH227555   2.574   7.312   6.590
 9205TIP3    H127556   2.647   7.349   6.540
 9205TIP3    H227557   2.580   7.353   6.676
 9206TIP3   OH227558   3.433   3.367   4.476
 9206TIP3    H127559   3.408   3.441   4.532
 9206TIP3    H227560   3.487   3.312   4.532
 9207TIP3   OH227561   2.970   4.411   1.206
 9207TIP3    H127562   2.891   4.364   1.180
 9207TIP3    H227563   3.017   4.349   1.263
 9208TIP3   OH227564   7.029   0.104   6.625
 9208TIP3    H127565   7.102   0.081   6.682
 9208TIP3    H227566   7.069   0.143   6.548
 9209TIP3   OH227567   0.917   3.207   6.167
 9209TIP3    H127568   0.887   3.257   6.243
 9209TIP3    H227569   0.983   3.147   6.202
 9210TIP3   OH227570   6.555   1.947   5.833
 9210TIP3    H127571   6.524   1.976   5.747
 9210TIP3    H227572   6.509   1.865   5.850
 9211TIP3   OH227573   2.386   5.797   2.110
 9211TIP3    H127574   2.475   5.813   2.141
 9211TIP3    H227575   2.378   5.702   2.107
 9212TIP3   OH227576   7.712   4.913   4.705
 9212TIP3    H127577   7.644   4.870   4.757
 9212TIP3    H227578   7.768   4.841   4.675
 9213TIP3   OH227579   6.547   7.327   0.300
 9213TIP3    H127580   6.609   7.376   0.352
 9213TIP3    H227581   6.597   7.299   0.223
 9214TIP3   OH227582   0.520   6.087   5.464
 9214TIP3    H127583   0.463   6.011   5.446
 9214TIP3    H227584   0.606   6.048   5.482
 9215TIP3   OH227585   6.845   7.655   4.568
 9215TIP3    H127586   6.898   7.735   4.575
 9215TIP3    H227587   6.827   7.631   4.659
 9216TIP3   OH227588   7.155   2.411   5.216
 9216TIP3    H127589   7.076   2.358   5.229
 9216TIP3    H227590   7.164   2.461   5.296
 9217TIP3   OH227591   6.090   0.287   4.494
 9217TIP3    H127592   6.164   0.283   4.555
 9217TIP3    H227593   6.120   0.243   4.416
 9218TIP3   OH227594   6.138   2.446   3.062
 9218TIP3    H127595   6.107   2.532   3.091
 9218TIP3    H227596   6.065   2.387   3.079
 9219TIP3   OH227597   7.211   3.583   1.622
 9219TIP3    H127598   7.260   3.661   1.647
 9219TIP3    H227599   7.129   3.590   1.670
 9220TIP3   OH227600   2.951   0.340   1.741
 9220TIP3    H127601   3.008   0.292   1.679
 9220TIP3    H227602   2.958   0.290   1.822
 9221TIP3   OH227603   6.617   6.648   0.979
 9221TIP3    H127604   6.659   6.561   0.981
 9221TIP3    H227605   6.650   6.688   0.899
 9222TIP3   OH227606   5.790   2.344   4.590
 9222TIP3    H127607   5.728   2.332   4.661
 9222TIP3    H227608   5.865   2.290   4.614
 9223TIP3   OH227609   1.665   2.983   0.661
 9223TIP3    H127610   1.713   2.934   0.594
 9223TIP3    H227611   1.715   3.064   0.672
 9224TIP3   OH227612   6.572   2.267   5.729
 9224TIP3    H127613   6.542   2.182   5.697
 9224TIP3    H227614   6.528   2.330   5.672
 9225TIP3   OH227615   5.333   0.170   2.208
 9225TIP3    H127616   5.367   0.134   2.290
 9225TIP3    H227617   5.403   0.227   2.176
 9226TIP3   OH227618   3.806   7.561   3.777
 9226TIP3    H127619   3.796   7.655   3.792
 9226TIP3    H227620   3.735   7.520   3.827
 9227TIP3   OH227621   4.722   3.599   2.933
 9227TIP3    H127622   4.627   3.594   2.944
 9227TIP3    H227623   4.742   3.692   2.939
 9228TIP3   OH227624   0.747   0.425   5.996
 9228TIP3    H127625   0.750   0.347   6.051
 9228TIP3    H227626   0.709   0.493   6.052
 9229TIP3   OH227627   3.652   6.905   5.428
 9229TIP3    H127628   3.633   6.847   5.354
 9229TIP3    H227629   3.567   6.936   5.457
 9230TIP3   OH227630   7.346   7.563   5.133
 9230TIP3    H127631   7.402   7.491   5.162
 9230TIP3    H227632   7.408   7.630   5.102
 9231TIP3   OH227633   0.369   3.338   2.642
 9231TIP3    H127634   0.314   3.348   2.564
 9231TIP3    H227635   0.360   3.421   2.688
 9232TIP3   OH227636   5.470   2.247   5.724
 9232TIP3    H127637   5.560   2.240   5.756
 9232TIP3    H227638   5.458   2.168   5.670
 9233TIP3   OH227639   3.163   7.169   3.291
 9233TIP3    H127640   3.257   7.163   3.306
 9233TIP3    H227641   3.143   7.262   3.299
 9234TIP3   OH227642   5.631   7.454   4.875
 9234TIP3    H127643   5.591   7.367   4.883
 9234TIP3    H227644   5.720   7.442   4.909
 9235TIP3   OH227645   0.293   5.861   0.961
 9235TIP3    H127646   0.361   5.795   0.949
 9235TIP3    H227647   0.250   5.868   0.876
 9236TIP3   OH227648   0.545   4.990   3.874
 9236TIP3    H127649   0.527   4.975   3.782
 9236TIP3    H227650   0.490   4.927   3.920
 9237TIP3   OH227651   7.508   3.209   3.126
 9237TIP3    H127652   7.481   3.117   3.122
 9237TIP3    H227653   7.604   3.205   3.126
 9238TIP3   OH227654   7.566   6.881   4.562
 9238TIP3    H127655   7.597   6.937   4.491
 9238TIP3    H227656   7.507   6.818   4.520
 9239TIP3   OH227657   0.111   4.769   2.911
 9239TIP3    H127658   0.026   4.780   2.868
 9239TIP3    H227659   0.091   4.772   3.005
 9240TIP3   OH227660   6.807   2.249   6.253
 9240TIP3    H127661   6.844   2.307   6.186
 9240TIP3    H227662   6.713   2.260   6.245
 9241TIP3   OH227663   4.541   5.595   1.879
 9241TIP3    H127664   4.447   5.587   1.863
 9241TIP3    H227665   4.552   5.576   1.972
 9242TIP3   OH227666   2.584   5.318   0.215
 9242TIP3    H127667   2.496   5.311   0.252
 9242TIP3    H227668   2.608   5.228   0.194
 9243TIP3   OH227669   1.376   5.129   2.905
 9243TIP3    H127670   1.340   5.215   2.883
 9243TIP3    H227671   1.306   5.067   2.884
 9244TIP3   OH227672   2.392   2.367   3.568
 9244TIP3    H127673   2.472   2.358   3.619
 9244TIP3    H227674   2.416   2.425   3.496
 9245TIP3   OH227675   5.601   5.245   3.128
 9245TIP3    H127676   5.574   5.220   3.216
 9245TIP3    H227677   5.527   5.220   3.072
 9246TIP3   OH227678   6.454   3.626   0.579
 9246TIP3    H127679   6.383   3.641   0.516
 9246TIP3    H227680   6.500   3.550   0.545
 9247TIP3   OH227681   5.576   5.461   0.197
 9247TIP3    H127682   5.652   5.447   0.140
 9247TIP3    H227683   5.608   5.522   0.264
 9248TIP3   OH227684   4.033   0.751   2.686
 9248TIP3    H127685   4.092   0.687   2.646
 9248TIP3    H227686   4.071   0.836   2.662
 9249TIP3   OH227687   2.386   0.115   1.588
 9249TIP3    H127688   2.350   0.198   1.622
 9249TIP3    H227689   2.462   0.098   1.643
 9250TIP3   OH227690   0.668   0.155   2.789
 9250TIP3    H127691   0.718   0.202   2.722
 9250TIP3    H227692   0.596   0.215   2.811
 9251TIP3   OH227693   1.740   2.880   1.092
 9251TIP3    H127694   1.761   2.848   1.180
 9251TIP3    H227695   1.719   2.973   1.104
 9252TIP3   OH227696   8.202   5.133   1.321
 9252TIP3    H127697   8.124   5.103   1.273
 9252TIP3    H227698   8.245   5.193   1.260
 9253TIP3   OH227699   7.377   5.089   5.993
 9253TIP3    H127700   7.294   5.080   6.039
 9253TIP3    H227701   7.384   5.182   5.974
 9254TIP3   OH227702   4.670   0.499   3.799
 9254TIP3    H127703   4.601   0.457   3.849
 9254TIP3    H227704   4.749   0.487   3.852
 9255TIP3   OH227705   0.450   2.106   1.909
 9255TIP3    H127706   0.382   2.076   1.969
 9255TIP3    H227707   0.443   2.202   1.911
 9256TIP3   OH227708   7.890   2.451   3.869
 9256TIP3    H127709   7.905   2.544   3.850
 9256TIP3    H227710   7.814   2.428   3.816
 9257TIP3   OH227711   2.863   5.907   1.614
 9257TIP3    H127712   2.855   5.900   1.709
 9257TIP3    H227713   2.782   5.950   1.586
 9258TIP3   OH227714   8.022   4.170   5.567
 9258TIP3    H127715   7.965   4.111   5.617
 9258TIP3    H227716   8.090   4.195   5.629
 9259TIP3   OH227717   2.942   7.400   5.989
 9259TIP3    H127718   2.888   7.449   5.927
 9259TIP3    H227719   3.020   7.455   6.002
 9260TIP3   OH227720   3.705   3.013   5.455
 9260TIP3    H127721   3.752   3.095   5.470
 9260TIP3    H227722   3.666   2.991   5.539
 9261TIP3   OH227723   0.095   7.457   4.338
 9261TIP3    H127724   0.162   7.389   4.327
 9261TIP3    H227725   0.095   7.504   4.255
 9262TIP3   OH227726   3.134   3.382   1.301
 9262TIP3    H127727   3.175   3.443   1.240
 9262TIP3    H227728   3.116   3.304   1.249
 9263TIP3   OH227729   1.410   7.618   5.701
 9263TIP3    H127730   1.484   7.603   5.760
 9263TIP3    H227731   1.335   7.625   5.759
 9264TIP3   OH227732   5.174   4.327   6.799
 9264TIP3    H127733   5.176   4.272   6.721
 9264TIP3    H227734   5.235   4.398   6.779
 9265TIP3   OH227735   0.718   5.049   4.563
 9265TIP3    H127736   0.732   4.967   4.514
 9265TIP3    H227737   0.689   5.021   4.649
 9266TIP3   OH227738   6.651   5.573   1.426
 9266TIP3    H127739   6.572   5.617   1.460
 9266TIP3    H227740   6.619   5.518   1.354
 9267TIP3   OH227741   0.901   7.647   0.431
 9267TIP3    H127742   0.870   7.661   0.341
 9267TIP3    H227743   0.996   7.658   0.425
 9268TIP3   OH227744   7.676   6.115   1.127
 9268TIP3    H127745   7.705   6.024   1.136
 9268TIP3    H227746   7.591   6.118   1.171
 9269TIP3   OH227747   6.100   1.282   2.726
 9269TIP3    H127748   6.069   1.348   2.664
 9269TIP3    H227749   6.173   1.324   2.772
 9270TIP3   OH227750   7.545   5.588   4.571
 9270TIP3    H127751   7.589   5.667   4.602
 9270TIP3    H227752   7.548   5.529   4.646
 9271TIP3   OH227753   7.864   0.076   2.682
 9271TIP3    H127754   7.779   0.065   2.638
 9271TIP3    H227755   7.843   0.123   2.763
 9272TIP3   OH227756   1.177   7.525   1.857
 9272TIP3    H127757   1.121   7.476   1.917
 9272TIP3    H227758   1.159   7.488   1.770
 9273TIP3   OH227759   0.671   3.570   4.713
 9273TIP3    H127760   0.672   3.514   4.636
 9273TIP3    H227761   0.701   3.513   4.784
 9274TIP3   OH227762   7.789   3.007   0.316
 9274TIP3    H127763   7.866   3.028   0.369
 9274TIP3    H227764   7.773   2.914   0.332
 9275TIP3   OH227765   0.450   0.521   0.315
 9275TIP3    H127766   0.477   0.538   0.224
 9275TIP3    H227767   0.458   0.606   0.358
 9276TIP3   OH227768   3.342   0.890   4.405
 9276TIP3    H127769   3.294   0.807   4.418
 9276TIP3    H227770   3.363   0.891   4.312
 9277TIP3   OH227771   0.754   4.420   1.182
 9277TIP3    H127772   0.706   4.372   1.114
 9277TIP3    H227773   0.830   4.455   1.137
 9278TIP3   OH227774   0.112   7.611   2.998
 9278TIP3    H127775   0.200   7.639   3.024
 9278TIP3    H227776   0.055   7.648   3.065
 9279TIP3   OH227777   4.448   2.751   3.870
 9279TIP3    H127778   4.416   2.841   3.879
 9279TIP3    H227779   4.510   2.741   3.943
 9280TIP3   OH227780   1.679   6.774   1.639
 9280TIP3    H127781   1.724   6.774   1.555
 9280TIP3    H227782   1.746   6.799   1.702
 9281TIP3   OH227783   2.798   2.634   6.425
 9281TIP3    H127784   2.715   2.595   6.399
 9281TIP3    H227785   2.858   2.613   6.354
 9282TIP3   OH227786   0.394   5.504   1.257
 9282TIP3    H127787   0.438   5.488   1.341
 9282TIP3    H227788   0.389   5.417   1.216
 9283TIP3   OH227789   6.335   6.612   5.806
 9283TIP3    H127790   6.240   6.607   5.822
 9283TIP3    H227791   6.370   6.532   5.844
 9284TIP3   OH227792   5.993   0.824   5.944
 9284TIP3    H127793   5.943   0.866   5.874
 9284TIP3    H227794   5.989   0.731   5.922
 9285TIP3   OH227795   3.261   1.746   4.883
 9285TIP3    H127796   3.345   1.728   4.840
 9285TIP3    H227797   3.257   1.684   4.955
 9286TIP3   OH227798   5.947   0.228   1.193
 9286TIP3    H127799   5.991   0.228   1.278
 9286TIP3    H227800   5.859   0.196   1.212
 9287TIP3   OH227801   5.153   6.559   5.452
 9287TIP3    H127802   5.202   6.597   5.378
 9287TIP3    H227803   5.166   6.621   5.524
 9288TIP3   OH227804   1.592   1.117   5.168
 9288TIP3    H127805   1.593   1.065   5.248
 9288TIP3    H227806   1.603   1.053   5.098
 9289TIP3   OH227807   7.326   2.187   4.390
 9289TIP3    H127808   7.338   2.101   4.428
 9289TIP3    H227809   7.403   2.200   4.334
 9290TIP3   OH227810   5.065   1.038   1.676
 9290TIP3    H127811   4.991   0.992   1.635
 9290TIP3    H227812   5.028   1.122   1.705
 9291TIP3   OH227813   0.077   0.128   3.829
 9291TIP3    H127814   0.118   0.044   3.809
 9291TIP3    H227815   0.150   0.186   3.852
 9292TIP3   OH227816   6.545   0.463   0.443
 9292TIP3    H127817   6.500   0.521   0.382
 9292TIP3    H227818   6.554   0.515   0.523
 9293TIP3   OH227819   7.475   6.893   5.238
 9293TIP3    H127820   7.539   6.852   5.296
 9293TIP3    H227821   7.474   6.836   5.161
 9294TIP3   OH227822   5.872   5.947   0.413
 9294TIP3    H127823   5.804   5.927   0.348
 9294TIP3    H227824   5.829   5.932   0.497
 9295TIP3   OH227825   4.079   2.828   2.689
 9295TIP3    H127826   4.007   2.868   2.738
 9295TIP3    H227827   4.122   2.770   2.751
 9296TIP3   OH227828   5.493   3.281   2.586
 9296TIP3    H127829   5.528   3.354   2.637
 9296TIP3    H227830   5.497   3.206   2.645
 9297TIP3   OH227831   2.830   7.791   4.567
 9297TIP3    H127832   2.907   7.835   4.530
 9297TIP3    H227833   2.757   7.848   4.544
 9298TIP3   OH227834   7.796   0.590   2.346
 9298TIP3    H127835   7.856   0.523   2.380
 9298TIP3    H227836   7.772   0.558   2.259
 9299TIP3   OH227837   1.941   4.800   6.170
 9299TIP3    H127838   1.915   4.876   6.223
 9299TIP3    H227839   1.859   4.763   6.139
 9300TIP3   OH227840   0.800   0.787   2.817
 9300TIP3    H127841   0.885   0.830   2.819
 9300TIP3    H227842   0.737   0.856   2.836
 9301TIP3   OH227843   4.761   7.592   1.046
 9301TIP3    H127844   4.676   7.632   1.026
 9301TIP3    H227845   4.825   7.659   1.022
 9302TIP3   OH227846   6.023   3.846   0.047
 9302TIP3    H127847   6.071   3.840   0.130
 9302TIP3    H227848   6.082   3.894  -0.011
 9303TIP3   OH227849   2.923   7.801   0.132
 9303TIP3    H127850   2.927   7.724   0.188
 9303TIP3    H227851   2.841   7.793   0.085
 9304TIP3   OH227852   2.732   0.370   5.462
 9304TIP3    H127853   2.646   0.411   5.453
 9304TIP3    H227854   2.736   0.307   5.389
 9305TIP3   OH227855   5.059   4.636   1.286
 9305TIP3    H127856   5.002   4.610   1.213
 9305TIP3    H227857   5.052   4.731   1.289
 9306TIP3   OH227858   7.169   6.763   5.809
 9306TIP3    H127859   7.153   6.857   5.817
 9306TIP3    H227860   7.111   6.723   5.873
 9307TIP3   OH227861   5.897   4.040   1.580
 9307TIP3    H127862   5.950   4.024   1.502
 9307TIP3    H227863   5.806   4.031   1.549
 9308TIP3   OH227864   2.572   4.122   5.647
 9308TIP3    H127865   2.506   4.171   5.598
 9308TIP3    H227866   2.557   4.146   5.738
 9309TIP3   OH227867   5.163   2.527   2.069
 9309TIP3    H127868   5.253   2.513   2.038
 9309TIP3    H227869   5.133   2.605   2.022
 9310TIP3   OH227870   4.238   5.188   4.263
 9310TIP3    H127871   4.195   5.205   4.179
 9310TIP3    H227872   4.276   5.272   4.288
 9311TIP3   OH227873   0.025   3.283   5.769
 9311TIP3    H127874   0.117   3.309   5.765
 9311TIP3    H227875  -0.019   3.359   5.808
 9312TIP3   OH227876   5.442   4.194   1.526
 9312TIP3    H127877   5.432   4.245   1.606
 9312TIP3    H227878   5.468   4.257   1.459
 9313TIP3   OH227879   0.729   5.757   6.294
 9313TIP3    H127880   0.650   5.809   6.281
 9313TIP3    H227881   0.698   5.674   6.330
 9314TIP3   OH227882   1.854   0.553   6.293
 9314TIP3    H127883   1.784   0.611   6.321
 9314TIP3    H227884   1.927   0.612   6.274
 9315TIP3   OH227885   0.632   1.001   0.185
 9315TIP3    H127886   0.660   0.944   0.113
 9315TIP3    H227887   0.590   1.076   0.142
 9316TIP3   OH227888   0.611   7.324   4.228
 9316TIP3    H127889   0.642   7.262   4.294
 9316TIP3    H227890   0.672   7.398   4.235
 9317TIP3   OH227891   1.941   0.411   1.680
 9317TIP3    H127892   1.849   0.434   1.690
 9317TIP3    H227893   1.940   0.325   1.638
 9318TIP3   OH227894   5.402   0.394   1.711
 9318TIP3    H127895   5.309   0.370   1.713
 9318TIP3    H227896   5.433   0.362   1.626
 9319TIP3   OH227897   0.392   4.134   0.761
 9319TIP3    H127898   0.394   4.170   0.850
 9319TIP3    H227899   0.461   4.068   0.760
 9320TIP3   OH227900   5.488   1.601   5.602
 9320TIP3    H127901   5.508   1.508   5.604
 9320TIP3    H227902   5.483   1.623   5.509
 9321TIP3   OH227903   0.710   7.245   1.147
 9321TIP3    H127904   0.620   7.274   1.132
 9321TIP3    H227905   0.735   7.284   1.231
 9322TIP3   OH227906   2.652   3.833   1.016
 9322TIP3    H127907   2.725   3.802   1.069
 9322TIP3    H227908   2.678   3.815   0.926
 9323TIP3   OH227909   7.363   2.813   0.187
 9323TIP3    H127910   7.372   2.770   0.102
 9323TIP3    H227911   7.368   2.906   0.167
 9324TIP3   OH227912   6.964   7.189   0.093
 9324TIP3    H127913   6.975   7.099   0.062
 9324TIP3    H227914   7.051   7.215   0.124
 9325TIP3   OH227915   1.065   0.103   5.034
 9325TIP3    H127916   1.025   0.178   5.078
 9325TIP3    H227917   1.001   0.032   5.045
 9326TIP3   OH227918   6.084   2.239   6.712
 9326TIP3    H127919   6.124   2.258   6.627
 9326TIP3    H227920   6.024   2.312   6.727
 9327TIP3   OH227921   5.654   2.233   5.099
 9327TIP3    H127922   5.668   2.326   5.078
 9327TIP3    H227923   5.707   2.218   5.177
 9328TIP3   OH227924   8.250   3.531   1.973
 9328TIP3    H127925   8.333   3.485   1.983
 9328TIP3    H227926   8.190   3.465   1.938
 9329TIP3   OH227927   7.661   5.961   6.606
 9329TIP3    H127928   7.662   5.898   6.679
 9329TIP3    H227929   7.699   6.041   6.644
 9330TIP3   OH227930   0.392   6.379   3.227
 9330TIP3    H127931   0.392   6.473   3.212
 9330TIP3    H227932   0.300   6.357   3.241
 9331TIP3   OH227933   5.229   1.748   5.153
 9331TIP3    H127934   5.276   1.692   5.215
 9331TIP3    H227935   5.170   1.689   5.107
 9332TIP3   OH227936   1.431   1.031   5.932
 9332TIP3    H127937   1.405   0.939   5.931
 9332TIP3    H227938   1.420   1.059   6.023
 9333TIP3   OH227939   1.405   5.702   5.168
 9333TIP3    H127940   1.482   5.679   5.117
 9333TIP3    H227941   1.331   5.667   5.118
 9334TIP3   OH227942   7.563   2.802   2.897
 9334TIP3    H127943   7.553   2.763   2.810
 9334TIP3    H227944   7.656   2.792   2.917
 9335TIP3   OH227945   3.189   6.417   2.639
 9335TIP3    H127946   3.222   6.352   2.576
 9335TIP3    H227947   3.139   6.478   2.586
 9336TIP3   OH227948   4.692   6.012   3.335
 9336TIP3    H127949   4.735   6.012   3.421
 9336TIP3    H227950   4.678   6.104   3.315
 9337TIP3   OH227951   7.397   7.818   1.243
 9337TIP3    H127952   7.338   7.886   1.213
 9337TIP3    H227953   7.341   7.742   1.257
 9338TIP3   OH227954   6.783   7.697   4.109
 9338TIP3    H127955   6.740   7.766   4.058
 9338TIP3    H227956   6.776   7.727   4.200
 9339TIP3   OH227957   0.213   2.772   4.456
 9339TIP3    H127958   0.253   2.858   4.443
 9339TIP3    H227959   0.287   2.714   4.473
 9340TIP3   OH227960   2.358   5.515   4.539
 9340TIP3    H127961   2.362   5.579   4.468
 9340TIP3    H227962   2.337   5.432   4.496
 9341TIP3   OH227963   1.488   2.377   2.900
 9341TIP3    H127964   1.474   2.432   2.977
 9341TIP3    H227965   1.582   2.387   2.880
 9342TIP3   OH227966   3.121   7.657   5.750
 9342TIP3    H127967   3.070   7.585   5.712
 9342TIP3    H227968   3.130   7.632   5.842
 9343TIP3   OH227969   0.988   6.814   2.747
 9343TIP3    H127970   1.049   6.815   2.820
 9343TIP3    H227971   0.904   6.789   2.786
 9344TIP3   OH227972   3.502   4.078   6.027
 9344TIP3    H127973   3.535   4.162   5.997
 9344TIP3    H227974   3.483   4.091   6.120
 9345TIP3   OH227975   1.879   0.034   5.371
 9345TIP3    H127976   1.950   0.088   5.339
 9345TIP3    H227977   1.868   0.061   5.463
 9346TIP3   OH227978   3.030   1.280   2.251
 9346TIP3    H127979   3.072   1.200   2.282
 9346TIP3    H227980   3.015   1.266   2.157
 9347TIP3   OH227981   1.185   0.925   1.722
 9347TIP3    H127982   1.277   0.903   1.736
 9347TIP3    H227983   1.161   0.875   1.644
 9348TIP3   OH227984   7.514   6.150   3.951
 9348TIP3    H127985   7.507   6.061   3.986
 9348TIP3    H227986   7.554   6.138   3.865
 9349TIP3   OH227987   1.590   2.395   1.219
 9349TIP3    H127988   1.673   2.416   1.177
 9349TIP3    H227989   1.581   2.460   1.288
 9350TIP3   OH227990   0.421   4.172   1.042
 9350TIP3    H127991   0.474   4.138   1.114
 9350TIP3    H227992   0.361   4.234   1.084
 9351TIP3   OH227993   7.562   2.256   1.997
 9351TIP3    H127994   7.491   2.192   1.992
 9351TIP3    H227995   7.520   2.337   2.024
 9352TIP3   OH227996   5.419   0.859   2.960
 9352TIP3    H127997   5.396   0.784   2.906
 9352TIP3    H227998   5.387   0.837   3.047
 9353TIP3   OH227999   6.037   6.245   4.470
 9353TIP3    H128000   6.058   6.265   4.561
 9353TIP3    H228001   5.951   6.204   4.474
 9354TIP3   OH228002   6.088   0.533   4.826
 9354TIP3    H128003   6.147   0.595   4.782
 9354TIP3    H228004   6.067   0.576   4.909
 9355TIP3   OH228005   8.196   6.350   0.240
 9355TIP3    H128006   8.173   6.368   0.149
 9355TIP3    H228007   8.150   6.417   0.291
 9356TIP3   OH228008   8.077   3.898   5.139
 9356TIP3    H128009   8.032   3.850   5.209
 9356TIP3    H228010   8.135   3.834   5.099
 9357TIP3   OH228011   1.312   3.107   5.993
 9357TIP3    H128012   1.243   3.049   6.025
 9357TIP3    H228013   1.369   3.119   6.069
 9358TIP3   OH228014   5.845   0.522   6.169
 9358TIP3    H128015   5.794   0.538   6.090
 9358TIP3    H228016   5.895   0.443   6.150
 9359TIP3   OH228017   3.083   6.516   4.757
 9359TIP3    H128018   3.125   6.597   4.787
 9359TIP3    H228019   3.045   6.478   4.836
 9360TIP3   OH228020   7.849   4.806   1.882
 9360TIP3    H128021   7.909   4.788   1.811
 9360TIP3    H228022   7.804   4.723   1.897
 9361TIP3   OH228023   4.536   0.495   3.508
 9361TIP3    H128024   4.494   0.409   3.510
 9361TIP3    H228025   4.539   0.523   3.599
 9362TIP3   OH228026   2.843   1.707   3.136
 9362TIP3    H128027   2.764   1.757   3.154
 9362TIP3    H228028   2.875   1.742   3.053
 9363TIP3   OH228029   2.853   7.081   1.368
 9363TIP3    H128030   2.760   7.072   1.348
 9363TIP3    H228031   2.892   7.119   1.290
 9364TIP3   OH228032   7.523   6.413   3.787
 9364TIP3    H128033   7.490   6.471   3.856
 9364TIP3    H228034   7.617   6.430   3.784
 9365TIP3   OH228035   1.836   1.217   1.405
 9365TIP3    H128036   1.866   1.269   1.330
 9365TIP3    H228037   1.909   1.158   1.424
 9366TIP3   OH228038   6.982   7.592   3.946
 9366TIP3    H128039   6.900   7.631   3.977
 9366TIP3    H228040   7.028   7.568   4.026
 9367TIP3   OH228041   6.323   5.148   2.932
 9367TIP3    H128042   6.279   5.129   3.015
 9367TIP3    H228043   6.260   5.122   2.865
 9368TIP3   OH228044   3.004  -0.020   4.086
 9368TIP3    H128045   3.003   0.054   4.147
 9368TIP3    H228046   2.958   0.013   4.008
 9369TIP3   OH228047   6.866   0.401   0.081
 9369TIP3    H128048   6.801   0.351   0.031
 9369TIP3    H228049   6.833   0.401   0.171
 9370TIP3   OH228050   2.725   3.151   4.492
 9370TIP3    H128051   2.655   3.128   4.431
 9370TIP3    H228052   2.801   3.166   4.437
 9371TIP3   OH228053   6.128   5.047   4.715
 9371TIP3    H128054   6.129   5.005   4.801
 9371TIP3    H228055   6.156   5.137   4.733
 9372TIP3   OH228056   5.112   5.402   0.749
 9372TIP3    H128057   5.138   5.489   0.717
 9372TIP3    H228058   5.037   5.419   0.806
 9373TIP3   OH228059   1.568   7.068   4.467
 9373TIP3    H128060   1.617   7.074   4.548
 9373TIP3    H228061   1.632   7.087   4.398
 9374TIP3   OH228062   3.052   4.407   1.737
 9374TIP3    H128063   3.002   4.328   1.714
 9374TIP3    H228064   3.094   4.384   1.821
 9375TIP3   OH228065   5.990   5.815   0.202
 9375TIP3    H128066   5.899   5.843   0.207
 9375TIP3    H228067   6.037   5.873   0.262
 9376TIP3   OH228068   0.394   1.936   4.996
 9376TIP3    H128069   0.308   1.953   5.033
 9376TIP3    H228070   0.379   1.868   4.930
 9377TIP3   OH228071   4.721   4.575   6.003
 9377TIP3    H128072   4.704   4.620   6.086
 9377TIP3    H228073   4.645   4.517   5.991
 9378TIP3   OH228074   6.329   1.217   4.697
 9378TIP3    H128075   6.335   1.268   4.616
 9378TIP3    H228076   6.270   1.268   4.753
 9379TIP3   OH228077   5.196   4.855   4.570
 9379TIP3    H128078   5.136   4.906   4.624
 9379TIP3    H228079   5.207   4.907   4.490
 9380TIP3   OH228080   4.878   5.280   2.964
 9380TIP3    H128081   4.787   5.254   2.949
 9380TIP3    H228082   4.921   5.200   2.994
 9381TIP3   OH228083   2.470   2.493   6.464
 9381TIP3    H128084   2.464   2.588   6.456
 9381TIP3    H228085   2.379   2.463   6.459
 9382TIP3   OH228086   1.188   6.956   6.665
 9382TIP3    H128087   1.178   6.864   6.640
 9382TIP3    H228088   1.189   6.954   6.761
 9383TIP3   OH228089   7.727   1.829   3.064
 9383TIP3    H128090   7.649   1.868   3.103
 9383TIP3    H228091   7.695   1.750   3.021
 9384TIP3   OH228092   1.029   5.953   4.652
 9384TIP3    H128093   1.004   5.964   4.744
 9384TIP3    H228094   1.045   6.042   4.621
 9385TIP3   OH228095   7.731   6.835   4.953
 9385TIP3    H128096   7.755   6.822   4.861
 9385TIP3    H228097   7.650   6.786   4.965
 9386TIP3   OH228098   5.854   5.055   2.418
 9386TIP3    H128099   5.847   4.966   2.384
 9386TIP3    H228100   5.917   5.098   2.360
 9387TIP3   OH228101   3.977   0.277   5.975
 9387TIP3    H128102   3.904   0.326   5.936
 9387TIP3    H228103   4.005   0.331   6.049
 9388TIP3   OH228104   3.497   4.612   1.867
 9388TIP3    H128105   3.528   4.543   1.807
 9388TIP3    H228106   3.404   4.624   1.843
 9389TIP3   OH228107   6.864   1.752   5.894
 9389TIP3    H128108   6.946   1.800   5.904
 9389TIP3    H228109   6.864   1.688   5.966
 9390TIP3   OH228110   2.245   3.305   2.385
 9390TIP3    H128111   2.232   3.389   2.341
 9390TIP3    H228112   2.330   3.314   2.429
 9391TIP3   OH228113   1.295   4.858   6.516
 9391TIP3    H128114   1.318   4.950   6.505
 9391TIP3    H228115   1.255   4.833   6.432
 9392TIP3   OH228116   2.811   2.273   0.815
 9392TIP3    H128117   2.816   2.196   0.758
 9392TIP3    H228118   2.894   2.319   0.799
 9393TIP3   OH228119   0.975   3.228   1.006
 9393TIP3    H128120   0.905   3.250   1.068
 9393TIP3    H228121   0.929   3.214   0.923
 9394TIP3   OH228122   5.716   0.388   2.293
 9394TIP3    H128123   5.663   0.381   2.372
 9394TIP3    H228124   5.807   0.390   2.325
 9395TIP3   OH228125   2.577   2.246   4.307
 9395TIP3    H128126   2.532   2.162   4.297
 9395TIP3    H228127   2.587   2.279   4.218
 9396TIP3   OH228128   2.646   5.217   2.701
 9396TIP3    H128129   2.666   5.310   2.706
 9396TIP3    H228130   2.669   5.183   2.788
 9397TIP3   OH228131   5.786   4.944   6.735
 9397TIP3    H128132   5.821   4.897   6.810
 9397TIP3    H228133   5.780   4.878   6.666
 9398TIP3   OH228134   0.629   6.480   4.877
 9398TIP3    H128135   0.684   6.556   4.898
 9398TIP3    H228136   0.673   6.406   4.919
 9399TIP3   OH228137   4.928   1.746   1.185
 9399TIP3    H128138   4.840   1.761   1.220
 9399TIP3    H228139   4.986   1.765   1.258
 9400TIP3   OH228140   5.774   1.313   1.998
 9400TIP3    H128141   5.726   1.386   2.037
 9400TIP3    H228142   5.854   1.306   2.050
 9401TIP3   OH228143   3.181   5.272   6.220
 9401TIP3    H128144   3.170   5.177   6.227
 9401TIP3    H228145   3.149   5.305   6.304
 9402TIP3   OH228146   7.074   4.828   4.308
 9402TIP3    H128147   7.058   4.755   4.367
 9402TIP3    H228148   7.072   4.905   4.364
 9403TIP3   OH228149   4.357   1.917   4.001
 9403TIP3    H128150   4.313   2.000   4.019
 9403TIP3    H228151   4.449   1.940   3.993
 9404TIP3   OH228152   1.024   2.371   0.310
 9404TIP3    H128153   1.113   2.388   0.279
 9404TIP3    H228154   1.034   2.295   0.368
 9405TIP3   OH228155   8.157   0.838   1.442
 9405TIP3    H128156   8.091   0.769   1.433
 9405TIP3    H228157   8.163   0.877   1.354
 9406TIP3   OH228158   0.478   2.427   5.157
 9406TIP3    H128159   0.437   2.359   5.104
 9406TIP3    H228160   0.549   2.382   5.203
 9407TIP3   OH228161   5.656   6.751   6.012
 9407TIP3    H128162   5.572   6.745   5.966
 9407TIP3    H228163   5.632   6.744   6.105
 9408TIP3   OH228164   7.861   1.036   1.048
 9408TIP3    H128165   7.814   0.956   1.026
 9408TIP3    H228166   7.806   1.078   1.115
 9409TIP3   OH228167   6.097   2.849   3.517
 9409TIP3    H128168   6.152   2.907   3.569
 9409TIP3    H228169   6.087   2.771   3.571
 9410TIP3   OH228170   7.303   4.487   1.617
 9410TIP3    H128171   7.338   4.555   1.559
 9410TIP3    H228172   7.366   4.415   1.610
 9411TIP3   OH228173   2.545   0.147   0.826
 9411TIP3    H128174   2.471   0.203   0.847
 9411TIP3    H228175   2.555   0.154   0.731
 9412TIP3   OH228176   5.485   1.539   1.226
 9412TIP3    H128177   5.501   1.614   1.169
 9412TIP3    H228178   5.498   1.463   1.170
 9413TIP3   OH228179   8.107   6.161   4.096
 9413TIP3    H128180   8.178   6.186   4.155
 9413TIP3    H228181   8.095   6.236   4.038
 9414TIP3   OH228182   3.989   2.743   0.069
 9414TIP3    H128183   3.967   2.832   0.040
 9414TIP3    H228184   3.960   2.687  -0.003
 9415TIP3   OH228185   0.511   3.865   4.772
 9415TIP3    H128186   0.556   3.854   4.688
 9415TIP3    H228187   0.452   3.940   4.756
 9416TIP3   OH228188   5.709   5.938   0.642
 9416TIP3    H128189   5.719   6.033   0.649
 9416TIP3    H228190   5.736   5.905   0.728
 9417TIP3   OH228191   3.588   0.306   1.872
 9417TIP3    H128192   3.676   0.277   1.851
 9417TIP3    H228193   3.542   0.226   1.897
 9418TIP3   OH228194   2.960   2.847   2.908
 9418TIP3    H128195   3.007   2.770   2.877
 9418TIP3    H228196   2.895   2.866   2.840
 9419TIP3   OH228197   4.523   3.739   4.345
 9419TIP3    H128198   4.439   3.696   4.334
 9419TIP3    H228199   4.507   3.805   4.413
 9420TIP3   OH228200   7.314   2.284   3.439
 9420TIP3    H128201   7.282   2.315   3.524
 9420TIP3    H228202   7.241   2.233   3.402
 9421TIP3   OH228203   0.371   0.483   3.408
 9421TIP3    H128204   0.357   0.506   3.500
 9421TIP3    H228205   0.409   0.395   3.411
 9422TIP3   OH228206   5.658   4.831   0.516
 9422TIP3    H128207   5.588   4.782   0.559
 9422TIP3    H228208   5.726   4.766   0.498
 9423TIP3   OH228209   6.275   6.218   5.510
 9423TIP3    H128210   6.287   6.307   5.544
 9423TIP3    H228211   6.345   6.167   5.550
 9424TIP3   OH228212   7.704   3.797   4.394
 9424TIP3    H128213   7.688   3.812   4.301
 9424TIP3    H228214   7.786   3.749   4.398
 9425TIP3   OH228215   2.900   6.295   3.693
 9425TIP3    H128216   2.836   6.278   3.762
 9425TIP3    H228217   2.931   6.384   3.710
 9426TIP3   OH228218   3.575   3.188   5.267
 9426TIP3    H128219   3.605   3.099   5.285
 9426TIP3    H228220   3.647   3.244   5.297
 9427TIP3   OH228221   5.202   6.773   3.870
 9427TIP3    H128222   5.202   6.867   3.889
 9427TIP3    H228223   5.292   6.745   3.888
 9428TIP3   OH228224   1.295   1.520   2.676
 9428TIP3    H128225   1.255   1.437   2.651
 9428TIP3    H228226   1.265   1.536   2.765
 9429TIP3   OH228227   0.730   4.681   4.137
 9429TIP3    H128228   0.754   4.664   4.046
 9429TIP3    H228229   0.740   4.596   4.181
 9430TIP3   OH228230   1.246   5.975   1.502
 9430TIP3    H128231   1.191   5.915   1.451
 9430TIP3    H228232   1.197   5.989   1.583
 9431TIP3   OH228233   7.327   7.471   4.263
 9431TIP3    H128234   7.352   7.381   4.285
 9431TIP3    H228235   7.371   7.488   4.180
 9432TIP3   OH228236   0.838   3.116   4.904
 9432TIP3    H128237   0.847   3.028   4.868
 9432TIP3    H228238   0.928   3.148   4.914
 9433TIP3   OH228239   4.035   0.033   6.350
 9433TIP3    H128240   4.031  -0.061   6.336
 9433TIP3    H228241   4.114   0.062   6.304
 9434TIP3   OH228242   5.409   6.045   3.876
 9434TIP3    H128243   5.414   6.135   3.908
 9434TIP3    H228244   5.428   6.052   3.782
 9435TIP3   OH228245   7.645   3.610   5.019
 9435TIP3    H128246   7.725   3.558   5.013
 9435TIP3    H228247   7.671   3.698   4.992
 9436TIP3   OH228248   5.175   5.626   3.152
 9436TIP3    H128249   5.213   5.538   3.152
 9436TIP3    H228250   5.187   5.657   3.241
 9437TIP3   OH228251   1.261   0.544   4.230
 9437TIP3    H128252   1.349   0.579   4.212
 9437TIP3    H228253   1.272   0.490   4.308
 9438TIP3   OH228254   1.358   7.563   0.138
 9438TIP3    H128255   1.275   7.526   0.170
 9438TIP3    H228256   1.396   7.605   0.214
 9439TIP3   OH228257   6.187   1.508   2.246
 9439TIP3    H128258   6.238   1.481   2.322
 9439TIP3    H228259   6.219   1.597   2.227
 9440TIP3   OH228260   8.310   6.226   5.678
 9440TIP3    H128261   8.289   6.168   5.750
 9440TIP3    H228262   8.310   6.169   5.600
 9441TIP3   OH228263   7.979   6.366   2.288
 9441TIP3    H128264   7.918   6.307   2.245
 9441TIP3    H228265   7.932   6.450   2.292
 9442TIP3   OH228266   4.221   1.740   6.071
 9442TIP3    H128267   4.273   1.787   6.136
 9442TIP3    H228268   4.274   1.663   6.048
 9443TIP3   OH228269   4.062   3.293   4.612
 9443TIP3    H128270   4.093   3.204   4.624
 9443TIP3    H228271   4.075   3.310   4.518
 9444TIP3   OH228272   3.804   6.408   0.917
 9444TIP3    H128273   3.769   6.320   0.900
 9444TIP3    H228274   3.890   6.409   0.875
 9445TIP3   OH228275   5.688   1.430   4.940
 9445TIP3    H128276   5.777   1.423   4.974
 9445TIP3    H228277   5.685   1.514   4.894
 9446TIP3   OH228278   0.411   6.950   3.758
 9446TIP3    H128279   0.416   6.956   3.662
 9446TIP3    H228280   0.475   6.883   3.780
 9447TIP3   OH228281   1.945   4.223   1.088
 9447TIP3    H128282   1.961   4.163   1.015
 9447TIP3    H228283   2.027   4.224   1.137
 9448TIP3   OH228284   7.102   7.473   5.889
 9448TIP3    H128285   7.179   7.528   5.877
 9448TIP3    H228286   7.109   7.407   5.820
 9449TIP3   OH228287   3.531   6.451   1.336
 9449TIP3    H128288   3.486   6.367   1.345
 9449TIP3    H228289   3.595   6.435   1.266
 9450TIP3   OH228290   0.508   6.930   3.200
 9450TIP3    H128291   0.487   6.845   3.162
 9450TIP3    H228292   0.433   6.950   3.257
 9451TIP3   OH228293   4.103   7.262   6.153
 9451TIP3    H128294   4.063   7.176   6.152
 9451TIP3    H228295   4.067   7.305   6.231
 9452TIP3   OH228296   5.752   6.449   3.527
 9452TIP3    H128297   5.743   6.435   3.622
 9452TIP3    H228298   5.701   6.378   3.488
 9453TIP3   OH228299   5.518   5.523   3.914
 9453TIP3    H128300   5.595   5.546   3.863
 9453TIP3    H228301   5.456   5.594   3.897
 9454TIP3   OH228302   4.246   0.189   5.362
 9454TIP3    H128303   4.305   0.265   5.369
 9454TIP3    H228304   4.270   0.147   5.280
 9455TIP3   OH228305   8.378   5.492   2.795
 9455TIP3    H128306   8.323   5.562   2.759
 9455TIP3    H228307   8.410   5.527   2.878
 9456TIP3   OH228308   5.998   3.690   4.271
 9456TIP3    H128309   5.940   3.765   4.258
 9456TIP3    H228310   5.940   3.617   4.291
 9457TIP3   OH228311   2.369   4.375   1.456
 9457TIP3    H128312   2.327   4.313   1.516
 9457TIP3    H228313   2.351   4.340   1.369
 9458TIP3   OH228314   2.834   3.058   5.328
 9458TIP3    H128315   2.911   3.077   5.274
 9458TIP3    H228316   2.779   3.005   5.271
 9459TIP3   OH228317   0.159   2.132   5.888
 9459TIP3    H128318   0.167   2.053   5.835
 9459TIP3    H228319   0.120   2.102   5.970
 9460TIP3   OH228320   0.826   1.816   1.434
 9460TIP3    H128321   0.775   1.852   1.507
 9460TIP3    H228322   0.867   1.893   1.394
 9461TIP3   OH228323   0.809   6.723   5.624
 9461TIP3    H128324   0.723   6.718   5.666
 9461TIP3    H228325   0.799   6.672   5.543
 9462TIP3   OH228326   6.697   6.331   2.872
 9462TIP3    H128327   6.744   6.382   2.938
 9462TIP3    H228328   6.764   6.277   2.831
 9463TIP3   OH228329   4.008   5.328   5.603
 9463TIP3    H128330   4.051   5.335   5.688
 9463TIP3    H228331   4.077   5.298   5.543
 9464TIP3   OH228332   2.180   0.330   1.073
 9464TIP3    H128333   2.154   0.410   1.119
 9464TIP3    H228334   2.150   0.259   1.131
 9465TIP3   OH228335   5.200   7.230   3.508
 9465TIP3    H128336   5.113   7.269   3.524
 9465TIP3    H228337   5.256   7.271   3.574
 9466TIP3   OH228338   0.069   4.088   2.624
 9466TIP3    H128339   0.050   3.996   2.645
 9466TIP3    H228340   0.107   4.123   2.705
 9467TIP3   OH228341   5.486   2.867   0.190
 9467TIP3    H128342   5.459   2.956   0.169
 9467TIP3    H228343   5.405   2.821   0.211
 9468TIP3   OH228344   7.424   0.679   6.668
 9468TIP3    H128345   7.475   0.727   6.603
 9468TIP3    H228346   7.400   0.597   6.624
 9469TIP3   OH228347   4.995   1.793   2.837
 9469TIP3    H128348   5.047   1.731   2.786
 9469TIP3    H228349   4.983   1.750   2.921
 9470TIP3   OH228350   2.615   4.878   2.572
 9470TIP3    H128351   2.544   4.927   2.615
 9470TIP3    H228352   2.648   4.819   2.641
 9471TIP3   OH228353   3.685   5.501   0.862
 9471TIP3    H128354   3.678   5.452   0.781
 9471TIP3    H228355   3.719   5.587   0.836
 9472TIP3   OH228356   7.182   7.126   0.377
 9472TIP3    H128357   7.113   7.189   0.399
 9472TIP3    H228358   7.222   7.161   0.298
 9473TIP3   OH228359   6.758   6.975   6.821
 9473TIP3    H128360   6.670   6.980   6.858
 9473TIP3    H228361   6.783   7.066   6.805
 9474TIP3   OH228362   0.548   3.136   2.952
 9474TIP3    H128363   0.638   3.136   2.920
 9474TIP3    H228364   0.518   3.046   2.941
 9475TIP3   OH228365   0.556   7.311   4.542
 9475TIP3    H128366   0.498   7.289   4.615
 9475TIP3    H228367   0.562   7.406   4.544
 9476TIP3   OH228368   2.095   5.508   5.758
 9476TIP3    H128369   2.119   5.478   5.846
 9476TIP3    H228370   2.073   5.600   5.769
 9477TIP3   OH228371   7.193   1.072   4.837
 9477TIP3    H128372   7.153   0.986   4.827
 9477TIP3    H228373   7.217   1.098   4.747
 9478TIP3   OH228374   2.477   1.355   1.792
 9478TIP3    H128375   2.410   1.324   1.731
 9478TIP3    H228376   2.539   1.282   1.799
 9479TIP3   OH228377   7.919   7.068   0.354
 9479TIP3    H128378   7.900   7.145   0.300
 9479TIP3    H228379   7.882   7.090   0.440
 9480TIP3   OH228380   3.941   0.378   2.090
 9480TIP3    H128381   4.027   0.359   2.053
 9480TIP3    H228382   3.882   0.314   2.049
 9481TIP3   OH228383   1.871   4.378   0.537
 9481TIP3    H128384   1.955   4.337   0.515
 9481TIP3    H228385   1.807   4.307   0.526
 9482TIP3   OH228386   4.938   4.936   5.717
 9482TIP3    H128387   4.884   4.857   5.722
 9482TIP3    H228388   4.900   4.987   5.645
 9483TIP3   OH228389   1.621   5.287   2.908
 9483TIP3    H128390   1.638   5.275   3.001
 9483TIP3    H228391   1.552   5.223   2.888
 9484TIP3   OH228392   6.089   3.866   0.792
 9484TIP3    H128393   6.036   3.910   0.725
 9484TIP3    H228394   6.176   3.860   0.754
 9485TIP3   OH228395   1.702   4.312   3.007
 9485TIP3    H128396   1.726   4.342   2.919
 9485TIP3    H228397   1.738   4.379   3.065
 9486TIP3   OH228398   0.921   2.065   1.323
 9486TIP3    H128399   1.006   2.031   1.353
 9486TIP3    H228400   0.943   2.137   1.264
 9487TIP3   OH228401   4.133   1.558   2.727
 9487TIP3    H128402   4.224   1.537   2.744
 9487TIP3    H228403   4.100   1.592   2.810
 9488TIP3   OH228404   4.944   4.085   0.556
 9488TIP3    H128405   5.038   4.086   0.538
 9488TIP3    H228406   4.927   4.170   0.596
 9489TIP3   OH228407   1.953   6.622   4.579
 9489TIP3    H128408   2.017   6.637   4.510
 9489TIP3    H228409   1.868   6.634   4.536
 9490TIP3   OH228410   4.356   1.238   0.149
 9490TIP3    H128411   4.274   1.237   0.100
 9490TIP3    H228412   4.406   1.165   0.113
 9491TIP3   OH228413   2.678   5.967   2.854
 9491TIP3    H128414   2.715   6.054   2.842
 9491TIP3    H228415   2.726   5.911   2.793
 9492TIP3   OH228416   1.128   1.714   0.636
 9492TIP3    H128417   1.130   1.741   0.727
 9492TIP3    H228418   1.130   1.795   0.586
 9493TIP3   OH228419   0.705   1.183   4.217
 9493TIP3    H128420   0.677   1.152   4.303
 9493TIP3    H228421   0.729   1.103   4.169
 9494TIP3   OH228422   3.678   2.342   4.790
 9494TIP3    H128423   3.629   2.295   4.858
 9494TIP3    H228424   3.768   2.341   4.821
 9495TIP3   OH228425   3.033   6.000   0.086
 9495TIP3    H128426   2.969   6.049   0.034
 9495TIP3    H228427   3.112   5.999   0.032
 9496TIP3   OH228428   3.821   3.832   4.665
 9496TIP3    H128429   3.853   3.791   4.585
 9496TIP3    H228430   3.744   3.881   4.638
 9497TIP3   OH228431   3.219   0.387   6.505
 9497TIP3    H128432   3.173   0.389   6.420
 9497TIP3    H228433   3.171   0.449   6.560
 9498TIP3   OH228434   2.746   0.997   1.093
 9498TIP3    H128435   2.736   0.936   1.020
 9498TIP3    H228436   2.787   1.074   1.054
 9499TIP3   OH228437   2.868   4.491   0.634
 9499TIP3    H128438   2.962   4.511   0.640
 9499TIP3    H228439   2.831   4.565   0.587
 9500TIP3   OH228440   7.011   6.070   0.043
 9500TIP3    H128441   6.971   6.051   0.128
 9500TIP3    H228442   7.069   6.144   0.061
 9501TIP3   OH228443   2.995   5.503   1.850
 9501TIP3    H128444   2.911   5.481   1.811
 9501TIP3    H228445   2.983   5.486   1.944
 9502TIP3   OH228446   2.240   4.905   5.796
 9502TIP3    H128447   2.182   4.860   5.858
 9502TIP3    H228448   2.215   4.997   5.802
 9503TIP3   OH228449   8.276   1.041   4.110
 9503TIP3    H128450   8.302   0.950   4.098
 9503TIP3    H228451   8.273   1.077   4.022
 9504TIP3   OH228452   7.721   0.452   0.764
 9504TIP3    H128453   7.785   0.506   0.718
 9504TIP3    H228454   7.704   0.379   0.705
 9505TIP3   OH228455   7.384   1.808   5.230
 9505TIP3    H128456   7.456   1.766   5.184
 9505TIP3    H228457   7.425   1.847   5.308
 9506TIP3   OH228458   2.904   4.811   0.272
 9506TIP3    H128459   2.866   4.826   0.359
 9506TIP3    H228460   2.998   4.828   0.284
 9507TIP3   OH228461   5.143   4.456   0.219
 9507TIP3    H128462   5.215   4.510   0.187
 9507TIP3    H228463   5.115   4.406   0.142
 9508TIP3   OH228464   4.550   6.268   1.445
 9508TIP3    H128465   4.573   6.320   1.368
 9508TIP3    H228466   4.629   6.270   1.499
 9509TIP3   OH228467   0.187   3.350   6.816
 9509TIP3    H128468   0.159   3.345   6.907
 9509TIP3    H228469   0.267   3.404   6.819
 9510TIP3   OH228470   6.470   1.742   5.175
 9510TIP3    H128471   6.503   1.822   5.135
 9510TIP3    H228472   6.503   1.744   5.265
 9511TIP3   OH228473   0.292   4.682   1.907
 9511TIP3    H128474   0.327   4.610   1.856
 9511TIP3    H228475   0.369   4.736   1.928
 9512TIP3   OH228476   2.420   3.926   2.953
 9512TIP3    H128477   2.511   3.953   2.940
 9512TIP3    H228478   2.382   3.994   3.009
 9513TIP3   OH228479   1.400   7.284   0.750
 9513TIP3    H128480   1.320   7.319   0.789
 9513TIP3    H228481   1.391   7.189   0.757
 9514TIP3   OH228482   6.589   5.879   1.365
 9514TIP3    H128483   6.524   5.919   1.422
 9514TIP3    H228484   6.539   5.818   1.310
 9515TIP3   OH228485   2.323   2.984   0.879
 9515TIP3    H128486   2.317   3.063   0.825
 9515TIP3    H228487   2.350   2.915   0.818
 9516TIP3   OH228488   5.110   7.544   2.935
 9516TIP3    H128489   5.137   7.615   2.876
 9516TIP3    H228490   5.178   7.477   2.924
 9517TIP3   OH228491   6.376   2.610   2.996
 9517TIP3    H128492   6.396   2.577   2.909
 9517TIP3    H228493   6.309   2.551   3.029
 9518TIP3   OH228494   4.478   6.999   4.200
 9518TIP3    H128495   4.517   7.086   4.198
 9518TIP3    H228496   4.389   7.013   4.231
 9519TIP3   OH228497   6.506   6.392   2.133
 9519TIP3    H128498   6.489   6.409   2.225
 9519TIP3    H228499   6.544   6.473   2.099
 9520TIP3   OH228500   2.422   3.097   5.451
 9520TIP3    H128501   2.363   3.156   5.404
 9520TIP3    H228502   2.482   3.155   5.497
 9521TIP3   OH228503   4.044   1.286   0.752
 9521TIP3    H128504   4.138   1.275   0.768
 9521TIP3    H228505   4.002   1.254   0.832
 9522TIP3   OH228506   3.822   7.103   5.312
 9522TIP3    H128507   3.787   7.191   5.324
 9522TIP3    H228508   3.759   7.046   5.355
 9523TIP3   OH228509   1.854   2.099   2.543
 9523TIP3    H128510   1.831   2.123   2.633
 9523TIP3    H228511   1.944   2.129   2.532
 9524TIP3   OH228512   1.738   4.723   6.331
 9524TIP3    H128513   1.668   4.684   6.279
 9524TIP3    H228514   1.810   4.660   6.325
 9525TIP3   OH228515   7.972   4.740   5.972
 9525TIP3    H128516   8.039   4.679   5.939
 9525TIP3    H228517   7.932   4.777   5.893
 9526TIP3   OH228518   4.299   7.762   1.834
 9526TIP3    H128519   4.205   7.762   1.818
 9526TIP3    H228520   4.314   7.685   1.889
 9527TIP3   OH228521   3.441   0.337   1.647
 9527TIP3    H128522   3.445   0.426   1.613
 9527TIP3    H228523   3.494   0.340   1.727
 9528TIP3   OH228524   3.009   7.137   4.645
 9528TIP3    H128525   2.950   7.194   4.693
 9528TIP3    H228526   3.093   7.145   4.691
 9529TIP3   OH228527   1.109   6.518   2.306
 9529TIP3    H128528   1.110   6.572   2.227
 9529TIP3    H228529   1.189   6.465   2.300
 9530TIP3   OH228530   4.705   5.169   0.893
 9530TIP3    H128531   4.759   5.153   0.816
 9530TIP3    H228532   4.660   5.252   0.874
 9531TIP3   OH228533   3.215   7.729   4.433
 9531TIP3    H128534   3.161   7.803   4.461
 9531TIP3    H228535   3.227   7.743   4.339
 9532TIP3   OH228536   6.253   0.640   5.686
 9532TIP3    H128537   6.259   0.685   5.771
 9532TIP3    H228538   6.333   0.586   5.683
 9533TIP3   OH228539   4.817   3.177   5.079
 9533TIP3    H128540   4.893   3.197   5.024
 9533TIP3    H228541   4.826   3.084   5.100
 9534TIP3   OH228542   7.838   7.175   6.450
 9534TIP3    H128543   7.865   7.157   6.539
 9534TIP3    H228544   7.795   7.261   6.455
 9535TIP3   OH228545   7.477   7.712   0.661
 9535TIP3    H128546   7.437   7.744   0.580
 9535TIP3    H228547   7.489   7.790   0.715
 9536TIP3   OH228548   7.012   6.070   5.176
 9536TIP3    H128549   6.991   6.140   5.237
 9536TIP3    H228550   6.961   6.090   5.098
 9537TIP3   OH228551   3.495   6.496   6.218
 9537TIP3    H128552   3.422   6.458   6.267
 9537TIP3    H228553   3.502   6.441   6.140
 9538TIP3   OH228554   8.197   0.212   5.892
 9538TIP3    H128555   8.284   0.248   5.907
 9538TIP3    H228556   8.137   0.284   5.913
 9539TIP3   OH228557   5.111   4.585   1.581
 9539TIP3    H128558   5.137   4.611   1.492
 9539TIP3    H228559   5.162   4.642   1.638
 9540TIP3   OH228560   1.371   6.043   4.648
 9540TIP3    H128561   1.304   6.075   4.589
 9540TIP3    H228562   1.323   6.000   4.719
 9541TIP3   OH228563   2.927   1.151   2.944
 9541TIP3    H128564   3.016   1.185   2.948
 9541TIP3    H228565   2.875   1.212   2.996
 9542TIP3   OH228566   8.290   2.564   4.308
 9542TIP3    H128567   8.342   2.486   4.328
 9542TIP3    H228568   8.236   2.538   4.233
 9543TIP3   OH228569   1.028   4.762   6.665
 9543TIP3    H128570   1.021   4.761   6.760
 9543TIP3    H228571   1.117   4.793   6.648
 9544TIP3   OH228572   4.781   2.477   5.460
 9544TIP3    H128573   4.818   2.548   5.512
 9544TIP3    H228574   4.754   2.412   5.523
 9545TIP3   OH228575   5.636   7.506   2.591
 9545TIP3    H128576   5.654   7.468   2.505
 9545TIP3    H228577   5.646   7.600   2.579
 9546TIP3   OH228578   6.074   0.741   2.618
 9546TIP3    H128579   5.997   0.783   2.655
 9546TIP3    H228580   6.046   0.714   2.530
 9547TIP3   OH228581   0.098   7.603   3.552
 9547TIP3    H128582   0.085   7.551   3.631
 9547TIP3    H228583   0.015   7.648   3.538
 9548TIP3   OH228584   2.436   5.966   2.963
 9548TIP3    H128585   2.504   5.955   2.897
 9548TIP3    H228586   2.483   5.992   3.042
 9549TIP3   OH228587   1.064   1.222   3.414
 9549TIP3    H128588   1.159   1.218   3.415
 9549TIP3    H228589   1.036   1.132   3.395
 9550TIP3   OH228590   3.090   7.576   1.149
 9550TIP3    H128591   2.998   7.569   1.177
 9550TIP3    H228592   3.104   7.499   1.094
 9551TIP3   OH228593   0.685   0.701   3.622
 9551TIP3    H128594   0.600   0.724   3.585
 9551TIP3    H228595   0.710   0.776   3.675
 9552TIP3   OH228596   7.530   5.236   2.293
 9552TIP3    H128597   7.587   5.245   2.369
 9552TIP3    H228598   7.547   5.147   2.260
 9553TIP3   OH228599   3.208   6.293   4.139
 9553TIP3    H128600   3.301   6.286   4.122
 9553TIP3    H228601   3.167   6.285   4.053
 9554TIP3   OH228602   3.618   2.162   6.094
 9554TIP3    H128603   3.672   2.190   6.168
 9554TIP3    H228604   3.617   2.237   6.036
 9555TIP3   OH228605   0.214   2.208   5.564
 9555TIP3    H128606   0.188   2.131   5.615
 9555TIP3    H228607   0.295   2.182   5.520
 9556TIP3   OH228608   0.492   6.551   5.201
 9556TIP3    H128609   0.439   6.624   5.168
 9556TIP3    H228610   0.500   6.569   5.295
 9557TIP3   OH228611   6.271   7.869   4.463
 9557TIP3    H128612   6.311   7.952   4.440
 9557TIP3    H228613   6.332   7.829   4.526
 9558TIP3   OH228614   3.849   6.525   5.698
 9558TIP3    H128615   3.915   6.487   5.640
 9558TIP3    H228616   3.897   6.551   5.776
 9559TIP3   OH228617   4.968   5.567   1.775
 9559TIP3    H128618   4.894   5.614   1.738
 9559TIP3    H228619   4.931   5.512   1.844
 9560TIP3   OH228620   6.190   4.619   4.488
 9560TIP3    H128621   6.180   4.713   4.470
 9560TIP3    H228622   6.215   4.615   4.580
 9561TIP3   OH228623   1.958   5.655   5.062
 9561TIP3    H128624   1.929   5.583   5.006
 9561TIP3    H228625   1.909   5.731   5.031
 9562TIP3   OH228626   2.517   3.173   2.996
 9562TIP3    H128627   2.532   3.092   3.044
 9562TIP3    H228628   2.598   3.224   3.008
 9563TIP3   OH228629   1.334   1.236   2.758
 9563TIP3    H128630   1.393   1.284   2.817
 9563TIP3    H228631   1.367   1.146   2.760
 9564TIP3   OH228632   7.269   4.505   5.731
 9564TIP3    H128633   7.322   4.525   5.654
 9564TIP3    H228634   7.181   4.492   5.696
 9565TIP3   OH228635   1.232   0.601   1.867
 9565TIP3    H128636   1.139   0.613   1.884
 9565TIP3    H228637   1.240   0.605   1.772
 9566TIP3   OH228638   5.195   7.876   6.042
 9566TIP3    H128639   5.219   7.809   5.978
 9566TIP3    H228640   5.277   7.924   6.057
 9567TIP3   OH228641   1.941   5.451   2.074
 9567TIP3    H128642   1.926   5.460   1.980
 9567TIP3    H228643   1.860   5.413   2.108
 9568TIP3   OH228644   0.922   0.913   6.086
 9568TIP3    H128645   0.903   1.007   6.085
 9568TIP3    H228646   1.016   0.907   6.069
 9569TIP3   OH228647   1.256   0.713   0.164
 9569TIP3    H128648   1.219   0.677   0.245
 9569TIP3    H228649   1.345   0.677   0.161
 9570TIP3   OH228650   8.102   5.066   6.279
 9570TIP3    H128651   8.155   5.088   6.356
 9570TIP3    H228652   8.011   5.080   6.308
 9571TIP3   OH228653   4.857   6.691   5.234
 9571TIP3    H128654   4.862   6.677   5.139
 9571TIP3    H228655   4.764   6.705   5.252
 9572TIP3   OH228656   5.618   5.255   3.919
 9572TIP3    H128657   5.698   5.271   3.969
 9572TIP3    H228658   5.561   5.328   3.940
 9573TIP3   OH228659   0.624   5.499   4.998
 9573TIP3    H128660   0.686   5.455   4.940
 9573TIP3    H228661   0.558   5.432   5.017
 9574TIP3   OH228662   1.651   4.105   6.249
 9574TIP3    H128663   1.559   4.130   6.256
 9574TIP3    H228664   1.650   4.021   6.204
 9575TIP3   OH228665   3.409   6.063   4.188
 9575TIP3    H128666   3.316   6.041   4.182
 9575TIP3    H228667   3.427   6.062   4.282
 9576TIP3   OH228668   6.079   3.501   2.588
 9576TIP3    H128669   6.049   3.548   2.510
 9576TIP3    H228670   6.170   3.479   2.569
 9577TIP3   OH228671   4.061   3.542   5.598
 9577TIP3    H128672   3.982   3.594   5.593
 9577TIP3    H228673   4.097   3.562   5.684
 9578TIP3   OH228674   0.478   7.241   6.632
 9578TIP3    H128675   0.394   7.237   6.586
 9578TIP3    H228676   0.473   7.323   6.682
 9579TIP3   OH228677   8.051   2.988   2.441
 9579TIP3    H128678   7.992   3.059   2.415
 9579TIP3    H228679   8.070   3.006   2.533
 9580TIP3   OH228680   2.581   3.162   6.559
 9580TIP3    H128681   2.551   3.095   6.620
 9580TIP3    H228682   2.584   3.118   6.474
 9581TIP3   OH228683   2.394   0.135   5.121
 9581TIP3    H128684   2.307   0.125   5.161
 9581TIP3    H228685   2.447   0.068   5.163
 9582TIP3   OH228686   0.864   2.017   2.997
 9582TIP3    H128687   0.830   2.042   3.083
 9582TIP3    H228688   0.956   1.997   3.012
 9583TIP3   OH228689   3.076   2.229   5.397
 9583TIP3    H128690   3.075   2.157   5.335
 9583TIP3    H228691   3.103   2.190   5.480
 9584TIP3   OH228692   0.131   6.662   4.406
 9584TIP3    H128693   0.218   6.628   4.385
 9584TIP3    H228694   0.147   6.749   4.443
 9585TIP3   OH228695   1.423   4.982   6.163
 9585TIP3    H128696   1.470   5.036   6.099
 9585TIP3    H228697   1.395   4.905   6.114
 9586TIP3   OH228698   7.138   6.030   0.846
 9586TIP3    H128699   7.145   5.978   0.926
 9586TIP3    H228700   7.099   5.971   0.782
 9587TIP3   OH228701   2.934   2.120   6.710
 9587TIP3    H128702   2.934   2.141   6.804
 9587TIP3    H228703   2.864   2.056   6.700
 9588TIP3   OH228704   7.399   2.820   4.803
 9588TIP3    H128705   7.395   2.766   4.724
 9588TIP3    H228706   7.476   2.876   4.790
 9589TIP3   OH228707   5.025   0.048   1.380
 9589TIP3    H128708   4.963   0.119   1.366
 9589TIP3    H228709   4.973  -0.032   1.371
 9590TIP3   OH228710   1.936   2.138   1.782
 9590TIP3    H128711   1.926   2.046   1.760
 9590TIP3    H228712   1.854   2.162   1.824
 9591TIP3   OH228713   5.075   2.191   3.096
 9591TIP3    H128714   5.103   2.125   3.032
 9591TIP3    H228715   5.071   2.272   3.046
 9592TIP3   OH228716   2.333   3.670   5.566
 9592TIP3    H128717   2.265   3.729   5.598
 9592TIP3    H228718   2.401   3.672   5.634
 9593TIP3   OH228719   6.353   4.302   4.138
 9593TIP3    H128720   6.444   4.313   4.109
 9593TIP3    H228721   6.323   4.223   4.094
 9594TIP3   OH228722   6.353   2.205   2.063
 9594TIP3    H128723   6.426   2.219   2.124
 9594TIP3    H228724   6.301   2.285   2.070
 9595TIP3   OH228725   0.880   4.868   0.871
 9595TIP3    H128726   0.854   4.953   0.834
 9595TIP3    H228727   0.799   4.816   0.871
 9596TIP3   OH228728   1.482   4.209   0.991
 9596TIP3    H128729   1.493   4.285   1.048
 9596TIP3    H228730   1.518   4.135   1.041
 9597TIP3   OH228731   1.184   6.890   1.824
 9597TIP3    H128732   1.215   6.898   1.915
 9597TIP3    H228733   1.246   6.828   1.784
 9598TIP3   OH228734   2.183   0.065   0.756
 9598TIP3    H128735   2.236   0.137   0.788
 9598TIP3    H228736   2.209   0.055   0.664
 9599TIP3   OH228737   0.840   2.737   5.620
 9599TIP3    H128738   0.898   2.809   5.596
 9599TIP3    H228739   0.871   2.708   5.706
 9600TIP3   OH228740   4.676   6.805   3.159
 9600TIP3    H128741   4.637   6.839   3.239
 9600TIP3    H228742   4.739   6.871   3.132
 9601TIP3   OH228743   3.374   3.325   1.843
 9601TIP3    H128744   3.360   3.326   1.749
 9601TIP3    H228745   3.295   3.367   1.879
 9602TIP3   OH228746   3.001   4.209   5.939
 9602TIP3    H128747   3.035   4.189   5.852
 9602TIP3    H228748   3.039   4.294   5.960
 9603TIP3   OH228749   2.326   5.398   1.874
 9603TIP3    H128750   2.401   5.449   1.904
 9603TIP3    H228751   2.276   5.459   1.820
 9604TIP3   OH228752   7.232   5.385   5.124
 9604TIP3    H128753   7.207   5.478   5.121
 9604TIP3    H228754   7.181   5.344   5.054
 9605TIP3   OH228755   0.487   5.668   1.022
 9605TIP3    H128756   0.443   5.641   1.103
 9605TIP3    H228757   0.514   5.586   0.982
 9606TIP3   OH228758   3.896   6.299   2.764
 9606TIP3    H128759   3.844   6.304   2.844
 9606TIP3    H228760   3.868   6.217   2.722
 9607TIP3   OH228761   5.601   4.206   5.637
 9607TIP3    H128762   5.646   4.282   5.600
 9607TIP3    H228763   5.511   4.215   5.607
 9608TIP3   OH228764   4.167   6.972   6.182
 9608TIP3    H128765   4.074   6.967   6.162
 9608TIP3    H228766   4.170   6.972   6.278
 9609TIP3   OH228767   2.364   7.586   2.861
 9609TIP3    H128768   2.291   7.525   2.862
 9609TIP3    H228769   2.376   7.610   2.953
 9610TIP3   OH228770   3.402   5.730   6.165
 9610TIP3    H128771   3.392   5.714   6.072
 9610TIP3    H228772   3.413   5.825   6.173
 9611TIP3   OH228773   7.523   0.657   2.349
 9611TIP3    H128774   7.591   0.610   2.397
 9611TIP3    H228775   7.513   0.739   2.397
 9612TIP3   OH228776   6.483   2.614   0.541
 9612TIP3    H128777   6.394   2.635   0.571
 9612TIP3    H228778   6.540   2.653   0.607
 9613TIP3   OH228779   0.032   7.791   0.613
 9613TIP3    H128780   0.033   7.782   0.708
 9613TIP3    H228781   0.118   7.827   0.592
 9614TIP3   OH228782   2.884   6.884   6.411
 9614TIP3    H128783   2.895   6.938   6.490
 9614TIP3    H228784   2.901   6.944   6.339
 9615TIP3   OH228785   5.119   3.309   1.318
 9615TIP3    H128786   5.153   3.235   1.268
 9615TIP3    H228787   5.185   3.324   1.386
 9616TIP3   OH228788   0.854   5.038   1.688
 9616TIP3    H128789   0.886   5.009   1.602
 9616TIP3    H228790   0.858   4.960   1.743
 9617TIP3   OH228791   2.294   4.685   5.640
 9617TIP3    H128792   2.349   4.737   5.582
 9617TIP3    H228793   2.243   4.749   5.689
 9618TIP3   OH228794   4.442   4.266   1.290
 9618TIP3    H128795   4.484   4.212   1.356
 9618TIP3    H228796   4.510   4.283   1.225
 9619TIP3   OH228797   7.277   3.519   6.525
 9619TIP3    H128798   7.336   3.507   6.452
 9619TIP3    H228799   7.259   3.613   6.527
 9620TIP3   OH228800   6.077   7.747   4.317
 9620TIP3    H128801   6.064   7.656   4.344
 9620TIP3    H228802   6.157   7.774   4.361
 9621TIP3   OH228803   3.127   7.554   0.088
 9621TIP3    H128804   3.197   7.614   0.113
 9621TIP3    H228805   3.080   7.537   0.170
 9622TIP3   OH228806   5.813   4.980   4.061
 9622TIP3    H128807   5.847   5.069   4.069
 9622TIP3    H228808   5.884   4.925   4.094
 9623TIP3   OH228809   3.767   3.151   2.291
 9623TIP3    H128810   3.809   3.233   2.264
 9623TIP3    H228811   3.761   3.099   2.210
 9624TIP3   OH228812   1.291   3.961   3.608
 9624TIP3    H128813   1.358   3.909   3.653
 9624TIP3    H228814   1.338   4.002   3.536
 9625TIP3   OH228815   7.243   5.220   2.964
 9625TIP3    H128816   7.273   5.157   2.898
 9625TIP3    H228817   7.308   5.290   2.961
 9626TIP3   OH228818   2.124   6.816   6.289
 9626TIP3    H128819   2.084   6.902   6.300
 9626TIP3    H228820   2.170   6.801   6.372
 9627TIP3   OH228821   3.086   0.188   3.728
 9627TIP3    H128822   3.053   0.267   3.771
 9627TIP3    H228823   3.181   0.201   3.724
 9628TIP3   OH228824   6.941   5.915   1.045
 9628TIP3    H128825   6.973   5.842   1.098
 9628TIP3    H228826   6.929   5.987   1.108
 9629TIP3   OH228827   6.811   5.121   4.929
 9629TIP3    H128828   6.782   5.212   4.920
 9629TIP3    H228829   6.730   5.070   4.930
 9630TIP3   OH228830   7.938   6.844   1.803
 9630TIP3    H128831   7.904   6.777   1.745
 9630TIP3    H228832   8.030   6.820   1.816
 9631TIP3   OH228833   1.193   5.512   4.205
 9631TIP3    H128834   1.141   5.574   4.255
 9631TIP3    H228835   1.283   5.531   4.229
 9632TIP3   OH228836   1.738   1.431   2.130
 9632TIP3    H128837   1.677   1.505   2.140
 9632TIP3    H228838   1.813   1.456   2.183
 9633TIP3   OH228839   4.311   6.975   4.460
 9633TIP3    H128840   4.289   6.908   4.524
 9633TIP3    H228841   4.391   7.016   4.493
 9634TIP3   OH228842   5.997   5.563   2.093
 9634TIP3    H128843   6.034   5.641   2.051
 9634TIP3    H228844   6.072   5.506   2.109
 9635TIP3   OH228845   5.709   6.591   0.544
 9635TIP3    H128846   5.695   6.526   0.475
 9635TIP3    H228847   5.632   6.582   0.601
 9636TIP3   OH228848   5.406   6.797   5.925
 9636TIP3    H128849   5.369   6.885   5.933
 9636TIP3    H228850   5.376   6.751   6.002
 9637TIP3   OH228851   4.091   1.673   1.146
 9637TIP3    H128852   4.131   1.729   1.080
 9637TIP3    H228853   4.036   1.612   1.096
 9638TIP3   OH228854   2.887   4.847   6.149
 9638TIP3    H128855   2.931   4.894   6.078
 9638TIP3    H228856   2.816   4.800   6.105
 9639TIP3   OH228857   3.699   4.719   6.400
 9639TIP3    H128858   3.639   4.703   6.473
 9639TIP3    H228859   3.644   4.711   6.322
 9640TIP3   OH228860   1.783   4.045   1.440
 9640TIP3    H128861   1.768   4.129   1.485
 9640TIP3    H228862   1.741   3.980   1.497
 9641TIP3   OH228863   7.909   7.437   1.611
 9641TIP3    H128864   7.873   7.390   1.536
 9641TIP3    H228865   7.898   7.529   1.589
 9642TIP3   OH228866   1.631   6.799   2.354
 9642TIP3    H128867   1.725   6.811   2.339
 9642TIP3    H228868   1.626   6.755   2.439
 9643TIP3   OH228869   4.234   1.443   6.696
 9643TIP3    H128870   4.269   1.507   6.635
 9643TIP3    H228871   4.219   1.364   6.643
 9644TIP3   OH228872   4.961   0.764   1.237
 9644TIP3    H128873   4.891   0.743   1.176
 9644TIP3    H228874   4.937   0.720   1.318
 9645TIP3   OH228875   8.342   0.149   3.148
 9645TIP3    H128876   8.281   0.186   3.212
 9645TIP3    H228877   8.333   0.205   3.072
 9646TIP3   OH228878   4.494   4.109   6.236
 9646TIP3    H128879   4.553   4.115   6.311
 9646TIP3    H228880   4.409   4.090   6.274
 9647TIP3   OH228881   8.233   1.706   0.719
 9647TIP3    H128882   8.222   1.688   0.625
 9647TIP3    H228883   8.144   1.704   0.754
 9648TIP3   OH228884   0.395   4.934   1.847
 9648TIP3    H128885   0.310   4.944   1.803
 9648TIP3    H228886   0.453   4.899   1.779
 9649TIP3   OH228887   1.748   6.971   0.654
 9649TIP3    H128888   1.694   6.912   0.601
 9649TIP3    H228889   1.759   6.925   0.737
 9650TIP3   OH228890   3.415   2.314   3.707
 9650TIP3    H128891   3.366   2.380   3.659
 9650TIP3    H228892   3.487   2.363   3.748
 9651TIP3   OH228893   2.422   4.912   4.826
 9651TIP3    H128894   2.437   4.826   4.785
 9651TIP3    H228895   2.497   4.964   4.799
 9652TIP3   OH228896   5.179   3.613   6.695
 9652TIP3    H128897   5.231   3.567   6.629
 9652TIP3    H228898   5.240   3.628   6.767
 9653TIP3   OH228899   5.845   3.285   5.887
 9653TIP3    H128900   5.866   3.374   5.918
 9653TIP3    H228901   5.750   3.280   5.891
 9654TIP3   OH228902   2.147   5.138   6.494
 9654TIP3    H128903   2.182   5.056   6.529
 9654TIP3    H228904   2.211   5.166   6.429
 9655TIP3   OH228905   0.880   5.223   4.844
 9655TIP3    H128906   0.919   5.309   4.825
 9655TIP3    H228907   0.930   5.162   4.790
 9656TIP3   OH228908   2.774   2.439   1.056
 9656TIP3    H128909   2.763   2.367   0.994
 9656TIP3    H228910   2.864   2.468   1.042
 9657TIP3   OH228911   6.037   7.606   3.702
 9657TIP3    H128912   6.093   7.534   3.731
 9657TIP3    H228913   6.099   7.672   3.669
 9658TIP3   OH228914   5.232   3.124   0.885
 9658TIP3    H128915   5.203   3.090   0.970
 9658TIP3    H228916   5.309   3.177   0.906
 9659TIP3   OH228917   6.628   7.330   5.073
 9659TIP3    H128918   6.581   7.274   5.136
 9659TIP3    H228919   6.713   7.288   5.063
 9660TIP3   OH228920   2.726   0.173   2.522
 9660TIP3    H128921   2.775   0.182   2.440
 9660TIP3    H228922   2.664   0.246   2.521
 9661TIP3   OH228923   1.097   7.641   2.378
 9661TIP3    H128924   1.058   7.666   2.462
 9661TIP3    H228925   1.189   7.623   2.399
 9662TIP3   OH228926   6.397   7.241   4.142
 9662TIP3    H128927   6.367   7.204   4.060
 9662TIP3    H228928   6.474   7.292   4.118
 9663TIP3   OH228929   6.014   2.010   1.746
 9663TIP3    H128930   6.029   1.940   1.683
 9663TIP3    H228931   6.094   2.062   1.744
 9664TIP3   OH228932   5.060   2.377   6.493
 9664TIP3    H128933   5.067   2.425   6.576
 9664TIP3    H228934   4.968   2.385   6.469
 9665TIP3   OH228935   1.860   1.156   5.668
 9665TIP3    H128936   1.805   1.234   5.663
 9665TIP3    H228937   1.913   1.168   5.747
 9666TIP3   OH228938   7.382   7.797   5.665
 9666TIP3    H128939   7.463   7.822   5.711
 9666TIP3    H228940   7.410   7.731   5.602
 9667TIP3   OH228941   4.558   3.489   1.046
 9667TIP3    H128942   4.492   3.536   1.096
 9667TIP3    H228943   4.557   3.532   0.960
 9668TIP3   OH228944   6.522   0.766   5.882
 9668TIP3    H128945   6.451   0.827   5.864
 9668TIP3    H228946   6.477   0.685   5.909
 9669TIP3   OH228947   5.093   7.684   5.652
 9669TIP3    H128948   4.997   7.677   5.652
 9669TIP3    H228949   5.116   7.690   5.745
 9670TIP3   OH228950   5.094   5.544   2.388
 9670TIP3    H128951   5.109   5.637   2.373
 9670TIP3    H228952   5.179   5.511   2.419
 9671TIP3   OH228953   7.861   6.611   2.340
 9671TIP3    H128954   7.871   6.707   2.344
 9671TIP3    H228955   7.781   6.594   2.390
 9672TIP3   OH228956   6.588   0.990   5.695
 9672TIP3    H128957   6.549   1.001   5.781
 9672TIP3    H228958   6.643   0.913   5.703
 9673TIP3   OH228959   1.363   4.037   6.508
 9673TIP3    H128960   1.425   4.097   6.549
 9673TIP3    H228961   1.372   4.053   6.414
 9674TIP3   OH228962   3.513   1.612   3.027
 9674TIP3    H128963   3.535   1.518   3.026
 9674TIP3    H228964   3.555   1.645   3.107
 9675TIP3   OH228965   7.274   3.091   0.036
 9675TIP3    H128966   7.210   3.090   0.108
 9675TIP3    H228967   7.221   3.080  -0.043
 9676TIP3   OH228968   4.137   1.034   2.911
 9676TIP3    H128969   4.140   1.114   2.859
 9676TIP3    H228970   4.208   0.980   2.876
 9677TIP3   OH228971   7.950   3.811   1.602
 9677TIP3    H128972   8.037   3.774   1.614
 9677TIP3    H228973   7.908   3.754   1.537
 9678TIP3   OH228974   7.382   6.423   5.582
 9678TIP3    H128975   7.464   6.469   5.568
 9678TIP3    H228976   7.331   6.481   5.638
 9679TIP3   OH228977   1.070   4.599   0.026
 9679TIP3    H128978   1.113   4.543   0.090
 9679TIP3    H228979   1.126   4.677   0.021
 9680TIP3   OH228980   0.634   4.201   1.795
 9680TIP3    H128981   0.639   4.223   1.702
 9680TIP3    H228982   0.667   4.279   1.840
 9681TIP3   OH228983   7.693   2.273   3.240
 9681TIP3    H128984   7.648   2.224   3.310
 9681TIP3    H228985   7.750   2.208   3.199
 9682TIP3   OH228986   2.519   4.211   2.377
 9682TIP3    H128987   2.471   4.131   2.398
 9682TIP3    H228988   2.540   4.203   2.284
 9683TIP3   OH228989   0.679   7.780   4.404
 9683TIP3    H128990   0.745   7.848   4.419
 9683TIP3    H228991   0.639   7.804   4.321
 9684TIP3   OH228992   7.554   7.887   5.931
 9684TIP3    H128993   7.621   7.822   5.952
 9684TIP3    H228994   7.489   7.876   6.000
 9685TIP3   OH228995   2.000   4.198   6.343
 9685TIP3    H128996   2.021   4.112   6.380
 9685TIP3    H228997   2.046   4.260   6.399
 9686TIP3   OH228998   4.388   4.263   3.544
 9686TIP3    H128999   4.388   4.344   3.595
 9686TIP3    H229000   4.473   4.263   3.500
 9687TIP3   OH229001   1.177   4.851   5.718
 9687TIP3    H129002   1.181   4.946   5.722
 9687TIP3    H229003   1.143   4.831   5.631
 9688TIP3   OH229004   1.385   1.791   1.622
 9688TIP3    H129005   1.438   1.844   1.680
 9688TIP3    H229006   1.301   1.837   1.618
 9689TIP3   OH229007   7.946   7.365   2.654
 9689TIP3    H129008   7.994   7.437   2.613
 9689TIP3    H229009   7.883   7.408   2.712
 9690TIP3   OH229010   2.706   6.745   1.843
 9690TIP3    H129011   2.775   6.748   1.777
 9690TIP3    H229012   2.683   6.652   1.850
 9691TIP3   OH229013   3.128   4.589   0.713
 9691TIP3    H129014   3.202   4.533   0.689
 9691TIP3    H229015   3.123   4.582   0.809
 9692TIP3   OH229016   5.796   5.543   6.770
 9692TIP3    H129017   5.703   5.542   6.792
 9692TIP3    H229018   5.803   5.601   6.694
 9693TIP3   OH229019   3.592   5.037   0.338
 9693TIP3    H129020   3.636   4.952   0.346
 9693TIP3    H229021   3.534   5.041   0.414
 9694TIP3   OH229022   4.728   0.105   6.209
 9694TIP3    H129023   4.772   0.133   6.129
 9694TIP3    H229024   4.795   0.110   6.277
 9695TIP3   OH229025   3.446   5.466   3.133
 9695TIP3    H129026   3.517   5.521   3.099
 9695TIP3    H229027   3.452   5.385   3.082
 9696TIP3   OH229028   5.639   7.558   5.422
 9696TIP3    H129029   5.607   7.647   5.407
 9696TIP3    H229030   5.574   7.502   5.380
 9697TIP3   OH229031   6.084   2.935   2.880
 9697TIP3    H129032   6.046   3.016   2.916
 9697TIP3    H229033   6.165   2.922   2.930
 9698TIP3   OH229034   2.635   4.349   3.002
 9698TIP3    H129035   2.577   4.399   2.945
 9698TIP3    H229036   2.609   4.374   3.091
 9699TIP3   OH229037   0.519   3.727   0.069
 9699TIP3    H129038   0.555   3.815   0.067
 9699TIP3    H229039   0.592   3.672   0.098
 9700TIP3   OH229040   2.808   1.907   4.420
 9700TIP3    H129041   2.819   1.980   4.481
 9700TIP3    H229042   2.817   1.828   4.474
 9701TIP3   OH229043   5.006   6.634   1.203
 9701TIP3    H129044   4.942   6.704   1.220
 9701TIP3    H229045   5.064   6.671   1.136
 9702TIP3   OH229046   3.959   3.065   4.435
 9702TIP3    H129047   3.942   2.996   4.370
 9702TIP3    H229048   4.020   3.025   4.496
 9703TIP3   OH229049   7.625   5.854   4.483
 9703TIP3    H129050   7.688   5.842   4.555
 9703TIP3    H229051   7.679   5.849   4.404
 9704TIP3   OH229052   2.608   0.556   5.220
 9704TIP3    H129053   2.614   0.652   5.223
 9704TIP3    H229054   2.576   0.531   5.307
 9705TIP3   OH229055   1.030   6.318   1.975
 9705TIP3    H129056   1.017   6.223   1.968
 9705TIP3    H229057   0.946   6.351   2.007
 9706TIP3   OH229058   1.067   7.705   0.725
 9706TIP3    H129059   0.991   7.675   0.775
 9706TIP3    H229060   1.065   7.654   0.644
 9707TIP3   OH229061   7.290   6.065   4.436
 9707TIP3    H129062   7.307   5.973   4.456
 9707TIP3    H229063   7.359   6.089   4.375
 9708TIP3   OH229064   6.449   4.016   5.014
 9708TIP3    H129065   6.359   4.042   4.994
 9708TIP3    H229066   6.493   4.016   4.929
 9709TIP3   OH229067   0.063   2.191   4.169
 9709TIP3    H129068  -0.027   2.226   4.167
 9709TIP3    H229069   0.098   2.209   4.082
 9710TIP3   OH229070   7.546   4.374   3.721
 9710TIP3    H129071   7.465   4.401   3.765
 9710TIP3    H229072   7.612   4.374   3.789
 9711TIP3   OH229073   4.810   3.322   5.841
 9711TIP3    H129074   4.905   3.313   5.846
 9711TIP3    H229075   4.796   3.375   5.762
 9712TIP3   OH229076   0.093   2.417   5.089
 9712TIP3    H129077   0.134   2.344   5.136
 9712TIP3    H229078   0.003   2.419   5.123
 9713TIP3   OH229079   0.991   5.462   0.371
 9713TIP3    H129080   0.961   5.395   0.309
 9713TIP3    H229081   1.079   5.434   0.396
 9714TIP3   OH229082   8.154   5.595   2.982
 9714TIP3    H129083   8.140   5.641   2.899
 9714TIP3    H229084   8.248   5.608   3.000
 9715TIP3   OH229085   8.217   6.086   4.563
 9715TIP3    H129086   8.126   6.064   4.543
 9715TIP3    H229087   8.251   6.124   4.483
 9716TIP3   OH229088   4.349   5.541   2.407
 9716TIP3    H129089   4.382   5.631   2.413
 9716TIP3    H229090   4.307   5.537   2.321
 9717TIP3   OH229091   2.998   4.140   1.357
 9717TIP3    H129092   2.998   4.046   1.373
 9717TIP3    H229093   3.082   4.158   1.316
 9718TIP3   OH229094   2.466  -0.031   2.733
 9718TIP3    H129095   2.500   0.044   2.783
 9718TIP3    H229096   2.495  -0.108   2.783
 9719TIP3   OH229097   0.411   2.448   3.590
 9719TIP3    H129098   0.450   2.440   3.503
 9719TIP3    H229099   0.330   2.498   3.576
 9720TIP3   OH229100   0.136   7.288   2.081
 9720TIP3    H129101   0.157   7.223   2.147
 9720TIP3    H229102   0.045   7.311   2.098
 9721TIP3   OH229103   7.678   2.858   3.607
 9721TIP3    H129104   7.693   2.951   3.625
 9721TIP3    H229105   7.627   2.857   3.526
 9722TIP3   OH229106   3.680   4.474   5.293
 9722TIP3    H129107   3.728   4.417   5.232
 9722TIP3    H229108   3.684   4.560   5.253
 9723TIP3   OH229109   2.206   6.789   2.496
 9723TIP3    H129110   2.219   6.800   2.402
 9723TIP3    H229111   2.235   6.699   2.513
 9724TIP3   OH229112   4.958   4.062   3.471
 9724TIP3    H129113   5.013   4.055   3.393
 9724TIP3    H229114   4.924   4.151   3.469
 9725TIP3   OH229115   7.528   3.080   5.803
 9725TIP3    H129116   7.589   3.006   5.795
 9725TIP3    H229117   7.460   3.062   5.739
 9726TIP3   OH229118   5.665   1.791   2.255
 9726TIP3    H129119   5.607   1.818   2.326
 9726TIP3    H229120   5.737   1.854   2.258
 9727TIP3   OH229121   6.747   4.732   6.395
 9727TIP3    H129122   6.837   4.719   6.362
 9727TIP3    H229123   6.696   4.751   6.316
 9728TIP3   OH229124   6.090   3.302   0.888
 9728TIP3    H129125   6.118   3.216   0.918
 9728TIP3    H229126   6.000   3.288   0.858
 9729TIP3   OH229127   0.722   3.437   4.479
 9729TIP3    H129128   0.789   3.374   4.454
 9729TIP3    H229129   0.643   3.384   4.492
 9730TIP3   OH229130   0.962   7.363   2.379
 9730TIP3    H129131   0.873   7.355   2.414
 9730TIP3    H229132   0.986   7.454   2.396
 9731TIP3   OH229133   7.208   5.777   2.028
 9731TIP3    H129134   7.285   5.819   1.990
 9731TIP3    H229135   7.203   5.691   1.986
 9732TIP3   OH229136   7.925   4.045   4.854
 9732TIP3    H129137   7.970   4.087   4.781
 9732TIP3    H229138   7.968   4.081   4.932
 9733TIP3   OH229139   4.670   4.597   4.451
 9733TIP3    H129140   4.587   4.553   4.430
 9733TIP3    H229141   4.688   4.572   4.542
 9734TIP3   OH229142   0.870   0.639   2.624
 9734TIP3    H129143   0.837   0.701   2.689
 9734TIP3    H229144   0.811   0.648   2.550
 9735TIP3   OH229145   3.958   6.722   2.104
 9735TIP3    H129146   3.941   6.648   2.162
 9735TIP3    H229147   3.923   6.695   2.019
 9736TIP3   OH229148   5.905   7.386   1.797
 9736TIP3    H129149   5.820   7.373   1.838
 9736TIP3    H229150   5.951   7.445   1.857
 9737TIP3   OH229151   0.398   2.985   5.033
 9737TIP3    H129152   0.328   2.926   5.007
 9737TIP3    H229153   0.453   2.993   4.955
 9738TIP3   OH229154   4.464   6.280   2.469
 9738TIP3    H129155   4.393   6.225   2.436
 9738TIP3    H229156   4.542   6.249   2.423
 9739TIP3   OH229157   4.607   5.288   4.122
 9739TIP3    H129158   4.530   5.232   4.112
 9739TIP3    H229159   4.666   5.239   4.178
 9740TIP3   OH229160   2.115   2.523   3.874
 9740TIP3    H129161   2.083   2.445   3.829
 9740TIP3    H229162   2.044   2.548   3.933
 9741TIP3   OH229163   1.194   6.289   1.371
 9741TIP3    H129164   1.277   6.293   1.324
 9741TIP3    H229165   1.207   6.221   1.437
 9742TIP3   OH229166   0.277   4.373   0.408
 9742TIP3    H129167   0.329   4.360   0.329
 9742TIP3    H229168   0.209   4.435   0.382
 9743TIP3   OH229169   7.969   6.488   0.706
 9743TIP3    H129170   8.017   6.406   0.693
 9743TIP3    H229171   7.880   6.461   0.728
 9744TIP3   OH229172   0.376   1.573   0.110
 9744TIP3    H129173   0.353   1.480   0.112
 9744TIP3    H229174   0.372   1.600   0.202
 9745TIP3   OH229175   3.450   3.719   6.026
 9745TIP3    H129176   3.416   3.641   5.981
 9745TIP3    H229177   3.501   3.764   5.959
 9746TIP3   OH229178   5.215   1.768   1.539
 9746TIP3    H129179   5.196   1.832   1.471
 9746TIP3    H229180   5.137   1.769   1.595
 9747TIP3   OH229181   1.254   7.738   4.996
 9747TIP3    H129182   1.261   7.712   4.905
 9747TIP3    H229183   1.321   7.806   5.008
 9748TIP3   OH229184   1.109   7.687   0.049
 9748TIP3    H129185   1.014   7.680   0.041
 9748TIP3    H229186   1.123   7.767   0.100
 9749TIP3   OH229187   4.682   2.774   0.814
 9749TIP3    H129188   4.709   2.814   0.897
 9749TIP3    H229189   4.601   2.821   0.790
 9750TIP3   OH229190   2.966   7.762   6.200
 9750TIP3    H129191   3.060   7.751   6.218
 9750TIP3    H229192   2.934   7.814   6.273
 9751TIP3   OH229193   3.845   7.474   4.556
 9751TIP3    H129194   3.771   7.434   4.510
 9751TIP3    H229195   3.826   7.568   4.553
 9752TIP3   OH229196   1.699   4.976   2.507
 9752TIP3    H129197   1.726   4.935   2.589
 9752TIP3    H229198   1.604   4.987   2.515
 9753TIP3   OH229199   0.141   1.313   2.898
 9753TIP3    H129200   0.174   1.380   2.957
 9753TIP3    H229201   0.152   1.350   2.811
 9754TIP3   OH229202   2.063   4.502   2.228
 9754TIP3    H129203   2.152   4.491   2.195
 9754TIP3    H229204   2.066   4.582   2.280
 9755TIP3   OH229205   3.340   0.368   1.088
 9755TIP3    H129206   3.426   0.388   1.052
 9755TIP3    H229207   3.303   0.453   1.110
 9756TIP3   OH229208   7.728   6.539   6.106
 9756TIP3    H129209   7.756   6.604   6.171
 9756TIP3    H229210   7.733   6.586   6.022
 9757TIP3   OH229211   7.105   0.258   1.759
 9757TIP3    H129212   7.072   0.172   1.733
 9757TIP3    H229213   7.091   0.261   1.853
 9758TIP3   OH229214   8.369   1.503   4.448
 9758TIP3    H129215   8.413   1.419   4.460
 9758TIP3    H229216   8.440   1.566   4.432
 9759TIP3   OH229217   5.137   1.581   2.744
 9759TIP3    H129218   5.133   1.486   2.750
 9759TIP3    H229219   5.194   1.598   2.668
 9760TIP3   OH229220   0.786   3.039   4.020
 9760TIP3    H129221   0.698   3.074   4.024
 9760TIP3    H229222   0.794   3.004   3.931
 9761TIP3   OH229223   6.448   6.304   1.863
 9761TIP3    H129224   6.491   6.343   1.940
 9761TIP3    H229225   6.470   6.363   1.791
 9762TIP3   OH229226   1.338   0.174   6.570
 9762TIP3    H129227   1.370   0.263   6.584
 9762TIP3    H229228   1.361   0.128   6.651
 9763TIP3   OH229229   0.209   1.576   0.381
 9763TIP3    H129230   0.228   1.549   0.471
 9763TIP3    H229231   0.183   1.668   0.388
 9764TIP3   OH229232   0.982   3.952   1.406
 9764TIP3    H129233   1.022   3.999   1.332
 9764TIP3    H229234   1.024   3.866   1.405
 9765TIP3   OH229235   6.261   7.883   5.938
 9765TIP3    H129236   6.209   7.940   5.881
 9765TIP3    H229237   6.248   7.795   5.903
 9766TIP3   OH229238   1.157   3.073   3.215
 9766TIP3    H129239   1.241   3.085   3.171
 9766TIP3    H229240   1.156   3.142   3.282
 9767TIP3   OH229241   3.821   0.446   4.817
 9767TIP3    H129242   3.832   0.477   4.727
 9767TIP3    H229243   3.745   0.494   4.851
 9768TIP3   OH229244   7.061   0.221   2.757
 9768TIP3    H129245   7.103   0.307   2.760
 9768TIP3    H229246   7.025   0.209   2.845
 9769TIP3   OH229247   7.900   2.488   0.248
 9769TIP3    H129248   7.829   2.544   0.217
 9769TIP3    H229249   7.881   2.474   0.341
 9770TIP3   OH229250   5.341   5.786   5.164
 9770TIP3    H129251   5.433   5.767   5.185
 9770TIP3    H229252   5.331   5.757   5.074
 9771TIP3   OH229253   4.069   6.421   0.860
 9771TIP3    H129254   4.104   6.332   0.850
 9771TIP3    H229255   4.118   6.458   0.934
 9772TIP3   OH229256   7.275   0.089   3.472
 9772TIP3    H129257   7.194   0.121   3.433
 9772TIP3    H229258   7.342   0.106   3.406
 9773TIP3   OH229259   4.714   6.133   0.859
 9773TIP3    H129260   4.666   6.188   0.921
 9773TIP3    H229261   4.807   6.153   0.875
 9774TIP3   OH229262   7.520   5.705   3.893
 9774TIP3    H129263   7.481   5.721   3.807
 9774TIP3    H229264   7.498   5.614   3.912
 9775TIP3   OH229265   6.791   5.791   4.077
 9775TIP3    H129266   6.827   5.706   4.054
 9775TIP3    H229267   6.843   5.854   4.027
 9776TIP3   OH229268   5.312   2.080   6.672
 9776TIP3    H129269   5.363   2.033   6.739
 9776TIP3    H229270   5.375   2.097   6.602
 9777TIP3   OH229271   2.634   2.051   4.026
 9777TIP3    H129272   2.564   2.058   3.961
 9777TIP3    H229273   2.703   2.003   3.981
 9778TIP3   OH229274   5.809   1.942   1.313
 9778TIP3    H129275   5.747   1.969   1.381
 9778TIP3    H229276   5.852   1.865   1.349
 9779TIP3   OH229277   1.405   6.938   1.968
 9779TIP3    H129278   1.445   7.017   1.931
 9779TIP3    H229279   1.477   6.877   1.978
 9780TIP3   OH229280   0.849   1.055   5.832
 9780TIP3    H129281   0.912   1.091   5.894
 9780TIP3    H229282   0.875   0.963   5.823
 9781TIP3   OH229283   4.576   7.754   2.631
 9781TIP3    H129284   4.574   7.686   2.564
 9781TIP3    H229285   4.489   7.794   2.627
 9782TIP3   OH229286   7.991   1.532   5.776
 9782TIP3    H129287   7.998   1.562   5.685
 9782TIP3    H229288   7.956   1.443   5.769
 9783TIP3   OH229289   2.503   6.532   5.157
 9783TIP3    H129290   2.590   6.567   5.174
 9783TIP3    H229291   2.446   6.580   5.218
 9784TIP3   OH229292   8.228   6.052   5.487
 9784TIP3    H129293   8.232   5.963   5.521
 9784TIP3    H229294   8.171   6.046   5.410
 9785TIP3   OH229295   8.121   4.299   5.342
 9785TIP3    H129296   8.080   4.266   5.423
 9785TIP3    H229297   8.082   4.386   5.330
 9786TIP3   OH229298   4.379   3.880   2.241
 9786TIP3    H129299   4.416   3.832   2.166
 9786TIP3    H229300   4.311   3.822   2.275
 9787TIP3   OH229301   0.108   1.350   6.035
 9787TIP3    H129302   0.150   1.330   6.119
 9787TIP3    H229303   0.053   1.426   6.053
 9788TIP3   OH229304   2.669   5.753   3.182
 9788TIP3    H129305   2.653   5.847   3.173
 9788TIP3    H229306   2.622   5.714   3.109
 9789TIP3   OH229307   8.135   2.179   4.661
 9789TIP3    H129308   8.121   2.273   4.666
 9789TIP3    H229309   8.204   2.162   4.725
 9790TIP3   OH229310   1.664   5.421   0.327
 9790TIP3    H129311   1.689   5.483   0.396
 9790TIP3    H229312   1.708   5.453   0.249
 9791TIP3   OH229313   3.907   3.657   0.847
 9791TIP3    H129314   3.908   3.672   0.752
 9791TIP3    H229315   3.993   3.618   0.866
 9792TIP3   OH229316   5.301   2.259   1.934
 9792TIP3    H129317   5.365   2.189   1.948
 9792TIP3    H229318   5.353   2.333   1.902
 9793TIP3   OH229319   7.859   3.600   1.455
 9793TIP3    H129320   7.788   3.548   1.493
 9793TIP3    H229321   7.906   3.538   1.398
 9794TIP3   OH229322   0.027   4.438   2.831
 9794TIP3    H129323   0.085   4.500   2.786
 9794TIP3    H229324   0.075   4.355   2.830
 9795TIP3   OH229325   4.637   5.180   1.421
 9795TIP3    H129326   4.660   5.091   1.393
 9795TIP3    H229327   4.714   5.211   1.468
 9796TIP3   OH229328   1.768   6.152   3.872
 9796TIP3    H129329   1.751   6.119   3.960
 9796TIP3    H229330   1.825   6.086   3.832
 9797TIP3   OH229331   2.562   7.551   0.238
 9797TIP3    H129332   2.493   7.493   0.207
 9797TIP3    H229333   2.636   7.493   0.256
 9798TIP3   OH229334   5.145   4.926   2.615
 9798TIP3    H129335   5.065   4.937   2.666
 9798TIP3    H229336   5.202   4.874   2.671
 9799TIP3   OH229337   0.162   1.527   3.614
 9799TIP3    H129338   0.242   1.566   3.579
 9799TIP3    H229339   0.095   1.548   3.548
 9800TIP3   OH229340   4.777   1.196   0.062
 9800TIP3    H129341   4.871   1.181   0.068
 9800TIP3    H229342   4.753   1.232   0.148
 9801TIP3   OH229343   1.560   2.270   6.595
 9801TIP3    H129344   1.593   2.222   6.671
 9801TIP3    H229345   1.479   2.224   6.570
 9802TIP3   OH229346   3.083   5.141   1.641
 9802TIP3    H129347   3.016   5.073   1.649
 9802TIP3    H229348   3.035   5.223   1.654
 9803TIP3   OH229349   4.872   3.755   4.011
 9803TIP3    H129350   4.824   3.704   4.076
 9803TIP3    H229351   4.941   3.799   4.060
 9804TIP3   OH229352   4.396   1.643   2.181
 9804TIP3    H129353   4.465   1.583   2.212
 9804TIP3    H229354   4.322   1.625   2.239
 9805TIP3   OH229355   7.667   3.345   6.789
 9805TIP3    H129356   7.640   3.431   6.820
 9805TIP3    H229357   7.660   3.288   6.865
 9806TIP3   OH229358   3.769   0.921   0.114
 9806TIP3    H129359   3.816   0.957   0.190
 9806TIP3    H229360   3.837   0.881   0.060
 9807TIP3   OH229361   2.380   5.082   0.985
 9807TIP3    H129362   2.409   5.127   1.065
 9807TIP3    H229363   2.363   4.992   1.013
 9808TIP3   OH229364   0.777   2.164   0.504
 9808TIP3    H129365   0.763   2.140   0.596
 9808TIP3    H229366   0.749   2.255   0.499
 9809TIP3   OH229367   0.297   5.108   4.311
 9809TIP3    H129368   0.337   5.127   4.396
 9809TIP3    H229369   0.367   5.119   4.247
 9810TIP3   OH229370   4.182   3.905   0.174
 9810TIP3    H129371   4.202   3.813   0.192
 9810TIP3    H229372   4.219   3.952   0.248
 9811TIP3   OH229373   2.138   4.577   4.681
 9811TIP3    H129374   2.077   4.561   4.753
 9811TIP3    H229375   2.186   4.494   4.672
 9812TIP3   OH229376   5.726   6.602   1.592
 9812TIP3    H129377   5.707   6.644   1.676
 9812TIP3    H229378   5.738   6.510   1.614
 9813TIP3   OH229379   1.240   0.370  -0.013
 9813TIP3    H129380   1.260   0.351   0.078
 9813TIP3    H229381   1.300   0.441  -0.036
 9814TIP3   OH229382   3.906   3.370   2.975
 9814TIP3    H129383   3.928   3.288   2.931
 9814TIP3    H229384   3.830   3.403   2.927
 9815TIP3   OH229385   1.102   3.727   5.216
 9815TIP3    H129386   1.107   3.810   5.263
 9815TIP3    H229387   1.066   3.750   5.130
 9816TIP3   OH229388   1.921   7.755   2.325
 9816TIP3    H129389   2.010   7.776   2.299
 9816TIP3    H229390   1.927   7.735   2.419
 9817TIP3   OH229391   1.468   7.312   2.953
 9817TIP3    H129392   1.404   7.259   3.002
 9817TIP3    H229393   1.415   7.375   2.904
 9818TIP3   OH229394   6.290   0.844   2.469
 9818TIP3    H129395   6.225   0.795   2.519
 9818TIP3    H229396   6.266   0.935   2.481
 9819TIP3   OH229397   4.551   5.208   4.608
 9819TIP3    H129398   4.481   5.145   4.590
 9819TIP3    H229399   4.583   5.185   4.695
 9820TIP3   OH229400   8.356   0.435   6.169
 9820TIP3    H129401   8.340   0.480   6.086
 9820TIP3    H229402   8.439   0.471   6.200
 9821TIP3   OH229403   2.962   5.438   4.251
 9821TIP3    H129404   2.998   5.472   4.169
 9821TIP3    H229405   2.905   5.508   4.283
 9822TIP3   OH229406   4.234   2.501   0.724
 9822TIP3    H129407   4.264   2.538   0.807
 9822TIP3    H229408   4.151   2.457   0.746
 9823TIP3   OH229409   7.296   4.182   3.580
 9823TIP3    H129410   7.284   4.133   3.662
 9823TIP3    H229411   7.376   4.232   3.595
 9824TIP3   OH229412   0.598   1.878   5.855
 9824TIP3    H129413   0.624   1.965   5.824
 9824TIP3    H229414   0.556   1.894   5.939
 9825TIP3   OH229415   8.157   4.105   2.244
 9825TIP3    H129416   8.142   4.071   2.156
 9825TIP3    H229417   8.069   4.120   2.279
 9826TIP3   OH229418   1.457   6.684   4.975
 9826TIP3    H129419   1.506   6.646   5.048
 9826TIP3    H229420   1.437   6.773   5.002
 9827TIP3   OH229421   6.358   4.727   6.086
 9827TIP3    H129422   6.322   4.708   5.999
 9827TIP3    H229423   6.339   4.648   6.137
 9828TIP3   OH229424   5.400   6.653   3.629
 9828TIP3    H129425   5.434   6.668   3.717
 9828TIP3    H229426   5.469   6.684   3.571
 9829TIP3   OH229427   6.444   4.757   0.833
 9829TIP3    H129428   6.446   4.665   0.860
 9829TIP3    H229429   6.351   4.778   0.825
 9830TIP3   OH229430   5.672   2.335   1.168
 9830TIP3    H129431   5.671   2.418   1.121
 9830TIP3    H229432   5.762   2.325   1.199
 9831TIP3   OH229433   2.201   3.551   6.573
 9831TIP3    H129434   2.109   3.576   6.564
 9831TIP3    H229435   2.239   3.618   6.630
 9832TIP3   OH229436   5.399   3.653   6.871
 9832TIP3    H129437   5.419   3.583   6.933
 9832TIP3    H229438   5.483   3.675   6.831
 9833TIP3   OH229439   6.805   5.170   6.613
 9833TIP3    H129440   6.766   5.200   6.696
 9833TIP3    H229441   6.735   5.182   6.549
 9834TIP3   OH229442   2.153   6.565   5.925
 9834TIP3    H129443   2.116   6.550   6.012
 9834TIP3    H229444   2.177   6.658   5.924
 9835TIP3   OH229445   7.964   1.782   4.673
 9835TIP3    H129446   7.906   1.707   4.657
 9835TIP3    H229447   7.926   1.854   4.623
 9836TIP3   OH229448   3.657   5.659   0.542
 9836TIP3    H129449   3.700   5.635   0.460
 9836TIP3    H229450   3.609   5.739   0.522
 9837TIP3   OH229451   8.177   3.419   0.715
 9837TIP3    H129452   8.160   3.345   0.774
 9837TIP3    H229453   8.153   3.496   0.766
 9838TIP3   OH229454   1.091   2.356   1.764
 9838TIP3    H129455   1.183   2.347   1.738
 9838TIP3    H229456   1.049   2.398   1.689
 9839TIP3   OH229457   0.218   1.203   1.810
 9839TIP3    H129458   0.262   1.210   1.725
 9839TIP3    H229459   0.241   1.284   1.855
 9840TIP3   OH229460   2.863   4.971   5.711
 9840TIP3    H129461   2.830   5.061   5.704
 9840TIP3    H229462   2.889   4.963   5.803
 9841TIP3   OH229463   3.272   0.284   2.272
 9841TIP3    H129464   3.198   0.225   2.262
 9841TIP3    H229465   3.256   0.354   2.209
 9842TIP3   OH229466   3.761   4.412   6.732
 9842TIP3    H129467   3.717   4.462   6.801
 9842TIP3    H229468   3.851   4.402   6.764
 9843TIP3   OH229469   6.193   4.641   5.901
 9843TIP3    H129470   6.104   4.639   5.935
 9843TIP3    H229471   6.198   4.566   5.841
 9844TIP3   OH229472   0.489   5.583   5.275
 9844TIP3    H129473   0.462   5.496   5.246
 9844TIP3    H229474   0.574   5.597   5.235
 9845TIP3   OH229475   4.757   0.929   5.812
 9845TIP3    H129476   4.788   0.999   5.869
 9845TIP3    H229477   4.784   0.955   5.724
 9846TIP3   OH229478   5.309   2.151   0.986
 9846TIP3    H129479   5.313   2.112   1.074
 9846TIP3    H229480   5.398   2.142   0.952
 9847TIP3   OH229481   1.391   4.722   0.926
 9847TIP3    H129482   1.451   4.787   0.889
 9847TIP3    H229483   1.410   4.722   1.020
 9848TIP3   OH229484   4.459   3.670  -0.037
 9848TIP3    H129485   4.429   3.663   0.054
 9848TIP3    H229486   4.379   3.674  -0.089
 9849TIP3   OH229487   3.837   0.689   0.854
 9849TIP3    H129488   3.904   0.744   0.813
 9849TIP3    H229489   3.763   0.691   0.793
 9850TIP3   OH229490   2.706   5.855   1.225
 9850TIP3    H129491   2.738   5.903   1.149
 9850TIP3    H229492   2.654   5.783   1.188
 9851TIP3   OH229493   7.126   2.225   2.792
 9851TIP3    H129494   7.177   2.150   2.761
 9851TIP3    H229495   7.180   2.301   2.774
 9852TIP3   OH229496   5.349   2.367   0.242
 9852TIP3    H129497   5.404   2.426   0.295
 9852TIP3    H229498   5.261   2.404   0.251
 9853TIP3   OH229499   0.835   6.658   4.920
 9853TIP3    H129500   0.911   6.600   4.920
 9853TIP3    H229501   0.827   6.686   4.829
 9854TIP3   OH229502   1.537   2.888   1.579
 9854TIP3    H129503   1.481   2.811   1.564
 9854TIP3    H229504   1.510   2.921   1.665
 9855TIP3   OH229505   5.469   4.029   2.120
 9855TIP3    H129506   5.545   3.991   2.078
 9855TIP3    H229507   5.414   4.058   2.047
 9856TIP3   OH229508   7.889   4.296   5.879
 9856TIP3    H129509   7.794   4.291   5.866
 9856TIP3    H229510   7.916   4.375   5.831
 9857TIP3   OH229511   5.340   6.408   1.331
 9857TIP3    H129512   5.404   6.374   1.393
 9857TIP3    H229513   5.281   6.335   1.314
 9858TIP3   OH229514   6.984   3.782   4.808
 9858TIP3    H129515   7.072   3.750   4.829
 9858TIP3    H229516   6.999   3.858   4.751
 9859TIP3   OH229517   7.733   2.267   0.112
 9859TIP3    H129518   7.806   2.232   0.061
 9859TIP3    H229519   7.771   2.338   0.163
 9860TIP3   OH229520   6.841   0.712   1.052
 9860TIP3    H129521   6.935   0.701   1.042
 9860TIP3    H229522   6.825   0.699   1.145
 9861TIP3   OH229523   0.269   1.535   2.339
 9861TIP3    H129524   0.314   1.548   2.423
 9861TIP3    H229525   0.225   1.618   2.321
 9862TIP3   OH229526   2.762   5.081   2.035
 9862TIP3    H129527   2.767   5.034   2.118
 9862TIP3    H229528   2.675   5.059   2.000
 9863TIP3   OH229529   1.810   5.479   6.300
 9863TIP3    H129530   1.744   5.525   6.250
 9863TIP3    H229531   1.761   5.425   6.361
 9864TIP3   OH229532   5.569   3.127   0.718
 9864TIP3    H129533   5.524   3.069   0.656
 9864TIP3    H229534   5.566   3.213   0.676
 9865TIP3   OH229535   7.350   5.439   3.593
 9865TIP3    H129536   7.381   5.375   3.528
 9865TIP3    H229537   7.390   5.411   3.675
 9866TIP3   OH229538   6.672   3.802   6.459
 9866TIP3    H129539   6.580   3.777   6.463
 9866TIP3    H229540   6.712   3.760   6.535
 9867TIP3   OH229541   7.725   0.904   3.615
 9867TIP3    H129542   7.781   0.829   3.597
 9867TIP3    H229543   7.648   0.891   3.559
 9868TIP3   OH229544   7.279   3.581   0.026
 9868TIP3    H129545   7.265   3.547   0.114
 9868TIP3    H229546   7.329   3.662   0.038
 9869TIP3   OH229547   6.659   2.362   2.624
 9869TIP3    H129548   6.575   2.323   2.648
 9869TIP3    H229549   6.642   2.456   2.622
 9870TIP3   OH229550   3.243   4.741   1.016
 9870TIP3    H129551   3.219   4.820   0.967
 9870TIP3    H229552   3.162   4.690   1.021
 9871TIP3   OH229553   5.682   3.672   5.390
 9871TIP3    H129554   5.641   3.748   5.432
 9871TIP3    H229555   5.759   3.707   5.346
 9872TIP3   OH229556   5.561   0.176   3.955
 9872TIP3    H129557   5.501   0.248   3.935
 9872TIP3    H229558   5.621   0.174   3.880
 9873TIP3   OH229559   0.532   2.461   6.592
 9873TIP3    H129560   0.508   2.472   6.684
 9873TIP3    H229561   0.620   2.499   6.585
 9874TIP3   OH229562   7.008   5.728   1.237
 9874TIP3    H129563   7.090   5.691   1.270
 9874TIP3    H229564   6.964   5.763   1.315
 9875TIP3   OH229565   3.508   4.998   2.193
 9875TIP3    H129566   3.436   4.976   2.134
 9875TIP3    H229567   3.520   4.920   2.246
 9876TIP3   OH229568   5.514   7.047   3.631
 9876TIP3    H129569   5.575   7.087   3.569
 9876TIP3    H229570   5.503   6.958   3.600
 9877TIP3   OH229571   4.995   3.026   0.810
 9877TIP3    H129572   5.084   3.054   0.832
 9877TIP3    H229573   4.981   2.948   0.865
 9878TIP3   OH229574   7.285   5.461   3.151
 9878TIP3    H129575   7.300   5.527   3.083
 9878TIP3    H229576   7.308   5.506   3.233
 9879TIP3   OH229577   5.490   2.115   6.400
 9879TIP3    H129578   5.396   2.134   6.392
 9879TIP3    H229579   5.530   2.163   6.328
 9880TIP3   OH229580   3.293   3.018   2.767
 9880TIP3    H129581   3.333   2.943   2.723
 9880TIP3    H229582   3.348   3.032   2.844
 9881TIP3   OH229583   6.686   2.924   6.803
 9881TIP3    H129584   6.602   2.898   6.767
 9881TIP3    H229585   6.749   2.862   6.765
 9882TIP3   OH229586   5.152   3.913   5.389
 9882TIP3    H129587   5.086   3.855   5.351
 9882TIP3    H229588   5.198   3.859   5.452
 9883TIP3   OH229589   2.196   7.799   2.373
 9883TIP3    H129590   2.274   7.747   2.394
 9883TIP3    H229591   2.201   7.875   2.432
 9884TIP3   OH229592   7.131   6.311   6.330
 9884TIP3    H129593   7.214   6.307   6.378
 9884TIP3    H229594   7.132   6.234   6.274
 9885TIP3   OH229595   3.529   1.676   2.579
 9885TIP3    H129596   3.540   1.714   2.665
 9885TIP3    H229597   3.505   1.584   2.596
 9886TIP3   OH229598  -0.029   0.985   6.229
 9886TIP3    H129599   0.023   1.044   6.284
 9886TIP3    H229600  -0.089   1.043   6.182
 9887TIP3   OH229601   3.740   6.770   2.546
 9887TIP3    H129602   3.782   6.690   2.577
 9887TIP3    H229603   3.712   6.750   2.457
 9888TIP3   OH229604   6.833   4.988   5.300
 9888TIP3    H129605   6.749   4.948   5.319
 9888TIP3    H229606   6.812   5.070   5.256
 9889TIP3   OH229607   7.652   1.176   5.928
 9889TIP3    H129608   7.716   1.203   5.863
 9889TIP3    H229609   7.702   1.130   5.995
 9890TIP3   OH229610   0.094   3.845   2.048
 9890TIP3    H129611   0.173   3.799   2.020
 9890TIP3    H229612   0.067   3.798   2.127
 9891TIP3   OH229613   0.107   0.160   0.038
 9891TIP3    H129614   0.150   0.076   0.017
 9891TIP3    H229615   0.086   0.153   0.132
 9892TIP3   OH229616   5.131   1.058   3.892
 9892TIP3    H129617   5.174   1.089   3.972
 9892TIP3    H229618   5.080   1.133   3.862
 9893TIP3   OH229619   4.081   1.553   0.381
 9893TIP3    H129620   4.115   1.635   0.416
 9893TIP3    H229621   4.151   1.489   0.394
 9894TIP3   OH229622   3.882   0.513   2.316
 9894TIP3    H129623   3.842   0.597   2.295
 9894TIP3    H229624   3.896   0.470   2.232
 9895TIP3   OH229625   2.321   6.194   2.826
 9895TIP3    H129626   2.318   6.153   2.912
 9895TIP3    H229627   2.301   6.123   2.765
 9896TIP3   OH229628   1.264   4.569   1.856
 9896TIP3    H129629   1.252   4.610   1.771
 9896TIP3    H229630   1.321   4.494   1.839
 9897TIP3   OH229631   6.292   5.927   3.459
 9897TIP3    H129632   6.205   5.959   3.481
 9897TIP3    H229633   6.352   5.983   3.507
 9898TIP3   OH229634   3.140   3.448   6.591
 9898TIP3    H129635   3.053   3.419   6.620
 9898TIP3    H229636   3.126   3.484   6.504
 9899TIP3   OH229637   6.440   4.139   2.188
 9899TIP3    H129638   6.490   4.124   2.108
 9899TIP3    H229639   6.404   4.227   2.178
 9900TIP3   OH229640   3.229   7.372   2.836
 9900TIP3    H129641   3.226   7.289   2.882
 9900TIP3    H229642   3.275   7.352   2.754
 9901TIP3   OH229643   4.768   7.268   5.764
 9901TIP3    H129644   4.848   7.241   5.809
 9901TIP3    H229645   4.712   7.191   5.766
 9902TIP3   OH229646   7.325   4.940   5.075
 9902TIP3    H129647   7.335   5.002   5.147
 9902TIP3    H229648   7.237   4.905   5.086
 9903TIP3   OH229649   0.332   2.578   6.419
 9903TIP3    H129650   0.382   2.549   6.496
 9903TIP3    H229651   0.354   2.513   6.352
 9904TIP3   OH229652   1.903   0.556   2.276
 9904TIP3    H129653   1.917   0.645   2.242
 9904TIP3    H229654   1.808   0.550   2.290
 9905TIP3   OH229655   6.231   4.689   5.542
 9905TIP3    H129656   6.242   4.621   5.475
 9905TIP3    H229657   6.292   4.664   5.611
 9906TIP3   OH229658   4.707   4.121   5.445
 9906TIP3    H129659   4.747   4.082   5.523
 9906TIP3    H229660   4.777   4.121   5.379
 9907TIP3   OH229661   8.074   2.691   4.476
 9907TIP3    H129662   8.026   2.734   4.405
 9907TIP3    H229663   8.158   2.666   4.438
 9908TIP3   OH229664   7.293   1.328   1.491
 9908TIP3    H129665   7.209   1.287   1.511
 9908TIP3    H229666   7.358   1.267   1.527
 9909TIP3   OH229667   0.454   2.594   0.360
 9909TIP3    H129668   0.463   2.667   0.421
 9909TIP3    H229669   0.407   2.631   0.285
 9910TIP3   OH229670   7.965   1.688   5.544
 9910TIP3    H129671   7.911   1.638   5.483
 9910TIP3    H229672   8.038   1.720   5.492
 9911TIP3   OH229673   5.963   3.760   0.532
 9911TIP3    H129674   5.962   3.854   0.551
 9911TIP3    H229675   5.872   3.732   0.540
 9912TIP3   OH229676   7.919   0.357   3.426
 9912TIP3    H129677   7.962   0.419   3.367
 9912TIP3    H229678   7.842   0.327   3.377
 9913TIP3   OH229679   3.575   7.775   5.689
 9913TIP3    H129680   3.545   7.685   5.700
 9913TIP3    H229681   3.497   7.828   5.707
 9914TIP3   OH229682   1.096   2.952   6.073
 9914TIP3    H129683   1.031   2.918   6.011
 9914TIP3    H229684   1.162   2.883   6.079
 9915TIP3   OH229685   0.426   7.304   4.794
 9915TIP3    H129686   0.431   7.392   4.831
 9915TIP3    H229687   0.435   7.245   4.869
 9916TIP3   OH229688   4.679   0.199   3.389
 9916TIP3    H129689   4.762   0.175   3.349
 9916TIP3    H229690   4.639   0.260   3.326
 9917TIP3   OH229691   3.032   0.356   3.159
 9917TIP3    H129692   3.001   0.372   3.069
 9917TIP3    H229693   2.975   0.410   3.214
 9918TIP3   OH229694   5.841   1.132   5.533
 9918TIP3    H129695   5.745   1.125   5.542
 9918TIP3    H229696   5.875   1.089   5.612
 9919TIP3   OH229697   2.434   2.580   5.549
 9919TIP3    H129698   2.499   2.511   5.534
 9919TIP3    H229699   2.485   2.653   5.584
 9920TIP3   OH229700   7.530   6.636   6.318
 9920TIP3    H129701   7.514   6.678   6.234
 9920TIP3    H229702   7.588   6.697   6.365
 9921TIP3   OH229703   2.273   0.827   4.611
 9921TIP3    H129704   2.257   0.750   4.665
 9921TIP3    H229705   2.367   0.843   4.620
 9922TIP3   OH229706   4.564   4.089   3.798
 9922TIP3    H129707   4.651   4.069   3.763
 9922TIP3    H229708   4.557   4.184   3.791
 9923TIP3   OH229709   6.470   0.847   2.187
 9923TIP3    H129710   6.391   0.794   2.181
 9923TIP3    H229711   6.453   0.908   2.258
 9924TIP3   OH229712   0.746   2.239   2.352
 9924TIP3    H129713   0.810   2.292   2.399
 9924TIP3    H229714   0.787   2.223   2.267
 9925TIP3   OH229715   4.216   2.430   0.364
 9925TIP3    H129716   4.252   2.411   0.277
 9925TIP3    H229717   4.292   2.453   0.417
 9926TIP3   OH229718   7.811   1.260   4.305
 9926TIP3    H129719   7.788   1.256   4.213
 9926TIP3    H229720   7.905   1.239   4.308
 9927TIP3   OH229721   5.458   6.191   4.945
 9927TIP3    H129722   5.382   6.247   4.961
 9927TIP3    H229723   5.443   6.114   5.000
 9928TIP3   OH229724   1.780   0.465   0.531
 9928TIP3    H129725   1.815   0.536   0.585
 9928TIP3    H229726   1.784   0.499   0.442
 9929TIP3   OH229727   3.729   1.888   3.348
 9929TIP3    H129728   3.648   1.933   3.322
 9929TIP3    H229729   3.799   1.949   3.323
 9930TIP3   OH229730   7.346   2.192   5.236
 9930TIP3    H129731   7.356   2.197   5.331
 9930TIP3    H229732   7.287   2.264   5.214
 9931TIP3   OH229733   7.855   6.374   1.373
 9931TIP3    H129734   7.941   6.333   1.371
 9931TIP3    H229735   7.831   6.384   1.281
 9932TIP3   OH229736   0.596   0.015   6.226
 9932TIP3    H129737   0.619  -0.030   6.145
 9932TIP3    H229738   0.584   0.106   6.199
 9933TIP3   OH229739   2.667   7.830   5.647
 9933TIP3    H129740   2.750   7.867   5.619
 9933TIP3    H229741   2.645   7.767   5.579
 9934TIP3   OH229742   4.558   2.233   6.268
 9934TIP3    H129743   4.489   2.219   6.333
 9934TIP3    H229744   4.512   2.233   6.184
 9935TIP3   OH229745   0.259   3.065   2.853
 9935TIP3    H129746   0.234   3.017   2.932
 9935TIP3    H229747   0.277   3.154   2.885
 9936TIP3   OH229748   5.783   4.138   2.680
 9936TIP3    H129749   5.854   4.132   2.617
 9936TIP3    H229750   5.753   4.229   2.674
 9937TIP3   OH229751   8.342   5.800   6.257
 9937TIP3    H129752   8.375   5.823   6.344
 9937TIP3    H229753   8.265   5.746   6.274
 9938TIP3   OH229754   0.053   3.761   0.867
 9938TIP3    H129755   0.126   3.807   0.909
 9938TIP3    H229756  -0.022   3.818   0.880
 9939TIP3   OH229757   7.912   7.228   4.755
 9939TIP3    H129758   7.823   7.259   4.769
 9939TIP3    H229759   7.918   7.211   4.661
 9940TIP3   OH229760   4.779   7.201   0.074
 9940TIP3    H129761   4.757   7.111   0.098
 9940TIP3    H229762   4.754   7.208  -0.018
 9941TIP3   OH229763   1.696   3.065   3.261
 9941TIP3    H129764   1.749   3.020   3.327
 9941TIP3    H229765   1.760   3.101   3.199
 9942TIP3   OH229766   5.868   6.093   6.206
 9942TIP3    H129767   5.956   6.054   6.210
 9942TIP3    H229768   5.831   6.060   6.125
 9943TIP3   OH229769   3.854   5.759   3.294
 9943TIP3    H129770   3.760   5.768   3.311
 9943TIP3    H229771   3.884   5.848   3.280
 9944TIP3   OH229772   0.970   3.485   0.109
 9944TIP3    H129773   0.942   3.401   0.072
 9944TIP3    H229774   0.891   3.538   0.111
 9945TIP3   OH229775   8.056   1.110   6.066
 9945TIP3    H129776   8.136   1.163   6.056
 9945TIP3    H229777   7.991   1.171   6.101
 9946TIP3   OH229778   2.868   3.031   1.288
 9946TIP3    H129779   2.884   3.029   1.194
 9946TIP3    H229780   2.952   3.007   1.327
 9947TIP3   OH229781   3.233   5.414   4.071
 9947TIP3    H129782   3.309   5.361   4.049
 9947TIP3    H229783   3.159   5.354   4.063
 9948TIP3   OH229784   4.459   1.852   2.520
 9948TIP3    H129785   4.540   1.807   2.495
 9948TIP3    H229786   4.472   1.874   2.612
 9949TIP3   OH229787   2.543   3.885   0.362
 9949TIP3    H129788   2.539   3.851   0.451
 9949TIP3    H229789   2.533   3.808   0.306
 9950TIP3   OH229790   0.127   2.669   1.947
 9950TIP3    H129791   0.036   2.674   1.920
 9950TIP3    H229792   0.131   2.724   2.026
 9951TIP3   OH229793   3.075   1.665   0.992
 9951TIP3    H129794   3.017   1.734   1.022
 9951TIP3    H229795   3.142   1.658   1.059
 9952TIP3   OH229796   6.399   6.461   3.933
 9952TIP3    H129797   6.340   6.504   3.996
 9952TIP3    H229798   6.464   6.528   3.912
 9953TIP3   OH229799   5.059   1.685   1.763
 9953TIP3    H129800   5.012   1.644   1.836
 9953TIP3    H229801   5.151   1.667   1.781
 9954TIP3   OH229802   7.909   4.588   3.642
 9954TIP3    H129803   7.906   4.588   3.546
 9954TIP3    H229804   7.818   4.601   3.669
 9955TIP3   OH229805   6.472   4.125   3.371
 9955TIP3    H129806   6.419   4.180   3.315
 9955TIP3    H229807   6.556   4.117   3.325
 9956TIP3   OH229808   2.352   2.245   2.833
 9956TIP3    H129809   2.437   2.260   2.873
 9956TIP3    H229810   2.289   2.264   2.902
 9957TIP3   OH229811   6.285   2.079   3.762
 9957TIP3    H129812   6.217   2.137   3.728
 9957TIP3    H229813   6.358   2.136   3.784
 9958TIP3   OH229814   1.074   6.393   5.867
 9958TIP3    H129815   1.159   6.430   5.844
 9958TIP3    H229816   1.031   6.380   5.783
 9959TIP3   OH229817   3.081   3.803   4.810
 9959TIP3    H129818   3.024   3.740   4.765
 9959TIP3    H229819   3.146   3.828   4.745
 9960TIP3   OH229820   3.726   2.859   5.229
 9960TIP3    H129821   3.713   2.891   5.318
 9960TIP3    H229822   3.638   2.858   5.190
 9961TIP3   OH229823   6.108   7.144   0.784
 9961TIP3    H129824   6.186   7.092   0.804
 9961TIP3    H229825   6.059   7.091   0.722
 9962TIP3   OH229826   3.112   7.095   6.441
 9962TIP3    H129827   3.127   7.001   6.438
 9962TIP3    H229828   3.199   7.134   6.444
 9963TIP3   OH229829   4.808   3.937   6.078
 9963TIP3    H129830   4.887   3.890   6.106
 9963TIP3    H229831   4.809   4.017   6.131
 9964TIP3   OH229832   0.520   7.467   5.183
 9964TIP3    H129833   0.507   7.491   5.091
 9964TIP3    H229834   0.599   7.413   5.182
 9965TIP3   OH229835   4.948   3.211   4.288
 9965TIP3    H129836   5.006   3.176   4.356
 9965TIP3    H229837   5.001   3.214   4.209
 9966TIP3   OH229838   2.891   7.837   0.482
 9966TIP3    H129839   2.920   7.772   0.546
 9966TIP3    H229840   2.799   7.816   0.465
 9967TIP3   OH229841   6.125   0.735   3.247
 9967TIP3    H129842   6.052   0.790   3.220
 9967TIP3    H229843   6.114   0.724   3.341
 9968TIP3   OH229844   0.608   5.924   2.482
 9968TIP3    H129845   0.606   5.886   2.570
 9968TIP3    H229846   0.539   5.878   2.435
 9969TIP3   OH229847   7.768   0.709   3.897
 9969TIP3    H129848   7.737   0.619   3.911
 9969TIP3    H229849   7.697   0.751   3.848
 9970TIP3   OH229850   4.949   6.530   5.689
 9970TIP3    H129851   5.036   6.558   5.661
 9970TIP3    H229852   4.891   6.602   5.667
 9971TIP3   OH229853   0.580   2.771   2.357
 9971TIP3    H129854   0.657   2.825   2.344
 9971TIP3    H229855   0.603   2.686   2.318
 9972TIP3   OH229856   3.068   2.260   2.085
 9972TIP3    H129857   3.108   2.246   2.171
 9972TIP3    H229858   3.113   2.199   2.027
 9973TIP3   OH229859   7.145   0.283   0.664
 9973TIP3    H129860   7.178   0.313   0.749
 9973TIP3    H229861   7.059   0.245   0.684
 9974TIP3   OH229862   6.627   5.215   5.577
 9974TIP3    H129863   6.690   5.203   5.649
 9974TIP3    H229864   6.616   5.128   5.541
 9975TIP3   OH229865   6.385   0.652   1.414
 9975TIP3    H129866   6.364   0.600   1.337
 9975TIP3    H229867   6.323   0.622   1.480
 9976TIP3   OH229868   1.903   1.371   4.808
 9976TIP3    H129869   1.868   1.444   4.859
 9976TIP3    H229870   1.851   1.295   4.834
 9977TIP3   OH229871   5.139   4.174   6.313
 9977TIP3    H129872   5.121   4.175   6.407
 9977TIP3    H229873   5.053   4.174   6.272
 9978TIP3   OH229874   0.749   5.947   2.241
 9978TIP3    H129875   0.806   5.889   2.293
 9978TIP3    H229876   0.693   5.990   2.305
 9979TIP3   OH229877   7.085   3.408   1.210
 9979TIP3    H129878   7.157   3.470   1.222
 9979TIP3    H229879   7.018   3.458   1.164
 9980TIP3   OH229880   4.436   1.324   1.260
 9980TIP3    H129881   4.464   1.266   1.190
 9980TIP3    H229882   4.517   1.367   1.289
 9981TIP3   OH229883   5.653   1.486   0.576
 9981TIP3    H129884   5.608   1.561   0.536
 9981TIP3    H229885   5.617   1.481   0.665
 9982TIP3   OH229886   4.582   5.585   4.239
 9982TIP3    H129887   4.636   5.581   4.318
 9982TIP3    H229888   4.569   5.494   4.213
 9983TIP3   OH229889   6.932   7.567   2.948
 9983TIP3    H129890   6.924   7.662   2.955
 9983TIP3    H229891   6.929   7.550   2.854
 9984TIP3   OH229892   4.526   5.006   4.008
 9984TIP3    H129893   4.602   4.949   3.999
 9984TIP3    H229894   4.519   5.051   3.924
 9985TIP3   OH229895   1.825   6.624   6.313
 9985TIP3    H129896   1.828   6.712   6.277
 9985TIP3    H229897   1.815   6.567   6.237
 9986TIP3   OH229898   4.538   7.673   0.756
 9986TIP3    H129899   4.508   7.705   0.841
 9986TIP3    H229900   4.518   7.745   0.696
 9987TIP3   OH229901   2.312   7.023   6.079
 9987TIP3    H129902   2.373   7.024   6.153
 9987TIP3    H229903   2.247   7.090   6.100
 9988TIP3   OH229904   3.619   1.658   5.900
 9988TIP3    H129905   3.651   1.737   5.857
 9988TIP3    H229906   3.527   1.653   5.876
 9989TIP3   OH229907   2.274   4.863   5.051
 9989TIP3    H129908   2.323   4.801   5.105
 9989TIP3    H229909   2.330   4.878   4.975
 9990TIP3   OH229910   1.188   6.688   0.181
 9990TIP3    H129911   1.225   6.767   0.140
 9990TIP3    H229912   1.094   6.707   0.187
 9991TIP3   OH229913   6.823   2.602   2.451
 9991TIP3    H129914   6.801   2.515   2.417
 9991TIP3    H229915   6.916   2.596   2.473
 9992TIP3   OH229916   1.953   2.119   4.965
 9992TIP3    H129917   1.947   2.059   5.039
 9992TIP3    H229918   1.902   2.196   4.992
 9993TIP3   OH229919   6.202   6.564   0.515
 9993TIP3    H129920   6.196   6.626   0.587
 9993TIP3    H229921   6.294   6.538   0.514
 9994TIP3   OH229922   4.219   0.357   2.366
 9994TIP3    H129923   4.181   0.283   2.413
 9994TIP3    H229924   4.185   0.434   2.411
 9995TIP3   OH229925   1.179   7.299   0.505
 9995TIP3    H129926   1.257   7.291   0.560
 9995TIP3    H229927   1.106   7.290   0.567
 9996TIP3   OH229928   6.282   0.370   4.916
 9996TIP3    H129929   6.298   0.338   4.827
 9996TIP3    H229930   6.196   0.412   4.911
 9997TIP3   OH229931   1.599   3.361   0.958
 9997TIP3    H129932   1.519   3.406   0.987
 9997TIP3    H229933   1.579   3.334   0.868
 9998TIP3   OH229934   4.286   5.209   2.235
 9998TIP3    H129935   4.201   5.220   2.192
 9998TIP3    H229936   4.296   5.114   2.243
 9999TIP3   OH229937   7.884   6.594   1.144
 9999TIP3    H129938   7.849   6.681   1.123
 9999TIP3    H229939   7.814   6.533   1.120
10000TIP3   OH229940   7.861   2.688   5.385
10000TIP3    H129941   7.804   2.706   5.309
10000TIP3    H229942   7.914   2.767   5.393
10001TIP3   OH229943   2.375   4.715   0.820
10001TIP3    H129944   2.367   4.622   0.840
10001TIP3    H229945   2.462   4.739   0.852
10002TIP3   OH229946   1.914   1.595   1.396
10002TIP3    H129947   1.946   1.603   1.306
10002TIP3    H229948   1.932   1.504   1.420
10003TIP3   OH229949   6.190   6.220   1.185
10003TIP3    H129950   6.266   6.178   1.145
10003TIP3    H229951   6.223   6.304   1.216
10004TIP3   OH229952   4.338   7.598   0.455
10004TIP3    H129953   4.277   7.528   0.480
10004TIP3    H229954   4.282   7.674   0.439
10005TIP3   OH229955   5.544   0.329   4.332
10005TIP3    H129956   5.613   0.312   4.268
10005TIP3    H229957   5.523   0.422   4.319
10006TIP3   OH229958   2.868   1.247   3.762
10006TIP3    H129959   2.888   1.210   3.676
10006TIP3    H229960   2.803   1.315   3.745
10007TIP3   OH229961   4.177   2.421   4.835
10007TIP3    H129962   4.207   2.455   4.919
10007TIP3    H229963   4.203   2.487   4.771
10008TIP3   OH229964   7.715   5.050   2.931
10008TIP3    H129965   7.713   4.991   3.006
10008TIP3    H229966   7.804   5.084   2.929
10009TIP3   OH229967   0.605   7.828   1.368
10009TIP3    H129968   0.573   7.909   1.328
10009TIP3    H229969   0.697   7.847   1.388
10010TIP3   OH229970   7.135   7.059   5.780
10010TIP3    H129971   7.191   7.103   5.844
10010TIP3    H229972   7.105   7.129   5.722
10011TIP3   OH229973   0.656   5.235   6.562
10011TIP3    H129974   0.578   5.292   6.562
10011TIP3    H229975   0.700   5.255   6.645
10012TIP3   OH229976   3.357   6.615   2.776
10012TIP3    H129977   3.279   6.599   2.723
10012TIP3    H229978   3.326   6.668   2.850
10013TIP3   OH229979   7.183   1.883   6.142
10013TIP3    H129980   7.135   1.815   6.190
10013TIP3    H229981   7.231   1.931   6.210
10014TIP3   OH229982   4.602   6.181   2.951
10014TIP3    H129983   4.554   6.153   2.873
10014TIP3    H229984   4.645   6.102   2.982
10015TIP3   OH229985   2.646   5.883   2.143
10015TIP3    H129986   2.706   5.891   2.070
10015TIP3    H229987   2.658   5.964   2.193
10016TIP3   OH229988   4.164   0.466   2.931
10016TIP3    H129989   4.172   0.553   2.972
10016TIP3    H229990   4.071   0.457   2.913
10017TIP3   OH229991   1.255   0.496   2.705
10017TIP3    H129992   1.217   0.465   2.787
10017TIP3    H229993   1.349   0.481   2.714
10018TIP3   OH229994   4.870   3.655   0.166
10018TIP3    H129995   4.919   3.593   0.221
10018TIP3    H229996   4.790   3.608   0.143
10019TIP3   OH229997   7.201   6.170   4.007
10019TIP3    H129998   7.162   6.235   3.949
10019TIP3    H229999   7.295   6.174   3.988
10020TIP3   OH230000   4.191   4.808   0.510
10020TIP3    H130001   4.116   4.867   0.508
10020TIP3    H230002   4.189   4.764   0.425
10021TIP3   OH230003   2.928   5.410   0.946
10021TIP3    H130004   3.008   5.441   0.903
10021TIP3    H230005   2.945   5.420   1.039
10022TIP3   OH230006   0.858   6.069   1.394
10022TIP3    H130007   0.919   6.109   1.456
10022TIP3    H230008   0.772   6.100   1.422
10023TIP3   OH230009   0.311   0.515   2.103
10023TIP3    H130010   0.382   0.463   2.064
10023TIP3    H230011   0.232   0.464   2.086
10024TIP3   OH230012   4.656   2.181   2.634
10024TIP3    H130013   4.668   2.212   2.544
10024TIP3    H230014   4.712   2.104   2.641
10025TIP3   OH230015   5.935   6.778   0.848
10025TIP3    H130016   5.842   6.801   0.841
10025TIP3    H230017   5.943   6.737   0.935
10026TIP3   OH230018   0.768   7.440   3.552
10026TIP3    H130019   0.746   7.353   3.584
10026TIP3    H230020   0.684   7.486   3.548
10027TIP3   OH230021   2.292   4.890   6.575
10027TIP3    H130022   2.329   4.920   6.492
10027TIP3    H230023   2.366   4.884   6.634
10028TIP3   OH230024   0.482   4.201   0.306
10028TIP3    H130025   0.494   4.251   0.387
10028TIP3    H230026   0.463   4.112   0.335
10029TIP3   OH230027   3.310   4.067   0.410
10029TIP3    H130028   3.347   3.981   0.391
10029TIP3    H230029   3.255   4.052   0.487
10030TIP3   OH230030   4.727   6.731   5.620
10030TIP3    H130031   4.705   6.718   5.528
10030TIP3    H230032   4.691   6.817   5.642
10031TIP3   OH230033   5.603   7.071   1.148
10031TIP3    H130034   5.510   7.047   1.149
10031TIP3    H230035   5.615   7.114   1.063
10032TIP3   OH230036   1.246   7.242   6.616
10032TIP3    H130037   1.236   7.147   6.615
10032TIP3    H230038   1.201   7.272   6.537
10033TIP3   OH230039   7.907   0.743   1.765
10033TIP3    H130040   7.949   0.829   1.760
10033TIP3    H230041   7.968   0.690   1.817
10034TIP3   OH230042   1.104   1.988   3.125
10034TIP3    H130043   1.076   1.907   3.167
10034TIP3    H230044   1.199   1.991   3.140
10035TIP3   OH230045   7.021   2.271   1.873
10035TIP3    H130046   6.996   2.330   1.802
10035TIP3    H230047   6.948   2.210   1.880
10036TIP3   OH230048   0.524   0.621   0.076
10036TIP3    H130049   0.537   0.556   0.007
10036TIP3    H230050   0.584   0.692   0.054
10037TIP3   OH230051   2.241   7.014   1.685
10037TIP3    H130052   2.190   7.081   1.638
10037TIP3    H230053   2.290   6.969   1.616
10038TIP3   OH230054   4.163   5.193   6.518
10038TIP3    H130055   4.202   5.250   6.452
10038TIP3    H230056   4.120   5.252   6.579
10039TIP3   OH230057   7.787   7.326   0.247
10039TIP3    H130058   7.716   7.325   0.311
10039TIP3    H230059   7.749   7.287   0.168
10040TIP3   OH230060   7.813   1.316   3.408
10040TIP3    H130061   7.845   1.393   3.454
10040TIP3    H230062   7.727   1.298   3.445
10041TIP3   OH230063   5.928   4.276   3.030
10041TIP3    H130064   5.972   4.319   2.957
10041TIP3    H230065   5.886   4.348   3.078
10042TIP3   OH230066   7.428   7.880   4.020
10042TIP3    H130067   7.477   7.903   3.942
10042TIP3    H230068   7.356   7.943   4.022
10043TIP3   OH230069   2.791   5.626   4.688
10043TIP3    H130070   2.719   5.600   4.744
10043TIP3    H230071   2.865   5.637   4.747
10044TIP3   OH230072   5.102   7.040   0.364
10044TIP3    H130073   5.167   7.085   0.418
10044TIP3    H230074   5.019   7.053   0.409
10045TIP3   OH230075   5.667   0.577   3.734
10045TIP3    H130076   5.643   0.622   3.815
10045TIP3    H230077   5.725   0.638   3.689
10046TIP3   OH230078   5.273   2.213   0.025
10046TIP3    H130079   5.296   2.245   0.112
10046TIP3    H230080   5.233   2.288  -0.020
10047TIP3   OH230081   2.991   5.877   5.998
10047TIP3    H130082   3.002   5.830   5.916
10047TIP3    H230083   2.900   5.859   6.023
10048TIP3   OH230084   7.697   4.939   6.536
10048TIP3    H130085   7.757   4.915   6.607
10048TIP3    H230086   7.648   5.013   6.571
10049TIP3   OH230087   4.135   7.709   6.615
10049TIP3    H130088   4.211   7.758   6.648
10049TIP3    H230089   4.085   7.687   6.693
10050TIP3   OH230090   5.324   6.179   6.053
10050TIP3    H130091   5.296   6.172   6.144
10050TIP3    H230092   5.297   6.266   6.026
10051TIP3   OH230093   5.303   3.215   5.927
10051TIP3    H130094   5.223   3.261   5.902
10051TIP3    H230095   5.273   3.139   5.977
10052TIP3   OH230096   1.815   3.750   4.493
10052TIP3    H130097   1.818   3.841   4.464
10052TIP3    H230098   1.804   3.755   4.588
10053TIP3   OH230099   2.459   2.512   4.172
10053TIP3    H130100   2.437   2.524   4.079
10053TIP3    H230101   2.522   2.440   4.172
10054TIP3   OH230102   3.234   4.386  -0.002
10054TIP3    H130103   3.201   4.453   0.059
10054TIP3    H230104   3.242   4.307   0.052
10055TIP3   OH230105   1.520  -0.053   4.954
10055TIP3    H130106   1.525  -0.021   4.864
10055TIP3    H230107   1.529   0.025   5.008
10056TIP3   OH230108   2.570   6.856   6.014
10056TIP3    H130109   2.508   6.925   6.041
10056TIP3    H230110   2.551   6.783   6.072
10057TIP3   OH230111   6.688   4.471   3.659
10057TIP3    H130112   6.762   4.530   3.671
10057TIP3    H230113   6.634   4.484   3.737
10058TIP3   OH230114   1.146   7.723   1.635
10058TIP3    H130115   1.120   7.636   1.605
10058TIP3    H230116   1.174   7.769   1.556
10059TIP3   OH230117   0.077   0.002   1.220
10059TIP3    H130118   0.084   0.036   1.131
10059TIP3    H230119  -0.006  -0.045   1.221
10060TIP3   OH230120   3.347   3.066   0.537
10060TIP3    H130121   3.428   3.093   0.581
10060TIP3    H230122   3.372   2.987   0.489
10061TIP3   OH230123   8.052   0.037   0.274
10061TIP3    H130124   7.961   0.061   0.254
10061TIP3    H230125   8.104   0.108   0.237
10062TIP3   OH230126   2.445   4.487   2.856
10062TIP3    H130127   2.404   4.567   2.825
10062TIP3    H230128   2.377   4.420   2.846
10063TIP3   OH230129   2.258   3.376   6.352
10063TIP3    H130130   2.230   3.409   6.437
10063TIP3    H230131   2.177   3.353   6.307
10064TIP3   OH230132   7.367   1.716   0.073
10064TIP3    H130133   7.301   1.786   0.081
10064TIP3    H230134   7.362   1.669   0.156
10065TIP3   OH230135   2.299   3.821   3.181
10065TIP3    H130136   2.392   3.812   3.161
10065TIP3    H230137   2.256   3.754   3.128
10066TIP3   OH230138   1.209   3.792   5.577
10066TIP3    H130139   1.257   3.797   5.660
10066TIP3    H230140   1.201   3.698   5.559
10067TIP3   OH230141   0.714   4.336   3.810
10067TIP3    H130142   0.727   4.273   3.738
10067TIP3    H230143   0.619   4.344   3.817
10068TIP3   OH230144   7.089   4.798   5.101
10068TIP3    H130145   6.993   4.803   5.101
10068TIP3    H230146   7.109   4.727   5.161
10069TIP3   OH230147   0.428   7.326   2.967
10069TIP3    H130148   0.335   7.302   2.970
10069TIP3    H230149   0.474   7.243   2.969
10070TIP3   OH230150   5.036   5.590   4.506
10070TIP3    H130151   5.043   5.551   4.419
10070TIP3    H230152   5.015   5.682   4.490
10071TIP3   OH230153   1.613   0.391   0.728
10071TIP3    H130154   1.658   0.406   0.811
10071TIP3    H230155   1.682   0.395   0.662
10072TIP3   OH230156   8.153   5.606   2.197
10072TIP3    H130157   8.204   5.526   2.213
10072TIP3    H230158   8.079   5.577   2.144
10073TIP3   OH230159   1.932   3.307   1.269
10073TIP3    H130160   1.892   3.231   1.311
10073TIP3    H230161   1.945   3.370   1.340
10074TIP3   OH230162   3.251   0.027   3.522
10074TIP3    H130163   3.345   0.013   3.533
10074TIP3    H230164   3.239   0.034   3.427
10075TIP3   OH230165   6.637   0.809   3.747
10075TIP3    H130166   6.564   0.824   3.807
10075TIP3    H230167   6.633   0.882   3.686
10076TIP3   OH230168   0.806   4.683   0.412
10076TIP3    H130169   0.795   4.718   0.324
10076TIP3    H230170   0.900   4.681   0.426
10077TIP3   OH230171   1.245   2.632   4.033
10077TIP3    H130172   1.316   2.590   3.984
10077TIP3    H230173   1.209   2.562   4.087
10078TIP3   OH230174   7.210   0.524   5.361
10078TIP3    H130175   7.288   0.550   5.411
10078TIP3    H230176   7.183   0.603   5.315
10079TIP3   OH230177   5.090   3.748   4.656
10079TIP3    H130178   5.101   3.822   4.596
10079TIP3    H230179   5.010   3.704   4.627
10080TIP3   OH230180   1.394   7.584   4.197
10080TIP3    H130181   1.303   7.572   4.226
10080TIP3    H230182   1.390   7.661   4.140
10081TIP3   OH230183   6.977   7.585   6.140
10081TIP3    H130184   6.987   7.508   6.197
10081TIP3    H230185   7.061   7.591   6.094
10082TIP3   OH230186   6.816   2.887   2.466
10082TIP3    H130187   6.825   2.792   2.457
10082TIP3    H230188   6.905   2.921   2.451
10083TIP3   OH230189   1.528   7.586   6.638
10083TIP3    H130190   1.560   7.582   6.729
10083TIP3    H230191   1.530   7.495   6.608
10084TIP3   OH230192   2.371   2.501   0.387
10084TIP3    H130193   2.292   2.546   0.418
10084TIP3    H230194   2.408   2.461   0.466
10085TIP3   OH230195   4.672   1.946   4.440
10085TIP3    H130196   4.695   1.985   4.525
10085TIP3    H230197   4.585   1.981   4.420
10086TIP3   OH230198   6.123   2.250   3.345
10086TIP3    H130199   6.052   2.246   3.282
10086TIP3    H230200   6.121   2.339   3.379
10087TIP3   OH230201   5.106   3.526   3.207
10087TIP3    H130202   5.146   3.608   3.180
10087TIP3    H230203   5.048   3.502   3.135
10088TIP3   OH230204   5.743   0.415   1.113
10088TIP3    H130205   5.799   0.415   1.191
10088TIP3    H230206   5.770   0.338   1.064
10089TIP3   OH230207   7.539   0.104   4.804
10089TIP3    H130208   7.495   0.096   4.720
10089TIP3    H230209   7.632   0.098   4.782
10090TIP3   OH230210   8.380   2.511   0.038
10090TIP3    H130211   8.341   2.440   0.090
10090TIP3    H230212   8.310   2.577   0.033
10091TIP3   OH230213   4.251   2.349   5.131
10091TIP3    H130214   4.237   2.442   5.148
10091TIP3    H230215   4.339   2.344   5.095
10092TIP3   OH230216   7.323   0.862   0.315
10092TIP3    H130217   7.248   0.806   0.297
10092TIP3    H230218   7.393   0.802   0.339
10093TIP3   OH230219   3.758   2.605   5.148
10093TIP3    H130220   3.720   2.627   5.063
10093TIP3    H230221   3.778   2.690   5.187
10094TIP3   OH230222   5.138   3.082   0.554
10094TIP3    H130223   5.064   3.080   0.493
10094TIP3    H230224   5.098   3.067   0.640
10095TIP3   OH230225   4.477   4.081   5.651
10095TIP3    H130226   4.518   4.032   5.722
10095TIP3    H230227   4.469   4.170   5.684
10096TIP3   OH230228   8.299   1.598   1.141
10096TIP3    H130229   8.206   1.589   1.121
10096TIP3    H230230   8.307   1.687   1.176
10097TIP3   OH230231   7.669   5.149   0.057
10097TIP3    H130232   7.587   5.193   0.080
10097TIP3    H230233   7.698   5.192  -0.023
10098TIP3   OH230234   0.268   5.418   4.466
10098TIP3    H130235   0.186   5.463   4.487
10098TIP3    H230236   0.290   5.371   4.547
10099TIP3   OH230237   3.378   7.806   5.426
10099TIP3    H130238   3.371   7.807   5.521
10099TIP3    H230239   3.383   7.898   5.401
10100TIP3   OH230240   1.592   0.791   0.760
10100TIP3    H130241   1.524   0.815   0.822
10100TIP3    H230242   1.672   0.783   0.812
10101TIP3   OH230243   7.654   1.677   6.546
10101TIP3    H130244   7.709   1.717   6.478
10101TIP3    H230245   7.574   1.651   6.501
10102TIP3   OH230246   1.773   0.995   6.841
10102TIP3    H130247   1.868   0.982   6.831
10102TIP3    H230248   1.765   1.049   6.920
10103TIP3   OH230249   4.209   0.711   4.372
10103TIP3    H130250   4.299   0.682   4.384
10103TIP3    H230251   4.162   0.634   4.342
10104TIP3   OH230252   5.916   5.001   1.273
10104TIP3    H130253   5.865   4.920   1.265
10104TIP3    H230254   5.850   5.069   1.284
10105TIP3   OH230255   5.870   7.416   6.658
10105TIP3    H130256   5.880   7.507   6.686
10105TIP3    H230257   5.953   7.375   6.682
10106TIP3   OH230258   8.311   7.595   4.111
10106TIP3    H130259   8.403   7.618   4.104
10106TIP3    H230260   8.278   7.649   4.183
10107TIP3   OH230261   7.665   1.702  -0.007
10107TIP3    H130262   7.679   1.620  -0.055
10107TIP3    H230263   7.570   1.714  -0.006
10108TIP3   OH230264   5.428   7.772   1.188
10108TIP3    H130265   5.456   7.688   1.224
10108TIP3    H230266   5.335   7.762   1.171
10109TIP3   OH230267   3.873   6.544   2.626
10109TIP3    H130268   3.867   6.467   2.682
10109TIP3    H230269   3.922   6.608   2.677
10110TIP3   OH230270   5.712   7.848   3.487
10110TIP3    H130271   5.631   7.889   3.457
10110TIP3    H230272   5.703   7.757   3.461
10111TIP3   OH230273   2.641   2.574   2.772
10111TIP3    H130274   2.562   2.627   2.780
10111TIP3    H230275   2.661   2.573   2.678
10112TIP3   OH230276   1.365   7.407   4.806
10112TIP3    H130277   1.362   7.502   4.798
10112TIP3    H230278   1.426   7.379   4.738
10113TIP3   OH230279   7.901   4.810   3.795
10113TIP3    H130280   7.812   4.840   3.775
10113TIP3    H230281   7.929   4.765   3.716
10114TIP3   OH230282   0.454   5.073   0.640
10114TIP3    H130283   0.419   5.003   0.696
10114TIP3    H230284   0.496   5.027   0.568
10115TIP3   OH230285   5.415   4.442   5.081
10115TIP3    H130286   5.483   4.510   5.083
10115TIP3    H230287   5.338   4.486   5.047
10116TIP3   OH230288   4.960   5.639   6.692
10116TIP3    H130289   4.958   5.691   6.612
10116TIP3    H230290   4.994   5.554   6.665
10117TIP3   OH230291   0.134   5.636   3.618
10117TIP3    H130292   0.178   5.552   3.605
10117TIP3    H230293   0.194   5.700   3.580
10118TIP3   OH230294   6.040   0.814   1.857
10118TIP3    H130295   6.034   0.909   1.850
10118TIP3    H230296   6.047   0.784   1.766
10119TIP3   OH230297   4.604   3.830   1.323
10119TIP3    H130298   4.560   3.775   1.388
10119TIP3    H230299   4.536   3.852   1.259
10120TIP3   OH230300   1.560   2.902   1.974
10120TIP3    H130301   1.628   2.932   2.034
10120TIP3    H230302   1.596   2.823   1.934
10121TIP3   OH230303   6.654   4.383   6.698
10121TIP3    H130304   6.703   4.374   6.616
10121TIP3    H230305   6.689   4.462   6.739
10122TIP3   OH230306   2.867   3.687   1.135
10122TIP3    H130307   2.943   3.745   1.144
10122TIP3    H230308   2.897   3.617   1.076
10123TIP3   OH230309   6.242   7.860   0.496
10123TIP3    H130310   6.190   7.795   0.544
10123TIP3    H230311   6.177   7.913   0.450
10124TIP3   OH230312   3.119   3.639   5.228
10124TIP3    H130313   3.097   3.715   5.281
10124TIP3    H230314   3.174   3.673   5.158
10125TIP3   OH230315   3.729   3.333   5.758
10125TIP3    H130316   3.723   3.428   5.748
10125TIP3    H230317   3.704   3.316   5.849
10126TIP3   OH230318   1.260   2.022   2.886
10126TIP3    H130319   1.245   1.961   2.958
10126TIP3    H230320   1.325   1.978   2.831
10127TIP3   OH230321   1.901   2.530   5.680
10127TIP3    H130322   1.876   2.439   5.694
10127TIP3    H230323   1.819   2.578   5.686
10128TIP3   OH230324   0.665   5.343   1.385
10128TIP3    H130325   0.743   5.397   1.369
10128TIP3    H230326   0.630   5.375   1.468
10129TIP3   OH230327   0.585   1.059   1.317
10129TIP3    H130328   0.675   1.086   1.333
10129TIP3    H230329   0.585   0.964   1.330
10130TIP3   OH230330   1.532   6.340   3.129
10130TIP3    H130331   1.459   6.357   3.188
10130TIP3    H230332   1.605   6.391   3.165
10131TIP3   OH230333   5.645   7.763   1.633
10131TIP3    H130334   5.618   7.836   1.689
10131TIP3    H230335   5.665   7.804   1.549
10132TIP3   OH230336   2.860   5.793   3.576
10132TIP3    H130337   2.861   5.887   3.598
10132TIP3    H230338   2.926   5.784   3.508
10133TIP3   OH230339   0.999   4.022   1.771
10133TIP3    H130340   1.046   3.940   1.787
10133TIP3    H230341   0.913   4.009   1.811
10134TIP3   OH230342   2.555   0.467   1.407
10134TIP3    H130343   2.555   0.455   1.312
10134TIP3    H230344   2.630   0.415   1.437
10135TIP3   OH230345   3.999   1.073   1.398
10135TIP3    H130346   4.003   1.055   1.492
10135TIP3    H230347   3.944   1.003   1.362
10136TIP3   OH230348   4.095   7.852   4.791
10136TIP3    H130349   4.119   7.778   4.736
10136TIP3    H230350   4.047   7.813   4.864
10137TIP3   OH230351   4.459   4.560   4.940
10137TIP3    H130352   4.375   4.559   4.987
10137TIP3    H230353   4.480   4.653   4.930
10138TIP3   OH230354   2.144   4.042   6.501
10138TIP3    H130355   2.231   4.040   6.542
10138TIP3    H230356   2.109   3.954   6.516
10139TIP3   OH230357   3.140   6.636   5.665
10139TIP3    H130358   3.195   6.593   5.731
10139TIP3    H230359   3.053   6.635   5.704
10140TIP3   OH230360   7.892   3.846   1.870
10140TIP3    H130361   7.963   3.802   1.918
10140TIP3    H230362   7.879   3.792   1.792
10141TIP3   OH230363   0.036   5.167   2.795
10141TIP3    H130364   0.118   5.139   2.836
10141TIP3    H230365   0.063   5.223   2.722
10142TIP3   OH230366   8.307   7.050   5.945
10142TIP3    H130367   8.351   6.966   5.938
10142TIP3    H230368   8.377   7.115   5.939
10143TIP3   OH230369   0.835   0.209   6.171
10143TIP3    H130370   0.831   0.113   6.164
10143TIP3    H230371   0.929   0.229   6.168
10144TIP3   OH230372   8.183   3.691   5.591
10144TIP3    H130373   8.235   3.637   5.532
10144TIP3    H230374   8.129   3.744   5.533
10145TIP3   OH230375   0.827   5.926   4.095
10145TIP3    H130376   0.757   5.867   4.069
10145TIP3    H230377   0.850   5.973   4.015
10146TIP3   OH230378   0.497   5.478   0.823
10146TIP3    H130379   0.513   5.553   0.765
10146TIP3    H230380   0.431   5.426   0.778
10147TIP3   OH230381   7.801   0.083   1.229
10147TIP3    H130382   7.739   0.156   1.231
10147TIP3    H230383   7.844   0.085   1.314
10148TIP3   OH230384   5.698   1.661   6.104
10148TIP3    H130385   5.655   1.653   6.019
10148TIP3    H230386   5.626   1.656   6.167
10149TIP3   OH230387   2.912   5.717   6.675
10149TIP3    H130388   2.878   5.758   6.595
10149TIP3    H230389   2.889   5.625   6.666
10150TIP3   OH230390   0.472   0.634   2.890
10150TIP3    H130391   0.555   0.654   2.933
10150TIP3    H230392   0.435   0.720   2.869
10151TIP3   OH230393   4.236   3.340   5.494
10151TIP3    H130394   4.190   3.407   5.545
10151TIP3    H230395   4.222   3.366   5.403
10152TIP3   OH230396   2.737   6.244   2.935
10152TIP3    H130397   2.782   6.304   2.994
10152TIP3    H230398   2.656   6.221   2.982
10153TIP3   OH230399   4.131   4.686   6.364
10153TIP3    H130400   4.153   4.640   6.284
10153TIP3    H230401   4.121   4.778   6.337
10154TIP3   OH230402   2.042   5.450   5.246
10154TIP3    H130403   2.023   5.514   5.177
10154TIP3    H230404   1.999   5.485   5.324
10155TIP3   OH230405   7.501   7.823   4.490
10155TIP3    H130406   7.552   7.900   4.465
10155TIP3    H230407   7.477   7.838   4.582
10156TIP3   OH230408   3.703   3.393   0.655
10156TIP3    H130409   3.735   3.426   0.571
10156TIP3    H230410   3.781   3.361   0.700
10157TIP3   OH230411   5.345   2.094   2.555
10157TIP3    H130412   5.282   2.130   2.493
10157TIP3    H230413   5.296   2.084   2.636
10158TIP3   OH230414   7.184   3.911   3.959
10158TIP3    H130415   7.117   3.868   3.905
10158TIP3    H230416   7.139   3.936   4.039
10159TIP3   OH230417   7.544   3.359   4.001
10159TIP3    H130418   7.476   3.355   3.934
10159TIP3    H230419   7.626   3.350   3.953
10160TIP3   OH230420   3.324   2.902   1.296
10160TIP3    H130421   3.405   2.952   1.309
10160TIP3    H230422   3.348   2.812   1.317
10161TIP3   OH230423   6.670   2.902   5.345
10161TIP3    H130424   6.764   2.886   5.348
10161TIP3    H230425   6.630   2.823   5.380
10162TIP3   OH230426   5.730   5.154   6.450
10162TIP3    H130427   5.640   5.132   6.425
10162TIP3    H230428   5.750   5.234   6.402
10163TIP3   OH230429   2.003   5.226   2.605
10163TIP3    H130430   1.955   5.256   2.682
10163TIP3    H230431   2.015   5.132   2.620
10164TIP3   OH230432   7.072   0.679   3.520
10164TIP3    H130433   7.115   0.700   3.603
10164TIP3    H230434   6.987   0.722   3.525
10165TIP3   OH230435   5.477   1.044   3.359
10165TIP3    H130436   5.418   0.986   3.408
10165TIP3    H230437   5.542   1.071   3.423
10166TIP3   OH230438   5.827   2.829   4.995
10166TIP3    H130439   5.888   2.787   4.934
10166TIP3    H230440   5.872   2.909   5.022
10167TIP3   OH230441   7.705   1.880   1.568
10167TIP3    H130442   7.652   1.930   1.630
10167TIP3    H230443   7.791   1.872   1.610
10168TIP3   OH230444   5.502   4.218   4.446
10168TIP3    H130445   5.502   4.124   4.464
10168TIP3    H230446   5.585   4.234   4.402
10169TIP3   OH230447   5.731   7.264   4.266
10169TIP3    H130448   5.789   7.240   4.193
10169TIP3    H230449   5.685   7.183   4.286
10170TIP3   OH230450   5.162   0.482   2.198
10170TIP3    H130451   5.137   0.567   2.234
10170TIP3    H230452   5.211   0.503   2.118
10171TIP3   OH230453   0.845   0.475   1.717
10171TIP3    H130454   0.823   0.450   1.628
10171TIP3    H230455   0.918   0.417   1.741
10172TIP3   OH230456   2.839   4.401   4.952
10172TIP3    H130457   2.900   4.440   4.889
10172TIP3    H230458   2.773   4.468   4.967
10173TIP3   OH230459   8.331   2.355   1.513
10173TIP3    H130460   8.304   2.263   1.500
10173TIP3    H230461   8.307   2.398   1.431
10174TIP3   OH230462   5.145   0.098   5.481
10174TIP3    H130463   5.180   0.035   5.544
10174TIP3    H230464   5.171   0.063   5.396
10175TIP3   OH230465   4.518   4.121   5.969
10175TIP3    H130466   4.484   4.105   6.057
10175TIP3    H230467   4.596   4.067   5.963
10176TIP3   OH230468   1.109   4.396   3.827
10176TIP3    H130469   1.030   4.432   3.786
10176TIP3    H230470   1.157   4.473   3.857
10177TIP3   OH230471   5.422   7.461   3.495
10177TIP3    H130472   5.406   7.555   3.486
10177TIP3    H230473   5.363   7.433   3.565
10178TIP3   OH230474   3.597   1.260   6.189
10178TIP3    H130475   3.669   1.275   6.128
10178TIP3    H230476   3.520   1.297   6.145
10179TIP3   OH230477   4.280   1.512   3.846
10179TIP3    H130478   4.234   1.574   3.790
10179TIP3    H230479   4.287   1.555   3.931
10180TIP3   OH230480   2.508   4.936   2.169
10180TIP3    H130481   2.463   4.881   2.105
10180TIP3    H230482   2.575   4.879   2.207
10181TIP3   OH230483   0.939   6.147   1.137
10181TIP3    H130484   0.946   6.242   1.125
10181TIP3    H230485   0.891   6.137   1.220
10182TIP3   OH230486   5.469   6.963   1.458
10182TIP3    H130487   5.557   6.932   1.436
10182TIP3    H230488   5.482   7.054   1.484
10183TIP3   OH230489   4.144   6.882   3.969
10183TIP3    H130490   4.216   6.856   4.027
10183TIP3    H230491   4.180   6.871   3.881
10184TIP3   OH230492   7.689   6.165   2.395
10184TIP3    H130493   7.745   6.181   2.319
10184TIP3    H230494   7.666   6.072   2.388
10185TIP3   OH230495   1.459   6.835   1.280
10185TIP3    H130496   1.432   6.926   1.292
10185TIP3    H230497   1.439   6.793   1.364
10186TIP3   OH230498   3.371   0.802   5.588
10186TIP3    H130499   3.339   0.802   5.497
10186TIP3    H230500   3.392   0.894   5.606
10187TIP3   OH230501   8.124   4.257   0.767
10187TIP3    H130502   8.191   4.217   0.711
10187TIP3    H230503   8.043   4.209   0.746
10188TIP3   OH230504   7.267   3.789   4.553
10188TIP3    H130505   7.239   3.719   4.494
10188TIP3    H230506   7.263   3.750   4.641
10189TIP3   OH230507   4.539   0.715   2.318
10189TIP3    H130508   4.511   0.627   2.343
10189TIP3    H230509   4.492   0.733   2.237
10190TIP3   OH230510   5.568   4.164   3.270
10190TIP3    H130511   5.617   4.247   3.262
10190TIP3    H230512   5.607   4.122   3.347
10191TIP3   OH230513   5.280   4.187   2.301
10191TIP3    H130514   5.206   4.241   2.273
10191TIP3    H230515   5.266   4.102   2.259
10192TIP3   OH230516   4.511   0.129   2.900
10192TIP3    H130517   4.552   0.054   2.943
10192TIP3    H230518   4.497   0.100   2.810
10193TIP3   OH230519   3.047   5.743   5.080
10193TIP3    H130520   3.026   5.689   5.004
10193TIP3    H230521   3.130   5.706   5.113
10194TIP3   OH230522   0.591   1.783   1.198
10194TIP3    H130523   0.577   1.832   1.116
10194TIP3    H230524   0.571   1.846   1.267
10195TIP3   OH230525   7.338   6.508   0.702
10195TIP3    H130526   7.275   6.574   0.673
10195TIP3    H230527   7.285   6.429   0.715
10196TIP3   OH230528   4.289   0.939   2.408
10196TIP3    H130529   4.381   0.926   2.384
10196TIP3    H230530   4.241   0.881   2.350
10197TIP3   OH230531   6.141   2.476   5.183
10197TIP3    H130532   6.133   2.534   5.107
10197TIP3    H230533   6.234   2.483   5.208
10198TIP3   OH230534   8.038   1.629   1.108
10198TIP3    H130535   7.996   1.676   1.181
10198TIP3    H230536   7.993   1.545   1.105
10199TIP3   OH230537   6.268   0.946   0.486
10199TIP3    H130538   6.334   0.918   0.550
10199TIP3    H230539   6.191   0.966   0.537
10200TIP3   OH230540   6.052   2.812   2.313
10200TIP3    H130541   6.049   2.908   2.307
10200TIP3    H230542   6.076   2.794   2.403
10201TIP3   OH230543   6.756   7.136   2.206
10201TIP3    H130544   6.680   7.160   2.259
10201TIP3    H230545   6.726   7.143   2.116
10202TIP3   OH230546   4.536   4.940   1.723
10202TIP3    H130547   4.479   5.006   1.683
10202TIP3    H230548   4.567   4.981   1.804
10203TIP3   OH230549   0.196   2.527   0.522
10203TIP3    H130550   0.137   2.492   0.455
10203TIP3    H230551   0.283   2.521   0.483
10204TIP3   OH230552   6.918   7.560   5.626
10204TIP3    H130553   6.831   7.519   5.620
10204TIP3    H230554   6.921   7.596   5.715
10205TIP3   OH230555   6.713   6.496   0.707
10205TIP3    H130556   6.690   6.589   0.713
10205TIP3    H230557   6.705   6.464   0.796
10206TIP3   OH230558   6.785   6.272   1.323
10206TIP3    H130559   6.692   6.291   1.335
10206TIP3    H230560   6.827   6.358   1.326
10207TIP3   OH230561   6.707   1.780   1.256
10207TIP3    H130562   6.634   1.813   1.203
10207TIP3    H230563   6.768   1.853   1.261
10208TIP3   OH230564   2.690   6.698   6.407
10208TIP3    H130565   2.687   6.665   6.497
10208TIP3    H230566   2.749   6.774   6.413
10209TIP3   OH230567   7.110   2.272   4.535
10209TIP3    H130568   7.183   2.266   4.473
10209TIP3    H230569   7.136   2.342   4.595
10210TIP3   OH230570   0.977   3.644   3.035
10210TIP3    H130571   0.941   3.709   3.094
10210TIP3    H230572   0.973   3.685   2.948
10211TIP3   OH230573   7.665   6.700   3.896
10211TIP3    H130574   7.658   6.793   3.917
10211TIP3    H230575   7.698   6.698   3.806
10212TIP3   OH230576   6.186   0.315   2.478
10212TIP3    H130577   6.277   0.343   2.491
10212TIP3    H230578   6.191   0.219   2.480
10213TIP3   OH230579   1.746   3.005   2.118
10213TIP3    H130580   1.729   3.036   2.207
10213TIP3    H230581   1.840   2.989   2.116
10214TIP3   OH230582   6.730   0.216   3.459
10214TIP3    H130583   6.648   0.265   3.464
10214TIP3    H230584   6.707   0.137   3.409
10215TIP3   OH230585   5.149   3.827   1.809
10215TIP3    H130586   5.131   3.754   1.749
10215TIP3    H230587   5.192   3.787   1.884
10216TIP3   OH230588   2.753   5.748   4.185
10216TIP3    H130589   2.738   5.686   4.257
10216TIP3    H230590   2.728   5.833   4.221
10217TIP3   OH230591   0.350   0.530   1.688
10217TIP3    H130592   0.345   0.570   1.774
10217TIP3    H230593   0.440   0.499   1.680
10218TIP3   OH230594   7.332   6.820   1.878
10218TIP3    H130595   7.294   6.807   1.791
10218TIP3    H230596   7.256   6.832   1.935
10219TIP3   OH230597   2.473   6.472   0.446
10219TIP3    H130598   2.472   6.534   0.373
10219TIP3    H230599   2.414   6.402   0.419
10220TIP3   OH230600   5.504   2.066   4.673
10220TIP3    H130601   5.477   2.116   4.596
10220TIP3    H230602   5.522   2.132   4.740
10221TIP3   OH230603   2.905   0.101   1.571
10221TIP3    H130604   2.863   0.062   1.648
10221TIP3    H230605   2.997   0.077   1.580
10222TIP3   OH230606   3.935   2.855   6.021
10222TIP3    H130607   3.988   2.909   5.962
10222TIP3    H230608   3.903   2.916   6.088
10223TIP3   OH230609   4.252   3.750   1.162
10223TIP3    H130610   4.238   3.833   1.209
10223TIP3    H230611   4.300   3.775   1.083
10224TIP3   OH230612   5.493   4.675   4.164
10224TIP3    H130613   5.471   4.650   4.253
10224TIP3    H230614   5.540   4.758   4.173
10225TIP3   OH230615   7.914   2.853   0.063
10225TIP3    H130616   7.839   2.797   0.084
10225TIP3    H230617   7.926   2.907   0.141
10226TIP3   OH230618   5.662   4.127   0.619
10226TIP3    H130619   5.617   4.143   0.536
10226TIP3    H230620   5.650   4.208   0.669
10227TIP3   OH230621   3.366   2.345   3.284
10227TIP3    H130622   3.409   2.431   3.282
10227TIP3    H230623   3.329   2.340   3.372
10228TIP3   OH230624   4.858   6.264   3.050
10228TIP3    H130625   4.767   6.237   3.051
10228TIP3    H230626   4.864   6.327   2.977
10229TIP3   OH230627   0.016   1.099   5.894
10229TIP3    H130628  -0.010   1.191   5.898
10229TIP3    H230629   0.082   1.096   5.825
10230TIP3   OH230630   0.806   6.349   3.685
10230TIP3    H130631   0.823   6.392   3.768
10230TIP3    H230632   0.879   6.376   3.629
10231TIP3   OH230633   6.275   2.007   3.041
10231TIP3    H130634   6.213   1.936   3.020
10231TIP3    H230635   6.304   1.987   3.130
10232TIP3   OH230636   3.404   1.860   4.298
10232TIP3    H130637   3.380   1.845   4.206
10232TIP3    H230638   3.469   1.792   4.317
10233TIP3   OH230639   1.677   0.664   5.778
10233TIP3    H130640   1.659   0.758   5.783
10233TIP3    H230641   1.676   0.634   5.869
10234TIP3   OH230642   7.841   0.213   5.539
10234TIP3    H130643   7.756   0.217   5.584
10234TIP3    H230644   7.830   0.269   5.463
10235TIP3   OH230645   1.068   6.758   5.128
10235TIP3    H130646   1.101   6.668   5.126
10235TIP3    H230647   1.140   6.809   5.165
10236TIP3   OH230648   7.567   7.284   0.713
10236TIP3    H130649   7.512   7.328   0.778
10236TIP3    H230650   7.619   7.354   0.675
10237TIP3   OH230651   3.828   5.460   5.408
10237TIP3    H130652   3.873   5.421   5.484
10237TIP3    H230653   3.866   5.547   5.399
10238TIP3   OH230654   6.079   7.632   5.765
10238TIP3    H130655   6.028   7.581   5.702
10238TIP3    H230656   6.117   7.566   5.823
10239TIP3   OH230657   7.224   0.427   3.933
10239TIP3    H130658   7.254   0.350   3.886
10239TIP3    H230659   7.273   0.500   3.893
10240TIP3   OH230660   0.416   3.160   0.654
10240TIP3    H130661   0.397   3.122   0.739
10240TIP3    H230662   0.358   3.237   0.649
10241TIP3   OH230663   3.323   7.433   6.702
10241TIP3    H130664   3.257   7.460   6.638
10241TIP3    H230665   3.401   7.415   6.650
10242TIP3   OH230666   0.729   0.685   6.081
10242TIP3    H130667   0.685   0.718   6.003
10242TIP3    H230668   0.777   0.760   6.116
10243TIP3   OH230669   6.611   3.097   5.148
10243TIP3    H130670   6.618   3.046   5.229
10243TIP3    H230671   6.700   3.102   5.115
10244TIP3   OH230672   2.980   0.683   2.701
10244TIP3    H130673   3.030   0.730   2.634
10244TIP3    H230674   3.047   0.653   2.763
10245TIP3   OH230675   2.946   0.363   5.126
10245TIP3    H130676   2.977   0.276   5.102
10245TIP3    H230677   2.857   0.368   5.089
10246TIP3   OH230678   3.490   4.158   6.330
10246TIP3    H130679   3.565   4.171   6.388
10246TIP3    H230680   3.422   4.216   6.366
10247TIP3   OH230681   3.302   6.873   1.927
10247TIP3    H130682   3.254   6.896   2.006
10247TIP3    H230683   3.246   6.810   1.882
10248TIP3   OH230684   5.660   0.401   1.817
10248TIP3    H130685   5.708   0.484   1.813
10248TIP3    H230686   5.581   0.417   1.764
10249TIP3   OH230687   6.758   3.656   1.213
10249TIP3    H130688   6.733   3.748   1.227
10249TIP3    H230689   6.675   3.611   1.198
10250TIP3   OH230690   4.837   5.457   6.057
10250TIP3    H130691   4.778   5.391   6.095
10250TIP3    H230692   4.869   5.417   5.977
10251TIP3   OH230693   4.523   1.975   0.684
10251TIP3    H130694   4.434   1.961   0.649
10251TIP3    H230695   4.545   2.064   0.657
10252TIP3   OH230696   5.610   1.085   0.110
10252TIP3    H130697   5.653   1.058   0.029
10252TIP3    H230698   5.677   1.073   0.178
10253TIP3   OH230699   5.182   1.047   0.779
10253TIP3    H130700   5.103   0.995   0.766
10253TIP3    H230701   5.254   0.990   0.753
10254TIP3   OH230702   5.941   1.062   1.859
10254TIP3    H130703   5.857   1.090   1.822
10254TIP3    H230704   6.005   1.121   1.820
10255TIP3   OH230705   7.494   0.312   5.591
10255TIP3    H130706   7.468   0.226   5.557
10255TIP3    H230707   7.465   0.311   5.682
10256TIP3   OH230708   7.526   6.954   1.295
10256TIP3    H130709   7.502   7.030   1.243
10256TIP3    H230710   7.559   6.990   1.377
10257TIP3   OH230711   0.933   4.745   5.268
10257TIP3    H130712   0.946   4.794   5.350
10257TIP3    H230713   0.871   4.799   5.218
10258TIP3   OH230714   5.950   0.502   1.518
10258TIP3    H130715   5.886   0.432   1.505
10258TIP3    H230716   5.898   0.576   1.550
10259TIP3   OH230717   8.076   6.410   4.505
10259TIP3    H130718   8.145   6.462   4.545
10259TIP3    H230719   8.122   6.337   4.463
10260TIP3   OH230720   4.479   6.446   4.403
10260TIP3    H130721   4.417   6.463   4.474
10260TIP3    H230722   4.462   6.515   4.339
10261TIP3   OH230723   5.649   5.585   0.429
10261TIP3    H130724   5.606   5.661   0.466
10261TIP3    H230725   5.734   5.581   0.473
10262TIP3   OH230726   6.281   1.602   0.920
10262TIP3    H130727   6.351   1.538   0.914
10262TIP3    H230728   6.201   1.550   0.925
10263TIP3   OH230729   1.126   4.053   1.178
10263TIP3    H130730   1.065   4.007   1.120
10263TIP3    H230731   1.159   4.126   1.126
10264TIP3   OH230732   1.046   6.505   1.421
10264TIP3    H130733   1.099   6.428   1.404
10264TIP3    H230734   1.096   6.578   1.384
10265TIP3   OH230735   2.271   3.243   2.855
10265TIP3    H130736   2.355   3.196   2.849
10265TIP3    H230737   2.207   3.183   2.818
10266TIP3   OH230738   5.874   6.387   6.705
10266TIP3    H130739   5.954   6.385   6.758
10266TIP3    H230740   5.830   6.305   6.725
10267TIP3   OH230741   7.625   2.172   5.922
10267TIP3    H130742   7.543   2.127   5.901
10267TIP3    H230743   7.605   2.224   5.999
10268TIP3   OH230744   1.183   0.638   1.557
10268TIP3    H130745   1.212   0.640   1.466
10268TIP3    H230746   1.120   0.566   1.560
10269TIP3   OH230747   0.703   4.666   1.641
10269TIP3    H130748   0.692   4.626   1.555
10269TIP3    H230749   0.796   4.652   1.662
10270TIP3   OH230750   3.425   1.303   3.290
10270TIP3    H130751   3.368   1.305   3.213
10270TIP3    H230752   3.511   1.329   3.256
10271TIP3   OH230753   8.058   4.734   5.266
10271TIP3    H130754   7.988   4.672   5.246
10271TIP3    H230755   8.129   4.709   5.207
10272TIP3   OH230756   5.894   3.746   6.102
10272TIP3    H130757   5.949   3.824   6.106
10272TIP3    H230758   5.807   3.778   6.081
10273TIP3   OH230759   3.568   4.870   3.794
10273TIP3    H130760   3.567   4.777   3.769
10273TIP3    H230761   3.659   4.886   3.822
10274TIP3   OH230762   5.891   1.399   6.600
10274TIP3    H130763   5.921   1.422   6.688
10274TIP3    H230764   5.859   1.309   6.609
10275TIP3   OH230765   8.159   2.305   0.543
10275TIP3    H130766   8.079   2.262   0.512
10275TIP3    H230767   8.220   2.300   0.469
10276TIP3   OH230768   3.843   4.845   3.864
10276TIP3    H130769   3.901   4.797   3.805
10276TIP3    H230770   3.855   4.803   3.949
10277TIP3   OH230771   4.682   4.444   3.193
10277TIP3    H130772   4.751   4.508   3.178
10277TIP3    H230773   4.701   4.374   3.131
10278TIP3   OH230774   0.579   4.044   4.360
10278TIP3    H130775   0.550   4.132   4.336
10278TIP3    H230776   0.674   4.045   4.345
10279TIP3   OH230777   1.012   0.353   4.217
10279TIP3    H130778   1.051   0.318   4.137
10279TIP3    H230779   0.969   0.434   4.190
10280TIP3   OH230780   3.858   4.557   3.532
10280TIP3    H130781   3.924   4.492   3.557
10280TIP3    H230782   3.786   4.505   3.496
10281TIP3   OH230783   6.361   6.694   1.011
10281TIP3    H130784   6.327   6.689   0.922
10281TIP3    H230785   6.451   6.663   1.004
10282TIP3   OH230786   3.341   0.715   1.418
10282TIP3    H130787   3.362   0.806   1.435
10282TIP3    H230788   3.424   0.668   1.429
10283TIP3   OH230789   6.384   6.615   1.909
10283TIP3    H130790   6.299   6.572   1.906
10283TIP3    H230791   6.366   6.704   1.878
10284TIP3   OH230792   7.388   4.719   2.693
10284TIP3    H130793   7.394   4.798   2.638
10284TIP3    H230794   7.294   4.705   2.704
10285TIP3   OH230795   2.658   5.613   2.251
10285TIP3    H130796   2.596   5.608   2.324
10285TIP3    H230797   2.675   5.707   2.241
10286TIP3   OH230798   5.418   5.052   3.829
10286TIP3    H130799   5.400   5.137   3.870
10286TIP3    H230800   5.511   5.038   3.842
10287TIP3   OH230801   7.709   4.570   5.448
10287TIP3    H130802   7.699   4.476   5.467
10287TIP3    H230803   7.720   4.573   5.353
10288TIP3   OH230804   2.675   2.679   5.553
10288TIP3    H130805   2.758   2.649   5.590
10288TIP3    H230806   2.685   2.774   5.545
10289TIP3   OH230807   7.627   3.035   0.060
10289TIP3    H130808   7.537   3.049   0.089
10289TIP3    H230809   7.675   3.013   0.140
10290TIP3   OH230810   5.280   3.189   2.402
10290TIP3    H130811   5.336   3.216   2.475
10290TIP3    H230812   5.261   3.270   2.355
10291TIP3   OH230813   7.861   2.585   0.567
10291TIP3    H130814   7.860   2.519   0.636
10291TIP3    H230815   7.934   2.643   0.589
10292TIP3   OH230816   8.111   3.020   5.678
10292TIP3    H130817   8.177   3.037   5.745
10292TIP3    H230818   8.161   3.011   5.597
10293TIP3   OH230819   5.598   2.166   2.441
10293TIP3    H130820   5.513   2.123   2.454
10293TIP3    H230821   5.650   2.139   2.516
10294TIP3   OH230822   1.605   5.666   1.837
10294TIP3    H130823   1.663   5.723   1.887
10294TIP3    H230824   1.531   5.722   1.813
10295TIP3   OH230825   3.889   3.762   2.408
10295TIP3    H130826   3.873   3.761   2.502
10295TIP3    H230827   3.923   3.850   2.391
10296TIP3   OH230828   6.358   6.709   3.199
10296TIP3    H130829   6.390   6.790   3.238
10296TIP3    H230830   6.268   6.728   3.173
10297TIP3   OH230831   4.467   1.930   2.067
10297TIP3    H130832   4.511   1.848   2.089
10297TIP3    H230833   4.418   1.952   2.147
10298TIP3   OH230834   8.334   5.395   6.186
10298TIP3    H130835   8.281   5.408   6.107
10298TIP3    H230836   8.395   5.325   6.162
10299TIP3   OH230837   4.530   2.839   3.068
10299TIP3    H130838   4.436   2.839   3.053
10299TIP3    H230839   4.557   2.930   3.053
10300TIP3   OH230840   0.100   1.779   5.315
10300TIP3    H130841   0.053   1.704   5.351
10300TIP3    H230842   0.051   1.855   5.346
10301TIP3   OH230843   5.833   7.506   2.934
10301TIP3    H130844   5.918   7.547   2.919
10301TIP3    H230845   5.821   7.446   2.861
10302TIP3   OH230846   5.491   1.987   3.341
10302TIP3    H130847   5.421   1.970   3.404
10302TIP3    H230848   5.499   2.082   3.340
10303TIP3   OH230849   7.881   7.576   1.348
10303TIP3    H130850   7.899   7.642   1.414
10303TIP3    H230851   7.965   7.558   1.307
10304TIP3   OH230852   5.029   2.034   6.707
10304TIP3    H130853   4.994   2.112   6.664
10304TIP3    H230854   5.123   2.046   6.707
10305TIP3   OH230855   1.304   3.857   3.169
10305TIP3    H130856   1.249   3.865   3.092
10305TIP3    H230857   1.246   3.878   3.243
10306TIP3   OH230858   2.285   4.939   3.359
10306TIP3    H130859   2.311   4.913   3.270
10306TIP3    H230860   2.368   4.959   3.403
10307TIP3   OH230861   1.286   0.439   4.517
10307TIP3    H130862   1.215   0.499   4.493
10307TIP3    H230863   1.247   0.380   4.582
10308TIP3   OH230864   3.838   3.349   5.282
10308TIP3    H130865   3.832   3.318   5.373
10308TIP3    H230866   3.916   3.406   5.281
10309TIP3   OH230867   4.297   7.262   6.760
10309TIP3    H130868   4.238   7.217   6.820
10309TIP3    H230869   4.240   7.295   6.690
10310TIP3   OH230870   0.500   3.506   3.197
10310TIP3    H130871   0.543   3.441   3.252
10310TIP3    H230872   0.571   3.551   3.151
10311TIP3   OH230873   6.322   5.869   6.063
10311TIP3    H130874   6.299   5.776   6.060
10311TIP3    H230875   6.417   5.870   6.052
10312TIP3   OH230876   2.232   1.244   5.923
10312TIP3    H130877   2.239   1.211   5.833
10312TIP3    H230878   2.148   1.210   5.954
10313TIP3   OH230879   5.831   0.618   1.958
10313TIP3    H130880   5.741   0.647   1.975
10313TIP3    H230881   5.877   0.698   1.930
10314TIP3   OH230882   5.484   1.798   2.474
10314TIP3    H130883   5.459   1.778   2.383
10314TIP3    H230884   5.428   1.871   2.499
10315TIP3   OH230885   6.109   6.517   4.777
10315TIP3    H130886   6.021   6.519   4.740
10315TIP3    H230887   6.163   6.480   4.708
10316TIP3   OH230888   4.139   1.278   5.774
10316TIP3    H130889   4.142   1.284   5.678
10316TIP3    H230890   4.198   1.205   5.795
10317TIP3   OH230891   8.303   5.447   1.311
10317TIP3    H130892   8.314   5.421   1.220
10317TIP3    H230893   8.372   5.511   1.327
10318TIP3   OH230894   5.597   5.683   3.424
10318TIP3    H130895   5.538   5.675   3.498
10318TIP3    H230896   5.570   5.614   3.363
10319TIP3   OH230897   6.237   5.344   4.855
10319TIP3    H130898   6.243   5.397   4.934
10319TIP3    H230899   6.327   5.316   4.838
10320TIP3   OH230900   7.867   7.181   0.762
10320TIP3    H130901   7.833   7.203   0.849
10320TIP3    H230902   7.795   7.203   0.702
10321TIP3   OH230903   4.785   6.243   6.185
10321TIP3    H130904   4.765   6.277   6.272
10321TIP3    H230905   4.708   6.192   6.160
10322TIP3   OH230906   2.067   0.594   4.575
10322TIP3    H130907   1.992   0.594   4.516
10322TIP3    H230908   2.137   0.553   4.524
10323TIP3   OH230909   2.231   5.399   2.682
10323TIP3    H130910   2.265   5.398   2.592
10323TIP3    H230911   2.140   5.372   2.673
10324TIP3   OH230912   5.336   5.715   2.490
10324TIP3    H130913   5.379   5.762   2.561
10324TIP3    H230914   5.372   5.626   2.496
10325TIP3   OH230915   2.528   1.689   4.848
10325TIP3    H130916   2.501   1.648   4.930
10325TIP3    H230917   2.603   1.743   4.872
10326TIP3   OH230918   2.975   6.524   4.473
10326TIP3    H130919   3.020   6.527   4.558
10326TIP3    H230920   3.044   6.545   4.409
10327TIP3   OH230921   6.560   5.916   0.754
10327TIP3    H130922   6.618   5.876   0.690
10327TIP3    H230923   6.551   5.851   0.823
10328TIP3   OH230924   0.368   7.429   0.067
10328TIP3    H130925   0.403   7.493   0.005
10328TIP3    H230926   0.349   7.481   0.146
10329TIP3   OH230927   6.300   1.860   0.803
10329TIP3    H130928   6.247   1.911   0.864
10329TIP3    H230929   6.284   1.769   0.827
10330TIP3   OH230930   2.096   7.144   2.079
10330TIP3    H130931   2.086   7.238   2.062
10330TIP3    H230932   2.186   7.134   2.108
10331TIP3   OH230933   6.013   1.029   0.565
10331TIP3    H130934   6.010   1.119   0.597
10331TIP3    H230935   5.978   0.977   0.638
10332TIP3   OH230936   4.709   0.777   0.630
10332TIP3    H130937   4.776   0.766   0.563
10332TIP3    H230938   4.757   0.774   0.713
10333TIP3   OH230939   8.015   5.275   0.114
10333TIP3    H130940   8.018   5.234   0.200
10333TIP3    H230941   7.994   5.367   0.132
10334TIP3   OH230942   0.399   4.902   0.064
10334TIP3    H130943   0.411   4.809   0.050
10334TIP3    H230944   0.452   4.923   0.141
10335TIP3   OH230945   5.618   7.104   2.775
10335TIP3    H130946   5.661   7.189   2.767
10335TIP3    H230947   5.546   7.119   2.835
10336TIP3   OH230948   4.361   3.129   1.412
10336TIP3    H130949   4.404   3.200   1.364
10336TIP3    H230950   4.399   3.134   1.500
10337TIP3   OH230951   7.044   1.890   3.242
10337TIP3    H130952   7.014   1.907   3.332
10337TIP3    H230953   6.978   1.933   3.187
10338TIP3   OH230954   0.952   7.213   3.795
10338TIP3    H130955   0.996   7.147   3.848
10338TIP3    H230956   0.946   7.290   3.852
10339TIP3   OH230957   2.131   1.761   1.523
10339TIP3    H130958   2.038   1.739   1.526
10339TIP3    H230959   2.174   1.697   1.579
10340TIP3   OH230960   0.220   7.150   1.613
10340TIP3    H130961   0.150   7.087   1.601
10340TIP3    H230962   0.196   7.224   1.557
10341TIP3   OH230963   3.413   1.582   1.401
10341TIP3    H130964   3.491   1.578   1.456
10341TIP3    H230965   3.348   1.531   1.448
10342TIP3   OH230966   3.913   6.995   5.083
10342TIP3    H130967   3.904   7.051   5.160
10342TIP3    H230968   3.910   6.906   5.118
10343TIP3   OH230969   4.305   5.661   4.272
10343TIP3    H130970   4.399   5.672   4.259
10343TIP3    H230971   4.296   5.573   4.309
10344TIP3   OH230972   2.163   3.531   2.273
10344TIP3    H130973   2.129   3.528   2.184
10344TIP3    H230974   2.215   3.612   2.277
10345TIP3   OH230975   5.028   0.265   6.734
10345TIP3    H130976   5.016   0.349   6.780
10345TIP3    H230977   5.119   0.241   6.753
10346TIP3   OH230978   4.359   7.884   3.714
10346TIP3    H130979   4.422   7.924   3.654
10346TIP3    H230980   4.412   7.844   3.782
10347TIP3   OH230981   6.971   5.262   2.972
10347TIP3    H130982   6.946   5.195   2.908
10347TIP3    H230983   7.067   5.261   2.970
10348TIP3   OH230984   6.000   3.196   2.588
10348TIP3    H130985   5.952   3.279   2.593
10348TIP3    H230986   6.065   3.202   2.658
10349TIP3   OH230987   5.558   5.437   1.630
10349TIP3    H130988   5.574   5.366   1.567
10349TIP3    H230989   5.617   5.507   1.603
10350TIP3   OH230990   0.384   7.003   6.439
10350TIP3    H130991   0.388   6.913   6.407
10350TIP3    H230992   0.464   7.043   6.407
10351TIP3   OH230993   3.513   7.565   0.341
10351TIP3    H130994   3.585   7.507   0.317
10351TIP3    H230995   3.435   7.512   0.331
10352TIP3   OH230996   2.906   0.306   4.780
10352TIP3    H130997   2.850   0.285   4.855
10352TIP3    H230998   2.895   0.401   4.768
10353TIP3   OH230999   7.243   2.929   4.211
10353TIP3    H131000   7.264   2.872   4.284
10353TIP3    H231001   7.325   2.972   4.189
10354TIP3   OH231002   7.069   5.680   5.986
10354TIP3    H131003   7.090   5.592   6.017
10354TIP3    H231004   7.091   5.737   6.060
10355TIP3   OH231005   6.493   1.094   1.572
10355TIP3    H131006   6.534   1.011   1.548
10355TIP3    H231007   6.522   1.111   1.662
10356TIP3   OH231008   3.143   3.037   6.095
10356TIP3    H131009   3.194   2.992   6.027
10356TIP3    H231010   3.069   2.978   6.112
10357TIP3   OH231011   7.608   1.472   5.545
10357TIP3    H131012   7.687   1.431   5.510
10357TIP3    H231013   7.637   1.516   5.626
10358TIP3   OH231014   5.319   6.841   0.317
10358TIP3    H131015   5.247   6.896   0.286
10358TIP3    H231016   5.366   6.816   0.237
10359TIP3   OH231017   5.060   7.294   1.028
10359TIP3    H131018   5.046   7.387   1.012
10359TIP3    H231019   5.144   7.289   1.072
10360TIP3   OH231020   8.086   5.911   4.864
10360TIP3    H131021   8.170   5.890   4.824
10360TIP3    H231022   8.072   5.841   4.929
10361TIP3   OH231023   2.629   2.302   6.850
10361TIP3    H131024   2.556   2.278   6.908
10361TIP3    H231025   2.608   2.259   6.767
10362TIP3   OH231026   4.450   7.715   4.676
10362TIP3    H131027   4.357   7.695   4.680
10362TIP3    H231028   4.467   7.767   4.754
10363TIP3   OH231029   1.148   7.684   5.823
10363TIP3    H131030   1.159   7.762   5.879
10363TIP3    H231031   1.069   7.641   5.858
10364TIP3   OH231032   2.039   6.301   0.900
10364TIP3    H131033   2.113   6.348   0.937
10364TIP3    H231034   2.078   6.223   0.860
10365TIP3   OH231035   8.268   2.335   3.745
10365TIP3    H131036   8.291   2.245   3.721
10365TIP3    H231037   8.257   2.380   3.662
10366TIP3   OH231038   2.616   7.027   2.298
10366TIP3    H131039   2.620   7.098   2.233
10366TIP3    H231040   2.540   7.048   2.352
10367TIP3   OH231041   0.336   2.277   0.899
10367TIP3    H131042   0.308   2.365   0.877
10367TIP3    H231043   0.312   2.224   0.823
10368TIP3   OH231044   2.826   2.063   5.165
10368TIP3    H131045   2.777   1.997   5.212
10368TIP3    H231046   2.763   2.132   5.145
10369TIP3   OH231047   3.414   5.114   5.090
10369TIP3    H131048   3.479   5.176   5.122
10369TIP3    H231049   3.334   5.137   5.138
10370TIP3   OH231050   1.893   1.022   5.260
10370TIP3    H131051   1.826   0.968   5.218
10370TIP3    H231052   1.927   0.967   5.331
10371TIP3   OH231053   7.859   6.551   4.479
10371TIP3    H131054   7.943   6.505   4.484
10371TIP3    H231055   7.882   6.643   4.466
10372TIP3   OH231056   4.928   1.283   2.545
10372TIP3    H131057   4.900   1.224   2.474
10372TIP3    H231058   4.968   1.225   2.609
10373TIP3   OH231059   7.884   4.858   4.477
10373TIP3    H131060   7.953   4.821   4.422
10373TIP3    H231061   7.814   4.792   4.475
10374TIP3   OH231062   0.327   4.588   4.900
10374TIP3    H131063   0.418   4.568   4.876
10374TIP3    H231064   0.289   4.625   4.820
10375TIP3   OH231065   4.630   5.426   0.819
10375TIP3    H131066   4.563   5.490   0.844
10375TIP3    H231067   4.607   5.401   0.729
10376TIP3   OH231068   0.784   5.001   2.296
10376TIP3    H131069   0.792   5.064   2.367
10376TIP3    H231070   0.764   4.918   2.340
10377TIP3   OH231071   5.237   5.376   5.590
10377TIP3    H131072   5.331   5.388   5.577
10377TIP3    H231073   5.205   5.339   5.507
10378TIP3   OH231074   6.293   7.068   2.360
10378TIP3    H131075   6.310   7.046   2.269
10378TIP3    H231076   6.312   6.987   2.408
10379TIP3   OH231077   5.251   6.439   3.645
10379TIP3    H131078   5.292   6.525   3.643
10379TIP3    H231079   5.319   6.379   3.615
10380TIP3   OH231080   6.761   5.252   5.315
10380TIP3    H131081   6.697   5.304   5.267
10380TIP3    H231082   6.726   5.247   5.404
10381TIP3   OH231083   6.026   4.901   2.065
10381TIP3    H131084   6.019   4.980   2.118
10381TIP3    H231085   6.060   4.932   1.981
10382TIP3   OH231086   0.638   2.155   5.782
10382TIP3    H131087   0.627   2.196   5.868
10382TIP3    H231088   0.555   2.169   5.738
10383TIP3   OH231089   4.296   4.198   2.403
10383TIP3    H131090   4.276   4.261   2.333
10383TIP3    H231091   4.256   4.235   2.481
10384TIP3   OH231092   2.177   5.294   0.062
10384TIP3    H131093   2.245   5.359   0.047
10384TIP3    H231094   2.104   5.322   0.006
10385TIP3   OH231095   3.260   1.223   2.570
10385TIP3    H131096   3.209   1.301   2.547
10385TIP3    H231097   3.196   1.162   2.606
10386TIP3   OH231098   1.617   0.759   0.485
10386TIP3    H131099   1.592   0.748   0.576
10386TIP3    H231100   1.684   0.828   0.487
10387TIP3   OH231101   1.149   0.745   1.258
10387TIP3    H131102   1.090   0.808   1.299
10387TIP3    H231103   1.220   0.798   1.222
10388TIP3   OH231104   7.082   2.662   2.560
10388TIP3    H131105   7.156   2.676   2.501
10388TIP3    H231106   7.100   2.719   2.634
10389TIP3   OH231107   6.973   4.633   4.471
10389TIP3    H131108   6.962   4.542   4.441
10389TIP3    H231109   7.001   4.625   4.562
10390TIP3   OH231110   2.497   2.325   0.210
10390TIP3    H131111   2.454   2.403   0.244
10390TIP3    H231112   2.514   2.270   0.286
10391TIP3   OH231113   2.961   7.157   2.774
10391TIP3    H131114   2.927   7.151   2.685
10391TIP3    H231115   3.056   7.158   2.763
10392TIP3   OH231116   3.901   0.660   5.714
10392TIP3    H131117   3.974   0.599   5.724
10392TIP3    H231118   3.901   0.684   5.621
10393TIP3   OH231119   2.042   0.356   2.756
10393TIP3    H131120   2.128   0.316   2.747
10393TIP3    H231121   2.030   0.404   2.674
10394TIP3   OH231122   6.244   3.838   1.190
10394TIP3    H131123   6.236   3.744   1.172
10394TIP3    H231124   6.281   3.875   1.110
10395TIP3   OH231125   4.461   1.874   6.136
10395TIP3    H131126   4.549   1.851   6.106
10395TIP3    H231127   4.431   1.940   6.074
10396TIP3   OH231128   7.848   1.809   5.239
10396TIP3    H131129   7.938   1.804   5.270
10396TIP3    H231130   7.831   1.723   5.200
10397TIP3   OH231131   1.061   2.862   1.407
10397TIP3    H131132   1.143   2.813   1.402
10397TIP3    H231133   1.057   2.912   1.326
10398TIP3   OH231134   2.701   4.174   4.795
10398TIP3    H131135   2.762   4.230   4.842
10398TIP3    H231136   2.647   4.134   4.864
10399TIP3   OH231137   5.298   7.039   4.622
10399TIP3    H131138   5.309   7.130   4.593
10399TIP3    H231139   5.356   6.989   4.564
10400TIP3   OH231140   8.256   4.762   3.906
10400TIP3    H131141   8.186   4.719   3.956
10400TIP3    H231142   8.303   4.690   3.864
10401TIP3   OH231143   4.982   3.959   2.577
10401TIP3    H131144   5.009   3.986   2.665
10401TIP3    H231145   4.952   3.869   2.589
10402TIP3   OH231146   3.314   5.761   6.449
10402TIP3    H131147   3.262   5.773   6.369
10402TIP3    H231148   3.343   5.670   6.444
10403TIP3   OH231149   0.806   0.086   4.774
10403TIP3    H131150   0.829   0.004   4.730
10403TIP3    H231151   0.875   0.099   4.839
10404TIP3   OH231152   8.381   4.782   6.226
10404TIP3    H131153   8.420   4.749   6.145
10404TIP3    H231154   8.299   4.823   6.198
10405TIP3   OH231155   1.379   3.504   0.806
10405TIP3    H131156   1.303   3.484   0.860
10405TIP3    H231157   1.353   3.582   0.757
10406TIP3   OH231158   0.605   6.280   4.279
10406TIP3    H131159   0.556   6.206   4.314
10406TIP3    H231160   0.646   6.321   4.356
10407TIP3   OH231161   3.315   3.013   1.836
10407TIP3    H131162   3.320   3.107   1.853
10407TIP3    H231163   3.386   2.975   1.888
10408TIP3   OH231164   6.340   4.404   2.126
10408TIP3    H131165   6.288   4.429   2.203
10408TIP3    H231166   6.314   4.467   2.059
10409TIP3   OH231167   1.924   4.547   0.344
10409TIP3    H131168   1.948   4.611   0.411
10409TIP3    H231169   1.867   4.485   0.390
10410TIP3   OH231170   5.992   5.081   1.843
10410TIP3    H131171   6.079   5.090   1.881
10410TIP3    H231172   5.965   5.172   1.825
10411TIP3   OH231173   7.644   4.401   4.283
10411TIP3    H131174   7.592   4.380   4.205
10411TIP3    H231175   7.597   4.361   4.355
10412TIP3   OH231176   2.227   0.035   5.943
10412TIP3    H131177   2.236   0.115   5.892
10412TIP3    H231178   2.213   0.066   6.033
10413TIP3   OH231179   8.185   0.090   3.703
10413TIP3    H131180   8.280   0.102   3.699
10413TIP3    H231181   8.151   0.178   3.720
10414TIP3   OH231182   2.304   1.248   2.300
10414TIP3    H131183   2.215   1.268   2.327
10414TIP3    H231184   2.346   1.212   2.378
10415TIP3   OH231185   1.324   3.635   4.750
10415TIP3    H131186   1.409   3.596   4.769
10415TIP3    H231187   1.260   3.567   4.773
10416TIP3   OH231188   6.075   0.015   4.703
10416TIP3    H131189   6.057  -0.024   4.789
10416TIP3    H231190   6.039   0.103   4.708
10417TIP3   OH231191   5.807   3.959   4.353
10417TIP3    H131192   5.783   4.048   4.327
10417TIP3    H231193   5.880   3.971   4.414
10418TIP3   OH231194   1.393   4.863   5.910
10418TIP3    H131195   1.316   4.850   5.855
10418TIP3    H231196   1.448   4.786   5.894
10419TIP3   OH231197   5.724   4.492   4.139
10419TIP3    H131198   5.706   4.446   4.057
10419TIP3    H231199   5.652   4.554   4.148
10420TIP3   OH231200   7.553   5.554   6.578
10420TIP3    H131201   7.572   5.515   6.663
10420TIP3    H231202   7.501   5.632   6.597
10421TIP3   OH231203   0.299   3.400   2.377
10421TIP3    H131204   0.235   3.357   2.320
10421TIP3    H231205   0.373   3.420   2.319
10422TIP3   OH231206   7.593   0.396   5.126
10422TIP3    H131207   7.554   0.310   5.140
10422TIP3    H231208   7.673   0.394   5.179
10423TIP3   OH231209   2.557   3.377   0.777
10423TIP3    H131210   2.589   3.303   0.829
10423TIP3    H231211   2.636   3.422   0.749
10424TIP3   OH231212   5.585   2.324   4.809
10424TIP3    H131213   5.634   2.302   4.888
10424TIP3    H231214   5.523   2.391   4.838
10425TIP3   OH231215   5.326   3.063   5.423
10425TIP3    H131216   5.385   3.015   5.365
10425TIP3    H231217   5.342   3.155   5.403
10426TIP3   OH231218   7.193   4.286   2.946
10426TIP3    H131219   7.150   4.231   2.881
10426TIP3    H231220   7.274   4.240   2.967
10427TIP3   OH231221   0.192   6.232   2.198
10427TIP3    H131222   0.200   6.138   2.187
10427TIP3    H231223   0.157   6.243   2.287
10428TIP3   OH231224   1.452   4.338   6.375
10428TIP3    H131225   1.433   4.319   6.284
10428TIP3    H231226   1.382   4.397   6.403
10429TIP3   OH231227   3.895   7.803   3.511
10429TIP3    H131228   3.969   7.750   3.542
10429TIP3    H231229   3.872   7.766   3.426
10430TIP3   OH231230   7.799   3.631   6.635
10430TIP3    H131231   7.709   3.622   6.602
10430TIP3    H231232   7.790   3.678   6.718
10431TIP3   OH231233   7.101   2.669   3.630
10431TIP3    H131234   7.140   2.687   3.544
10431TIP3    H231235   7.019   2.625   3.610
10432TIP3   OH231236   6.471   4.977   1.325
10432TIP3    H131237   6.382   4.985   1.290
10432TIP3    H231238   6.518   4.926   1.260
10433TIP3   OH231239   4.329   0.942   4.252
10433TIP3    H131240   4.288   0.856   4.256
10433TIP3    H231241   4.381   0.948   4.332
10434TIP3   OH231242   1.284   7.044   0.656
10434TIP3    H131243   1.246   7.036   0.568
10434TIP3    H231244   1.243   6.972   0.705
10435TIP3   OH231245   5.145   0.391   6.156
10435TIP3    H131246   5.051   0.384   6.170
10435TIP3    H231247   5.184   0.343   6.229
10436TIP3   OH231248   4.136   7.133   0.762
10436TIP3    H131249   4.166   7.108   0.849
10436TIP3    H231250   4.063   7.074   0.743
10437TIP3   OH231251   6.698   6.387   0.952
10437TIP3    H131252   6.779   6.353   0.990
10437TIP3    H231253   6.668   6.317   0.893
10438TIP3   OH231254   2.349   0.534   0.284
10438TIP3    H131255   2.259   0.517   0.254
10438TIP3    H231256   2.397   0.554   0.204
10439TIP3   OH231257   1.547   7.664   6.352
10439TIP3    H131258   1.478   7.611   6.393
10439TIP3    H231259   1.593   7.603   6.294
10440TIP3   OH231260   5.351   3.540   5.105
10440TIP3    H131261   5.407   3.589   5.045
10440TIP3    H231262   5.333   3.458   5.059
10441TIP3   OH231263   3.624   7.104   4.737
10441TIP3    H131264   3.578   7.071   4.660
10441TIP3    H231265   3.594   7.195   4.746
10442TIP3   OH231266   6.729   1.455   3.113
10442TIP3    H131267   6.690   1.393   3.051
10442TIP3    H231268   6.771   1.521   3.057
10443TIP3   OH231269   3.399   2.813   5.688
10443TIP3    H131270   3.376   2.814   5.595
10443TIP3    H231271   3.476   2.870   5.694
10444TIP3   OH231272   1.234   3.440   4.268
10444TIP3    H131273   1.161   3.412   4.212
10444TIP3    H231274   1.212   3.407   4.355
10445TIP3   OH231275   3.983   1.967   0.030
10445TIP3    H131276   3.903   1.942   0.077
10445TIP3    H231277   4.007   2.052   0.067
10446TIP3   OH231278   0.317   5.318   0.682
10446TIP3    H131279   0.289   5.328   0.591
10446TIP3    H231280   0.366   5.236   0.683
10447TIP3   OH231281   1.521   2.081   3.526
10447TIP3    H131282   1.479   2.158   3.564
10447TIP3    H231283   1.449   2.019   3.514
10448TIP3   OH231284   8.409   4.208   4.317
10448TIP3    H131285   8.380   4.135   4.262
10448TIP3    H231286   8.329   4.243   4.355
10449TIP3   OH231287   1.170   0.670   3.445
10449TIP3    H131288   1.257   0.636   3.424
10449TIP3    H231289   1.117   0.592   3.460
10450TIP3   OH231290   0.934   6.415   1.162
10450TIP3    H131291   0.842   6.425   1.189
10450TIP3    H231292   0.984   6.448   1.236
10451TIP3   OH231293   4.024   4.322   3.267
10451TIP3    H131294   4.000   4.410   3.240
10451TIP3    H231295   3.999   4.266   3.194
10452TIP3   OH231296   1.927   7.340   4.571
10452TIP3    H131297   1.965   7.392   4.501
10452TIP3    H231298   2.001   7.314   4.625
10453TIP3   OH231299   2.576   1.298   3.987
10453TIP3    H131300   2.598   1.388   4.012
10453TIP3    H231301   2.517   1.307   3.913
10454TIP3   OH231302   2.463   3.645   3.870
10454TIP3    H131303   2.419   3.725   3.899
10454TIP3    H231304   2.529   3.676   3.808
10455TIP3   OH231305   6.669   4.369   1.613
10455TIP3    H131306   6.700   4.459   1.610
10455TIP3    H231307   6.599   4.365   1.548
10456TIP3   OH231308   1.529   5.340   1.741
10456TIP3    H131309   1.560   5.423   1.704
10456TIP3    H231310   1.587   5.275   1.704
10457TIP3   OH231311   4.952   6.394   4.655
10457TIP3    H131312   4.903   6.384   4.737
10457TIP3    H231313   4.890   6.435   4.595
10458TIP3   OH231314   8.326   7.372   5.506
10458TIP3    H131315   8.382   7.450   5.503
10458TIP3    H231316   8.239   7.406   5.527
10459TIP3   OH231317   5.234   3.922   0.839
10459TIP3    H131318   5.175   3.880   0.777
10459TIP3    H231319   5.245   4.011   0.804
10460TIP3   OH231320   5.038   5.375   6.638
10460TIP3    H131321   5.062   5.343   6.551
10460TIP3    H231322   4.976   5.310   6.671
10461TIP3   OH231323   7.404   4.051   2.040
10461TIP3    H131324   7.451   4.122   1.994
10461TIP3    H231325   7.312   4.069   2.023
10462TIP3   OH231326   4.053   6.685   6.519
10462TIP3    H131327   4.007   6.607   6.548
10462TIP3    H231328   4.088   6.662   6.433
10463TIP3   OH231329   7.457   1.256   3.969
10463TIP3    H131330   7.399   1.186   4.000
10463TIP3    H231331   7.537   1.245   4.020
10464TIP3   OH231332   4.947   3.035   2.899
10464TIP3    H131333   5.028   3.020   2.851
10464TIP3    H231334   4.934   2.955   2.950
10465TIP3   OH231335   5.710   6.981   5.872
10465TIP3    H131336   5.704   6.904   5.928
10465TIP3    H231337   5.717   6.945   5.783
10466TIP3   OH231338   8.131   0.080   2.603
10466TIP3    H131339   8.178   0.056   2.683
10466TIP3    H231340   8.041   0.053   2.620
10467TIP3   OH231341   5.425   7.117   4.268
10467TIP3    H131342   5.473   7.152   4.343
10467TIP3    H231343   5.337   7.155   4.276
10468TIP3   OH231344   2.931   1.280   6.819
10468TIP3    H131345   2.895   1.212   6.875
10468TIP3    H231346   3.024   1.258   6.810
10469TIP3   OH231347   5.716   5.901   0.190
10469TIP3    H131348   5.683   5.986   0.160
10469TIP3    H231349   5.655   5.837   0.155
10470TIP3   OH231350   2.523   3.367   1.767
10470TIP3    H131351   2.532   3.272   1.764
10470TIP3    H231352   2.603   3.400   1.727
10471TIP3   OH231353   1.548   6.866   3.105
10471TIP3    H131354   1.511   6.832   3.023
10471TIP3    H231355   1.589   6.949   3.080
10472TIP3   OH231356   6.941   5.060   1.242
10472TIP3    H131357   6.940   4.978   1.290
10472TIP3    H231358   6.873   5.113   1.284
10473TIP3   OH231359   4.221   3.996   5.917
10473TIP3    H131360   4.169   4.059   5.866
10473TIP3    H231361   4.309   4.034   5.919
10474TIP3   OH231362   6.741   3.748   5.874
10474TIP3    H131363   6.663   3.716   5.919
10474TIP3    H231364   6.797   3.671   5.867
10475TIP3   OH231365   0.550   1.745   6.758
10475TIP3    H131366   0.601   1.675   6.799
10475TIP3    H231367   0.597   1.764   6.676
10476TIP3   OH231368   4.484   7.316   6.380
10476TIP3    H131369   4.467   7.379   6.311
10476TIP3    H231370   4.403   7.266   6.387
10477TIP3   OH231371   0.328   1.140   4.124
10477TIP3    H131372   0.278   1.115   4.202
10477TIP3    H231373   0.266   1.131   4.051
10478TIP3   OH231374   8.383   5.735   1.040
10478TIP3    H131375   8.384   5.751   1.134
10478TIP3    H231376   8.328   5.658   1.029
10479TIP3   OH231377   6.955   2.263   5.710
10479TIP3    H131378   6.862   2.276   5.695
10479TIP3    H231379   6.964   2.170   5.731
10480TIP3   OH231380   7.163   2.920   1.527
10480TIP3    H131381   7.114   2.843   1.497
10480TIP3    H231382   7.100   2.968   1.581
10481TIP3   OH231383   2.400   3.873   6.550
10481TIP3    H131384   2.413   3.811   6.479
10481TIP3    H231385   2.479   3.928   6.550
10482TIP3   OH231386   7.409   7.382   0.888
10482TIP3    H131387   7.349   7.367   0.961
10482TIP3    H231388   7.364   7.447   0.833
10483TIP3   OH231389   5.847   4.470   0.022
10483TIP3    H131390   5.893   4.538  -0.027
10483TIP3    H231391   5.883   4.388  -0.011
10484TIP3   OH231392   6.220   3.469   3.530
10484TIP3    H131393   6.211   3.560   3.557
10484TIP3    H231394   6.165   3.420   3.591
10485TIP3   OH231395   1.644   4.138   0.565
10485TIP3    H131396   1.682   4.153   0.478
10485TIP3    H231397   1.681   4.055   0.593
10486TIP3   OH231398   6.433   0.232   1.029
10486TIP3    H131399   6.484   0.174   0.971
10486TIP3    H231400   6.414   0.309   0.976
10487TIP3   OH231401   3.125   0.315   5.811
10487TIP3    H131402   3.198   0.288   5.867
10487TIP3    H231403   3.165   0.372   5.745
10488TIP3   OH231404   8.492   4.205   4.993
10488TIP3    H131405   8.420   4.205   4.930
10488TIP3    H231406   8.458   4.253   5.069
10489TIP3   OH231407   2.200   4.644   3.446
10489TIP3    H131408   2.269   4.610   3.503
10489TIP3    H231409   2.177   4.729   3.485
10490TIP3   OH231410   3.571   1.973   5.137
10490TIP3    H131411   3.597   1.884   5.159
10490TIP3    H231412   3.487   1.985   5.180
10491TIP3   OH231413   6.398   1.322   1.438
10491TIP3    H131414   6.424   1.394   1.495
10491TIP3    H231415   6.413   1.243   1.491
10492TIP3   OH231416   1.484   3.479   0.437
10492TIP3    H131417   1.480   3.490   0.342
10492TIP3    H231418   1.412   3.419   0.457
10493TIP3   OH231419   2.197   1.404   0.395
10493TIP3    H131420   2.266   1.435   0.336
10493TIP3    H231421   2.202   1.463   0.471
10494TIP3   OH231422   1.994   2.566   6.577
10494TIP3    H131423   1.912   2.536   6.539
10494TIP3    H231424   1.969   2.613   6.656
10495TIP3   OH231425   1.550   1.690   2.942
10495TIP3    H131426   1.526   1.752   2.873
10495TIP3    H231427   1.608   1.740   2.999
10496TIP3   OH231428   6.807   5.983   6.635
10496TIP3    H131429   6.821   5.942   6.720
10496TIP3    H231430   6.751   5.922   6.587
10497TIP3   OH231431   2.941   6.431   0.885
10497TIP3    H131432   2.944   6.520   0.849
10497TIP3    H231433   3.031   6.399   0.877
10498TIP3   OH231434   4.205   3.802   6.686
10498TIP3    H131435   4.294   3.814   6.721
10498TIP3    H231436   4.219   3.774   6.596
10499TIP3   OH231437   1.442   6.694   1.021
10499TIP3    H131438   1.481   6.739   1.097
10499TIP3    H231439   1.507   6.703   0.952
10500TIP3   OH231440   0.089   1.577   0.703
10500TIP3    H131441   0.063   1.491   0.672
10500TIP3    H231442   0.007   1.620   0.728
10501TIP3   OH231443   4.083   6.393   6.389
10501TIP3    H131444   4.091   6.351   6.475
10501TIP3    H231445   3.995   6.370   6.360
10502TIP3   OH231446   1.878   4.332   2.383
10502TIP3    H131447   1.861   4.280   2.305
10502TIP3    H231448   1.961   4.375   2.366
10503TIP3   OH231449   1.644   1.895   2.519
10503TIP3    H131450   1.646   1.827   2.451
10503TIP3    H231451   1.729   1.938   2.512
10504TIP3   OH231452   3.393   3.755   6.590
10504TIP3    H131453   3.393   3.781   6.498
10504TIP3    H231454   3.453   3.817   6.632
10505TIP3   OH231455   0.289   5.151   2.252
10505TIP3    H131456   0.343   5.072   2.244
10505TIP3    H231457   0.200   5.121   2.230
10506TIP3   OH231458   7.228   2.058   6.692
10506TIP3    H131459   7.173   2.057   6.614
10506TIP3    H231460   7.168   2.036   6.764
10507TIP3   OH231461   2.764   7.171   5.929
10507TIP3    H131462   2.755   7.082   5.895
10507TIP3    H231463   2.858   7.181   5.946
10508TIP3   OH231464   2.043   4.202   4.494
10508TIP3    H131465   2.009   4.248   4.570
10508TIP3    H231466   1.991   4.234   4.420
10509TIP3   OH231467   2.260   3.900   3.678
10509TIP3    H131468   2.231   3.813   3.651
10509TIP3    H231469   2.351   3.905   3.647
10510TIP3   OH231470   4.137   5.980   1.012
10510TIP3    H131471   4.218   6.022   1.041
10510TIP3    H231472   4.067   6.035   1.049
10511TIP3   OH231473   6.225   1.930   2.043
10511TIP3    H131474   6.221   2.025   2.055
10511TIP3    H231475   6.218   1.917   1.948
10512TIP3   OH231476   0.489   5.727   1.679
10512TIP3    H131477   0.451   5.810   1.709
10512TIP3    H231478   0.547   5.753   1.607
10513TIP3   OH231479   1.195   5.254   5.501
10513TIP3    H131480   1.194   5.169   5.457
10513TIP3    H231481   1.147   5.312   5.442
10514TIP3   OH231482   2.571   0.800   5.296
10514TIP3    H131483   2.569   0.884   5.250
10514TIP3    H231484   2.488   0.797   5.344
10515TIP3   OH231485   8.132   5.882   4.057
10515TIP3    H131486   8.086   5.966   4.068
10515TIP3    H231487   8.113   5.833   4.136
10516TIP3   OH231488   1.027   5.959   5.622
10516TIP3    H131489   1.086   5.914   5.560
10516TIP3    H231490   1.027   5.902   5.699
10517TIP3   OH231491   1.704   7.425   2.895
10517TIP3    H131492   1.672   7.493   2.837
10517TIP3    H231493   1.624   7.380   2.925
10518TIP3   OH231494   4.045   1.532   4.716
10518TIP3    H131495   3.958   1.513   4.749
10518TIP3    H231496   4.097   1.454   4.737
10519TIP3   OH231497   7.322   3.382   6.766
10519TIP3    H131498   7.310   3.462   6.714
10519TIP3    H231499   7.271   3.397   6.845
10520TIP3   OH231500   6.205   7.085   1.595
10520TIP3    H131501   6.161   7.092   1.680
10520TIP3    H231502   6.134   7.076   1.532
10521TIP3   OH231503   3.867   1.934   1.505
10521TIP3    H131504   3.866   1.848   1.463
10521TIP3    H231505   3.951   1.937   1.551
10522TIP3   OH231506   4.546   4.961   1.001
10522TIP3    H131507   4.479   5.024   0.974
10522TIP3    H231508   4.629   5.002   0.975
10523TIP3   OH231509   7.347   4.989   4.588
10523TIP3    H131510   7.258   5.021   4.606
10523TIP3    H231511   7.404   5.056   4.625
10524TIP3   OH231512   6.108   0.613   4.517
10524TIP3    H131513   6.109   0.517   4.518
10524TIP3    H231514   6.184   0.638   4.570
10525TIP3   OH231515   2.289   1.158   4.152
10525TIP3    H131516   2.330   1.080   4.187
10525TIP3    H231517   2.279   1.216   4.227
10526TIP3   OH231518   0.907   1.153   6.746
10526TIP3    H131519   0.953   1.223   6.792
10526TIP3    H231520   0.907   1.179   6.654
10527TIP3   OH231521   1.753   1.496   0.112
10527TIP3    H131522   1.842   1.519   0.141
10527TIP3    H231523   1.697   1.559   0.157
10528TIP3   OH231524   4.151   4.735   5.857
10528TIP3    H131525   4.174   4.714   5.766
10528TIP3    H231526   4.056   4.734   5.859
10529TIP3   OH231527   5.628   2.281   0.713
10529TIP3    H131528   5.609   2.254   0.624
10529TIP3    H231529   5.616   2.201   0.765
10530TIP3   OH231530   3.781   5.383   6.585
10530TIP3    H131531   3.796   5.477   6.584
10530TIP3    H231532   3.868   5.345   6.601
10531TIP3   OH231533   4.172   2.083   0.808
10531TIP3    H131534   4.251   2.106   0.759
10531TIP3    H231535   4.185   2.122   0.895
10532TIP3   OH231536   7.654   2.823   6.612
10532TIP3    H131537   7.563   2.847   6.632
10532TIP3    H231538   7.661   2.832   6.517
10533TIP3   OH231539   0.740   4.887   1.236
10533TIP3    H131540   0.687   4.954   1.278
10533TIP3    H231541   0.688   4.857   1.162
10534TIP3   OH231542   4.903   2.840   6.113
10534TIP3    H131543   4.906   2.924   6.066
10534TIP3    H231544   4.987   2.836   6.159
10535TIP3   OH231545   3.935   3.346   2.175
10535TIP3    H131546   4.012   3.401   2.159
10535TIP3    H231547   3.915   3.308   2.089
10536TIP3   OH231548   5.572   5.983   1.515
10536TIP3    H131549   5.629   5.970   1.439
10536TIP3    H231550   5.630   5.980   1.590
10537TIP3   OH231551   1.107   7.280   4.881
10537TIP3    H131552   1.188   7.330   4.877
10537TIP3    H231553   1.105   7.231   4.799
10538TIP3   OH231554   4.444   1.598   1.583
10538TIP3    H131555   4.371   1.604   1.522
10538TIP3    H231556   4.457   1.505   1.596
10539TIP3   OH231557   0.454   6.561   6.738
10539TIP3    H131558   0.490   6.648   6.754
10539TIP3    H231559   0.367   6.577   6.702
10540TIP3   OH231560   7.666   7.106   2.654
10540TIP3    H131561   7.633   7.106   2.564
10540TIP3    H231562   7.751   7.062   2.648
10541TIP3   OH231563   3.066   3.217   2.810
10541TIP3    H131564   3.025   3.217   2.724
10541TIP3    H231565   3.129   3.145   2.805
10542TIP3   OH231566   3.568   7.630   2.213
10542TIP3    H131567   3.517   7.647   2.292
10542TIP3    H231568   3.607   7.715   2.191
10543TIP3   OH231569   2.627   7.566   4.524
10543TIP3    H131570   2.698   7.627   4.500
10543TIP3    H231571   2.558   7.622   4.558
10544TIP3   OH231572   2.276   6.365   0.304
10544TIP3    H131573   2.188   6.375   0.343
10544TIP3    H231574   2.282   6.271   0.286
10545TIP3   OH231575   1.638   1.568   0.711
10545TIP3    H131576   1.598   1.655   0.711
10545TIP3    H231577   1.569   1.511   0.677
10546TIP3   OH231578   2.475   5.098   5.184
10546TIP3    H131579   2.400   5.045   5.211
10546TIP3    H231580   2.509   5.134   5.266
10547TIP3   OH231581   2.401   4.254   3.856
10547TIP3    H131582   2.365   4.341   3.871
10547TIP3    H231583   2.348   4.196   3.909
10548TIP3   OH231584   7.610   1.221   5.372
10548TIP3    H131585   7.639   1.129   5.370
10548TIP3    H231586   7.690   1.271   5.390
10549TIP3   OH231587   4.150   4.520   1.577
10549TIP3    H131588   4.210   4.537   1.505
10549TIP3    H231589   4.091   4.596   1.578
10550TIP3   OH231590   4.358   7.755   3.258
10550TIP3    H131591   4.263   7.758   3.250
10550TIP3    H231592   4.389   7.829   3.206
10551TIP3   OH231593   3.719   7.189   2.972
10551TIP3    H131594   3.704   7.120   3.037
10551TIP3    H231595   3.702   7.147   2.888
10552TIP3   OH231596   2.921   6.653   2.012
10552TIP3    H131597   2.928   6.656   2.107
10552TIP3    H231598   2.844   6.706   1.992
10553TIP3   OH231599   7.738   2.872   2.280
10553TIP3    H131600   7.820   2.900   2.240
10553TIP3    H231601   7.697   2.816   2.214
10554TIP3   OH231602   7.506   0.447   3.278
10554TIP3    H131603   7.414   0.440   3.305
10554TIP3    H231604   7.503   0.492   3.194
10555TIP3   OH231605   8.172   2.707   6.819
10555TIP3    H131606   8.137   2.788   6.781
10555TIP3    H231607   8.094   2.654   6.838
10556TIP3   OH231608   0.645   7.454   5.805
10556TIP3    H131609   0.612   7.519   5.867
10556TIP3    H231610   0.693   7.505   5.740
10557TIP3   OH231611   0.149   1.296   2.228
10557TIP3    H131612   0.089   1.254   2.289
10557TIP3    H231613   0.175   1.377   2.271
10558TIP3   OH231614   3.757   0.211   6.697
10558TIP3    H131615   3.753   0.115   6.695
10558TIP3    H231616   3.824   0.234   6.633
10559TIP3   OH231617   7.146   2.816   2.784
10559TIP3    H131618   7.088   2.888   2.808
10559TIP3    H231619   7.219   2.857   2.738
10560TIP3   OH231620   0.501   5.215   4.526
10560TIP3    H131621   0.592   5.189   4.512
10560TIP3    H231622   0.507   5.305   4.560
10561TIP3   OH231623   0.591   2.140   3.591
10561TIP3    H131624   0.506   2.105   3.565
10561TIP3    H231625   0.617   2.087   3.666
10562TIP3   OH231626   8.161   7.592   6.167
10562TIP3    H131627   8.117   7.542   6.236
10562TIP3    H231628   8.254   7.571   6.178
10563TIP3   OH231629   4.975   1.050   4.970
10563TIP3    H131630   5.018   1.047   4.885
10563TIP3    H231631   5.046   1.033   5.033
10564TIP3   OH231632   5.719   5.137   2.687
10564TIP3    H131633   5.710   5.120   2.593
10564TIP3    H231634   5.797   5.193   2.693
10565TIP3   OH231635   2.569   7.891   4.415
10565TIP3    H131636   2.584   7.819   4.354
10565TIP3    H231637   2.545   7.965   4.360
10566TIP3   OH231638   3.606   0.265   1.431
10566TIP3    H131639   3.686   0.223   1.463
10566TIP3    H231640   3.557   0.286   1.510
10567TIP3   OH231641   4.073   4.553   6.603
10567TIP3    H131642   4.105   4.600   6.526
10567TIP3    H231643   4.032   4.620   6.657
10568TIP3   OH231644   7.460   7.262   2.147
10568TIP3    H131645   7.374   7.297   2.170
10568TIP3    H231646   7.442   7.186   2.092
10569TIP3   OH231647   2.373   7.292   6.423
10569TIP3    H131648   2.442   7.311   6.486
10569TIP3    H231649   2.295   7.275   6.477
10570TIP3   OH231650   1.094   4.002   3.365
10570TIP3    H131651   1.131   3.974   3.449
10570TIP3    H231652   1.090   4.098   3.372
10571TIP3   OH231653   1.125   6.713   6.573
10571TIP3    H131654   1.155   6.657   6.502
10571TIP3    H231655   1.048   6.668   6.609
10572TIP3   OH231656   0.740   4.003   2.137
10572TIP3    H131657   0.692   3.982   2.057
10572TIP3    H231658   0.774   4.091   2.122
10573TIP3   OH231659   3.074   0.821   3.199
10573TIP3    H131660   3.155   0.851   3.158
10573TIP3    H231661   3.022   0.786   3.127
10574TIP3   OH231662   5.676   1.061   3.162
10574TIP3    H131663   5.586   1.046   3.190
10574TIP3    H231664   5.687   1.156   3.166
10575TIP3   OH231665   7.284   7.683   3.604
10575TIP3    H131666   7.244   7.672   3.691
10575TIP3    H231667   7.259   7.771   3.577
10576TIP3   OH231668   5.618   2.543   6.062
10576TIP3    H131669   5.673   2.620   6.049
10576TIP3    H231670   5.637   2.487   5.987
10577TIP3   OH231671   6.713   3.984   0.409
10577TIP3    H131672   6.725   4.072   0.445
10577TIP3    H231673   6.621   3.982   0.381
10578TIP3   OH231674   3.460   7.227   5.173
10578TIP3    H131675   3.506   7.189   5.098
10578TIP3    H231676   3.526   7.281   5.217
10579TIP3   OH231677   5.512   1.817   1.843
10579TIP3    H131678   5.576   1.748   1.857
10579TIP3    H231679   5.428   1.772   1.840
10580TIP3   OH231680   6.534   4.567   5.609
10580TIP3    H131681   6.605   4.631   5.610
10580TIP3    H231682   6.541   4.523   5.694
10581TIP3   OH231683   4.918   5.106   3.323
10581TIP3    H131684   4.927   5.195   3.290
10581TIP3    H231685   4.964   5.107   3.407
10582TIP3   OH231686   6.771   5.496   0.214
10582TIP3    H131687   6.822   5.416   0.228
10582TIP3    H231688   6.713   5.501   0.290
10583TIP3   OH231689   5.018   7.033   4.446
10583TIP3    H131690   4.929   7.001   4.460
10583TIP3    H231691   5.027   7.104   4.510
10584TIP3   OH231692   0.873   6.090   3.088
10584TIP3    H131693   0.796   6.039   3.063
10584TIP3    H231694   0.844   6.181   3.080
10585TIP3   OH231695   3.980   6.527   3.602
10585TIP3    H131696   4.002   6.609   3.648
10585TIP3    H231697   4.056   6.471   3.616
10586TIP3   OH231698   6.533   1.680   5.961
10586TIP3    H131699   6.509   1.602   6.010
10586TIP3    H231700   6.579   1.735   6.024
10587TIP3   OH231701   3.390   2.835   6.434
10587TIP3    H131702   3.480   2.831   6.402
10587TIP3    H231703   3.398   2.825   6.529
10588TIP3   OH231704   2.934   6.525   2.296
10588TIP3    H131705   2.840   6.535   2.282
10588TIP3    H231706   2.946   6.433   2.319
10589TIP3   OH231707   5.893   3.470   2.332
10589TIP3    H131708   5.803   3.454   2.360
10589TIP3    H231709   5.885   3.505   2.243
10590TIP3   OH231710   2.235   6.315   1.209
10590TIP3    H131711   2.241   6.400   1.252
10590TIP3    H231712   2.151   6.279   1.238
10591TIP3   OH231713   2.992   4.238   5.647
10591TIP3    H131714   2.914   4.194   5.612
10591TIP3    H231715   2.972   4.331   5.640
10592TIP3   OH231716   4.746   2.158   4.925
10592TIP3    H131717   4.795   2.080   4.899
10592TIP3    H231718   4.697   2.131   5.003
10593TIP3   OH231719   5.472   5.772   0.578
10593TIP3    H131720   5.421   5.749   0.656
10593TIP3    H231721   5.544   5.827   0.612
10594TIP3   OH231722   1.003   7.808   1.854
10594TIP3    H131723   1.041   7.765   1.777
10594TIP3    H231724   1.042   7.762   1.929
10595TIP3   OH231725   2.840   0.367   2.968
10595TIP3    H131726   2.864   0.369   2.875
10595TIP3    H231727   2.779   0.440   2.978
10596TIP3   OH231728   2.006   4.556   0.884
10596TIP3    H131729   1.941   4.494   0.854
10596TIP3    H231730   1.965   4.642   0.872
10597TIP3   OH231731   3.023   3.414   0.534
10597TIP3    H131732   3.064   3.477   0.474
10597TIP3    H231733   3.023   3.331   0.485
10598TIP3   OH231734   5.447   1.042   2.012
10598TIP3    H131735   5.541   1.049   1.995
10598TIP3    H231736   5.407   1.036   1.926
10599TIP3   OH231737   8.143   4.001   0.664
10599TIP3    H131738   8.179   3.966   0.582
10599TIP3    H231739   8.074   3.940   0.688
10600TIP3   OH231740   7.883   5.841   2.149
10600TIP3    H131741   7.798   5.799   2.146
10600TIP3    H231742   7.946   5.769   2.153
10601TIP3   OH231743   6.222   1.985   4.020
10601TIP3    H131744   6.236   2.026   3.934
10601TIP3    H231745   6.141   2.024   4.052
10602TIP3   OH231746   3.331   1.152   4.568
10602TIP3    H131747   3.359   1.061   4.558
10602TIP3    H231748   3.302   1.159   4.658
10603TIP3   OH231749   1.156   0.953   3.301
10603TIP3    H131750   1.244   0.983   3.326
10603TIP3    H231751   1.147   0.867   3.344
10604TIP3   OH231752   3.842   2.699   1.810
10604TIP3    H131753   3.932   2.668   1.810
10604TIP3    H231754   3.811   2.685   1.899
10605TIP3   OH231755   3.465   6.880   6.154
10605TIP3    H131756   3.390   6.836   6.194
10605TIP3    H231757   3.442   6.888   6.061
10606TIP3   OH231758   6.624   7.829   0.891
10606TIP3    H131759   6.691   7.769   0.857
10606TIP3    H231760   6.558   7.771   0.930
10607TIP3   OH231761   1.004   3.166   5.719
10607TIP3    H131762   0.944   3.132   5.786
10607TIP3    H231763   0.960   3.243   5.683
10608TIP3   OH231764   7.534   1.102   6.412
10608TIP3    H131765   7.453   1.060   6.441
10608TIP3    H231766   7.581   1.032   6.366
10609TIP3   OH231767   0.649   5.915   3.071
10609TIP3    H131768   0.574   5.973   3.080
10609TIP3    H231769   0.622   5.833   3.113
10610TIP3   OH231770   6.125   2.385   4.449
10610TIP3    H131771   6.064   2.413   4.380
10610TIP3    H231772   6.208   2.427   4.426
10611TIP3   OH231773   7.075   2.844   6.450
10611TIP3    H131774   7.148   2.784   6.464
10611TIP3    H231775   7.111   2.931   6.463
10612TIP3   OH231776   1.002   6.046   4.292
10612TIP3    H131777   1.011   6.136   4.260
10612TIP3    H231778   0.937   6.006   4.234
10613TIP3   OH231779   2.733   0.177   5.248
10613TIP3    H131780   2.682   0.098   5.267
10613TIP3    H231781   2.813   0.145   5.206
10614TIP3   OH231782   2.732   6.226   5.406
10614TIP3    H131783   2.785   6.159   5.448
10614TIP3    H231784   2.741   6.208   5.312
10615TIP3   OH231785   1.030   2.415   1.499
10615TIP3    H131786   1.028   2.353   1.426
10615TIP3    H231787   0.997   2.497   1.463
10616TIP3   OH231788   7.425   3.196   4.790
10616TIP3    H131789   7.511   3.162   4.765
10616TIP3    H231790   7.424   3.192   4.885
10617TIP3   OH231791   3.373   5.426   0.616
10617TIP3    H131792   3.318   5.474   0.554
10617TIP3    H231793   3.311   5.378   0.670
10618TIP3   OH231794   3.251   2.987   2.473
10618TIP3    H131795   3.242   3.023   2.561
10618TIP3    H231796   3.321   3.040   2.434
10619TIP3   OH231797   3.065   0.075   2.969
10619TIP3    H131798   3.124   0.150   2.964
10619TIP3    H231799   3.024   0.082   3.055
10620TIP3   OH231800   2.956   4.379   2.622
10620TIP3    H131801   2.915   4.306   2.575
10620TIP3    H231802   2.896   4.399   2.693
10621TIP3   OH231803   3.891   5.537   1.381
10621TIP3    H131804   3.905   5.549   1.287
10621TIP3    H231805   3.800   5.563   1.395
10622TIP3   OH231806   2.289   1.393   6.168
10622TIP3    H131807   2.280   1.335   6.092
10622TIP3    H231808   2.235   1.469   6.147
10623TIP3   OH231809   6.743   4.180   1.206
10623TIP3    H131810   6.823   4.145   1.245
10623TIP3    H231811   6.693   4.214   1.279
10624TIP3   OH231812   3.175   0.905   5.369
10624TIP3    H131813   3.090   0.863   5.381
10624TIP3    H231814   3.198   0.887   5.278
10625TIP3   OH231815   3.928   3.220   1.942
10625TIP3    H131816   4.003   3.187   1.893
10625TIP3    H231817   3.852   3.192   1.891
10626TIP3   OH231818   1.608   1.756   0.989
10626TIP3    H131819   1.656   1.805   1.056
10626TIP3    H231820   1.597   1.819   0.917
10627TIP3   OH231821   7.426   3.792   3.335
10627TIP3    H131822   7.522   3.786   3.337
10627TIP3    H231823   7.396   3.721   3.391
10628TIP3   OH231824   5.879   5.280   4.033
10628TIP3    H131825   5.874   5.374   4.051
10628TIP3    H231826   5.972   5.259   4.042
10629TIP3   OH231827   6.152   5.696   0.645
10629TIP3    H131828   6.151   5.789   0.667
10629TIP3    H231829   6.223   5.686   0.582
10630TIP3   OH231830   4.169   3.729   3.696
10630TIP3    H131831   4.259   3.750   3.671
10630TIP3    H231832   4.117   3.801   3.660
10631TIP3   OH231833   3.613   4.013   4.662
10631TIP3    H131834   3.659   4.093   4.687
10631TIP3    H231835   3.622   4.009   4.567
10632TIP3   OH231836   4.745   7.920   6.193
10632TIP3    H131837   4.791   7.968   6.125
10632TIP3    H231838   4.799   7.843   6.209
10633TIP3   OH231839   2.410   2.957   2.208
10633TIP3    H131840   2.324   2.970   2.248
10633TIP3    H231841   2.469   2.940   2.282
10634TIP3   OH231842   7.952   1.116   0.399
10634TIP3    H131843   8.019   1.118   0.330
10634TIP3    H231844   7.873   1.087   0.355
10635TIP3   OH231845   1.549   1.575   6.474
10635TIP3    H131846   1.543   1.652   6.418
10635TIP3    H231847   1.626   1.591   6.528
10636TIP3   OH231848   2.165   7.531   3.327
10636TIP3    H131849   2.093   7.565   3.380
10636TIP3    H231850   2.175   7.440   3.355
10637TIP3   OH231851   1.570   6.796   4.329
10637TIP3    H131852   1.641   6.856   4.352
10637TIP3    H231853   1.589   6.716   4.379
10638TIP3   OH231854   2.997   5.273   4.465
10638TIP3    H131855   3.075   5.237   4.507
10638TIP3    H231856   3.031   5.316   4.386
10639TIP3   OH231857   1.681   0.611   6.074
10639TIP3    H131858   1.773   0.629   6.056
10639TIP3    H231859   1.674   0.618   6.170
10640TIP3   OH231860   2.247   3.863   1.333
10640TIP3    H131861   2.231   3.787   1.277
10640TIP3    H231862   2.262   3.935   1.271
10641TIP3   OH231863   2.367   0.930   0.548
10641TIP3    H131864   2.377   0.906   0.640
10641TIP3    H231865   2.300   0.999   0.549
10642TIP3   OH231866   0.971   7.116   0.781
10642TIP3    H131867   0.957   7.206   0.754
10642TIP3    H231868   0.933   7.112   0.870
10643TIP3   OH231869   4.391   1.541   2.773
10643TIP3    H131870   4.468   1.555   2.829
10643TIP3    H231871   4.427   1.522   2.687
10644TIP3   OH231872   1.982   3.254   0.402
10644TIP3    H131873   1.982   3.302   0.319
10644TIP3    H231874   2.020   3.169   0.380
10645TIP3   OH231875   1.373   2.216   1.889
10645TIP3    H131876   1.435   2.264   1.834
10645TIP3    H231877   1.421   2.199   1.970
10646TIP3   OH231878   2.941   5.201   3.851
10646TIP3    H131879   2.946   5.211   3.756
10646TIP3    H231880   2.944   5.107   3.866
10647TIP3   OH231881   3.564   0.454   2.176
10647TIP3    H131882   3.490   0.469   2.117
10647TIP3    H231883   3.641   0.472   2.122
10648TIP3   OH231884   2.670   0.133   4.393
10648TIP3    H131885   2.743   0.113   4.334
10648TIP3    H231886   2.615   0.055   4.389
10649TIP3   OH231887   6.212   0.794   0.271
10649TIP3    H131888   6.118   0.801   0.252
10649TIP3    H231889   6.227   0.856   0.343
10650TIP3   OH231890   4.379   7.870   1.546
10650TIP3    H131891   4.429   7.789   1.550
10650TIP3    H231892   4.305   7.856   1.606
10651TIP3   OH231893   1.140   0.049   3.647
10651TIP3    H131894   1.071   0.116   3.647
10651TIP3    H231895   1.137   0.012   3.559
10652TIP3   OH231896   5.275   1.997   1.265
10652TIP3    H131897   5.352   2.043   1.299
10652TIP3    H231898   5.205   2.018   1.326
10653TIP3   OH231899   5.711   0.808   2.250
10653TIP3    H131900   5.650   0.743   2.214
10653TIP3    H231901   5.720   0.874   2.182
10654TIP3   OH231902   3.581   0.287   4.495
10654TIP3    H131903   3.593   0.291   4.590
10654TIP3    H231904   3.669   0.276   4.460
10655TIP3   OH231905   4.767   4.511   2.418
10655TIP3    H131906   4.841   4.475   2.467
10655TIP3    H231907   4.735   4.438   2.365
10656TIP3   OH231908   4.301   0.172   4.452
10656TIP3    H131909   4.298   0.125   4.369
10656TIP3    H231910   4.393   0.196   4.463
10657TIP3   OH231911   4.586   0.904   3.004
10657TIP3    H131912   4.569   0.819   2.964
10657TIP3    H231913   4.678   0.901   3.029
10658TIP3   OH231914   4.305   3.438   6.140
10658TIP3    H131915   4.256   3.394   6.210
10658TIP3    H231916   4.396   3.418   6.159
10659TIP3   OH231917   6.850   3.181   0.833
10659TIP3    H131918   6.930   3.234   0.830
10659TIP3    H231919   6.787   3.234   0.881
10660TIP3   OH231920   0.691   6.663   2.735
10660TIP3    H131921   0.655   6.610   2.664
10660TIP3    H231922   0.674   6.612   2.814
10661TIP3   OH231923   0.996   1.104   6.465
10661TIP3    H131924   1.091   1.104   6.455
10661TIP3    H231925   0.969   1.016   6.437
10662TIP3   OH231926   5.593   6.703   4.714
10662TIP3    H131927   5.518   6.660   4.756
10662TIP3    H231928   5.614   6.777   4.771
10663TIP3   OH231929   0.560   3.384   4.084
10663TIP3    H131930   0.549   3.291   4.101
10663TIP3    H231931   0.646   3.390   4.041
10664TIP3   OH231932   1.511   3.964   5.264
10664TIP3    H131933   1.579   3.970   5.331
10664TIP3    H231934   1.490   3.871   5.259
10665TIP3   OH231935   8.169   1.183   1.086
10665TIP3    H131936   8.187   1.090   1.071
10665TIP3    H231937   8.242   1.229   1.043
10666TIP3   OH231938   6.669   4.148   3.666
10666TIP3    H131939   6.761   4.139   3.643
10666TIP3    H231940   6.662   4.233   3.710
10667TIP3   OH231941   8.242   4.850   5.736
10667TIP3    H131942   8.322   4.823   5.690
10667TIP3    H231943   8.173   4.841   5.670
10668TIP3   OH231944   4.506   2.790   2.332
10668TIP3    H131945   4.474   2.818   2.247
10668TIP3    H231946   4.435   2.810   2.393
10669TIP3   OH231947   7.595   3.233   0.811
10669TIP3    H131948   7.519   3.207   0.759
10669TIP3    H231949   7.558   3.260   0.896
10670TIP3   OH231950   6.136   0.430   0.706
10670TIP3    H131951   6.112   0.442   0.798
10670TIP3    H231952   6.106   0.510   0.663
10671TIP3   OH231953   1.133   4.198   1.536
10671TIP3    H131954   1.083   4.280   1.535
10671TIP3    H231955   1.067   4.129   1.545
10672TIP3   OH231956   8.037   0.066   5.708
10672TIP3    H131957   7.953   0.111   5.713
10672TIP3    H231958   8.094   0.114   5.767
10673TIP3   OH231959   4.848   7.151   1.187
10673TIP3    H131960   4.928   7.107   1.157
10673TIP3    H231961   4.839   7.125   1.278
10674TIP3   OH231962   4.121   3.219   0.415
10674TIP3    H131963   4.079   3.233   0.331
10674TIP3    H231964   4.094   3.130   0.440
10675TIP3   OH231965   8.121   7.560   5.609
10675TIP3    H131966   8.052   7.495   5.597
10675TIP3    H231967   8.077   7.637   5.645
10676TIP3   OH231968   6.242   2.209   1.722
10676TIP3    H131969   6.251   2.221   1.627
10676TIP3    H231970   6.332   2.199   1.753
10677TIP3   OH231971   8.045   3.145   3.822
10677TIP3    H131972   8.100   3.221   3.802
10677TIP3    H231973   8.064   3.125   3.914
10678TIP3   OH231974   3.138   2.121   4.077
10678TIP3    H131975   3.143   2.164   4.162
10678TIP3    H231976   3.208   2.162   4.025
10679TIP3   OH231977   1.332   6.520   2.971
10679TIP3    H131978   1.250   6.472   2.964
10679TIP3    H231979   1.399   6.455   2.952
10680TIP3   OH231980   8.070   6.406   5.682
10680TIP3    H131981   7.997   6.347   5.663
10680TIP3    H231982   8.148   6.357   5.655
10681TIP3   OH231983   2.907   4.629   1.734
10681TIP3    H131984   2.852   4.616   1.657
10681TIP3    H231985   2.950   4.545   1.748
10682TIP3   OH231986   2.126   3.201   2.603
10682TIP3    H131987   2.088   3.124   2.561
10682TIP3    H231988   2.195   3.229   2.543
10683TIP3   OH231989   6.906   7.561   4.972
10683TIP3    H131990   6.990   7.558   5.019
10683TIP3    H231991   6.899   7.475   4.931
10684TIP3   OH231992   8.082   3.761   3.287
10684TIP3    H131993   8.054   3.680   3.246
10684TIP3    H231994   8.153   3.793   3.231
10685TIP3   OH231995   6.275   0.699   5.030
10685TIP3    H131996   6.348   0.640   5.014
10685TIP3    H231997   6.214   0.649   5.084
10686TIP3   OH231998   7.080   4.695   3.167
10686TIP3    H131999   7.092   4.783   3.131
10686TIP3    H232000   7.085   4.637   3.092
10687TIP3   OH232001   1.943   5.197   1.506
10687TIP3    H132002   1.969   5.288   1.495
10687TIP3    H232003   2.021   5.146   1.484
10688TIP3   OH232004   2.822   2.229   6.453
10688TIP3    H132005   2.734   2.242   6.490
10688TIP3    H232006   2.868   2.178   6.519
10689TIP3   OH232007   7.842   6.288   0.124
10689TIP3    H132008   7.900   6.316   0.053
10689TIP3    H232009   7.790   6.217   0.086
10690TIP3   OH232010   2.330   5.760   0.362
10690TIP3    H132011   2.400   5.760   0.296
10690TIP3    H232012   2.372   5.794   0.441
10691TIP3   OH232013   0.451   0.090   2.139
10691TIP3    H132014   0.484   0.075   2.228
10691TIP3    H232015   0.365   0.048   2.138
10692TIP3   OH232016   7.875   7.574   2.337
10692TIP3    H132017   7.921   7.640   2.390
10692TIP3    H232018   7.787   7.571   2.374
10693TIP3   OH232019   7.490   2.943   0.482
10693TIP3    H132020   7.570   2.890   0.486
10693TIP3    H232021   7.447   2.929   0.566
10694TIP3   OH232022   4.077   0.165   6.737
10694TIP3    H132023   4.144   0.148   6.802
10694TIP3    H232024   4.120   0.149   6.653
10695TIP3   OH232025   6.650   1.386   0.313
10695TIP3    H132026   6.613   1.433   0.387
10695TIP3    H232027   6.597   1.307   0.305
10696TIP3   OH232028   0.880   6.070   6.581
10696TIP3    H132029   0.918   6.040   6.499
10696TIP3    H232030   0.786   6.078   6.563
10697TIP3   OH232031   0.569   1.119   4.831
10697TIP3    H132032   0.664   1.113   4.838
10697TIP3    H232033   0.543   1.178   4.902
10698TIP3   OH232034   7.978   1.495   0.428
10698TIP3    H132035   7.976   1.408   0.469
10698TIP3    H232036   7.886   1.516   0.413
10699TIP3   OH232037   6.374   1.759   5.464
10699TIP3    H132038   6.373   1.710   5.546
10699TIP3    H232039   6.281   1.769   5.441
10700TIP3   OH232040   8.259   5.095   2.348
10700TIP3    H132041   8.292   5.069   2.434
10700TIP3    H232042   8.247   5.013   2.301
10701TIP3   OH232043   2.027   4.404   3.988
10701TIP3    H132044   2.001   4.461   4.060
10701TIP3    H232045   1.947   4.394   3.936
10702TIP3   OH232046   3.344   0.482   2.691
10702TIP3    H132047   3.328   0.497   2.598
10702TIP3    H232048   3.336   0.388   2.702
10703TIP3   OH232049   6.458   6.839   4.443
10703TIP3    H132050   6.484   6.923   4.405
10703TIP3    H232051   6.537   6.785   4.438
10704TIP3   OH232052   0.727   4.431   3.409
10704TIP3    H132053   0.657   4.491   3.435
10704TIP3    H232054   0.800   4.488   3.384
10705TIP3   OH232055   0.325   4.324   1.355
10705TIP3    H132056   0.273   4.249   1.382
10705TIP3    H232057   0.298   4.340   1.265
10706TIP3   OH232058   5.268   0.290   4.532
10706TIP3    H132059   5.337   0.242   4.577
10706TIP3    H232060   5.251   0.239   4.453
10707TIP3   OH232061   7.367   1.208   5.911
10707TIP3    H132062   7.463   1.202   5.908
10707TIP3    H232063   7.349   1.295   5.945
10708TIP3   OH232064   3.242   2.112   6.045
10708TIP3    H132065   3.245   2.205   6.067
10708TIP3    H232066   3.294   2.070   6.114
10709TIP3   OH232067   5.309   1.178   1.318
10709TIP3    H132068   5.294   1.170   1.413
10709TIP3    H232069   5.306   1.272   1.301
10710TIP3   OH232070   2.277   6.045   0.607
10710TIP3    H132071   2.286   6.096   0.687
10710TIP3    H232072   2.342   5.975   0.615
10711TIP3   OH232073   7.342   1.430   6.249
10711TIP3    H132074   7.323   1.462   6.161
10711TIP3    H232075   7.324   1.337   6.245
10712TIP3   OH232076   4.277   3.030   6.099
10712TIP3    H132077   4.267   2.938   6.122
10712TIP3    H232078   4.325   3.029   6.016
10713TIP3   OH232079   8.374   7.168   5.049
10713TIP3    H132080   8.318   7.105   5.003
10713TIP3    H232081   8.313   7.220   5.102
10714TIP3   OH232082   2.866   2.548   4.227
10714TIP3    H132083   2.853   2.643   4.226
10714TIP3    H232084   2.827   2.519   4.309
10715TIP3   OH232085   7.682   6.715   2.743
10715TIP3    H132086   7.777   6.708   2.733
10715TIP3    H232087   7.669   6.796   2.791
10716TIP3   OH232088   6.277   5.863   3.750
10716TIP3    H132089   6.284   5.785   3.696
10716TIP3    H232090   6.367   5.884   3.775
10717TIP3   OH232091   0.567   0.207   4.697
10717TIP3    H132092   0.657   0.182   4.720
10717TIP3    H232093   0.571   0.226   4.603
10718TIP3   OH232094   5.108   5.261   4.781
10718TIP3    H132095   5.068   5.212   4.709
10718TIP3    H232096   5.046   5.251   4.854
10719TIP3   OH232097   8.408   1.938   3.678
10719TIP3    H132098   8.402   1.920   3.772
10719TIP3    H232099   8.355   2.016   3.665
10720TIP3   OH232100   2.094   1.229   3.114
10720TIP3    H132101   2.176   1.180   3.107
10720TIP3    H232102   2.110   1.293   3.184
10721TIP3   OH232103   6.499   7.773   2.198
10721TIP3    H132104   6.521   7.865   2.183
10721TIP3    H232105   6.445   7.773   2.277
10722TIP3   OH232106   3.595   7.608   6.330
10722TIP3    H132107   3.644   7.609   6.412
10722TIP3    H232108   3.588   7.515   6.308
10723TIP3   OH232109   3.665   5.935   4.822
10723TIP3    H132110   3.664   5.941   4.727
10723TIP3    H232111   3.578   5.966   4.849
10724TIP3   OH232112   7.041   7.342   4.488
10724TIP3    H132113   6.997   7.402   4.428
10724TIP3    H232114   7.094   7.398   4.544
10725TIP3   OH232115   5.003   5.174   4.077
10725TIP3    H132116   5.095   5.201   4.073
10725TIP3    H232117   4.953   5.255   4.081
10726TIP3   OH232118   4.985   7.348   2.754
10726TIP3    H132119   5.043   7.283   2.794
10726TIP3    H232120   5.043   7.401   2.699
10727TIP3   OH232121   2.295   1.939   1.055
10727TIP3    H132122   2.328   1.990   0.980
10727TIP3    H232123   2.225   1.886   1.018
10728TIP3   OH232124   6.097   7.027   6.838
10728TIP3    H132125   6.017   7.016   6.889
10728TIP3    H232126   6.095   6.957   6.773
10729TIP3   OH232127   7.351   5.462   5.730
10729TIP3    H132128   7.308   5.377   5.723
10729TIP3    H232129   7.356   5.494   5.640
10730TIP3   OH232130   5.343   0.657   2.777
10730TIP3    H132131   5.349   0.572   2.732
10730TIP3    H232132   5.327   0.720   2.707
10731TIP3   OH232133   4.550   2.930   4.281
10731TIP3    H132134   4.628   2.889   4.242
10731TIP3    H232135   4.481   2.865   4.271
10732TIP3   OH232136   6.070   1.302   4.251
10732TIP3    H132137   6.097   1.394   4.256
10732TIP3    H232138   6.137   1.255   4.301
10733TIP3   OH232139   4.262   4.263   1.710
10733TIP3    H132140   4.329   4.332   1.708
10733TIP3    H232141   4.191   4.296   1.655
10734TIP3   OH232142   2.244   3.600   2.996
10734TIP3    H132143   2.291   3.531   3.042
10734TIP3    H232144   2.227   3.564   2.909
10735TIP3   OH232145   4.105   3.075   2.116
10735TIP3    H132146   4.108   2.992   2.069
10735TIP3    H232147   4.012   3.097   2.121
10736TIP3   OH232148   4.714   4.539   0.887
10736TIP3    H132149   4.694   4.628   0.859
10736TIP3    H232150   4.656   4.484   0.835
10737TIP3   OH232151   4.021   4.428  -0.015
10737TIP3    H132152   3.944   4.373  -0.033
10737TIP3    H232153   4.013   4.450   0.077
10738TIP3   OH232154   4.828   0.006   4.786
10738TIP3    H132155   4.745   0.001   4.739
10738TIP3    H232156   4.818   0.081   4.845
10739TIP3   OH232157   4.350   2.657   0.939
10739TIP3    H132158   4.361   2.718   0.865
10739TIP3    H232159   4.440   2.638   0.967
10740TIP3   OH232160   5.536   6.244   4.035
10740TIP3    H132161   5.533   6.202   4.121
10740TIP3    H232162   5.610   6.203   3.991
10741TIP3   OH232163   7.908   3.609   5.280
10741TIP3    H132164   7.883   3.546   5.212
10741TIP3    H232165   7.881   3.694   5.245
10742TIP3   OH232166   4.263   7.330   3.344
10742TIP3    H132167   4.223   7.382   3.274
10742TIP3    H232168   4.324   7.272   3.299
10743TIP3   OH232169   3.581   1.679   3.290
10743TIP3    H132170   3.622   1.763   3.312
10743TIP3    H232171   3.510   1.670   3.353
10744TIP3   OH232172   5.195   0.242   3.469
10744TIP3    H132173   5.128   0.232   3.401
10744TIP3    H232174   5.236   0.326   3.448
10745TIP3   OH232175   7.417   2.253   0.283
10745TIP3    H132176   7.372   2.334   0.306
10745TIP3    H232177   7.348   2.186   0.284
10746TIP3   OH232178   1.731   4.173   2.599
10746TIP3    H132179   1.719   4.154   2.506
10746TIP3    H232180   1.802   4.237   2.602
10747TIP3   OH232181   7.591   3.134   2.515
10747TIP3    H132182   7.558   3.224   2.518
10747TIP3    H232183   7.684   3.143   2.491
10748TIP3   OH232184   2.386   7.512   1.440
10748TIP3    H132185   2.390   7.495   1.534
10748TIP3    H232186   2.442   7.588   1.428
10749TIP3   OH232187   3.006   5.247   2.895
10749TIP3    H132188   3.090   5.201   2.889
10749TIP3    H232189   3.027   5.330   2.937
10750TIP3   OH232190   7.606   7.041   1.550
10750TIP3    H132191   7.689   7.053   1.595
10750TIP3    H232192   7.542   7.024   1.619
10751TIP3   OH232193   8.158   0.573   4.005
10751TIP3    H132194   8.200   0.520   3.937
10751TIP3    H232195   8.144   0.511   4.077
10752TIP3   OH232196   2.613   2.033   6.099
10752TIP3    H132197   2.583   2.125   6.098
10752TIP3    H232198   2.616   2.008   6.007
10753TIP3   OH232199   5.364   4.028   2.830
10753TIP3    H132200   5.443   4.071   2.863
10753TIP3    H232201   5.348   4.071   2.746
10754TIP3   OH232202   2.588   4.353   4.078
10754TIP3    H132203   2.653   4.282   4.083
10754TIP3    H232204   2.519   4.318   4.021
10755TIP3   OH232205   7.970   3.185   5.832
10755TIP3    H132206   8.004   3.118   5.773
10755TIP3    H232207   7.977   3.267   5.782
10756TIP3   OH232208   7.880   2.624   6.487
10756TIP3    H132209   7.805   2.646   6.542
10756TIP3    H232210   7.910   2.708   6.452
10757TIP3   OH232211   6.653   2.662   3.085
10757TIP3    H132212   6.619   2.574   3.104
10757TIP3    H232213   6.687   2.656   2.996
10758TIP3   OH232214   6.282   6.503   1.209
10758TIP3    H132215   6.263   6.563   1.137
10758TIP3    H232216   6.374   6.520   1.231
10759TIP3   OH232217   7.316   2.797   3.484
10759TIP3    H132218   7.349   2.880   3.450
10759TIP3    H232219   7.374   2.777   3.557
10760TIP3   OH232220   1.291   4.562   6.052
10760TIP3    H132221   1.292   4.524   5.964
10760TIP3    H232222   1.223   4.630   6.049
10761TIP3   OH232223   4.990   4.604   6.034
10761TIP3    H132224   4.897   4.627   6.029
10761TIP3    H232225   4.995   4.516   5.996
10762TIP3   OH232226   6.041   2.479   3.549
10762TIP3    H132227   6.006   2.547   3.491
10762TIP3    H232228   6.134   2.499   3.557
10763TIP3   OH232229   2.200   1.741   5.786
10763TIP3    H132230   2.169   1.784   5.865
10763TIP3    H232231   2.224   1.812   5.727
10764TIP3   OH232232   0.490   1.814   0.752
10764TIP3    H132233   0.414   1.853   0.708
10764TIP3    H232234   0.494   1.859   0.837
10765TIP3   OH232235   4.170   1.724   3.686
10765TIP3    H132236   4.179   1.820   3.690
10765TIP3    H232237   4.084   1.710   3.647
10766TIP3   OH232238   3.484   2.835   2.663
10766TIP3    H132239   3.545   2.769   2.632
10766TIP3    H232240   3.494   2.908   2.601
10767TIP3   OH232241   1.837   3.321   1.941
10767TIP3    H132242   1.789   3.383   1.996
10767TIP3    H232243   1.775   3.299   1.871
10768TIP3   OH232244   0.097   5.928   5.467
10768TIP3    H132245   0.007   5.906   5.445
10768TIP3    H232246   0.098   5.935   5.562
10769TIP3   OH232247   3.343   5.234   5.503
10769TIP3    H132248   3.377   5.315   5.466
10769TIP3    H232249   3.267   5.212   5.450
10770TIP3   OH232250   1.244   5.426   0.455
10770TIP3    H132251   1.327   5.387   0.481
10770TIP3    H232252   1.240   5.509   0.503
10771TIP3   OH232253   2.331   2.002   3.417
10771TIP3    H132254   2.276   2.080   3.409
10771TIP3    H232255   2.305   1.947   3.343
10772TIP3   OH232256   7.853   6.152   2.184
10772TIP3    H132257   7.896   6.071   2.156
10772TIP3    H232258   7.828   6.195   2.102
10773TIP3   OH232259   4.889   2.494   3.241
10773TIP3    H132260   4.963   2.485   3.302
10773TIP3    H232261   4.812   2.488   3.298
10774TIP3   OH232262   5.735   4.664   3.454
10774TIP3    H132263   5.774   4.610   3.523
10774TIP3    H232264   5.711   4.746   3.497
10775TIP3   OH232265   6.300   4.407   3.766
10775TIP3    H132266   6.260   4.321   3.754
10775TIP3    H232267   6.360   4.416   3.693
10776TIP3   OH232268   0.428   4.303   4.560
10776TIP3    H132269   0.520   4.304   4.586
10776TIP3    H232270   0.392   4.225   4.602
10777TIP3   OH232271   3.214   1.728   6.259
10777TIP3    H132272   3.261   1.662   6.310
10777TIP3    H232273   3.122   1.702   6.265
10778TIP3   OH232274   7.397   0.596   4.973
10778TIP3    H132275   7.362   0.673   5.018
10778TIP3    H232276   7.443   0.547   5.042
10779TIP3   OH232277   2.912   0.862   2.989
10779TIP3    H132278   2.900   0.957   2.979
10779TIP3    H232279   2.949   0.833   2.906
10780TIP3   OH232280   3.543   4.169   1.499
10780TIP3    H132281   3.454   4.189   1.525
10780TIP3    H232282   3.578   4.251   1.464
10781TIP3   OH232283   6.965   6.294   4.100
10781TIP3    H132284   6.971   6.389   4.095
10781TIP3    H232285   7.034   6.269   4.162
10782TIP3   OH232286   3.188   4.505   2.965
10782TIP3    H132287   3.185   4.567   2.892
10782TIP3    H232288   3.096   4.484   2.983
10783TIP3   OH232289   6.997   0.450   2.038
10783TIP3    H132290   6.926   0.471   1.976
10783TIP3    H232291   7.075   0.490   1.999
10784TIP3   OH232292   2.413   7.210   3.042
10784TIP3    H132293   2.365   7.232   3.122
10784TIP3    H232294   2.485   7.273   3.039
10785TIP3   OH232295   1.647   4.445   6.695
10785TIP3    H132296   1.708   4.439   6.621
10785TIP3    H232297   1.588   4.517   6.672
10786TIP3   OH232298   7.666   4.289   2.725
10786TIP3    H132299   7.592   4.340   2.756
10786TIP3    H232300   7.734   4.302   2.791
10787TIP3   OH232301   1.964   0.188   5.136
10787TIP3    H132302   2.047   0.233   5.148
10787TIP3    H232303   1.972   0.143   5.052
10788TIP3   OH232304   0.301   7.062   1.903
10788TIP3    H132305   0.330   7.139   1.855
10788TIP3    H232306   0.296   7.090   1.994
10789TIP3   OH232307   0.646   6.324   5.872
10789TIP3    H132308   0.608   6.237   5.885
10789TIP3    H232309   0.724   6.309   5.818
10790TIP3   OH232310   5.919   7.640   1.100
10790TIP3    H132311   5.894   7.726   1.065
10790TIP3    H232312   5.852   7.580   1.067
10791TIP3   OH232313   2.126   6.506   2.950
10791TIP3    H132314   2.150   6.518   3.043
10791TIP3    H232315   2.044   6.555   2.941
10792TIP3   OH232316   0.602   1.297   6.730
10792TIP3    H132317   0.575   1.207   6.745
10792TIP3    H232318   0.662   1.293   6.656
10793TIP3   OH232319   4.932   0.585   3.801
10793TIP3    H132320   4.916   0.551   3.712
10793TIP3    H232321   4.960   0.675   3.788
10794TIP3   OH232322   2.925   3.205   4.308
10794TIP3    H132323   2.925   3.160   4.223
10794TIP3    H232324   2.939   3.297   4.286
10795TIP3   OH232325   5.654   1.698   1.050
10795TIP3    H132326   5.563   1.727   1.044
10795TIP3    H232327   5.690   1.714   0.963
10796TIP3   OH232328   4.658   4.570   0.529
10796TIP3    H132329   4.652   4.639   0.595
10796TIP3    H232330   4.739   4.590   0.481
10797TIP3   OH232331   7.529   2.661   2.660
10797TIP3    H132332   7.620   2.639   2.643
10797TIP3    H232333   7.511   2.736   2.603
10798TIP3   OH232334   8.200   7.629   1.568
10798TIP3    H132335   8.243   7.554   1.527
10798TIP3    H232336   8.222   7.622   1.661
10799TIP3   OH232337   4.192   3.679   5.879
10799TIP3    H132338   4.198   3.724   5.963
10799TIP3    H232339   4.158   3.746   5.819
10800TIP3   OH232340   4.946   4.438   6.687
10800TIP3    H132341   5.026   4.435   6.739
10800TIP3    H232342   4.969   4.488   6.609
10801TIP3   OH232343   1.571   2.110   2.903
10801TIP3    H132344   1.545   2.199   2.926
10801TIP3    H232345   1.529   2.093   2.819
10802TIP3   OH232346   3.905   4.852   6.542
10802TIP3    H132347   3.911   4.811   6.628
10802TIP3    H232348   3.826   4.816   6.502
10803TIP3   OH232349   5.372   4.567   2.137
10803TIP3    H132350   5.425   4.496   2.102
10803TIP3    H232351   5.425   4.604   2.207
10804TIP3   OH232352   1.956   6.875   5.989
10804TIP3    H132353   2.042   6.859   6.028
10804TIP3    H232354   1.963   6.963   5.950
10805TIP3   OH232355   6.570   7.452   4.043
10805TIP3    H132356   6.535   7.509   3.974
10805TIP3    H232357   6.632   7.508   4.090
10806TIP3   OH232358   4.926   2.229   4.642
10806TIP3    H132359   4.904   2.204   4.552
10806TIP3    H232360   4.902   2.322   4.647
10807TIP3   OH232361   4.956   2.777   4.526
10807TIP3    H132362   5.004   2.700   4.557
10807TIP3    H232363   4.940   2.759   4.433
10808TIP3   OH232364   5.892   2.936   1.575
10808TIP3    H132365   5.873   2.953   1.482
10808TIP3    H232366   5.830   2.867   1.599
10809TIP3   OH232367   3.270   7.458   5.164
10809TIP3    H132368   3.228   7.395   5.105
10809TIP3    H232369   3.355   7.419   5.182
10810TIP3   OH232370   2.145   6.074   1.915
10810TIP3    H132371   2.097   6.129   1.976
10810TIP3    H232372   2.109   6.096   1.829
10811TIP3   OH232373   0.189   3.597   1.283
10811TIP3    H132374   0.247   3.531   1.246
10811TIP3    H232375   0.106   3.552   1.296
10812TIP3   OH232376   8.386   6.536   3.393
10812TIP3    H132377   8.396   6.539   3.298
10812TIP3    H232378   8.344   6.451   3.410
10813TIP3   OH232379   4.561   1.353   0.882
10813TIP3    H132380   4.637   1.405   0.858
10813TIP3    H232381   4.574   1.332   0.975
10814TIP3   OH232382   2.225   6.796   5.647
10814TIP3    H132383   2.274   6.810   5.566
10814TIP3    H232384   2.153   6.739   5.622
10815TIP3   OH232385   0.213   1.950   2.661
10815TIP3    H132386   0.290   2.005   2.672
10815TIP3    H232387   0.144   2.011   2.632
10816TIP3   OH232388   1.659   1.437   5.953
10816TIP3    H132389   1.673   1.343   5.945
10816TIP3    H232390   1.619   1.463   5.870
10817TIP3   OH232391   3.010   5.105   3.234
10817TIP3    H132392   3.097   5.090   3.196
10817TIP3    H232393   2.980   5.186   3.194
10818TIP3   OH232394   6.886   6.307   0.606
10818TIP3    H132395   6.827   6.382   0.618
10818TIP3    H232396   6.860   6.245   0.674
10819TIP3   OH232397   7.948   6.184   0.363
10819TIP3    H132398   7.922   6.274   0.384
10819TIP3    H232399   7.930   6.175   0.270
10820TIP3   OH232400   3.278   2.162   1.122
10820TIP3    H132401   3.232   2.108   1.185
10820TIP3    H232402   3.369   2.131   1.125
10821TIP3   OH232403   3.370   7.159   5.769
10821TIP3    H132404   3.381   7.161   5.674
10821TIP3    H232405   3.308   7.230   5.786
10822TIP3   OH232406   1.805   5.136   1.855
10822TIP3    H132407   1.865   5.078   1.808
10822TIP3    H232408   1.841   5.224   1.841
10823TIP3   OH232409   6.180   5.876   0.940
10823TIP3    H132410   6.193   5.823   1.019
10823TIP3    H232411   6.123   5.823   0.884
10824TIP3   OH232412   2.131   2.103   5.324
10824TIP3    H132413   2.214   2.144   5.346
10824TIP3    H232414   2.073   2.176   5.302
10825TIP3   OH232415   6.584   0.669   0.656
10825TIP3    H132416   6.619   0.724   0.726
10825TIP3    H232417   6.584   0.726   0.579
10826TIP3   OH232418   5.467   4.337   2.682
10826TIP3    H132419   5.398   4.281   2.647
10826TIP3    H232420   5.457   4.331   2.777
10827TIP3   OH232421   6.037   7.307   5.390
10827TIP3    H132422   5.949   7.274   5.410
10827TIP3    H232423   6.073   7.244   5.327
10828TIP3   OH232424   3.492   7.840   4.978
10828TIP3    H132425   3.398   7.857   4.975
10828TIP3    H232426   3.503   7.776   5.048
10829TIP3   OH232427   2.705   0.082   4.078
10829TIP3    H132428   2.640   0.015   4.096
10829TIP3    H232429   2.738   0.062   3.990
10830TIP3   OH232430   1.896   2.656   6.805
10830TIP3    H132431   1.937   2.686   6.886
10830TIP3    H232432   1.857   2.572   6.828
10831TIP3   OH232433   8.205   6.773   1.457
10831TIP3    H132434   8.190   6.704   1.392
10831TIP3    H232435   8.140   6.756   1.525
10832TIP3   OH232436   6.134   1.134   4.006
10832TIP3    H132437   6.181   1.094   4.080
10832TIP3    H232438   6.185   1.212   3.984
10833TIP3   OH232439   6.964   2.429   0.470
10833TIP3    H132440   6.917   2.454   0.390
10833TIP3    H232441   6.926   2.484   0.539
10834TIP3   OH232442   4.863   7.548   3.088
10834TIP3    H132443   4.798   7.510   3.029
10834TIP3    H232444   4.947   7.536   3.042
10835TIP3   OH232445   3.776   4.139   5.893
10835TIP3    H132446   3.755   4.179   5.977
10835TIP3    H232447   3.701   4.160   5.837
10836TIP3   OH232448   3.821   6.912   4.712
10836TIP3    H132449   3.763   6.987   4.730
10836TIP3    H232450   3.783   6.871   4.635
10837TIP3   OH232451   1.907   0.520   5.909
10837TIP3    H132452   1.867   0.595   5.864
10837TIP3    H232453   1.969   0.484   5.845
10838TIP3   OH232454   7.916   6.184   2.799
10838TIP3    H132455   7.959   6.203   2.716
10838TIP3    H232456   7.965   6.234   2.864
10839TIP3   OH232457   0.172   6.436   1.552
10839TIP3    H132458   0.143   6.521   1.584
10839TIP3    H232459   0.237   6.407   1.616
10840TIP3   OH232460   2.152   1.710   4.505
10840TIP3    H132461   2.073   1.683   4.457
10840TIP3    H232462   2.222   1.657   4.466
10841TIP3   OH232463   4.511   1.662   3.440
10841TIP3    H132464   4.578   1.724   3.468
10841TIP3    H232465   4.489   1.613   3.519
10842TIP3   OH232466   4.972   1.306   3.081
10842TIP3    H132467   4.911   1.238   3.110
10842TIP3    H232468   4.984   1.361   3.158
10843TIP3   OH232469   7.409   3.570   1.950
10843TIP3    H132470   7.409   3.526   2.035
10843TIP3    H232471   7.416   3.499   1.887
10844TIP3   OH232472   4.201   4.131   0.333
10844TIP3    H132473   4.285   4.158   0.296
10844TIP3    H232474   4.208   4.150   0.426
10845TIP3   OH232475   0.515   4.059   5.947
10845TIP3    H132476   0.521   4.036   6.039
10845TIP3    H232477   0.570   3.995   5.903
10846TIP3   OH232478   7.456   2.670   5.034
10846TIP3    H132479   7.389   2.606   5.058
10846TIP3    H232480   7.424   2.708   4.952
10847TIP3   OH232481   3.560   1.393   1.079
10847TIP3    H132482   3.614   1.314   1.088
10847TIP3    H232483   3.479   1.372   1.125
10848TIP3   OH232484   3.064   6.420   1.960
10848TIP3    H132485   3.027   6.482   2.022
10848TIP3    H232486   3.012   6.340   1.970
10849TIP3   OH232487   4.867   1.529   2.968
10849TIP3    H132488   4.887   1.447   3.015
10849TIP3    H232489   4.862   1.595   3.037
10850TIP3   OH232490   2.883   1.480   2.712
10850TIP3    H132491   2.824   1.550   2.739
10850TIP3    H232492   2.870   1.472   2.618
10851TIP3   OH232493   4.471   3.383   6.680
10851TIP3    H132494   4.456   3.448   6.611
10851TIP3    H232495   4.492   3.303   6.632
10852TIP3   OH232496   3.121   7.740   3.075
10852TIP3    H132497   3.096   7.803   3.143
10852TIP3    H232498   3.129   7.657   3.121
10853TIP3   OH232499   4.918   2.728   0.687
10853TIP3    H132500   4.843   2.724   0.745
10853TIP3    H232501   4.880   2.738   0.599
10854TIP3   OH232502   0.161   5.908   0.661
10854TIP3    H132503   0.100   5.838   0.640
10854TIP3    H232504   0.218   5.914   0.584
10855TIP3   OH232505   3.302   5.672   4.241
10855TIP3    H132506   3.302   5.739   4.173
10855TIP3    H232507   3.285   5.590   4.194
10856TIP3   OH232508   1.267   5.689   1.204
10856TIP3    H132509   1.269   5.771   1.155
10856TIP3    H232510   1.305   5.624   1.145
10857TIP3   OH232511   4.201   6.623   6.268
10857TIP3    H132512   4.268   6.561   6.296
10857TIP3    H232513   4.138   6.569   6.220
10858TIP3   OH232514   1.024   1.759   4.250
10858TIP3    H132515   1.074   1.685   4.285
10858TIP3    H232516   1.035   1.752   4.155
10859TIP3   OH232517   2.321   5.613   4.271
10859TIP3    H132518   2.291   5.704   4.280
10859TIP3    H232519   2.373   5.614   4.190
10860TIP3   OH232520   7.537   7.392   0.361
10860TIP3    H132521   7.455   7.412   0.316
10860TIP3    H232522   7.537   7.448   0.438
10861TIP3   OH232523   3.208   6.537   2.354
10861TIP3    H132524   3.238   6.627   2.364
10861TIP3    H232525   3.112   6.543   2.354
10862TIP3   OH232526   5.924   4.008   0.632
10862TIP3    H132527   5.989   4.077   0.625
10862TIP3    H232528   5.841   4.051   0.608
10863TIP3   OH232529   5.509   1.452   1.670
10863TIP3    H132530   5.568   1.490   1.734
10863TIP3    H232531   5.565   1.432   1.594
10864TIP3   OH232532   3.326   3.938   6.849
10864TIP3    H132533   3.396   3.942   6.784
10864TIP3    H232534   3.331   3.849   6.884
10865TIP3   OH232535   2.359   1.322   5.494
10865TIP3    H132536   2.274   1.337   5.453
10865TIP3    H232537   2.350   1.354   5.583
10866TIP3   OH232538   1.891   6.322   2.330
10866TIP3    H132539   1.940   6.294   2.408
10866TIP3    H232540   1.900   6.249   2.269
10867TIP3   OH232541   7.357   5.593   3.369
10867TIP3    H132542   7.341   5.558   3.457
10867TIP3    H232543   7.352   5.688   3.379
10868TIP3   OH232544   2.323   2.204   4.418
10868TIP3    H132545   2.381   2.278   4.432
10868TIP3    H232546   2.284   2.219   4.332
10869TIP3   OH232547   1.015   7.397   1.070
10869TIP3    H132548   0.971   7.317   1.041
10869TIP3    H232549   1.100   7.367   1.102
10870TIP3   OH232550   0.878   0.782   0.752
10870TIP3    H132551   0.791   0.743   0.748
10870TIP3    H232552   0.871   0.850   0.819
10871TIP3   OH232553   7.811   0.039   0.783
10871TIP3    H132554   7.773  -0.006   0.858
10871TIP3    H232555   7.839   0.124   0.818
10872TIP3   OH232556   4.225   2.573   5.326
10872TIP3    H132557   4.286   2.645   5.314
10872TIP3    H232558   4.150   2.611   5.372
10873TIP3   OH232559   3.695   1.426   6.788
10873TIP3    H132560   3.787   1.426   6.761
10873TIP3    H232561   3.689   1.499   6.850
10874TIP3   OH232562   1.305   6.980   1.069
10874TIP3    H132563   1.382   6.992   1.015
10874TIP3    H232564   1.312   7.048   1.136
10875TIP3   OH232565   6.679   2.460   3.335
10875TIP3    H132566   6.759   2.510   3.352
10875TIP3    H232567   6.622   2.481   3.409
10876TIP3   OH232568   8.104   5.506   4.096
10876TIP3    H132569   8.013   5.532   4.081
10876TIP3    H232570   8.133   5.560   4.169
10877TIP3   OH232571   3.692   2.204   3.656
10877TIP3    H132572   3.686   2.191   3.561
10877TIP3    H232573   3.617   2.259   3.678
10878TIP3   OH232574   3.119   1.045   0.388
10878TIP3    H132575   3.043   1.056   0.445
10878TIP3    H232576   3.178   0.989   0.438
10879TIP3   OH232577   0.137   4.996   5.689
10879TIP3    H132578   0.231   4.988   5.703
10879TIP3    H232579   0.103   4.908   5.701
10880TIP3   OH232580   6.039   5.670   1.243
10880TIP3    H132581   6.058   5.597   1.183
10880TIP3    H232582   5.953   5.702   1.215
10881TIP3   OH232583   6.710   4.978   4.355
10881TIP3    H132584   6.634   5.033   4.337
10881TIP3    H232585   6.777   5.039   4.386
10882TIP3   OH232586   8.031   2.943   6.689
10882TIP3    H132587   7.987   3.027   6.680
10882TIP3    H232588   7.966   2.886   6.729
10883TIP3   OH232589   0.538   6.881   0.157
10883TIP3    H132590   0.522   6.812   0.093
10883TIP3    H232591   0.467   6.944   0.143
10884TIP3   OH232592   0.675   5.929   3.730
10884TIP3    H132593   0.770   5.937   3.744
10884TIP3    H232594   0.636   5.963   3.811
10885TIP3   OH232595   1.312   4.000   1.375
10885TIP3    H132596   1.225   4.027   1.345
10885TIP3    H232597   1.344   4.074   1.426
10886TIP3   OH232598   0.710   4.892   0.553
10886TIP3    H132599   0.655   4.880   0.475
10886TIP3    H232600   0.755   4.809   0.563
10887TIP3   OH232601   2.133   0.426   5.049
10887TIP3    H132602   2.220   0.385   5.044
10887TIP3    H232603   2.095   0.412   4.963
10888TIP3   OH232604   6.158   1.973   4.729
10888TIP3    H132605   6.086   1.916   4.702
10888TIP3    H232606   6.139   2.057   4.687
10889TIP3   OH232607   1.632   3.163   2.724
10889TIP3    H132608   1.691   3.211   2.666
10889TIP3    H232609   1.665   3.180   2.812
10890TIP3   OH232610   4.267   1.468   3.128
10890TIP3    H132611   4.225   1.387   3.098
10890TIP3    H232612   4.229   1.484   3.214
10891TIP3   OH232613   1.501   6.755   3.604
10891TIP3    H132614   1.551   6.725   3.679
10891TIP3    H232615   1.502   6.681   3.542
10892TIP3   OH232616   5.965   1.639   1.894
10892TIP3    H132617   6.006   1.699   1.832
10892TIP3    H232618   5.974   1.682   1.979
10893TIP3   OH232619   2.264   2.678   4.733
10893TIP3    H132620   2.357   2.686   4.709
10893TIP3    H232621   2.257   2.728   4.815
10894TIP3   OH232622   3.357   7.177   6.490
10894TIP3    H132623   3.406   7.253   6.520
10894TIP3    H232624   3.424   7.110   6.475
10895TIP3   OH232625   7.889   6.700   0.517
10895TIP3    H132626   7.917   6.643   0.588
10895TIP3    H232627   7.802   6.731   0.543
10896TIP3   OH232628   0.183   2.139   0.316
10896TIP3    H132629   0.239   2.188   0.257
10896TIP3    H232630   0.229   2.056   0.329
10897TIP3   OH232631   4.503   4.867   0.477
10897TIP3    H132632   4.453   4.947   0.462
10897TIP3    H232633   4.467   4.831   0.558
10898TIP3   OH232634   3.305   1.610   1.094
10898TIP3    H132635   3.382   1.666   1.102
10898TIP3    H232636   3.334   1.525   1.127
10899TIP3   OH232637   5.952  -0.045   2.350
10899TIP3    H132638   5.970   0.031   2.295
10899TIP3    H232639   5.910  -0.009   2.428
10900TIP3   OH232640   3.744   4.002   4.435
10900TIP3    H132641   3.718   4.031   4.347
10900TIP3    H232642   3.790   3.919   4.420
10901TIP3   OH232643   2.105   3.675   4.107
10901TIP3    H132644   2.023   3.635   4.135
10901TIP3    H232645   2.172   3.630   4.159
10902TIP3   OH232646   2.796   6.962   6.144
10902TIP3    H132647   2.813   7.050   6.109
10902TIP3    H232648   2.724   6.929   6.090
10903TIP3   OH232649   4.646   4.295   1.613
10903TIP3    H132650   4.577   4.351   1.649
10903TIP3    H232651   4.703   4.355   1.564
10904TIP3   OH232652   0.225   6.349   0.920
10904TIP3    H132653   0.186   6.275   0.874
10904TIP3    H232654   0.153   6.411   0.931
10905TIP3   OH232655   2.477   5.604   0.909
10905TIP3    H132656   2.423   5.602   0.988
10905TIP3    H232657   2.516   5.517   0.906
10906TIP3   OH232658   4.345   4.986   2.451
10906TIP3    H132659   4.360   4.942   2.367
10906TIP3    H232660   4.253   5.012   2.448
10907TIP3   OH232661   3.511   1.777   1.218
10907TIP3    H132662   3.593   1.730   1.207
10907TIP3    H232663   3.455   1.718   1.269
10908TIP3   OH232664   4.287   6.607   1.846
10908TIP3    H132665   4.258   6.698   1.846
10908TIP3    H232666   4.268   6.576   1.758
10909TIP3   OH232667   4.161   5.985   5.324
10909TIP3    H132668   4.236   5.948   5.371
10909TIP3    H232669   4.155   5.932   5.244
10910TIP3   OH232670   6.522   3.523   0.849
10910TIP3    H132671   6.474   3.562   0.776
10910TIP3    H232672   6.572   3.595   0.887
10911TIP3   OH232673   7.921   1.539   1.637
10911TIP3    H132674   7.911   1.633   1.649
10911TIP3    H232675   8.009   1.519   1.670
10912TIP3   OH232676   1.058   3.271   5.273
10912TIP3    H132677   1.090   3.241   5.187
10912TIP3    H232678   0.978   3.220   5.287
10913TIP3   OH232679   4.450   1.816   4.759
10913TIP3    H132680   4.534   1.809   4.804
10913TIP3    H232681   4.441   1.908   4.737
10914TIP3   OH232682   3.925   7.310   4.020
10914TIP3    H132683   3.830   7.310   4.033
10914TIP3    H232684   3.940   7.240   3.957
10915TIP3   OH232685   7.184   5.453   0.169
10915TIP3    H132686   7.239   5.438   0.246
10915TIP3    H232687   7.172   5.548   0.166
10916TIP3   OH232688   5.832   2.049   5.491
10916TIP3    H132689   5.898   2.081   5.552
10916TIP3    H232690   5.772   1.997   5.545
10917TIP3   OH232691   4.979   5.302   1.474
10917TIP3    H132692   4.899   5.353   1.468
10917TIP3    H232693   4.955   5.216   1.441
10918TIP3   OH232694   2.117   1.157   4.725
10918TIP3    H132695   2.059   1.217   4.771
10918TIP3    H232696   2.082   1.153   4.636
10919TIP3   OH232697   4.962   4.606   1.023
10919TIP3    H132698   4.869   4.598   1.004
10919TIP3    H232699   4.997   4.656   0.949
10920TIP3   OH232700   4.132   4.276   6.515
10920TIP3    H132701   4.078   4.210   6.558
10920TIP3    H232702   4.099   4.359   6.548
10921TIP3   OH232703   6.163   6.375   0.272
10921TIP3    H132704   6.086   6.419   0.237
10921TIP3    H232705   6.181   6.420   0.355
10922TIP3   OH232706   1.309   3.206   2.383
10922TIP3    H132707   1.304   3.195   2.288
10922TIP3    H232708   1.227   3.250   2.406
10923TIP3   OH232709   4.208   1.302   4.736
10923TIP3    H132710   4.278   1.293   4.801
10923TIP3    H232711   4.253   1.327   4.656
10924TIP3   OH232712   1.858   1.859   1.800
10924TIP3    H132713   1.805   1.816   1.866
10924TIP3    H232714   1.946   1.861   1.838
10925TIP3   OH232715   2.226   6.097   0.339
10925TIP3    H132716   2.241   6.082   0.432
10925TIP3    H232717   2.160   6.033   0.314
10926TIP3   OH232718   5.280   6.250   5.683
10926TIP3    H132719   5.362   6.292   5.710
10926TIP3    H232720   5.266   6.279   5.593
10927TIP3   OH232721   4.536   5.998   3.606
10927TIP3    H132722   4.487   6.079   3.594
10927TIP3    H232723   4.507   5.941   3.535
10928TIP3   OH232724   5.241   0.545   4.209
10928TIP3    H132725   5.292   0.537   4.290
10928TIP3    H232726   5.260   0.633   4.178
10929TIP3   OH232727   1.374   2.081   5.455
10929TIP3    H132728   1.433   2.009   5.434
10929TIP3    H232729   1.338   2.059   5.541
10930TIP3   OH232730   7.282   3.372   5.334
10930TIP3    H132731   7.283   3.278   5.317
10930TIP3    H232732   7.257   3.411   5.251
10931TIP3   OH232733   8.300   6.966   3.644
10931TIP3    H132734   8.305   7.036   3.579
10931TIP3    H232735   8.304   6.885   3.592
10932TIP3   OH232736   1.144   5.067   1.016
10932TIP3    H132737   1.084   5.070   1.091
10932TIP3    H232738   1.231   5.082   1.054
10933TIP3   OH232739   4.059   3.070   5.887
10933TIP3    H132740   3.997   3.138   5.912
10933TIP3    H232741   4.139   3.093   5.934
10934TIP3   OH232742   2.224   2.847   4.513
10934TIP3    H132743   2.247   2.788   4.585
10934TIP3    H232744   2.293   2.833   4.449
10935TIP3   OH232745   3.633   4.898   4.552
10935TIP3    H132746   3.587   4.890   4.635
10935TIP3    H232747   3.594   4.832   4.496
10936TIP3   OH232748   3.885   4.401   4.533
10936TIP3    H132749   3.859   4.356   4.613
10936TIP3    H232750   3.842   4.353   4.462
10937TIP3   OH232751   7.113   5.134   2.389
10937TIP3    H132752   7.180   5.194   2.423
10937TIP3    H232753   7.123   5.055   2.443
10938TIP3   OH232754   4.265   4.558   1.327
10938TIP3    H132755   4.219   4.585   1.247
10938TIP3    H232756   4.357   4.554   1.301
10939TIP3   OH232757   6.812   0.401   2.890
10939TIP3    H132758   6.875   0.335   2.916
10939TIP3    H232759   6.729   0.371   2.925
10940TIP3   OH232760   2.202   1.983   6.253
10940TIP3    H132761   2.269   1.914   6.261
10940TIP3    H232762   2.123   1.945   6.291
10941TIP3   OH232763   0.097   1.480   1.021
10941TIP3    H132764   0.030   1.519   1.077
10941TIP3    H232765   0.055   1.404   0.981
10942TIP3   OH232766   1.170   0.235   0.257
10942TIP3    H132767   1.214   0.172   0.314
10942TIP3    H232768   1.193   0.320   0.294
10943TIP3   OH232769   7.140   4.120   4.895
10943TIP3    H132770   7.108   4.086   4.811
10943TIP3    H232771   7.061   4.141   4.944
10944TIP3   OH232772   4.012   2.672   3.361
10944TIP3    H132773   4.025   2.763   3.385
10944TIP3    H232774   4.100   2.637   3.349
10945TIP3   OH232775   5.222   1.343   4.735
10945TIP3    H132776   5.285   1.395   4.786
10945TIP3    H232777   5.183   1.405   4.675
10946TIP3   OH232778   3.975   2.073   3.891
10946TIP3    H132779   4.043   2.052   3.827
10946TIP3    H232780   3.986   2.166   3.909
10947TIP3   OH232781   1.616   0.091   4.745
10947TIP3    H132782   1.581   0.177   4.724
10947TIP3    H232783   1.711   0.102   4.741
10948TIP3   OH232784   2.254   6.307   4.716
10948TIP3    H132785   2.338   6.316   4.672
10948TIP3    H232786   2.196   6.369   4.671
10949TIP3   OH232787   6.705   1.416   2.459
10949TIP3    H132788   6.664   1.431   2.373
10949TIP3    H232789   6.791   1.380   2.438
10950TIP3   OH232790   5.319   7.354   2.477
10950TIP3    H132791   5.396   7.360   2.421
10950TIP3    H232792   5.346   7.394   2.560
10951TIP3   OH232793   5.785   5.904   3.503
10951TIP3    H132794   5.736   5.829   3.471
10951TIP3    H232795   5.810   5.881   3.593
10952TIP3   OH232796   6.035   4.433   5.270
10952TIP3    H132797   6.121   4.454   5.307
10952TIP3    H232798   5.974   4.488   5.319
10953TIP3   OH232799   6.146   1.110   6.749
10953TIP3    H132800   6.100   1.060   6.816
10953TIP3    H232801   6.103   1.086   6.667
10954TIP3   OH232802   5.161   3.974   2.146
10954TIP3    H132803   5.192   3.895   2.190
10954TIP3    H232804   5.199   3.969   2.059
10955TIP3   OH232805   0.328   4.293   3.502
10955TIP3    H132806   0.303   4.285   3.410
10955TIP3    H232807   0.251   4.262   3.550
10956TIP3   OH232808   0.489   2.588   1.385
10956TIP3    H132809   0.543   2.547   1.453
10956TIP3    H232810   0.513   2.542   1.305
10957TIP3   OH232811   8.328   6.735   5.049
10957TIP3    H132812   8.306   6.654   5.003
10957TIP3    H232813   8.281   6.729   5.132
10958TIP3   OH232814   4.379   5.643   5.748
10958TIP3    H132815   4.441   5.582   5.786
10958TIP3    H232816   4.296   5.624   5.792
10959TIP3   OH232817   0.565   7.818   3.869
10959TIP3    H132818   0.570   7.870   3.789
10959TIP3    H232819   0.476   7.781   3.868
10960TIP3   OH232820   8.177   2.008   2.325
10960TIP3    H132821   8.108   1.950   2.358
10960TIP3    H232822   8.256   1.980   2.372
10961TIP3   OH232823   0.203   6.089   5.275
10961TIP3    H132824   0.169   6.026   5.339
10961TIP3    H232825   0.194   6.174   5.317
10962TIP3   OH232826   1.264   6.936   5.730
10962TIP3    H132827   1.271   6.920   5.635
10962TIP3    H232828   1.190   6.882   5.758
10963TIP3   OH232829   6.757   5.576   4.419
10963TIP3    H132830   6.837   5.573   4.471
10963TIP3    H232831   6.774   5.643   4.352
10964TIP3   OH232832   3.084   2.955   1.446
10964TIP3    H132833   3.158   2.965   1.386
10964TIP3    H232834   3.078   2.861   1.461
10965TIP3   OH232835   3.851   6.890   3.976
10965TIP3    H132836   3.878   6.891   4.068
10965TIP3    H232837   3.933   6.884   3.926
10966TIP3   OH232838   3.497   6.145   2.021
10966TIP3    H132839   3.426   6.132   2.085
10966TIP3    H232840   3.472   6.225   1.975
10967TIP3   OH232841   2.960   6.535   3.740
10967TIP3    H132842   3.040   6.554   3.690
10967TIP3    H232843   2.988   6.539   3.832
10968TIP3   OH232844   5.946   5.530   4.212
10968TIP3    H132845   5.906   5.485   4.287
10968TIP3    H232846   6.024   5.479   4.192
10969TIP3   OH232847   1.628   4.418   2.729
10969TIP3    H132848   1.615   4.329   2.697
10969TIP3    H232849   1.654   4.468   2.651
10970TIP3   OH232850   4.324   2.136   0.537
10970TIP3    H132851   4.312   2.057   0.485
10970TIP3    H232852   4.243   2.185   0.525
10971TIP3   OH232853   7.223   6.659   3.162
10971TIP3    H132854   7.188   6.631   3.246
10971TIP3    H232855   7.287   6.726   3.183
10972TIP3   OH232856   5.058   5.086   3.808
10972TIP3    H132857   5.103   5.003   3.825
10972TIP3    H232858   5.012   5.105   3.890
10973TIP3   OH232859   1.424   3.338   5.862
10973TIP3    H132860   1.392   3.260   5.907
10973TIP3    H232861   1.455   3.305   5.777
10974TIP3   OH232862   0.572   0.268   5.408
10974TIP3    H132863   0.653   0.220   5.393
10974TIP3    H232864   0.558   0.318   5.328
10975TIP3   OH232865   8.048   7.422   6.376
10975TIP3    H132866   8.111   7.349   6.383
10975TIP3    H232867   7.968   7.388   6.417
10976TIP3   OH232868   1.442   0.407   6.675
10976TIP3    H132869   1.534   0.426   6.697
10976TIP3    H232870   1.393   0.439   6.751
10977TIP3   OH232871   1.820   2.098   3.189
10977TIP3    H132872   1.796   2.013   3.152
10977TIP3    H232873   1.882   2.134   3.126
10978TIP3   OH232874   6.890   3.636   4.419
10978TIP3    H132875   6.962   3.623   4.481
10978TIP3    H232876   6.838   3.707   4.456
10979TIP3   OH232877   1.218   0.206   3.061
10979TIP3    H132878   1.145   0.162   3.019
10979TIP3    H232879   1.203   0.299   3.044
10980TIP3   OH232880   4.340   2.238   2.688
10980TIP3    H132881   4.302   2.255   2.601
10980TIP3    H232882   4.270   2.257   2.749
10981TIP3   OH232883   4.284   6.622   3.345
10981TIP3    H132884   4.255   6.543   3.391
10981TIP3    H232885   4.212   6.643   3.285
10982TIP3   OH232886   6.095   5.971   3.062
10982TIP3    H132887   6.154   5.897   3.046
10982TIP3    H232888   6.032   5.938   3.126
10983TIP3   OH232889   0.919   3.635   1.749
10983TIP3    H132890   0.945   3.681   1.829
10983TIP3    H232891   0.924   3.542   1.772
10984TIP3   OH232892   2.597   5.592   0.156
10984TIP3    H132893   2.643   5.620   0.235
10984TIP3    H232894   2.557   5.509   0.179
10985TIP3   OH232895   3.728   1.126   4.682
10985TIP3    H132896   3.764   1.124   4.593
10985TIP3    H232897   3.797   1.165   4.735
10986TIP3   OH232898   8.304   6.999   4.041
10986TIP3    H132899   8.315   7.073   4.101
10986TIP3    H232900   8.293   6.923   4.098
10987TIP3   OH232901   3.735   2.669   2.069
10987TIP3    H132902   3.761   2.597   2.126
10987TIP3    H232903   3.645   2.691   2.096
10988TIP3   OH232904   2.797   3.402   5.120
10988TIP3    H132905   2.815   3.496   5.132
10988TIP3    H232906   2.883   3.363   5.107
10989TIP3   OH232907   4.835   6.936   2.370
10989TIP3    H132908   4.827   6.859   2.313
10989TIP3    H232909   4.885   6.999   2.318
10990TIP3   OH232910   4.342   7.580   2.763
10990TIP3    H132911   4.290   7.582   2.683
10990TIP3    H232912   4.402   7.506   2.751
10991TIP3   OH232913   3.484   2.552   0.670
10991TIP3    H132914   3.512   2.539   0.580
10991TIP3    H232915   3.497   2.645   0.687
10992TIP3   OH232916   6.167   1.307   6.488
10992TIP3    H132917   6.101   1.366   6.526
10992TIP3    H232918   6.209   1.266   6.563
10993TIP3   OH232919   6.356   0.417   3.034
10993TIP3    H132920   6.285   0.465   3.076
10993TIP3    H232921   6.319   0.386   2.951
10994TIP3   OH232922   5.197   1.246   6.710
10994TIP3    H132923   5.215   1.265   6.802
10994TIP3    H232924   5.219   1.154   6.699
10995TIP3   OH232925   7.482   6.559   3.122
10995TIP3    H132926   7.398   6.596   3.148
10995TIP3    H232927   7.541   6.577   3.195
10996TIP3   OH232928   2.116   3.504   5.155
10996TIP3    H132929   2.106   3.466   5.068
10996TIP3    H232930   2.030   3.541   5.175
10997TIP3   OH232931   6.845   1.566   6.626
10997TIP3    H132932   6.870   1.631   6.691
10997TIP3    H232933   6.749   1.571   6.622
10998TIP3   OH232934   6.280   6.836   1.241
10998TIP3    H132935   6.273   6.930   1.229
10998TIP3    H232936   6.333   6.806   1.166
10999TIP3   OH232937   7.934   0.995   2.912
10999TIP3    H132938   7.960   1.082   2.882
10999TIP3    H232939   8.013   0.942   2.906
11000TIP3   OH232940   3.817   2.891   3.375
11000TIP3    H132941   3.741   2.881   3.317
11000TIP3    H232942   3.847   2.802   3.391
11001TIP3   OH232943   0.771   3.542   1.379
11001TIP3    H132944   0.804   3.613   1.434
11001TIP3    H232945   0.676   3.551   1.382
11002TIP3   OH232946   0.937   5.484   6.349
11002TIP3    H132947   0.874   5.555   6.340
11002TIP3    H232948   0.923   5.429   6.272
11003TIP3   OH232949   4.316   5.385   0.373
11003TIP3    H132950   4.231   5.428   0.375
11003TIP3    H232951   4.335   5.364   0.464
11004TIP3   OH232952   3.317   2.347   0.009
11004TIP3    H132953   3.257   2.337   0.083
11004TIP3    H232954   3.400   2.374   0.048
11005TIP3   OH232955   2.158   3.777   5.302
11005TIP3    H132956   2.160   3.681   5.304
11005TIP3    H232957   2.168   3.802   5.394
11006TIP3   OH232958   2.391   2.872   5.266
11006TIP3    H132959   2.461   2.818   5.304
11006TIP3    H232960   2.381   2.945   5.328
11007TIP3   OH232961   3.338   5.212   1.397
11007TIP3    H132962   3.365   5.124   1.423
11007TIP3    H232963   3.417   5.253   1.363
11008TIP3   OH232964   0.769   5.083   4.022
11008TIP3    H132965   0.764   5.171   3.986
11008TIP3    H232966   0.715   5.030   3.963
11009TIP3   OH232967   4.631   4.385   5.472
11009TIP3    H132968   4.693   4.423   5.411
11009TIP3    H232969   4.648   4.290   5.467
11010TIP3   OH232970   7.703   3.927   5.847
11010TIP3    H132971   7.655   3.913   5.765
11010TIP3    H232972   7.639   3.966   5.906
11011TIP3   OH232973   0.014   0.442   0.870
11011TIP3    H132974  -0.017   0.352   0.866
11011TIP3    H232975  -0.049   0.491   0.817
11012TIP3   OH232976   3.051   3.286   6.015
11012TIP3    H132977   3.076   3.346   6.085
11012TIP3    H232978   3.076   3.199   6.048
11013TIP3   OH232979   4.474   5.393   5.966
11013TIP3    H132980   4.479   5.301   5.992
11013TIP3    H232981   4.540   5.403   5.898
11014TIP3   OH232982   1.733   4.929   3.180
11014TIP3    H132983   1.779   5.010   3.160
11014TIP3    H232984   1.801   4.862   3.176
11015TIP3   OH232985   5.225   0.856   6.233
11015TIP3    H132986   5.163   0.848   6.161
11015TIP3    H232987   5.309   0.873   6.191
11016TIP3   OH232988   5.482   0.412   0.746
11016TIP3    H132989   5.434   0.430   0.665
11016TIP3    H232990   5.552   0.353   0.720
11017TIP3   OH232991   5.229   2.960   6.066
11017TIP3    H132992   5.237   2.888   6.003
11017TIP3    H232993   5.253   2.921   6.150
11018TIP3   OH232994   6.132   5.392   6.331
11018TIP3    H132995   6.105   5.305   6.304
11018TIP3    H232996   6.191   5.378   6.405
11019TIP3   OH232997   7.293   5.612   5.504
11019TIP3    H132998   7.278   5.702   5.477
11019TIP3    H232999   7.213   5.566   5.481
11020TIP3   OH233000   7.315   5.487   6.442
11020TIP3    H133001   7.296   5.564   6.389
11020TIP3    H233002   7.392   5.511   6.493
11021TIP3   OH233003   1.316   5.043   1.227
11021TIP3    H133004   1.389   4.981   1.226
11021TIP3    H233005   1.352   5.121   1.271
11022TIP3   OH233006   3.404   7.724   3.271
11022TIP3    H133007   3.438   7.675   3.197
11022TIP3    H233008   3.387   7.658   3.338
11023TIP3   OH233009   1.652   2.513   5.169
11023TIP3    H133010   1.614   2.556   5.092
11023TIP3    H233011   1.695   2.584   5.217
11024TIP3   OH233012   7.146   1.875   4.137
11024TIP3    H133013   7.130   1.915   4.223
11024TIP3    H233014   7.060   1.874   4.095
11025TIP3   OH233015   6.058   4.466   4.313
11025TIP3    H133016   6.097   4.542   4.355
11025TIP3    H233017   6.075   4.479   4.220
11026TIP3   OH233018   2.803   3.714   5.224
11026TIP3    H133019   2.878   3.767   5.196
11026TIP3    H233020   2.729   3.774   5.218
11027TIP3   OH233021   2.622   5.972   1.476
11027TIP3    H133022   2.534   5.949   1.505
11027TIP3    H233023   2.634   5.925   1.394
11028TIP3   OH233024   4.174   4.911   6.582
11028TIP3    H133025   4.094   4.889   6.534
11028TIP3    H233026   4.187   5.004   6.566
11029TIP3   OH233027   5.064   6.314   1.689
11029TIP3    H133028   5.142   6.276   1.649
11029TIP3    H233029   5.090   6.404   1.711
11030TIP3   OH233030   3.168   3.149   1.165
11030TIP3    H133031   3.229   3.081   1.194
11030TIP3    H233032   3.211   3.190   1.090
11031TIP3   OH233033   5.211   1.784   0.646
11031TIP3    H133034   5.296   1.812   0.610
11031TIP3    H233035   5.161   1.865   0.656
11032TIP3   OH233036   4.543   6.969   6.813
11032TIP3    H133037   4.564   7.052   6.771
11032TIP3    H233038   4.537   6.989   6.906
11033TIP3   OH233039   6.034   1.922   6.354
11033TIP3    H133040   6.035   1.847   6.294
11033TIP3    H233041   6.016   1.884   6.440
11034TIP3   OH233042   3.442   0.243   0.809
11034TIP3    H133043   3.378   0.257   0.739
11034TIP3    H233044   3.513   0.194   0.767
11035TIP3   OH233045   3.099   1.639   4.148
11035TIP3    H133046   3.020   1.681   4.182
11035TIP3    H233047   3.157   1.632   4.224
11036TIP3   OH233048   1.102   0.762   2.129
11036TIP3    H133049   1.055   0.688   2.090
11036TIP3    H233050   1.085   0.835   2.070
11037TIP3   OH233051   4.389   2.546   3.716
11037TIP3    H133052   4.397   2.635   3.751
11037TIP3    H233053   4.297   2.523   3.729
11038TIP3   OH233054   3.549   7.561   5.076
11038TIP3    H133055   3.463   7.554   5.036
11038TIP3    H233056   3.605   7.505   5.022
11039TIP3   OH233057   3.495   6.814   2.629
11039TIP3    H133058   3.591   6.817   2.631
11039TIP3    H233059   3.473   6.740   2.686
11040TIP3   OH233060   1.076   2.795   2.795
11040TIP3    H133061   1.074   2.850   2.716
11040TIP3    H233062   0.990   2.809   2.835
11041TIP3   OH233063   1.056   2.588   5.804
11041TIP3    H133064   1.059   2.560   5.896
11041TIP3    H233065   1.107   2.668   5.801
11042TIP3   OH233066   1.768   2.123   2.246
11042TIP3    H133067   1.829   2.048   2.242
11042TIP3    H233068   1.785   2.163   2.331
11043TIP3   OH233069   7.000   4.353   1.419
11043TIP3    H133070   6.946   4.402   1.357
11043TIP3    H233071   6.981   4.393   1.504
11044TIP3   OH233072   0.958   3.948   0.986
11044TIP3    H133073   0.879   3.913   1.028
11044TIP3    H233074   0.927   3.979   0.901
11045TIP3   OH233075   8.185   0.904   1.952
11045TIP3    H133076   8.266   0.919   1.903
11045TIP3    H233077   8.123   0.968   1.917
11046TIP3   OH233078   5.528   3.772   0.934
11046TIP3    H133079   5.526   3.827   1.012
11046TIP3    H233080   5.548   3.831   0.862
11047TIP3   OH233081   6.483   4.941   3.843
11047TIP3    H133082   6.453   4.992   3.767
11047TIP3    H233083   6.527   5.005   3.899
11048TIP3   OH233084   0.774   7.786   2.182
11048TIP3    H133085   0.795   7.845   2.109
11048TIP3    H233086   0.848   7.726   2.186
11049TIP3   OH233087   4.040   6.015   1.955
11049TIP3    H133088   4.066   6.038   1.865
11049TIP3    H233089   4.014   6.098   1.994
11050TIP3   OH233090   2.954   0.209   1.989
11050TIP3    H133091   3.006   0.134   2.019
11050TIP3    H233092   2.869   0.172   1.964
11051TIP3   OH233093   4.717   2.926   0.065
11051TIP3    H133094   4.695   2.990   0.133
11051TIP3    H233095   4.639   2.871   0.058
11052TIP3   OH233096   4.810   0.728   5.264
11052TIP3    H133097   4.766   0.790   5.205
11052TIP3    H233098   4.846   0.783   5.334
11053TIP3   OH233099   0.262   6.257   0.514
11053TIP3    H133100   0.168   6.253   0.495
11053TIP3    H233101   0.267   6.289   0.605
11054TIP3   OH233102   0.100   7.519   2.300
11054TIP3    H133103   0.016   7.518   2.253
11054TIP3    H233104   0.148   7.445   2.265
11055TIP3   OH233105   1.652   4.570   1.943
11055TIP3    H133106   1.705   4.526   2.010
11055TIP3    H233107   1.591   4.502   1.913
11056TIP3   OH233108   7.784   6.139   6.766
11056TIP3    H133109   7.873   6.169   6.749
11056TIP3    H233110   7.743   6.212   6.812
11057TIP3   OH233111   2.422   5.115   6.406
11057TIP3    H133112   2.374   5.144   6.328
11057TIP3    H233113   2.501   5.075   6.372
11058TIP3   OH233114   2.290   0.472   2.829
11058TIP3    H133115   2.353   0.462   2.758
11058TIP3    H233116   2.236   0.547   2.803
11059TIP3   OH233117   0.068   1.426   5.085
11059TIP3    H133118   0.053   1.504   5.031
11059TIP3    H233119  -0.017   1.384   5.091
11060TIP3   OH233120   1.730   7.962   2.654
11060TIP3    H133121   1.711   7.950   2.561
11060TIP3    H233122   1.793   7.893   2.674
11061TIP3   OH233123   1.894   2.909   5.055
11061TIP3    H133124   1.872   2.960   5.133
11061TIP3    H233125   1.886   2.972   4.983
11062TIP3   OH233126   6.751   4.335   3.021
11062TIP3    H133127   6.791   4.257   2.983
11062TIP3    H233128   6.801   4.408   2.983
11063TIP3   OH233129   7.930   6.447   3.359
11063TIP3    H133130   7.854   6.503   3.344
11063TIP3    H233131   7.943   6.449   3.453
11064TIP3   OH233132   7.243   7.336   2.537
11064TIP3    H133133   7.227   7.326   2.443
11064TIP3    H233134   7.155   7.338   2.576
11065TIP3   OH233135   5.759   6.724   5.401
11065TIP3    H133136   5.761   6.809   5.357
11065TIP3    H233137   5.722   6.665   5.336
11066TIP3   OH233138   2.107   2.043   2.020
11066TIP3    H133139   2.118   2.138   2.018
11066TIP3    H233140   2.101   2.017   1.929
11067TIP3   OH233141   3.826   5.990   0.011
11067TIP3    H133142   3.750   6.038   0.042
11067TIP3    H233143   3.863   6.045  -0.059
11068TIP3   OH233144   3.188   7.174   5.210
11068TIP3    H133145   3.284   7.183   5.209
11068TIP3    H233146   3.162   7.219   5.290
11069TIP3   OH233147   3.462   6.983   2.863
11069TIP3    H133148   3.538   6.976   2.920
11069TIP3    H233149   3.484   6.929   2.787
11070TIP3   OH233150   2.217   6.227   3.191
11070TIP3    H133151   2.142   6.247   3.135
11070TIP3    H233152   2.231   6.306   3.243
11071TIP3   OH233153   6.671   0.093   5.319
11071TIP3    H133154   6.654   0.060   5.231
11071TIP3    H233155   6.751   0.049   5.346
11072TIP3   OH233156   7.971   0.088   6.416
11072TIP3    H133157   8.028   0.132   6.478
11072TIP3    H233158   7.948   0.155   6.352
11073TIP3   OH233159   4.067   6.343   4.080
11073TIP3    H133160   4.096   6.395   4.005
11073TIP3    H233161   4.096   6.254   4.060
11074TIP3   OH233162   5.906   0.485   6.643
11074TIP3    H133163   5.832   0.469   6.583
11074TIP3    H233164   5.983   0.457   6.594
11075TIP3   OH233165   8.216   2.137   5.888
11075TIP3    H133166   8.231   2.207   5.824
11075TIP3    H233167   8.152   2.174   5.949
11076TIP3   OH233168   2.830   0.195   0.656
11076TIP3    H133169   2.795   0.283   0.665
11076TIP3    H233170   2.753   0.138   0.659
11077TIP3   OH233171   3.247   1.666   2.251
11077TIP3    H133172   3.294   1.722   2.313
11077TIP3    H233173   3.262   1.706   2.166
11078TIP3   OH233174   1.017   3.595   4.509
11078TIP3    H133175   0.993   3.566   4.421
11078TIP3    H233176   1.052   3.517   4.551
11079TIP3   OH233177   3.606   6.722   6.779
11079TIP3    H133178   3.652   6.721   6.695
11079TIP3    H233179   3.644   6.795   6.826
11080TIP3   OH233180   0.017   5.659   5.956
11080TIP3    H133181   0.028   5.564   5.957
11080TIP3    H233182  -0.016   5.680   6.044
11081TIP3   OH233183   5.608   4.869   1.619
11081TIP3    H133184   5.532   4.928   1.611
11081TIP3    H233185   5.643   4.887   1.706
11082TIP3   OH233186   3.215   5.113   4.147
11082TIP3    H133187   3.236   5.056   4.073
11082TIP3    H233188   3.301   5.135   4.185
11083TIP3   OH233189   3.907   1.329   1.455
11083TIP3    H133190   3.992   1.288   1.438
11083TIP3    H233191   3.895   1.392   1.384
11084TIP3   OH233192   4.384   2.166   3.712
11084TIP3    H133193   4.417   2.076   3.706
11084TIP3    H233194   4.416   2.209   3.632
11085TIP3   OH233195   4.134   6.076   3.058
11085TIP3    H133196   4.167   6.165   3.044
11085TIP3    H233197   4.212   6.026   3.084
11086TIP3   OH233198   3.577   1.983   6.770
11086TIP3    H133199   3.548   2.022   6.853
11086TIP3    H233200   3.515   2.014   6.705
11087TIP3   OH233201   5.906   7.871   5.907
11087TIP3    H133202   5.846   7.831   5.844
11087TIP3    H233203   5.959   7.931   5.855
11088TIP3   OH233204   6.290   7.002   5.525
11088TIP3    H133205   6.264   7.082   5.479
11088TIP3    H233206   6.373   7.024   5.566
11089TIP3   OH233207   3.036   4.971   4.327
11089TIP3    H133208   3.087   5.003   4.253
11089TIP3    H233209   3.082   5.005   4.404
11090TIP3   OH233210   1.201   0.697   0.702
11090TIP3    H133211   1.180   0.790   0.709
11090TIP3    H233212   1.179   0.661   0.788
11091TIP3   OH233213   6.498   5.940   2.902
11091TIP3    H133214   6.483   6.026   2.942
11091TIP3    H233215   6.591   5.941   2.879
11092TIP3   OH233216   3.832   0.845   4.969
11092TIP3    H133217   3.846   0.804   4.884
11092TIP3    H233218   3.742   0.821   4.992
11093TIP3   OH233219   0.906   7.798   4.159
11093TIP3    H133220   0.819   7.830   4.181
11093TIP3    H233221   0.914   7.812   4.064
11094TIP3   OH233222   5.968   0.981   4.564
11094TIP3    H133223   5.966   1.061   4.616
11094TIP3    H233224   6.005   1.007   4.480
11095TIP3   OH233225   6.548   2.509   3.621
11095TIP3    H133226   6.538   2.421   3.656
11095TIP3    H233227   6.594   2.557   3.689
11096TIP3   OH233228   7.476   1.633   4.557
11096TIP3    H133229   7.468   1.538   4.545
11096TIP3    H233230   7.492   1.643   4.651
11097TIP3   OH233231   0.319   0.461   4.141
11097TIP3    H133232   0.340   0.550   4.168
11097TIP3    H233233   0.373   0.405   4.197
11098TIP3   OH233234   2.524   3.981   4.042
11098TIP3    H133235   2.520   4.030   4.124
11098TIP3    H233236   2.434   3.951   4.028
11099TIP3   OH233237   5.163   0.853   1.977
11099TIP3    H133238   5.238   0.797   1.955
11099TIP3    H233239   5.102   0.841   1.904
11100TIP3   OH233240   2.164   2.151   0.033
11100TIP3    H133241   2.124   2.123  -0.049
11100TIP3    H233242   2.091   2.164   0.093
11101TIP3   OH233243   2.451   2.454   3.068
11101TIP3    H133244   2.483   2.404   2.993
11101TIP3    H233245   2.468   2.545   3.045
11102TIP3   OH233246   0.309   1.569   1.758
11102TIP3    H133247   0.310   1.524   1.843
11102TIP3    H233248   0.256   1.647   1.774
11103TIP3   OH233249   2.883   4.543   2.404
11103TIP3    H133250   2.945   4.525   2.474
11103TIP3    H233251   2.928   4.515   2.324
11104TIP3   OH233252   3.231   3.254   3.086
11104TIP3    H133253   3.239   3.346   3.111
11104TIP3    H233254   3.161   3.253   3.021
11105TIP3   OH233255   1.991   1.773   4.069
11105TIP3    H133256   2.037   1.842   4.118
11105TIP3    H233257   2.039   1.693   4.090
11106TIP3   OH233258   0.373   3.005   3.746
11106TIP3    H133259   0.385   3.070   3.678
11106TIP3    H233260   0.280   3.010   3.768
11107TIP3   OH233261   5.223   4.014   1.492
11107TIP3    H133262   5.311   4.031   1.525
11107TIP3    H233263   5.218   4.060   1.408
11108TIP3   OH233264   5.498   6.517   0.934
11108TIP3    H133265   5.432   6.449   0.943
11108TIP3    H233266   5.526   6.536   1.024
11109TIP3   OH233267   4.686   2.492   0.447
11109TIP3    H133268   4.731   2.457   0.525
11109TIP3    H233269   4.595   2.464   0.459
11110TIP3   OH233270   7.863   2.445   1.446
11110TIP3    H133271   7.853   2.534   1.480
11110TIP3    H233272   7.895   2.457   1.357
11111TIP3   OH233273   6.670   4.440   4.876
11111TIP3    H133274   6.595   4.403   4.921
11111TIP3    H233275   6.737   4.448   4.944
11112TIP3   OH233276   7.088   5.326   1.328
11112TIP3    H133277   7.064   5.236   1.304
11112TIP3    H233278   7.004   5.371   1.339
11113TIP3   OH233279   4.799   0.848   4.927
11113TIP3    H133280   4.847   0.927   4.953
11113TIP3    H233281   4.717   0.853   4.975
11114TIP3   OH233282   2.046   5.036   3.240
11114TIP3    H133283   2.063   5.063   3.150
11114TIP3    H233284   2.110   4.968   3.257
11115TIP3   OH233285   2.209   3.579   0.504
11115TIP3    H133286   2.297   3.559   0.534
11115TIP3    H233287   2.178   3.649   0.562
11116TIP3   OH233288   1.865   0.508   2.572
11116TIP3    H133289   1.906   0.506   2.486
11116TIP3    H233290   1.821   0.593   2.575
11117TIP3   OH233291   5.336   5.701   4.355
11117TIP3    H133292   5.415   5.667   4.312
11117TIP3    H233293   5.266   5.644   4.325
11118TIP3   OH233294   2.442   6.247   2.499
11118TIP3    H133295   2.400   6.193   2.432
11118TIP3    H233296   2.385   6.238   2.575
11119TIP3   OH233297   5.612   5.370   4.568
11119TIP3    H133298   5.682   5.392   4.630
11119TIP3    H233299   5.550   5.442   4.575
11120TIP3   OH233300   1.932   3.388   2.665
11120TIP3    H133301   2.006   3.350   2.618
11120TIP3    H233302   1.912   3.325   2.734
11121TIP3   OH233303   4.359   6.723   1.578
11121TIP3    H133304   4.362   6.628   1.568
11121TIP3    H233305   4.283   6.750   1.526
11122TIP3   OH233306   5.143   2.923   2.186
11122TIP3    H133307   5.189   2.841   2.205
11122TIP3    H233308   5.078   2.931   2.256
11123TIP3   OH233309   6.590   0.533   3.675
11123TIP3    H133310   6.632   0.617   3.661
11123TIP3    H233311   6.518   0.551   3.735
11124TIP3   OH233312   2.225   2.204   6.820
11124TIP3    H133313   2.221   2.299   6.805
11124TIP3    H233314   2.213   2.166   6.733
11125TIP3   OH233315   4.524   3.295   1.255
11125TIP3    H133316   4.617   3.299   1.276
11125TIP3    H233317   4.509   3.368   1.196
11126TIP3   OH233318   8.383   3.828   6.038
11126TIP3    H133319   8.331   3.854   5.962
11126TIP3    H233320   8.351   3.885   6.108
11127TIP3   OH233321   6.583   1.588   6.472
11127TIP3    H133322   6.595   1.671   6.426
11127TIP3    H233323   6.579   1.522   6.403
11128TIP3   OH233324   5.819   1.132   1.537
11128TIP3    H133325   5.770   1.138   1.619
11128TIP3    H233326   5.752   1.134   1.469
11129TIP3   OH233327   0.951   1.670   5.775
11129TIP3    H133328   1.035   1.701   5.807
11129TIP3    H233329   0.954   1.575   5.786
11130TIP3   OH233330   7.815   7.090   1.712
11130TIP3    H133331   7.800   7.135   1.795
11130TIP3    H233332   7.849   7.004   1.736
11131TIP3   OH233333   0.581   5.047   1.046
11131TIP3    H133334   0.606   5.123   0.994
11131TIP3    H233335   0.537   4.989   0.984
11132TIP3   OH233336   0.728   0.705   3.264
11132TIP3    H133337   0.640   0.708   3.228
11132TIP3    H233338   0.742   0.793   3.301
11133TIP3   OH233339   0.829   3.941   3.468
11133TIP3    H133340   0.798   3.856   3.437
11133TIP3    H233341   0.873   3.922   3.551
11134TIP3   OH233342   8.193   1.488   3.387
11134TIP3    H133343   8.268   1.435   3.363
11134TIP3    H233344   8.223   1.541   3.461
11135TIP3   OH233345   3.691   7.610   3.402
11135TIP3    H133346   3.759   7.571   3.457
11135TIP3    H233347   3.730   7.614   3.315
11136TIP3   OH233348   1.356   1.855   6.654
11136TIP3    H133349   1.309   1.844   6.737
11136TIP3    H233350   1.444   1.821   6.672
11137TIP3   OH233351   4.078   1.876   2.367
11137TIP3    H133352   4.090   1.794   2.414
11137TIP3    H233353   3.993   1.867   2.323
11138TIP3   OH233354   0.306   0.838   5.832
11138TIP3    H133355   0.285   0.886   5.913
11138TIP3    H233356   0.234   0.859   5.773
11139TIP3   OH233357   1.120   2.794   0.542
11139TIP3    H133358   1.096   2.796   0.635
11139TIP3    H233359   1.216   2.786   0.543
11140TIP3   OH233360   3.151   0.977   2.306
11140TIP3    H133361   3.159   0.911   2.375
11140TIP3    H233362   3.238   1.019   2.303
11141TIP3   OH233363   2.867   5.609   6.346
11141TIP3    H133364   2.907   5.541   6.400
11141TIP3    H233365   2.941   5.654   6.306
11142TIP3   OH233366   1.258   6.918   1.506
11142TIP3    H133367   1.164   6.906   1.522
11142TIP3    H233368   1.273   7.012   1.522
11143TIP3   OH233369   3.345   4.450   1.091
11143TIP3    H133370   3.316   4.436   1.181
11143TIP3    H233371   3.437   4.475   1.099
11144TIP3   OH233372   4.504   0.289   0.603
11144TIP3    H133373   4.598   0.302   0.595
11144TIP3    H233374   4.485   0.216   0.544
11145TIP3   OH233375   6.992   3.900   3.743
11145TIP3    H133376   6.980   3.994   3.734
11145TIP3    H233377   6.949   3.862   3.667
11146TIP3   OH233378   7.735   4.075   1.811
11146TIP3    H133379   7.788   3.996   1.808
11146TIP3    H233380   7.661   4.057   1.753
11147TIP3   OH233381   2.726   5.721   0.887
11147TIP3    H133382   2.767   5.661   0.949
11147TIP3    H233383   2.634   5.694   0.884
11148TIP3   OH233384   0.616   4.290   5.621
11148TIP3    H133385   0.572   4.314   5.703
11148TIP3    H233386   0.559   4.223   5.583
11149TIP3   OH233387   6.264   1.336   0.695
11149TIP3    H133388   6.335   1.293   0.648
11149TIP3    H233389   6.301   1.419   0.724
11150TIP3   OH233390   5.512   2.729   1.321
11150TIP3    H133391   5.499   2.793   1.251
11150TIP3    H233392   5.607   2.714   1.322
11151TIP3   OH233393   7.219  -0.023   0.655
11151TIP3    H133394   7.131   0.009   0.675
11151TIP3    H233395   7.276   0.032   0.708
11152TIP3   OH233396   3.215   7.124   0.196
11152TIP3    H133397   3.273   7.087   0.129
11152TIP3    H233398   3.130   7.083   0.179
11153TIP3   OH233399   3.805   4.008   2.018
11153TIP3    H133400   3.896   3.980   2.017
11153TIP3    H233401   3.769   3.970   2.098
11154TIP3   OH233402   0.496   5.484   1.544
11154TIP3    H133403   0.422   5.434   1.578
11154TIP3    H233404   0.503   5.560   1.601
11155TIP3   OH233405   1.716   3.229   0.433
11155TIP3    H133406   1.683   3.299   0.489
11155TIP3    H233407   1.811   3.231   0.446
11156TIP3   OH233408   1.670   7.082   5.921
11156TIP3    H133409   1.724   7.139   5.866
11156TIP3    H233410   1.633   7.140   5.987
11157TIP3   OH233411   3.823   5.887   5.508
11157TIP3    H133412   3.816   5.859   5.417
11157TIP3    H233413   3.857   5.810   5.555
11158TIP3   OH233414   6.256   4.486   6.509
11158TIP3    H133415   6.319   4.511   6.441
11158TIP3    H233416   6.233   4.395   6.487
11159TIP3   OH233417   4.334   4.465   0.685
11159TIP3    H133418   4.250   4.485   0.726
11159TIP3    H233419   4.380   4.411   0.750
11160TIP3   OH233420   0.565   0.535   4.614
11160TIP3    H133421   0.565   0.465   4.549
11160TIP3    H233422   0.605   0.610   4.569
11161TIP3   OH233423   0.945   6.168   0.468
11161TIP3    H133424   0.941   6.250   0.419
11161TIP3    H233425   0.888   6.183   0.544
11162TIP3   OH233426   3.111   7.015   1.196
11162TIP3    H133427   3.136   6.951   1.130
11162TIP3    H233428   3.182   7.012   1.260
11163TIP3   OH233429   8.276   0.383   5.354
11163TIP3    H133430   8.319   0.313   5.306
11163TIP3    H233431   8.271   0.351   5.444
11164TIP3   OH233432   2.239   4.388   5.694
11164TIP3    H133433   2.204   4.466   5.653
11164TIP3    H233434   2.285   4.420   5.772
11165TIP3   OH233435   2.640   6.448   3.861
11165TIP3    H133436   2.714   6.424   3.917
11165TIP3    H233437   2.632   6.543   3.872
11166TIP3   OH233438   1.747   5.601   2.270
11166TIP3    H133439   1.727   5.524   2.217
11166TIP3    H233440   1.802   5.568   2.340
11167TIP3   OH233441   1.561   4.352   4.740
11167TIP3    H133442   1.604   4.419   4.793
11167TIP3    H233443   1.568   4.384   4.650
11168TIP3   OH233444   3.095   4.789   5.073
11168TIP3    H133445   3.070   4.878   5.049
11168TIP3    H233446   3.190   4.787   5.063
11169TIP3   OH233447   6.298   7.761   5.526
11169TIP3    H133448   6.358   7.703   5.573
11169TIP3    H233449   6.268   7.710   5.451
11170TIP3   OH233450   7.405   6.107   2.127
11170TIP3    H133451   7.443   6.192   2.105
11170TIP3    H233452   7.406   6.058   2.045
11171TIP3   OH233453   3.291   5.551   4.975
11171TIP3    H133454   3.340   5.620   5.021
11171TIP3    H233455   3.314   5.563   4.883
11172TIP3   OH233456   6.664   7.776   6.676
11172TIP3    H133457   6.667   7.801   6.583
11172TIP3    H233458   6.654   7.858   6.723
11173TIP3   OH233459   7.752   6.684   0.053
11173TIP3    H133460   7.834   6.732   0.059
11173TIP3    H233461   7.746   6.637   0.136
11174TIP3   OH233462   7.092   4.975   0.645
11174TIP3    H133463   7.015   4.979   0.589
11174TIP3    H233464   7.075   4.902   0.705
11175TIP3   OH233465   3.722   0.076   0.408
11175TIP3    H133466   3.771   0.026   0.342
11175TIP3    H233467   3.674   0.141   0.357
11176TIP3   OH233468   4.419   6.688   0.602
11176TIP3    H133469   4.451   6.625   0.667
11176TIP3    H233470   4.462   6.771   0.626
11177TIP3   OH233471   3.198   0.403   0.282
11177TIP3    H133472   3.109   0.381   0.312
11177TIP3    H233473   3.209   0.495   0.308
11178TIP3   OH233474   1.872   6.485   6.533
11178TIP3    H133475   1.818   6.406   6.532
11178TIP3    H233476   1.857   6.525   6.447
11179TIP3   OH233477   0.855   7.737   2.927
11179TIP3    H133478   0.923   7.773   2.870
11179TIP3    H233479   0.861   7.642   2.914
11180TIP3   OH233480   1.100   3.804   1.883
11180TIP3    H133481   1.162   3.734   1.866
11180TIP3    H233482   1.122   3.836   1.970
11181TIP3   OH233483   1.018   5.342   1.129
11181TIP3    H133484   0.966   5.405   1.078
11181TIP3    H233485   0.994   5.257   1.093
11182TIP3   OH233486   0.215   2.341   2.633
11182TIP3    H133487   0.287   2.403   2.621
11182TIP3    H233488   0.155   2.360   2.560
11183TIP3   OH233489   7.184   6.323   4.242
11183TIP3    H133490   7.259   6.355   4.191
11183TIP3    H233491   7.207   6.232   4.262
11184TIP3   OH233492   6.087   2.674   2.765
11184TIP3    H133493   6.023   2.616   2.806
11184TIP3    H233494   6.065   2.761   2.799
11185TIP3   OH233495   6.022   4.096   6.762
11185TIP3    H133496   6.093   4.045   6.723
11185TIP3    H233497   6.002   4.162   6.696
11186TIP3   OH233498   2.572   5.302   4.283
11186TIP3    H133499   2.515   5.310   4.206
11186TIP3    H233500   2.638   5.238   4.257
11187TIP3   OH233501   1.109   2.743   0.815
11187TIP3    H133502   1.178   2.708   0.870
11187TIP3    H233503   1.059   2.666   0.787
11188TIP3   OH233504   7.959   5.182   2.877
11188TIP3    H133505   7.925   5.171   2.789
11188TIP3    H233506   8.019   5.257   2.870
11189TIP3   OH233507   0.408   5.831   5.422
11189TIP3    H133508   0.433   5.760   5.363
11189TIP3    H233509   0.313   5.839   5.409
11190TIP3   OH233510   0.367   2.970   1.616
11190TIP3    H133511   0.390   2.948   1.706
11190TIP3    H233512   0.365   2.886   1.570
11191TIP3   OH233513   4.002   4.508   0.479
11191TIP3    H133514   4.088   4.497   0.440
11191TIP3    H233515   4.019   4.533   0.570
11192TIP3   OH233516   4.951   4.772   1.859
11192TIP3    H133517   5.029   4.786   1.805
11192TIP3    H233518   4.952   4.845   1.921
11193TIP3   OH233519   7.734   0.466   1.068
11193TIP3    H133520   7.754   0.492   0.978
11193TIP3    H233521   7.810   0.497   1.118
11194TIP3   OH233522   7.938   5.588   1.603
11194TIP3    H133523   7.959   5.615   1.513
11194TIP3    H233524   8.022   5.563   1.641
11195TIP3   OH233525   4.979   3.916   1.125
11195TIP3    H133526   4.978   4.011   1.136
11195TIP3    H233527   4.923   3.900   1.049
11196TIP3   OH233528   0.794   4.854   5.570
11196TIP3    H133529   0.723   4.813   5.520
11196TIP3    H233530   0.838   4.911   5.506
11197TIP3   OH233531   0.034   0.351   6.613
11197TIP3    H133532   0.071   0.434   6.583
11197TIP3    H233533  -0.029   0.326   6.546
11198TIP3   OH233534   0.307   7.822   1.844
11198TIP3    H133535   0.305   7.858   1.933
11198TIP3    H233536   0.228   7.768   1.838
11199TIP3   OH233537   1.631   6.800   2.053
11199TIP3    H133538   1.655   6.710   2.029
11199TIP3    H233539   1.624   6.798   2.148
11200TIP3   OH233540   7.169   4.886   1.542
11200TIP3    H133541   7.202   4.974   1.557
11200TIP3    H233542   7.115   4.867   1.619
11201TIP3   OH233543   2.653   4.589   1.854
11201TIP3    H133544   2.642   4.558   1.944
11201TIP3    H233545   2.743   4.621   1.851
11202TIP3   OH233546   4.949   1.705   5.349
11202TIP3    H133547   4.915   1.639   5.410
11202TIP3    H233548   4.985   1.653   5.276
11203TIP3   OH233549   3.877   0.587   6.587
11203TIP3    H133550   3.932   0.538   6.648
11203TIP3    H233551   3.793   0.540   6.589
11204TIP3   OH233552   0.687   3.530   2.270
11204TIP3    H133553   0.750   3.516   2.199
11204TIP3    H233554   0.733   3.587   2.332
11205TIP3   OH233555   0.911   6.989   6.479
11205TIP3    H133556   0.912   6.907   6.429
11205TIP3    H233557   0.974   6.975   6.550
11206TIP3   OH233558   2.531   6.657   2.567
11206TIP3    H133559   2.586   6.652   2.489
11206TIP3    H233560   2.498   6.747   2.566
11207TIP3   OH233561   0.703   3.877   5.270
11207TIP3    H133562   0.717   3.860   5.177
11207TIP3    H233563   0.721   3.971   5.280
11208TIP3   OH233564   0.886   4.026   4.303
11208TIP3    H133565   0.952   4.095   4.304
11208TIP3    H233566   0.934   3.946   4.282
11209TIP3   OH233567   1.936   4.850   4.520
11209TIP3    H133568   1.934   4.915   4.451
11209TIP3    H233569   2.003   4.881   4.581
11210TIP3   OH233570   7.417   5.365   2.677
11210TIP3    H133571   7.501   5.409   2.685
11210TIP3    H233572   7.426   5.286   2.730
11211TIP3   OH233573   2.623   5.127   3.180
11211TIP3    H133574   2.680   5.075   3.236
11211TIP3    H233575   2.603   5.205   3.231
11212TIP3   OH233576   3.202   6.868   0.645
11212TIP3    H133577   3.116   6.909   0.642
11212TIP3    H233578   3.254   6.916   0.580
11213TIP3   OH233579   5.797   3.656   4.758
11213TIP3    H133580   5.735   3.640   4.687
11213TIP3    H233581   5.742   3.679   4.833
11214TIP3   OH233582   8.097   1.571   2.623
11214TIP3    H133583   8.164   1.530   2.568
11214TIP3    H233584   8.126   1.555   2.713
11215TIP3   OH233585   8.160   3.775   1.901
11215TIP3    H133586   8.164   3.681   1.914
11215TIP3    H233587   8.251   3.804   1.905
11216TIP3   OH233588   4.687   1.823   1.403
11216TIP3    H133589   4.737   1.844   1.481
11216TIP3    H233590   4.598   1.853   1.421
11217TIP3   OH233591   2.773   7.072   5.088
11217TIP3    H133592   2.687   7.105   5.113
11217TIP3    H233593   2.783   6.990   5.138
11218TIP3   OH233594   0.056   5.507   1.615
11218TIP3    H133595   0.033   5.595   1.586
11218TIP3    H233596   0.069   5.458   1.534
11219TIP3   OH233597   1.489   7.335   0.073
11219TIP3    H133598   1.468   7.416   0.120
11219TIP3    H233599   1.417   7.276   0.096
11220TIP3   OH233600   8.335   5.617   6.598
11220TIP3    H133601   8.264   5.573   6.552
11220TIP3    H233602   8.303   5.706   6.613
11221TIP3   OH233603   2.427   6.662   6.160
11221TIP3    H133604   2.336   6.684   6.142
11221TIP3    H233605   2.440   6.688   6.252
11222TIP3   OH233606   2.993   2.579   0.272
11222TIP3    H133607   2.922   2.515   0.271
11222TIP3    H233608   2.980   2.631   0.193
11223TIP3   OH233609   4.053   0.469   1.495
11223TIP3    H133610   4.112   0.401   1.528
11223TIP3    H233611   4.038   0.444   1.403
11224TIP3   OH233612   6.278   2.683   4.864
11224TIP3    H133613   6.283   2.700   4.770
11224TIP3    H233614   6.281   2.770   4.904
11225TIP3   OH233615   1.939   3.755   2.074
11225TIP3    H133616   2.010   3.806   2.112
11225TIP3    H233617   1.967   3.737   1.985
11226TIP3   OH233618   8.345   7.293   0.808
11226TIP3    H133619   8.260   7.253   0.792
11226TIP3    H233620   8.328   7.387   0.806
11227TIP3   OH233621   1.219   3.300   0.076
11227TIP3    H133622   1.194   3.208   0.076
11227TIP3    H233623   1.254   3.316   0.164
11228TIP3   OH233624   1.786   7.118   1.536
11228TIP3    H133625   1.800   7.196   1.482
11228TIP3    H233626   1.740   7.057   1.478
11229TIP3   OH233627   0.065   0.553   5.620
11229TIP3    H133628   0.028   0.470   5.590
11229TIP3    H233629   0.135   0.528   5.681
11230TIP3   OH233630   6.389   0.969   6.528
11230TIP3    H133631   6.475   0.932   6.507
11230TIP3    H233632   6.376   1.039   6.465
11231TIP3   OH233633   2.471   6.286   3.724
11231TIP3    H133634   2.518   6.331   3.795
11231TIP3    H233635   2.388   6.333   3.717
11232TIP3   OH233636   5.998   1.251   4.675
11232TIP3    H133637   6.052   1.261   4.753
11232TIP3    H233638   6.031   1.318   4.614
11233TIP3   OH233639   3.602   1.671   6.424
11233TIP3    H133640   3.644   1.714   6.350
11233TIP3    H233641   3.662   1.684   6.497
11234TIP3   OH233642   4.231   2.366   5.819
11234TIP3    H133643   4.206   2.275   5.834
11234TIP3    H233644   4.158   2.403   5.769
11235TIP3   OH233645   5.812   6.996   0.237
11235TIP3    H133646   5.742   6.937   0.265
11235TIP3    H233647   5.878   6.939   0.199
11236TIP3   OH233648   2.412   4.491   4.848
11236TIP3    H133649   2.351   4.522   4.915
11236TIP3    H233650   2.427   4.399   4.870
11237TIP3   OH233651   8.126   6.643   2.836
11237TIP3    H133652   8.179   6.665   2.760
11237TIP3    H233653   8.042   6.687   2.819
11238TIP3   OH233654   3.859   2.151   2.487
11238TIP3    H133655   3.839   2.113   2.401
11238TIP3    H233656   3.792   2.115   2.545
11239TIP3   OH233657   5.146   4.495   4.354
11239TIP3    H133658   5.102   4.539   4.281
11239TIP3    H233659   5.101   4.528   4.432
11240TIP3   OH233660   1.527   3.502   2.926
11240TIP3    H133661   1.439   3.473   2.899
11240TIP3    H233662   1.538   3.468   3.014
11241TIP3   OH233663   1.861   6.776   4.182
11241TIP3    H133664   1.954   6.795   4.196
11241TIP3    H233665   1.857   6.742   4.092
11242TIP3   OH233666   2.307   2.480   0.950
11242TIP3    H133667   2.332   2.533   0.875
11242TIP3    H233668   2.360   2.400   0.942
11243TIP3   OH233669   3.136   1.379   3.794
11243TIP3    H133670   3.064   1.318   3.780
11243TIP3    H233671   3.147   1.381   3.889
11244TIP3   OH233672   4.702   1.317   5.489
11244TIP3    H133673   4.766   1.268   5.437
11244TIP3    H233674   4.682   1.259   5.563
11245TIP3   OH233675   2.443   6.932   1.517
11245TIP3    H133676   2.486   6.849   1.537
11245TIP3    H233677   2.470   6.952   1.427
11246TIP3   OH233678   1.585   2.235   4.968
11246TIP3    H133679   1.540   2.274   5.043
11246TIP3    H233680   1.648   2.301   4.940
11247TIP3   OH233681   4.784   0.208   0.599
11247TIP3    H133682   4.802   0.233   0.509
11247TIP3    H233683   4.769   0.114   0.596
11248TIP3   OH233684   4.663   5.662   0.610
11248TIP3    H133685   4.704   5.576   0.606
11248TIP3    H233686   4.664   5.685   0.703
11249TIP3   OH233687   5.109   2.212   2.664
11249TIP3    H133688   5.082   2.301   2.688
11249TIP3    H233689   5.044   2.182   2.601
11250TIP3   OH233690   2.130   1.118   5.150
11250TIP3    H133691   2.052   1.070   5.176
11250TIP3    H233692   2.194   1.098   5.218
11251TIP3   OH233693   0.392   7.676   1.114
11251TIP3    H133694   0.413   7.712   1.028
11251TIP3    H233695   0.360   7.751   1.164
11252TIP3   OH233696   0.830   2.582   2.746
11252TIP3    H133697   0.867   2.505   2.788
11252TIP3    H233698   0.790   2.632   2.818
11253TIP3   OH233699   7.090   5.825   0.654
11253TIP3    H133700   7.146   5.889   0.610
11253TIP3    H233701   7.128   5.740   0.630
11254TIP3   OH233702   5.371   7.532   0.914
11254TIP3    H133703   5.382   7.507   0.822
11254TIP3    H233704   5.326   7.616   0.911
11255TIP3   OH233705   4.789   0.481   6.529
11255TIP3    H133706   4.861   0.544   6.516
11255TIP3    H233707   4.823   0.399   6.494
11256TIP3   OH233708   1.726   5.079   4.151
11256TIP3    H133709   1.717   5.108   4.242
11256TIP3    H233710   1.683   5.146   4.099
11257TIP3   OH233711   0.936   6.059   2.009
11257TIP3    H133712   0.865   6.078   1.947
11257TIP3    H233713   0.892   6.028   2.088
11258TIP3   OH233714   3.325   2.470   0.356
11258TIP3    H133715   3.420   2.464   0.349
11258TIP3    H233716   3.294   2.383   0.328
11259TIP3   OH233717   2.438   1.672   0.824
11259TIP3    H133718   2.517   1.626   0.853
11259TIP3    H233719   2.366   1.626   0.866
11260TIP3   OH233720   6.219   7.693   6.752
11260TIP3    H133721   6.218   7.773   6.701
11260TIP3    H233722   6.306   7.655   6.736
11261TIP3   OH233723   7.487   4.424   6.184
11261TIP3    H133724   7.450   4.395   6.101
11261TIP3    H233725   7.525   4.510   6.165
11262TIP3   OH233726   0.041   1.704   4.973
11262TIP3    H133727   0.080   1.764   5.037
11262TIP3    H233728   0.082   1.728   4.890
11263TIP3   OH233729   4.847   7.419   4.148
11263TIP3    H133730   4.763   7.441   4.109
11263TIP3    H233731   4.826   7.404   4.241
11264TIP3   OH233732   6.193   0.039   2.198
11264TIP3    H133733   6.118   0.098   2.201
11264TIP3    H233734   6.250   0.075   2.130
11265TIP3   OH233735   0.586   6.849   1.966
11265TIP3    H133736   0.588   6.817   2.056
11265TIP3    H233737   0.652   6.918   1.963
11266TIP3   OH233738   3.057   6.481   1.287
11266TIP3    H133739   3.125   6.521   1.340
11266TIP3    H233740   2.999   6.438   1.350
11267TIP3   OH233741   4.879   4.987   0.753
11267TIP3    H133742   4.924   4.928   0.813
11267TIP3    H233743   4.949   5.041   0.716
11268TIP3   OH233744   3.813   0.043   4.608
11268TIP3    H133745   3.784   0.125   4.648
11268TIP3    H233746   3.909   0.044   4.618
11269TIP3   OH233747   6.123   6.384   5.027
11269TIP3    H133748   6.037   6.377   5.068
11269TIP3    H233749   6.108   6.432   4.946
11270TIP3   OH233750   7.730   6.511   6.636
11270TIP3    H133751   7.792   6.571   6.594
11270TIP3    H233752   7.646   6.557   6.631
11271TIP3   OH233753   3.164   5.128   6.609
11271TIP3    H133754   3.229   5.193   6.583
11271TIP3    H233755   3.186   5.050   6.558
11272TIP3   OH233756   3.354   4.849   5.013
11272TIP3    H133757   3.420   4.810   4.957
11272TIP3    H233758   3.396   4.928   5.048
11273TIP3   OH233759   1.137   1.421   0.706
11273TIP3    H133760   1.229   1.435   0.687
11273TIP3    H233761   1.095   1.504   0.685
11274TIP3   OH233762   2.948   1.294   4.599
11274TIP3    H133763   2.994   1.253   4.525
11274TIP3    H233764   3.014   1.352   4.638
11275TIP3   OH233765   2.530   1.697   3.646
11275TIP3    H133766   2.435   1.700   3.647
11275TIP3    H233767   2.555   1.734   3.562
11276TIP3   OH233768   1.846   3.466   1.061
11276TIP3    H133769   1.778   3.414   1.018
11276TIP3    H233770   1.862   3.422   1.144
11277TIP3   OH233771   1.137   1.217   1.646
11277TIP3    H133772   1.157   1.126   1.668
11277TIP3    H233773   1.192   1.235   1.570
11278TIP3   OH233774   4.370   1.333   5.239
11278TIP3    H133775   4.366   1.362   5.148
11278TIP3    H233776   4.385   1.413   5.290
11279TIP3   OH233777   3.658   7.346   6.273
11279TIP3    H133778   3.647   7.251   6.274
11279TIP3    H233779   3.706   7.364   6.192
11280TIP3   OH233780   0.244   6.927   5.453
11280TIP3    H133781   0.234   6.862   5.523
11280TIP3    H233782   0.213   7.009   5.492
11281TIP3   OH233783   0.793   1.451   2.607
11281TIP3    H133784   0.822   1.360   2.617
11281TIP3    H233785   0.790   1.486   2.696
11282TIP3   OH233786   5.784   3.776   2.287
11282TIP3    H133787   5.853   3.785   2.221
11282TIP3    H233788   5.702   3.792   2.239
11283TIP3   OH233789   3.771   0.972   4.356
11283TIP3    H133790   3.730   0.893   4.392
11283TIP3    H233791   3.863   0.965   4.379
11284TIP3   OH233792   3.590   6.468   5.716
11284TIP3    H133793   3.678   6.491   5.688
11284TIP3    H233794   3.559   6.544   5.765
11285TIP3   OH233795   1.298   2.962   2.538
11285TIP3    H133796   1.302   3.034   2.475
11285TIP3    H233797   1.205   2.942   2.545
11286TIP3   OH233798   2.604   4.708   2.350
11286TIP3    H133799   2.625   4.747   2.434
11286TIP3    H233800   2.543   4.637   2.371
11287TIP3   OH233801   7.984   2.171   1.077
11287TIP3    H133802   8.062   2.152   1.024
11287TIP3    H233803   8.005   2.135   1.164
11288TIP3   OH233804   5.883   2.542   5.276
11288TIP3    H133805   5.835   2.505   5.202
11288TIP3    H233806   5.974   2.518   5.259
11289TIP3   OH233807   8.010   4.807   3.275
11289TIP3    H133808   7.979   4.878   3.219
11289TIP3    H233809   7.952   4.734   3.256
11290TIP3   OH233810   6.786   2.646   2.830
11290TIP3    H133811   6.835   2.564   2.839
11290TIP3    H233812   6.853   2.715   2.836
11291TIP3   OH233813   0.114   4.678   5.715
11291TIP3    H133814   0.179   4.672   5.785
11291TIP3    H233815   0.093   4.587   5.694
11292TIP3   OH233816   1.673   1.236   2.983
11292TIP3    H133817   1.606   1.301   3.004
11292TIP3    H233818   1.756   1.282   2.995
11293TIP3   OH233819   0.719   7.108   6.670
11293TIP3    H133820   0.630   7.142   6.663
11293TIP3    H233821   0.749   7.101   6.580
11294TIP3   OH233822   1.071   5.637   3.239
11294TIP3    H133823   1.163   5.653   3.221
11294TIP3    H233824   1.033   5.724   3.251
11295TIP3   OH233825   3.760   2.819   4.865
11295TIP3    H133826   3.779   2.883   4.796
11295TIP3    H233827   3.839   2.765   4.869
11296TIP3   OH233828   8.384   1.559   6.175
11296TIP3    H133829   8.340   1.636   6.138
11296TIP3    H233830   8.364   1.563   6.269
11297TIP3   OH233831   7.201   4.338   4.667
11297TIP3    H133832   7.179   4.262   4.613
11297TIP3    H233833   7.249   4.396   4.608
11298TIP3   OH233834   4.143   4.762   0.189
11298TIP3    H133835   4.229   4.750   0.230
11298TIP3    H233836   4.152   4.844   0.140
11299TIP3   OH233837   2.260   2.051   3.679
11299TIP3    H133838   2.292   2.045   3.589
11299TIP3    H233839   2.167   2.031   3.674
11300TIP3   OH233840   3.490   6.337   0.682
11300TIP3    H133841   3.531   6.257   0.716
11300TIP3    H233842   3.405   6.307   0.648
11301TIP3   OH233843   2.198   3.008   4.752
11301TIP3    H133844   2.281   2.999   4.799
11301TIP3    H233845   2.222   2.996   4.660
11302TIP3   OH233846   2.565   3.280   5.017
11302TIP3    H133847   2.648   3.319   5.046
11302TIP3    H233848   2.590   3.223   4.944
11303TIP3   OH233849   4.858   6.696   0.150
11303TIP3    H133850   4.883   6.605   0.165
11303TIP3    H233851   4.911   6.746   0.211
11304TIP3   OH233852   0.143   2.701   0.296
11304TIP3    H133853   0.199   2.679   0.223
11304TIP3    H233854   0.062   2.732   0.256
11305TIP3   OH233855   7.701   0.777   2.830
11305TIP3    H133856   7.748   0.823   2.760
11305TIP3    H233857   7.745   0.804   2.911
11306TIP3   OH233858   1.420   0.752   5.849
11306TIP3    H133859   1.455   0.681   5.794
11306TIP3    H233860   1.368   0.706   5.915
11307TIP3   OH233861   1.933   1.540   4.598
11307TIP3    H133862   1.882   1.484   4.657
11307TIP3    H233863   1.898   1.627   4.611
11308TIP3   OH233864   3.912   3.801   0.338
11308TIP3    H133865   3.927   3.819   0.431
11308TIP3    H233866   3.990   3.833   0.294
11309TIP3   OH233867   1.359   0.907   2.750
11309TIP3    H133868   1.343   0.926   2.843
11309TIP3    H233869   1.346   0.813   2.742
11310TIP3   OH233870   4.564   4.244   2.550
11310TIP3    H133871   4.543   4.198   2.632
11310TIP3    H233872   4.535   4.184   2.481
11311TIP3   OH233873   3.674   4.828   1.784
11311TIP3    H133874   3.616   4.755   1.806
11311TIP3    H233875   3.762   4.792   1.790
11312TIP3   OH233876   0.228   1.374   2.619
11312TIP3    H133877   0.289   1.319   2.569
11312TIP3    H233878   0.283   1.442   2.658
11313TIP3   OH233879   2.408   3.608   1.759
11313TIP3    H133880   2.410   3.517   1.788
11313TIP3    H233881   2.498   3.639   1.769
11314TIP3   OH233882   3.681   0.382   6.400
11314TIP3    H133883   3.743   0.318   6.435
11314TIP3    H233884   3.733   0.436   6.341
11315TIP3   OH233885   3.311   3.373   1.556
11315TIP3    H133886   3.258   3.449   1.581
11315TIP3    H233887   3.285   3.355   1.466
11316TIP3   OH233888   6.501   4.050   4.748
11316TIP3    H133889   6.540   4.134   4.724
11316TIP3    H233890   6.409   4.059   4.724
11317TIP3   OH233891   6.180   6.817   1.496
11317TIP3    H133892   6.146   6.906   1.507
11317TIP3    H233893   6.221   6.817   1.409
11318TIP3   OH233894   1.681   6.279   6.500
11318TIP3    H133895   1.609   6.302   6.441
11318TIP3    H233896   1.682   6.183   6.501
11319TIP3   OH233897   4.856   0.860   3.106
11319TIP3    H133898   4.937   0.902   3.134
11319TIP3    H233899   4.877   0.766   3.105
11320TIP3   OH233900   7.691   3.275   6.458
11320TIP3    H133901   7.666   3.366   6.441
11320TIP3    H233902   7.785   3.278   6.473
11321TIP3   OH233903   8.020   3.381   1.356
11321TIP3    H133904   8.077   3.325   1.408
11321TIP3    H233905   7.955   3.321   1.318
11322TIP3   OH233906   2.860   0.118   3.244
11322TIP3    H133907   2.903   0.154   3.322
11322TIP3    H233908   2.864   0.189   3.179
11323TIP3   OH233909   7.632   0.711   0.082
11323TIP3    H133910   7.556   0.657   0.059
11323TIP3    H233911   7.607   0.755   0.163
11324TIP3   OH233912   1.441   0.499   5.992
11324TIP3    H133913   1.523   0.547   6.004
11324TIP3    H233914   1.373   0.560   6.021
11325TIP3   OH233915   4.173   0.111   0.309
11325TIP3    H133916   4.200   0.139   0.222
11325TIP3    H233917   4.159   0.193   0.357
11326TIP3   OH233918   5.723   0.236   5.858
11326TIP3    H133919   5.736   0.316   5.807
11326TIP3    H233920   5.764   0.255   5.943
11327TIP3   OH233921   6.197   4.352   0.412
11327TIP3    H133922   6.120   4.400   0.381
11327TIP3    H233923   6.194   4.268   0.366
11328TIP3   OH233924   3.020   4.801   0.585
11328TIP3    H133925   3.086   4.806   0.516
11328TIP3    H233926   3.044   4.723   0.635
11329TIP3   OH233927   7.351   6.593   0.158
11329TIP3    H133928   7.368   6.574   0.066
11329TIP3    H233929   7.420   6.655   0.183
11330TIP3   OH233930   1.985   2.751   1.660
11330TIP3    H133931   1.915   2.814   1.643
11330TIP3    H233932   2.057   2.804   1.694
11331TIP3   OH233933   0.525   2.237   6.014
11331TIP3    H133934   0.524   2.323   6.055
11331TIP3    H233935   0.439   2.200   6.035
11332TIP3   OH233936   3.708   7.525   0.869
11332TIP3    H133937   3.690   7.529   0.963
11332TIP3    H233938   3.773   7.455   0.860
11333TIP3   OH233939   7.814   2.832   1.878
11333TIP3    H133940   7.792   2.868   1.792
11333TIP3    H233941   7.908   2.814   1.873
11334TIP3   OH233942   3.046   6.142   3.288
11334TIP3    H133943   2.993   6.220   3.304
11334TIP3    H233944   3.057   6.102   3.375
11335TIP3   OH233945   5.117   2.807   1.451
11335TIP3    H133946   5.117   2.754   1.530
11335TIP3    H233947   5.183   2.875   1.467
11336TIP3   OH233948   0.363   5.974   1.836
11336TIP3    H133949   0.407   6.044   1.883
11336TIP3    H233950   0.355   5.903   1.899
11337TIP3   OH233951   6.425   3.588   3.756
11337TIP3    H133952   6.506   3.617   3.714
11337TIP3    H233953   6.445   3.500   3.788
11338TIP3   OH233954   4.915   0.962   6.372
11338TIP3    H133955   4.929   0.965   6.277
11338TIP3    H233956   5.002   0.974   6.409
11339TIP3   OH233957   1.706   1.764   6.106
11339TIP3    H133958   1.619   1.760   6.065
11339TIP3    H233959   1.766   1.771   6.032
11340TIP3   OH233960   1.108   6.762   3.406
11340TIP3    H133961   1.076   6.691   3.350
11340TIP3    H233962   1.090   6.733   3.495
11341TIP3   OH233963   6.958   1.967   4.800
11341TIP3    H133964   7.036   1.995   4.847
11341TIP3    H233965   6.891   2.030   4.825
11342TIP3   OH233966   0.901   5.799   1.693
11342TIP3    H133967   0.824   5.804   1.750
11342TIP3    H233968   0.867   5.813   1.605
11343TIP3   OH233969   8.031   5.770   5.133
11343TIP3    H133970   7.996   5.685   5.160
11343TIP3    H233971   8.098   5.750   5.068
11344TIP3   OH233972   2.769   0.444   0.150
11344TIP3    H133973   2.799   0.434   0.241
11344TIP3    H233974   2.798   0.364   0.106
11345TIP3   OH233975   6.598   0.265   1.699
11345TIP3    H133976   6.652   0.302   1.629
11345TIP3    H233977   6.546   0.197   1.655
11346TIP3   OH233978   6.259   6.671   0.099
11346TIP3    H133979   6.181   6.648   0.150
11346TIP3    H233980   6.322   6.701   0.164
11347TIP3   OH233981   2.642   0.784   0.884
11347TIP3    H133982   2.685   0.808   0.802
11347TIP3    H233983   2.572   0.849   0.894
11348TIP3   OH233984   1.426   6.661   6.639
11348TIP3    H133985   1.416   6.685   6.731
11348TIP3    H233986   1.370   6.583   6.629
11349TIP3   OH233987   7.793   6.858   1.285
11349TIP3    H133988   7.720   6.904   1.243
11349TIP3    H233989   7.752   6.781   1.325
11350TIP3   OH233990   7.135   3.758   0.926
11350TIP3    H133991   7.113   3.686   0.984
11350TIP3    H233992   7.051   3.788   0.892
11351TIP3   OH233993   3.662   5.623   2.990
11351TIP3    H133994   3.725   5.611   3.061
11351TIP3    H233995   3.714   5.607   2.911
11352TIP3   OH233996   7.055   5.437   2.283
11352TIP3    H133997   7.102   5.386   2.349
11352TIP3    H233998   7.109   5.431   2.204
11353TIP3   OH233999   8.247   1.349   0.349
11353TIP3    H134000   8.168   1.383   0.307
11353TIP3    H234001   8.319   1.392   0.304
11354TIP3   OH234002   8.333   3.487   1.326
11354TIP3    H134003   8.247   3.449   1.346
11354TIP3    H234004   8.319   3.535   1.245
11355TIP3   OH234005   2.639   7.206   2.747
11355TIP3    H134006   2.729   7.189   2.773
11355TIP3    H234007   2.634   7.301   2.738
11356TIP3   OH234008   8.238   0.643   5.331
11356TIP3    H134009   8.248   0.547   5.333
11356TIP3    H234010   8.326   0.676   5.315
11357TIP3   OH234011   7.106   7.442   5.222
11357TIP3    H134012   7.183   7.474   5.174
11357TIP3    H234013   7.119   7.472   5.312
11358TIP3   OH234014   6.815   4.625   2.515
11358TIP3    H134015   6.755   4.666   2.576
11358TIP3    H234016   6.774   4.637   2.429
11359TIP3   OH234017   3.466   7.341   4.781
11359TIP3    H134018   3.432   7.431   4.778
11359TIP3    H234019   3.393   7.287   4.750
11360TIP3   OH234020   0.124   1.816   1.746
11360TIP3    H134021   0.077   1.742   1.708
11360TIP3    H234022   0.079   1.832   1.829
11361TIP3   OH234023   6.664   5.632  -0.004
11361TIP3    H134024   6.581   5.655   0.039
11361TIP3    H234025   6.704   5.568   0.055
11362TIP3   OH234026   7.336   7.250   5.611
11362TIP3    H134027   7.265   7.314   5.611
11362TIP3    H234028   7.354   7.234   5.704
11363TIP3   OH234029   1.697   5.404   1.020
11363TIP3    H134030   1.644   5.333   0.983
11363TIP3    H234031   1.788   5.373   1.011
11364TIP3   OH234032   6.719   1.190   5.584
11364TIP3    H134033   6.667   1.116   5.615
11364TIP3    H234034   6.662   1.266   5.597
11365TIP3   OH234035   4.470   1.330   0.624
11365TIP3    H134036   4.488   1.236   0.620
11365TIP3    H234037   4.504   1.357   0.709
11366TIP3   OH234038   3.845   5.831   3.685
11366TIP3    H134039   3.831   5.921   3.656
11366TIP3    H234040   3.765   5.784   3.659
11367TIP3   OH234041   2.239   5.496   2.386
11367TIP3    H134042   2.200   5.410   2.371
11367TIP3    H234043   2.192   5.555   2.327
11368TIP3   OH234044   5.746   1.279   3.664
11368TIP3    H134045   5.780   1.367   3.678
11368TIP3    H234046   5.653   1.291   3.648
11369TIP3   OH234047   7.758   3.454   2.973
11369TIP3    H134048   7.667   3.450   2.942
11369TIP3    H234049   7.780   3.364   2.996
11370TIP3   OH234050   5.465   2.443   6.373
11370TIP3    H134051   5.557   2.435   6.344
11370TIP3    H234052   5.435   2.353   6.380
11371TIP3   OH234053   2.917   7.510   2.888
11371TIP3    H134054   2.894   7.534   2.978
11371TIP3    H234055   2.994   7.564   2.868
11372TIP3   OH234056   3.629   7.100   6.109
11372TIP3    H134057   3.590   7.169   6.056
11372TIP3    H234058   3.562   7.032   6.114
11373TIP3   OH234059   2.441   6.014   6.019
11373TIP3    H134060   2.509   6.014   5.952
11373TIP3    H234061   2.437   5.924   6.049
11374TIP3   OH234062   4.889   7.622   3.605
11374TIP3    H134063   4.840   7.691   3.561
11374TIP3    H234064   4.890   7.649   3.697
11375TIP3   OH234065   8.068   2.626   2.060
11375TIP3    H134066   8.061   2.656   1.970
11375TIP3    H234067   8.061   2.706   2.113
11376TIP3   OH234068   3.196   1.905   3.878
11376TIP3    H134069   3.106   1.881   3.855
11376TIP3    H234070   3.187   1.972   3.945
11377TIP3   OH234071   4.831   6.708   4.681
11377TIP3    H134072   4.751   6.666   4.712
11377TIP3    H234073   4.838   6.789   4.731
11378TIP3   OH234074   2.957   6.067   3.553
11378TIP3    H134075   3.023   6.054   3.621
11378TIP3    H234076   2.923   6.155   3.568
11379TIP3   OH234077   7.492   3.166   6.621
11379TIP3    H134078   7.485   3.236   6.686
11379TIP3    H234079   7.579   3.177   6.583
11380TIP3   OH234080   2.384   1.134   4.659
11380TIP3    H134081   2.292   1.134   4.685
11380TIP3    H234082   2.420   1.213   4.698
11381TIP3   OH234083   1.042   0.430   3.475
11381TIP3    H134084   0.991   0.383   3.409
11381TIP3    H234085   0.978   0.456   3.541
11382TIP3   OH234086   7.360   6.231   3.670
11382TIP3    H134087   7.294   6.294   3.640
11382TIP3    H234088   7.422   6.284   3.721
11383TIP3   OH234089   6.185   2.744   4.297
11383TIP3    H134090   6.184   2.840   4.303
11383TIP3    H234091   6.200   2.726   4.205
11384TIP3   OH234092   1.251   3.445   2.858
11384TIP3    H134093   1.258   3.363   2.810
11384TIP3    H234094   1.198   3.501   2.802
11385TIP3   OH234095   4.449   4.514   1.722
11385TIP3    H134096   4.464   4.579   1.654
11385TIP3    H234097   4.515   4.533   1.789
11386TIP3   OH234098   0.362   0.183   3.395
11386TIP3    H134099   0.328   0.098   3.422
11386TIP3    H234100   0.295   0.219   3.337
11387TIP3   OH234101   2.340   5.971   1.538
11387TIP3    H134102   2.336   6.061   1.504
11387TIP3    H234103   2.252   5.953   1.570
11388TIP3   OH234104   6.605   6.160   5.070
11388TIP3    H134105   6.537   6.094   5.056
11388TIP3    H234106   6.583   6.202   5.153
11389TIP3   OH234107   1.078   6.482   4.814
11389TIP3    H134108   1.003   6.424   4.800
11389TIP3    H234109   1.150   6.423   4.836
11390TIP3   OH234110   4.386   2.286   2.169
11390TIP3    H134111   4.459   2.226   2.186
11390TIP3    H234112   4.411   2.333   2.089
11391TIP3   OH234113   3.284   0.238   3.993
11391TIP3    H134114   3.196   0.202   3.996
11391TIP3    H234115   3.320   0.222   4.080
11392TIP3   OH234116   1.546   4.230   3.985
11392TIP3    H134117   1.596   4.161   4.028
11392TIP3    H234118   1.484   4.184   3.929
11393TIP3   OH234119   5.889   2.400   5.590
11393TIP3    H134120   5.955   2.348   5.635
11393TIP3    H234121   5.938   2.473   5.552
11394TIP3   OH234122   0.084   4.492   5.127
11394TIP3    H134123   0.096   4.443   5.208
11394TIP3    H234124   0.002   4.540   5.139
11395TIP3   OH234125   8.237   6.959   1.228
11395TIP3    H134126   8.164   7.021   1.223
11395TIP3    H234127   8.227   6.917   1.313
11396TIP3   OH234128   6.925   3.493   0.470
11396TIP3    H134129   6.945   3.471   0.379
11396TIP3    H234130   6.989   3.442   0.521
11397TIP3   OH234131   0.451   0.047   5.276
11397TIP3    H134132   0.384   0.006   5.330
11397TIP3    H234133   0.488   0.116   5.332
11398TIP3   OH234134   2.180   0.070   2.314
11398TIP3    H134135   2.121   0.130   2.359
11398TIP3    H234136   2.124   0.025   2.251
11399TIP3   OH234137   5.709   4.300   3.609
11399TIP3    H134138   5.664   4.353   3.544
11399TIP3    H234139   5.784   4.352   3.636
11400TIP3   OH234140   4.871   7.845   2.405
11400TIP3    H134141   4.828   7.845   2.319
11400TIP3    H234142   4.822   7.910   2.456
11401TIP3   OH234143   1.820   1.799   4.678
11401TIP3    H134144   1.736   1.845   4.667
11401TIP3    H234145   1.883   1.869   4.697
11402TIP3   OH234146   6.223   3.028   6.742
11402TIP3    H134147   6.153   2.966   6.763
11402TIP3    H234148   6.223   3.090   6.816
11403TIP3   OH234149   8.295   7.804   6.703
11403TIP3    H134150   8.380   7.772   6.672
11403TIP3    H234151   8.233   7.777   6.635
11404TIP3   OH234152   1.970   7.351   3.115
11404TIP3    H134153   1.966   7.342   3.019
11404TIP3    H234154   1.882   7.331   3.144
11405TIP3   OH234155   0.581   4.854   0.290
11405TIP3    H134156   0.604   4.797   0.217
11405TIP3    H234157   0.530   4.798   0.349
11406TIP3   OH234158   5.935   7.501   3.981
11406TIP3    H134159   5.990   7.429   3.950
11406TIP3    H234160   5.948   7.502   4.075
11407TIP3   OH234161   5.402   3.972   5.713
11407TIP3    H134162   5.362   4.043   5.663
11407TIP3    H234163   5.439   4.014   5.790
11408TIP3   OH234164   3.485   7.697   3.911
11408TIP3    H134165   3.407   7.735   3.951
11408TIP3    H234166   3.525   7.770   3.864
11409TIP3   OH234167   6.588   3.908   3.529
11409TIP3    H134168   6.665   3.862   3.561
11409TIP3    H234169   6.605   4.000   3.549
11410TIP3   OH234170   3.348   2.756   5.420
11410TIP3    H134171   3.258   2.729   5.402
11410TIP3    H234172   3.378   2.794   5.337
11411TIP3   OH234173   6.185   1.169   0.149
11411TIP3    H134174   6.203   1.094   0.205
11411TIP3    H234175   6.130   1.226   0.202
11412TIP3   OH234176   8.253   2.416   5.229
11412TIP3    H134177   8.161   2.442   5.235
11412TIP3    H234178   8.272   2.378   5.315
11413TIP3   OH234179   2.295   3.238   5.041
11413TIP3    H134180   2.383   3.236   5.076
11413TIP3    H234181   2.273   3.146   5.025
11414TIP3   OH234182   8.174   4.569   2.957
11414TIP3    H134183   8.266   4.552   2.937
11414TIP3    H234184   8.148   4.496   3.014
11415TIP3   OH234185   1.797   5.834   5.619
11415TIP3    H134186   1.849   5.787   5.554
11415TIP3    H234187   1.728   5.877   5.568
11416TIP3   OH234188   0.382   6.506   2.232
11416TIP3    H134189   0.388   6.521   2.327
11416TIP3    H234190   0.372   6.412   2.223
11417TIP3   OH234191   2.492   4.492   5.897
11417TIP3    H134192   2.508   4.398   5.892
11417TIP3    H234193   2.466   4.508   5.988
11418TIP3   OH234194   7.476   0.547   0.640
11418TIP3    H134195   7.530   0.518   0.713
11418TIP3    H234196   7.413   0.476   0.627
11419TIP3   OH234197   4.290   2.614   3.284
11419TIP3    H134198   4.274   2.520   3.293
11419TIP3    H234199   4.383   2.625   3.305
11420TIP3   OH234200   2.358   1.636   4.361
11420TIP3    H134201   2.416   1.665   4.290
11420TIP3    H234202   2.417   1.624   4.435
11421TIP3   OH234203   7.474   6.391   6.047
11421TIP3    H134204   7.433   6.377   5.962
11421TIP3    H234205   7.416   6.451   6.093
11422TIP3   OH234206   7.358   1.259   1.967
11422TIP3    H134207   7.445   1.297   1.957
11422TIP3    H234208   7.328   1.290   2.052
11423TIP3   OH234209   1.004   3.633   5.829
11423TIP3    H134210   1.097   3.624   5.849
11423TIP3    H234211   0.962   3.562   5.879
11424TIP3   OH234212   0.847   4.708   0.136
11424TIP3    H134213   0.810   4.785   0.093
11424TIP3    H234214   0.933   4.697   0.095
11425TIP3   OH234215   0.262   7.898   2.109
11425TIP3    H134216   0.197   7.888   2.178
11425TIP3    H234217   0.335   7.843   2.136
11426TIP3   OH234218   4.052   7.790   2.295
11426TIP3    H134219   4.144   7.805   2.273
11426TIP3    H234220   4.006   7.863   2.254
11427TIP3   OH234221   3.457   1.006   2.689
11427TIP3    H134222   3.551   0.995   2.673
11427TIP3    H234223   3.440   1.098   2.668
11428TIP3   OH234224   7.420   5.083   4.322
11428TIP3    H134225   7.501   5.039   4.294
11428TIP3    H234226   7.389   5.032   4.397
11429TIP3   OH234227   1.907   3.469   0.168
11429TIP3    H134228   1.939   3.556   0.192
11429TIP3    H234229   1.813   3.471   0.188
11430TIP3   OH234230   7.743   4.024   2.584
11430TIP3    H134231   7.836   4.027   2.604
11430TIP3    H234232   7.703   4.085   2.647
11431TIP3   OH234233   6.774   4.711   4.269
11431TIP3    H134234   6.796   4.666   4.350
11431TIP3    H234235   6.763   4.803   4.294
11432TIP3   OH234236   5.794   5.749   0.862
11432TIP3    H134237   5.741   5.749   0.942
11432TIP3    H234238   5.873   5.701   0.886
11433TIP3   OH234239   5.095   4.680   2.917
11433TIP3    H134240   5.144   4.761   2.933
11433TIP3    H234241   5.054   4.694   2.832
11434TIP3   OH234242   5.364   2.380   4.971
11434TIP3    H134243   5.308   2.386   5.049
11434TIP3    H234244   5.345   2.460   4.922
11435TIP3   OH234245   2.672   5.364   1.299
11435TIP3    H134246   2.681   5.273   1.326
11435TIP3    H234247   2.749   5.382   1.245
11436TIP3   OH234248   0.639   5.219   0.221
11436TIP3    H134249   0.689   5.171   0.287
11436TIP3    H234250   0.612   5.300   0.266
11437TIP3   OH234251   5.932   5.847   3.267
11437TIP3    H134252   5.913   5.864   3.359
11437TIP3    H234253   5.985   5.768   3.267
11438TIP3   OH234254   6.419   5.019   3.268
11438TIP3    H134255   6.419   5.048   3.359
11438TIP3    H234256   6.492   5.066   3.228
11439TIP3   OH234257   6.916   4.116   4.385
11439TIP3    H134258   6.993   4.115   4.442
11439TIP3    H234259   6.842   4.116   4.445
11440TIP3   OH234260   6.490   4.531   0.987
11440TIP3    H134261   6.470   4.499   1.075
11440TIP3    H234262   6.575   4.492   0.966
11441TIP3   OH234263   1.660   1.995   5.235
11441TIP3    H134264   1.753   2.010   5.251
11441TIP3    H234265   1.658   1.935   5.160
11442TIP3   OH234266   6.023   1.114   1.066
11442TIP3    H134267   5.971   1.193   1.077
11442TIP3    H234268   6.099   1.126   1.123
11443TIP3   OH234269   6.287   7.095   6.031
11443TIP3    H134270   6.330   7.133   5.955
11443TIP3    H234271   6.252   7.011   6.000
11444TIP3   OH234272   0.398   6.536   0.120
11444TIP3    H134273   0.400   6.625   0.155
11444TIP3    H234274   0.439   6.482   0.188
11445TIP3   OH234275   8.290   1.400   5.834
11445TIP3    H134276   8.236   1.358   5.768
11445TIP3    H234277   8.232   1.410   5.910
11446TIP3   OH234278   6.404   1.215   6.371
11446TIP3    H134279   6.391   1.214   6.276
11446TIP3    H234280   6.340   1.279   6.404
11447TIP3   OH234281   2.091   7.486   4.865
11447TIP3    H134282   2.070   7.532   4.783
11447TIP3    H234283   2.138   7.551   4.917
11448TIP3   OH234284   2.617   2.253   2.954
11448TIP3    H134285   2.701   2.294   2.932
11448TIP3    H234286   2.621   2.238   3.048
11449TIP3   OH234287   6.053   6.987   5.907
11449TIP3    H134288   5.986   6.929   5.945
11449TIP3    H234289   6.008   7.031   5.835
11450TIP3   OH234290   2.758   6.689   0.459
11450TIP3    H134291   2.688   6.659   0.400
11450TIP3    H234292   2.832   6.707   0.401
11451TIP3   OH234293   7.377   3.407   1.493
11451TIP3    H134294   7.342   3.359   1.418
11451TIP3    H234295   7.299   3.446   1.535
11452TIP3   OH234296   2.744   1.035   2.711
11452TIP3    H134297   2.788   1.075   2.636
11452TIP3    H234298   2.716   1.109   2.765
11453TIP3   OH234299   7.808   5.809   4.681
11453TIP3    H134300   7.832   5.718   4.699
11453TIP3    H234301   7.769   5.840   4.763
11454TIP3   OH234302   7.457   4.052   0.866
11454TIP3    H134303   7.463   4.144   0.889
11454TIP3    H234304   7.375   4.022   0.905
11455TIP3   OH234305   1.570   1.516   1.097
11455TIP3    H134306   1.529   1.454   1.037
11455TIP3    H234307   1.576   1.598   1.048
11456TIP3   OH234308   6.715   3.218   3.515
11456TIP3    H134309   6.693   3.271   3.438
11456TIP3    H234310   6.763   3.278   3.572
11457TIP3   OH234311   0.721   6.963   1.618
11457TIP3    H134312   0.728   7.012   1.700
11457TIP3    H234313   0.668   6.887   1.639
11458TIP3   OH234314   1.856   2.391   5.063
11458TIP3    H134315   1.787   2.428   5.118
11458TIP3    H234316   1.906   2.466   5.033
11459TIP3   OH234317   4.328   5.892   0.684
11459TIP3    H134318   4.355   5.952   0.614
11459TIP3    H234319   4.381   5.814   0.670
11460TIP3   OH234320   7.864   0.992   4.157
11460TIP3    H134321   7.875   1.012   4.064
11460TIP3    H234322   7.915   1.060   4.203
11461TIP3   OH234323   4.682   2.956   5.989
11461TIP3    H134324   4.611   2.902   5.953
11461TIP3    H234325   4.730   2.897   6.047
11462TIP3   OH234326   4.611   5.497   6.696
11462TIP3    H134327   4.675   5.437   6.660
11462TIP3    H234328   4.594   5.464   6.785
11463TIP3   OH234329   8.213   2.513   1.322
11463TIP3    H134330   8.243   2.484   1.235
11463TIP3    H234331   8.121   2.532   1.309
11464TIP3   OH234332   2.902   2.693   4.684
11464TIP3    H134333   2.874   2.755   4.751
11464TIP3    H234334   2.987   2.726   4.655
11465TIP3   OH234335   4.361   3.187   3.521
11465TIP3    H134336   4.421   3.168   3.593
11465TIP3    H234337   4.277   3.149   3.549
11466TIP3   OH234338   7.939   3.057   1.086
11466TIP3    H134339   7.910   3.088   1.172
11466TIP3    H234340   7.885   2.981   1.067
11467TIP3   OH234341   6.435   3.620   6.789
11467TIP3    H134342   6.508   3.561   6.810
11467TIP3    H234343   6.452   3.649   6.699
11468TIP3   OH234344   0.301   6.986   6.766
11468TIP3    H134345   0.333   7.050   6.702
11468TIP3    H234346   0.366   6.915   6.763
11469TIP3   OH234347   7.552   3.193   1.587
11469TIP3    H134348   7.557   3.277   1.542
11469TIP3    H234349   7.458   3.178   1.600
11470TIP3   OH234350   0.105   7.150   6.821
11470TIP3    H134351   0.167   7.077   6.814
11470TIP3    H234352   0.051   7.128   6.896
11471TIP3   OH234353   5.470   6.758   3.872
11471TIP3    H134354   5.557   6.764   3.831
11471TIP3    H234355   5.467   6.833   3.931
11472TIP3   OH234356   7.470   0.467   6.467
11472TIP3    H134357   7.392   0.503   6.426
11472TIP3    H234358   7.456   0.372   6.467
11473TIP3   OH234359   5.119   0.455   4.868
11473TIP3    H134360   5.054   0.501   4.922
11473TIP3    H234361   5.202   0.495   4.892
11474TIP3   OH234362   4.136   3.509   0.901
11474TIP3    H134363   4.205   3.573   0.885
11474TIP3    H234364   4.157   3.471   0.987
11475TIP3   OH234365   6.568   7.022   0.913
11475TIP3    H134366   6.646   7.072   0.888
11475TIP3    H234367   6.553   7.046   1.005
11476TIP3   OH234368   5.645   4.638   5.350
11476TIP3    H134369   5.603   4.719   5.379
11476TIP3    H234370   5.599   4.614   5.269
11477TIP3   OH234371   0.375   5.996   2.199
11477TIP3    H134372   0.371   5.936   2.125
11477TIP3    H234373   0.349   5.942   2.274
11478TIP3   OH234374   7.932   3.851   0.757
11478TIP3    H134375   7.882   3.793   0.699
11478TIP3    H234376   7.866   3.907   0.797
11479TIP3   OH234377   4.439   6.204   5.379
11479TIP3    H134378   4.449   6.159   5.295
11479TIP3    H234379   4.443   6.134   5.444
11480TIP3   OH234380   2.737   1.299   6.141
11480TIP3    H134381   2.718   1.320   6.233
11480TIP3    H234382   2.819   1.250   6.144
11481TIP3   OH234383   8.096   5.660   6.334
11481TIP3    H134384   8.056   5.743   6.359
11481TIP3    H234385   8.029   5.616   6.282
11482TIP3   OH234386   0.751   7.083   1.856
11482TIP3    H134387   0.837   7.124   1.860
11482TIP3    H234388   0.693   7.143   1.903
11483TIP3   OH234389   6.233   5.680   5.633
11483TIP3    H134390   6.315   5.702   5.676
11483TIP3    H234391   6.188   5.763   5.621
11484TIP3   OH234392   4.410   0.467   1.990
11484TIP3    H134393   4.462   0.401   1.944
11484TIP3    H234394   4.420   0.546   1.937
11485TIP3   OH234395   6.978   1.163   3.963
11485TIP3    H134396   6.983   1.251   3.927
11485TIP3    H234397   6.951   1.175   4.053
11486TIP3   OH234398   1.461   5.984   3.112
11486TIP3    H134399   1.386   6.039   3.089
11486TIP3    H234400   1.534   6.020   3.060
11487TIP3   OH234401   1.645   0.429   3.293
11487TIP3    H134402   1.635   0.338   3.265
11487TIP3    H234403   1.737   0.450   3.277
11488TIP3   OH234404   2.344   6.239   6.627
11488TIP3    H134405   2.388   6.299   6.567
11488TIP3    H234406   2.255   6.271   6.632
11489TIP3   OH234407   0.525   4.321   0.567
11489TIP3    H134408   0.611   4.281   0.557
11489TIP3    H234409   0.472   4.254   0.610
11490TIP3   OH234410   0.577   0.341   1.511
11490TIP3    H134411   0.577   0.288   1.590
11490TIP3    H234412   0.669   0.344   1.483
11491TIP3   OH234413   3.030   1.038   1.110
11491TIP3    H134414   3.097   1.063   1.174
11491TIP3    H234415   2.947   1.057   1.153
11492TIP3   OH234416   4.685   2.548   3.435
11492TIP3    H134417   4.769   2.583   3.463
11492TIP3    H234418   4.636   2.624   3.404
11493TIP3   OH234419   6.058   4.962   4.980
11493TIP3    H134420   5.976   5.010   4.972
11493TIP3    H234421   6.094   4.990   5.064
11494TIP3   OH234422   3.469   3.924   3.500
11494TIP3    H134423   3.554   3.928   3.456
11494TIP3    H234424   3.459   4.010   3.541
11495TIP3   OH234425   7.167   3.963   2.523
11495TIP3    H134426   7.079   3.924   2.517
11495TIP3    H234427   7.206   3.948   2.437
11496TIP3   OH234428   4.091   7.772   3.987
11496TIP3    H134429   4.095   7.685   3.948
11496TIP3    H234430   4.017   7.767   4.049
11497TIP3   OH234431   1.481   1.425   2.985
11497TIP3    H134432   1.507   1.514   2.960
11497TIP3    H234433   1.385   1.425   2.975
11498TIP3   OH234434   8.336   1.589   2.317
11498TIP3    H134435   8.275   1.625   2.252
11498TIP3    H234436   8.304   1.501   2.334
11499TIP3   OH234437   5.313   6.889   2.739
11499TIP3    H134438   5.236   6.868   2.686
11499TIP3    H234439   5.386   6.888   2.677
11500TIP3   OH234440   7.201   2.846   6.191
11500TIP3    H134441   7.152   2.893   6.258
11500TIP3    H234442   7.135   2.808   6.134
11501TIP3   OH234443   5.150   5.834   2.983
11501TIP3    H134444   5.093   5.880   3.045
11501TIP3    H234445   5.168   5.750   3.026
11502TIP3   OH234446   0.813   5.594   4.111
11502TIP3    H134447   0.748   5.539   4.155
11502TIP3    H234448   0.793   5.584   4.018
11503TIP3   OH234449   0.123   4.074   4.571
11503TIP3    H134450   0.054   4.009   4.556
11503TIP3    H234451   0.111   4.138   4.501
11504TIP3   OH234452   3.632   0.225   4.767
11504TIP3    H134453   3.638   0.140   4.810
11504TIP3    H234454   3.687   0.283   4.821
11505TIP3   OH234455   2.445   5.631   4.041
11505TIP3    H134456   2.400   5.670   3.966
11505TIP3    H234457   2.533   5.669   4.038
11506TIP3   OH234458   4.184   5.620   5.541
11506TIP3    H134459   4.263   5.649   5.586
11506TIP3    H234460   4.192   5.525   5.535
11507TIP3   OH234461   7.324   0.794   1.073
11507TIP3    H134462   7.250   0.851   1.052
11507TIP3    H234463   7.331   0.798   1.168
11508TIP3   OH234464   1.712   3.689   0.560
11508TIP3    H134465   1.653   3.724   0.628
11508TIP3    H234466   1.653   3.649   0.496
11509TIP3   OH234467   4.919   0.043   6.621
11509TIP3    H134468   4.985   0.101   6.660
11509TIP3    H234469   4.927  -0.039   6.671
11510TIP3   OH234470   2.312   3.784   4.698
11510TIP3    H134471   2.271   3.855   4.649
11510TIP3    H234472   2.244   3.754   4.759
11511TIP3   OH234473   3.159   2.467   2.947
11511TIP3    H134474   3.184   2.530   2.879
11511TIP3    H234475   3.141   2.387   2.898
11512TIP3   OH234476   8.435   0.258   4.433
11512TIP3    H134477   8.383   0.313   4.491
11512TIP3    H234478   8.378   0.185   4.410
11513TIP3   OH234479   0.351   4.455   6.092
11513TIP3    H134480   0.255   4.455   6.083
11513TIP3    H234481   0.366   4.423   6.181
11514TIP3   OH234482   3.435   5.194   4.322
11514TIP3    H134483   3.517   5.242   4.312
11514TIP3    H234484   3.382   5.250   4.380
11515TIP3   OH234485   7.790   3.970   5.476
11515TIP3    H134486   7.762   3.934   5.392
11515TIP3    H234487   7.717   3.951   5.535
11516TIP3   OH234488   4.892   0.066   3.900
11516TIP3    H134489   4.914   0.156   3.879
11516TIP3    H234490   4.924   0.015   3.825
11517TIP3   OH234491   2.015   7.164   5.550
11517TIP3    H134492   2.108   7.183   5.537
11517TIP3    H234493   2.009   7.137   5.642
11518TIP3   OH234494   5.123   3.742   4.944
11518TIP3    H134495   5.122   3.789   4.861
11518TIP3    H234496   5.177   3.795   5.002
11519TIP3   OH234497   5.958   3.145   4.434
11519TIP3    H134498   5.866   3.151   4.458
11519TIP3    H234499   6.005   3.161   4.515
11520TIP3   OH234500   6.829   3.509   5.229
11520TIP3    H134501   6.851   3.435   5.284
11520TIP3    H234502   6.907   3.522   5.174
11521TIP3   OH234503   3.233   5.959   3.094
11521TIP3    H134504   3.276   5.933   3.175
11521TIP3    H234505   3.302   5.998   3.042
11522TIP3   OH234506   6.056   3.817   2.821
11522TIP3    H134507   6.050   3.752   2.751
11522TIP3    H234508   5.968   3.822   2.858
11523TIP3   OH234509   7.042   7.721   1.317
11523TIP3    H134510   7.050   7.678   1.232
11523TIP3    H234511   7.132   7.742   1.342
11524TIP3   OH234512   5.340   2.742   4.044
11524TIP3    H134513   5.424   2.696   4.041
11524TIP3    H234514   5.300   2.724   3.960
11525TIP3   OH234515   8.175   4.509   3.673
11525TIP3    H134516   8.202   4.440   3.613
11525TIP3    H234517   8.079   4.507   3.672
11526TIP3   OH234518   5.786   4.037   3.573
11526TIP3    H134519   5.840   4.051   3.495
11526TIP3    H234520   5.737   4.119   3.583
11527TIP3   OH234521   7.535   7.582   4.884
11527TIP3    H134522   7.626   7.565   4.858
11527TIP3    H234523   7.494   7.495   4.886
11528TIP3   OH234524   4.031   3.948   4.965
11528TIP3    H134525   3.963   3.885   4.942
11528TIP3    H234526   4.099   3.894   5.007
11529TIP3   OH234527   3.047   5.654   4.824
11529TIP3    H134528   3.075   5.739   4.790
11529TIP3    H234529   3.127   5.601   4.823
11530TIP3   OH234530   0.666   7.610   2.606
11530TIP3    H134531   0.696   7.520   2.598
11530TIP3    H234532   0.600   7.608   2.675
11531TIP3   OH234533   4.898   4.552   3.064
11531TIP3    H134534   4.952   4.474   3.075
11531TIP3    H234535   4.950   4.610   3.008
11532TIP3   OH234536   1.822   7.537   5.575
11532TIP3    H134537   1.762   7.466   5.551
11532TIP3    H234538   1.802   7.608   5.515
11533TIP3   OH234539   7.030   5.669   6.594
11533TIP3    H134540   7.122   5.691   6.610
11533TIP3    H234541   6.990   5.671   6.681
11534TIP3   OH234542   3.957   1.051   5.133
11534TIP3    H134543   3.928   1.136   5.101
11534TIP3    H234544   3.925   0.988   5.068
11535TIP3   OH234545   3.004   7.690   4.031
11535TIP3    H134546   3.080   7.725   4.078
11535TIP3    H234547   3.019   7.596   4.029
11536TIP3   OH234548   0.607   4.220   5.062
11536TIP3    H134549   0.655   4.302   5.060
11536TIP3    H234550   0.522   4.240   5.023
11537TIP3   OH234551   4.008   4.909   4.774
11537TIP3    H134552   3.993   4.866   4.690
11537TIP3    H234553   3.942   4.978   4.778
11538TIP3   OH234554   0.505   3.451   5.304
11538TIP3    H134555   0.450   3.407   5.240
11538TIP3    H234556   0.479   3.543   5.300
11539TIP3   OH234557   2.730   6.265   1.941
11539TIP3    H134558   2.816   6.223   1.941
11539TIP3    H234559   2.684   6.227   1.867
11540TIP3   OH234560   5.043   4.321   4.584
11540TIP3    H134561   5.112   4.316   4.518
11540TIP3    H234562   4.999   4.405   4.567
11541TIP3   OH234563   7.575   4.147   2.290
11541TIP3    H134564   7.608   4.207   2.357
11541TIP3    H234565   7.480   4.148   2.300
11542TIP3   OH234566   3.693   7.207   5.795
11542TIP3    H134567   3.600   7.211   5.772
11542TIP3    H234568   3.730   7.145   5.733
11543TIP3   OH234569   2.272   6.713   3.242
11543TIP3    H134570   2.326   6.666   3.306
11543TIP3    H234571   2.187   6.669   3.246
11544TIP3   OH234572   0.878   6.696   6.378
11544TIP3    H134573   0.902   6.647   6.299
11544TIP3    H234574   0.882   6.631   6.448
11545TIP3   OH234575   0.257   6.687   5.648
11545TIP3    H134576   0.214   6.603   5.658
11545TIP3    H234577   0.301   6.702   5.731
11546TIP3   OH234578   1.374   7.001   2.700
11546TIP3    H134579   1.287   7.041   2.712
11546TIP3    H234580   1.395   6.964   2.786
11547TIP3   OH234581   8.129   1.337   2.075
11547TIP3    H134582   8.188   1.319   2.002
11547TIP3    H234583   8.053   1.280   2.059
11548TIP3   OH234584   4.572   3.131   3.752
11548TIP3    H134585   4.634   3.095   3.816
11548TIP3    H234586   4.486   3.113   3.790
11549TIP3   OH234587   5.133   4.174   5.058
11549TIP3    H134588   5.048   4.195   5.095
11549TIP3    H234589   5.139   4.229   4.979
11550TIP3   OH234590   2.469   0.466   5.439
11550TIP3    H134591   2.408   0.538   5.421
11550TIP3    H234592   2.412   0.394   5.467
11551TIP3   OH234593   1.389   1.765   6.118
11551TIP3    H134594   1.358   1.755   6.209
11551TIP3    H234595   1.389   1.859   6.104
11552TIP3   OH234596   7.076   6.735   6.791
11552TIP3    H134597   7.049   6.817   6.832
11552TIP3    H234598   7.004   6.675   6.808
11553TIP3   OH234599   5.406   4.649   6.526
11553TIP3    H134600   5.431   4.577   6.583
11553TIP3    H234601   5.456   4.635   6.446
11554TIP3   OH234602   2.819   5.456   6.677
11554TIP3    H134603   2.864   5.376   6.700
11554TIP3    H234604   2.741   5.458   6.733
11555TIP3   OH234605   2.348   0.748   5.435
11555TIP3    H134606   2.332   0.795   5.517
11555TIP3    H234607   2.261   0.725   5.403
11556TIP3   OH234608   7.083   7.394   3.093
11556TIP3    H134609   7.022   7.464   3.067
11556TIP3    H234610   7.143   7.386   3.019
11557TIP3   OH234611   4.788   0.691   1.041
11557TIP3    H134612   4.847   0.719   0.971
11557TIP3    H234613   4.761   0.603   1.016
11558TIP3   OH234614   4.444   5.909   6.355
11558TIP3    H134615   4.537   5.894   6.336
11558TIP3    H234616   4.408   5.943   6.273
11559TIP3   OH234617   2.713   6.812   5.484
11559TIP3    H134618   2.686   6.721   5.470
11559TIP3    H234619   2.793   6.821   5.432
11560TIP3   OH234620   5.828   7.614   2.359
11560TIP3    H134621   5.832   7.528   2.400
11560TIP3    H234622   5.914   7.625   2.318
11561TIP3   OH234623   6.076   0.907   4.915
11561TIP3    H134624   6.150   0.851   4.941
11561TIP3    H234625   6.076   0.903   4.819
11562TIP3   OH234626   7.616   2.950   4.800
11562TIP3    H134627   7.674   2.942   4.875
11562TIP3    H234628   7.668   2.918   4.726
11563TIP3   OH234629   3.512   2.429   5.657
11563TIP3    H134630   3.417   2.436   5.646
11563TIP3    H234631   3.548   2.481   5.586
11564TIP3   OH234632   3.777   3.127   2.751
11564TIP3    H134633   3.869   3.150   2.743
11564TIP3    H234634   3.776   3.036   2.780
11565TIP3   OH234635   0.984   2.481   5.102
11565TIP3    H134636   1.052   2.544   5.127
11565TIP3    H234637   1.006   2.401   5.150
11566TIP3   OH234638   5.662   6.946   3.179
11566TIP3    H134639   5.734   6.977   3.233
11566TIP3    H234640   5.703   6.885   3.117
11567TIP3   OH234641   4.848   2.741   3.152
11567TIP3    H134642   4.756   2.714   3.144
11567TIP3    H234643   4.894   2.662   3.180
11568TIP3   OH234644   8.075   2.373   1.718
11568TIP3    H134645   8.028   2.355   1.799
11568TIP3    H234646   8.035   2.314   1.654
11569TIP3   OH234647   7.239   3.138   2.959
11569TIP3    H134648   7.326   3.137   2.920
11569TIP3    H234649   7.182   3.107   2.888
11570TIP3   OH234650   5.355   0.887   4.782
11570TIP3    H134651   5.283   0.913   4.841
11570TIP3    H234652   5.425   0.950   4.802
11571TIP3   OH234653   5.295   0.959   1.118
11571TIP3    H134654   5.296   1.032   1.180
11571TIP3    H234655   5.344   0.890   1.161
11572TIP3   OH234656   7.736   5.525   4.382
11572TIP3    H134657   7.667   5.523   4.448
11572TIP3    H234658   7.738   5.616   4.351
11573TIP3   OH234659   7.173   2.006   5.141
11573TIP3    H134660   7.188   2.038   5.052
11573TIP3    H234661   7.227   2.062   5.196
11574TIP3   OH234662   8.309   3.269   0.537
11574TIP3    H134663   8.289   3.184   0.576
11574TIP3    H234664   8.270   3.333   0.596
11575TIP3   OH234665   4.949   0.385   2.006
11575TIP3    H134666   5.017   0.372   1.940
11575TIP3    H234667   4.990   0.361   2.089
11576TIP3   OH234668   1.247   3.699   0.659
11576TIP3    H134669   1.160   3.704   0.619
11576TIP3    H234670   1.300   3.761   0.608
11577TIP3   OH234671   7.945   6.561   4.862
11577TIP3    H134672   8.040   6.567   4.857
11577TIP3    H234673   7.913   6.641   4.822
11578TIP3   OH234674   7.285   1.767   3.240
11578TIP3    H134675   7.273   1.672   3.247
11578TIP3    H234676   7.200   1.804   3.265
11579TIP3   OH234677   1.009   7.040   3.412
11579TIP3    H134678   1.051   6.964   3.371
11579TIP3    H234679   0.921   7.042   3.375
11580TIP3   OH234680   5.923   2.431   6.782
11580TIP3    H134681   5.969   2.487   6.844
11580TIP3    H234682   5.830   2.443   6.801
11581TIP3   OH234683   4.888   3.439   0.981
11581TIP3    H134684   4.939   3.520   0.986
11581TIP3    H234685   4.801   3.463   1.013
11582TIP3   OH234686   6.992   4.373   0.721
11582TIP3    H134687   6.931   4.429   0.674
11582TIP3    H234688   7.068   4.366   0.663
11583TIP3   OH234689   2.482   7.265   1.043
11583TIP3    H134690   2.523   7.189   1.002
11583TIP3    H234691   2.393   7.236   1.064
11584TIP3   OH234692   2.767   4.966   0.962
11584TIP3    H134693   2.835   4.982   1.027
11584TIP3    H234694   2.732   5.053   0.942
11585TIP3   OH234695   2.146   2.424   2.443
11585TIP3    H134696   2.174   2.403   2.354
11585TIP3    H234697   2.057   2.458   2.433
11586TIP3   OH234698   7.043   0.087   0.234
11586TIP3    H134699   7.015   0.176   0.256
11586TIP3    H234700   7.138   0.093   0.224
11587TIP3   OH234701   2.327   0.142   2.097
11587TIP3    H134702   2.277   0.126   2.177
11587TIP3    H234703   2.265   0.122   2.026
11588TIP3   OH234704   1.128   7.164   5.779
11588TIP3    H134705   1.183   7.086   5.775
11588TIP3    H234706   1.148   7.204   5.864
11589TIP3   OH234707   1.200   1.319   0.405
11589TIP3    H134708   1.192   1.242   0.348
11589TIP3    H234709   1.110   1.347   0.421
11590TIP3   OH234710   3.761   3.275   4.416
11590TIP3    H134711   3.834   3.217   4.436
11590TIP3    H234712   3.698   3.219   4.370
11591TIP3   OH234713   0.332   4.382   2.968
11591TIP3    H134714   0.368   4.393   2.880
11591TIP3    H234715   0.403   4.408   3.027
11592TIP3   OH234716   3.124   1.193   4.356
11592TIP3    H134717   3.189   1.159   4.417
11592TIP3    H234718   3.172   1.204   4.274
11593TIP3   OH234719   0.972   3.501   5.360
11593TIP3    H134720   0.986   3.576   5.303
11593TIP3    H234721   0.980   3.425   5.302
11594TIP3   OH234722   2.796   6.046   4.650
11594TIP3    H134723   2.757   6.063   4.735
11594TIP3    H234724   2.855   6.120   4.635
11595TIP3   OH234725   7.674   4.109   4.133
11595TIP3    H134726   7.753   4.162   4.136
11595TIP3    H234727   7.706   4.020   4.118
11596TIP3   OH234728   2.593   0.701   6.242
11596TIP3    H134729   2.640   0.784   6.230
11596TIP3    H234730   2.516   0.709   6.185
11597TIP3   OH234731   4.031   5.030   0.493
11597TIP3    H134732   4.045   5.068   0.406
11597TIP3    H234733   3.971   5.090   0.536
11598TIP3   OH234734   7.657   6.251   6.276
11598TIP3    H134735   7.611   6.273   6.357
11598TIP3    H234736   7.736   6.206   6.304
11599TIP3   OH234737   6.256   4.276   4.813
11599TIP3    H134738   6.327   4.326   4.773
11599TIP3    H234739   6.227   4.217   4.744
11600TIP3   OH234740   6.662   1.771   5.403
11600TIP3    H134741   6.665   1.721   5.485
11600TIP3    H234742   6.730   1.731   5.348
11601TIP3   OH234743   2.756   5.301   1.887
11601TIP3    H134744   2.743   5.243   1.961
11601TIP3    H234745   2.832   5.266   1.841
11602TIP3   OH234746   7.001   6.497   5.906
11602TIP3    H134747   6.923   6.488   5.852
11602TIP3    H234748   6.989   6.433   5.976
11603TIP3   OH234749   1.956   3.724   1.083
11603TIP3    H134750   2.043   3.707   1.120
11603TIP3    H234751   1.917   3.638   1.071
11604TIP3   OH234752   5.110   5.663   0.685
11604TIP3    H134753   5.178   5.709   0.734
11604TIP3    H234754   5.079   5.727   0.621
11605TIP3   OH234755   1.330   6.379   6.153
11605TIP3    H134756   1.286   6.298   6.126
11605TIP3    H234757   1.407   6.350   6.201
11606TIP3   OH234758   8.269   0.338   5.645
11606TIP3    H134759   8.277   0.250   5.682
11606TIP3    H234760   8.181   0.366   5.668
11607TIP3   OH234761   6.550   3.032   3.978
11607TIP3    H134762   6.592   3.105   4.023
11607TIP3    H234763   6.534   3.065   3.890
11608TIP3   OH234764   8.247   4.539   1.036
11608TIP3    H134765   8.261   4.458   0.987
11608TIP3    H234766   8.168   4.522   1.087
11609TIP3   OH234767   6.482   5.300   6.736
11609TIP3    H134768   6.481   5.391   6.765
11609TIP3    H234769   6.508   5.250   6.813
11610TIP3   OH234770   2.556   7.107   6.796
11610TIP3    H134771   2.485   7.056   6.757
11610TIP3    H234772   2.580   7.170   6.728
11611TIP3   OH234773   7.321   4.797   6.526
11611TIP3    H134774   7.349   4.833   6.442
11611TIP3    H234775   7.402   4.775   6.571
11612TIP3   OH234776   4.609   4.586   1.944
11612TIP3    H134777   4.575   4.596   2.034
11612TIP3    H234778   4.703   4.598   1.953
11613TIP3   OH234779   0.325   6.521   1.208
11613TIP3    H134780   0.233   6.546   1.200
11613TIP3    H234781   0.373   6.591   1.164
11614TIP3   OH234782   6.521   0.552   4.444
11614TIP3    H134783   6.535   0.589   4.357
11614TIP3    H234784   6.596   0.582   4.496
11615TIP3   OH234785   2.315   4.218   4.966
11615TIP3    H134786   2.236   4.226   5.019
11615TIP3    H234787   2.340   4.126   4.976
11616TIP3   OH234788   3.902   0.836   0.457
11616TIP3    H134789   3.902   0.905   0.390
11616TIP3    H234790   3.810   0.816   0.472
11617TIP3   OH234791   4.375   1.392   6.325
11617TIP3    H134792   4.385   1.415   6.233
11617TIP3    H234793   4.381   1.475   6.372
11618TIP3   OH234794   4.208   2.085   1.096
11618TIP3    H134795   4.258   2.155   1.139
11618TIP3    H234796   4.274   2.021   1.069
11619TIP3   OH234797   1.593   5.720   6.418
11619TIP3    H134798   1.635   5.703   6.502
11619TIP3    H234799   1.538   5.644   6.403
11620TIP3   OH234800   0.839   7.298   1.380
11620TIP3    H134801   0.871   7.283   1.469
11620TIP3    H234802   0.901   7.361   1.343
11621TIP3   OH234803   1.369   4.558   4.135
11621TIP3    H134804   1.387   4.622   4.205
11621TIP3    H234805   1.286   4.589   4.097
11622TIP3   OH234806   2.736   4.756   5.930
11622TIP3    H134807   2.713   4.691   5.996
11622TIP3    H234808   2.662   4.757   5.870
11623TIP3   OH234809   3.881   4.997   4.121
11623TIP3    H134810   3.803   5.030   4.076
11623TIP3    H234811   3.873   5.029   4.210
11624TIP3   OH234812   1.300   2.272   0.709
11624TIP3    H134813   1.365   2.229   0.654
11624TIP3    H234814   1.344   2.284   0.793
11625TIP3   OH234815   2.864   1.601   0.391
11625TIP3    H134816   2.947   1.554   0.395
11625TIP3    H234817   2.889   1.693   0.384
11626TIP3   OH234818   2.809   7.098   1.036
11626TIP3    H134819   2.756   7.115   0.959
11626TIP3    H234820   2.831   7.005   1.029
11627TIP3   OH234821   1.136   6.349   0.782
11627TIP3    H134822   1.083   6.269   0.783
11627TIP3    H234823   1.086   6.411   0.834
11628TIP3   OH234824   4.375   7.924   4.338
11628TIP3    H134825   4.282   7.901   4.342
11628TIP3    H234826   4.376   8.015   4.308
11629TIP3   OH234827   4.762   1.523   5.064
11629TIP3    H134828   4.763   1.603   5.010
11629TIP3    H234829   4.707   1.462   5.016
11630TIP3   OH234830   5.666   1.918   4.815
11630TIP3    H134831   5.602   1.882   4.877
11630TIP3    H234832   5.614   1.961   4.748
11631TIP3   OH234833   1.550   5.659   5.405
11631TIP3    H134834   1.639   5.683   5.378
11631TIP3    H234835   1.499   5.663   5.325
11632TIP3   OH234836   2.792   2.054   4.646
11632TIP3    H134837   2.819   2.069   4.736
11632TIP3    H234838   2.699   2.079   4.644
11633TIP3   OH234839   6.342   1.676   0.416
11633TIP3    H134840   6.328   1.596   0.365
11633TIP3    H234841   6.257   1.693   0.458
11634TIP3   OH234842   2.665   2.089   2.065
11634TIP3    H134843   2.576   2.065   2.090
11634TIP3    H234844   2.694   2.017   2.009
11635TIP3   OH234845   2.169   5.421   3.399
11635TIP3    H134846   2.113   5.424   3.322
11635TIP3    H234847   2.233   5.492   3.385
11636TIP3   OH234848   7.349   6.056   4.833
11636TIP3    H134849   7.309   6.135   4.868
11636TIP3    H234850   7.440   6.081   4.815
11637TIP3   OH234851   2.577   7.863   0.780
11637TIP3    H134852   2.508   7.840   0.842
11637TIP3    H234853   2.541   7.936   0.729
11638TIP3   OH234854   5.824   3.752   2.940
11638TIP3    H134855   5.748   3.810   2.950
11638TIP3    H234856   5.788   3.673   2.898
11639TIP3   OH234857   1.400   1.408   0.596
11639TIP3    H134858   1.322   1.389   0.543
11639TIP3    H234859   1.470   1.359   0.553
11640TIP3   OH234860   7.523   2.679   0.665
11640TIP3    H134861   7.505   2.628   0.586
11640TIP3    H234862   7.515   2.617   0.737
11641TIP3   OH234863   1.722   6.662   6.768
11641TIP3    H134864   1.739   6.637   6.677
11641TIP3    H234865   1.683   6.584   6.807
11642TIP3   OH234866   5.716   3.262   0.341
11642TIP3    H134867   5.796   3.308   0.318
11642TIP3    H234868   5.667   3.324   0.396
11643TIP3   OH234869   3.762   1.960   5.963
11643TIP3    H134870   3.715   2.044   5.963
11643TIP3    H234871   3.737   1.919   5.880
11644TIP3   OH234872   6.693   2.869   4.367
11644TIP3    H134873   6.718   2.960   4.383
11644TIP3    H234874   6.631   2.874   4.294
11645TIP3   OH234875   7.963   3.446   2.157
11645TIP3    H134876   7.918   3.528   2.133
11645TIP3    H234877   8.032   3.474   2.217
11646TIP3   OH234878   3.599   4.431   6.244
11646TIP3    H134879   3.680   4.482   6.243
11646TIP3    H234880   3.626   4.343   6.217
11647TIP3   OH234881   0.930   5.878   3.226
11647TIP3    H134882   0.891   5.965   3.216
11647TIP3    H234883   0.859   5.823   3.257
11648TIP3   OH234884   3.099   2.845   1.806
11648TIP3    H134885   3.121   2.782   1.737
11648TIP3    H234886   3.165   2.914   1.798
11649TIP3   OH234887   5.215   6.783   3.457
11649TIP3    H134888   5.201   6.859   3.513
11649TIP3    H234889   5.269   6.724   3.510
11650TIP3   OH234890   5.965   0.995   2.305
11650TIP3    H134891   5.927   0.914   2.340
11650TIP3    H234892   6.013   1.032   2.378
11651TIP3   OH234893   1.795   7.421   0.464
11651TIP3    H134894   1.881   7.432   0.421
11651TIP3    H234895   1.810   7.352   0.529
11652TIP3   OH234896   4.393   7.154   6.124
11652TIP3    H134897   4.425   7.176   6.036
11652TIP3    H234898   4.299   7.169   6.120
11653TIP3   OH234899   3.755   7.102   3.829
11653TIP3    H134900   3.831   7.128   3.776
11653TIP3    H234901   3.774   7.011   3.853
11654TIP3   OH234902   5.932   0.816   1.060
11654TIP3    H134903   5.986   0.789   1.134
11654TIP3    H234904   5.923   0.911   1.070
11655TIP3   OH234905   7.123   5.594   3.649
11655TIP3    H134906   7.178   5.524   3.685
11655TIP3    H234907   7.084   5.555   3.571
11656TIP3   OH234908   8.291   1.110   1.622
11656TIP3    H134909   8.339   1.084   1.543
11656TIP3    H234910   8.311   1.043   1.686
11657TIP3   OH234911   5.999   4.258   6.053
11657TIP3    H134912   6.004   4.340   6.102
11657TIP3    H234913   5.920   4.267   5.999
11658TIP3   OH234914   0.204   2.756   6.094
11658TIP3    H134915   0.292   2.738   6.126
11658TIP3    H234916   0.185   2.845   6.123
11659TIP3   OH234917   2.762   1.702   4.611
11659TIP3    H134918   2.819   1.711   4.688
11659TIP3    H234919   2.714   1.621   4.627
11660TIP3   OH234920   6.824   0.381   3.207
11660TIP3    H134921   6.750   0.347   3.157
11660TIP3    H234922   6.788   0.401   3.293
11661TIP3   OH234923   8.164   6.561   1.281
11661TIP3    H134924   8.093   6.581   1.220
11661TIP3    H234925   8.150   6.470   1.305
11662TIP3   OH234926   6.392   0.673   1.787
11662TIP3    H134927   6.414   0.600   1.844
11662TIP3    H234928   6.328   0.636   1.725
11663TIP3   OH234929   5.170   4.005   4.558
11663TIP3    H134930   5.166   4.086   4.507
11663TIP3    H234931   5.197   4.034   4.646
11664TIP3   OH234932   7.977   7.218   3.583
11664TIP3    H134933   8.005   7.191   3.496
11664TIP3    H234934   8.045   7.183   3.641
11665TIP3   OH234935   7.966   5.115   2.617
11665TIP3    H134936   7.961   5.138   2.524
11665TIP3    H234937   8.042   5.164   2.649
11666TIP3   OH234938   5.875   4.921   4.677
11666TIP3    H134939   5.899   4.869   4.600
11666TIP3    H234940   5.957   4.960   4.706
11667TIP3   OH234941   3.124   0.223   1.020
11667TIP3    H134942   3.195   0.285   1.036
11667TIP3    H234943   3.123   0.212   0.925
11668TIP3   OH234944   7.146   0.823   4.043
11668TIP3    H134945   7.108   0.818   3.956
11668TIP3    H234946   7.088   0.769   4.098
11669TIP3   OH234947   2.834   7.908   3.060
11669TIP3    H134948   2.923   7.903   3.094
11669TIP3    H234949   2.783   7.946   3.132
11670TIP3   OH234950   1.421   5.393   1.436
11670TIP3    H134951   1.498   5.451   1.443
11670TIP3    H234952   1.423   5.362   1.345
11671TIP3   OH234953   4.621   1.640   6.722
11671TIP3    H134954   4.546   1.623   6.665
11671TIP3    H234955   4.678   1.698   6.671
11672TIP3   OH234956   7.143   3.818   5.185
11672TIP3    H134957   7.078   3.887   5.199
11672TIP3    H234958   7.157   3.780   5.272
11673TIP3   OH234959   5.896   4.469   4.693
11673TIP3    H134960   5.945   4.422   4.625
11673TIP3    H234961   5.820   4.505   4.647
11674TIP3   OH234962   7.279   2.958   0.724
11674TIP3    H134963   7.356   2.965   0.780
11674TIP3    H234964   7.207   2.941   0.784
11675TIP3   OH234965   3.844   4.796   0.677
11675TIP3    H134966   3.922   4.784   0.731
11675TIP3    H234967   3.791   4.861   0.725
11676TIP3   OH234968   4.864   2.952   6.779
11676TIP3    H134969   4.851   2.873   6.832
11676TIP3    H234970   4.789   3.007   6.800
11677TIP3   OH234971   3.583   3.397   5.508
11677TIP3    H134972   3.597   3.325   5.569
11677TIP3    H234973   3.498   3.378   5.468
11678TIP3   OH234974   8.038   2.907   5.370
11678TIP3    H134975   8.123   2.876   5.401
11678TIP3    H234976   8.058   2.950   5.286
11679TIP3   OH234977   7.660   5.386   4.006
11679TIP3    H134978   7.682   5.327   4.078
11679TIP3    H234979   7.565   5.392   4.008
11680TIP3   OH234980   0.061   0.392   4.196
11680TIP3    H134981   0.050   0.349   4.281
11680TIP3    H234982   0.153   0.377   4.173
11681TIP3   OH234983   6.787   1.577   4.823
11681TIP3    H134984   6.804   1.537   4.738
11681TIP3    H234985   6.819   1.513   4.886
11682TIP3   OH234986   0.121   6.844   1.428
11682TIP3    H134987   0.053   6.783   1.456
11682TIP3    H234988   0.203   6.795   1.437
11683TIP3   OH234989   7.684   7.591   3.290
11683TIP3    H134990   7.679   7.498   3.314
11683TIP3    H234991   7.664   7.638   3.370
11684TIP3   OH234992   4.247   0.758   6.689
11684TIP3    H134993   4.260   0.852   6.704
11684TIP3    H234994   4.194   0.730   6.763
11685TIP3   OH234995   6.059   1.579   6.283
11685TIP3    H134996   6.102   1.582   6.369
11685TIP3    H234997   5.982   1.524   6.297
11686TIP3   OH234998   5.697   1.912   0.658
11686TIP3    H134999   5.753   1.953   0.591
11686TIP3    H235000   5.641   1.852   0.608
11687TIP3   OH235001   4.867   0.609   0.422
11687TIP3    H135002   4.809   0.636   0.352
11687TIP3    H235003   4.952   0.645   0.398
11688TIP3   OH235004   6.142   1.743   2.483
11688TIP3    H135005   6.061   1.736   2.433
11688TIP3    H235006   6.211   1.725   2.419
11689TIP3   OH235007   7.068   2.910   3.449
11689TIP3    H135008   7.163   2.908   3.457
11689TIP3    H235009   7.036   2.905   3.539
11690TIP3   OH235010   6.075   6.804   5.679
11690TIP3    H135011   6.092   6.796   5.773
11690TIP3    H235012   6.112   6.888   5.655
11691TIP3   OH235013   0.495   7.637   4.181
11691TIP3    H135014   0.545   7.711   4.147
11691TIP3    H235015   0.560   7.566   4.188
11692TIP3   OH235016   3.936   3.659   1.215
11692TIP3    H135017   3.926   3.754   1.209
11692TIP3    H235018   4.018   3.641   1.170
11693TIP3   OH235019   8.184   3.646   4.431
11693TIP3    H135020   8.155   3.701   4.504
11693TIP3    H235021   8.121   3.663   4.361
11694TIP3   OH235022   3.038   3.527   5.595
11694TIP3    H135023   2.973   3.524   5.525
11694TIP3    H235024   3.034   3.440   5.635
11695TIP3   OH235025   8.320   0.747   4.145
11695TIP3    H135026   8.273   0.694   4.081
11695TIP3    H235027   8.258   0.761   4.216
11696TIP3   OH235028   8.014   7.428   0.151
11696TIP3    H135029   7.941   7.399   0.205
11696TIP3    H235030   8.004   7.523   0.145
11697TIP3   OH235031   4.268   2.821   3.037
11697TIP3    H135032   4.197   2.883   3.020
11697TIP3    H235033   4.266   2.809   3.132
11698TIP3   OH235034   5.776   2.371   3.572
11698TIP3    H135035   5.759   2.292   3.520
11698TIP3    H235036   5.869   2.390   3.555
11699TIP3   OH235037   2.947   5.825   5.696
11699TIP3    H135038   2.853   5.814   5.683
11699TIP3    H235039   2.976   5.874   5.620
11700TIP3   OH235040   4.801   7.880   0.623
11700TIP3    H135041   4.867   7.902   0.688
11700TIP3    H235042   4.725   7.934   0.646
11701TIP3   OH235043   7.057   4.287   2.616
11701TIP3    H135044   6.963   4.276   2.629
11701TIP3    H235045   7.069   4.382   2.609
11702TIP3   OH235046   2.830   4.759   2.111
11702TIP3    H135047   2.858   4.668   2.117
11702TIP3    H235048   2.761   4.759   2.045
11703TIP3   OH235049   5.847   7.228   5.933
11703TIP3    H135050   5.800   7.160   5.884
11703TIP3    H235051   5.820   7.215   6.023
11704TIP3   OH235052   4.869   7.176   6.042
11704TIP3    H135053   4.912   7.133   5.968
11704TIP3    H235054   4.803   7.113   6.072
11705TIP3   OH235055   5.701   1.170   1.791
11705TIP3    H135056   5.608   1.189   1.805
11705TIP3    H235057   5.746   1.229   1.852
11706TIP3   OH235058   3.989   0.041   2.580
11706TIP3    H135059   3.916   0.080   2.533
11706TIP3    H235060   4.021  -0.028   2.521
11707TIP3   OH235061   1.556   7.138   4.971
11707TIP3    H135062   1.469   7.116   4.940
11707TIP3    H235063   1.551   7.232   4.990
11708TIP3   OH235064   0.739   2.293   0.210
11708TIP3    H135065   0.714   2.362   0.150
11708TIP3    H235066   0.828   2.316   0.238
11709TIP3   OH235067   4.548   4.101   3.227
11709TIP3    H135068   4.458   4.114   3.195
11709TIP3    H235069   4.551   4.151   3.308
11710TIP3   OH235070   4.522   0.674   1.327
11710TIP3    H135071   4.468   0.719   1.392
11710TIP3    H235072   4.464   0.608   1.291
11711TIP3   OH235073   1.387   2.248   4.139
11711TIP3    H135074   1.369   2.284   4.226
11711TIP3    H235075   1.440   2.315   4.095
11712TIP3   OH235076   1.075   0.587   5.404
11712TIP3    H135077   1.140   0.560   5.468
11712TIP3    H235078   0.993   0.549   5.435
11713TIP3   OH235079   3.894   6.281   3.191
11713TIP3    H135080   3.973   6.286   3.137
11713TIP3    H235081   3.870   6.372   3.206
11714TIP3   OH235082   2.187   4.902   6.850
11714TIP3    H135083   2.133   4.823   6.848
11714TIP3    H235084   2.236   4.899   6.767
11715TIP3   OH235085   0.614   6.212   6.171
11715TIP3    H135086   0.680   6.219   6.240
11715TIP3    H235087   0.596   6.302   6.146
11716TIP3   OH235088   0.907   1.349   0.381
11716TIP3    H135089   0.860   1.407   0.441
11716TIP3    H235090   0.867   1.365   0.296
11717TIP3   OH235091   0.603   3.785   2.814
11717TIP3    H135092   0.621   3.849   2.745
11717TIP3    H235093   0.612   3.835   2.895
11718TIP3   OH235094   5.622   3.742   6.706
11718TIP3    H135095   5.708   3.772   6.677
11718TIP3    H235096   5.621   3.648   6.688
11719TIP3   OH235097   3.672   2.429   1.001
11719TIP3    H135098   3.603   2.495   1.000
11719TIP3    H235099   3.628   2.348   1.026
11720TIP3   OH235100   1.225   5.694   0.923
11720TIP3    H135101   1.315   5.661   0.928
11720TIP3    H235102   1.235   5.789   0.915
11721TIP3   OH235103   0.132   3.717   4.828
11721TIP3    H135104   0.116   3.798   4.875
11721TIP3    H235105   0.194   3.741   4.759
11722TIP3   OH235106   3.211   1.681   1.741
11722TIP3    H135107   3.188   1.617   1.674
11722TIP3    H235108   3.252   1.752   1.693
11723TIP3   OH235109   3.227   5.550   6.701
11723TIP3    H135110   3.216   5.532   6.795
11723TIP3    H235111   3.139   5.573   6.671
11724TIP3   OH235112   4.697   3.095   5.630
11724TIP3    H135113   4.711   3.164   5.564
11724TIP3    H235114   4.749   3.123   5.705
11725TIP3   OH235115   4.951   6.732   4.434
11725TIP3    H135116   4.891   6.702   4.502
11725TIP3    H235117   4.978   6.820   4.463
11726TIP3   OH235118   1.454   5.017   0.129
11726TIP3    H135119   1.460   5.110   0.106
11726TIP3    H235120   1.521   4.974   0.076
11727TIP3   OH235121   3.834   0.816   5.932
11727TIP3    H135122   3.822   0.896   5.881
11727TIP3    H235123   3.821   0.745   5.868
11728TIP3   OH235124   6.527   7.055   0.081
11728TIP3    H135125   6.601   7.100   0.040
11728TIP3    H235126   6.452   7.111   0.063
11729TIP3   OH235127   2.049   2.239   5.658
11729TIP3    H135128   2.021   2.196   5.577
11729TIP3    H235129   1.972   2.237   5.715
11730TIP3   OH235130   7.021   5.122   1.700
11730TIP3    H135131   6.937   5.166   1.687
11730TIP3    H235132   7.002   5.050   1.760
11731TIP3   OH235133   6.088   5.820   4.480
11731TIP3    H135134   6.149   5.892   4.461
11731TIP3    H235135   6.042   5.805   4.397
11732TIP3   OH235136   1.162   3.859   2.374
11732TIP3    H135137   1.251   3.894   2.378
11732TIP3    H235138   1.174   3.764   2.370
11733TIP3   OH235139   1.885   0.305   0.022
11733TIP3    H135140   1.969   0.266   0.043
11733TIP3    H235141   1.830   0.231  -0.004
11734TIP3   OH235142   3.921   1.868   0.921
11734TIP3    H135143   4.014   1.860   0.940
11734TIP3    H235144   3.904   1.963   0.921
11735TIP3   OH235145   0.278   4.913   6.127
11735TIP3    H135146   0.219   4.890   6.055
11735TIP3    H235147   0.293   4.831   6.173
11736TIP3   OH235148   4.246   3.029   0.047
11736TIP3    H135149   4.155   3.029   0.076
11736TIP3    H235150   4.297   3.043   0.127
11737TIP3   OH235151   0.797   1.059   1.765
11737TIP3    H135152   0.829   0.991   1.707
11737TIP3    H235153   0.703   1.045   1.770
11738TIP3   OH235154   6.860   0.634   5.376
11738TIP3    H135155   6.932   0.689   5.407
11738TIP3    H235156   6.903   0.558   5.336
11739TIP3   OH235157   3.312   5.328   6.525
11739TIP3    H135158   3.338   5.397   6.585
11739TIP3    H235159   3.374   5.334   6.452
11740TIP3   OH235160   2.374   3.741   2.228
11740TIP3    H135161   2.423   3.776   2.303
11740TIP3    H235162   2.430   3.760   2.153
11741TIP3   OH235163   5.161   4.576   2.441
11741TIP3    H135164   5.141   4.496   2.393
11741TIP3    H235165   5.248   4.562   2.476
11742TIP3   OH235166   6.044   1.882   4.994
11742TIP3    H135167   5.971   1.943   4.982
11742TIP3    H235168   6.110   1.910   4.931
11743TIP3   OH235169   1.699   3.369   4.577
11743TIP3    H135170   1.756   3.416   4.638
11743TIP3    H235171   1.755   3.304   4.536
11744TIP3   OH235172   1.735   5.172   3.833
11744TIP3    H135173   1.657   5.222   3.859
11744TIP3    H235174   1.705   5.081   3.832
11745TIP3   OH235175   4.626   1.967   4.087
11745TIP3    H135176   4.623   2.006   4.174
11745TIP3    H235177   4.676   2.030   4.035
11746TIP3   OH235178   3.008   7.269   1.147
11746TIP3    H135179   2.927   7.269   1.097
11746TIP3    H235180   3.041   7.180   1.140
11747TIP3   OH235181   5.163   4.382   0.510
11747TIP3    H135182   5.203   4.465   0.534
11747TIP3    H235183   5.148   4.388   0.415
11748TIP3   OH235184   0.294   3.664   3.072
11748TIP3    H135185   0.336   3.598   3.127
11748TIP3    H235186   0.322   3.643   2.983
11749TIP3   OH235187   1.319   5.044   4.419
11749TIP3    H135188   1.377   5.064   4.492
11749TIP3    H235189   1.231   5.046   4.457
11750TIP3   OH235190   0.154   3.202   3.665
11750TIP3    H135191   0.217   3.170   3.600
11750TIP3    H235192   0.135   3.292   3.639
11751TIP3   OH235193   6.216   1.548   6.747
11751TIP3    H135194   6.250   1.564   6.835
11751TIP3    H235195   6.135   1.500   6.761
11752TIP3   OH235196   7.709   5.227   4.232
11752TIP3    H135197   7.701   5.153   4.172
11752TIP3    H235198   7.728   5.188   4.317
11753TIP3   OH235199   7.713   3.267   0.303
11753TIP3    H135200   7.796   3.270   0.352
11753TIP3    H235201   7.717   3.185   0.254
11754TIP3   OH235202   4.914   7.756   3.850
11754TIP3    H135203   4.980   7.826   3.843
11754TIP3    H235204   4.849   7.790   3.911
11755TIP3   OH235205   0.632   7.584   4.585
11755TIP3    H135206   0.720   7.549   4.600
11755TIP3    H235207   0.646   7.657   4.525
11756TIP3   OH235208   3.707   5.662   1.970
11756TIP3    H135209   3.696   5.682   1.877
11756TIP3    H235210   3.703   5.567   1.975
11757TIP3   OH235211   6.645   4.133   2.011
11757TIP3    H135212   6.732   4.170   1.998
11757TIP3    H235213   6.634   4.071   1.939
11758TIP3   OH235214   5.251   0.625   0.562
11758TIP3    H135215   5.323   0.576   0.521
11758TIP3    H235216   5.277   0.633   0.654
11759TIP3   OH235217   7.888   4.283   3.113
11759TIP3    H135218   7.929   4.285   3.199
11759TIP3    H235219   7.865   4.374   3.096
11760TIP3   OH235220   4.943   2.617   3.501
11760TIP3    H135221   5.027   2.578   3.477
11760TIP3    H235222   4.945   2.704   3.460
11761TIP3   OH235223   2.594   0.548   3.989
11761TIP3    H135224   2.541   0.613   4.034
11761TIP3    H235225   2.561   0.464   4.022
11762TIP3   OH235226   4.333   3.257   3.037
11762TIP3    H135227   4.374   3.300   3.113
11762TIP3    H235228   4.259   3.210   3.074
11763TIP3   OH235229   7.947   2.344   1.956
11763TIP3    H135230   8.008   2.409   1.991
11763TIP3    H235231   7.888   2.325   2.029
11764TIP3   OH235232   4.651   6.553   5.901
11764TIP3    H135233   4.739   6.520   5.919
11764TIP3    H235234   4.608   6.554   5.987
11765TIP3   OH235235   2.015   0.959   0.237
11765TIP3    H135236   2.088   0.963   0.176
11765TIP3    H235237   1.996   0.865   0.245
11766TIP3   OH235238   0.985   4.607   0.761
11766TIP3    H135239   1.007   4.569   0.847
11766TIP3    H235240   1.046   4.681   0.751
11767TIP3   OH235241   8.015   0.386   5.685
11767TIP3    H135242   7.950   0.348   5.626
11767TIP3    H235243   7.964   0.420   5.758
11768TIP3   OH235244   7.252   3.144   5.142
11768TIP3    H135245   7.259   3.054   5.111
11768TIP3    H235246   7.187   3.184   5.085
11769TIP3   OH235247   1.148   6.500   5.150
11769TIP3    H135248   1.195   6.482   5.069
11769TIP3    H235249   1.160   6.421   5.203
11770TIP3   OH235250   7.446   7.041   2.966
11770TIP3    H135251   7.426   7.024   2.874
11770TIP3    H235252   7.370   7.089   2.999
11771TIP3   OH235253   7.520   2.644   3.203
11771TIP3    H135254   7.573   2.657   3.125
11771TIP3    H235255   7.447   2.705   3.193
11772TIP3   OH235256   1.594   7.137   1.885
11772TIP3    H135257   1.591   7.167   1.975
11772TIP3    H235258   1.683   7.104   1.873
11773TIP3   OH235259   3.041   2.729   2.180
11773TIP3    H135260   3.024   2.816   2.216
11773TIP3    H235261   2.965   2.677   2.205
11774TIP3   OH235262   3.987   2.640   6.165
11774TIP3    H135263   3.915   2.579   6.177
11774TIP3    H235264   3.954   2.704   6.102
11775TIP3   OH235265   0.871   2.094   4.840
11775TIP3    H135266   0.822   2.135   4.768
11775TIP3    H235267   0.857   2.000   4.828
11776TIP3   OH235268   3.990   1.369   3.228
11776TIP3    H135269   4.047   1.420   3.286
11776TIP3    H235270   4.012   1.278   3.248
11777TIP3   OH235271   6.763   3.426   6.633
11777TIP3    H135272   6.857   3.407   6.630
11777TIP3    H235273   6.723   3.344   6.661
11778TIP3   OH235274   7.671   3.069   5.456
11778TIP3    H135275   7.714   3.015   5.522
11778TIP3    H235276   7.723   3.149   5.453
11779TIP3   OH235277   2.181   0.779   5.680
11779TIP3    H135278   2.131   0.699   5.669
11779TIP3    H235279   2.134   0.829   5.747
11780TIP3   OH235280   0.913   7.318   3.322
11780TIP3    H135281   0.871   7.278   3.398
11780TIP3    H235282   0.983   7.258   3.299
11781TIP3   OH235283   7.953   0.773   2.565
11781TIP3    H135284   7.881   0.806   2.512
11781TIP3    H235285   8.009   0.726   2.503
11782TIP3   OH235286   4.670   5.713   0.873
11782TIP3    H135287   4.598   5.716   0.936
11782TIP3    H235288   4.749   5.708   0.927
11783TIP3   OH235289   5.237   2.284   3.547
11783TIP3    H135290   5.243   2.266   3.641
11783TIP3    H235291   5.166   2.227   3.516
11784TIP3   OH235292   2.124   0.789   1.494
11784TIP3    H135293   2.047   0.734   1.508
11784TIP3    H235294   2.187   0.732   1.451
11785TIP3   OH235295   6.646   0.621   6.276
11785TIP3    H135296   6.667   0.644   6.367
11785TIP3    H235297   6.731   0.622   6.231
11786TIP3   OH235298   0.650   5.135   5.080
11786TIP3    H135299   0.568   5.104   5.118
11786TIP3    H235300   0.623   5.184   5.002
11787TIP3   OH235301   4.544   0.750   0.062
11787TIP3    H135302   4.517   0.663   0.094
11787TIP3    H235303   4.593   0.732  -0.017
11788TIP3   OH235304   1.594   4.807   5.544
11788TIP3    H135305   1.588   4.902   5.548
11788TIP3    H235306   1.609   4.780   5.634
11789TIP3   OH235307   3.616   7.160   0.749
11789TIP3    H135308   3.598   7.114   0.831
11789TIP3    H235309   3.646   7.247   0.776
11790TIP3   OH235310   1.766   4.827   5.349
11790TIP3    H135311   1.712   4.817   5.426
11790TIP3    H235312   1.738   4.757   5.290
11791TIP3   OH235313   6.269   3.975   5.556
11791TIP3    H135314   6.262   4.050   5.497
11791TIP3    H235315   6.180   3.960   5.587
11792TIP3   OH235316   4.370   6.056   1.501
11792TIP3    H135317   4.438   6.111   1.462
11792TIP3    H235318   4.390   6.056   1.594
11793TIP3   OH235319   6.365   6.601   2.811
11793TIP3    H135320   6.294   6.637   2.759
11793TIP3    H235321   6.397   6.675   2.862
11794TIP3   OH235322   7.282   4.720   4.610
11794TIP3    H135323   7.312   4.809   4.592
11794TIP3    H235324   7.261   4.720   4.704
11795TIP3   OH235325   2.617   6.337   5.958
11795TIP3    H135326   2.661   6.404   6.011
11795TIP3    H235327   2.628   6.256   6.007
11796TIP3   OH235328   5.191   5.236   5.320
11796TIP3    H135329   5.245   5.202   5.248
11796TIP3    H235330   5.186   5.164   5.382
11797TIP3   OH235331   4.844   1.787   6.347
11797TIP3    H135332   4.820   1.765   6.437
11797TIP3    H235333   4.818   1.878   6.336
11798TIP3   OH235334   7.027   7.445   3.702
11798TIP3    H135335   7.059   7.507   3.768
11798TIP3    H235336   7.089   7.373   3.706
11799TIP3   OH235337   0.567   4.528   1.436
11799TIP3    H135338   0.487   4.579   1.445
11799TIP3    H235339   0.580   4.520   1.341
11800TIP3   OH235340   8.256   7.605   1.847
11800TIP3    H135341   8.181   7.547   1.837
11800TIP3    H235342   8.332   7.547   1.845
11801TIP3   OH235343   3.707   3.808   1.481
11801TIP3    H135344   3.717   3.872   1.411
11801TIP3    H235345   3.677   3.728   1.436
11802TIP3   OH235346   4.726   6.776   6.718
11802TIP3    H135347   4.678   6.706   6.762
11802TIP3    H235348   4.673   6.854   6.732
11803TIP3   OH235349   6.497   2.615   2.317
11803TIP3    H135350   6.447   2.588   2.394
11803TIP3    H235351   6.584   2.636   2.350
11804TIP3   OH235352   6.900   2.972   3.870
11804TIP3    H135353   6.899   2.888   3.916
11804TIP3    H235354   6.852   2.954   3.789
11805TIP3   OH235355   6.806   3.165   4.588
11805TIP3    H135356   6.876   3.110   4.551
11805TIP3    H235357   6.849   3.212   4.660
11806TIP3   OH235358   2.520   1.582   0.186
11806TIP3    H135359   2.603   1.543   0.161
11806TIP3    H235360   2.534   1.616   0.274
11807TIP3   OH235361   7.136   1.654   1.786
11807TIP3    H135362   7.208   1.619   1.734
11807TIP3    H235363   7.155   1.625   1.876
11808TIP3   OH235364   7.431   1.412   2.950
11808TIP3    H135365   7.342   1.430   2.919
11808TIP3    H235366   7.418   1.351   3.023
11809TIP3   OH235367   3.798   1.513   1.240
11809TIP3    H135368   3.783   1.596   1.195
11809TIP3    H235369   3.720   1.461   1.222
11810TIP3   OH235370   4.015   4.263   1.020
11810TIP3    H135371   4.005   4.326   0.949
11810TIP3    H235372   4.086   4.299   1.074
11811TIP3   OH235373   3.383   4.073   1.826
11811TIP3    H135374   3.380   3.980   1.803
11811TIP3    H235375   3.434   4.076   1.907
11812TIP3   OH235376   2.523   4.199   4.581
11812TIP3    H135377   2.599   4.172   4.529
11812TIP3    H235378   2.552   4.193   4.672
11813TIP3   OH235379   7.631   7.727   1.407
11813TIP3    H135380   7.569   7.745   1.337
11813TIP3    H235381   7.707   7.691   1.362
11814TIP3   OH235382   3.698   7.212   2.701
11814TIP3    H135383   3.690   7.248   2.613
11814TIP3    H235384   3.734   7.284   2.753
11815TIP3   OH235385   1.445   5.301   5.392
11815TIP3    H135386   1.379   5.266   5.452
11815TIP3    H235387   1.395   5.345   5.324
11816TIP3   OH235388   5.752   3.253   4.924
11816TIP3    H135389   5.842   3.242   4.894
11816TIP3    H235390   5.707   3.295   4.850
11817TIP3   OH235391   7.070   2.385   2.105
11817TIP3    H135392   7.072   2.336   2.023
11817TIP3    H235393   7.100   2.323   2.171
11818TIP3   OH235394   2.518   1.135   1.205
11818TIP3    H135395   2.594   1.086   1.173
11818TIP3    H235396   2.552   1.223   1.224
11819TIP3   OH235397   3.808   7.785   0.042
11819TIP3    H135398   3.724   7.747   0.016
11819TIP3    H235399   3.862   7.780  -0.036
11820TIP3   OH235400   5.406   0.053   2.719
11820TIP3    H135401   5.318   0.022   2.738
11820TIP3    H235402   5.418   0.033   2.626
11821TIP3   OH235403   0.123   5.598   1.891
11821TIP3    H135404   0.041   5.647   1.888
11821TIP3    H235405   0.119   5.542   1.813
11822TIP3   OH235406   2.568   4.883   0.331
11822TIP3    H135407   2.647   4.887   0.385
11822TIP3    H235408   2.525   4.802   0.358
11823TIP3   OH235409   7.606   6.944   6.669
11823TIP3    H135410   7.676   7.003   6.696
11823TIP3    H235411   7.568   6.912   6.751
11824TIP3   OH235412   1.522   1.038   4.786
11824TIP3    H135413   1.581   1.002   4.853
11824TIP3    H235414   1.434   1.012   4.815
11825TIP3   OH235415   0.371   7.511   3.843
11825TIP3    H135416   0.466   7.505   3.848
11825TIP3    H235417   0.354   7.554   3.759
11826TIP3   OH235418   5.347   0.121   5.757
11826TIP3    H135419   5.311   0.094   5.842
11826TIP3    H235420   5.390   0.042   5.723
11827TIP3   OH235421   2.398   6.753   1.792
11827TIP3    H135422   2.491   6.739   1.809
11827TIP3    H235423   2.390   6.848   1.782
11828TIP3   OH235424   0.006   2.369   1.057
11828TIP3    H135425  -0.031   2.281   1.050
11828TIP3    H235426   0.012   2.400   0.967
11829TIP3   OH235427   4.585   7.560   4.207
11829TIP3    H135428   4.574   7.629   4.142
11829TIP3    H235429   4.519   7.578   4.273
11830TIP3   OH235430   6.242   0.421   2.789
11830TIP3    H135431   6.158   0.376   2.794
11830TIP3    H235432   6.282   0.388   2.709
11831TIP3   OH235433   3.178   1.114   6.258
11831TIP3    H135434   3.259   1.086   6.301
11831TIP3    H235435   3.190   1.208   6.244
11832TIP3   OH235436   1.050   3.752   6.625
11832TIP3    H135437   0.979   3.757   6.562
11832TIP3    H235438   1.129   3.739   6.572
11833TIP3   OH235439   3.345   4.898   5.465
11833TIP3    H135440   3.383   4.985   5.459
11833TIP3    H235441   3.305   4.895   5.552
11834TIP3   OH235442   7.451   2.276   3.808
11834TIP3    H135443   7.446   2.180   3.799
11834TIP3    H235444   7.403   2.295   3.889
11835TIP3   OH235445   4.253   0.174   0.053
11835TIP3    H135446   4.224   0.264   0.041
11835TIP3    H235447   4.209   0.125  -0.017
11836TIP3   OH235448   5.193   2.645   5.835
11836TIP3    H135449   5.158   2.598   5.759
11836TIP3    H235450   5.274   2.685   5.803
11837TIP3   OH235451   6.892   2.277   1.555
11837TIP3    H135452   6.917   2.322   1.474
11837TIP3    H235453   6.814   2.323   1.585
11838TIP3   OH235454   6.280   0.139   0.403
11838TIP3    H135455   6.235   0.223   0.399
11838TIP3    H235456   6.349   0.146   0.337
11839TIP3   OH235457   1.841   4.116   4.045
11839TIP3    H135458   1.845   4.100   3.951
11839TIP3    H235459   1.897   4.049   4.083
11840TIP3   OH235460   6.593   1.601   0.483
11840TIP3    H135461   6.506   1.638   0.468
11840TIP3    H235462   6.644   1.673   0.521
11841TIP3   OH235463   1.633   3.998   1.933
11841TIP3    H135464   1.657   3.986   2.025
11841TIP3    H235465   1.682   4.075   1.905
11842TIP3   OH235466   2.939   4.081   1.000
11842TIP3    H135467   2.964   4.165   0.962
11842TIP3    H235468   2.856   4.097   1.044
11843TIP3   OH235469   6.475   1.658   1.351
11843TIP3    H135470   6.491   1.617   1.265
11843TIP3    H235471   6.533   1.610   1.411
11844TIP3   OH235472   7.074   0.940   0.094
11844TIP3    H135473   7.066   0.944   0.190
11844TIP3    H235474   7.027   0.860   0.070
11845TIP3   OH235475   6.107   0.944   4.316
11845TIP3    H135476   6.108   0.969   4.224
11845TIP3    H235477   6.024   0.897   4.327
11846TIP3   OH235478   0.581   2.865   0.180
11846TIP3    H135479   0.541   2.900   0.260
11846TIP3    H235480   0.672   2.895   0.183
11847TIP3   OH235481   4.406   1.914   4.298
11847TIP3    H135482   4.358   1.838   4.330
11847TIP3    H235483   4.428   1.891   4.207
11848TIP3   OH235484   1.138   3.813   6.220
11848TIP3    H135485   1.199   3.740   6.227
11848TIP3    H235486   1.058   3.781   6.261
11849TIP3   OH235487   5.935   4.800   2.349
11849TIP3    H135488   5.979   4.816   2.265
11849TIP3    H235489   5.965   4.713   2.374
11850TIP3   OH235490   4.097   2.216   6.417
11850TIP3    H135491   4.145   2.133   6.417
11850TIP3    H235492   4.083   2.236   6.510
11851TIP3   OH235493   6.181   7.732   1.118
11851TIP3    H135494   6.093   7.694   1.115
11851TIP3    H235495   6.168   7.824   1.096
11852TIP3   OH235496   2.899   4.745   5.572
11852TIP3    H135497   2.881   4.823   5.624
11852TIP3    H235498   2.934   4.778   5.490
11853TIP3   OH235499   1.944   3.047   5.284
11853TIP3    H135500   1.968   3.125   5.333
11853TIP3    H235501   2.012   2.983   5.305
11854TIP3   OH235502   1.572   5.616   0.025
11854TIP3    H135503   1.524   5.692  -0.008
11854TIP3    H235504   1.516   5.581   0.094
11855TIP3   OH235505   4.156   1.427   2.163
11855TIP3    H135506   4.140   1.357   2.100
11855TIP3    H235507   4.084   1.489   2.148
11856TIP3   OH235508   7.476   2.501   5.954
11856TIP3    H135509   7.458   2.447   6.030
11856TIP3    H235510   7.472   2.591   5.987
11857TIP3   OH235511   1.458   4.258   1.358
11857TIP3    H135512   1.535   4.201   1.355
11857TIP3    H235513   1.459   4.303   1.273
11858TIP3   OH235514   5.759   2.056   1.066
11858TIP3    H135515   5.745   2.015   1.151
11858TIP3    H235516   5.747   2.149   1.082
11859TIP3   OH235517   1.541   0.633   4.242
11859TIP3    H135518   1.519   0.724   4.224
11859TIP3    H235519   1.631   0.624   4.211
11860TIP3   OH235520   1.203   2.138   0.311
11860TIP3    H135521   1.211   2.044   0.293
11860TIP3    H235522   1.286   2.175   0.281
11861TIP3   OH235523   7.650   7.063   4.370
11861TIP3    H135524   7.654   6.988   4.310
11861TIP3    H235525   7.626   7.137   4.315
11862TIP3   OH235526   3.393   1.227   3.910
11862TIP3    H135527   3.482   1.190   3.916
11862TIP3    H235528   3.405   1.320   3.928
11863TIP3   OH235529   6.504   6.238   1.383
11863TIP3    H135530   6.525   6.169   1.445
11863TIP3    H235531   6.480   6.191   1.303
11864TIP3   OH235532   3.976   4.157   1.454
11864TIP3    H135533   4.053   4.209   1.430
11864TIP3    H235534   3.909   4.182   1.390
11865TIP3   OH235535   4.360   7.361   5.421
11865TIP3    H135536   4.435   7.404   5.378
11865TIP3    H235537   4.392   7.339   5.508
11866TIP3   OH235538   0.905   3.458   6.346
11866TIP3    H135539   0.811   3.438   6.350
11866TIP3    H235540   0.909   3.552   6.331
11867TIP3   OH235541   5.706   1.792   0.318
11867TIP3    H135542   5.646   1.753   0.381
11867TIP3    H235543   5.651   1.812   0.242
11868TIP3   OH235544   0.293   6.281   6.166
11868TIP3    H135545   0.251   6.318   6.088
11868TIP3    H235546   0.282   6.186   6.156
11869TIP3   OH235547   3.994   2.451   3.073
11869TIP3    H135548   3.903   2.434   3.096
11869TIP3    H235549   4.045   2.422   3.149
11870TIP3   OH235550   4.340   7.541   3.966
11870TIP3    H135551   4.386   7.462   3.939
11870TIP3    H235552   4.255   7.536   3.922
11871TIP3   OH235553   0.898   2.647   1.425
11871TIP3    H135554   0.888   2.629   1.518
11871TIP3    H235555   0.952   2.726   1.421
11872TIP3   OH235556   2.984   4.304   6.625
11872TIP3    H135557   3.006   4.347   6.707
11872TIP3    H235558   2.994   4.211   6.642
11873TIP3   OH235559   6.938   3.620   1.434
11873TIP3    H135560   7.025   3.627   1.395
11873TIP3    H235561   6.878   3.629   1.360
11874TIP3   OH235562   7.305   2.009   0.076
11874TIP3    H135563   7.269   2.027   0.164
11874TIP3    H235564   7.245   2.055   0.017
11875TIP3   OH235565   3.541   4.789   2.628
11875TIP3    H135566   3.548   4.694   2.616
11875TIP3    H235567   3.567   4.804   2.719
11876TIP3   OH235568   7.189   0.580   5.845
11876TIP3    H135569   7.187   0.563   5.751
11876TIP3    H235570   7.134   0.511   5.883
11877TIP3   OH235571   2.784   3.959   3.259
11877TIP3    H135572   2.810   4.051   3.264
11877TIP3    H235573   2.866   3.911   3.255
11878TIP3   OH235574   1.377   5.542   0.186
11878TIP3    H135575   1.291   5.551   0.228
11878TIP3    H235576   1.396   5.448   0.193
11879TIP3   OH235577   3.076   6.401   6.096
11879TIP3    H135578   3.024   6.476   6.125
11879TIP3    H235579   3.011   6.332   6.079
11880TIP3   OH235580   3.136   4.348   0.348
11880TIP3    H135581   3.223   4.389   0.339
11880TIP3    H235582   3.075   4.421   0.344
11881TIP3   OH235583   4.683   1.076   4.242
11881TIP3    H135584   4.723   0.989   4.239
11881TIP3    H235585   4.757   1.137   4.249
11882TIP3   OH235586   7.216   4.060   6.260
11882TIP3    H135587   7.253   4.148   6.268
11882TIP3    H235588   7.175   4.044   6.344
11883TIP3   OH235589   5.601   4.644   6.076
11883TIP3    H135590   5.682   4.661   6.029
11883TIP3    H235591   5.537   4.702   6.035
11884TIP3   OH235592   1.798   6.681   3.229
11884TIP3    H135593   1.704   6.665   3.233
11884TIP3    H235594   1.831   6.650   3.314
11885TIP3   OH235595   2.538   1.308   4.867
11885TIP3    H135596   2.567   1.241   4.928
11885TIP3    H235597   2.525   1.386   4.922
11886TIP3   OH235598   1.187   4.771   0.664
11886TIP3    H135599   1.162   4.742   0.576
11886TIP3    H235600   1.261   4.714   0.687
11887TIP3   OH235601   6.228   3.646   4.614
11887TIP3    H135602   6.279   3.643   4.695
11887TIP3    H235603   6.159   3.711   4.632
11888TIP3   OH235604   2.325   1.299   4.397
11888TIP3    H135605   2.338   1.393   4.405
11888TIP3    H235606   2.372   1.262   4.471
11889TIP3   OH235607   4.239   0.318   2.691
11889TIP3    H135608   4.255   0.370   2.770
11889TIP3    H235609   4.307   0.346   2.630
11890TIP3   OH235610   4.083   5.547   0.745
11890TIP3    H135611   4.027   5.623   0.763
11890TIP3    H235612   4.094   5.548   0.650
11891TIP3   OH235613   5.105   1.865   5.500
11891TIP3    H135614   5.057   1.791   5.461
11891TIP3    H235615   5.054   1.887   5.579
11892TIP3   OH235616   8.026   4.470   4.254
11892TIP3    H135617   8.043   4.564   4.262
11892TIP3    H235618   8.096   4.428   4.305
11893TIP3   OH235619   7.648   0.735   6.550
11893TIP3    H135620   7.645   0.657   6.606
11893TIP3    H235621   7.702   0.709   6.476
11894TIP3   OH235622   2.383   5.749   3.790
11894TIP3    H135623   2.464   5.722   3.746
11894TIP3    H235624   2.379   5.844   3.777
11895TIP3   OH235625   1.445   1.940   5.737
11895TIP3    H135626   1.465   1.947   5.831
11895TIP3    H235627   1.349   1.947   5.732
11896TIP3   OH235628   8.018   4.296   3.403
11896TIP3    H135629   7.965   4.288   3.483
11896TIP3    H235630   8.099   4.249   3.424
11897TIP3   OH235631   2.368   6.470   2.848
11897TIP3    H135632   2.288   6.505   2.888
11897TIP3    H235633   2.353   6.375   2.843
11898TIP3   OH235634   4.296   3.799   4.580
11898TIP3    H135635   4.351   3.723   4.600
11898TIP3    H235636   4.296   3.850   4.661
11899TIP3   OH235637   3.009   6.997   0.778
11899TIP3    H135638   3.081   7.039   0.826
11899TIP3    H235639   2.958   6.951   0.844
11900TIP3   OH235640   2.025   6.469   0.458
11900TIP3    H135641   1.949   6.507   0.415
11900TIP3    H235642   1.992   6.388   0.498
11901TIP3   OH235643   5.515   5.633   4.674
11901TIP3    H135644   5.422   5.646   4.691
11901TIP3    H235645   5.555   5.719   4.685
11902TIP3   OH235646   4.034   6.392   0.024
11902TIP3    H135647   3.960   6.380   0.084
11902TIP3    H235648   4.101   6.331   0.055
11903TIP3   OH235649   7.037   0.337   0.345
11903TIP3    H135650   7.075   0.307   0.428
11903TIP3    H235651   6.968   0.397   0.370
11904TIP3   OH235652   5.245   3.773   5.598
11904TIP3    H135653   5.305   3.801   5.666
11904TIP3    H235654   5.205   3.693   5.633
11905TIP3   OH235655   7.511   4.680   6.713
11905TIP3    H135656   7.574   4.751   6.725
11905TIP3    H235657   7.556   4.617   6.657
11906TIP3   OH235658   1.359   7.806   4.022
11906TIP3    H135659   1.417   7.880   4.000
11906TIP3    H235660   1.311   7.836   4.099
11907TIP3   OH235661   1.815   4.500   1.532
11907TIP3    H135662   1.763   4.427   1.565
11907TIP3    H235663   1.801   4.570   1.596
11908TIP3   OH235664   7.529   1.843   0.283
11908TIP3    H135665   7.448   1.853   0.332
11908TIP3    H235666   7.502   1.810   0.197
11909TIP3   OH235667   2.999   2.873   0.333
11909TIP3    H135668   2.966   2.890   0.421
11909TIP3    H235669   3.085   2.833   0.346
11910TIP3   OH235670   6.407   0.125   4.492
11910TIP3    H135671   6.429   0.051   4.548
11910TIP3    H235672   6.339   0.091   4.434
11911TIP3   OH235673   0.411   2.576   4.502
11911TIP3    H135674   0.501   2.603   4.517
11911TIP3    H235675   0.400   2.497   4.555
11912TIP3   OH235676   7.243   0.149   4.078
11912TIP3    H135677   7.151   0.144   4.053
11912TIP3    H235678   7.290   0.162   3.995
11913TIP3   OH235679   7.160   6.405   3.852
11913TIP3    H135680   7.085   6.428   3.907
11913TIP3    H235681   7.230   6.463   3.882
11914TIP3   OH235682   1.008   5.110   3.007
11914TIP3    H135683   1.092   5.143   3.038
11914TIP3    H235684   0.949   5.120   3.082
11915TIP3   OH235685   7.855   4.266   6.464
11915TIP3    H135686   7.948   4.250   6.480
11915TIP3    H235687   7.852   4.356   6.430
11916TIP3   OH235688   7.223   5.575   1.319
11916TIP3    H135689   7.306   5.546   1.356
11916TIP3    H235690   7.173   5.495   1.307
11917TIP3   OH235691   5.316   3.154   2.892
11917TIP3    H135692   5.253   3.107   2.838
11917TIP3    H235693   5.402   3.128   2.858
11918TIP3   OH235694   4.874   6.977   6.882
11918TIP3    H135695   4.867   7.062   6.838
11918TIP3    H235696   4.846   6.914   6.815
11919TIP3   OH235697   7.539   1.104   0.637
11919TIP3    H135698   7.612   1.068   0.687
11919TIP3    H235699   7.482   1.144   0.703
11920TIP3   OH235700  -0.030   0.651   1.334
11920TIP3    H135701  -0.078   0.731   1.355
11920TIP3    H235702   0.053   0.660   1.381
11921TIP3   OH235703   0.861   6.171   5.755
11921TIP3    H135704   0.928   6.114   5.718
11921TIP3    H235705   0.873   6.255   5.710
11922TIP3   OH235706   6.632   4.520   6.091
11922TIP3    H135707   6.649   4.614   6.086
11922TIP3    H235708   6.710   4.483   6.132
11923TIP3   OH235709   4.095   7.884   3.189
11923TIP3    H135710   4.126   7.909   3.277
11923TIP3    H235711   4.044   7.805   3.203
11924TIP3   OH235712   6.929   1.945   2.759
11924TIP3    H135713   6.910   1.868   2.705
11924TIP3    H235714   6.913   2.020   2.702
11925TIP3   OH235715   0.335   2.531   1.839
11925TIP3    H135716   0.303   2.484   1.763
11925TIP3    H235717   0.263   2.589   1.863
11926TIP3   OH235718   3.729   4.896   5.178
11926TIP3    H135719   3.674   4.873   5.252
11926TIP3    H235720   3.747   4.989   5.189
11927TIP3   OH235721   8.254   5.945   1.684
11927TIP3    H135722   8.161   5.964   1.672
11927TIP3    H235723   8.292   5.951   1.597
11928TIP3   OH235724   0.661   4.250   4.668
11928TIP3    H135725   0.750   4.282   4.669
11928TIP3    H235726   0.669   4.157   4.646
11929TIP3   OH235727   6.921   6.285   1.066
11929TIP3    H135728   6.987   6.352   1.080
11929TIP3    H235729   6.905   6.247   1.152
11930TIP3   OH235730   6.376   7.280   5.813
11930TIP3    H135731   6.436   7.311   5.745
11930TIP3    H235732   6.289   7.291   5.775
11931TIP3   OH235733   6.774   7.588   6.375
11931TIP3    H135734   6.717   7.576   6.299
11931TIP3    H235735   6.779   7.682   6.387
11932TIP3   OH235736   4.931   6.958   1.924
11932TIP3    H135737   4.892   7.039   1.956
11932TIP3    H235738   5.002   6.986   1.867
11933TIP3   OH235739   2.558   0.745   5.821
11933TIP3    H135740   2.627   0.715   5.763
11933TIP3    H235741   2.517   0.664   5.854
11934TIP3   OH235742   3.170   1.628   2.797
11934TIP3    H135743   3.090   1.629   2.744
11934TIP3    H235744   3.184   1.536   2.818
11935TIP3   OH235745   4.682   3.661   0.852
11935TIP3    H135746   4.714   3.717   0.923
11935TIP3    H235747   4.601   3.703   0.823
11936TIP3   OH235748  -0.009   5.943   5.112
11936TIP3    H135749   0.054   6.012   5.132
11936TIP3    H235750  -0.072   5.984   5.053
11937TIP3   OH235751   6.117   0.359   6.550
11937TIP3    H135752   6.173   0.331   6.622
11937TIP3    H235753   6.130   0.292   6.482
11938TIP3   OH235754   5.476   1.698   1.493
11938TIP3    H135755   5.396   1.738   1.526
11938TIP3    H235756   5.448   1.614   1.456
11939TIP3   OH235757   0.614   2.409   4.859
11939TIP3    H135758   0.550   2.347   4.894
11939TIP3    H235759   0.637   2.464   4.934
11940TIP3   OH235760   5.946   7.677   6.757
11940TIP3    H135761   5.933   7.701   6.849
11940TIP3    H235762   6.040   7.688   6.743
11941TIP3   OH235763   3.611   0.872   6.265
11941TIP3    H135764   3.665   0.931   6.316
11941TIP3    H235765   3.602   0.915   6.180
11942TIP3   OH235766   5.535   4.850   2.355
11942TIP3    H135767   5.559   4.904   2.280
11942TIP3    H235768   5.562   4.762   2.331
11943TIP3   OH235769   5.957   1.551   3.538
11943TIP3    H135770   5.866   1.545   3.566
11943TIP3    H235771   6.007   1.564   3.619
11944TIP3   OH235772   1.248   0.820   2.367
11944TIP3    H135773   1.194   0.814   2.288
11944TIP3    H235774   1.192   0.786   2.437
11945TIP3   OH235775   7.234   7.253   0.109
11945TIP3    H135776   7.236   7.305   0.028
11945TIP3    H235777   7.317   7.205   0.109
11946TIP3   OH235778   2.801   5.722   3.931
11946TIP3    H135779   2.793   5.720   4.027
11946TIP3    H235780   2.850   5.642   3.910
11947TIP3   OH235781   4.532   6.926   3.673
11947TIP3    H135782   4.623   6.896   3.681
11947TIP3    H235783   4.519   6.936   3.579
11948TIP3   OH235784   5.492   7.274   2.972
11948TIP3    H135785   5.504   7.224   3.053
11948TIP3    H235786   5.492   7.366   3.000
11949TIP3   OH235787   1.989   3.939   0.366
11949TIP3    H135788   1.999   4.018   0.314
11949TIP3    H235789   2.075   3.925   0.404
11950TIP3   OH235790   2.443   6.267   5.737
11950TIP3    H135791   2.515   6.267   5.801
11950TIP3    H235792   2.419   6.359   5.729
11951TIP3   OH235793   4.906   5.892   2.306
11951TIP3    H135794   4.925   5.918   2.397
11951TIP3    H235795   4.992   5.885   2.265
11952TIP3   OH235796   7.119   2.583   5.805
11952TIP3    H135797   7.191   2.644   5.786
11952TIP3    H235798   7.155   2.497   5.784
11953TIP3   OH235799   4.752   1.948   1.028
11953TIP3    H135800   4.838   1.912   1.048
11953TIP3    H235801   4.721   1.898   0.953
11954TIP3   OH235802   7.801   2.705   3.809
11954TIP3    H135803   7.778   2.759   3.733
11954TIP3    H235804   7.718   2.667   3.838
11955TIP3   OH235805   7.846   0.884   6.067
11955TIP3    H135806   7.890   0.937   6.001
11955TIP3    H235807   7.917   0.852   6.123
11956TIP3   OH235808   7.099   3.245   4.424
11956TIP3    H135809   7.082   3.184   4.352
11956TIP3    H235810   7.185   3.218   4.458
11957TIP3   OH235811   1.334   4.046   4.189
11957TIP3    H135812   1.392   4.033   4.114
11957TIP3    H235813   1.384   4.012   4.263
11958TIP3   OH235814   6.800   2.585   0.990
11958TIP3    H135815   6.848   2.507   0.963
11958TIP3    H235816   6.868   2.643   1.024
11959TIP3   OH235817   1.473   4.032   2.645
11959TIP3    H135818   1.399   4.087   2.619
11959TIP3    H235819   1.550   4.080   2.614
11960TIP3   OH235820   4.221   4.670   5.554
11960TIP3    H135821   4.269   4.615   5.493
11960TIP3    H235822   4.175   4.733   5.499
11961TIP3   OH235823   1.928   2.147   6.863
11961TIP3    H135824   1.966   2.150   6.775
11961TIP3    H235825   1.947   2.058   6.894
11962TIP3   OH235826   5.565   6.702   6.258
11962TIP3    H135827   5.563   6.611   6.228
11962TIP3    H235828   5.537   6.698   6.349
11963TIP3   OH235829   4.190   7.142   4.053
11963TIP3    H135830   4.167   7.060   4.008
11963TIP3    H235831   4.162   7.128   4.143
11964TIP3   OH235832   5.154   7.779   1.168
11964TIP3    H135833   5.109   7.731   1.238
11964TIP3    H235834   5.120   7.868   1.175
11965TIP3   OH235835   4.638  -0.022   0.100
11965TIP3    H135836   4.609  -0.089   0.038
11965TIP3    H235837   4.588   0.056   0.076
11966TIP3   OH235838   3.183   5.342   0.785
11966TIP3    H135839   3.107   5.289   0.759
11966TIP3    H235840   3.197   5.321   0.877
11967TIP3   OH235841   0.956   4.834   1.498
11967TIP3    H135842   0.999   4.874   1.423
11967TIP3    H235843   0.915   4.755   1.462
11968TIP3   OH235844   3.472   2.261   0.720
11968TIP3    H135845   3.491   2.354   0.733
11968TIP3    H235846   3.377   2.254   0.731
11969TIP3   OH235847   7.887   5.510   2.442
11969TIP3    H135848   7.806   5.548   2.476
11969TIP3    H235849   7.859   5.436   2.388
11970TIP3   OH235850   0.202   4.618   3.483
11970TIP3    H135851   0.242   4.595   3.398
11970TIP3    H235852   0.276   4.624   3.543
11971TIP3   OH235853   7.419   4.443   2.795
11971TIP3    H135854   7.369   4.514   2.754
11971TIP3    H235855   7.379   4.363   2.761
11972TIP3   OH235856   5.278   6.887   2.999
11972TIP3    H135857   5.270   6.897   2.904
11972TIP3    H235858   5.214   6.948   3.035
11973TIP3   OH235859   7.796   5.778   0.637
11973TIP3    H135860   7.703   5.758   0.641
11973TIP3    H235861   7.833   5.708   0.584
11974TIP3   OH235862   1.408   1.589   5.009
11974TIP3    H135863   1.386   1.499   5.033
11974TIP3    H235864   1.431   1.584   4.916
11975TIP3   OH235865   6.808   6.991   3.378
11975TIP3    H135866   6.732   7.043   3.406
11975TIP3    H235867   6.874   7.056   3.355
11976TIP3   OH235868   2.209   6.076   6.396
11976TIP3    H135869   2.143   6.007   6.386
11976TIP3    H235870   2.213   6.091   6.491
11977TIP3   OH235871   5.467   1.292   4.013
11977TIP3    H135872   5.544   1.347   3.999
11977TIP3    H235873   5.490   1.208   3.971
11978TIP3   OH235874   3.124   4.759   2.483
11978TIP3    H135875   3.110   4.778   2.390
11978TIP3    H235876   3.100   4.839   2.529
11979TIP3   OH235877   4.968   5.620   3.475
11979TIP3    H135878   4.920   5.657   3.549
11979TIP3    H235879   5.059   5.618   3.505
11980TIP3   OH235880   3.311   4.126   5.824
11980TIP3    H135881   3.368   4.125   5.901
11980TIP3    H235882   3.298   4.033   5.804
11981TIP3   OH235883   4.812   6.700   2.947
11981TIP3    H135884   4.729   6.712   2.993
11981TIP3    H235885   4.862   6.779   2.967
11982TIP3   OH235886   7.003   2.873   0.570
11982TIP3    H135887   6.974   2.825   0.647
11982TIP3    H235888   7.057   2.810   0.521
11983TIP3   OH235889   5.035   7.120   2.262
11983TIP3    H135890   5.089   7.126   2.341
11983TIP3    H235891   4.985   7.202   2.261
11984TIP3   OH235892   2.697   5.320   3.985
11984TIP3    H135893   2.756   5.250   4.011
11984TIP3    H235894   2.751   5.379   3.933
11985TIP3   OH235895   1.909   0.974   2.280
11985TIP3    H135896   1.952   1.054   2.249
11985TIP3    H235897   1.831   0.967   2.225
11986TIP3   OH235898   4.298   1.425   4.510
11986TIP3    H135899   4.262   1.508   4.542
11986TIP3    H235900   4.329   1.446   4.422
11987TIP3   OH235901   4.898   6.376   5.402
11987TIP3    H135902   4.955   6.433   5.454
11987TIP3    H235903   4.829   6.348   5.463
11988TIP3   OH235904   0.781   7.395   0.440
11988TIP3    H135905   0.793   7.485   0.409
11988TIP3    H235906   0.693   7.394   0.478
11989TIP3   OH235907   6.354   7.491   0.071
11989TIP3    H135908   6.276   7.500   0.017
11989TIP3    H235909   6.427   7.492   0.009
11990TIP3   OH235910   4.712   0.054   1.116
11990TIP3    H135911   4.790   0.008   1.085
11990TIP3    H235912   4.643   0.029   1.055
11991TIP3   OH235913   0.541   0.862   6.565
11991TIP3    H135914   0.576   0.941   6.525
11991TIP3    H235915   0.617   0.805   6.577
11992TIP3   OH235916   3.740   6.163   0.398
11992TIP3    H135917   3.767   6.078   0.432
11992TIP3    H235918   3.733   6.219   0.475
11993TIP3   OH235919   6.839   5.149   2.347
11993TIP3    H135920   6.784   5.226   2.329
11993TIP3    H235921   6.923   5.186   2.377
11994TIP3   OH235922   6.300   7.830   3.216
11994TIP3    H135923   6.349   7.789   3.287
11994TIP3    H235924   6.285   7.920   3.245
11995TIP3   OH235925   5.595   6.731   1.841
11995TIP3    H135926   5.547   6.805   1.803
11995TIP3    H235927   5.570   6.731   1.933
11996TIP3   OH235928   2.572   4.952   6.660
11996TIP3    H135929   2.594   5.006   6.736
11996TIP3    H235930   2.590   4.863   6.687
11997TIP3   OH235931  -0.011   5.127   0.407
11997TIP3    H135932  -0.014   5.204   0.351
11997TIP3    H235933   0.071   5.083   0.384
11998TIP3   OH235934   3.840   6.328   6.262
11998TIP3    H135935   3.768   6.321   6.325
11998TIP3    H235936   3.797   6.327   6.176
11999TIP3   OH235937   4.450   5.199   5.277
11999TIP3    H135938   4.431   5.221   5.186
11999TIP3    H235939   4.537   5.235   5.293
12000TIP3   OH235940   1.497   6.228   1.971
12000TIP3    H135941   1.528   6.282   1.898
12000TIP3    H235942   1.494   6.288   2.046
12001TIP3   OH235943   5.773   2.931   4.612
12001TIP3    H135944   5.784   2.893   4.525
12001TIP3    H235945   5.746   3.021   4.595
12002TIP3   OH235946   0.731   1.756   0.846
12002TIP3    H135947   0.642   1.769   0.814
12002TIP3    H235948   0.781   1.827   0.807
12003TIP3   OH235949   0.186   4.924   3.656
12003TIP3    H135950   0.090   4.924   3.663
12003TIP3    H235951   0.209   4.832   3.642
12004TIP3   OH235952   0.396   7.777   4.420
12004TIP3    H135953   0.451   7.752   4.494
12004TIP3    H235954   0.421   7.716   4.350
12005TIP3   OH235955   7.917   6.544   5.257
12005TIP3    H135956   7.982   6.498   5.204
12005TIP3    H235957   7.909   6.630   5.216
12006TIP3   OH235958   2.421   4.252   6.383
12006TIP3    H135959   2.376   4.199   6.449
12006TIP3    H235960   2.499   4.284   6.427
12007TIP3   OH235961   2.038   3.955   4.142
12007TIP3    H135962   2.080   3.918   4.220
12007TIP3    H235963   2.002   3.879   4.096
12008TIP3   OH235964   4.365   7.497   6.191
12008TIP3    H135965   4.345   7.476   6.100
12008TIP3    H235966   4.280   7.523   6.228
12009TIP3   OH235967   7.059   6.657   0.912
12009TIP3    H135968   7.105   6.592   0.964
12009TIP3    H235969   7.076   6.632   0.821
12010TIP3   OH235970   0.241   3.893   4.316
12010TIP3    H135971   0.335   3.876   4.321
12010TIP3    H235972   0.224   3.903   4.222
12011TIP3   OH235973   6.617   2.698   3.819
12011TIP3    H135974   6.533   2.740   3.800
12011TIP3    H235975   6.682   2.758   3.781
12012TIP3   OH235976   8.158   3.402   3.363
12012TIP3    H135977   8.161   3.318   3.409
12012TIP3    H235978   8.185   3.466   3.429
12013TIP3   OH235979   0.984   4.828   3.996
12013TIP3    H135980   0.915   4.802   3.936
12013TIP3    H235981   0.941   4.885   4.060
12014TIP3   OH235982   2.794   3.499   2.821
12014TIP3    H135983   2.810   3.471   2.731
12014TIP3    H235984   2.699   3.488   2.832
12015TIP3   OH235985   7.749   5.643   3.665
12015TIP3    H135986   7.832   5.611   3.629
12015TIP3    H235987   7.717   5.705   3.599
12016TIP3   OH235988   3.622   0.014   3.649
12016TIP3    H135989   3.593   0.083   3.590
12016TIP3    H235990   3.711  -0.007   3.620
12017TIP3   OH235991   5.859   3.167   1.862
12017TIP3    H135992   5.906   3.168   1.945
12017TIP3    H235993   5.927   3.175   1.795
12018TIP3   OH235994   2.684   6.490   2.364
12018TIP3    H135995   2.589   6.499   2.370
12018TIP3    H235996   2.708   6.437   2.440
12019TIP3   OH235997   6.725   3.311   2.965
12019TIP3    H135998   6.685   3.224   2.961
12019TIP3    H235999   6.815   3.298   2.935
12020TIP3   OH236000   7.207   2.587   0.960
12020TIP3    H136001   7.181   2.600   0.869
12020TIP3    H236002   7.160   2.655   1.008
12021TIP3   OH236003   1.828   1.409   2.749
12021TIP3    H136004   1.839   1.399   2.843
12021TIP3    H236005   1.738   1.383   2.732
12022TIP3   OH236006   5.251   0.051   1.072
12022TIP3    H136007   5.270   0.133   1.025
12022TIP3    H236008   5.155   0.043   1.068
12023TIP3   OH236009   6.807   2.487   2.140
12023TIP3    H136010   6.903   2.477   2.138
12023TIP3    H236011   6.781   2.446   2.223
12024TIP3   OH236012   3.290   1.358   5.345
12024TIP3    H136013   3.225   1.345   5.415
12024TIP3    H236014   3.359   1.410   5.387
12025TIP3   OH236015   0.074   0.816   5.675
12025TIP3    H136016   0.008   0.806   5.743
12025TIP3    H236017   0.065   0.738   5.621
12026TIP3   OH236018   0.462   4.446   2.734
12026TIP3    H136019   0.509   4.388   2.674
12026TIP3    H236020   0.502   4.532   2.720
12027TIP3   OH236021   3.088   7.749   6.778
12027TIP3    H136022   3.170   7.735   6.827
12027TIP3    H236023   3.037   7.808   6.833
12028TIP3   OH236024   5.111   1.956   1.867
12028TIP3    H136025   5.146   2.014   1.800
12028TIP3    H236026   5.123   1.868   1.832
12029TIP3   OH236027   6.913   0.986   5.656
12029TIP3    H136028   6.959   1.067   5.680
12029TIP3    H236029   6.887   1.000   5.565
12030TIP3   OH236030   6.192   5.945   0.664
12030TIP3    H136031   6.162   5.997   0.589
12030TIP3    H236032   6.205   6.009   0.734
12031TIP3   OH236033   1.699   5.128   6.209
12031TIP3    H136034   1.771   5.105   6.268
12031TIP3    H236035   1.620   5.096   6.254
12032TIP3   OH236036   7.655   5.068   0.987
12032TIP3    H136037   7.600   5.077   0.909
12032TIP3    H236038   7.662   5.157   1.022
12033TIP3   OH236039   5.784   6.180   3.907
12033TIP3    H136040   5.830   6.102   3.877
12033TIP3    H236041   5.835   6.211   3.982
12034TIP3   OH236042   6.921   0.673   4.273
12034TIP3    H136043   6.887   0.709   4.191
12034TIP3    H236044   6.984   0.607   4.246
12035TIP3   OH236045   6.880   0.710   1.782
12035TIP3    H136046   6.792   0.709   1.745
12035TIP3    H236047   6.871   0.760   1.863
12036TIP3   OH236048   2.884   4.062   4.094
12036TIP3    H136049   2.965   4.109   4.112
12036TIP3    H236050   2.865   4.015   4.176
12037TIP3   OH236051   4.284   1.077   5.855
12037TIP3    H136052   4.327   1.067   5.940
12037TIP3    H236053   4.251   0.990   5.834
12038TIP3   OH236054   3.321   7.385   6.208
12038TIP3    H136055   3.405   7.402   6.165
12038TIP3    H236056   3.309   7.291   6.201
12039TIP3   OH236057   4.239   7.019   2.747
12039TIP3    H136058   4.202   7.107   2.747
12039TIP3    H236059   4.163   6.961   2.736
12040TIP3   OH236060   2.274   6.720   6.508
12040TIP3    H136061   2.340   6.654   6.484
12040TIP3    H236062   2.218   6.676   6.572
12041TIP3   OH236063   7.124   7.092   1.333
12041TIP3    H136064   7.123   7.179   1.374
12041TIP3    H236065   7.116   7.031   1.406
12042TIP3   OH236066   7.129   1.353   5.301
12042TIP3    H136067   7.068   1.348   5.375
12042TIP3    H236068   7.073   1.347   5.223
12043TIP3   OH236069   5.219   6.790   2.075
12043TIP3    H136070   5.166   6.776   2.154
12043TIP3    H236071   5.183   6.727   2.012
12044TIP3   OH236072   1.743   6.741   1.336
12044TIP3    H136073   1.795   6.804   1.287
12044TIP3    H236074   1.653   6.772   1.327
12045TIP3   OH236075   0.185   6.372   4.069
12045TIP3    H136076   0.128   6.298   4.049
12045TIP3    H236077   0.186   6.424   3.989
12046TIP3   OH236078   6.447   4.161   0.843
12046TIP3    H136079   6.489   4.228   0.789
12046TIP3    H236080   6.398   4.211   0.908
12047TIP3   OH236081   5.693   3.531   5.918
12047TIP3    H136082   5.660   3.444   5.938
12047TIP3    H236083   5.631   3.565   5.853
12048TIP3   OH236084   8.309   2.770   2.314
12048TIP3    H136085   8.266   2.764   2.229
12048TIP3    H236086   8.298   2.861   2.340
12049TIP3   OH236087   3.438   6.641   3.994
12049TIP3    H136088   3.465   6.553   4.018
12049TIP3    H236089   3.508   6.698   4.028
12050TIP3   OH236090   4.644   0.157   5.391
12050TIP3    H136091   4.729   0.174   5.431
12050TIP3    H236092   4.583   0.158   5.465
12051TIP3   OH236093   3.785   3.236   3.924
12051TIP3    H136094   3.726   3.268   3.856
12051TIP3    H236095   3.730   3.178   3.977
12052TIP3   OH236096   5.898   1.627   2.374
12052TIP3    H136097   5.940   1.582   2.301
12052TIP3    H236098   5.806   1.602   2.367
12053TIP3   OH236099   6.430   6.884   3.440
12053TIP3    H136100   6.412   6.812   3.500
12053TIP3    H236101   6.515   6.918   3.468
12054TIP3   OH236102   4.189   5.730   2.703
12054TIP3    H136103   4.187   5.752   2.610
12054TIP3    H236104   4.186   5.815   2.748
12055TIP3   OH236105   1.869   0.234   1.478
12055TIP3    H136106   1.801   0.178   1.516
12055TIP3    H236107   1.840   0.248   1.388
12056TIP3   OH236108   5.917   5.990   5.218
12056TIP3    H136109   5.950   5.904   5.243
12056TIP3    H236110   5.930   6.045   5.295
12057TIP3   OH236111   1.415   3.302   1.152
12057TIP3    H136112   1.416   3.390   1.190
12057TIP3    H236113   1.437   3.244   1.225
12058TIP3   OH236114   6.857   5.913   5.958
12058TIP3    H136115   6.897   5.937   5.875
12058TIP3    H236116   6.921   5.854   5.999
12059TIP3   OH236117   7.710   2.569   1.061
12059TIP3    H136118   7.730   2.479   1.087
12059TIP3    H236119   7.632   2.561   1.006
12060TIP3   OH236120   4.537   3.410   5.280
12060TIP3    H136121   4.615   3.387   5.330
12060TIP3    H236122   4.547   3.504   5.262
12061TIP3   OH236123   7.531   5.071   2.715
12061TIP3    H136124   7.570   5.037   2.634
12061TIP3    H236125   7.599   5.059   2.781
12062TIP3   OH236126   2.362   4.108   4.240
12062TIP3    H136127   2.284   4.142   4.196
12062TIP3    H236128   2.386   4.176   4.303
12063TIP3   OH236129   1.907   3.706   5.647
12063TIP3    H136130   1.926   3.716   5.740
12063TIP3    H236131   1.921   3.612   5.629
12064TIP3   OH236132   5.522   7.851   5.107
12064TIP3    H136133   5.444   7.849   5.052
12064TIP3    H236134   5.594   7.829   5.047
12065TIP3   OH236135   5.247   7.270   2.849
12065TIP3    H136136   5.323   7.259   2.907
12065TIP3    H236137   5.279   7.326   2.778
12066TIP3   OH236138   4.288   7.060   2.040
12066TIP3    H136139   4.265   6.970   2.063
12066TIP3    H236140   4.365   7.079   2.094
12067TIP3   OH236141   0.505   3.507   0.648
12067TIP3    H136142   0.491   3.466   0.733
12067TIP3    H236143   0.595   3.483   0.625
12068TIP3   OH236144   4.198   0.802   1.927
12068TIP3    H136145   4.235   0.749   1.856
12068TIP3    H236146   4.134   0.858   1.883
12069TIP3   OH236147   5.796   5.800   1.265
12069TIP3    H136148   5.814   5.891   1.289
12069TIP3    H236149   5.778   5.803   1.171
12070TIP3   OH236150   5.493   2.064   1.994
12070TIP3    H136151   5.581   2.062   2.030
12070TIP3    H236152   5.476   1.974   1.965
12071TIP3   OH236153   4.802   1.097   1.291
12071TIP3    H136154   4.729   1.053   1.248
12071TIP3    H236155   4.870   1.102   1.223
12072TIP3   OH236156   5.634   2.880   0.866
12072TIP3    H136157   5.648   2.958   0.812
12072TIP3    H236158   5.576   2.911   0.936
12073TIP3   OH236159   6.854   2.962   2.944
12073TIP3    H136160   6.927   2.993   2.890
12073TIP3    H236161   6.777   2.971   2.889
12074TIP3   OH236162   6.270   5.260   2.450
12074TIP3    H136163   6.256   5.354   2.462
12074TIP3    H236164   6.211   5.235   2.380
12075TIP3   OH236165   3.158   7.253   5.465
12075TIP3    H136166   3.217   7.319   5.501
12075TIP3    H236167   3.091   7.241   5.532
12076TIP3   OH236168   4.092   1.601   0.756
12076TIP3    H136169   4.015   1.634   0.710
12076TIP3    H236170   4.057   1.541   0.821
12077TIP3   OH236171   7.347   0.763   4.229
12077TIP3    H136172   7.439   0.787   4.219
12077TIP3    H236173   7.302   0.809   4.157
12078TIP3   OH236174   0.032   3.574   6.597
12078TIP3    H136175  -0.053   3.619   6.598
12078TIP3    H236176   0.092   3.636   6.638
12079TIP3   OH236177   0.182   7.207   0.733
12079TIP3    H136178   0.165   7.160   0.651
12079TIP3    H236179   0.095   7.234   0.763
12080TIP3   OH236180   3.719   3.602   2.620
12080TIP3    H136181   3.677   3.562   2.544
12080TIP3    H236182   3.813   3.591   2.605
12081TIP3   OH236183   5.931   0.419   2.506
12081TIP3    H136184   6.015   0.375   2.511
12081TIP3    H236185   5.951   0.506   2.473
12082TIP3   OH236186   0.488   2.799   0.544
12082TIP3    H136187   0.463   2.821   0.633
12082TIP3    H236188   0.457   2.873   0.491
12083TIP3   OH236189   7.751   2.357   4.107
12083TIP3    H136190   7.741   2.274   4.061
12083TIP3    H236191   7.806   2.410   4.049
12084TIP3   OH236192   6.477   7.814   4.992
12084TIP3    H136193   6.441   7.769   4.916
12084TIP3    H236194   6.409   7.808   5.059
12085TIP3   OH236195   7.376   2.378   1.622
12085TIP3    H136196   7.381   2.341   1.710
12085TIP3    H236197   7.465   2.372   1.588
12086TIP3   OH236198   2.866   7.311   4.782
12086TIP3    H136199   2.823   7.378   4.835
12086TIP3    H236200   2.794   7.258   4.748
12087TIP3   OH236201   6.392   3.347   2.001
12087TIP3    H136202   6.301   3.346   1.972
12087TIP3    H236203   6.388   3.317   2.092
12088TIP3   OH236204   0.322   0.900   5.132
12088TIP3    H136205   0.267   0.965   5.087
12088TIP3    H236206   0.321   0.928   5.223
12089TIP3   OH236207   4.926   5.611   5.732
12089TIP3    H136208   4.915   5.701   5.760
12089TIP3    H236209   4.970   5.617   5.648
12090TIP3   OH236210   5.880   1.068   6.635
12090TIP3    H136211   5.838   1.079   6.720
12090TIP3    H236212   5.888   0.973   6.625
12091TIP3   OH236213   3.451   0.418   2.982
12091TIP3    H136214   3.411   0.498   3.015
12091TIP3    H236215   3.503   0.446   2.907
12092TIP3   OH236216   6.999   7.065   6.071
12092TIP3    H136217   6.930   7.107   6.019
12092TIP3    H236218   7.058   7.028   6.005
12093TIP3   OH236219   2.235   7.347   2.804
12093TIP3    H136220   2.307   7.294   2.770
12093TIP3    H236221   2.179   7.285   2.851
12094TIP3   OH236222   6.982   1.297   6.123
12094TIP3    H136223   6.903   1.272   6.076
12094TIP3    H236224   7.040   1.221   6.115
12095TIP3   OH236225   3.074   3.873   1.139
12095TIP3    H136226   3.036   3.949   1.095
12095TIP3    H236227   3.152   3.852   1.087
12096TIP3   OH236228   3.568   6.543   4.462
12096TIP3    H136229   3.616   6.500   4.533
12096TIP3    H236230   3.489   6.491   4.452
12097TIP3   OH236231   5.527   6.717   3.003
12097TIP3    H136232   5.487   6.802   2.985
12097TIP3    H236233   5.611   6.739   3.044
12098TIP3   OH236234   1.348   5.394   6.074
12098TIP3    H136235   1.425   5.351   6.038
12098TIP3    H236236   1.297   5.420   5.997
12099TIP3   OH236237   5.886   0.121   0.851
12099TIP3    H136238   5.868   0.151   0.762
12099TIP3    H236239   5.806   0.076   0.878
12100TIP3   OH236240   1.575   6.653   6.166
12100TIP3    H136241   1.557   6.612   6.081
12100TIP3    H236242   1.613   6.738   6.144
12101TIP3   OH236243   0.419   4.215   4.036
12101TIP3    H136244   0.440   4.270   3.960
12101TIP3    H236245   0.479   4.245   4.104
12102TIP3   OH236246   3.631   2.835   6.325
12102TIP3    H136247   3.620   2.767   6.258
12102TIP3    H236248   3.698   2.799   6.384
12103TIP3   OH236249   4.486   0.882   6.463
12103TIP3    H136250   4.409   0.866   6.408
12103TIP3    H236251   4.495   0.978   6.463
12104TIP3   OH236252   5.546   0.195   4.585
12104TIP3    H136253   5.587   0.267   4.633
12104TIP3    H236254   5.566   0.213   4.493
12105TIP3   OH236255   4.517   7.391   0.627
12105TIP3    H136256   4.529   7.310   0.576
12105TIP3    H236257   4.423   7.396   0.642
12106TIP3   OH236258   4.047   2.675   4.390
12106TIP3    H136259   4.017   2.618   4.319
12106TIP3    H236260   3.968   2.695   4.440
12107TIP3   OH236261   4.340   3.816   2.861
12107TIP3    H136262   4.365   3.779   2.776
12107TIP3    H236263   4.370   3.906   2.858
12108TIP3   OH236264   1.275   4.432   5.818
12108TIP3    H136265   1.278   4.344   5.780
12108TIP3    H236266   1.186   4.463   5.798
12109TIP3   OH236267   5.225   1.481   5.723
12109TIP3    H136268   5.287   1.446   5.660
12109TIP3    H236269   5.257   1.569   5.743
12110TIP3   OH236270   4.132   4.326   3.887
12110TIP3    H136271   4.107   4.293   3.801
12110TIP3    H236272   4.185   4.256   3.926
12111TIP3   OH236273   2.235   4.623   6.605
12111TIP3    H136274   2.260   4.706   6.565
12111TIP3    H236275   2.306   4.603   6.666
12112TIP3   OH236276   4.172   1.953   1.380
12112TIP3    H136277   4.148   1.909   1.299
12112TIP3    H236278   4.089   1.981   1.418
12113TIP3   OH236279   6.091   1.006   5.453
12113TIP3    H136280   6.098   1.040   5.364
12113TIP3    H236281   6.008   0.958   5.453
12114TIP3   OH236282   5.169   2.328   5.152
12114TIP3    H136283   5.192   2.237   5.170
12114TIP3    H236284   5.121   2.356   5.230
12115TIP3   OH236285   0.172   5.307   1.471
12115TIP3    H136286   0.200   5.353   1.551
12115TIP3    H236287   0.213   5.221   1.478
12116TIP3   OH236288   3.521   2.620   4.283
12116TIP3    H136289   3.446   2.566   4.259
12116TIP3    H236290   3.572   2.565   4.343
12117TIP3   OH236291   0.108   4.890   2.409
12117TIP3    H136292   0.124   4.931   2.324
12117TIP3    H236293   0.123   4.797   2.394
12118TIP3   OH236294   5.558   7.846   4.222
12118TIP3    H136295   5.650   7.820   4.217
12118TIP3    H236296   5.533   7.863   4.131
12119TIP3   OH236297   0.441   0.545   1.363
12119TIP3    H136298   0.485   0.556   1.278
12119TIP3    H236299   0.494   0.479   1.409
12120TIP3   OH236300   5.335   0.456   1.978
12120TIP3    H136301   5.392   0.436   1.904
12120TIP3    H236302   5.271   0.385   1.978
12121TIP3   OH236303   6.707   6.486   4.011
12121TIP3    H136304   6.647   6.532   3.952
12121TIP3    H236305   6.667   6.494   4.098
12122TIP3   OH236306   2.928   5.209   6.737
12122TIP3    H136307   2.889   5.122   6.737
12122TIP3    H236308   3.013   5.197   6.695
12123TIP3   OH236309   0.385   4.850   2.257
12123TIP3    H136310   0.432   4.801   2.325
12123TIP3    H236311   0.449   4.861   2.186
12124TIP3   OH236312   1.249   2.724   4.831
12124TIP3    H136313   1.250   2.794   4.766
12124TIP3    H236314   1.275   2.646   4.782
12125TIP3   OH236315   3.019   3.779   1.651
12125TIP3    H136316   3.077   3.847   1.616
12125TIP3    H236317   3.047   3.768   1.742
12126TIP3   OH236318   2.072   3.775   2.485
12126TIP3    H136319   2.011   3.838   2.524
12126TIP3    H236320   2.126   3.746   2.559
12127TIP3   OH236321   1.804   5.315   4.342
12127TIP3    H136322   1.810   5.375   4.417
12127TIP3    H236323   1.884   5.331   4.292
12128TIP3   OH236324   1.525   4.360   5.351
12128TIP3    H136325   1.509   4.272   5.385
12128TIP3    H236326   1.468   4.416   5.403
12129TIP3   OH236327   0.255   0.423   0.987
12129TIP3    H136328   0.253   0.384   1.075
12129TIP3    H236329   0.166   0.416   0.955
12130TIP3   OH236330   3.149   0.972   6.594
12130TIP3    H136331   3.141   1.063   6.620
12130TIP3    H236332   3.228   0.968   6.540
12131TIP3   OH236333   1.177   0.699   4.858
12131TIP3    H136334   1.122   0.693   4.936
12131TIP3    H236335   1.148   0.627   4.802
12132TIP3   OH236336   1.911   2.583   1.234
12132TIP3    H136337   1.843   2.562   1.170
12132TIP3    H236338   1.864   2.602   1.315
12133TIP3   OH236339   3.677   4.151   4.911
12133TIP3    H136340   3.706   4.228   4.960
12133TIP3    H236341   3.697   4.077   4.967
12134TIP3   OH236342   7.349   1.449   2.194
12134TIP3    H136343   7.421   1.509   2.215
12134TIP3    H236344   7.321   1.415   2.279
12135TIP3   OH236345   1.174   6.825   3.004
12135TIP3    H136346   1.201   6.809   3.095
12135TIP3    H236347   1.243   6.786   2.951
12136TIP3   OH236348   6.410   3.462   5.176
12136TIP3    H136349   6.502   3.475   5.151
12136TIP3    H236350   6.382   3.547   5.210
12137TIP3   OH236351   4.176   0.595   1.184
12137TIP3    H136352   4.222   0.676   1.206
12137TIP3    H236353   4.230   0.553   1.118
12138TIP3   OH236354   6.661   7.758   3.856
12138TIP3    H136355   6.685   7.672   3.820
12138TIP3    H236356   6.696   7.821   3.792
12139TIP3   OH236357   1.373   6.571   1.743
12139TIP3    H136358   1.392   6.477   1.742
12139TIP3    H236359   1.277   6.577   1.745
12140TIP3   OH236360   5.220   6.209   6.315
12140TIP3    H136361   5.156   6.278   6.329
12140TIP3    H236362   5.246   6.182   6.404
12141TIP3   OH236363   2.990   1.739   6.663
12141TIP3    H136364   3.043   1.818   6.649
12141TIP3    H236365   2.918   1.748   6.601
12142TIP3   OH236366   7.592   2.016   0.036
12142TIP3    H136367   7.508   1.973   0.052
12142TIP3    H236368   7.582   2.103   0.073
12143TIP3   OH236369   0.682   6.408   2.349
12143TIP3    H136370   0.617   6.343   2.322
12143TIP3    H236371   0.630   6.480   2.385
12144TIP3   OH236372   3.523   0.175   3.429
12144TIP3    H136373   3.609   0.214   3.412
12144TIP3    H236374   3.500   0.132   3.346
12145TIP3   OH236375   6.357   2.885   3.018
12145TIP3    H136376   6.313   2.881   3.103
12145TIP3    H236377   6.390   2.797   3.003
12146TIP3   OH236378   1.130   5.737   5.476
12146TIP3    H136379   1.070   5.689   5.419
12146TIP3    H236380   1.194   5.671   5.504
12147TIP3   OH236381   6.029   6.782   4.210
12147TIP3    H136382   6.032   6.818   4.298
12147TIP3    H236383   6.083   6.841   4.157
12148TIP3   OH236384   6.331   6.352   2.967
12148TIP3    H136385   6.380   6.429   2.939
12148TIP3    H236386   6.397   6.292   3.000
12149TIP3   OH236387   5.227   5.038   3.263
12149TIP3    H136388   5.202   5.040   3.355
12149TIP3    H236389   5.204   4.949   3.234
12150TIP3   OH236390   6.546   2.298   6.266
12150TIP3    H136391   6.453   2.284   6.246
12150TIP3    H236392   6.556   2.394   6.267
12151TIP3   OH236393   7.157   6.864   0.243
12151TIP3    H136394   7.248   6.890   0.257
12151TIP3    H236395   7.106   6.941   0.270
12152TIP3   OH236396   8.239   7.473   6.675
12152TIP3    H136397   8.330   7.445   6.688
12152TIP3    H236398   8.245   7.546   6.613
12153TIP3   OH236399   6.506   3.647   1.459
12153TIP3    H136400   6.561   3.601   1.522
12153TIP3    H236401   6.506   3.591   1.381
12154TIP3   OH236402   8.418   3.378   2.809
12154TIP3    H136403   8.450   3.319   2.740
12154TIP3    H236404   8.341   3.420   2.770
12155TIP3   OH236405   7.948   5.051   3.961
12155TIP3    H136406   7.997   5.119   3.915
12155TIP3    H236407   7.966   4.971   3.912
12156TIP3   OH236408   7.952   7.505   4.566
12156TIP3    H136409   7.977   7.500   4.658
12156TIP3    H236410   8.034   7.521   4.520
12157TIP3   OH236411   7.823   6.925   6.012
12157TIP3    H136412   7.733   6.936   5.981
12157TIP3    H236413   7.817   6.857   6.079
12158TIP3   OH236414   6.346   3.608   2.455
12158TIP3    H136415   6.407   3.557   2.402
12158TIP3    H236416   6.397   3.635   2.532
12159TIP3   OH236417   7.665   4.675   0.069
12159TIP3    H136418   7.733   4.680   0.001
12159TIP3    H236419   7.684   4.749   0.126
12160TIP3   OH236420   3.155   5.651   4.477
12160TIP3    H136421   3.164   5.683   4.387
12160TIP3    H236422   3.069   5.681   4.505
12161TIP3   OH236423   0.164   3.370   5.254
12161TIP3    H136424   0.186   3.315   5.178
12161TIP3    H236425   0.094   3.426   5.222
12162TIP3   OH236426   0.950   2.432   2.223
12162TIP3    H136427   0.894   2.463   2.152
12162TIP3    H236428   1.020   2.496   2.229
12163TIP3   OH236429   2.998   7.949   5.696
12163TIP3    H136430   3.027   7.869   5.740
12163TIP3    H236431   2.946   7.995   5.762
12164TIP3   OH236432   2.017   7.877   5.559
12164TIP3    H136433   1.965   7.827   5.622
12164TIP3    H236434   2.108   7.865   5.588
12165TIP3   OH236435   6.784   7.211   5.943
12165TIP3    H136436   6.773   7.291   5.891
12165TIP3    H236437   6.700   7.200   5.988
12166TIP3   OH236438   1.406   3.847   2.003
12166TIP3    H136439   1.379   3.909   2.070
12166TIP3    H236440   1.494   3.876   1.978
12167TIP3   OH236441   0.811   2.553   1.188
12167TIP3    H136442   0.905   2.545   1.168
12167TIP3    H236443   0.808   2.565   1.283
12168TIP3   OH236444   0.551   2.735   4.041
12168TIP3    H136445   0.575   2.773   3.956
12168TIP3    H236446   0.609   2.659   4.049
12169TIP3   OH236447   1.510   2.492   4.551
12169TIP3    H136448   1.540   2.476   4.461
12169TIP3    H236449   1.479   2.582   4.551
12170TIP3   OH236450   5.570   2.493   4.320
12170TIP3    H136451   5.561   2.560   4.252
12170TIP3    H236452   5.571   2.543   4.402
12171TIP3   OH236453   6.865   5.722   0.351
12171TIP3    H136454   6.888   5.789   0.286
12171TIP3    H236455   6.830   5.650   0.298
12172TIP3   OH236456   5.142   6.353   0.604
12172TIP3    H136457   5.143   6.395   0.691
12172TIP3    H236458   5.188   6.415   0.547
12173TIP3   OH236459   3.025   2.971   2.324
12173TIP3    H136460   3.099   2.997   2.379
12173TIP3    H236461   3.042   3.011   2.239
12174TIP3   OH236462   5.780   4.358   1.344
12174TIP3    H136463   5.691   4.356   1.310
12174TIP3    H236464   5.778   4.423   1.414
12175TIP3   OH236465   3.044   1.703   3.717
12175TIP3    H136466   3.105   1.645   3.762
12175TIP3    H236467   3.071   1.700   3.625
12176TIP3   OH236468   4.512   6.822   5.867
12176TIP3    H136469   4.448   6.822   5.938
12176TIP3    H236470   4.535   6.730   5.856
12177TIP3   OH236471   5.637   4.268   1.099
12177TIP3    H136472   5.561   4.252   1.155
12177TIP3    H236473   5.681   4.183   1.093
12178TIP3   OH236474   4.600   4.427   2.203
12178TIP3    H136475   4.558   4.395   2.123
12178TIP3    H236476   4.528   4.465   2.254
12179TIP3   OH236477   5.323   2.590   3.234
12179TIP3    H136478   5.343   2.599   3.141
12179TIP3    H236479   5.382   2.652   3.277
12180TIP3   OH236480   0.059   6.596   1.160
12180TIP3    H136481   0.039   6.560   1.074
12180TIP3    H236482  -0.018   6.576   1.213
12181TIP3   OH236483   0.297   3.343   5.788
12181TIP3    H136484   0.331   3.338   5.699
12181TIP3    H236485   0.268   3.433   5.798
12182TIP3   OH236486   1.376   6.368   2.226
12182TIP3    H136487   1.359   6.436   2.162
12182TIP3    H236488   1.405   6.415   2.305
12183TIP3   OH236489   4.507   2.354   3.544
12183TIP3    H136490   4.496   2.418   3.615
12183TIP3    H236491   4.587   2.381   3.499
12184TIP3   OH236492   6.609   5.601   1.895
12184TIP3    H136493   6.614   5.663   1.823
12184TIP3    H236494   6.521   5.564   1.888
12185TIP3   OH236495   2.692   5.931   3.807
12185TIP3    H136496   2.736   5.847   3.819
12185TIP3    H236497   2.720   5.985   3.881
12186TIP3   OH236498   7.000   0.109   3.949
12186TIP3    H136499   6.956   0.031   3.985
12186TIP3    H236500   6.995   0.098   3.854
12187TIP3   OH236501   0.570   7.473   0.985
12187TIP3    H136502   0.475   7.482   0.997
12187TIP3    H236503   0.609   7.528   1.053
12188TIP3   OH236504   1.923   0.987   0.785
12188TIP3    H136505   1.943   0.993   0.878
12188TIP3    H236506   1.900   1.076   0.759
12189TIP3   OH236507   4.334   7.214   2.332
12189TIP3    H136508   4.250   7.250   2.363
12189TIP3    H236509   4.329   7.121   2.355
12190TIP3   OH236510   8.292   0.535   2.805
12190TIP3    H136511   8.307   0.607   2.744
12190TIP3    H236512   8.205   0.503   2.783
12191TIP3   OH236513   4.934   4.341   0.664
12191TIP3    H136514   4.914   4.427   0.702
12191TIP3    H236515   5.003   4.359   0.600
12192TIP3   OH236516   2.880   2.383   5.733
12192TIP3    H136517   2.869   2.341   5.647
12192TIP3    H236518   2.940   2.325   5.780
12193TIP3   OH236519   5.384   0.229   0.282
12193TIP3    H136520   5.360   0.165   0.350
12193TIP3    H236521   5.436   0.178   0.219
12194TIP3   OH236522   4.080   6.514   1.354
12194TIP3    H136523   4.135   6.558   1.419
12194TIP3    H236524   4.141   6.464   1.300
12195TIP3   OH236525   4.850   2.176   4.087
12195TIP3    H136526   4.856   2.142   3.998
12195TIP3    H236527   4.929   2.229   4.099
12196TIP3   OH236528   2.346   2.419   5.995
12196TIP3    H136529   2.347   2.414   5.899
12196TIP3    H236530   2.279   2.356   6.022
12197TIP3   OH236531   4.664   6.279   3.355
12197TIP3    H136532   4.673   6.352   3.294
12197TIP3    H236533   4.739   6.287   3.414
12198TIP3   OH236534   3.974   7.379   5.845
12198TIP3    H136535   4.008   7.296   5.814
12198TIP3    H236536   4.050   7.426   5.879
12199TIP3   OH236537   3.079   5.750   6.228
12199TIP3    H136538   3.091   5.819   6.163
12199TIP3    H236539   3.112   5.671   6.186
12200TIP3   OH236540   1.840   3.200   4.387
12200TIP3    H136541   1.934   3.180   4.388
12200TIP3    H236542   1.798   3.116   4.404
12201TIP3   OH236543   7.746   6.239   5.978
12201TIP3    H136544   7.755   6.251   5.883
12201TIP3    H236545   7.781   6.151   5.994
12202TIP3   OH236546   3.781   4.913   3.185
12202TIP3    H136547   3.759   4.820   3.193
12202TIP3    H236548   3.744   4.954   3.264
12203TIP3   OH236549   0.300   4.192   5.653
12203TIP3    H136550   0.367   4.165   5.590
12203TIP3    H236551   0.257   4.111   5.679
12204TIP3   OH236552   5.214   3.462   2.338
12204TIP3    H136553   5.296   3.483   2.295
12204TIP3    H236554   5.221   3.502   2.425
12205TIP3   OH236555   5.300   3.904   5.148
12205TIP3    H136556   5.267   3.901   5.238
12205TIP3    H236557   5.297   3.996   5.124
12206TIP3   OH236558   3.811   3.764   3.537
12206TIP3    H136559   3.771   3.824   3.473
12206TIP3    H236560   3.881   3.816   3.576
12207TIP3   OH236561   0.225   0.484   5.077
12207TIP3    H136562   0.227   0.391   5.100
12207TIP3    H236563   0.315   0.514   5.090
12208TIP3   OH236564   5.969   4.585   2.495
12208TIP3    H136565   5.891   4.640   2.501
12208TIP3    H236566   5.934   4.496   2.483
12209TIP3   OH236567   2.855   4.446   6.444
12209TIP3    H136568   2.919   4.509   6.412
12209TIP3    H236569   2.895   4.410   6.524
12210TIP3   OH236570   5.275   7.734   5.833
12210TIP3    H136571   5.277   7.806   5.771
12210TIP3    H236572   5.293   7.656   5.780
12211TIP3   OH236573   1.260   3.115   1.036
12211TIP3    H136574   1.325   3.177   1.068
12211TIP3    H236575   1.176   3.150   1.066
12212TIP3   OH236576   3.108   2.048   1.300
12212TIP3    H136577   3.045   2.092   1.357
12212TIP3    H236578   3.148   1.980   1.355
12213TIP3   OH236579   0.823   6.062   6.032
12213TIP3    H136580   0.861   6.090   5.949
12213TIP3    H236581   0.751   6.123   6.048
12214TIP3   OH236582   5.660   1.335   5.802
12214TIP3    H136583   5.586   1.355   5.860
12214TIP3    H236584   5.637   1.251   5.763
12215TIP3   OH236585   4.516   3.803   6.171
12215TIP3    H136586   4.515   3.739   6.100
12215TIP3    H236587   4.436   3.853   6.159
12216TIP3   OH236588   0.597   1.369   2.416
12216TIP3    H136589   0.650   1.388   2.494
12216TIP3    H236590   0.629   1.431   2.350
12217TIP3   OH236591   3.820   2.014   5.288
12217TIP3    H136592   3.766   1.969   5.353
12217TIP3    H236593   3.767   2.015   5.209
12218TIP3   OH236594   1.212   3.893   4.753
12218TIP3    H136595   1.211   3.831   4.680
12218TIP3    H236596   1.212   3.837   4.831
12219TIP3   OH236597   7.611   4.262   5.821
12219TIP3    H136598   7.577   4.208   5.750
12219TIP3    H236599   7.536   4.315   5.849
12220TIP3   OH236600   0.959   6.614   0.677
12220TIP3    H136601   0.867   6.591   0.684
12220TIP3    H236602   0.992   6.609   0.767
12221TIP3   OH236603   4.961   0.327   3.833
12221TIP3    H136604   4.947   0.417   3.862
12221TIP3    H236605   5.056   0.320   3.821
12222TIP3   OH236606   2.560   6.381   1.473
12222TIP3    H136607   2.536   6.459   1.423
12222TIP3    H236608   2.477   6.340   1.495
12223TIP3   OH236609   1.874   7.179   6.715
12223TIP3    H136610   1.814   7.132   6.773
12223TIP3    H236611   1.884   7.122   6.639
12224TIP3   OH236612   7.428   4.772   1.556
12224TIP3    H136613   7.439   4.838   1.487
12224TIP3    H236614   7.342   4.790   1.593
12225TIP3   OH236615   1.574   2.467   3.612
12225TIP3    H136616   1.516   2.407   3.658
12225TIP3    H236617   1.624   2.412   3.552
12226TIP3   OH236618   3.944   2.107   1.865
12226TIP3    H136619   4.012   2.172   1.883
12226TIP3    H236620   3.863   2.157   1.860
12227TIP3   OH236621   4.634   5.230   0.585
12227TIP3    H136622   4.658   5.230   0.492
12227TIP3    H236623   4.553   5.180   0.589
12228TIP3   OH236624   7.087   7.189   4.831
12228TIP3    H136625   7.087   7.105   4.785
12228TIP3    H236626   7.105   7.253   4.762
12229TIP3   OH236627   6.059   3.483   3.324
12229TIP3    H136628   6.113   3.473   3.402
12229TIP3    H236629   6.121   3.479   3.251
12230TIP3   OH236630   8.178   4.344   2.759
12230TIP3    H136631   8.187   4.355   2.664
12230TIP3    H236632   8.250   4.393   2.796
12231TIP3   OH236633   7.463   2.320   1.294
12231TIP3    H136634   7.506   2.300   1.378
12231TIP3    H236635   7.441   2.413   1.301
12232TIP3   OH236636   5.986   3.794   2.084
12232TIP3    H136637   6.059   3.734   2.096
12232TIP3    H236638   5.977   3.802   1.989
12233TIP3   OH236639   7.325   4.479   4.483
12233TIP3    H136640   7.299   4.557   4.531
12233TIP3    H236641   7.283   4.488   4.397
12234TIP3   OH236642   5.220   7.669   3.917
12234TIP3    H136643   5.166   7.591   3.930
12234TIP3    H236644   5.250   7.663   3.827
12235TIP3   OH236645   8.234   7.167   6.166
12235TIP3    H136646   8.268   7.115   6.093
12235TIP3    H236647   8.142   7.142   6.172
12236TIP3   OH236648   5.035   7.476   4.377
12236TIP3    H136649   5.042   7.525   4.459
12236TIP3    H236650   4.979   7.530   4.322
12237TIP3   OH236651   4.801   7.257   6.842
12237TIP3    H136652   4.768   7.284   6.928
12237TIP3    H236653   4.736   7.291   6.780
12238TIP3   OH236654   1.074   1.229   5.910
12238TIP3    H136655   1.100   1.308   5.863
12238TIP3    H236656   1.072   1.255   6.002
12239TIP3   OH236657   2.483   0.320   2.441
12239TIP3    H136658   2.488   0.374   2.362
12239TIP3    H236659   2.518   0.235   2.414
12240TIP3   OH236660   5.382   4.972   3.582
12240TIP3    H136661   5.287   4.980   3.579
12240TIP3    H236662   5.408   5.016   3.663
12241TIP3   OH236663   5.130   6.586   4.736
12241TIP3    H136664   5.084   6.667   4.713
12241TIP3    H236665   5.082   6.518   4.690
12242TIP3   OH236666   1.579   6.435   6.797
12242TIP3    H136667   1.550   6.344   6.791
12242TIP3    H236668   1.504   6.486   6.766
12243TIP3   OH236669   2.391   6.542   3.435
12243TIP3    H136670   2.472   6.527   3.386
12243TIP3    H236671   2.360   6.455   3.458
12244TIP3   OH236672   0.346   1.120   0.759
12244TIP3    H136673   0.348   1.205   0.803
12244TIP3    H236674   0.438   1.102   0.738
12245TIP3   OH236675   5.882   3.015   5.862
12245TIP3    H136676   5.869   3.108   5.843
12245TIP3    H236677   5.859   3.005   5.954
12246TIP3   OH236678   5.638   4.045   4.054
12246TIP3    H136679   5.649   4.015   3.963
12246TIP3    H236680   5.549   4.018   4.077
12247TIP3   OH236681   0.787   1.670   5.562
12247TIP3    H136682   0.821   1.594   5.516
12247TIP3    H236683   0.854   1.690   5.628
12248TIP3   OH236684   6.874   4.844   1.432
12248TIP3    H136685   6.821   4.922   1.446
12248TIP3    H236686   6.937   4.845   1.504
12249TIP3   OH236687   4.443   2.654   2.626
12249TIP3    H136688   4.371   2.644   2.688
12249TIP3    H236689   4.402   2.691   2.548
12250TIP3   OH236690   6.749   3.472   3.946
12250TIP3    H136691   6.775   3.450   4.035
12250TIP3    H236692   6.657   3.446   3.941
12251TIP3   OH236693   2.734   6.870   6.741
12251TIP3    H136694   2.721   6.965   6.736
12251TIP3    H236695   2.646   6.834   6.743
12252TIP3   OH236696   0.500   1.507   5.232
12252TIP3    H136697   0.561   1.581   5.230
12252TIP3    H236698   0.414   1.547   5.219
12253TIP3   OH236699   0.575   6.369   2.784
12253TIP3    H136700   0.605   6.279   2.775
12253TIP3    H236701   0.480   6.364   2.784
12254TIP3   OH236702   7.620   0.681   5.710
12254TIP3    H136703   7.571   0.763   5.706
12254TIP3    H236704   7.614   0.653   5.801
12255TIP3   OH236705   5.140   7.847   3.463
12255TIP3    H136706   5.076   7.863   3.532
12255TIP3    H236707   5.089   7.819   3.388
12256TIP3   OH236708   2.705   6.779   5.037
12256TIP3    H136709   2.656   6.856   5.009
12256TIP3    H236710   2.677   6.709   4.978
12257TIP3   OH236711   6.199   1.783   5.217
12257TIP3    H136712   6.159   1.804   5.133
12257TIP3    H236713   6.292   1.775   5.198
12258TIP3   OH236714   3.905   5.326   4.860
12258TIP3    H136715   3.819   5.366   4.845
12258TIP3    H236716   3.927   5.349   4.950
12259TIP3   OH236717   5.100   3.545   2.106
12259TIP3    H136718   5.006   3.539   2.125
12259TIP3    H236719   5.141   3.488   2.171
12260TIP3   OH236720   2.946   6.658   4.971
12260TIP3    H136721   2.978   6.735   4.924
12260TIP3    H236722   2.877   6.692   5.028
12261TIP3   OH236723   4.432   3.478   4.271
12261TIP3    H136724   4.441   3.496   4.178
12261TIP3    H236725   4.456   3.386   4.280
12262TIP3   OH236726   7.437   6.067   1.301
12262TIP3    H136727   7.382   5.989   1.290
12262TIP3    H236728   7.444   6.078   1.396
12263TIP3   OH236729   3.835   4.042  -0.005
12263TIP3    H136730   3.766   4.001   0.047
12263TIP3    H236731   3.894   4.081   0.059
12264TIP3   OH236732   2.550   1.973   4.272
12264TIP3    H136733   2.617   1.912   4.303
12264TIP3    H236734   2.577   1.996   4.183
12265TIP3   OH236735   4.640   3.908   5.853
12265TIP3    H136736   4.626   3.819   5.821
12265TIP3    H236737   4.696   3.897   5.930
12266TIP3   OH236738   7.421   0.544   0.102
12266TIP3    H136739   7.434   0.450   0.106
12266TIP3    H236740   7.386   0.560   0.015
12267TIP3   OH236741   4.888   1.821  -0.052
12267TIP3    H136742   4.913   1.732  -0.078
12267TIP3    H236743   4.935   1.835   0.030
12268TIP3   OH236744   1.196   3.024   0.049
12268TIP3    H136745   1.288   3.000   0.041
12268TIP3    H236746   1.166   2.982   0.130
12269TIP3   OH236747   0.078   0.704   5.183
12269TIP3    H136748   0.111   0.620   5.152
12269TIP3    H236749   0.154   0.761   5.185
12270TIP3   OH236750   4.201   4.393   2.233
12270TIP3    H136751   4.120   4.394   2.285
12270TIP3    H236752   4.252   4.467   2.265
12271TIP3   OH236753   2.266   1.504   0.143
12271TIP3    H136754   2.327   1.563   0.188
12271TIP3    H236755   2.183   1.553   0.140
12272TIP3   OH236756   4.383   2.306   1.883
12272TIP3    H136757   4.458   2.355   1.850
12272TIP3    H236758   4.393   2.218   1.846
12273TIP3   OH236759   7.678   3.977   0.277
12273TIP3    H136760   7.753   3.960   0.334
12273TIP3    H236761   7.651   3.891   0.246
12274TIP3   OH236762   4.970   6.666   4.984
12274TIP3    H136763   5.018   6.743   4.952
12274TIP3    H236764   4.945   6.619   4.905
12275TIP3   OH236765   6.424   5.719   4.948
12275TIP3    H136766   6.500   5.776   4.958
12275TIP3    H236767   6.419   5.701   4.855
12276TIP3   OH236768   2.316   3.071   1.792
12276TIP3    H136769   2.386   3.034   1.738
12276TIP3    H236770   2.321   3.023   1.875
12277TIP3   OH236771   7.405   6.648   3.902
12277TIP3    H136772   7.499   6.663   3.918
12277TIP3    H236773   7.361   6.697   3.971
12278TIP3   OH236774   5.444   7.507   4.063
12278TIP3    H136775   5.498   7.554   3.999
12278TIP3    H236776   5.354   7.532   4.043
12279TIP3   OH236777   4.588   4.617   3.546
12279TIP3    H136778   4.529   4.564   3.599
12279TIP3    H236779   4.589   4.702   3.589
12280TIP3   OH236780   1.232   5.127   4.143
12280TIP3    H136781   1.293   5.113   4.215
12280TIP3    H236782   1.150   5.151   4.186
12281TIP3   OH236783   5.393   6.816   5.377
12281TIP3    H136784   5.426   6.860   5.455
12281TIP3    H236785   5.467   6.818   5.316
12282TIP3   OH236786   7.156   2.561   4.244
12282TIP3    H136787   7.079   2.603   4.281
12282TIP3    H236788   7.122   2.503   4.176
12283TIP3   OH236789   1.530   2.225   1.437
12283TIP3    H136790   1.439   2.253   1.438
12283TIP3    H236791   1.563   2.257   1.353
12284TIP3   OH236792   7.621   4.703   4.328
12284TIP3    H136793   7.571   4.708   4.246
12284TIP3    H236794   7.646   4.612   4.336
12285TIP3   OH236795   4.862   7.089   5.183
12285TIP3    H136796   4.908   7.100   5.266
12285TIP3    H236797   4.903   7.151   5.124
12286TIP3   OH236798   0.727   3.923   0.123
12286TIP3    H136799   0.756   4.014   0.128
12286TIP3    H236800   0.719   3.896   0.214
12287TIP3   OH236801   6.195   7.417   1.167
12287TIP3    H136802   6.112   7.416   1.216
12287TIP3    H236803   6.175   7.465   1.087
12288TIP3   OH236804   3.239   7.736   5.200
12288TIP3    H136805   3.245   7.643   5.179
12288TIP3    H236806   3.271   7.742   5.290
12289TIP3   OH236807   5.113   5.120   5.758
12289TIP3    H136808   5.069   5.035   5.758
12289TIP3    H236809   5.164   5.121   5.677
12290TIP3   OH236810   4.095   4.457   2.915
12290TIP3    H136811   4.086   4.531   2.975
12290TIP3    H236812   4.189   4.437   2.916
12291TIP3   OH236813   7.528   5.269   2.967
12291TIP3    H136814   7.565   5.183   2.948
12291TIP3    H236815   7.552   5.286   3.058
12292TIP3   OH236816   4.440   4.347   5.681
12292TIP3    H136817   4.356   4.363   5.639
12292TIP3    H236818   4.504   4.359   5.611
12293TIP3   OH236819   3.630   5.124   4.067
12293TIP3    H136820   3.583   5.047   4.099
12293TIP3    H236821   3.562   5.177   4.024
12294TIP3   OH236822   5.008   7.351   0.500
12294TIP3    H136823   5.060   7.427   0.471
12294TIP3    H236824   4.927   7.357   0.450
12295TIP3   OH236825   3.316   3.479   5.468
12295TIP3    H136826   3.328   3.533   5.546
12295TIP3    H236827   3.238   3.515   5.426
12296TIP3   OH236828   4.859   0.860   3.421
12296TIP3    H136829   4.827   0.772   3.401
12296TIP3    H236830   4.788   0.918   3.393
12297TIP3   OH236831   3.594   4.078   4.202
12297TIP3    H136832   3.570   4.052   4.114
12297TIP3    H236833   3.511   4.082   4.249
12298TIP3   OH236834   0.219   6.858   1.741
12298TIP3    H136835   0.161   6.909   1.685
12298TIP3    H236836   0.263   6.923   1.795
12299TIP3   OH236837   4.766   3.475   5.623
12299TIP3    H136838   4.671   3.474   5.617
12299TIP3    H236839   4.795   3.428   5.545
12300TIP3   OH236840   5.316   4.919   1.885
12300TIP3    H136841   5.363   5.002   1.888
12300TIP3    H236842   5.385   4.852   1.886
12301TIP3   OH236843   8.149   7.280  -0.036
12301TIP3    H136844   8.069   7.229  -0.053
12301TIP3    H236845   8.130   7.328   0.045
12302TIP3   OH236846   1.207   3.780   4.494
12302TIP3    H136847   1.127   3.728   4.491
12302TIP3    H236848   1.250   3.763   4.410
12303TIP3   OH236849   7.725   1.045   3.300
12303TIP3    H136850   7.708   0.974   3.362
12303TIP3    H236851   7.743   1.121   3.355
12304TIP3   OH236852   0.452   6.854   5.215
12304TIP3    H136853   0.523   6.870   5.153
12304TIP3    H236854   0.493   6.860   5.301
12305TIP3   OH236855   7.518   5.153   6.631
12305TIP3    H136856   7.531   5.158   6.726
12305TIP3    H236857   7.429   5.187   6.617
12306TIP3   OH236858   1.908   1.565   3.878
12306TIP3    H136859   1.852   1.636   3.849
12306TIP3    H236860   1.949   1.599   3.958
12307TIP3   OH236861   1.337   7.076   4.811
12307TIP3    H136862   1.301   6.993   4.842
12307TIP3    H236863   1.263   7.136   4.812
12308TIP3   OH236864   4.308   2.675   5.617
12308TIP3    H136865   4.294   2.657   5.524
12308TIP3    H236866   4.225   2.713   5.647
12309TIP3   OH236867   1.322   4.509   5.251
12309TIP3    H136868   1.239   4.529   5.209
12309TIP3    H236869   1.366   4.448   5.192
12310TIP3   OH236870   4.698   1.955   3.210
12310TIP3    H136871   4.750   2.028   3.176
12310TIP3    H236872   4.608   1.986   3.206
12311TIP3   OH236873   2.664   3.231   6.096
12311TIP3    H136874   2.570   3.250   6.087
12311TIP3    H236875   2.672   3.192   6.184
12312TIP3   OH236876   0.407   5.896   5.692
12312TIP3    H136877   0.424   5.871   5.602
12312TIP3    H236878   0.330   5.845   5.718
12313TIP3   OH236879   0.903   4.340   4.666
12313TIP3    H136880   0.970   4.273   4.653
12313TIP3    H236881   0.946   4.405   4.722
12314TIP3   OH236882   2.182   1.118   0.447
12314TIP3    H136883   2.110   1.065   0.411
12314TIP3    H236884   2.152   1.208   0.440
12315TIP3   OH236885   3.492   2.052   3.303
12315TIP3    H136886   3.539   2.134   3.316
12315TIP3    H236887   3.411   2.063   3.354
12316TIP3   OH236888   0.177   6.198   4.983
12316TIP3    H136889   0.256   6.248   4.965
12316TIP3    H236890   0.178   6.184   5.078
12317TIP3   OH236891   5.314   4.760   0.225
12317TIP3    H136892   5.353   4.846   0.208
12317TIP3    H236893   5.361   4.701   0.165
12318TIP3   OH236894   5.743   4.399   2.356
12318TIP3    H136895   5.731   4.365   2.268
12318TIP3    H236896   5.775   4.325   2.406
12319TIP3   OH236897   0.351   5.428   2.236
12319TIP3    H136898   0.357   5.333   2.244
12319TIP3    H236899   0.259   5.445   2.215
12320TIP3   OH236900   8.257   1.440   2.868
12320TIP3    H136901   8.319   1.469   2.802
12320TIP3    H236902   8.276   1.495   2.944
12321TIP3   OH236903   1.353   4.865   4.231
12321TIP3    H136904   1.265   4.872   4.193
12321TIP3    H236905   1.351   4.926   4.305
12322TIP3   OH236906   2.673   2.840   6.574
12322TIP3    H136907   2.724   2.768   6.535
12322TIP3    H236908   2.690   2.914   6.516
12323TIP3   OH236909   1.374   2.471   5.615
12323TIP3    H136910   1.414   2.513   5.539
12323TIP3    H236911   1.309   2.411   5.579
12324TIP3   OH236912   2.826   3.383   5.912
12324TIP3    H136913   2.915   3.355   5.935
12324TIP3    H236914   2.770   3.341   5.977
12325TIP3   OH236915   5.643   6.616   4.054
12325TIP3    H136916   5.662   6.707   4.034
12325TIP3    H236917   5.553   6.616   4.086
12326TIP3   OH236918   1.549   4.322   0.739
12326TIP3    H136919   1.589   4.265   0.673
12326TIP3    H236920   1.498   4.263   0.794
12327TIP3   OH236921   8.316   2.288   1.824
12327TIP3    H136922   8.251   2.348   1.788
12327TIP3    H236923   8.302   2.206   1.777
12328TIP3   OH236924   4.769   3.631   6.009
12328TIP3    H136925   4.802   3.672   5.928
12328TIP3    H236926   4.679   3.607   5.989
12329TIP3   OH236927   1.024   2.885   2.128
12329TIP3    H136928   1.032   2.794   2.099
12329TIP3    H236929   1.110   2.922   2.111
12330TIP3   OH236930   3.224   4.306   0.882
12330TIP3    H136931   3.270   4.317   0.798
12330TIP3    H236932   3.276   4.357   0.944
12331TIP3   OH236933   0.853   1.841   4.884
12331TIP3    H136934   0.835   1.769   4.944
12331TIP3    H236935   0.928   1.811   4.832
12332TIP3   OH236936   8.167   1.365   2.363
12332TIP3    H136937   8.178   1.270   2.360
12332TIP3    H236938   8.157   1.391   2.271
12333TIP3   OH236939   0.957   7.855   6.704
12333TIP3    H136940   0.961   7.793   6.631
12333TIP3    H236941   0.974   7.801   6.782
12334TIP3   OH236942   0.882   1.859   2.750
12334TIP3    H136943   0.870   1.926   2.817
12334TIP3    H236944   0.937   1.901   2.684
12335TIP3   OH236945   3.055   0.072   4.334
12335TIP3    H136946   3.123   0.005   4.328
12335TIP3    H236947   3.029   0.070   4.426
12336TIP3   OH236948   0.407   6.124   2.590
12336TIP3    H136949   0.323   6.085   2.615
12336TIP3    H236950   0.470   6.052   2.600
12337TIP3   OH236951   7.283   2.215   4.035
12337TIP3    H136952   7.344   2.203   4.108
12337TIP3    H236953   7.284   2.132   3.989
12338TIP3   OH236954   5.942   5.853   3.729
12338TIP3    H136955   6.026   5.897   3.716
12338TIP3    H236956   5.957   5.794   3.803
12339TIP3   OH236957   2.224   2.579   2.008
12339TIP3    H136958   2.248   2.603   2.098
12339TIP3    H236959   2.256   2.652   1.955
12340TIP3   OH236960   5.565   7.918   1.863
12340TIP3    H136961   5.471   7.910   1.877
12340TIP3    H236962   5.599   7.946   1.948
12341TIP3   OH236963   4.234   7.397   3.625
12341TIP3    H136964   4.310   7.413   3.570
12341TIP3    H236965   4.257   7.320   3.677
12342TIP3   OH236966   4.270   5.760   2.028
12342TIP3    H136967   4.219   5.776   1.949
12342TIP3    H236968   4.335   5.830   2.029
12343TIP3   OH236969   5.421   4.290   4.762
12343TIP3    H136970   5.461   4.236   4.694
12343TIP3    H236971   5.446   4.380   4.739
12344TIP3   OH236972   3.902   7.350   0.931
12344TIP3    H136973   3.842   7.300   0.986
12344TIP3    H236974   3.988   7.337   0.972
12345TIP3   OH236975   8.194   6.735   5.281
12345TIP3    H136976   8.176   6.703   5.369
12345TIP3    H236977   8.111   6.772   5.251
12346TIP3   OH236978   3.237   6.502   5.888
12346TIP3    H136979   3.282   6.418   5.884
12346TIP3    H236980   3.181   6.496   5.965
12347TIP3   OH236981   7.722   3.420   5.193
12347TIP3    H136982   7.644   3.375   5.160
12347TIP3    H236983   7.691   3.506   5.220
12348TIP3   OH236984   4.972   4.103   3.055
12348TIP3    H136985   5.027   4.170   3.096
12348TIP3    H236986   5.005   4.020   3.089
12349TIP3   OH236987   5.801   6.206   0.666
12349TIP3    H136988   5.869   6.216   0.598
12349TIP3    H236989   5.784   6.296   0.695
12350TIP3   OH236990   6.120   3.623   0.888
12350TIP3    H136991   6.037   3.602   0.846
12350TIP3    H236992   6.127   3.719   0.881
12351TIP3   OH236993   1.283   7.628   6.536
12351TIP3    H136994   1.216   7.577   6.582
12351TIP3    H236995   1.363   7.613   6.586
12352TIP3   OH236996   4.650   6.902   0.999
12352TIP3    H136997   4.713   6.879   0.931
12352TIP3    H236998   4.644   6.997   0.996
12353TIP3   OH236999   3.807   7.705   3.157
12353TIP3    H137000   3.776   7.685   3.069
12353TIP3    H237001   3.793   7.800   3.166
12354TIP3   OH237002   8.349   2.744   3.222
12354TIP3    H137003   8.420   2.688   3.255
12354TIP3    H237004   8.338   2.718   3.131
12355TIP3   OH237005   2.889   0.427   0.842
12355TIP3    H137006   2.803   0.454   0.810
12355TIP3    H237007   2.872   0.344   0.887
12356TIP3   OH237008   1.947   4.578   5.452
12356TIP3    H137009   1.882   4.559   5.384
12356TIP3    H237010   1.912   4.537   5.531
12357TIP3   OH237011   7.977   1.985   1.879
12357TIP3    H137012   8.044   2.030   1.931
12357TIP3    H237013   7.903   1.975   1.939
12358TIP3   OH237014   6.838   0.864   6.720
12358TIP3    H137015   6.910   0.885   6.659
12358TIP3    H237016   6.774   0.933   6.704
12359TIP3   OH237017   3.276   3.876   4.627
12359TIP3    H137018   3.250   3.964   4.598
12359TIP3    H237019   3.365   3.887   4.660
12360TIP3   OH237020   4.439   4.955   2.155
12360TIP3    H137021   4.465   5.002   2.076
12360TIP3    H237022   4.430   4.864   2.126
12361TIP3   OH237023   1.168   1.884   0.236
12361TIP3    H137024   1.161   1.911   0.144
12361TIP3    H237025   1.081   1.849   0.257
12362TIP3   OH237026   1.293   3.137   3.644
12362TIP3    H137027   1.276   3.109   3.554
12362TIP3    H237028   1.357   3.075   3.677
12363TIP3   OH237029   4.100   1.179   5.445
12363TIP3    H137030   4.054   1.178   5.361
12363TIP3    H237031   4.189   1.205   5.423
12364TIP3   OH237032   4.188   7.599   4.626
12364TIP3    H137033   4.209   7.624   4.536
12364TIP3    H237034   4.137   7.519   4.618
12365TIP3   OH237035   7.360   7.906   3.426
12365TIP3    H137036   7.393   7.936   3.341
12365TIP3    H237037   7.439   7.893   3.478
12366TIP3   OH237038   1.387   5.270   2.026
12366TIP3    H137039   1.472   5.232   2.051
12366TIP3    H237040   1.324   5.224   2.081
12367TIP3   OH237041   5.522   1.527   3.275
12367TIP3    H137042   5.458   1.577   3.325
12367TIP3    H237043   5.594   1.512   3.336
12368TIP3   OH237044   2.701   6.234   3.348
12368TIP3    H137045   2.748   6.263   3.269
12368TIP3    H237046   2.694   6.312   3.402
12369TIP3   OH237047   0.498   4.357   2.329
12369TIP3    H137048   0.537   4.440   2.356
12369TIP3    H237049   0.426   4.381   2.272
12370TIP3   OH237050   1.606   4.254   5.598
12370TIP3    H137051   1.683   4.231   5.650
12370TIP3    H237052   1.577   4.338   5.634
12371TIP3   OH237053   2.280   4.361   1.154
12371TIP3    H137054   2.351   4.369   1.090
12371TIP3    H237055   2.212   4.419   1.120
12372TIP3   OH237056   4.166   2.843   0.671
12372TIP3    H137057   4.101   2.773   0.673
12372TIP3    H237058   4.116   2.922   0.647
12373TIP3   OH237059   4.907   0.879   6.648
12373TIP3    H137060   4.842   0.926   6.698
12373TIP3    H237061   4.883   0.894   6.556
12374TIP3   OH237062   3.473   6.666   5.840
12374TIP3    H137063   3.401   6.608   5.863
12374TIP3    H237064   3.436   6.754   5.844
12375TIP3   OH237065   3.939   1.662   1.418
12375TIP3    H137066   3.906   1.577   1.389
12375TIP3    H237067   3.998   1.690   1.348
12376TIP3   OH237068   6.409   4.933   5.785
12376TIP3    H137069   6.343   4.992   5.749
12376TIP3    H237070   6.361   4.876   5.845
12377TIP3   OH237071   7.544   1.972   1.799
12377TIP3    H137072   7.502   1.889   1.775
12377TIP3    H237073   7.492   2.004   1.873
12378TIP3   OH237074   4.327   1.638   4.082
12378TIP3    H137075   4.246   1.621   4.131
12378TIP3    H237076   4.321   1.730   4.057
12379TIP3   OH237077   5.757   6.673   0.068
12379TIP3    H137078   5.698   6.655  -0.006
12379TIP3    H237079   5.699   6.682   0.143
12380TIP3   OH237080   2.200   1.273   6.697
12380TIP3    H137081   2.240   1.300   6.615
12380TIP3    H237082   2.273   1.269   6.759
12381TIP3   OH237083   1.785   6.783   0.886
12381TIP3    H137084   1.864   6.737   0.915
12381TIP3    H237085   1.790   6.868   0.931
12382TIP3   OH237086   2.985   0.593   5.669
12382TIP3    H137087   2.996   0.554   5.756
12382TIP3    H237088   3.024   0.680   5.677
12383TIP3   OH237089   3.848   7.456   2.750
12383TIP3    H137090   3.802   7.486   2.671
12383TIP3    H237091   3.812   7.510   2.820
12384TIP3   OH237092   5.791   3.478   3.943
12384TIP3    H137093   5.698   3.456   3.934
12384TIP3    H237094   5.830   3.449   3.861
12385TIP3   OH237095   7.435   6.986   2.101
12385TIP3    H137096   7.443   6.900   2.060
12385TIP3    H237097   7.400   6.968   2.189
12386TIP3   OH237098   5.579   2.056   0.856
12386TIP3    H137099   5.627   1.990   0.805
12386TIP3    H237100   5.632   2.068   0.935
12387TIP3   OH237101   7.132   7.306   3.357
12387TIP3    H137102   7.201   7.356   3.401
12387TIP3    H237103   7.112   7.357   3.278
12388TIP3   OH237104   0.973   2.965   3.792
12388TIP3    H137105   0.984   2.895   3.727
12388TIP3    H237106   1.033   2.940   3.863
12389TIP3   OH237107   5.817   3.243   0.829
12389TIP3    H137108   5.760   3.319   0.837
12389TIP3    H237109   5.769   3.182   0.773
12390TIP3   OH237110   8.362   1.253   0.916
12390TIP3    H137111   8.402   1.172   0.946
12390TIP3    H237112   8.369   1.250   0.820
12391TIP3   OH237113   0.672   5.827   4.335
12391TIP3    H137114   0.741   5.859   4.277
12391TIP3    H237115   0.719   5.791   4.410
12392TIP3   OH237116   1.090   1.268   4.030
12392TIP3    H137117   1.165   1.274   4.090
12392TIP3    H237118   1.020   1.315   4.075
12393TIP3   OH237119   3.500   4.767   6.825
12393TIP3    H137120   3.480   4.722   6.743
12393TIP3    H237121   3.583   4.728   6.853
12394TIP3   OH237122   1.231   5.868   2.595
12394TIP3    H137123   1.275   5.838   2.675
12394TIP3    H237124   1.228   5.792   2.538
12395TIP3   OH237125   7.867   6.745   6.581
12395TIP3    H137126   7.914   6.816   6.538
12395TIP3    H237127   7.843   6.781   6.666
12396TIP3   OH237128   5.495   1.623   4.596
12396TIP3    H137129   5.537   1.592   4.516
12396TIP3    H237130   5.549   1.588   4.667
12397TIP3   OH237131   0.441   1.589   1.013
12397TIP3    H137132   0.512   1.633   1.060
12397TIP3    H237133   0.376   1.658   0.998
12398TIP3   OH237134   5.197   1.357   5.322
12398TIP3    H137135   5.104   1.336   5.316
12398TIP3    H237136   5.230   1.345   5.233
12399TIP3   OH237137   7.513   5.815   4.146
12399TIP3    H137138   7.520   5.785   4.056
12399TIP3    H237139   7.600   5.801   4.184
12400TIP3   OH237140   5.247   7.245   0.686
12400TIP3    H137141   5.317   7.309   0.674
12400TIP3    H237142   5.223   7.219   0.597
12401TIP3   OH237143   7.107   2.908   5.604
12401TIP3    H137144   7.142   2.995   5.583
12401TIP3    H237145   7.177   2.864   5.651
12402TIP3   OH237146   0.030   4.735   1.780
12402TIP3    H137147   0.119   4.701   1.780
12402TIP3    H237148   0.015   4.762   1.689
12403TIP3   OH237149   0.693   7.276   3.959
12403TIP3    H137150   0.665   7.331   3.887
12403TIP3    H237151   0.629   7.291   4.028
12404TIP3   OH237152   1.229   2.593   4.545
12404TIP3    H137153   1.280   2.538   4.485
12404TIP3    H237154   1.180   2.530   4.598
12405TIP3   OH237155   8.416   6.568   6.481
12405TIP3    H137156   8.400   6.650   6.434
12405TIP3    H237157   8.473   6.518   6.423
12406TIP3   OH237158   7.396   7.101   6.594
12406TIP3    H137159   7.449   7.033   6.633
12406TIP3    H237160   7.309   7.090   6.633
12407TIP3   OH237161   8.079   5.087   4.520
12407TIP3    H137162   8.033   5.155   4.472
12407TIP3    H237163   8.109   5.026   4.452
12408TIP3   OH237164   0.969   2.285   1.167
12408TIP3    H137165   1.014   2.288   1.082
12408TIP3    H237166   0.878   2.308   1.146
12409TIP3   OH237167   4.784   3.316   3.321
12409TIP3    H137168   4.810   3.338   3.232
12409TIP3    H237169   4.729   3.389   3.349
12410TIP3   OH237170   1.974   0.995   1.942
12410TIP3    H137171   2.010   1.077   1.909
12410TIP3    H237172   2.033   0.970   2.014
12411TIP3   OH237173   3.905   0.736   3.927
12411TIP3    H137174   3.880   0.822   3.960
12411TIP3    H237175   3.992   0.749   3.890
12412TIP3   OH237176   6.602   4.207   4.028
12412TIP3    H137177   6.691   4.173   4.020
12412TIP3    H237178   6.550   4.150   3.971
12413TIP3   OH237179   7.380   4.461   4.155
12413TIP3    H137180   7.417   4.549   4.162
12413TIP3    H237181   7.382   4.441   4.061
12414TIP3   OH237182   2.279   7.237   4.269
12414TIP3    H137183   2.295   7.142   4.268
12414TIP3    H237184   2.366   7.276   4.268
12415TIP3   OH237185   0.121   2.476   1.667
12415TIP3    H137186   0.044   2.438   1.625
12415TIP3    H237187   0.130   2.428   1.749
12416TIP3   OH237188   5.104   1.146   0.402
12416TIP3    H137189   5.094   1.063   0.447
12416TIP3    H237190   5.025   1.196   0.423
12417TIP3   OH237191   5.571   2.185   0.461
12417TIP3    H137192   5.637   2.159   0.397
12417TIP3    H237193   5.544   2.272   0.434
12418TIP3   OH237194   8.043   0.250   3.982
12418TIP3    H137195   8.002   0.237   4.068
12418TIP3    H237196   8.136   0.263   4.002
12419TIP3   OH237197   4.876   7.390   6.537
12419TIP3    H137198   4.964   7.411   6.506
12419TIP3    H237199   4.842   7.328   6.473
12420TIP3   OH237200   5.845   4.565   2.863
12420TIP3    H137201   5.940   4.552   2.859
12420TIP3    H237202   5.810   4.510   2.793
12421TIP3   OH237203   7.075   0.973   1.007
12421TIP3    H137204   6.984   0.946   1.021
12421TIP3    H237205   7.090   0.961   0.913
12422TIP3   OH237206   3.635   3.680   1.891
12422TIP3    H137207   3.672   3.639   1.812
12422TIP3    H237208   3.559   3.728   1.859
12423TIP3   OH237209   3.617   5.229   1.249
12423TIP3    H137210   3.626   5.150   1.195
12423TIP3    H237211   3.692   5.226   1.308
12424TIP3   OH237212   6.505   7.076   4.347
12424TIP3    H137213   6.482   7.123   4.267
12424TIP3    H237214   6.562   7.137   4.395
12425TIP3   OH237215   1.670   7.720   1.914
12425TIP3    H137216   1.596   7.661   1.908
12425TIP3    H237217   1.745   7.668   1.884
12426TIP3   OH237218   6.036   2.115   1.295
12426TIP3    H137219   5.960   2.062   1.320
12426TIP3    H237220   5.998   2.197   1.264
12427TIP3   OH237221   4.024   5.098   3.446
12427TIP3    H137222   3.958   5.089   3.377
12427TIP3    H237223   3.979   5.070   3.526
12428TIP3   OH237224   0.788   5.297   3.699
12428TIP3    H137225   0.722   5.239   3.662
12428TIP3    H237226   0.869   5.245   3.695
12429TIP3   OH237227   4.697   0.412   6.065
12429TIP3    H137228   4.619   0.437   6.016
12429TIP3    H237229   4.770   0.439   6.009
12430TIP3   OH237230   6.685   7.723   2.778
12430TIP3    H137231   6.590   7.710   2.785
12430TIP3    H237232   6.712   7.743   2.868
12431TIP3   OH237233   4.847   1.887   3.703
12431TIP3    H137234   4.884   1.807   3.741
12431TIP3    H237235   4.825   1.863   3.613
12432TIP3   OH237236   0.909   6.135   3.466
12432TIP3    H137237   0.959   6.167   3.391
12432TIP3    H237238   0.819   6.164   3.449
12433TIP3   OH237239   3.743   2.843   6.758
12433TIP3    H137240   3.720   2.916   6.815
12433TIP3    H237241   3.831   2.817   6.786
12434TIP3   OH237242   7.058   3.999   6.454
12434TIP3    H137243   7.067   4.024   6.546
12434TIP3    H237244   7.056   3.904   6.456
12435TIP3   OH237245   4.753   6.500   4.479
12435TIP3    H137246   4.721   6.574   4.531
12435TIP3    H237247   4.674   6.452   4.454
12436TIP3   OH237248   1.053   0.535   4.664
12436TIP3    H137249   0.980   0.474   4.678
12436TIP3    H237250   1.030   0.582   4.583
12437TIP3   OH237251   5.822   5.607   0.100
12437TIP3    H137252   5.818   5.661   0.021
12437TIP3    H237253   5.885   5.653   0.157
12438TIP3   OH237254   1.004   5.922   6.768
12438TIP3    H137255   0.919   5.885   6.790
12438TIP3    H237256   0.986   5.983   6.696
12439TIP3   OH237257   7.422   6.297   1.164
12439TIP3    H137258   7.402   6.231   1.232
12439TIP3    H237259   7.429   6.246   1.083
12440TIP3   OH237260   8.164   7.841   0.190
12440TIP3    H137261   8.164   7.790   0.109
12440TIP3    H237262   8.149   7.931   0.160
12441TIP3   OH237263   4.943   3.781   3.246
12441TIP3    H137264   4.999   3.855   3.267
12441TIP3    H237265   4.943   3.727   3.325
12442TIP3   OH237266   6.970   5.332   5.831
12442TIP3    H137267   6.944   5.367   5.917
12442TIP3    H237268   7.063   5.313   5.840
12443TIP3   OH237269   5.590   4.889   5.459
12443TIP3    H137270   5.549   4.949   5.522
12443TIP3    H237271   5.676   4.871   5.496
12444TIP3   OH237272   2.479   1.286   0.662
12444TIP3    H137273   2.450   1.236   0.585
12444TIP3    H237274   2.529   1.359   0.626
12445TIP3   OH237275   7.740   1.348   0.578
12445TIP3    H137276   7.739   1.258   0.608
12445TIP3    H237277   7.678   1.350   0.505
12446TIP3   OH237278   2.565   3.766   3.213
12446TIP3    H137279   2.650   3.787   3.252
12446TIP3    H237280   2.529   3.697   3.269
12447TIP3   OH237281   7.225   6.696   5.371
12447TIP3    H137282   7.196   6.669   5.458
12447TIP3    H237283   7.313   6.731   5.385
12448TIP3   OH237284   6.831   2.895   6.325
12448TIP3    H137285   6.830   2.990   6.337
12448TIP3    H237286   6.920   2.869   6.346
12449TIP3   OH237287   2.898   2.229   3.911
12449TIP3    H137288   2.940   2.208   3.828
12449TIP3    H237289   2.956   2.194   3.978
12450TIP3   OH237290   1.648   3.122   1.121
12450TIP3    H137291   1.594   3.096   1.196
12450TIP3    H237292   1.594   3.186   1.073
12451TIP3   OH237293  -0.028   5.025   6.390
12451TIP3    H137294   0.061   5.059   6.386
12451TIP3    H237295  -0.027   4.947   6.335
12452TIP3   OH237296   5.335   3.516   0.346
12452TIP3    H137297   5.304   3.441   0.397
12452TIP3    H237298   5.297   3.592   0.390
12453TIP3   OH237299   7.054   0.167   4.791
12453TIP3    H137300   6.997   0.090   4.784
12453TIP3    H237301   7.040   0.199   4.880
12454TIP3   OH237302   7.971   6.873   0.879
12454TIP3    H137303   7.951   6.945   0.939
12454TIP3    H237304   7.899   6.812   0.889
12455TIP3   OH237305   6.379   6.095   2.035
12455TIP3    H137306   6.406   6.185   2.016
12455TIP3    H237307   6.410   6.079   2.124
12456TIP3   OH237308   4.041   7.776   5.716
12456TIP3    H137309   4.069   7.782   5.807
12456TIP3    H237310   4.118   7.803   5.666
12457TIP3   OH237311   6.478   2.721   1.540
12457TIP3    H137312   6.474   2.656   1.611
12457TIP3    H237313   6.425   2.683   1.470
12458TIP3   OH237314   0.460   7.000   5.952
12458TIP3    H137315   0.394   7.018   5.885
12458TIP3    H237316   0.520   7.074   5.947
12459TIP3   OH237317   1.116   5.947   1.764
12459TIP3    H137318   1.055   5.889   1.718
12459TIP3    H237319   1.062   5.990   1.830
12460TIP3   OH237320   0.378   6.196   6.713
12460TIP3    H137321   0.376   6.286   6.745
12460TIP3    H237322   0.416   6.202   6.626
12461TIP3   OH237323   8.080   2.793   4.738
12461TIP3    H137324   8.080   2.884   4.707
12461TIP3    H237325   8.086   2.740   4.659
12462TIP3   OH237326   6.220   0.768   6.604
12462TIP3    H137327   6.278   0.837   6.571
12462TIP3    H237328   6.132   0.795   6.578
12463TIP3   OH237329   7.312   6.980   4.961
12463TIP3    H137330   7.242   6.957   4.899
12463TIP3    H237331   7.282   6.944   5.044
12464TIP3   OH237332   3.757   3.554   0.425
12464TIP3    H137333   3.782   3.645   0.409
12464TIP3    H237334   3.664   3.549   0.403
12465TIP3   OH237335   8.007   0.834   5.019
12465TIP3    H137336   8.078   0.896   5.000
12465TIP3    H237337   7.948   0.882   5.077
12466TIP3   OH237338   7.883   1.027   1.388
12466TIP3    H137339   7.869   0.936   1.360
12466TIP3    H237340   7.970   1.049   1.353
12467TIP3   OH237341   1.138   2.511   6.079
12467TIP3    H137342   1.084   2.503   6.158
12467TIP3    H237343   1.189   2.591   6.092
12468TIP3   OH237344   1.769   0.624   4.073
12468TIP3    H137345   1.822   0.690   4.028
12468TIP3    H237346   1.803   0.540   4.043
12469TIP3   OH237347   8.197   3.560   2.229
12469TIP3    H137348   8.261   3.498   2.263
12469TIP3    H237349   8.219   3.569   2.136
12470TIP3   OH237350   7.271   7.596   1.377
12470TIP3    H137351   7.319   7.636   1.450
12470TIP3    H237352   7.252   7.507   1.407
12471TIP3   OH237353   3.285   5.367   4.564
12471TIP3    H137354   3.220   5.436   4.552
12471TIP3    H237355   3.327   5.388   4.648
12472TIP3   OH237356   7.986   6.135   0.739
12472TIP3    H137357   7.918   6.105   0.679
12472TIP3    H237358   8.067   6.101   0.702
12473TIP3   OH237359   1.147   2.614   4.275
12473TIP3    H137360   1.111   2.685   4.328
12473TIP3    H237361   1.137   2.536   4.329
12474TIP3   OH237362   3.723   7.780   5.151
12474TIP3    H137363   3.643   7.731   5.132
12474TIP3    H237364   3.735   7.771   5.245
12475TIP3   OH237365   1.278   4.383   4.576
12475TIP3    H137366   1.353   4.369   4.517
12475TIP3    H237367   1.222   4.307   4.561
12476TIP3   OH237368   6.254   2.953   3.955
12476TIP3    H137369   6.200   2.934   4.032
12476TIP3    H237370   6.336   2.985   3.992
12477TIP3   OH237371   5.311   4.139   1.920
12477TIP3    H137372   5.392   4.170   1.880
12477TIP3    H237373   5.245   4.151   1.852
12478TIP3   OH237374   5.302   3.317   6.223
12478TIP3    H137375   5.289   3.411   6.238
12478TIP3    H237376   5.360   3.313   6.147
12479TIP3   OH237377   0.434   6.394   1.417
12479TIP3    H137378   0.359   6.343   1.447
12479TIP3    H237379   0.403   6.438   1.338
12480TIP3   OH237380   3.782   6.247   4.887
12480TIP3    H137381   3.836   6.290   4.953
12480TIP3    H237382   3.712   6.204   4.936
12481TIP3   OH237383   4.545   2.623   6.404
12481TIP3    H137384   4.493   2.571   6.342
12481TIP3    H237385   4.631   2.630   6.364
12482TIP3   OH237386   4.866   3.325   3.719
12482TIP3    H137387   4.774   3.331   3.742
12482TIP3    H237388   4.913   3.347   3.799
12483TIP3   OH237389   0.799   3.072   2.850
12483TIP3    H137390   0.827   3.003   2.910
12483TIP3    H237391   0.760   3.026   2.776
12484TIP3   OH237392   5.881   2.582   0.764
12484TIP3    H137393   5.831   2.627   0.696
12484TIP3    H237394   5.910   2.501   0.722
12485TIP3   OH237395   2.067   1.756   2.051
12485TIP3    H137396   1.996   1.783   2.110
12485TIP3    H237397   2.119   1.835   2.039
12486TIP3   OH237398   0.577   0.172   5.002
12486TIP3    H137399   0.530   0.234   4.947
12486TIP3    H237400   0.547   0.086   4.972
12487TIP3   OH237401   2.646   1.157   5.591
12487TIP3    H137402   2.560   1.198   5.594
12487TIP3    H237403   2.673   1.165   5.499
12488TIP3   OH237404   3.155   1.974   6.613
12488TIP3    H137405   3.145   1.970   6.518
12488TIP3    H237406   3.085   2.033   6.642
12489TIP3   OH237407   1.491   1.311   1.830
12489TIP3    H137408   1.475   1.390   1.778
12489TIP3    H237409   1.533   1.251   1.769
12490TIP3   OH237410   1.327   5.186   5.049
12490TIP3    H137411   1.319   5.129   4.972
12490TIP3    H237412   1.419   5.214   5.049
12491TIP3   OH237413   4.951   5.904   4.761
12491TIP3    H137414   4.994   5.985   4.733
12491TIP3    H237415   4.983   5.889   4.850
12492TIP3   OH237416   1.159   2.234   6.323
12492TIP3    H137417   1.087   2.297   6.322
12492TIP3    H237418   1.238   2.287   6.329
12493TIP3   OH237419   7.635   2.272   1.499
12493TIP3    H137420   7.706   2.332   1.476
12493TIP3    H237421   7.656   2.243   1.587
12494TIP3   OH237422   4.695   4.785   0.761
12494TIP3    H137423   4.758   4.849   0.728
12494TIP3    H237424   4.613   4.834   0.768
12495TIP3   OH237425   4.436   3.921   4.156
12495TIP3    H137426   4.495   3.990   4.125
12495TIP3    H237427   4.481   3.883   4.232
12496TIP3   OH237428   6.833   5.897   1.787
12496TIP3    H137429   6.757   5.848   1.754
12496TIP3    H237430   6.797   5.980   1.817
12497TIP3   OH237431   5.929   6.755   6.037
12497TIP3    H137432   5.836   6.742   6.017
12497TIP3    H237433   5.931   6.778   6.130
12498TIP3   OH237434   6.136   3.863   5.294
12498TIP3    H137435   6.098   3.938   5.339
12498TIP3    H237436   6.063   3.825   5.245
12499TIP3   OH237437   7.443   6.177   5.489
12499TIP3    H137438   7.423   6.258   5.535
12499TIP3    H237439   7.408   6.108   5.546
12500TIP3   OH237440   5.115   3.557   1.187
12500TIP3    H137441   5.027   3.585   1.212
12500TIP3    H237442   5.123   3.468   1.223
12501TIP3   OH237443   7.860   7.055   6.711
12501TIP3    H137444   7.941   7.015   6.744
12501TIP3    H237445   7.839   7.122   6.775
12502TIP3   OH237446   0.640   4.273   2.925
12502TIP3    H137447   0.591   4.354   2.942
12502TIP3    H237448   0.640   4.265   2.829
12503TIP3   OH237449   0.539   7.839   4.829
12503TIP3    H137450   0.451   7.811   4.854
12503TIP3    H237451   0.526   7.890   4.749
12504TIP3   OH237452   6.148   5.206   1.071
12504TIP3    H137453   6.168   5.133   1.129
12504TIP3    H237454   6.060   5.187   1.037
12505TIP3   OH237455   3.631   4.461   1.695
12505TIP3    H137456   3.717   4.485   1.662
12505TIP3    H237457   3.577   4.448   1.617
12506TIP3   OH237458   1.740   1.986   6.268
12506TIP3    H137459   1.663   2.043   6.267
12506TIP3    H237460   1.731   1.934   6.188
12507TIP3   OH237461   3.104   5.543   2.545
12507TIP3    H137462   3.195   5.512   2.549
12507TIP3    H237463   3.052   5.466   2.569
12508TIP3   OH237464   4.091   3.927   5.238
12508TIP3    H137465   4.018   3.868   5.255
12508TIP3    H237466   4.153   3.874   5.187
12509TIP3   OH237467   4.360   4.762   3.140
12509TIP3    H137468   4.385   4.853   3.120
12509TIP3    H237469   4.439   4.724   3.179
12510TIP3   OH237470   4.061   1.686   2.056
12510TIP3    H137471   4.046   1.711   1.965
12510TIP3    H237472   4.155   1.697   2.069
12511TIP3   OH237473   2.358   5.819   1.228
12511TIP3    H137474   2.289   5.781   1.174
12511TIP3    H237475   2.341   5.913   1.225
12512TIP3   OH237476   6.205   6.740   0.737
12512TIP3    H137477   6.241   6.829   0.744
12512TIP3    H237478   6.134   6.739   0.801
12513TIP3   OH237479   6.679   0.103   0.966
12513TIP3    H137480   6.700   0.122   1.058
12513TIP3    H237481   6.705   0.182   0.919
12514TIP3   OH237482   6.906   2.107   4.581
12514TIP3    H137483   6.955   2.069   4.654
12514TIP3    H237484   6.953   2.188   4.561
12515TIP3   OH237485   1.279   5.882   6.824
12515TIP3    H137486   1.298   5.884   6.730
12515TIP3    H237487   1.184   5.872   6.829
12516TIP3   OH237488   7.459   6.320   0.395
12516TIP3    H137489   7.385   6.378   0.414
12516TIP3    H237490   7.482   6.282   0.479
12517TIP3   OH237491   3.100   5.007   6.269
12517TIP3    H137492   3.084   4.915   6.249
12517TIP3    H237493   3.030   5.032   6.329
12518TIP3   OH237494   0.887   5.921   2.691
12518TIP3    H137495   0.817   5.860   2.669
12518TIP3    H237496   0.909   5.901   2.782
12519TIP3   OH237497   2.562   2.345   5.485
12519TIP3    H137498   2.610   2.351   5.402
12519TIP3    H237499   2.626   2.310   5.547
12520TIP3   OH237500   6.962   6.650   1.980
12520TIP3    H137501   6.912   6.732   1.990
12520TIP3    H237502   6.958   6.632   1.886
12521TIP3   OH237503   1.829   6.385   6.130
12521TIP3    H137504   1.837   6.389   6.035
12521TIP3    H237505   1.903   6.332   6.159
12522TIP3   OH237506   6.053   4.299   2.501
12522TIP3    H137507   6.056   4.317   2.407
12522TIP3    H237508   6.091   4.211   2.510
12523TIP3   OH237509   4.236   1.160   0.406
12523TIP3    H137510   4.217   1.240   0.455
12523TIP3    H237511   4.288   1.189   0.331
12524TIP3   OH237512   6.725   6.453   0.041
12524TIP3    H137513   6.649   6.403   0.010
12524TIP3    H237514   6.722   6.444   0.136
12525TIP3   OH237515   7.692   4.123   3.613
12525TIP3    H137516   7.710   4.168   3.531
12525TIP3    H237517   7.652   4.190   3.669
12526TIP3   OH237518   1.954   3.640   6.374
12526TIP3    H137519   1.932   3.551   6.401
12526TIP3    H237520   1.950   3.691   6.455
12527TIP3   OH237521   0.906   5.527   1.419
12527TIP3    H137522   0.905   5.547   1.325
12527TIP3    H237523   0.974   5.461   1.428
12528TIP3   OH237524   2.475   5.275   5.628
12528TIP3    H137525   2.431   5.358   5.610
12528TIP3    H237526   2.420   5.209   5.585
12529TIP3   OH237527   4.716   1.354   1.342
12529TIP3    H137528   4.733   1.396   1.257
12529TIP3    H237529   4.738   1.262   1.328
12530TIP3   OH237530   4.879   7.347   2.156
12530TIP3    H137531   4.939   7.375   2.087
12530TIP3    H237532   4.879   7.419   2.218
12531TIP3   OH237533   2.010   1.432   5.292
12531TIP3    H137534   1.919   1.408   5.276
12531TIP3    H237535   2.048   1.354   5.334
12532TIP3   OH237536   7.579   1.818   2.691
12532TIP3    H137537   7.661   1.856   2.659
12532TIP3    H237538   7.538   1.778   2.614
12533TIP3   OH237539   2.550   2.776   4.049
12533TIP3    H137540   2.546   2.682   4.068
12533TIP3    H237541   2.459   2.801   4.035
12534TIP3   OH237542   4.444   3.606   2.983
12534TIP3    H137543   4.457   3.618   3.077
12534TIP3    H237544   4.376   3.669   2.960
12535TIP3   OH237545   1.143   1.296   2.552
12535TIP3    H137546   1.065   1.269   2.504
12535TIP3    H237547   1.196   1.216   2.559
12536TIP3   OH237548   4.480   6.179   4.321
12536TIP3    H137549   4.495   6.267   4.356
12536TIP3    H237550   4.532   6.122   4.377
12537TIP3   OH237551   5.316   2.750   0.901
12537TIP3    H137552   5.330   2.656   0.914
12537TIP3    H237553   5.347   2.766   0.812
12538TIP3   OH237554   0.281   0.325   3.897
12538TIP3    H137555   0.308   0.359   3.983
12538TIP3    H237556   0.337   0.371   3.835
12539TIP3   OH237557   4.900   1.224   1.749
12539TIP3    H137558   4.926   1.275   1.672
12539TIP3    H237559   4.806   1.240   1.758
12540TIP3   OH237560   4.728   2.739   2.493
12540TIP3    H137561   4.669   2.721   2.567
12540TIP3    H237562   4.669   2.752   2.418
12541TIP3   OH237563   1.109   2.679   2.471
12541TIP3    H137564   1.027   2.725   2.489
12541TIP3    H237565   1.118   2.618   2.544
12542TIP3   OH237566   4.898   0.672   6.243
12542TIP3    H137567   4.885   0.578   6.238
12542TIP3    H237568   4.810   0.708   6.258
12543TIP3   OH237569   2.065   0.492   0.199
12543TIP3    H137570   2.046   0.509   0.106
12543TIP3    H237571   2.025   0.566   0.245
12544TIP3   OH237572   0.005   2.122   2.628
12544TIP3    H137573   0.050   2.203   2.655
12544TIP3    H237574  -0.052   2.150   2.557
12545TIP3   OH237575   5.925   6.271   1.260
12545TIP3    H137576   6.011   6.248   1.228
12545TIP3    H237577   5.927   6.367   1.269
12546TIP3   OH237578   0.439   2.207   4.965
12546TIP3    H137579   0.465   2.195   4.874
12546TIP3    H237580   0.426   2.118   4.998
12547TIP3   OH237581   2.199   0.536   3.186
12547TIP3    H137582   2.271   0.577   3.137
12547TIP3    H237583   2.139   0.504   3.118
12548TIP3   OH237584   3.113   4.186   4.759
12548TIP3    H137585   3.054   4.262   4.755
12548TIP3    H237586   3.194   4.221   4.795
12549TIP3   OH237587   3.832   6.817   1.158
12549TIP3    H137588   3.846   6.853   1.245
12549TIP3    H237589   3.919   6.790   1.129
12550TIP3   OH237590   7.512   1.112   2.705
12550TIP3    H137591   7.486   1.137   2.793
12550TIP3    H237592   7.601   1.078   2.714
12551TIP3   OH237593   1.501   7.377   5.153
12551TIP3    H137594   1.412   7.403   5.179
12551TIP3    H237595   1.552   7.458   5.156
12552TIP3   OH237596   0.992   4.233   2.621
12552TIP3    H137597   0.962   4.287   2.694
12552TIP3    H237598   0.981   4.290   2.544
12553TIP3   OH237599   0.902   7.450   5.555
12553TIP3    H137600   0.877   7.498   5.476
12553TIP3    H237601   0.972   7.502   5.594
12554TIP3   OH237602   1.365   3.304   5.118
12554TIP3    H137603   1.324   3.389   5.130
12554TIP3    H237604   1.432   3.318   5.052
12555TIP3   OH237605   6.465   3.637   0.227
12555TIP3    H137606   6.529   3.570   0.252
12555TIP3    H237607   6.380   3.596   0.241
12556TIP3   OH237608   6.130   5.952   2.028
12556TIP3    H137609   6.157   5.911   2.110
12556TIP3    H237610   6.189   6.027   2.018
12557TIP3   OH237611   1.316   1.361   3.858
12557TIP3    H137612   1.351   1.277   3.827
12557TIP3    H237613   1.228   1.341   3.888
12558TIP3   OH237614   7.920   5.951   5.853
12558TIP3    H137615   7.850   5.887   5.868
12558TIP3    H237616   7.942   5.943   5.761
12559TIP3   OH237617   2.036   2.534   0.959
12559TIP3    H137618   2.052   2.617   0.915
12559TIP3    H237619   2.122   2.492   0.963
12560TIP3   OH237620   6.455   3.464   1.763
12560TIP3    H137621   6.450   3.424   1.850
12560TIP3    H237622   6.418   3.398   1.704
12561TIP3   OH237623   2.652   6.135   6.850
12561TIP3    H137624   2.556   6.127   6.853
12561TIP3    H237625   2.681   6.062   6.795
12562TIP3   OH237626   1.776   7.772   5.394
12562TIP3    H137627   1.702   7.828   5.417
12562TIP3    H237628   1.852   7.817   5.430
12563TIP3   OH237629   0.202   5.666   5.181
12563TIP3    H137630   0.204   5.576   5.214
12563TIP3    H237631   0.289   5.681   5.145
12564TIP3   OH237632   1.992   1.763   0.095
12564TIP3    H137633   2.059   1.811   0.145
12564TIP3    H237634   2.040   1.723   0.023
12565TIP3   OH237635   5.165   0.571   5.726
12565TIP3    H137636   5.081   0.527   5.736
12565TIP3    H237637   5.205   0.530   5.650
12566TIP3   OH237638   5.064   4.350   2.216
12566TIP3    H137639   5.008   4.280   2.252
12566TIP3    H237640   5.075   4.326   2.124
12567TIP3   OH237641   6.607   0.799   0.119
12567TIP3    H137642   6.578   0.887   0.095
12567TIP3    H237643   6.560   0.780   0.200
12568TIP3   OH237644   0.847   0.815   5.100
12568TIP3    H137645   0.761   0.851   5.122
12568TIP3    H237646   0.829   0.729   5.062
12569TIP3   OH237647   4.972   2.953   6.541
12569TIP3    H137648   4.918   3.032   6.547
12569TIP3    H237649   4.960   2.909   6.625
12570TIP3   OH237650   6.721   2.400   4.254
12570TIP3    H137651   6.808   2.361   4.263
12570TIP3    H237652   6.715   2.426   4.162
12571TIP3   OH237653   1.865   1.208   4.143
12571TIP3    H137654   1.855   1.280   4.205
12571TIP3    H237655   1.856   1.129   4.196
12572TIP3   OH237656   7.578   0.703   1.928
12572TIP3    H137657   7.639   0.743   1.990
12572TIP3    H237658   7.617   0.717   1.842
12573TIP3   OH237659   1.098   5.861   0.353
12573TIP3    H137660   1.181   5.903   0.374
12573TIP3    H237661   1.123   5.779   0.309
12574TIP3   OH237662   2.614   5.909   0.328
12574TIP3    H137663   2.643   5.954   0.407
12574TIP3    H237664   2.647   5.963   0.256
12575TIP3   OH237665   7.199   5.642   4.733
12575TIP3    H137666   7.279   5.600   4.765
12575TIP3    H237667   7.174   5.702   4.803
12576TIP3   OH237668   7.641   7.333   5.621
12576TIP3    H137669   7.675   7.420   5.645
12576TIP3    H237670   7.584   7.350   5.546
12577TIP3   OH237671   4.684   3.912   3.566
12577TIP3    H137672   4.763   3.881   3.609
12577TIP3    H237673   4.714   3.951   3.484
12578TIP3   OH237674   0.246   3.808   4.594
12578TIP3    H137675   0.269   3.898   4.570
12578TIP3    H237676   0.154   3.800   4.567
12579TIP3   OH237677   7.743   2.570   5.910
12579TIP3    H137678   7.657   2.541   5.940
12579TIP3    H237679   7.788   2.490   5.885
12580TIP3   OH237680   4.054   3.217   1.093
12580TIP3    H137681   4.091   3.293   1.139
12580TIP3    H237682   3.980   3.253   1.043
12581TIP3   OH237683   4.183   5.286   4.825
12581TIP3    H137684   4.087   5.278   4.829
12581TIP3    H237685   4.203   5.281   4.731
12582TIP3   OH237686   4.818   3.099   2.653
12582TIP3    H137687   4.862   3.102   2.738
12582TIP3    H237688   4.801   3.190   2.632
12583TIP3   OH237689   8.347   2.875   2.014
12583TIP3    H137690   8.391   2.944   2.063
12583TIP3    H237691   8.297   2.921   1.947
12584TIP3   OH237692   4.737   7.610   0.523
12584TIP3    H137693   4.766   7.696   0.492
12584TIP3    H237694   4.680   7.578   0.454
12585TIP3   OH237695   3.139   6.815   2.958
12585TIP3    H137696   3.195   6.852   3.025
12585TIP3    H237697   3.123   6.725   2.987
12586TIP3   OH237698   2.313   3.566   4.250
12586TIP3    H137699   2.329   3.537   4.340
12586TIP3    H237700   2.395   3.607   4.223
12587TIP3   OH237701   4.991   5.978   3.418
12587TIP3    H137702   4.927   5.981   3.490
12587TIP3    H237703   5.060   6.038   3.446
12588TIP3   OH237704   2.681   4.339   6.222
12588TIP3    H137705   2.710   4.371   6.308
12588TIP3    H237706   2.630   4.261   6.242
12589TIP3   OH237707   1.013   6.273   6.115
12589TIP3    H137708   1.045   6.184   6.103
12589TIP3    H237709   1.026   6.315   6.030
12590TIP3   OH237710   2.044   2.787   5.345
12590TIP3    H137711   2.064   2.697   5.369
12590TIP3    H237712   2.088   2.840   5.411
12591TIP3   OH237713   5.783   2.099   3.743
12591TIP3    H137714   5.822   2.123   3.659
12591TIP3    H237715   5.707   2.046   3.720
12592TIP3   OH237716   0.227   6.990   6.102
12592TIP3    H137717   0.169   7.064   6.085
12592TIP3    H237718   0.311   7.016   6.065
12593TIP3   OH237719   5.926   4.849   0.940
12593TIP3    H137720   5.896   4.764   0.909
12593TIP3    H237721   5.950   4.834   1.032
12594TIP3   OH237722   6.208   4.162   5.062
12594TIP3    H137723   6.222   4.235   5.002
12594TIP3    H237724   6.140   4.110   5.021
12595TIP3   OH237725   8.143   4.812   4.847
12595TIP3    H137726   8.067   4.870   4.848
12595TIP3    H237727   8.185   4.828   4.763
12596TIP3   OH237728   7.051   4.595   4.145
12596TIP3    H137729   7.013   4.531   4.206
12596TIP3    H237730   7.045   4.678   4.191
12597TIP3   OH237731   7.844   4.012   6.321
12597TIP3    H137732   7.876   3.961   6.396
12597TIP3    H237733   7.873   4.102   6.340
12598TIP3   OH237734   6.525   3.245   6.369
12598TIP3    H137735   6.497   3.153   6.375
12598TIP3    H237736   6.498   3.283   6.452
12599TIP3   OH237737   6.494   3.631   1.128
12599TIP3    H137738   6.502   3.709   1.073
12599TIP3    H237739   6.428   3.578   1.085
12600TIP3   OH237740   0.404   6.285   5.692
12600TIP3    H137741   0.455   6.239   5.759
12600TIP3    H237742   0.383   6.217   5.627
12601TIP3   OH237743   6.881   6.411   6.210
12601TIP3    H137744   6.863   6.319   6.227
12601TIP3    H237745   6.975   6.420   6.222
12602TIP3   OH237746   1.426   4.409   2.274
12602TIP3    H137747   1.415   4.502   2.254
12602TIP3    H237748   1.471   4.407   2.358
12603TIP3   OH237749   4.153   2.785   2.215
12603TIP3    H137750   4.064   2.776   2.249
12603TIP3    H237751   4.176   2.697   2.185
12604TIP3   OH237752   1.928   2.926   2.770
12604TIP3    H137753   1.852   2.870   2.753
12604TIP3    H237754   2.001   2.864   2.779
12605TIP3   OH237755   6.865   5.675   6.804
12605TIP3    H137756   6.833   5.756   6.845
12605TIP3    H237757   6.937   5.646   6.859
12606TIP3   OH237758   0.053   4.620   6.006
12606TIP3    H137759  -0.023   4.623   5.947
12606TIP3    H237760   0.057   4.528   6.033
12607TIP3   OH237761   4.175   2.972   4.111
12607TIP3    H137762   4.227   2.904   4.154
12607TIP3    H237763   4.092   2.930   4.091
12608TIP3   OH237764   5.250   5.036   5.506
12608TIP3    H137765   5.326   5.036   5.564
12608TIP3    H237766   5.224   4.944   5.500
12609TIP3   OH237767   4.327   0.226   6.555
12609TIP3    H137768   4.419   0.231   6.528
12609TIP3    H237769   4.310   0.132   6.564
12610TIP3   OH237770   1.772   7.541   5.952
12610TIP3    H137771   1.741   7.511   6.038
12610TIP3    H237772   1.711   7.611   5.928
12611TIP3   OH237773   2.457   7.729   4.664
12611TIP3    H137774   2.368   7.762   4.654
12611TIP3    H237775   2.511   7.807   4.677
12612TIP3   OH237776   7.482   4.830   4.862
12612TIP3    H137777   7.487   4.742   4.825
12612TIP3    H237778   7.392   4.839   4.893
12613TIP3   OH237779   0.183   8.000   4.650
12613TIP3    H137780   0.160   7.924   4.704
12613TIP3    H237781   0.159   8.076   4.704
12614TIP3   OH237782   7.039   7.397   6.798
12614TIP3    H137783   7.067   7.427   6.711
12614TIP3    H237784   7.115   7.349   6.832
12615TIP3   OH237785   4.110   7.871   4.332
12615TIP3    H137786   4.042   7.888   4.397
12615TIP3    H237787   4.065   7.828   4.260
12616TIP3   OH237788   2.946   0.441   5.986
12616TIP3    H137789   2.966   0.530   6.013
12616TIP3    H237790   3.013   0.419   5.922
12617TIP3   OH237791   7.141   1.846   3.638
12617TIP3    H137792   7.141   1.937   3.667
12617TIP3    H237793   7.150   1.795   3.718
12618TIP3   OH237794   6.584   4.897   5.281
12618TIP3    H137795   6.503   4.859   5.245
12618TIP3    H237796   6.559   4.925   5.369
12619TIP3   OH237797   8.088   7.249   5.838
12619TIP3    H137798   8.084   7.202   5.922
12619TIP3    H237799   8.160   7.311   5.849
12620TIP3   OH237800   3.764   7.385   0.439
12620TIP3    H137801   3.835   7.400   0.377
12620TIP3    H237802   3.807   7.361   0.521
12621TIP3   OH237803   8.312   1.594   5.388
12621TIP3    H137804   8.322   1.501   5.368
12621TIP3    H237805   8.294   1.597   5.482
12622TIP3   OH237806   1.179   2.860   4.577
12622TIP3    H137807   1.221   2.781   4.544
12622TIP3    H237808   1.108   2.878   4.516
12623TIP3   OH237809   2.056   6.796   5.300
12623TIP3    H137810   1.997   6.871   5.311
12623TIP3    H237811   2.014   6.743   5.232
12624TIP3   OH237812   4.920   0.771   1.771
12624TIP3    H137813   4.844   0.769   1.830
12624TIP3    H237814   4.949   0.680   1.767
12625TIP3   OH237815   8.146   5.300   6.791
12625TIP3    H137816   8.101   5.323   6.710
12625TIP3    H237817   8.170   5.208   6.780
12626TIP3   OH237818   5.138   7.498   0.703
12626TIP3    H137819   5.157   7.405   0.688
12626TIP3    H237820   5.159   7.540   0.620
12627TIP3   OH237821   8.246   7.141   6.443
12627TIP3    H137822   8.333   7.120   6.478
12627TIP3    H237823   8.259   7.145   6.348
12628TIP3   OH237824   0.789   6.339   4.037
12628TIP3    H137825   0.732   6.308   4.107
12628TIP3    H237826   0.851   6.397   4.080
12629TIP3   OH237827   2.552   6.093   1.782
12629TIP3    H137828   2.539   6.013   1.833
12629TIP3    H237829   2.524   6.069   1.693
12630TIP3   OH237830   0.839   3.112   5.917
12630TIP3    H137831   0.836   3.021   5.946
12630TIP3    H237832   0.871   3.160   5.993
12631TIP3   OH237833   7.437   1.141   1.618
12631TIP3    H137834   7.527   1.115   1.639
12631TIP3    H237835   7.384   1.071   1.656
12632TIP3   OH237836   2.988   3.843   2.344
12632TIP3    H137837   3.012   3.856   2.252
12632TIP3    H237838   3.033   3.762   2.369
12633TIP3   OH237839   5.363   5.623   1.729
12633TIP3    H137840   5.273   5.592   1.719
12633TIP3    H237841   5.416   5.557   1.685
12634TIP3   OH237842   3.911   0.443   5.121
12634TIP3    H137843   3.879   0.533   5.127
12634TIP3    H237844   3.866   0.406   5.045
12635TIP3   OH237845   1.756   0.465   0.235
12635TIP3    H137846   1.767   0.373   0.211
12635TIP3    H237847   1.787   0.514   0.158
12636TIP3   OH237848   0.573   5.977   0.647
12636TIP3    H137849   0.584   5.991   0.553
12636TIP3    H237850   0.622   6.048   0.688
12637TIP3   OH237851   1.200   6.676   1.256
12637TIP3    H137852   1.244   6.616   1.195
12637TIP3    H237853   1.270   6.731   1.291
12638TIP3   OH237854   4.851   4.108   3.739
12638TIP3    H137855   4.889   4.085   3.654
12638TIP3    H237856   4.916   4.166   3.780
12639TIP3   OH237857   4.914   3.535   4.585
12639TIP3    H137858   4.852   3.497   4.522
12639TIP3    H237859   4.957   3.459   4.625
12640TIP3   OH237860   2.438   3.746   4.952
12640TIP3    H137861   2.433   3.669   5.009
12640TIP3    H237862   2.403   3.715   4.868
12641TIP3   OH237863   2.803   2.771   0.177
12641TIP3    H137864   2.860   2.807   0.245
12641TIP3    H237865   2.729   2.830   0.173
12642TIP3   OH237866   2.453   0.185   0.126
12642TIP3    H137867   2.440   0.266   0.077
12642TIP3    H237868   2.497   0.212   0.206
12643TIP3   OH237869   2.378   6.746   1.158
12643TIP3    H137870   2.446   6.725   1.094
12643TIP3    H237871   2.316   6.800   1.110
12644TIP3   OH237872   4.692   4.611   6.519
12644TIP3    H137873   4.599   4.614   6.542
12644TIP3    H237874   4.693   4.600   6.424
12645TIP3   OH237875   8.378   6.257   6.184
12645TIP3    H137876   8.350   6.346   6.160
12645TIP3    H237877   8.298   6.213   6.212
12646TIP3   OH237878   3.490   5.567   4.438
12646TIP3    H137879   3.498   5.473   4.424
12646TIP3    H237880   3.417   5.594   4.382
12647TIP3   OH237881   1.260   5.986   0.902
12647TIP3    H137882   1.330   5.928   0.931
12647TIP3    H237883   1.205   5.998   0.979
12648TIP3   OH237884   5.509   2.668   1.595
12648TIP3    H137885   5.493   2.761   1.581
12648TIP3    H237886   5.511   2.630   1.507
12649TIP3   OH237887   7.178   2.588   2.907
12649TIP3    H137888   7.231   2.555   2.835
12649TIP3    H237889   7.165   2.681   2.887
12650TIP3   OH237890   8.390   5.968   2.953
12650TIP3    H137891   8.351   5.942   3.037
12650TIP3    H237892   8.329   5.934   2.887
12651TIP3   OH237893   4.618   3.301   6.456
12651TIP3    H137894   4.623   3.278   6.364
12651TIP3    H237895   4.594   3.394   6.457
12652TIP3   OH237896   0.880   7.257   1.653
12652TIP3    H137897   0.919   7.192   1.712
12652TIP3    H237898   0.831   7.315   1.711
12653TIP3   OH237899   1.661   6.545   4.528
12653TIP3    H137900   1.620   6.552   4.614
12653TIP3    H237901   1.631   6.461   4.494
12654TIP3   OH237902   6.702   7.476   1.122
12654TIP3    H137903   6.637   7.457   1.189
12654TIP3    H237904   6.699   7.400   1.064
12655TIP3   OH237905   3.122   6.492   0.472
12655TIP3    H137906   3.060   6.483   0.400
12655TIP3    H237907   3.157   6.580   0.464
12656TIP3   OH237908   5.668   5.811   3.131
12656TIP3    H137909   5.648   5.762   3.211
12656TIP3    H237910   5.752   5.853   3.149
12657TIP3   OH237911   4.416   1.610   1.910
12657TIP3    H137912   4.361   1.551   1.859
12657TIP3    H237913   4.388   1.597   2.001
12658TIP3   OH237914   0.563   5.240   2.115
12658TIP3    H137915   0.613   5.308   2.069
12658TIP3    H237916   0.586   5.251   2.207
12659TIP3   OH237917   0.053   5.193   4.431
12659TIP3    H137918   0.064   5.288   4.432
12659TIP3    H237919   0.134   5.160   4.392
12660TIP3   OH237920   2.150   1.916   3.172
12660TIP3    H137921   2.182   1.826   3.171
12660TIP3    H237922   2.056   1.908   3.186
12661TIP3   OH237923   4.201   6.713   2.672
12661TIP3    H137924   4.176   6.748   2.587
12661TIP3    H237925   4.205   6.618   2.658
12662TIP3   OH237926   1.027   7.743   4.405
12662TIP3    H137927   1.011   7.795   4.326
12662TIP3    H237928   1.101   7.788   4.447
12663TIP3   OH237929   3.182   6.530   4.297
12663TIP3    H137930   3.189   6.474   4.220
12663TIP3    H237931   3.182   6.619   4.262
12664TIP3   OH237932   6.041   6.306   2.058
12664TIP3    H137933   6.043   6.265   2.144
12664TIP3    H237934   5.949   6.325   2.042
12665TIP3   OH237935   4.767   3.664   6.580
12665TIP3    H137936   4.785   3.756   6.596
12665TIP3    H237937   4.732   3.660   6.492
12666TIP3   OH237938   3.636   4.331   4.681
12666TIP3    H137939   3.577   4.403   4.704
12666TIP3    H237940   3.645   4.280   4.761
12667TIP3   OH237941   2.636   5.079   3.846
12667TIP3    H137942   2.643   5.148   3.780
12667TIP3    H237943   2.724   5.041   3.850
12668TIP3   OH237944   0.014   1.706   6.708
12668TIP3    H137945   0.108   1.722   6.704
12668TIP3    H237946  -0.019   1.773   6.768
12669TIP3   OH237947   0.709   2.504   4.066
12669TIP3    H137948   0.641   2.461   4.015
12669TIP3    H237949   0.785   2.447   4.058
12670TIP3   OH237950   7.383   1.932   4.557
12670TIP3    H137951   7.454   1.876   4.591
12670TIP3    H237952   7.303   1.881   4.573
12671TIP3   OH237953   4.722   6.847   3.935
12671TIP3    H137954   4.735   6.936   3.966
12671TIP3    H237955   4.776   6.793   3.994
12672TIP3   OH237956   7.131   4.000   3.140
12672TIP3    H137957   7.201   4.059   3.168
12672TIP3    H237958   7.152   3.979   3.049
12673TIP3   OH237959   2.523   1.000   3.944
12673TIP3    H137960   2.557   1.083   3.978
12673TIP3    H237961   2.472   0.964   4.017
12674TIP3   OH237962   1.207   3.221   2.707
12674TIP3    H137963   1.148   3.153   2.675
12674TIP3    H237964   1.218   3.280   2.633
12675TIP3   OH237965   5.959   6.737   1.775
12675TIP3    H137966   5.897   6.685   1.827
12675TIP3    H237967   5.911   6.817   1.754
12676TIP3   OH237968   0.105   7.410   6.765
12676TIP3    H137969   0.159   7.467   6.819
12676TIP3    H237970   0.102   7.327   6.813
12677TIP3   OH237971   5.657   2.512   3.307
12677TIP3    H137972   5.730   2.568   3.334
12677TIP3    H237973   5.627   2.550   3.224
12678TIP3   OH237974   4.432   4.847   5.901
12678TIP3    H137975   4.351   4.801   5.922
12678TIP3    H237976   4.464   4.805   5.821
12679TIP3   OH237977   2.024   2.566   6.198
12679TIP3    H137978   1.967   2.609   6.262
12679TIP3    H237979   2.036   2.630   6.129
12680TIP3   OH237980   0.352   6.770   2.449
12680TIP3    H137981   0.363   6.863   2.469
12680TIP3    H237982   0.257   6.759   2.439
12681TIP3   OH237983   7.907   1.417   3.170
12681TIP3    H137984   7.872   1.370   3.246
12681TIP3    H237985   7.831   1.430   3.113
12682TIP3   OH237986   0.905   7.586   3.232
12682TIP3    H137987   0.840   7.580   3.161
12682TIP3    H237988   0.918   7.495   3.259
12683TIP3   OH237989   3.481   3.855   1.658
12683TIP3    H137990   3.415   3.889   1.599
12683TIP3    H237991   3.559   3.845   1.604
12684TIP3   OH237992   4.183   5.849   6.388
12684TIP3    H137993   4.272   5.857   6.422
12684TIP3    H237994   4.180   5.907   6.312
12685TIP3   OH237995   6.962   1.994   0.213
12685TIP3    H137996   6.921   1.993   0.127
12685TIP3    H237997   7.007   1.910   0.220
12686TIP3   OH237998   3.368   7.592   4.602
12686TIP3    H137999   3.447   7.613   4.552
12686TIP3    H238000   3.296   7.617   4.544
12687TIP3   OH238001   2.700   0.967   6.204
12687TIP3    H138002   2.702   1.058   6.234
12687TIP3    H238003   2.713   0.972   6.110
12688TIP3   OH238004   4.714   7.182   0.959
12688TIP3    H138005   4.783   7.198   0.895
12688TIP3    H238006   4.759   7.175   1.043
12689TIP3   OH238007   6.250   7.210   2.895
12689TIP3    H138008   6.227   7.300   2.917
12689TIP3    H238009   6.344   7.204   2.915
12690TIP3   OH238010   0.431   0.681   4.233
12690TIP3    H138011   0.354   0.735   4.218
12690TIP3    H238012   0.473   0.720   4.310
12691TIP3   OH238013   7.813   2.410   0.777
12691TIP3    H138014   7.779   2.343   0.719
12691TIP3    H238015   7.770   2.394   0.861
12692TIP3   OH238016   7.558   5.168   3.628
12692TIP3    H138017   7.592   5.254   3.654
12692TIP3    H238018   7.529   5.179   3.538
12693TIP3   OH238019   1.126   1.831   3.728
12693TIP3    H138020   1.166   1.918   3.726
12693TIP3    H238021   1.161   1.787   3.649
12694TIP3   OH238022   7.754   4.398   3.899
12694TIP3    H138023   7.762   4.493   3.908
12694TIP3    H238024   7.764   4.365   3.988
12695TIP3   OH238025   7.859   4.560   4.510
12695TIP3    H138026   7.791   4.516   4.459
12695TIP3    H238027   7.930   4.573   4.447
12696TIP3   OH238028   5.752   4.393   5.494
12696TIP3    H138029   5.728   4.329   5.426
12696TIP3    H238030   5.742   4.478   5.451
12697TIP3   OH238031   4.520   4.612   1.210
12697TIP3    H138032   4.504   4.648   1.122
12697TIP3    H238033   4.570   4.532   1.194
12698TIP3   OH238034   3.064   2.336   0.771
12698TIP3    H138035   3.083   2.410   0.714
12698TIP3    H238036   3.088   2.259   0.719
12699TIP3   OH238037   5.527   7.072   6.051
12699TIP3    H138038   5.579   7.030   5.983
12699TIP3    H238039   5.438   7.072   6.017
12700TIP3   OH238040   0.236   5.472   2.655
12700TIP3    H138041   0.249   5.503   2.565
12700TIP3    H238042   0.142   5.481   2.670
12701TIP3   OH238043   3.795   0.449   1.592
12701TIP3    H138044   3.803   0.456   1.688
12701TIP3    H238045   3.885   0.435   1.562
12702TIP3   OH238046   2.107   5.232   2.366
12702TIP3    H138047   2.043   5.198   2.303
12702TIP3    H238048   2.061   5.231   2.450
12703TIP3   OH238049   5.029   0.645   6.483
12703TIP3    H138050   5.016   0.666   6.391
12703TIP3    H238051   5.019   0.729   6.528
12704TIP3   OH238052   3.010   0.444   3.813
12704TIP3    H138053   2.945   0.511   3.789
12704TIP3    H238054   3.082   0.494   3.853
12705TIP3   OH238055   6.175   4.654   3.843
12705TIP3    H138056   6.193   4.574   3.793
12705TIP3    H238057   6.176   4.625   3.935
12706TIP3   OH238058   0.594   2.653   1.830
12706TIP3    H138059   0.576   2.736   1.874
12706TIP3    H238060   0.508   2.618   1.807
12707TIP3   OH238061   7.605   0.838   4.126
12707TIP3    H138062   7.690   0.882   4.127
12707TIP3    H238063   7.626   0.745   4.130
12708TIP3   OH238064   0.416   0.312   6.398
12708TIP3    H138065   0.418   0.217   6.412
12708TIP3    H238066   0.508   0.338   6.393
12709TIP3   OH238067   4.302   2.797   3.578
12709TIP3    H138068   4.279   2.805   3.486
12709TIP3    H238069   4.397   2.802   3.580
12710TIP3   OH238070   2.207   1.863   0.429
12710TIP3    H138071   2.194   1.943   0.479
12710TIP3    H238072   2.221   1.893   0.339
12711TIP3   OH238073   2.528   4.078   0.953
12711TIP3    H138074   2.569   4.067   0.867
12711TIP3    H238075   2.537   3.993   0.995
12712TIP3   OH238076   8.235   6.593   4.819
12712TIP3    H138077   8.233   6.502   4.849
12712TIP3    H238078   8.273   6.588   4.732
12713TIP3   OH238079   3.510   7.341   3.099
12713TIP3    H138080   3.543   7.317   3.186
12713TIP3    H238081   3.557   7.283   3.039
12714TIP3   OH238082   5.025   3.115   4.893
12714TIP3    H138083   4.963   3.056   4.849
12714TIP3    H238084   5.102   3.060   4.908
12715TIP3   OH238085   5.494   6.888   5.638
12715TIP3    H138086   5.455   6.841   5.712
12715TIP3    H238087   5.580   6.848   5.627
12716TIP3   OH238088   5.266   6.770   6.162
12716TIP3    H138089   5.195   6.762   6.225
12716TIP3    H238090   5.336   6.815   6.210
12717TIP3   OH238091   3.755   3.919   1.245
12717TIP3    H138092   3.740   3.894   1.154
12717TIP3    H238093   3.811   3.997   1.239
12718TIP3   OH238094   5.470   5.231   2.211
12718TIP3    H138095   5.545   5.171   2.219
12718TIP3    H238096   5.448   5.228   2.118
12719TIP3   OH238097   0.235   0.513   5.836
12719TIP3    H138098   0.292   0.589   5.829
12719TIP3    H238099   0.275   0.458   5.903
12720TIP3   OH238100   2.225   0.025   6.330
12720TIP3    H138101   2.310   0.068   6.337
12720TIP3    H238102   2.180   0.070   6.259
12721TIP3   OH238103   0.795   0.943   3.764
12721TIP3    H138104   0.821   0.948   3.856
12721TIP3    H238105   0.842   1.015   3.722
12722TIP3   OH238106   4.518   6.748   2.429
12722TIP3    H138107   4.558   6.780   2.510
12722TIP3    H238108   4.590   6.713   2.378
12723TIP3   OH238109   5.142   6.397   0.885
12723TIP3    H138110   5.151   6.472   0.944
12723TIP3    H238111   5.065   6.350   0.918
12724TIP3   OH238112   1.570   7.755   3.564
12724TIP3    H138113   1.584   7.665   3.536
12724TIP3    H238114   1.649   7.802   3.536
12725TIP3   OH238115   8.177   1.166   3.888
12725TIP3    H138116   8.235   1.219   3.833
12725TIP3    H238117   8.108   1.226   3.916
12726TIP3   OH238118   1.943   0.890   5.000
12726TIP3    H138119   2.029   0.932   4.988
12726TIP3    H238120   1.936   0.830   4.926
12727TIP3   OH238121   5.363   4.358   6.300
12727TIP3    H138122   5.441   4.303   6.311
12727TIP3    H238123   5.296   4.298   6.269
12728TIP3   OH238124   3.450   0.689   6.675
12728TIP3    H138125   3.442   0.701   6.581
12728TIP3    H238126   3.450   0.778   6.710
12729TIP3   OH238127   2.149   1.643   5.527
12729TIP3    H138128   2.132   1.550   5.542
12729TIP3    H238129   2.130   1.686   5.610
12730TIP3   OH238130   6.080   1.545   0.572
12730TIP3    H138131   6.100   1.473   0.632
12730TIP3    H238132   6.075   1.503   0.486
12731TIP3   OH238133   6.500   1.016   4.828
12731TIP3    H138134   6.423   1.046   4.779
12731TIP3    H238135   6.549   0.962   4.765
12732TIP3   OH238136   7.646   7.242   2.887
12732TIP3    H138137   7.646   7.206   2.799
12732TIP3    H238138   7.566   7.207   2.927
12733TIP3   OH238139   5.930   7.272   0.924
12733TIP3    H138140   5.965   7.356   0.955
12733TIP3    H238141   5.997   7.239   0.865
12734TIP3   OH238142   4.850   5.649   6.294
12734TIP3    H138143   4.859   5.678   6.203
12734TIP3    H238144   4.803   5.566   6.289
12735TIP3   OH238145   3.325   4.579   3.509
12735TIP3    H138146   3.304   4.511   3.573
12735TIP3    H238147   3.275   4.556   3.432
12736TIP3   OH238148   2.245   2.668   5.766
12736TIP3    H138149   2.281   2.598   5.712
12736TIP3    H238150   2.275   2.749   5.724
12737TIP3   OH238151   0.407   6.348   4.960
12737TIP3    H138152   0.459   6.423   4.932
12737TIP3    H238153   0.437   6.329   5.048
12738TIP3   OH238154   6.891   5.192   0.327
12738TIP3    H138155   6.909   5.105   0.363
12738TIP3    H238156   6.903   5.182   0.233
12739TIP3   OH238157   4.219   0.235   5.651
12739TIP3    H138158   4.193   0.144   5.667
12739TIP3    H238159   4.196   0.250   5.559
12740TIP3   OH238160   2.939   7.590   0.323
12740TIP3    H138161   2.905   7.517   0.374
12740TIP3    H238162   2.910   7.668   0.370
12741TIP3   OH238163   3.351   6.664   2.098
12741TIP3    H138164   3.297   6.709   2.164
12741TIP3    H238165   3.405   6.734   2.060
12742TIP3   OH238166   2.069   0.565   0.968
12742TIP3    H138167   2.022   0.561   1.052
12742TIP3    H238168   2.162   0.570   0.993
12743TIP3   OH238169   5.538   3.510   1.604
12743TIP3    H138170   5.540   3.436   1.664
12743TIP3    H238171   5.525   3.586   1.660
12744TIP3   OH238172   5.236   7.528   5.019
12744TIP3    H138173   5.319   7.512   5.063
12744TIP3    H238174   5.181   7.454   5.044
12745TIP3   OH238175   0.148   5.675   4.777
12745TIP3    H138176   0.058   5.644   4.774
12745TIP3    H238177   0.153   5.726   4.858
12746TIP3   OH238178   3.805   5.809   0.997
12746TIP3    H138179   3.816   5.762   0.914
12746TIP3    H238180   3.883   5.788   1.047
12747TIP3   OH238181   7.427   3.232   6.229
12747TIP3    H138182   7.522   3.222   6.222
12747TIP3    H238183   7.413   3.326   6.238
12748TIP3   OH238184   3.056   1.283   5.998
12748TIP3    H138185   3.033   1.365   5.955
12748TIP3    H238186   3.132   1.304   6.052
12749TIP3   OH238187   4.451   3.387   2.838
12749TIP3    H138188   4.480   3.468   2.881
12749TIP3    H238189   4.388   3.349   2.899
12750TIP3   OH238190   7.082   4.030   2.782
12750TIP3    H138191   7.138   3.973   2.835
12750TIP3    H238192   7.101   4.004   2.692
12751TIP3   OH238193   8.244   4.944   0.221
12751TIP3    H138194   8.187   4.969   0.293
12751TIP3    H238195   8.271   5.026   0.181
12752TIP3   OH238196   4.857   2.356   3.684
12752TIP3    H138197   4.799   2.419   3.728
12752TIP3    H238198   4.873   2.395   3.598
12753TIP3   OH238199   6.466   2.687   3.297
12753TIP3    H138200   6.504   2.676   3.209
12753TIP3    H238201   6.382   2.730   3.281
12754TIP3   OH238202   8.169   7.548   4.407
12754TIP3    H138203   8.130   7.476   4.357
12754TIP3    H238204   8.255   7.515   4.433
12755TIP3   OH238205   2.986   6.266   2.390
12755TIP3    H138206   2.956   6.176   2.376
12755TIP3    H238207   3.081   6.260   2.390
12756TIP3   OH238208   0.785   3.994   4.627
12756TIP3    H138209   0.810   3.922   4.684
12756TIP3    H238210   0.823   3.973   4.542
12757TIP3   OH238211   4.992   7.778   0.194
12757TIP3    H138212   4.922   7.716   0.174
12757TIP3    H238213   4.946   7.856   0.225
12758TIP3   OH238214   8.288   1.877   5.804
12758TIP3    H138215   8.209   1.838   5.841
12758TIP3    H238216   8.293   1.963   5.844
12759TIP3   OH238217   1.997   4.753   0.537
12759TIP3    H138218   1.932   4.797   0.592
12759TIP3    H238219   2.081   4.773   0.579
12760TIP3   OH238220   5.193   6.924   6.695
12760TIP3    H138221   5.161   7.014   6.697
12760TIP3    H238222   5.121   6.874   6.656
12761TIP3   OH238223   5.069   4.974   1.991
12761TIP3    H138224   5.152   4.943   1.957
12761TIP3    H238225   5.029   5.020   1.917
12762TIP3   OH238226   6.601   1.829   0.896
12762TIP3    H138227   6.680   1.805   0.848
12762TIP3    H238228   6.550   1.881   0.834
12763TIP3   OH238229   5.355   1.982   5.587
12763TIP3    H138230   5.417   1.991   5.514
12763TIP3    H238231   5.280   1.937   5.549
12764TIP3   OH238232   7.992   5.943   1.144
12764TIP3    H138233   7.960   5.856   1.167
12764TIP3    H238234   7.967   5.955   1.053
12765TIP3   OH238235   3.014   4.564   0.987
12765TIP3    H138236   3.013   4.519   1.072
12765TIP3    H238237   2.927   4.548   0.950
12766TIP3   OH238238   2.685   7.832   6.675
12766TIP3    H138239   2.592   7.837   6.697
12766TIP3    H238240   2.728   7.818   6.759
12767TIP3   OH238241   1.873   5.872   4.866
12767TIP3    H138242   1.797   5.914   4.825
12767TIP3    H238243   1.910   5.939   4.922
12768TIP3   OH238244   0.506   5.647   3.527
12768TIP3    H138245   0.583   5.680   3.481
12768TIP3    H238246   0.447   5.722   3.533
12769TIP3   OH238247   1.707   5.348   2.164
12769TIP3    H138248   1.712   5.311   2.252
12769TIP3    H238249   1.685   5.274   2.107
12770TIP3   OH238250   0.972   6.487   6.537
12770TIP3    H138251   0.975   6.442   6.622
12770TIP3    H238252   1.038   6.443   6.484
12771TIP3   OH238253   0.096   3.486   3.387
12771TIP3    H138254   0.054   3.413   3.433
12771TIP3    H238255   0.108   3.454   3.298
12772TIP3   OH238256   2.878   1.406   3.104
12772TIP3    H138257   2.873   1.497   3.131
12772TIP3    H238258   2.919   1.361   3.178
12773TIP3   OH238259   7.066   1.785   5.372
12773TIP3    H138260   7.011   1.842   5.425
12773TIP3    H238261   7.046   1.697   5.403
12774TIP3   OH238262   6.657   1.079   6.687
12774TIP3    H138263   6.624   1.169   6.687
12774TIP3    H238264   6.605   1.035   6.620
12775TIP3   OH238265   1.498   5.976   3.382
12775TIP3    H138266   1.477   5.971   3.289
12775TIP3    H238267   1.434   5.918   3.424
12776TIP3   OH238268   6.690   4.939   3.023
12776TIP3    H138269   6.666   5.027   3.051
12776TIP3    H238270   6.760   4.952   2.960
12777TIP3   OH238271   2.496   0.702   1.856
12777TIP3    H138272   2.476   0.619   1.898
12777TIP3    H238273   2.412   0.733   1.822
12778TIP3   OH238274   6.152   4.465   4.048
12778TIP3    H138275   6.230   4.424   4.085
12778TIP3    H238276   6.122   4.404   3.981
12779TIP3   OH238277   3.339   1.252   0.764
12779TIP3    H138278   3.417   1.271   0.816
12779TIP3    H238279   3.323   1.159   0.779
12780TIP3   OH238280   7.113   1.178   5.738
12780TIP3    H138281   7.066   1.255   5.771
12780TIP3    H238282   7.195   1.177   5.789
12781TIP3   OH238283   3.346   2.882   3.792
12781TIP3    H138284   3.375   2.845   3.876
12781TIP3    H238285   3.297   2.811   3.750
12782TIP3   OH238286   0.889   2.331   2.849
12782TIP3    H138287   0.942   2.276   2.791
12782TIP3    H238288   0.930   2.322   2.935
12783TIP3   OH238289   7.228   5.193   3.241
12783TIP3    H138290   7.213   5.196   3.147
12783TIP3    H238291   7.217   5.283   3.271
12784TIP3   OH238292   3.565   3.596   1.055
12784TIP3    H138293   3.483   3.579   1.101
12784TIP3    H238294   3.565   3.535   0.982
12785TIP3   OH238295   2.128   4.168   3.699
12785TIP3    H138296   2.171   4.083   3.696
12785TIP3    H238297   2.143   4.200   3.788
12786TIP3   OH238298   4.424   2.885   0.786
12786TIP3    H138299   4.341   2.888   0.738
12786TIP3    H238300   4.471   2.963   0.757
12787TIP3   OH238301   1.700   7.885   2.401
12787TIP3    H138302   1.761   7.830   2.353
12787TIP3    H238303   1.721   7.974   2.375
12788TIP3   OH238304   1.039   6.695   5.751
12788TIP3    H138305   0.961   6.706   5.697
12788TIP3    H238306   1.008   6.709   5.841
12789TIP3   OH238307   5.932   1.711   1.389
12789TIP3    H138308   6.014   1.670   1.364
12789TIP3    H238309   5.890   1.648   1.448
12790TIP3   OH238310   2.440   6.018   3.789
12790TIP3    H138311   2.453   6.108   3.758
12790TIP3    H238312   2.527   5.990   3.817
12791TIP3   OH238313   1.150   6.329   6.378
12791TIP3    H138314   1.215   6.387   6.338
12791TIP3    H238315   1.108   6.286   6.304
12792TIP3   OH238316   6.252   7.097   3.396
12792TIP3    H138317   6.331   7.045   3.407
12792TIP3    H238318   6.215   7.068   3.313
12793TIP3   OH238319   3.700   6.375   6.025
12793TIP3    H138320   3.609   6.349   6.009
12793TIP3    H238321   3.705   6.466   5.999
12794TIP3   OH238322   4.556   2.976   6.275
12794TIP3    H138323   4.461   2.965   6.283
12794TIP3    H238324   4.582   2.911   6.210
12795TIP3   OH238325   5.032   6.764   0.326
12795TIP3    H138326   5.109   6.720   0.291
12795TIP3    H238327   5.065   6.846   0.362
12796TIP3   OH238328   0.039   6.543   5.407
12796TIP3    H138329   0.040   6.529   5.501
12796TIP3    H238330  -0.038   6.495   5.376
12797TIP3   OH238331   4.933   5.572   1.200
12797TIP3    H138332   5.023   5.552   1.226
12797TIP3    H238333   4.888   5.595   1.281
12798TIP3   OH238334   2.992   7.792   1.817
12798TIP3    H138335   2.956   7.880   1.822
12798TIP3    H238336   3.077   7.798   1.860
12799TIP3   OH238337   4.411   5.751   5.193
12799TIP3    H138338   4.429   5.835   5.151
12799TIP3    H238339   4.398   5.772   5.285
12800TIP3   OH238340   1.889   6.092   3.561
12800TIP3    H138341   1.890   5.997   3.579
12800TIP3    H238342   1.972   6.108   3.517
12801TIP3   OH238343   0.866   3.012   3.249
12801TIP3    H138344   0.959   3.014   3.225
12801TIP3    H238345   0.864   3.047   3.338
12802TIP3   OH238346   7.475   4.214   5.602
12802TIP3    H138347   7.396   4.258   5.633
12802TIP3    H238348   7.443   4.131   5.566
12803TIP3   OH238349   0.620   3.389   6.264
12803TIP3    H138350   0.601   3.306   6.308
12803TIP3    H238351   0.560   3.391   6.189
12804TIP3   OH238352   2.175   1.681   6.806
12804TIP3    H138353   2.240   1.751   6.799
12804TIP3    H238354   2.115   1.696   6.733
12805TIP3   OH238355   1.741   4.833   3.945
12805TIP3    H138356   1.689   4.896   3.895
12805TIP3    H238357   1.742   4.869   4.034
12806TIP3   OH238358   3.855   6.335   2.447
12806TIP3    H138359   3.895   6.380   2.521
12806TIP3    H238360   3.770   6.304   2.480
12807TIP3   OH238361   5.006   4.637   0.020
12807TIP3    H138362   5.049   4.722   0.025
12807TIP3    H238363   5.013   4.611  -0.072
12808TIP3   OH238364   1.513   7.584   2.179
12808TIP3    H138365   1.605   7.557   2.189
12808TIP3    H238366   1.492   7.565   2.087
12809TIP3   OH238367   7.965   3.879   3.893
12809TIP3    H138368   8.027   3.841   3.831
12809TIP3    H238369   7.881   3.878   3.848
12810TIP3   OH238370   6.898   3.881   3.200
12810TIP3    H138371   6.838   3.951   3.229
12810TIP3    H238372   6.981   3.926   3.185
12811TIP3   OH238373   0.830   4.013   6.185
12811TIP3    H138374   0.850   3.953   6.113
12811TIP3    H238375   0.882   3.982   6.258
12812TIP3   OH238376   6.084   1.319   3.480
12812TIP3    H138377   6.147   1.330   3.551
12812TIP3    H238378   6.014   1.381   3.500
12813TIP3   OH238379   7.325   6.044   1.676
12813TIP3    H138380   7.312   6.137   1.693
12813TIP3    H238381   7.243   6.016   1.635
12814TIP3   OH238382   3.385   0.658   0.467
12814TIP3    H138383   3.338   0.661   0.550
12814TIP3    H238384   3.318   0.670   0.401
12815TIP3   OH238385   7.369   7.003   3.488
12815TIP3    H138386   7.331   6.946   3.555
12815TIP3    H238387   7.421   7.067   3.537
12816TIP3   OH238388   0.920   1.083   3.115
12816TIP3    H138389   1.006   1.063   3.078
12816TIP3    H238390   0.918   1.034   3.197
12817TIP3   OH238391   4.596   1.654   4.439
12817TIP3    H138392   4.600   1.750   4.434
12817TIP3    H238393   4.503   1.635   4.455
12818TIP3   OH238394   5.670   7.262   1.821
12818TIP3    H138395   5.643   7.170   1.811
12818TIP3    H238396   5.604   7.312   1.773
12819TIP3   OH238397   1.811   4.025   4.488
12819TIP3    H138398   1.878   4.092   4.470
12819TIP3    H238399   1.732   4.059   4.447
12820TIP3   OH238400   5.583   2.881   4.331
12820TIP3    H138401   5.657   2.833   4.368
12820TIP3    H238402   5.623   2.951   4.279
12821TIP3   OH238403   5.678   4.417   3.310
12821TIP3    H138404   5.591   4.436   3.276
12821TIP3    H238405   5.711   4.502   3.340
12822TIP3   OH238406   0.077   4.186   0.121
12822TIP3    H138407   0.170   4.203   0.102
12822TIP3    H238408   0.030   4.237   0.056
12823TIP3   OH238409   0.198   4.449   4.487
12823TIP3    H138410   0.273   4.398   4.515
12823TIP3    H238411   0.199   4.442   4.391
12824TIP3   OH238412   6.342   2.661   5.792
12824TIP3    H138413   6.421   2.673   5.846
12824TIP3    H238414   6.270   2.661   5.855
12825TIP3   OH238415   5.078   5.738   6.436
12825TIP3    H138416   5.027   5.686   6.374
12825TIP3    H238417   5.138   5.789   6.382
12826TIP3   OH238418   4.772   1.354   0.290
12826TIP3    H138419   4.818   1.304   0.357
12826TIP3    H238420   4.726   1.423   0.338
12827TIP3   OH238421   5.949   2.684   5.507
12827TIP3    H138422   5.927   2.657   5.417
12827TIP3    H238423   5.880   2.745   5.531
12828TIP3   OH238424   3.579   4.786   2.356
12828TIP3    H138425   3.612   4.794   2.446
12828TIP3    H238426   3.509   4.722   2.362
12829TIP3   OH238427   5.761   0.102   0.299
12829TIP3    H138428   5.759   0.051   0.218
12829TIP3    H238429   5.748   0.037   0.369
12830TIP3   OH238430   4.741   4.860   1.582
12830TIP3    H138431   4.659   4.882   1.625
12830TIP3    H238432   4.778   4.790   1.637
12831TIP3   OH238433   6.909   2.769   4.071
12831TIP3    H138434   6.993   2.732   4.044
12831TIP3    H238435   6.902   2.747   4.164
12832TIP3   OH238436   5.996   7.072   1.435
12832TIP3    H138437   5.977   7.054   1.343
12832TIP3    H238438   5.910   7.089   1.474
12833TIP3   OH238439   5.129   1.500   1.535
12833TIP3    H138440   5.038   1.493   1.565
12833TIP3    H238441   5.146   1.595   1.533
12834TIP3   OH238442   4.554   0.500   2.541
12834TIP3    H138443   4.554   0.468   2.450
12834TIP3    H238444   4.617   0.444   2.586
12835TIP3   OH238445   0.928   1.949   0.418
12835TIP3    H138446   0.878   2.022   0.453
12835TIP3    H238447   1.013   1.954   0.463
12836TIP3   OH238448   3.533   2.342   6.332
12836TIP3    H138449   3.470   2.386   6.389
12836TIP3    H238450   3.567   2.270   6.385
12837TIP3   OH238451   6.851   3.496   2.685
12837TIP3    H138452   6.804   3.485   2.768
12837TIP3    H238453   6.943   3.503   2.711
12838TIP3   OH238454   5.169   1.509   0.624
12838TIP3    H138455   5.202   1.599   0.631
12838TIP3    H238456   5.114   1.510   0.546
12839TIP3   OH238457   2.096   7.503   6.002
12839TIP3    H138458   2.018   7.558   5.994
12839TIP3    H238459   2.068   7.431   6.059
12840TIP3   OH238460   2.919   2.589   4.953
12840TIP3    H138461   2.912   2.535   4.874
12840TIP3    H238462   2.893   2.677   4.923
12841TIP3   OH238463   0.610   6.576   6.296
12841TIP3    H138464   0.533   6.521   6.285
12841TIP3    H238465   0.683   6.514   6.299
12842TIP3   OH238466   4.779   2.365   6.415
12842TIP3    H138467   4.695   2.324   6.395
12842TIP3    H238468   4.756   2.446   6.460
12843TIP3   OH238469   7.191   4.790   4.866
12843TIP3    H138470   7.203   4.754   4.954
12843TIP3    H238471   7.098   4.812   4.861
12844TIP3   OH238472   7.729   0.307   3.262
12844TIP3    H138473   7.646   0.344   3.292
12844TIP3    H238474   7.753   0.361   3.187
12845TIP3   OH238475   6.323   3.494   6.301
12845TIP3    H138476   6.258   3.430   6.329
12845TIP3    H238477   6.284   3.539   6.227
12846TIP3   OH238478   5.238   4.786   6.882
12846TIP3    H138479   5.155   4.831   6.869
12846TIP3    H238480   5.304   4.853   6.868
12847TIP3   OH238481   2.532   3.742   2.783
12847TIP3    H138482   2.479   3.813   2.819
12847TIP3    H238483   2.512   3.666   2.839
12848TIP3   OH238484   2.321   5.541   6.258
12848TIP3    H138485   2.414   5.537   6.279
12848TIP3    H238486   2.279   5.572   6.338
12849TIP3   OH238487   4.164   5.912   1.500
12849TIP3    H138488   4.193   5.824   1.478
12849TIP3    H238489   4.239   5.968   1.483
12850TIP3   OH238490   7.294   0.007   1.911
12850TIP3    H138491   7.225  -0.043   1.868
12850TIP3    H238492   7.247   0.074   1.961
12851TIP3   OH238493   0.819   4.203   0.246
12851TIP3    H138494   0.911   4.197   0.271
12851TIP3    H238495   0.817   4.270   0.178
12852TIP3   OH238496   1.670   7.403   4.671
12852TIP3    H138497   1.763   7.399   4.647
12852TIP3    H238498   1.640   7.312   4.664
12853TIP3   OH238499   2.679   3.481   6.241
12853TIP3    H138500   2.694   3.389   6.263
12853TIP3    H238501   2.593   3.482   6.198
12854TIP3   OH238502   4.311   6.560   4.041
12854TIP3    H138503   4.373   6.608   4.096
12854TIP3    H238504   4.331   6.468   4.058
12855TIP3   OH238505   6.041   4.248   3.619
12855TIP3    H138506   6.049   4.228   3.712
12855TIP3    H238507   6.118   4.206   3.580
12856TIP3   OH238508   6.182   7.787   2.748
12856TIP3    H138509   6.148   7.783   2.837
12856TIP3    H238510   6.212   7.877   2.738
12857TIP3   OH238511   2.922   2.691   5.993
12857TIP3    H138512   2.933   2.755   6.063
12857TIP3    H238513   3.002   2.698   5.941
12858TIP3   OH238514   2.728   2.855   2.728
12858TIP3    H138515   2.746   2.762   2.745
12858TIP3    H238516   2.725   2.862   2.633
12859TIP3   OH238517   6.216   6.995   4.171
12859TIP3    H138518   6.199   6.989   4.265
12859TIP3    H238519   6.308   6.970   4.162
12860TIP3   OH238520   7.040   5.528   4.169
12860TIP3    H138521   7.023   5.575   4.087
12860TIP3    H238522   7.094   5.587   4.220
12861TIP3   OH238523   3.454   5.893   3.965
12861TIP3    H138524   3.361   5.910   3.955
12861TIP3    H238525   3.476   5.928   4.052
12862TIP3   OH238526   7.160   4.988   6.659
12862TIP3    H138527   7.220   5.011   6.729
12862TIP3    H238528   7.210   4.929   6.602
12863TIP3   OH238529   7.825   6.768   3.662
12863TIP3    H138530   7.780   6.851   3.647
12863TIP3    H238531   7.898   6.769   3.600
12864TIP3   OH238532   8.048   7.270   5.557
12864TIP3    H138533   8.078   7.181   5.542
12864TIP3    H238534   8.063   7.286   5.650
12865TIP3   OH238535   1.261   1.719   3.512
12865TIP3    H138536   1.286   1.757   3.428
12865TIP3    H238537   1.212   1.640   3.490
12866TIP3   OH238538   7.369   0.259   5.816
12866TIP3    H138539   7.328   0.173   5.828
12866TIP3    H238540   7.370   0.297   5.904
12867TIP3   OH238541   2.912   1.612   5.095
12867TIP3    H138542   2.940   1.611   5.186
12867TIP3    H238543   2.826   1.654   5.097
12868TIP3   OH238544   3.187   5.233   2.388
12868TIP3    H138545   3.146   5.243   2.474
12868TIP3    H238546   3.119   5.259   2.326
12869TIP3   OH238547   8.067   2.809   1.820
12869TIP3    H138548   8.139   2.868   1.844
12869TIP3    H238549   8.102   2.755   1.749
12870TIP3   OH238550   6.578   6.533   5.396
12870TIP3    H138551   6.510   6.473   5.426
12870TIP3    H238552   6.550   6.619   5.429
12871TIP3   OH238553   2.929   6.938   3.781
12871TIP3    H138554   2.979   6.989   3.717
12871TIP3    H238555   2.862   6.894   3.729
12872TIP3   OH238556   4.480   0.667   5.694
12872TIP3    H138557   4.535   0.630   5.626
12872TIP3    H238558   4.397   0.688   5.650
12873TIP3   OH238559   8.349   3.735   5.138
12873TIP3    H138560   8.300   3.726   5.220
12873TIP3    H238561   8.365   3.646   5.110
12874TIP3   OH238562   7.101   7.048   1.685
12874TIP3    H138563   7.179   7.002   1.652
12874TIP3    H238564   7.136   7.116   1.743
12875TIP3   OH238565   6.423   0.221   6.774
12875TIP3    H138566   6.457   0.245   6.687
12875TIP3    H238567   6.445   0.296   6.829
12876TIP3   OH238568   3.006   1.562   6.294
12876TIP3    H138569   3.070   1.496   6.266
12876TIP3    H238570   2.955   1.519   6.363
12877TIP3   OH238571   1.065   6.926   4.521
12877TIP3    H138572   1.100   6.882   4.599
12877TIP3    H238573   1.075   6.861   4.452
12878TIP3   OH238574   1.500   5.558   4.024
12878TIP3    H138575   1.470   5.592   4.108
12878TIP3    H238576   1.585   5.518   4.043
12879TIP3   OH238577   4.703   6.032   5.015
12879TIP3    H138578   4.777   6.028   5.076
12879TIP3    H238579   4.728   6.101   4.953
12880TIP3   OH238580   0.343   5.820   2.419
12880TIP3    H138581   0.362   5.744   2.474
12880TIP3    H238582   0.249   5.814   2.402
12881TIP3   OH238583   2.122   7.360   0.679
12881TIP3    H138584   2.028   7.348   0.669
12881TIP3    H238585   2.149   7.406   0.600
12882TIP3   OH238586   5.148   7.562   2.150
12882TIP3    H138587   5.100   7.537   2.071
12882TIP3    H238588   5.208   7.630   2.122
12883TIP3   OH238589   1.391   0.168   4.364
12883TIP3    H138590   1.419   0.207   4.446
12883TIP3    H238591   1.439   0.214   4.296
12884TIP3   OH238592   6.887   2.003   3.045
12884TIP3    H138593   6.878   2.048   2.961
12884TIP3    H238594   6.797   1.989   3.075
12885TIP3   OH238595   7.940   6.809   0.263
12885TIP3    H138596   7.927   6.771   0.351
12885TIP3    H238597   7.927   6.903   0.275
12886TIP3   OH238598   2.508   1.703   2.141
12886TIP3    H138599   2.595   1.744   2.142
12886TIP3    H238600   2.525   1.610   2.135
12887TIP3   OH238601   7.825   6.002   5.571
12887TIP3    H138602   7.747   5.969   5.617
12887TIP3    H238603   7.838   5.941   5.499
12888TIP3   OH238604   5.764   7.666   1.909
12888TIP3    H138605   5.852   7.647   1.876
12888TIP3    H238606   5.722   7.714   1.838
12889TIP3   OH238607   1.564   1.594   2.408
12889TIP3    H138608   1.627   1.631   2.347
12889TIP3    H238609   1.482   1.590   2.358
12890TIP3   OH238610   6.949   2.606   0.691
12890TIP3    H138611   7.040   2.609   0.661
12890TIP3    H238612   6.947   2.533   0.753
12891TIP3   OH238613   5.021   2.966   5.480
12891TIP3    H138614   5.007   3.061   5.482
12891TIP3    H238615   5.116   2.956   5.469
12892TIP3   OH238616   1.205   3.250   6.376
12892TIP3    H138617   1.120   3.213   6.401
12892TIP3    H238618   1.232   3.300   6.452
12893TIP3   OH238619   5.370   0.862   5.250
12893TIP3    H138620   5.380   0.904   5.336
12893TIP3    H238621   5.322   0.926   5.198
12894TIP3   OH238622   4.357   2.582   1.980
12894TIP3    H138623   4.440   2.553   2.018
12894TIP3    H238624   4.290   2.542   2.036
12895TIP3   OH238625   0.615   6.577   3.897
12895TIP3    H138626   0.585   6.520   3.968
12895TIP3    H238627   0.708   6.556   3.889
12896TIP3   OH238628   5.813   5.503   5.054
12896TIP3    H138629   5.722   5.475   5.042
12896TIP3    H238630   5.818   5.527   5.146
12897TIP3   OH238631   4.256   0.702   3.077
12897TIP3    H138632   4.298   0.679   3.160
12897TIP3    H238633   4.169   0.735   3.102
12898TIP3   OH238634   3.822   4.756   1.276
12898TIP3    H138635   3.750   4.809   1.243
12898TIP3    H238636   3.894   4.818   1.289
12899TIP3   OH238637   3.575   2.579   5.445
12899TIP3    H138638   3.632   2.585   5.368
12899TIP3    H238639   3.503   2.640   5.426
12900TIP3   OH238640   3.476   0.471   0.061
12900TIP3    H138641   3.416   0.514   0.122
12900TIP3    H238642   3.555   0.525   0.064
12901TIP3   OH238643   0.563   4.242   3.263
12901TIP3    H138644   0.618   4.315   3.290
12901TIP3    H238645   0.623   4.167   3.261
12902TIP3   OH238646   3.495   4.945   3.016
12902TIP3    H138647   3.440   4.905   3.083
12902TIP3    H238648   3.540   4.870   2.975
12903TIP3   OH238649   5.296   7.692   6.272
12903TIP3    H138650   5.352   7.734   6.337
12903TIP3    H238651   5.220   7.662   6.323
12904TIP3   OH238652   2.701   6.518   5.402
12904TIP3    H138653   2.796   6.510   5.396
12904TIP3    H238654   2.669   6.429   5.389
12905TIP3   OH238655   6.657   3.327   0.987
12905TIP3    H138656   6.666   3.415   0.949
12905TIP3    H238657   6.564   3.306   0.977
12906TIP3   OH238658   6.713   6.713   4.537
12906TIP3    H138659   6.654   6.666   4.595
12906TIP3    H238660   6.744   6.788   4.588
12907TIP3   OH238661   1.414   2.788   3.082
12907TIP3    H138662   1.374   2.756   3.001
12907TIP3    H238663   1.426   2.882   3.066
12908TIP3   OH238664   2.071   3.608   4.751
12908TIP3    H138665   2.145   3.553   4.775
12908TIP3    H238666   2.069   3.676   4.819
12909TIP3   OH238667   4.678   4.439   4.837
12909TIP3    H138668   4.592   4.474   4.861
12909TIP3    H238669   4.660   4.379   4.765
12910TIP3   OH238670   2.838   7.476   3.759
12910TIP3    H138671   2.907   7.441   3.814
12910TIP3    H238672   2.884   7.515   3.684
12911TIP3   OH238673   4.182   6.825   1.310
12911TIP3    H138674   4.142   6.798   1.228
12911TIP3    H238675   4.262   6.871   1.284
12912TIP3   OH238676   0.813   0.837   4.274
12912TIP3    H138677   0.899   0.871   4.296
12912TIP3    H238678   0.830   0.749   4.239
12913TIP3   OH238679   7.010   4.076   5.659
12913TIP3    H138680   7.037   4.131   5.585
12913TIP3    H238681   7.090   4.033   5.688
12914TIP3   OH238682   2.591   1.699   0.459
12914TIP3    H138683   2.661   1.634   0.460
12914TIP3    H238684   2.634   1.781   0.484
12915TIP3   OH238685   7.895   1.884   1.206
12915TIP3    H138686   7.832   1.893   1.135
12915TIP3    H238687   7.935   1.971   1.213
12916TIP3   OH238688   5.578   3.703   0.228
12916TIP3    H138689   5.652   3.756   0.197
12916TIP3    H238690   5.500   3.747   0.192
12917TIP3   OH238691   5.662   1.100   5.226
12917TIP3    H138692   5.710   1.029   5.185
12917TIP3    H238693   5.608   1.138   5.156
12918TIP3   OH238694   5.969   7.521   0.483
12918TIP3    H138695   6.019   7.563   0.553
12918TIP3    H238696   5.987   7.428   0.493
12919TIP3   OH238697   3.222   0.847   2.638
12919TIP3    H138698   3.314   0.873   2.632
12919TIP3    H238699   3.184   0.907   2.701
12920TIP3   OH238700   8.235   5.171   3.437
12920TIP3    H138701   8.279   5.179   3.521
12920TIP3    H238702   8.164   5.109   3.453
12921TIP3   OH238703   3.365   0.203   1.313
12921TIP3    H138704   3.451   0.234   1.343
12921TIP3    H238705   3.345   0.259   1.238
12922TIP3   OH238706   8.058   1.320   4.595
12922TIP3    H138707   8.125   1.271   4.547
12922TIP3    H238708   8.105   1.396   4.631
12923TIP3   OH238709   2.222   3.851   4.335
12923TIP3    H138710   2.227   3.758   4.316
12923TIP3    H238711   2.301   3.888   4.297
12924TIP3   OH238712   3.634   3.888   2.513
12924TIP3    H138713   3.662   3.969   2.554
12924TIP3    H238714   3.664   3.819   2.572
12925TIP3   OH238715   3.452   1.061   3.480
12925TIP3    H138716   3.392   1.108   3.538
12925TIP3    H238717   3.435   1.097   3.393
12926TIP3   OH238718   1.881   4.056   3.781
12926TIP3    H138719   1.834   3.982   3.742
12926TIP3    H238720   1.948   4.080   3.716
12927TIP3   OH238721   4.132   7.525   6.346
12927TIP3    H138722   4.180   7.498   6.424
12927TIP3    H238723   4.069   7.590   6.378
12928TIP3   OH238724   4.930   5.546   4.054
12928TIP3    H138725   4.910   5.514   3.966
12928TIP3    H238726   4.896   5.636   4.055
12929TIP3   OH238727   2.764   4.834   4.298
12929TIP3    H138728   2.793   4.840   4.390
12929TIP3    H238729   2.831   4.780   4.256
12930TIP3   OH238730   4.817   6.819   5.889
12930TIP3    H138731   4.789   6.860   5.971
12930TIP3    H238732   4.749   6.755   5.869
12931TIP3   OH238733   1.807   7.820   6.793
12931TIP3    H138734   1.828   7.910   6.766
12931TIP3    H238735   1.891   7.784   6.822
12932TIP3   OH238736   6.677   4.847   0.738
12932TIP3    H138737   6.594   4.801   0.744
12932TIP3    H238738   6.677   4.885   0.650
12933TIP3   OH238739   2.139   5.172   1.011
12933TIP3    H138740   2.092   5.104   0.963
12933TIP3    H238741   2.231   5.159   0.989
12934TIP3   OH238742   2.923   3.386   4.831
12934TIP3    H138743   3.014   3.369   4.804
12934TIP3    H238744   2.924   3.476   4.864
12935TIP3   OH238745   1.875   5.341   2.798
12935TIP3    H138746   1.780   5.340   2.807
12935TIP3    H238747   1.898   5.434   2.806
12936TIP3   OH238748   1.743   4.178   5.881
12936TIP3    H138749   1.775   4.100   5.836
12936TIP3    H238750   1.800   4.187   5.958
12937TIP3   OH238751   6.793   6.750   2.630
12937TIP3    H138752   6.714   6.696   2.643
12937TIP3    H238753   6.860   6.687   2.602
12938TIP3   OH238754   7.995   6.959   6.405
12938TIP3    H138755   7.931   7.022   6.439
12938TIP3    H238756   8.076   7.009   6.397
12939TIP3   OH238757   7.942   0.843   4.565
12939TIP3    H138758   7.933   0.934   4.594
12939TIP3    H238759   7.904   0.792   4.637
12940TIP3   OH238760   3.599   5.731   2.526
12940TIP3    H138761   3.599   5.827   2.518
12940TIP3    H238762   3.553   5.714   2.608
12941TIP3   OH238763   7.153   6.940   5.208
12941TIP3    H138764   7.141   6.863   5.265
12941TIP3    H238765   7.094   7.006   5.246
12942TIP3   OH238766   0.767   3.380   5.168
12942TIP3    H138767   0.736   3.291   5.185
12942TIP3    H238768   0.720   3.434   5.232
12943TIP3   OH238769   2.595   5.857  -0.027
12943TIP3    H138770   2.576   5.768   0.003
12943TIP3    H238771   2.537   5.912   0.025
12944TIP3   OH238772   2.808   7.820   2.331
12944TIP3    H138773   2.786   7.815   2.238
12944TIP3    H238774   2.904   7.819   2.333
12945TIP3   OH238775   4.773   5.086   5.249
12945TIP3    H138776   4.755   5.080   5.343
12945TIP3    H238777   4.756   5.177   5.226
12946TIP3   OH238778   3.761   6.130   1.997
12946TIP3    H138779   3.674   6.152   2.029
12946TIP3    H238780   3.754   6.136   1.901
12947TIP3   OH238781   0.917   0.156   3.009
12947TIP3    H138782   0.909   0.061   3.006
12947TIP3    H238783   0.836   0.188   2.970
12948TIP3   OH238784   6.206   6.204   6.431
12948TIP3    H138785   6.206   6.180   6.338
12948TIP3    H238786   6.299   6.210   6.453
12949TIP3   OH238787   0.968   2.563   3.353
12949TIP3    H138788   0.886   2.612   3.351
12949TIP3    H238789   1.036   2.630   3.357
12950TIP3   OH238790   1.585   3.817   3.276
12950TIP3    H138791   1.525   3.811   3.202
12950TIP3    H238792   1.595   3.911   3.291
12951TIP3   OH238793   5.570   3.813   5.999
12951TIP3    H138794   5.577   3.899   5.959
12951TIP3    H238795   5.527   3.828   6.083
12952TIP3   OH238796   7.469   6.370   1.711
12952TIP3    H138797   7.512   6.363   1.626
12952TIP3    H238798   7.511   6.303   1.765
12953TIP3   OH238799   4.856   2.530   6.093
12953TIP3    H138800   4.879   2.609   6.044
12953TIP3    H238801   4.762   2.537   6.109
12954TIP3   OH238802   8.279   7.547   0.755
12954TIP3    H138803   8.252   7.551   0.663
12954TIP3    H238804   8.238   7.624   0.795
12955TIP3   OH238805   6.142   6.823   2.094
12955TIP3    H138806   6.147   6.757   2.025
12955TIP3    H238807   6.075   6.885   2.065
12956TIP3   OH238808   7.762   6.956   3.316
12956TIP3    H138809   7.686   6.994   3.271
12956TIP3    H238810   7.757   6.990   3.405
12957TIP3   OH238811   7.083   5.211   4.958
12957TIP3    H138812   6.999   5.191   4.917
12957TIP3    H238813   7.148   5.180   4.895
12958TIP3   OH238814   5.918   2.186   3.170
12958TIP3    H138815   5.936   2.092   3.165
12958TIP3    H238816   5.834   2.196   3.125
12959TIP3   OH238817   3.471   7.108   5.528
12959TIP3    H138818   3.402   7.077   5.469
12959TIP3    H238819   3.500   7.030   5.574
12960TIP3   OH238820   4.439   1.986   1.398
12960TIP3    H138821   4.423   2.062   1.455
12960TIP3    H238822   4.353   1.945   1.388
12961TIP3   OH238823   5.299   3.340   4.814
12961TIP3    H138824   5.254   3.306   4.891
12961TIP3    H238825   5.301   3.266   4.753
12962TIP3   OH238826   7.276   3.906   2.929
12962TIP3    H138827   7.325   3.916   2.848
12962TIP3    H238828   7.290   3.815   2.955
12963TIP3   OH238829   8.218   3.478   5.881
12963TIP3    H138830   8.159   3.501   5.809
12963TIP3    H238831   8.162   3.431   5.943
12964TIP3   OH238832   5.437   2.850   2.225
12964TIP3    H138833   5.496   2.925   2.216
12964TIP3    H238834   5.414   2.827   2.135
12965TIP3   OH238835   8.016   0.255   0.748
12965TIP3    H138836   7.963   0.275   0.670
12965TIP3    H238837   8.057   0.339   0.771
12966TIP3   OH238838   6.912   3.913   2.432
12966TIP3    H138839   6.858   3.991   2.429
12966TIP3    H238840   6.851   3.840   2.422
12967TIP3   OH238841   6.971   0.125   5.424
12967TIP3    H138842   6.949   0.033   5.434
12967TIP3    H238843   7.039   0.141   5.490
12968TIP3   OH238844   3.037   7.482   5.309
12968TIP3    H138845   2.984   7.423   5.254
12968TIP3    H238846   3.126   7.469   5.279
12969TIP3   OH238847   1.168   1.934   5.642
12969TIP3    H138848   1.140   1.862   5.585
12969TIP3    H238849   1.089   1.959   5.690
12970TIP3   OH238850   2.508   0.307   4.101
12970TIP3    H138851   2.425   0.259   4.103
12970TIP3    H238852   2.572   0.243   4.073
12971TIP3   OH238853   1.533   3.290   2.021
12971TIP3    H138854   1.594   3.302   2.094
12971TIP3    H238855   1.493   3.376   2.008
12972TIP3   OH238856   3.160   5.288   1.066
12972TIP3    H138857   3.154   5.320   1.156
12972TIP3    H238858   3.246   5.246   1.062
12973TIP3   OH238859   4.895   6.152   4.480
12973TIP3    H138860   4.815   6.202   4.498
12973TIP3    H238861   4.949   6.164   4.559
12974TIP3   OH238862   6.412   6.989   3.135
12974TIP3    H138863   6.424   7.082   3.116
12974TIP3    H238864   6.457   6.975   3.218
12975TIP3   OH238865   2.957   6.715   6.745
12975TIP3    H138866   2.886   6.773   6.772
12975TIP3    H238867   2.918   6.629   6.739
12976TIP3   OH238868   1.616   3.906   6.056
12976TIP3    H138869   1.527   3.884   6.027
12976TIP3    H238870   1.663   3.924   5.975
12977TIP3   OH238871   2.620   6.377   4.172
12977TIP3    H138872   2.674   6.450   4.204
12977TIP3    H238873   2.619   6.314   4.244
12978TIP3   OH238874   6.297   5.431   0.998
12978TIP3    H138875   6.295   5.436   0.903
12978TIP3    H238876   6.249   5.350   1.019
12979TIP3   OH238877   5.078   3.833   0.644
12979TIP3    H138878   5.054   3.903   0.583
12979TIP3    H238879   5.148   3.785   0.599
12980TIP3   OH238880   7.041   4.214   1.053
12980TIP3    H138881   7.115   4.172   1.097
12980TIP3    H238882   7.009   4.278   1.116
12981TIP3   OH238883   0.092   6.890   5.752
12981TIP3    H138884   0.116   6.824   5.817
12981TIP3    H238885   0.049   6.840   5.683
12982TIP3   OH238886   4.217   6.986   5.238
12982TIP3    H138887   4.193   7.067   5.283
12982TIP3    H238888   4.139   6.931   5.242
12983TIP3   OH238889   6.046   0.965   3.805
12983TIP3    H138890   6.082   1.038   3.854
12983TIP3    H238891   5.951   0.977   3.811
12984TIP3   OH238892   7.638   5.894   3.194
12984TIP3    H138893   7.570   5.958   3.217
12984TIP3    H238894   7.720   5.942   3.206
12985TIP3   OH238895   1.204   4.664   2.814
12985TIP3    H138896   1.122   4.615   2.821
12985TIP3    H238897   1.256   4.633   2.887
12986TIP3   OH238898   7.423   1.496   4.222
12986TIP3    H138899   7.444   1.553   4.148
12986TIP3    H238900   7.506   1.487   4.269
12987TIP3   OH238901   6.260   6.602   2.353
12987TIP3    H138902   6.179   6.636   2.315
12987TIP3    H238903   6.237   6.516   2.386
12988TIP3   OH238904   4.879   0.923   1.501
12988TIP3    H138905   4.815   0.980   1.458
12988TIP3    H238906   4.959   0.935   1.450
12989TIP3   OH238907   6.828   0.778   6.125
12989TIP3    H138908   6.806   0.730   6.045
12989TIP3    H238909   6.750   0.831   6.144
12990TIP3   OH238910   5.379   7.410   6.469
12990TIP3    H138911   5.380   7.443   6.559
12990TIP3    H238912   5.286   7.400   6.447
12991TIP3   OH238913   3.117   7.862   6.527
12991TIP3    H138914   3.122   7.796   6.597
12991TIP3    H238915   3.075   7.937   6.569
12992TIP3   OH238916   8.326   1.949   4.276
12992TIP3    H138917   8.241   1.962   4.317
12992TIP3    H238918   8.387   1.998   4.332
12993TIP3   OH238919   1.211   3.859   0.892
12993TIP3    H138920   1.206   3.812   0.809
12993TIP3    H238921   1.122   3.859   0.926
12994TIP3   OH238922   3.946   4.576   3.178
12994TIP3    H138923   3.934   4.603   3.087
12994TIP3    H238924   3.862   4.596   3.220
12995TIP3   OH238925   5.411   4.577   2.569
12995TIP3    H138926   5.433   4.487   2.593
12995TIP3    H238927   5.495   4.619   2.552
12996TIP3   OH238928   0.182   5.699   4.083
12996TIP3    H138929   0.121   5.626   4.081
12996TIP3    H238930   0.266   5.660   4.109
12997TIP3   OH238931   5.742   0.266   3.175
12997TIP3    H138932   5.758   0.357   3.200
12997TIP3    H238933   5.658   0.269   3.128
12998TIP3   OH238934   7.864   3.389   1.694
12998TIP3    H138935   7.829   3.459   1.639
12998TIP3    H238936   7.815   3.395   1.776
12999TIP3   OH238937   8.397   1.313   5.574
12999TIP3    H138938   8.314   1.326   5.529
12999TIP3    H238939   8.443   1.247   5.522
13000TIP3   OH238940   5.736   4.226   4.277
13000TIP3    H138941   5.738   4.192   4.188
13000TIP3    H238942   5.788   4.307   4.273
13001TIP3   OH238943   2.836   1.031   5.733
13001TIP3    H138944   2.760   1.076   5.696
13001TIP3    H238945   2.911   1.080   5.701
13002TIP3   OH238946   2.306   3.345   1.005
13002TIP3    H138947   2.245   3.311   0.941
13002TIP3    H238948   2.266   3.326   1.090
13003TIP3   OH238949   3.298   3.539   5.889
13003TIP3    H138950   3.294   3.548   5.794
13003TIP3    H238951   3.272   3.448   5.906
13004TIP3   OH238952   7.780   1.233   5.107
13004TIP3    H138953   7.690   1.254   5.082
13004TIP3    H238954   7.799   1.293   5.179
13005TIP3   OH238955   6.936   4.026   4.685
13005TIP3    H138956   6.909   4.089   4.752
13005TIP3    H238957   6.859   3.971   4.671
13006TIP3   OH238958   5.946   0.161   1.594
13006TIP3    H138959   5.864   0.140   1.548
13006TIP3    H238960   6.015   0.130   1.535
13007TIP3   OH238961   6.502   3.100   1.148
13007TIP3    H138962   6.478   3.156   1.075
13007TIP3    H238963   6.472   3.013   1.123
13008TIP3   OH238964   4.535   7.164   1.513
13008TIP3    H138965   4.485   7.094   1.555
13008TIP3    H238966   4.624   7.154   1.547
13009TIP3   OH238967   0.399   5.771   6.026
13009TIP3    H138968   0.334   5.723   6.077
13009TIP3    H238969   0.463   5.705   6.000
13010TIP3   OH238970   6.626   6.590   6.243
13010TIP3    H138971   6.561   6.603   6.312
13010TIP3    H238972   6.611   6.501   6.212
13011TIP3   OH238973   1.906   6.991   3.768
13011TIP3    H138974   1.955   6.958   3.693
13011TIP3    H238975   1.972   7.037   3.821
13012TIP3   OH238976   3.093   0.999   1.560
13012TIP3    H138977   3.113   0.906   1.551
13012TIP3    H238978   2.999   1.002   1.576
13013TIP3   OH238979   6.146   6.984   4.437
13013TIP3    H138980   6.194   7.008   4.516
13013TIP3    H238981   6.066   6.943   4.469
13014TIP3   OH238982   6.964   2.845   6.002
13014TIP3    H138983   6.892   2.789   6.033
13014TIP3    H238984   6.962   2.836   5.907
13015TIP3   OH238985   2.242   4.242   2.503
13015TIP3    H138986   2.195   4.224   2.421
13015TIP3    H238987   2.263   4.156   2.538
13016TIP3   OH238988   1.302   3.833   0.294
13016TIP3    H138989   1.297   3.882   0.375
13016TIP3    H238990   1.253   3.752   0.311
13017TIP3   OH238991   3.718   2.540   6.257
13017TIP3    H138992   3.732   2.569   6.347
13017TIP3    H238993   3.647   2.477   6.262
13018TIP3   OH238994   1.028   1.223   0.864
13018TIP3    H138995   1.073   1.299   0.826
13018TIP3    H238996   0.954   1.208   0.806
13019TIP3   OH238997   4.615   2.704   4.606
13019TIP3    H138998   4.640   2.618   4.572
13019TIP3    H238999   4.688   2.761   4.581
13020TIP3   OH239000   6.567   4.966   2.745
13020TIP3    H139001   6.580   4.967   2.840
13020TIP3    H239002   6.573   5.058   2.719
13021TIP3   OH239003   0.013   3.025   3.145
13021TIP3    H139004   0.103   2.991   3.141
13021TIP3    H239005  -0.039   2.951   3.175
13022TIP3   OH239006   1.975   0.853   3.607
13022TIP3    H139007   1.986   0.824   3.516
13022TIP3    H239008   2.029   0.932   3.614
13023TIP3   OH239009   4.874   4.309   1.359
13023TIP3    H139010   4.965   4.310   1.327
13023TIP3    H239011   4.845   4.220   1.344
13024TIP3   OH239012   6.312   1.180   5.555
13024TIP3    H139013   6.337   1.100   5.508
13024TIP3    H239014   6.262   1.149   5.631
13025TIP3   OH239015   7.263   3.087   6.077
13025TIP3    H139016   7.264   2.995   6.106
13025TIP3    H239017   7.333   3.129   6.126
13026TIP3   OH239018   2.827   3.490   5.411
13026TIP3    H139019   2.833   3.419   5.347
13026TIP3    H239020   2.779   3.559   5.366
13027TIP3   OH239021   2.289   6.985   3.276
13027TIP3    H139022   2.243   6.915   3.229
13027TIP3    H239023   2.231   7.061   3.269
13028TIP3   OH239024   6.125   7.184   4.932
13028TIP3    H139025   6.115   7.108   4.874
13028TIP3    H239026   6.036   7.203   4.961
13029TIP3   OH239027   3.781   2.802   4.079
13029TIP3    H139028   3.868   2.770   4.053
13029TIP3    H239029   3.788   2.817   4.173
13030TIP3   OH239030   0.104   6.766   3.114
13030TIP3    H139031   0.050   6.807   3.046
13030TIP3    H239032   0.067   6.679   3.125
13031TIP3   OH239033   6.805   2.684   6.141
13031TIP3    H139034   6.712   2.659   6.137
13031TIP3    H239035   6.812   2.737   6.221
13032TIP3   OH239036   7.700   1.374   2.992
13032TIP3    H139037   7.610   1.403   2.978
13032TIP3    H239038   7.692   1.283   3.021
13033TIP3   OH239039   3.315   1.707   5.997
13033TIP3    H139040   3.325   1.786   5.944
13033TIP3    H239041   3.303   1.740   6.086
13034TIP3   OH239042   5.808   7.903   0.968
13034TIP3    H139043   5.875   7.881   0.904
13034TIP3    H239044   5.733   7.849   0.943
13035TIP3   OH239045   5.589   4.538   4.722
13035TIP3    H139046   5.624   4.524   4.810
13035TIP3    H239047   5.515   4.597   4.735
13036TIP3   OH239048   3.266   5.085   0.250
13036TIP3    H139049   3.284   5.109   0.160
13036TIP3    H239050   3.191   5.139   0.275
13037TIP3   OH239051   2.964   6.964   1.795
13037TIP3    H139052   2.945   7.035   1.734
13037TIP3    H239053   2.924   6.992   1.878
13038TIP3   OH239054   4.671   7.113   2.908
13038TIP3    H139055   4.699   7.110   2.817
13038TIP3    H239056   4.588   7.065   2.909
13039TIP3   OH239057   6.970   3.766   0.681
13039TIP3    H139058   6.877   3.783   0.668
13039TIP3    H239059   7.014   3.822   0.617
13040TIP3   OH239060   2.766   0.959   2.249
13040TIP3    H139061   2.826   0.995   2.184
13040TIP3    H239062   2.708   0.901   2.199
13041TIP3   OH239063   5.596   4.722   4.410
13041TIP3    H139064   5.539   4.681   4.475
13041TIP3    H239065   5.665   4.762   4.462
13042TIP3   OH239066   7.817   6.290   5.689
13042TIP3    H139067   7.794   6.331   5.605
13042TIP3    H239068   7.814   6.196   5.671
13043TIP3   OH239069   2.681   6.640   4.779
13043TIP3    H139070   2.729   6.641   4.696
13043TIP3    H239071   2.660   6.548   4.794
13044TIP3   OH239072   1.234   2.712   3.622
13044TIP3    H139073   1.281   2.756   3.693
13044TIP3    H239074   1.287   2.727   3.544
13045TIP3   OH239075   4.284   3.880   3.327
13045TIP3    H139076   4.285   3.969   3.291
13045TIP3    H239077   4.295   3.892   3.421
13046TIP3   OH239078   1.339   1.788   1.973
13046TIP3    H139079   1.390   1.836   1.908
13046TIP3    H239080   1.252   1.779   1.934
13047TIP3   OH239081   6.525   4.051   6.283
13047TIP3    H139082   6.600   4.034   6.341
13047TIP3    H239083   6.565   4.082   6.201
13048TIP3   OH239084   5.391   0.574   4.891
13048TIP3    H139085   5.478   0.538   4.873
13048TIP3    H239086   5.397   0.666   4.866
13049TIP3   OH239087   5.174   3.592   5.321
13049TIP3    H139088   5.122   3.616   5.244
13049TIP3    H239089   5.265   3.600   5.292
13050TIP3   OH239090   7.704   2.047   3.738
13050TIP3    H139091   7.701   1.951   3.745
13050TIP3    H239092   7.618   2.071   3.704
13051TIP3   OH239093   7.766   4.223   2.047
13051TIP3    H139094   7.687   4.277   2.052
13051TIP3    H239095   7.761   4.183   1.960
13052TIP3   OH239096   5.610   3.423   5.457
13052TIP3    H139097   5.694   3.389   5.425
13052TIP3    H239098   5.616   3.517   5.445
13053TIP3   OH239099   4.211   0.726   5.115
13053TIP3    H139100   4.174   0.810   5.141
13053TIP3    H239101   4.153   0.661   5.155
13054TIP3   OH239102   0.146   1.268   4.890
13054TIP3    H139103   0.062   1.230   4.864
13054TIP3    H239104   0.122   1.340   4.949
13055TIP3   OH239105   3.844   3.972   5.616
13055TIP3    H139106   3.773   3.968   5.679
13055TIP3    H239107   3.812   4.029   5.546
13056TIP3   OH239108   6.413   4.302   1.790
13056TIP3    H139109   6.475   4.290   1.718
13056TIP3    H239110   6.375   4.215   1.803
13057TIP3   OH239111   2.241   1.699   2.960
13057TIP3    H139112   2.168   1.739   2.912
13057TIP3    H239113   2.264   1.622   2.909
13058TIP3   OH239114   4.059   4.429   4.789
13058TIP3    H139115   4.045   4.436   4.695
13058TIP3    H239116   4.037   4.338   4.809
13059TIP3   OH239117   2.907   5.485   1.233
13059TIP3    H139118   2.949   5.434   1.302
13059TIP3    H239119   2.917   5.576   1.262
13060TIP3   OH239120   1.753   2.290   0.535
13060TIP3    H139121   1.706   2.297   0.453
13060TIP3    H239122   1.838   2.330   0.518
13061TIP3   OH239123   1.618   0.694   6.336
13061TIP3    H139124   1.564   0.765   6.371
13061TIP3    H239125   1.564   0.615   6.349
13062TIP3   OH239126   0.338   5.172   1.922
13062TIP3    H139127   0.380   5.088   1.906
13062TIP3    H239128   0.372   5.201   2.007
13063TIP3   OH239129   2.639   4.907   1.851
13063TIP3    H139130   2.603   4.833   1.802
13063TIP3    H239131   2.564   4.965   1.865
13064TIP3   OH239132   6.617   3.382   4.815
13064TIP3    H139133   6.556   3.450   4.844
13064TIP3    H239134   6.701   3.427   4.808
13065TIP3   OH239135   4.245   6.445   3.624
13065TIP3    H139136   4.316   6.386   3.598
13065TIP3    H239137   4.287   6.509   3.681
13066TIP3   OH239138   0.800   6.747   6.772
13066TIP3    H139139   0.862   6.796   6.826
13066TIP3    H239140   0.822   6.655   6.788
13067TIP3   OH239141   4.547   1.973   5.447
13067TIP3    H139142   4.559   1.895   5.502
13067TIP3    H239143   4.620   2.030   5.471
13068TIP3   OH239144   5.886   7.005   3.576
13068TIP3    H139145   5.854   6.917   3.598
13068TIP3    H239146   5.890   7.006   3.480
13069TIP3   OH239147   5.457   6.259   2.894
13069TIP3    H139148   5.407   6.251   2.976
13069TIP3    H239149   5.530   6.199   2.905
13070TIP3   OH239150   4.184   3.028   5.176
13070TIP3    H139151   4.188   3.112   5.223
13070TIP3    H239152   4.090   3.011   5.167
13071TIP3   OH239153   5.780   3.530   0.630
13071TIP3    H139154   5.696   3.556   0.594
13071TIP3    H239155   5.787   3.579   0.712
13072TIP3   OH239156   1.785   4.353   3.282
13072TIP3    H139157   1.809   4.445   3.279
13072TIP3    H239158   1.854   4.311   3.333
13073TIP3   OH239159   1.817   6.332   3.226
13073TIP3    H139160   1.874   6.298   3.157
13073TIP3    H239161   1.783   6.253   3.268
13074TIP3   OH239162   5.678   5.694   4.403
13074TIP3    H139163   5.660   5.610   4.445
13074TIP3    H239164   5.636   5.687   4.317
13075TIP3   OH239165   4.270   6.837   4.957
13075TIP3    H139166   4.201   6.838   4.891
13075TIP3    H239167   4.226   6.864   5.037
13076TIP3   OH239168   0.469   6.227   5.185
13076TIP3    H139169   0.482   6.279   5.264
13076TIP3    H239170   0.409   6.158   5.211
13077TIP3   OH239171   5.001   1.027   1.131
13077TIP3    H139172   5.082   0.998   1.172
13077TIP3    H239173   4.970   0.950   1.082
13078TIP3   OH239174   2.642   4.853   5.525
13078TIP3    H139175   2.619   4.853   5.618
13078TIP3    H239176   2.711   4.787   5.518
13079TIP3   OH239177   5.544   7.197   4.915
13079TIP3    H139178   5.462   7.202   4.864
13079TIP3    H239179   5.578   7.109   4.897
13080TIP3   OH239180   2.840   3.200   6.363
13080TIP3    H139181   2.853   3.131   6.428
13080TIP3    H239182   2.922   3.203   6.314
13081TIP3   OH239183   6.813   1.263   6.526
13081TIP3    H139184   6.800   1.357   6.542
13081TIP3    H239185   6.753   1.220   6.587
13082TIP3   OH239186   1.134   3.920   4.078
13082TIP3    H139187   1.094   3.986   4.022
13082TIP3    H239188   1.200   3.968   4.128
13083TIP3   OH239189   1.000   4.918   4.934
13083TIP3    H139190   1.019   4.957   4.849
13083TIP3    H239191   1.081   4.872   4.958
13084TIP3   OH239192   1.455   5.922   3.922
13084TIP3    H139193   1.503   5.984   3.977
13084TIP3    H239194   1.366   5.957   3.919
13085TIP3   OH239195   0.768   0.077   1.529
13085TIP3    H139196   0.754   0.049   1.438
13085TIP3    H239197   0.788   0.170   1.522
13086TIP3   OH239198   0.383   4.545   4.072
13086TIP3    H139199   0.355   4.468   4.122
13086TIP3    H239200   0.446   4.590   4.129
13087TIP3   OH239201   2.378   4.163   0.637
13087TIP3    H139202   2.455   4.109   0.653
13087TIP3    H239203   2.342   4.181   0.724
13088TIP3   OH239204   0.035   6.780   6.800
13088TIP3    H139205   0.088   6.860   6.801
13088TIP3    H239206  -0.021   6.788   6.877
13089TIP3   OH239207   7.734   1.486   0.199
13089TIP3    H139208   7.659   1.433   0.226
13089TIP3    H239209   7.736   1.477   0.103
13090TIP3   OH239210   4.459   0.695   0.654
13090TIP3    H139211   4.460   0.682   0.748
13090TIP3    H239212   4.546   0.731   0.634
13091TIP3   OH239213   5.313   5.993   3.184
13091TIP3    H139214   5.258   5.937   3.129
13091TIP3    H239215   5.261   6.072   3.198
13092TIP3   OH239216   1.677   7.641   0.603
13092TIP3    H139217   1.721   7.723   0.625
13092TIP3    H239218   1.746   7.586   0.566
13093TIP3   OH239219   3.017   1.449   1.223
13093TIP3    H139220   3.075   1.489   1.158
13093TIP3    H239221   3.054   1.363   1.239
13094TIP3   OH239222   4.848   1.512   2.659
13094TIP3    H139223   4.895   1.440   2.617
13094TIP3    H239224   4.901   1.534   2.735
13095TIP3   OH239225   5.720   0.769   4.902
13095TIP3    H139226   5.789   0.766   4.835
13095TIP3    H239227   5.756   0.825   4.971
13096TIP3   OH239228   6.511   0.395   3.437
13096TIP3    H139229   6.515   0.438   3.523
13096TIP3    H239230   6.474   0.461   3.379
13097TIP3   OH239231   5.445   5.616   5.952
13097TIP3    H139232   5.415   5.593   6.040
13097TIP3    H239233   5.372   5.592   5.895
13098TIP3   OH239234   1.109   3.499   4.839
13098TIP3    H139235   1.124   3.410   4.870
13098TIP3    H239236   1.045   3.489   4.768
13099TIP3   OH239237   5.706   6.436   3.812
13099TIP3    H139238   5.674   6.474   3.893
13099TIP3    H239239   5.723   6.344   3.833
13100TIP3   OH239240   5.646   3.909   4.585
13100TIP3    H139241   5.682   3.930   4.499
13100TIP3    H239242   5.560   3.871   4.566
13101TIP3   OH239243   3.826   5.951   6.343
13101TIP3    H139244   3.759   5.924   6.406
13101TIP3    H239245   3.877   5.871   6.328
13102TIP3   OH239246   4.599   5.677   6.052
13102TIP3    H139247   4.686   5.692   6.089
13102TIP3    H239248   4.609   5.596   6.001
13103TIP3   OH239249   6.184   0.675   2.881
13103TIP3    H139250   6.145   0.705   2.799
13103TIP3    H239251   6.226   0.592   2.859
13104TIP3   OH239252   2.188   5.082   5.289
13104TIP3    H139253   2.169   5.114   5.201
13104TIP3    H239254   2.166   4.988   5.285
13105TIP3   OH239255   1.535   3.947   4.357
13105TIP3    H139256   1.525   3.876   4.421
13105TIP3    H239257   1.550   3.902   4.274
13106TIP3   OH239258   7.561   6.367   5.132
13106TIP3    H139259   7.584   6.291   5.185
13106TIP3    H239260   7.466   6.363   5.122
13107TIP3   OH239261   7.148   6.833   2.509
13107TIP3    H139262   7.152   6.758   2.568
13107TIP3    H239263   7.070   6.818   2.455
13108TIP3   OH239264   1.483   7.862   2.211
13108TIP3    H139265   1.524   7.906   2.286
13108TIP3    H239266   1.484   7.769   2.234
13109TIP3   OH239267   1.762   7.944   4.659
13109TIP3    H139268   1.802   7.897   4.585
13109TIP3    H239269   1.693   7.886   4.690
13110TIP3   OH239270   4.309   0.695   6.026
13110TIP3    H139271   4.293   0.601   6.019
13110TIP3    H239272   4.400   0.706   6.001
13111TIP3   OH239273   7.589   0.057   2.684
13111TIP3    H139274   7.576   0.133   2.628
13111TIP3    H239275   7.629   0.093   2.764
13112TIP3   OH239276   4.798   3.910   0.829
13112TIP3    H139277   4.732   3.874   0.770
13112TIP3    H239278   4.868   3.941   0.772
13113TIP3   OH239279   0.655   1.114   2.350
13113TIP3    H139280   0.650   1.202   2.387
13113TIP3    H239281   0.749   1.096   2.344
13114TIP3   OH239282   6.000   5.875   5.603
13114TIP3    H139283   5.983   5.790   5.645
13114TIP3    H239284   5.986   5.858   5.509
13115TIP3   OH239285   1.640   3.096   4.854
13115TIP3    H139286   1.730   3.064   4.843
13115TIP3    H239287   1.594   3.062   4.777
13116TIP3   OH239288   7.984   0.466   1.209
13116TIP3    H139289   8.078   0.445   1.207
13116TIP3    H239290   7.960   0.462   1.302
13117TIP3   OH239291   3.455   6.303   0.197
13117TIP3    H139292   3.408   6.384   0.176
13117TIP3    H239293   3.469   6.308   0.292
13118TIP3   OH239294   1.242   3.568   5.940
13118TIP3    H139295   1.291   3.512   5.880
13118TIP3    H239296   1.230   3.513   6.018
13119TIP3   OH239297   7.432   0.887   2.573
13119TIP3    H139298   7.373   0.920   2.505
13119TIP3    H239299   7.436   0.958   2.637
13120TIP3   OH239300   4.095   1.060   2.182
13120TIP3    H139301   4.022   1.119   2.202
13120TIP3    H239302   4.123   1.086   2.094
13121TIP3   OH239303   2.143   4.831   1.120
13121TIP3    H139304   2.097   4.748   1.138
13121TIP3    H239305   2.227   4.822   1.166
13122TIP3   OH239306   5.857   0.915   5.079
13122TIP3    H139307   5.895   0.859   5.146
13122TIP3    H239308   5.929   0.935   5.019
13123TIP3   OH239309   4.548   5.289   2.152
13123TIP3    H139310   4.537   5.383   2.135
13123TIP3    H239311   4.459   5.258   2.170
13124TIP3   OH239312   0.372   7.479   6.306
13124TIP3    H139313   0.372   7.513   6.395
13124TIP3    H239314   0.292   7.425   6.301
13125TIP3   OH239315   1.096   4.285   3.338
13125TIP3    H139316   1.042   4.360   3.313
13125TIP3    H239317   1.170   4.323   3.386
13126TIP3   OH239318   4.254   1.988   6.400
13126TIP3    H139319   4.280   1.997   6.492
13126TIP3    H239320   4.325   1.936   6.360
13127TIP3   OH239321   4.320   3.021   0.317
13127TIP3    H139322   4.281   2.944   0.358
13127TIP3    H239323   4.347   3.076   0.391
13128TIP3   OH239324   2.101   1.034   4.003
13128TIP3    H139325   2.171   1.071   4.057
13128TIP3    H239326   2.025   1.090   4.020
13129TIP3   OH239327   2.904   6.610   1.512
13129TIP3    H139328   2.943   6.670   1.449
13129TIP3    H239329   2.953   6.625   1.593
13130TIP3   OH239330   7.259   1.046   4.579
13130TIP3    H139331   7.248   0.955   4.552
13130TIP3    H239332   7.354   1.061   4.575
13131TIP3   OH239333   5.016   7.118   6.382
13131TIP3    H139334   4.921   7.131   6.391
13131TIP3    H239335   5.050   7.120   6.471
13132TIP3   OH239336   5.840   5.099   3.054
13132TIP3    H139337   5.919   5.079   3.104
13132TIP3    H239338   5.770   5.101   3.119
13133TIP3   OH239339   1.836   3.911   5.848
13133TIP3    H139340   1.932   3.917   5.845
13133TIP3    H239341   1.816   3.834   5.794
13134TIP3   OH239342   2.743   1.614   1.817
13134TIP3    H139343   2.756   1.576   1.904
13134TIP3    H239344   2.715   1.540   1.762
13135TIP3   OH239345   0.316   5.770   2.016
13135TIP3    H139346   0.260   5.714   1.963
13135TIP3    H239347   0.378   5.710   2.057
13136TIP3   OH239348   0.188   0.811   1.973
13136TIP3    H139349   0.284   0.806   1.973
13136TIP3    H239350   0.160   0.735   2.025
13137TIP3   OH239351   2.691   0.557   1.074
13137TIP3    H139352   2.671   0.619   1.005
13137TIP3    H239353   2.654   0.474   1.044
13138TIP3   OH239354   2.113   6.584   0.687
13138TIP3    H139355   2.111   6.559   0.594
13138TIP3    H239356   2.046   6.530   0.728
13139TIP3   OH239357   7.052   1.164   1.518
13139TIP3    H139358   7.051   1.092   1.454
13139TIP3    H239359   6.993   1.135   1.587
13140TIP3   OH239360   3.864   1.699   2.833
13140TIP3    H139361   3.819   1.621   2.867
13140TIP3    H239362   3.840   1.702   2.740
13141TIP3   OH239363   6.070   7.070   3.108
13141TIP3    H139364   6.127   7.146   3.120
13141TIP3    H239365   6.053   7.068   3.014
13142TIP3   OH239366   5.540   2.841   6.014
13142TIP3    H139367   5.515   2.809   6.101
13142TIP3    H239368   5.616   2.897   6.030
13143TIP3   OH239369   1.198   1.481   4.712
13143TIP3    H139370   1.113   1.450   4.681
13143TIP3    H239371   1.178   1.545   4.780
13144TIP3   OH239372   7.083   3.009   0.248
13144TIP3    H139373   7.020   2.965   0.305
13144TIP3    H239374   7.159   3.024   0.304
13145TIP3   OH239375   7.684   7.850   1.675
13145TIP3    H139376   7.599   7.866   1.635
13145TIP3    H239377   7.726   7.786   1.619
13146TIP3   OH239378   6.101   3.418   2.870
13146TIP3    H139379   6.039   3.468   2.818
13146TIP3    H239380   6.159   3.377   2.805
13147TIP3   OH239381   3.152   0.671   2.447
13147TIP3    H139382   3.232   0.626   2.420
13147TIP3    H239383   3.175   0.711   2.532
13148TIP3   OH239384   3.116   4.434   6.020
13148TIP3    H139385   3.077   4.515   5.989
13148TIP3    H239386   3.199   4.461   6.060
13149TIP3   OH239387   1.688   3.812   1.574
13149TIP3    H139388   1.774   3.796   1.535
13149TIP3    H239389   1.686   3.754   1.650
13150TIP3   OH239390   0.550   6.591   5.733
13150TIP3    H139391   0.579   6.506   5.768
13150TIP3    H239392   0.508   6.634   5.808
13151TIP3   OH239393   1.231   3.062   6.776
13151TIP3    H139394   1.191   2.987   6.819
13151TIP3    H239395   1.240   3.128   6.845
13152TIP3   OH239396   6.246   6.128   6.697
13152TIP3    H139397   6.202   6.178   6.766
13152TIP3    H239398   6.209   6.161   6.615
13153TIP3   OH239399   1.233   6.533   5.657
13153TIP3    H139400   1.251   6.466   5.723
13153TIP3    H239401   1.163   6.586   5.695
13154TIP3   OH239402   0.871   0.148   1.827
13154TIP3    H139403   0.880   0.089   1.752
13154TIP3    H239404   0.920   0.226   1.803
13155TIP3   OH239405   0.139   7.624   6.044
13155TIP3    H139406   0.076   7.665   5.984
13155TIP3    H239407   0.086   7.565   6.097
13156TIP3   OH239408   7.277   0.545   6.268
13156TIP3    H139409   7.325   0.515   6.191
13156TIP3    H239410   7.185   0.534   6.245
13157TIP3   OH239411   0.284   6.462   2.974
13157TIP3    H139412   0.296   6.367   2.978
13157TIP3    H239413   0.240   6.477   2.890
13158TIP3   OH239414   6.755   1.906   3.676
13158TIP3    H139415   6.681   1.884   3.619
13158TIP3    H239416   6.717   1.961   3.744
13159TIP3   OH239417   4.223   0.997   5.144
13159TIP3    H139418   4.130   1.023   5.142
13159TIP3    H239419   4.266   1.058   5.085
13160TIP3   OH239420   6.147   7.498   1.434
13160TIP3    H139421   6.204   7.507   1.511
13160TIP3    H239422   6.202   7.454   1.369
13161TIP3   OH239423   4.480   6.853   5.268
13161TIP3    H139424   4.409   6.890   5.215
13161TIP3    H239425   4.510   6.926   5.323
13162TIP3   OH239426   5.668   7.235   0.939
13162TIP3    H139427   5.645   7.328   0.938
13162TIP3    H239428   5.764   7.234   0.936
13163TIP3   OH239429   0.575   7.634   6.007
13163TIP3    H139430   0.488   7.631   6.046
13163TIP3    H239431   0.635   7.640   6.081
13164TIP3   OH239432   0.868   2.623   4.892
13164TIP3    H139433   0.895   2.569   4.966
13164TIP3    H239434   0.930   2.602   4.823
13165TIP3   OH239435   7.074   6.129   1.381
13165TIP3    H139436   6.990   6.084   1.374
13165TIP3    H239437   7.126   6.094   1.309
13166TIP3   OH239438   2.690   0.191   6.708
13166TIP3    H139439   2.678   0.218   6.617
13166TIP3    H239440   2.677   0.096   6.706
13167TIP3   OH239441   2.678   2.837   6.889
13167TIP3    H139442   2.702   2.929   6.896
13167TIP3    H239443   2.667   2.822   6.795
13168TIP3   OH239444   0.820   2.934   2.340
13168TIP3    H139445   0.883   2.934   2.267
13168TIP3    H239446   0.782   3.022   2.338
13169TIP3   OH239447   1.373   2.331   6.103
13169TIP3    H139448   1.285   2.362   6.124
13169TIP3    H239449   1.396   2.273   6.176
13170TIP3   OH239450   0.514   4.956   5.975
13170TIP3    H139451   0.593   4.964   6.029
13170TIP3    H239452   0.447   4.923   6.035
13171TIP3   OH239453   2.040   7.440   2.019
13171TIP3    H139454   2.098   7.492   2.075
13171TIP3    H239455   1.954   7.451   2.058
13172TIP3   OH239456   6.018   5.776   5.336
13172TIP3    H139457   6.097   5.730   5.311
13172TIP3    H239458   5.950   5.708   5.338
13173TIP3   OH239459   3.711   0.574   0.177
13173TIP3    H139460   3.721   0.636   0.249
13173TIP3    H239461   3.742   0.622   0.100
13174TIP3   OH239462   6.935   0.591   1.515
13174TIP3    H139463   6.889   0.633   1.442
13174TIP3    H239464   6.870   0.584   1.584
13175TIP3   OH239465   6.554   7.264   3.751
13175TIP3    H139466   6.561   7.322   3.827
13175TIP3    H239467   6.533   7.322   3.678
13176TIP3   OH239468   1.696   6.029   1.053
13176TIP3    H139469   1.771   5.971   1.042
13176TIP3    H239470   1.711   6.101   0.991
13177TIP3   OH239471   7.946   5.900   6.730
13177TIP3    H139472   7.860   5.860   6.717
13177TIP3    H239473   7.935   5.956   6.807
13178TIP3   OH239474   2.938   5.213   5.475
13178TIP3    H139475   2.878   5.204   5.549
13178TIP3    H239476   2.913   5.296   5.434
13179TIP3   OH239477   5.777   1.335   5.315
13179TIP3    H139478   5.827   1.307   5.392
13179TIP3    H239479   5.740   1.254   5.280
13180TIP3   OH239480   1.484   5.276   1.202
13180TIP3    H139481   1.569   5.271   1.246
13180TIP3    H239482   1.494   5.218   1.127
13181TIP3   OH239483   6.832   1.945   5.160
13181TIP3    H139484   6.749   1.967   5.117
13181TIP3    H239485   6.875   1.885   5.099
13182TIP3   OH239486   5.085   2.372   6.150
13182TIP3    H139487   5.149   2.443   6.140
13182TIP3    H239488   5.000   2.416   6.151
13183TIP3   OH239489   6.520   4.813   6.512
13183TIP3    H139490   6.485   4.733   6.473
13183TIP3    H239491   6.615   4.805   6.502
13184TIP3   OH239492   4.734   5.735   1.715
13184TIP3    H139493   4.670   5.689   1.769
13184TIP3    H239494   4.748   5.818   1.761
13185TIP3   OH239495   5.453   0.445   0.098
13185TIP3    H139496   5.456   0.381   0.168
13185TIP3    H239497   5.450   0.530   0.142
13186TIP3   OH239498   0.860   1.569   6.139
13186TIP3    H139499   0.840   1.518   6.060
13186TIP3    H239500   0.866   1.660   6.108
13187TIP3   OH239501   1.609   3.690   5.777
13187TIP3    H139502   1.516   3.712   5.786
13187TIP3    H239503   1.640   3.679   5.867
13188TIP3   OH239504   3.425   0.553   4.304
13188TIP3    H139505   3.372   0.489   4.351
13188TIP3    H239506   3.497   0.574   4.364
13189TIP3   OH239507   5.685   4.659   2.540
13189TIP3    H139508   5.703   4.684   2.631
13189TIP3    H239509   5.674   4.742   2.494
13190TIP3   OH239510   0.716   1.102   1.029
13190TIP3    H139511   0.639   1.118   0.974
13190TIP3    H239512   0.747   1.189   1.053
13191TIP3   OH239513   6.772   1.545   5.258
13191TIP3    H139514   6.690   1.508   5.291
13191TIP3    H239515   6.817   1.470   5.220
13192TIP3   OH239516   6.564   4.590   4.514
13192TIP3    H139517   6.570   4.651   4.440
13192TIP3    H239518   6.489   4.534   4.492
13193TIP3   OH239519   1.664   4.284   1.572
13193TIP3    H139520   1.627   4.205   1.612
13193TIP3    H239521   1.588   4.342   1.559
13194TIP3   OH239522   1.998   7.578   3.813
13194TIP3    H139523   1.981   7.512   3.745
13194TIP3    H239524   2.061   7.638   3.773
13195TIP3   OH239525   5.055   6.107   3.986
13195TIP3    H139526   5.091   6.196   3.990
13195TIP3    H239527   4.981   6.108   4.046
13196TIP3   OH239528   0.078   1.959   1.086
13196TIP3    H139529   0.114   1.883   1.041
13196TIP3    H239530   0.150   2.022   1.089
13197TIP3   OH239531   7.855   0.694   3.520
13197TIP3    H139532   7.858   0.618   3.577
13197TIP3    H239533   7.909   0.670   3.445
13198TIP3   OH239534   7.398   2.769   1.175
13198TIP3    H139535   7.443   2.831   1.232
13198TIP3    H239536   7.365   2.701   1.234
13199TIP3   OH239537   5.449   6.296   2.616
13199TIP3    H139538   5.424   6.311   2.524
13199TIP3    H239539   5.524   6.237   2.610
13200TIP3   OH239540   2.590   2.204   5.731
13200TIP3    H139541   2.604   2.285   5.780
13200TIP3    H239542   2.495   2.200   5.720
13201TIP3   OH239543   6.773   2.370   6.755
13201TIP3    H139544   6.725   2.334   6.830
13201TIP3    H239545   6.704   2.406   6.699
13202TIP3   OH239546   5.457   0.446   3.853
13202TIP3    H139547   5.490   0.496   3.778
13202TIP3    H239548   5.387   0.500   3.889
13203TIP3   OH239549   1.178   2.344   4.387
13203TIP3    H139550   1.129   2.284   4.330
13203TIP3    H239551   1.201   2.292   4.463
13204TIP3   OH239552   2.443   1.335   5.770
13204TIP3    H139553   2.477   1.419   5.802
13204TIP3    H239554   2.478   1.270   5.830
13205TIP3   OH239555   4.488   4.693   5.674
13205TIP3    H139556   4.396   4.706   5.651
13205TIP3    H239557   4.535   4.693   5.591
13206TIP3   OH239558   4.325   1.026   3.641
13206TIP3    H139559   4.281   1.110   3.647
13206TIP3    H239560   4.335   0.998   3.733
13207TIP3   OH239561   5.007   0.254   4.294
13207TIP3    H139562   5.023   0.163   4.320
13207TIP3    H239563   5.086   0.281   4.249
13208TIP3   OH239564   3.425   4.560   5.685
13208TIP3    H139565   3.342   4.607   5.686
13208TIP3    H239566   3.403   4.471   5.656
13209TIP3   OH239567   3.973   2.750   3.046
13209TIP3    H139568   4.012   2.663   3.043
13209TIP3    H239569   3.989   2.781   3.135
13210TIP3   OH239570   6.877   5.468   6.047
13210TIP3    H139571   6.882   5.407   6.120
13210TIP3    H239572   6.811   5.532   6.073
13211TIP3   OH239573   5.794   6.928   2.657
13211TIP3    H139574   5.858   6.994   2.683
13211TIP3    H239575   5.710   6.974   2.657
13212TIP3   OH239576   6.432   6.190   4.379
13212TIP3    H139577   6.509   6.208   4.325
13212TIP3    H239578   6.436   6.255   4.449
13213TIP3   OH239579   8.245   4.058   0.408
13213TIP3    H139580   8.308   3.991   0.382
13213TIP3    H239581   8.196   4.078   0.328
13214TIP3   OH239582   8.309   7.435   5.854
13214TIP3    H139583   8.248   7.499   5.891
13214TIP3    H239584   8.366   7.487   5.797
13215TIP3   OH239585   7.662   2.842   5.776
13215TIP3    H139586   7.665   2.748   5.796
13215TIP3    H239587   7.732   2.855   5.713
13216TIP3   OH239588   8.242   6.812   3.033
13216TIP3    H139589   8.194   6.748   2.980
13216TIP3    H239590   8.215   6.897   2.997
13217TIP3   OH239591   0.314   0.590   3.697
13217TIP3    H139592   0.383   0.542   3.742
13217TIP3    H239593   0.345   0.681   3.696
13218TIP3   OH239594   0.417   5.706   4.295
13218TIP3    H139595   0.369   5.716   4.378
13218TIP3    H239596   0.503   5.744   4.312
13219TIP3   OH239597   6.457   4.808   0.159
13219TIP3    H139598   6.439   4.891   0.205
13219TIP3    H239599   6.463   4.833   0.067
13220TIP3   OH239600   3.905   7.051   5.992
13220TIP3    H139601   3.847   7.128   5.990
13220TIP3    H239602   3.875   7.000   6.067
13221TIP3   OH239603   7.698   7.085   5.056
13221TIP3    H139604   7.692   7.112   4.964
13221TIP3    H239605   7.703   6.990   5.053
13222TIP3   OH239606   0.626   1.192   3.414
13222TIP3    H139607   0.592   1.280   3.431
13222TIP3    H239608   0.687   1.177   3.487
13223TIP3   OH239609   0.292   3.962   3.952
13223TIP3    H139610   0.330   4.040   3.992
13223TIP3    H239611   0.257   3.993   3.868
13224TIP3   OH239612   6.862   1.436   0.074
13224TIP3    H139613   6.881   1.470   0.161
13224TIP3    H239614   6.858   1.341   0.085
13225TIP3   OH239615   2.280   2.554   5.297
13225TIP3    H139616   2.202   2.541   5.350
13225TIP3    H239617   2.349   2.575   5.360
13226TIP3   OH239618   6.042   0.674   6.852
13226TIP3    H139619   6.059   0.701   6.762
13226TIP3    H239620   6.082   0.587   6.859
13227TIP3   OH239621   5.309   3.912   1.107
13227TIP3    H139622   5.225   3.893   1.149
13227TIP3    H239623   5.288   3.919   1.014
13228TIP3   OH239624   6.316   0.815   3.060
13228TIP3    H139625   6.330   0.756   2.986
13228TIP3    H239626   6.230   0.791   3.094
13229TIP3   OH239627   8.308   4.371   3.433
13229TIP3    H139628   8.391   4.351   3.390
13229TIP3    H239629   8.300   4.466   3.426
13230TIP3   OH239630   0.861   2.693   6.223
13230TIP3    H139631   0.834   2.617   6.171
13230TIP3    H239632   0.888   2.656   6.307
13231TIP3   OH239633   8.106   3.138   4.105
13231TIP3    H139634   8.143   3.217   4.144
13231TIP3    H239635   8.131   3.067   4.165
13232TIP3   OH239636   6.577   4.765   4.105
13232TIP3    H139637   6.549   4.812   4.183
13232TIP3    H239638   6.570   4.828   4.034
13233TIP3   OH239639   4.382   2.795   5.267
13233TIP3    H139640   4.390   2.890   5.278
13233TIP3    H239641   4.461   2.759   5.308
13234TIP3   OH239642   1.383   4.044   0.796
13234TIP3    H139643   1.414   4.111   0.856
13234TIP3    H239644   1.324   3.990   0.848
13235TIP3   OH239645   4.221   0.381   4.607
13235TIP3    H139646   4.278   0.310   4.577
13235TIP3    H239647   4.278   0.437   4.659
13236TIP3   OH239648   7.459   4.790   5.774
13236TIP3    H139649   7.394   4.776   5.843
13236TIP3    H239650   7.407   4.796   5.694
13237TIP3   OH239651   5.191   1.955   6.115
13237TIP3    H139652   5.277   1.996   6.110
13237TIP3    H239653   5.173   1.927   6.025
13238TIP3   OH239654   0.351   3.278   4.325
13238TIP3    H139655   0.364   3.335   4.249
13238TIP3    H239656   0.284   3.323   4.377
13239TIP3   OH239657   2.115   5.199   1.283
13239TIP3    H139658   2.095   5.292   1.295
13239TIP3    H239659   2.155   5.194   1.196
13240TIP3   OH239660   5.009   1.437   3.995
13240TIP3    H139661   4.980   1.348   4.014
13240TIP3    H239662   5.099   1.427   3.963
13241TIP3   OH239663   7.396   2.628   5.440
13241TIP3    H139664   7.426   2.638   5.530
13241TIP3    H239665   7.429   2.542   5.413
13242TIP3   OH239666   6.623   6.146   5.739
13242TIP3    H139667   6.702   6.164   5.689
13242TIP3    H239668   6.650   6.154   5.831
13243TIP3   OH239669   3.926   4.190   3.054
13243TIP3    H139670   4.001   4.166   2.999
13243TIP3    H239671   3.849   4.163   3.003
13244TIP3   OH239672   3.161   7.132   2.436
13244TIP3    H139673   3.149   7.156   2.344
13244TIP3    H239674   3.126   7.207   2.485
13245TIP3   OH239675   7.361   5.757   3.673
13245TIP3    H139676   7.276   5.715   3.659
13245TIP3    H239677   7.399   5.763   3.586
13246TIP3   OH239678   2.587   0.714   0.232
13246TIP3    H139679   2.517   0.757   0.183
13246TIP3    H239680   2.632   0.661   0.167
13247TIP3   OH239681   1.296   1.069   2.516
13247TIP3    H139682   1.376   1.121   2.505
13247TIP3    H239683   1.318   1.004   2.583
13248TIP3   OH239684   6.328   2.972   1.596
13248TIP3    H139685   6.370   2.887   1.611
13248TIP3    H239686   6.378   3.033   1.650
13249TIP3   OH239687   1.187   1.166   4.786
13249TIP3    H139688   1.254   1.122   4.838
13249TIP3    H239689   1.139   1.220   4.849
13250TIP3   OH239690   0.920   1.380   1.476
13250TIP3    H139691   1.008   1.396   1.512
13250TIP3    H239692   0.866   1.448   1.516
13251TIP3   OH239693   7.655   1.343   1.444
13251TIP3    H139694   7.653   1.433   1.477
13251TIP3    H239695   7.654   1.288   1.522
13252TIP3   OH239696   2.204   6.757   5.056
13252TIP3    H139697   2.141   6.777   4.987
13252TIP3    H239698   2.183   6.666   5.080
13253TIP3   OH239699   8.389   5.825   3.917
13253TIP3    H139700   8.327   5.857   3.983
13253TIP3    H239701   8.471   5.813   3.965
13254TIP3   OH239702   4.167   5.384   1.964
13254TIP3    H139703   4.234   5.321   1.938
13254TIP3    H239704   4.171   5.452   1.896
13255TIP3   OH239705   0.699   2.647   3.634
13255TIP3    H139706   0.770   2.697   3.593
13255TIP3    H239707   0.661   2.708   3.698
13256TIP3   OH239708   2.279   4.314   4.658
13256TIP3    H139709   2.312   4.359   4.736
13256TIP3    H239710   2.352   4.258   4.631
13257TIP3   OH239711   7.426   2.012   3.826
13257TIP3    H139712   7.438   1.950   3.754
13257TIP3    H239713   7.420   1.958   3.904
13258TIP3   OH239714   7.386   2.079   5.824
13258TIP3    H139715   7.425   1.995   5.850
13258TIP3    H239716   7.309   2.054   5.772
13259TIP3   OH239717   0.305   5.379   1.740
13259TIP3    H139718   0.363   5.433   1.793
13259TIP3    H239719   0.306   5.293   1.783
13260TIP3   OH239720   2.296   4.463   0.836
13260TIP3    H139721   2.294   4.368   0.851
13260TIP3    H239722   2.208   4.493   0.857
13261TIP3   OH239723   2.598   1.272   1.526
13261TIP3    H139724   2.506   1.246   1.534
13261TIP3    H239725   2.603   1.316   1.441
13262TIP3   OH239726   1.467   2.777   6.741
13262TIP3    H139727   1.497   2.690   6.767
13262TIP3    H239728   1.416   2.808   6.816
13263TIP3   OH239729   5.652   4.274   4.921
13263TIP3    H139730   5.562   4.269   4.954
13263TIP3    H239731   5.685   4.358   4.952
13264TIP3   OH239732   0.429   6.382   0.350
13264TIP3    H139733   0.357   6.322   0.368
13264TIP3    H239734   0.474   6.390   0.435
13265TIP3   OH239735   7.184   0.576   0.272
13265TIP3    H139736   7.159   0.484   0.284
13265TIP3    H239737   7.275   0.573   0.243
13266TIP3   OH239738   6.393   6.284   3.527
13266TIP3    H139739   6.429   6.372   3.517
13266TIP3    H239740   6.310   6.297   3.572
13267TIP3   OH239741   6.356   7.259   1.426
13267TIP3    H139742   6.295   7.219   1.488
13267TIP3    H239743   6.440   7.217   1.445
13268TIP3   OH239744   5.991   6.269   1.588
13268TIP3    H139745   6.050   6.237   1.656
13268TIP3    H239746   5.988   6.364   1.601
13269TIP3   OH239747   5.419   1.422   2.776
13269TIP3    H139748   5.473   1.389   2.848
13269TIP3    H239749   5.329   1.400   2.801
13270TIP3   OH239750   8.248   0.042   4.669
13270TIP3    H139751   8.182   0.086   4.616
13270TIP3    H239752   8.209  -0.043   4.691
13271TIP3   OH239753   8.362   3.804   0.591
13271TIP3    H139754   8.356   3.766   0.679
13271TIP3    H239755   8.429   3.871   0.599
13272TIP3   OH239756   3.697   2.319   5.215
13272TIP3    H139757   3.757   2.270   5.159
13272TIP3    H239758   3.724   2.411   5.204
13273TIP3   OH239759   3.215   1.761   5.671
13273TIP3    H139760   3.268   1.781   5.748
13273TIP3    H239761   3.274   1.777   5.597
13274TIP3   OH239762   3.619   0.091   0.683
13274TIP3    H139763   3.573   0.012   0.654
13274TIP3    H239764   3.630   0.143   0.603
13275TIP3   OH239765   1.753   0.388   3.845
13275TIP3    H139766   1.686   0.401   3.777
13275TIP3    H239767   1.814   0.326   3.806
13276TIP3   OH239768   5.208   5.737   3.402
13276TIP3    H139769   5.280   5.786   3.442
13276TIP3    H239770   5.129   5.786   3.426
13277TIP3   OH239771   1.825   5.529   0.134
13277TIP3    H139772   1.751   5.552   0.076
13277TIP3    H239773   1.892   5.495   0.075
13278TIP3   OH239774   5.021   1.276   3.742
13278TIP3    H139775   4.954   1.340   3.716
13278TIP3    H239776   4.996   1.195   3.699
13279TIP3   OH239777   0.837   2.603   2.003
13279TIP3    H139778   0.806   2.689   1.974
13279TIP3    H239779   0.933   2.609   1.995
13280TIP3   OH239780   4.999   5.427   0.397
13280TIP3    H139781   5.091   5.443   0.377
13280TIP3    H239782   4.995   5.427   0.493
13281TIP3   OH239783   0.570   6.074   2.012
13281TIP3    H139784   0.535   6.027   2.088
13281TIP3    H239785   0.585   6.163   2.044
13282TIP3   OH239786   0.267   2.927   0.844
13282TIP3    H139787   0.240   2.953   0.756
13282TIP3    H239788   0.186   2.894   0.885
13283TIP3   OH239789   8.248   0.675   5.025
13283TIP3    H139790   8.308   0.709   5.091
13283TIP3    H239791   8.161   0.684   5.065
13284TIP3   OH239792   1.481   1.918   4.371
13284TIP3    H139793   1.575   1.904   4.372
13284TIP3    H239794   1.443   1.831   4.358
13285TIP3   OH239795   2.838   6.802   2.256
13285TIP3    H139796   2.803   6.889   2.276
13285TIP3    H239797   2.827   6.753   2.338
13286TIP3   OH239798   6.346   6.974   0.784
13286TIP3    H139799   6.426   6.985   0.836
13286TIP3    H239800   6.372   7.001   0.696
13287TIP3   OH239801   1.728   2.556   1.448
13287TIP3    H139802   1.764   2.487   1.504
13287TIP3    H239803   1.642   2.574   1.486
13288TIP3   OH239804   0.703   2.019   3.338
13288TIP3    H139805   0.661   2.094   3.381
13288TIP3    H239806   0.795   2.025   3.365
13289TIP3   OH239807   3.064   5.664   3.192
13289TIP3    H139808   3.038   5.688   3.281
13289TIP3    H239809   3.073   5.569   3.195
13290TIP3   OH239810   0.089   2.032   3.334
13290TIP3    H139811   0.016   1.976   3.309
13290TIP3    H239812   0.104   2.089   3.259
13291TIP3   OH239813   8.168   0.245   3.349
13291TIP3    H139814   8.239   0.247   3.414
13291TIP3    H239815   8.093   0.284   3.394
13292TIP3   OH239816   6.493   3.085   1.807
13292TIP3    H139817   6.505   3.112   1.897
13292TIP3    H239818   6.495   2.989   1.810
13293TIP3   OH239819   1.449   7.554   1.896
13293TIP3    H139820   1.357   7.583   1.903
13293TIP3    H239821   1.451   7.501   1.817
13294TIP3   OH239822   5.608   4.554   6.344
13294TIP3    H139823   5.644   4.465   6.347
13294TIP3    H239824   5.609   4.577   6.251
13295TIP3   OH239825   6.704   5.196   0.786
13295TIP3    H139826   6.734   5.266   0.728
13295TIP3    H239827   6.645   5.144   0.731
13296TIP3   OH239828   2.943   3.598   3.254
13296TIP3    H139829   2.920   3.651   3.178
13296TIP3    H239830   2.883   3.524   3.251
13297TIP3   OH239831   4.172   6.873   0.188
13297TIP3    H139832   4.161   6.946   0.249
13297TIP3    H239833   4.125   6.800   0.229
13298TIP3   OH239834   4.493   4.433   5.960
13298TIP3    H139835   4.434   4.358   5.965
13298TIP3    H239836   4.499   4.452   5.866
13299TIP3   OH239837   6.049   6.098   5.433
13299TIP3    H139838   6.129   6.147   5.453
13299TIP3    H239839   6.034   6.043   5.510
13300TIP3   OH239840   7.238   4.741   0.548
13300TIP3    H139841   7.196   4.821   0.581
13300TIP3    H239842   7.270   4.766   0.461
13301TIP3   OH239843   0.658   5.081   1.424
13301TIP3    H139844   0.752   5.092   1.442
13301TIP3    H239845   0.631   5.167   1.391
13302TIP3   OH239846   7.713   5.835   1.150
13302TIP3    H139847   7.763   5.800   1.223
13302TIP3    H239848   7.713   5.764   1.085
13303TIP3   OH239849   4.382   6.968   1.185
13303TIP3    H139850   4.447   6.897   1.185
13303TIP3    H239851   4.429   7.043   1.222
13304TIP3   OH239852   1.721   2.474   4.740
13304TIP3    H139853   1.670   2.469   4.659
13304TIP3    H239854   1.658   2.496   4.808
13305TIP3   OH239855   5.228   3.128   4.629
13305TIP3    H139856   5.256   3.164   4.544
13305TIP3    H239857   5.247   3.035   4.622
13306TIP3   OH239858   7.802   5.925   0.142
13306TIP3    H139859   7.789   5.915   0.048
13306TIP3    H239860   7.724   5.969   0.173
13307TIP3   OH239861   8.176   5.082   6.580
13307TIP3    H139862   8.260   5.127   6.574
13307TIP3    H239863   8.197   4.989   6.576
13308TIP3   OH239864   6.615   2.797   4.107
13308TIP3    H139865   6.587   2.883   4.075
13308TIP3    H239866   6.697   2.779   4.060
13309TIP3   OH239867   6.093   4.779   3.556
13309TIP3    H139868   6.169   4.745   3.509
13309TIP3    H239869   6.056   4.702   3.600
13310TIP3   OH239870   1.597   4.606   3.062
13310TIP3    H139871   1.692   4.594   3.064
13310TIP3    H239872   1.583   4.673   2.995
13311TIP3   OH239873   4.321   6.940   2.417
13311TIP3    H139874   4.237   6.909   2.381
13311TIP3    H239875   4.372   6.861   2.429
13312TIP3   OH239876   0.239   2.544   0.816
13312TIP3    H139877   0.220   2.518   0.726
13312TIP3    H239878   0.177   2.615   0.834
13313TIP3   OH239879   7.320   4.407   6.598
13313TIP3    H139880   7.245   4.463   6.614
13313TIP3    H239881   7.315   4.341   6.667
13314TIP3   OH239882   5.386   4.785   3.912
13314TIP3    H139883   5.412   4.751   3.997
13314TIP3    H239884   5.422   4.873   3.908
13315TIP3   OH239885   7.273   6.745   1.618
13315TIP3    H139886   7.259   6.651   1.601
13315TIP3    H239887   7.357   6.764   1.576
13316TIP3   OH239888   7.172   4.095   0.852
13316TIP3    H139889   7.124   4.165   0.897
13316TIP3    H239890   7.116   4.071   0.779
13317TIP3   OH239891   7.448   3.656   0.290
13317TIP3    H139892   7.532   3.639   0.332
13317TIP3    H239893   7.384   3.649   0.360
13318TIP3   OH239894   1.774   4.220   5.336
13318TIP3    H139895   1.708   4.289   5.342
13318TIP3    H239896   1.763   4.169   5.417
13319TIP3   OH239897   3.044   7.400   3.977
13319TIP3    H139898   3.103   7.458   3.929
13319TIP3    H239899   3.103   7.345   4.029
13320TIP3   OH239900   6.858   7.073   1.527
13320TIP3    H139901   6.863   7.030   1.442
13320TIP3    H239902   6.912   7.020   1.584
13321TIP3   OH239903   2.878   4.926   3.619
13321TIP3    H139904   2.914   5.004   3.577
13321TIP3    H239905   2.952   4.865   3.624
13322TIP3   OH239906   2.390   4.275   1.876
13322TIP3    H139907   2.450   4.325   1.821
13322TIP3    H239908   2.324   4.242   1.816
13323TIP3   OH239909   4.173   7.417   4.160
13323TIP3    H139910   4.204   7.468   4.085
13323TIP3    H239911   4.120   7.348   4.121
13324TIP3   OH239912   2.876   1.112   2.467
13324TIP3    H139913   2.847   1.053   2.397
13324TIP3    H239914   2.907   1.190   2.422
13325TIP3   OH239915   2.096   5.962   1.643
13325TIP3    H139916   2.028   6.029   1.650
13325TIP3    H239917   2.050   5.880   1.660
13326TIP3   OH239918   3.620   6.922   1.995
13326TIP3    H139919   3.581   6.986   1.935
13326TIP3    H239920   3.600   6.837   1.955
13327TIP3   OH239921   3.047   3.629   0.216
13327TIP3    H139922   3.045   3.724   0.228
13327TIP3    H239923   3.111   3.598   0.280
13328TIP3   OH239924   8.229   5.447   5.948
13328TIP3    H139925   8.295   5.403   5.895
13328TIP3    H239926   8.146   5.428   5.903
13329TIP3   OH239927   3.950   0.539   4.564
13329TIP3    H139928   3.876   0.528   4.504
13329TIP3    H239929   4.025   0.505   4.516
13330TIP3   OH239930   5.163   2.719   2.979
13330TIP3    H139931   5.250   2.692   2.949
13330TIP3    H239932   5.176   2.806   3.016
13331TIP3   OH239933   8.374   0.147   0.284
13331TIP3    H139934   8.360   0.053   0.293
13331TIP3    H239935   8.353   0.184   0.370
13332TIP3   OH239936   1.917   2.278   5.325
13332TIP3    H139937   1.838   2.291   5.376
13332TIP3    H239938   1.895   2.308   5.237
13333TIP3   OH239939   4.501   5.775   2.442
13333TIP3    H139940   4.439   5.834   2.486
13333TIP3    H239941   4.536   5.827   2.370
13334TIP3   OH239942   7.624   0.013   0.363
13334TIP3    H139943   7.623   0.000   0.458
13334TIP3    H239944   7.667   0.098   0.351
13335TIP3   OH239945   0.324   6.728   0.639
13335TIP3    H139946   0.371   6.671   0.700
13335TIP3    H239947   0.386   6.797   0.617
13336TIP3   OH239948   3.439   5.283   3.893
13336TIP3    H139949   3.390   5.318   3.818
13336TIP3    H239950   3.498   5.355   3.918
13337TIP3   OH239951   5.100   2.628   1.232
13337TIP3    H139952   5.112   2.675   1.150
13337TIP3    H239953   5.084   2.696   1.297
13338TIP3   OH239954   1.851   6.584   0.264
13338TIP3    H139955   1.849   6.523   0.190
13338TIP3    H239956   1.866   6.669   0.224
13339TIP3   OH239957   3.701   3.262   4.902
13339TIP3    H139958   3.709   3.346   4.946
13339TIP3    H239959   3.749   3.273   4.820
13340TIP3   OH239960   7.015   2.676   1.483
13340TIP3    H139961   6.960   2.664   1.560
13340TIP3    H239962   7.086   2.613   1.494
13341TIP3   OH239963   7.128   1.687   4.540
13341TIP3    H139964   7.070   1.635   4.484
13341TIP3    H239965   7.211   1.689   4.494
13342TIP3   OH239966   5.367   4.711   4.748
13342TIP3    H139967   5.311   4.656   4.804
13342TIP3    H239968   5.306   4.754   4.689
13343TIP3   OH239969   5.048   5.801   1.419
13343TIP3    H139970   5.137   5.808   1.383
13343TIP3    H239971   5.045   5.714   1.459
13344TIP3   OH239972   5.970   4.017   6.215
13344TIP3    H139973   6.060   4.018   6.245
13344TIP3    H239974   5.969   4.078   6.141
13345TIP3   OH239975   7.889   4.528   6.369
13345TIP3    H139976   7.842   4.571   6.297
13345TIP3    H239977   7.972   4.575   6.375
13346TIP3   OH239978   0.289   5.152   3.740
13346TIP3    H139979   0.264   5.194   3.823
13346TIP3    H239980   0.244   5.068   3.741
13347TIP3   OH239981   1.916   6.561   1.787
13347TIP3    H139982   1.990   6.576   1.729
13347TIP3    H239983   1.906   6.642   1.836
13348TIP3   OH239984   5.042   0.808   3.996
13348TIP3    H139985   5.090   0.817   4.078
13348TIP3    H239986   5.068   0.885   3.945
13349TIP3   OH239987   0.122   6.867   1.101
13349TIP3    H139988   0.215   6.873   1.121
13349TIP3    H239989   0.097   6.780   1.132
13350TIP3   OH239990   0.779   5.540   3.838
13350TIP3    H139991   0.686   5.528   3.820
13350TIP3    H239992   0.817   5.452   3.831
13351TIP3   OH239993   7.480   2.236   2.446
13351TIP3    H139994   7.486   2.328   2.420
13351TIP3    H239995   7.480   2.239   2.542
13352TIP3   OH239996   0.833   0.467   5.252
13352TIP3    H139997   0.746   0.458   5.213
13352TIP3    H239998   0.818   0.458   5.346
13353TIP3   OH239999   5.988   3.523   1.645
13353TIP3    H140000   5.934   3.451   1.612
13353TIP3    H240001   6.026   3.562   1.567
13354TIP3   OH240002   2.349   3.414   3.174
13354TIP3    H140003   2.426   3.432   3.229
13354TIP3    H240004   2.368   3.331   3.132
13355TIP3   OH240005   1.713   3.276   1.710
13355TIP3    H140006   1.632   3.270   1.660
13355TIP3    H240007   1.771   3.212   1.669
13356TIP3   OH240008   0.375   4.731   1.306
13356TIP3    H140009   0.469   4.734   1.287
13356TIP3    H240010   0.333   4.741   1.220
13357TIP3   OH240011   3.304   5.996   5.768
13357TIP3    H140012   3.237   6.053   5.805
13357TIP3    H240013   3.381   6.012   5.821
13358TIP3   OH240014   4.966   6.484   4.307
13358TIP3    H140015   4.943   6.411   4.249
13358TIP3    H240016   4.892   6.490   4.368
13359TIP3   OH240017   3.116   4.832   3.771
13359TIP3    H140018   3.180   4.895   3.736
13359TIP3    H240019   3.090   4.869   3.855
13360TIP3   OH240020   6.824   6.490   3.068
13360TIP3    H140021   6.759   6.553   3.100
13360TIP3    H240022   6.894   6.544   3.032
13361TIP3   OH240023   1.968   4.197   3.410
13361TIP3    H140024   1.956   4.104   3.428
13361TIP3    H240025   2.057   4.216   3.440
13362TIP3   OH240026   5.981   5.196   6.220
13362TIP3    H140027   5.940   5.282   6.205
13362TIP3    H240028   5.913   5.133   6.196
13363TIP3   OH240029   5.260   7.403   3.726
13363TIP3    H140030   5.165   7.403   3.741
13363TIP3    H240031   5.293   7.334   3.783
13364TIP3   OH240032   4.749   0.879   1.971
13364TIP3    H140033   4.787   0.813   2.029
13364TIP3    H240034   4.810   0.953   1.976
13365TIP3   OH240035   0.148   6.522   4.807
13365TIP3    H140036   0.189   6.497   4.724
13365TIP3    H240037   0.179   6.457   4.870
13366TIP3   OH240038   5.036   3.903   4.212
13366TIP3    H140039   4.985   3.893   4.292
13366TIP3    H240040   5.065   3.994   4.213
13367TIP3   OH240041   7.535   2.513   3.463
13367TIP3    H140042   7.476   2.440   3.444
13367TIP3    H240043   7.550   2.555   3.378
13368TIP3   OH240044   1.228   4.781   5.009
13368TIP3    H140045   1.303   4.733   4.974
13368TIP3    H240046   1.207   4.738   5.091
13369TIP3   OH240047   1.182   4.625   3.141
13369TIP3    H140048   1.258   4.633   3.198
13369TIP3    H240049   1.202   4.550   3.085
13370TIP3   OH240050   2.365   7.631   3.704
13370TIP3    H140051   2.397   7.617   3.793
13370TIP3    H240052   2.444   7.638   3.650
13371TIP3   OH240053   8.037   0.821   4.296
13371TIP3    H140054   8.008   0.891   4.237
13371TIP3    H240055   7.988   0.837   4.377
13372TIP3   OH240056   2.546   5.471   2.016
13372TIP3    H140057   2.605   5.504   2.084
13372TIP3    H240058   2.579   5.383   1.997
13373TIP3   OH240059   5.042   7.849   3.022
13373TIP3    H140060   5.085   7.931   3.045
13373TIP3    H240061   5.109   7.798   2.976
13374TIP3   OH240062   4.530   7.764   6.514
13374TIP3    H140063   4.472   7.709   6.566
13374TIP3    H240064   4.540   7.844   6.565
13375TIP3   OH240065   1.492   1.559   2.037
13375TIP3    H140066   1.456   1.492   1.980
13375TIP3    H240067   1.435   1.635   2.024
13376TIP3   OH240068   3.269   6.539   1.681
13376TIP3    H140069   3.247   6.447   1.699
13376TIP3    H240070   3.199   6.589   1.722
13377TIP3   OH240071   1.768   1.628   6.623
13377TIP3    H140072   1.859   1.653   6.608
13377TIP3    H240073   1.772   1.563   6.693
13378TIP3   OH240074   7.295   5.515   1.010
13378TIP3    H140075   7.303   5.420   1.010
13378TIP3    H240076   7.214   5.533   1.058
13379TIP3   OH240077   5.245   6.662   1.355
13379TIP3    H140078   5.151   6.653   1.339
13379TIP3    H240079   5.280   6.574   1.348
13380TIP3   OH240080   2.809   3.064  -0.030
13380TIP3    H140081   2.784   3.124   0.041
13380TIP3    H240082   2.732   3.009  -0.042
13381TIP3   OH240083   1.222   2.545   2.258
13381TIP3    H140084   1.222   2.600   2.336
13381TIP3    H240085   1.311   2.553   2.224
13382TIP3   OH240086   7.190   4.049   4.493
13382TIP3    H140087   7.270   4.078   4.537
13382TIP3    H240088   7.198   3.954   4.489
13383TIP3   OH240089   4.334   1.825   5.380
13383TIP3    H140090   4.361   1.822   5.288
13383TIP3    H240091   4.394   1.887   5.421
13384TIP3   OH240092   6.704   5.059   1.472
13384TIP3    H140093   6.626   5.082   1.423
13384TIP3    H240094   6.702   5.117   1.549
13385TIP3   OH240095   7.682   1.072   3.041
13385TIP3    H140096   7.776   1.065   3.022
13385TIP3    H240097   7.677   1.082   3.136
13386TIP3   OH240098   4.724   3.219  -0.006
13386TIP3    H140099   4.722   3.225   0.090
13386TIP3    H240100   4.810   3.253  -0.030
13387TIP3   OH240101   3.815   3.628   6.252
13387TIP3    H140102   3.901   3.635   6.211
13387TIP3    H240103   3.762   3.578   6.190
13388TIP3   OH240104   2.013   3.765   3.033
13388TIP3    H140105   1.922   3.734   3.027
13388TIP3    H240106   2.066   3.687   3.018
13389TIP3   OH240107   5.672   0.863   1.791
13389TIP3    H140108   5.598   0.882   1.848
13389TIP3    H240109   5.714   0.948   1.777
13390TIP3   OH240110   5.689   0.688   1.041
13390TIP3    H140111   5.698   0.596   1.069
13390TIP3    H240112   5.778   0.724   1.046
13391TIP3   OH240113   3.810   3.251   3.294
13391TIP3    H140114   3.787   3.318   3.229
13391TIP3    H240115   3.763   3.278   3.373
13392TIP3   OH240116   7.520   3.480   5.978
13392TIP3    H140117   7.509   3.567   6.017
13392TIP3    H240118   7.604   3.449   6.013
13393TIP3   OH240119   7.832   6.784   6.251
13393TIP3    H140120   7.752   6.780   6.303
13393TIP3    H240121   7.891   6.841   6.301
13394TIP3   OH240122   5.303   4.219   3.288
13394TIP3    H140123   5.391   4.210   3.249
13394TIP3    H240124   5.319   4.248   3.377
13395TIP3   OH240125   3.485   5.019   6.048
13395TIP3    H140126   3.553   5.081   6.022
13395TIP3    H240127   3.405   5.071   6.053
13396TIP3   OH240128   6.073   6.703   3.597
13396TIP3    H140129   6.106   6.732   3.512
13396TIP3    H240130   5.984   6.737   3.601
13397TIP3   OH240131   1.490   5.819   0.646
13397TIP3    H140132   1.455   5.908   0.636
13397TIP3    H240133   1.579   5.832   0.679
13398TIP3   OH240134   1.821   4.761   0.847
13398TIP3    H140135   1.741   4.814   0.858
13398TIP3    H240136   1.792   4.684   0.797
13399TIP3   OH240137   5.339   4.266   0.723
13399TIP3    H140138   5.385   4.249   0.641
13399TIP3    H240139   5.258   4.309   0.697
13400TIP3   OH240140   0.983   6.808   1.524
13400TIP3    H140141   0.905   6.854   1.493
13400TIP3    H240142   0.951   6.744   1.587
13401TIP3   OH240143   2.327   5.763   5.806
13401TIP3    H140144   2.378   5.697   5.757
13401TIP3    H240145   2.334   5.842   5.753
13402TIP3   OH240146   3.006   4.158   0.164
13402TIP3    H140147   3.022   4.215   0.240
13402TIP3    H240148   2.922   4.190   0.129
13403TIP3   OH240149   6.861   4.149   4.055
13403TIP3    H140150   6.908   4.067   4.067
13403TIP3    H240151   6.924   4.216   4.082
13404TIP3   OH240152   3.917   0.982   2.403
13404TIP3    H140153   4.000   1.013   2.366
13404TIP3    H240154   3.935   0.971   2.496
13405TIP3   OH240155   5.297   3.416   2.824
13405TIP3    H140156   5.226   3.441   2.765
13405TIP3    H240157   5.307   3.322   2.811
13406TIP3   OH240158   4.391   3.346   5.846
13406TIP3    H140159   4.457   3.296   5.894
13406TIP3    H240160   4.320   3.359   5.909
13407TIP3   OH240161   1.037   1.827   4.677
13407TIP3    H140162   1.068   1.770   4.606
13407TIP3    H240163   1.105   1.894   4.685
13408TIP3   OH240164   2.360   0.543   5.957
13408TIP3    H140165   2.304   0.488   5.902
13408TIP3    H240166   2.437   0.489   5.974
13409TIP3   OH240167   7.159   3.102   6.836
13409TIP3    H140168   7.166   3.189   6.876
13409TIP3    H240169   7.247   3.065   6.843
13410TIP3   OH240170   8.188   3.584   5.329
13410TIP3    H140171   8.211   3.494   5.307
13410TIP3    H240172   8.097   3.593   5.303
13411TIP3   OH240173   4.873   6.887   3.576
13411TIP3    H140174   4.876   6.798   3.611
13411TIP3    H240175   4.964   6.916   3.574
13412TIP3   OH240176   5.337   1.619   0.074
13412TIP3    H140177   5.335   1.556   0.002
13412TIP3    H240178   5.283   1.580   0.142
13413TIP3   OH240179   5.513   4.847   5.829
13413TIP3    H140180   5.485   4.920   5.884
13413TIP3    H240181   5.608   4.847   5.835
13414TIP3   OH240182   0.925   6.546   4.180
13414TIP3    H140183   0.866   6.619   4.160
13414TIP3    H240184   0.972   6.575   4.258
13415TIP3   OH240185   7.164   1.481   3.108
13415TIP3    H140186   7.103   1.419   3.146
13415TIP3    H240187   7.143   1.481   3.014
13416TIP3   OH240188   6.682   1.222   6.229
13416TIP3    H140189   6.611   1.191   6.285
13416TIP3    H240190   6.755   1.237   6.289
13417TIP3   OH240191   3.546   3.597   2.132
13417TIP3    H140192   3.594   3.612   2.051
13417TIP3    H240193   3.614   3.576   2.197
13418TIP3   OH240194   3.648   6.740   4.165
13418TIP3    H140195   3.710   6.788   4.110
13418TIP3    H240196   3.690   6.656   4.182
13419TIP3   OH240197   4.218   6.159   2.376
13419TIP3    H140198   4.180   6.120   2.297
13419TIP3    H240199   4.193   6.252   2.371
13420TIP3   OH240200   8.026   1.763   3.995
13420TIP3    H140201   7.984   1.737   4.077
13420TIP3    H240202   8.032   1.858   4.000
13421TIP3   OH240203   4.204   4.656   1.840
13421TIP3    H140204   4.222   4.584   1.780
13421TIP3    H240205   4.285   4.667   1.890
13422TIP3   OH240206   6.034   4.828   0.535
13422TIP3    H140207   6.007   4.920   0.537
13422TIP3    H240208   5.952   4.780   0.528
13423TIP3   OH240209   4.515   3.026   5.375
13423TIP3    H140210   4.568   3.062   5.446
13423TIP3    H240211   4.572   3.029   5.298
13424TIP3   OH240212   2.219   4.021   5.174
13424TIP3    H140213   2.147   4.065   5.220
13424TIP3    H240214   2.209   3.929   5.197
13425TIP3   OH240215   0.067   5.092   3.271
13425TIP3    H140216   0.061   5.164   3.208
13425TIP3    H240217  -0.019   5.049   3.267
13426TIP3   OH240218   0.460   4.303   3.793
13426TIP3    H140219   0.426   4.219   3.764
13426TIP3    H240220   0.454   4.359   3.716
13427TIP3   OH240221   2.790   4.217   4.423
13427TIP3    H140222   2.811   4.131   4.387
13427TIP3    H240223   2.819   4.279   4.355
13428TIP3   OH240224   2.214   0.463   1.686
13428TIP3    H140225   2.235   0.471   1.779
13428TIP3    H240226   2.137   0.407   1.684
13429TIP3   OH240227   7.075   1.581   3.632
13429TIP3    H140228   6.979   1.581   3.626
13429TIP3    H240229   7.099   1.674   3.626
13430TIP3   OH240230   3.831   2.266   0.239
13430TIP3    H140231   3.778   2.240   0.164
13430TIP3    H240232   3.788   2.344   0.273
13431TIP3   OH240233   1.129   7.744   2.753
13431TIP3    H140234   1.063   7.722   2.687
13431TIP3    H240235   1.162   7.830   2.727
13432TIP3   OH240236   5.870   0.748   4.663
13432TIP3    H140237   5.951   0.699   4.679
13432TIP3    H240238   5.897   0.818   4.604
13433TIP3   OH240239   4.579   4.752   5.411
13433TIP3    H140240   4.527   4.762   5.331
13433TIP3    H240241   4.641   4.682   5.391
13434TIP3   OH240242   0.945   0.937   1.302
13434TIP3    H140243   0.878   0.894   1.249
13434TIP3    H240244   0.975   1.010   1.249
13435TIP3   OH240245   1.146   0.689   2.571
13435TIP3    H140246   1.197   0.628   2.624
13435TIP3    H240247   1.061   0.694   2.615
13436TIP3   OH240248   3.854   1.466   1.865
13436TIP3    H140249   3.788   1.521   1.907
13436TIP3    H240250   3.895   1.523   1.800
13437TIP3   OH240251   5.404   4.513   3.231
13437TIP3    H140252   5.375   4.556   3.312
13437TIP3    H240253   5.398   4.582   3.165
13438TIP3   OH240254   2.218   5.867   2.406
13438TIP3    H140255   2.237   5.954   2.371
13438TIP3    H240256   2.211   5.811   2.329
13439TIP3   OH240257   6.088   7.880   5.666
13439TIP3    H140258   6.075   7.796   5.709
13439TIP3    H240259   6.156   7.862   5.600
13440TIP3   OH240260   1.973   3.935   3.463
13440TIP3    H140261   1.991   3.852   3.420
13440TIP3    H240262   1.926   3.911   3.543
13441TIP3   OH240263   1.735   6.859   2.643
13441TIP3    H140264   1.706   6.768   2.647
13441TIP3    H240265   1.805   6.865   2.708
13442TIP3   OH240266   7.690   5.340   5.260
13442TIP3    H140267   7.709   5.305   5.347
13442TIP3    H240268   7.627   5.410   5.276
13443TIP3   OH240269   3.605   1.092   4.031
13443TIP3    H140270   3.695   1.067   4.011
13443TIP3    H240271   3.596   1.077   4.125
13444TIP3   OH240272   7.825   6.129   3.096
13444TIP3    H140273   7.744   6.177   3.112
13444TIP3    H240274   7.860   6.112   3.183
13445TIP3   OH240275   0.819   0.347   1.385
13445TIP3    H140276   0.753   0.357   1.317
13445TIP3    H240277   0.902   0.341   1.337
13446TIP3   OH240278   1.665   1.509   3.218
13446TIP3    H140279   1.607   1.458   3.162
13446TIP3    H240280   1.609   1.541   3.288
13447TIP3   OH240281   7.191   6.139   3.202
13447TIP3    H140282   7.168   6.196   3.276
13447TIP3    H240283   7.273   6.098   3.227
13448TIP3   OH240284   3.436   1.289   6.641
13448TIP3    H140285   3.481   1.320   6.562
13448TIP3    H240286   3.507   1.277   6.705
13449TIP3   OH240287   4.433   4.489   6.260
13449TIP3    H140288   4.347   4.504   6.223
13449TIP3    H240289   4.494   4.500   6.187
13450TIP3   OH240290   3.844   5.258   1.420
13450TIP3    H140291   3.803   5.238   1.504
13450TIP3    H240292   3.847   5.354   1.417
13451TIP3   OH240293   2.085   6.799   1.729
13451TIP3    H140294   2.151   6.865   1.748
13451TIP3    H240295   2.002   6.840   1.753
13452TIP3   OH240296   5.931   3.734   5.170
13452TIP3    H140297   5.886   3.653   5.147
13452TIP3    H240298   5.897   3.799   5.108
13453TIP3   OH240299   1.916   4.045   6.857
13453TIP3    H140300   1.881   3.958   6.839
13453TIP3    H240301   1.900   4.095   6.777
13454TIP3   OH240302   7.606   5.039   0.576
13454TIP3    H140303   7.671   5.104   0.549
13454TIP3    H240304   7.575   5.001   0.494
13455TIP3   OH240305   2.243   0.128   2.654
13455TIP3    H140306   2.198   0.049   2.623
13455TIP3    H240307   2.330   0.098   2.680
13456TIP3   OH240308   3.325   4.337   4.836
13456TIP3    H140309   3.344   4.355   4.928
13456TIP3    H240310   3.370   4.406   4.787
13457TIP3   OH240311   0.860   7.899   5.284
13457TIP3    H140312   0.913   7.978   5.278
13457TIP3    H240313   0.920   7.828   5.266
13458TIP3   OH240314   7.437   6.937   0.309
13458TIP3    H140315   7.498   6.864   0.319
13458TIP3    H240316   7.455   6.993   0.385
13459TIP3   OH240317   3.172   0.344   6.227
13459TIP3    H140318   3.220   0.298   6.158
13459TIP3    H240319   3.205   0.433   6.224
13460TIP3   OH240320   2.116   0.671   2.688
13460TIP3    H140321   2.023   0.676   2.665
13460TIP3    H240322   2.159   0.646   2.607
13461TIP3   OH240323   5.431   0.493   0.403
13461TIP3    H140324   5.399   0.413   0.361
13461TIP3    H240325   5.526   0.482   0.409
13462TIP3   OH240326   0.996   0.550   5.051
13462TIP3    H140327   0.974   0.543   5.144
13462TIP3    H240328   0.942   0.484   5.008
13463TIP3   OH240329   3.321   6.390   5.477
13463TIP3    H140330   3.308   6.485   5.481
13463TIP3    H240331   3.237   6.356   5.447
13464TIP3   OH240332   1.663   6.115   2.973
13464TIP3    H140333   1.753   6.132   2.945
13464TIP3    H240334   1.642   6.186   3.033
13465TIP3   OH240335   3.264   3.488   1.040
13465TIP3    H140336   3.210   3.531   0.974
13465TIP3    H240337   3.285   3.403   1.003
13466TIP3   OH240338   5.544   7.415   2.319
13466TIP3    H140339   5.629   7.372   2.320
13466TIP3    H240340   5.542   7.463   2.236
13467TIP3   OH240341   4.779   2.166   3.050
13467TIP3    H140342   4.869   2.147   3.074
13467TIP3    H240343   4.779   2.260   3.030
13468TIP3   OH240344   1.546   3.938   4.003
13468TIP3    H140345   1.511   3.909   3.918
13468TIP3    H240346   1.624   3.883   4.016
13469TIP3   OH240347   1.387   6.210   6.456
13469TIP3    H140348   1.294   6.215   6.431
13469TIP3    H240349   1.412   6.119   6.437
13470TIP3   OH240350   4.079   0.092   4.629
13470TIP3    H140351   4.062   0.153   4.701
13470TIP3    H240352   4.149   0.133   4.579
13471TIP3   OH240353   3.035   4.634   6.304
13471TIP3    H140354   2.968   4.691   6.265
13471TIP3    H240355   3.096   4.616   6.232
13472TIP3   OH240356   4.404   5.862   3.010
13472TIP3    H140357   4.434   5.820   2.929
13472TIP3    H240358   4.435   5.803   3.079
13473TIP3   OH240359   1.203   6.015   4.915
13473TIP3    H140360   1.134   5.960   4.878
13473TIP3    H240361   1.205   5.992   5.007
13474TIP3   OH240362   4.080   3.363   3.736
13474TIP3    H140363   4.160   3.394   3.777
13474TIP3    H240364   4.069   3.274   3.767
13475TIP3   OH240365   7.923   1.680   1.391
13475TIP3    H140366   7.922   1.754   1.330
13475TIP3    H240367   7.931   1.720   1.477
13476TIP3   OH240368   6.210   3.470   3.109
13476TIP3    H140369   6.282   3.410   3.087
13476TIP3    H240370   6.152   3.465   3.033
13477TIP3   OH240371   2.478   0.239   6.305
13477TIP3    H140372   2.535   0.293   6.249
13477TIP3    H240373   2.454   0.296   6.378
13478TIP3   OH240374   6.880   3.541   2.099
13478TIP3    H140375   6.815   3.604   2.129
13478TIP3    H240376   6.957   3.595   2.077
13479TIP3   OH240377   8.132   7.713   2.961
13479TIP3    H140378   8.059   7.671   3.006
13479TIP3    H240379   8.189   7.743   3.032
13480TIP3   OH240380   1.938   0.812   6.647
13480TIP3    H140381   2.005   0.872   6.679
13480TIP3    H240382   1.870   0.869   6.610
13481TIP3   OH240383   0.750   3.689   4.391
13481TIP3    H140384   0.727   3.621   4.453
13481TIP3    H240385   0.831   3.657   4.350
13482TIP3   OH240386   3.673   5.440   4.955
13482TIP3    H140387   3.679   5.396   5.039
13482TIP3    H240388   3.611   5.511   4.970
13483TIP3   OH240389   5.757   2.527   2.522
13483TIP3    H140390   5.781   2.443   2.560
13483TIP3    H240391   5.667   2.513   2.491
13484TIP3   OH240392   0.354   2.625   4.784
13484TIP3    H140393   0.280   2.567   4.772
13484TIP3    H240394   0.371   2.623   4.879
13485TIP3   OH240395   1.243   2.182   5.088
13485TIP3    H140396   1.195   2.108   5.125
13485TIP3    H240397   1.327   2.182   5.133
13486TIP3   OH240398   5.675   1.016   1.055
13486TIP3    H140399   5.628   1.017   0.972
13486TIP3    H240400   5.688   0.923   1.075
13487TIP3   OH240401   6.453   7.764   4.227
13487TIP3    H140402   6.448   7.785   4.133
13487TIP3    H240403   6.388   7.821   4.268
13488TIP3   OH240404   3.380   2.641   1.374
13488TIP3    H140405   3.470   2.649   1.407
13488TIP3    H240406   3.376   2.551   1.340
13489TIP3   OH240407   3.108   7.143   6.743
13489TIP3    H140408   3.133   7.141   6.651
13489TIP3    H240409   3.172   7.201   6.784
13490TIP3   OH240410   0.237   2.394   6.025
13490TIP3    H140411   0.218   2.314   5.975
13490TIP3    H240412   0.151   2.434   6.039
13491TIP3   OH240413   0.275   7.764   5.631
13491TIP3    H140414   0.260   7.855   5.654
13491TIP3    H240415   0.243   7.756   5.541
13492TIP3   OH240416   6.015   6.706   0.190
13492TIP3    H140417   5.968   6.647   0.248
13492TIP3    H240418   5.964   6.707   0.109
13493TIP3   OH240419   4.230   2.594   6.014
13493TIP3    H140420   4.150   2.647   6.021
13493TIP3    H240421   4.219   2.543   5.934
13494TIP3   OH240422   6.829   4.088   2.900
13494TIP3    H140423   6.793   3.999   2.893
13494TIP3    H240424   6.920   4.079   2.871
13495TIP3   OH240425   5.970   2.216   4.733
13495TIP3    H140426   5.922   2.172   4.803
13495TIP3    H240427   6.054   2.238   4.771
13496TIP3   OH240428   0.773   1.542   0.545
13496TIP3    H140429   0.708   1.560   0.477
13496TIP3    H240430   0.793   1.629   0.582
13497TIP3   OH240431   3.883   4.427   0.238
13497TIP3    H140432   3.920   4.459   0.320
13497TIP3    H240433   3.820   4.494   0.212
13498TIP3   OH240434   7.637   3.938   1.508
13498TIP3    H140435   7.693   4.012   1.486
13498TIP3    H240436   7.548   3.967   1.485
13499TIP3   OH240437   4.707   2.229   2.355
13499TIP3    H140438   4.677   2.183   2.277
13499TIP3    H240439   4.715   2.321   2.328
13500TIP3   OH240440   0.593   2.907   3.279
13500TIP3    H140441   0.557   2.995   3.264
13500TIP3    H240442   0.682   2.911   3.244
13501TIP3   OH240443   6.144   4.690   2.706
13501TIP3    H140444   6.110   4.779   2.706
13501TIP3    H240445   6.090   4.643   2.643
13502TIP3   OH240446   5.101   5.042   2.258
13502TIP3    H140447   5.080   5.128   2.220
13502TIP3    H240448   5.121   4.987   2.183
13503TIP3   OH240449   0.322   7.828   0.184
13503TIP3    H140450   0.274   7.904   0.214
13503TIP3    H240451   0.391   7.815   0.250
13504TIP3   OH240452   6.848   5.015   0.943
13504TIP3    H140453   6.824   4.929   0.908
13504TIP3    H240454   6.786   5.076   0.903
13505TIP3   OH240455   7.715   5.122   5.803
13505TIP3    H140456   7.683   5.211   5.791
13505TIP3    H240457   7.811   5.132   5.808
13506TIP3   OH240458   6.764   3.345   2.277
13506TIP3    H140459   6.820   3.402   2.224
13506TIP3    H240460   6.825   3.287   2.323
13507TIP3   OH240461   5.200   0.435   3.162
13507TIP3    H140462   5.229   0.387   3.085
13507TIP3    H240463   5.144   0.372   3.209
13508TIP3   OH240464   6.449   3.352   3.045
13508TIP3    H140465   6.527   3.372   3.097
13508TIP3    H240466   6.463   3.262   3.016
13509TIP3   OH240467   5.437   3.536   6.114
13509TIP3    H140468   5.531   3.519   6.103
13509TIP3    H240469   5.433   3.606   6.178
13510TIP3   OH240470   4.821   0.112   2.462
13510TIP3    H140471   4.908   0.122   2.423
13510TIP3    H240472   4.761   0.124   2.389
13511TIP3   OH240473   4.783   6.722   2.646
13511TIP3    H140474   4.769   6.630   2.623
13511TIP3    H240475   4.782   6.723   2.742
13512TIP3   OH240476   4.382   4.529   5.407
13512TIP3    H140477   4.472   4.508   5.430
13512TIP3    H240478   4.350   4.451   5.361
13513TIP3   OH240479   6.213   6.055   5.126
13513TIP3    H140480   6.138   6.072   5.183
13513TIP3    H240481   6.254   6.141   5.114
13514TIP3   OH240482   2.752   0.347   3.415
13514TIP3    H140483   2.683   0.303   3.366
13514TIP3    H240484   2.785   0.414   3.355
13515TIP3   OH240485   5.424   6.598   0.680
13515TIP3    H140486   5.400   6.690   0.667
13515TIP3    H240487   5.426   6.587   0.775
13516TIP3   OH240488   2.233   4.277   3.469
13516TIP3    H140489   2.227   4.250   3.560
13516TIP3    H240490   2.317   4.242   3.439
13517TIP3   OH240491   1.794   7.697   4.194
13517TIP3    H140492   1.857   7.625   4.181
13517TIP3    H240493   1.723   7.678   4.133
13518TIP3   OH240494   3.856   4.183   3.630
13518TIP3    H140495   3.910   4.255   3.596
13518TIP3    H240496   3.918   4.112   3.645
13519TIP3   OH240497   7.137   3.523   3.223
13519TIP3    H140498   7.102   3.537   3.312
13519TIP3    H240499   7.151   3.429   3.217
13520TIP3   OH240500   4.388   2.494   4.519
13520TIP3    H140501   4.458   2.449   4.565
13520TIP3    H240502   4.423   2.512   4.432
13521TIP3   OH240503   5.888   3.857   3.319
13521TIP3    H140504   5.926   3.830   3.235
13521TIP3    H240505   5.888   3.953   3.314
13522TIP3   OH240506   5.380   4.703   3.476
13522TIP3    H140507   5.285   4.698   3.466
13522TIP3    H240508   5.395   4.786   3.521
13523TIP3   OH240509   1.333   6.459   1.118
13523TIP3    H140510   1.325   6.388   1.055
13523TIP3    H240511   1.373   6.531   1.069
13524TIP3   OH240512   6.248   6.961   5.104
13524TIP3    H140513   6.301   6.948   5.026
13524TIP3    H240514   6.311   6.986   5.172
13525TIP3   OH240515   0.195   2.234   1.801
13525TIP3    H140516   0.187   2.168   1.731
13525TIP3    H240517   0.105   2.249   1.830
13526TIP3   OH240518   3.360   7.295   0.642
13526TIP3    H140519   3.439   7.347   0.651
13526TIP3    H240520   3.391   7.207   0.622
13527TIP3   OH240521   2.858   0.574   3.237
13527TIP3    H140522   2.838   0.605   3.149
13527TIP3    H240523   2.803   0.627   3.295
13528TIP3   OH240524   8.042   1.770   5.884
13528TIP3    H140525   7.977   1.832   5.851
13528TIP3    H240526   8.011   1.685   5.854
13529TIP3   OH240527   1.417   3.220   6.212
13529TIP3    H140528   1.449   3.141   6.256
13529TIP3    H240529   1.345   3.251   6.268
13530TIP3   OH240530   6.052   7.822   4.924
13530TIP3    H140531   6.074   7.763   4.851
13530TIP3    H240532   6.076   7.773   5.003
13531TIP3   OH240533   5.957   0.718   5.222
13531TIP3    H140534   5.902   0.641   5.206
13531TIP3    H240535   6.047   0.687   5.212
13532TIP3   OH240536   5.914   3.115   4.097
13532TIP3    H140537   5.873   3.039   4.055
13532TIP3    H240538   6.000   3.083   4.125
13533TIP3   OH240539   7.408   1.364   5.240
13533TIP3    H140540   7.318   1.372   5.272
13533TIP3    H240541   7.456   1.323   5.312
13534TIP3   OH240542   6.369   4.531   0.524
13534TIP3    H140543   6.355   4.625   0.514
13534TIP3    H240544   6.302   4.491   0.469
13535TIP3   OH240545   7.752   4.426   5.026
13535TIP3    H140546   7.728   4.341   5.063
13535TIP3    H240547   7.799   4.406   4.946
13536TIP3   OH240548   4.520   0.833   2.623
13536TIP3    H140549   4.489   0.766   2.561
13536TIP3    H240550   4.609   0.806   2.645
13537TIP3   OH240551   0.588   0.409   5.149
13537TIP3    H140552   0.584   0.323   5.107
13537TIP3    H240553   0.563   0.471   5.080
13538TIP3   OH240554   2.052   3.453   4.505
13538TIP3    H140555   2.028   3.516   4.437
13538TIP3    H240556   2.033   3.498   4.587
13539TIP3   OH240557   5.747   2.971   0.372
13539TIP3    H140558   5.653   2.971   0.358
13539TIP3    H240559   5.771   3.064   0.376
13540TIP3   OH240560   4.460   0.605   5.004
13540TIP3    H140561   4.385   0.631   5.057
13540TIP3    H240562   4.465   0.510   5.015
13541TIP3   OH240563   6.704   7.850   3.395
13541TIP3    H140564   6.764   7.807   3.333
13541TIP3    H240565   6.649   7.906   3.341
13542TIP3   OH240566   6.423   2.212   3.170
13542TIP3    H140567   6.407   2.132   3.120
13542TIP3    H240568   6.336   2.245   3.191
13543TIP3   OH240569   4.420   3.655   3.967
13543TIP3    H140570   4.384   3.703   3.892
13543TIP3    H240571   4.440   3.723   4.032
13544TIP3   OH240572   1.410   7.589   0.626
13544TIP3    H140573   1.378   7.527   0.691
13544TIP3    H240574   1.505   7.573   0.621
13545TIP3   OH240575   2.442   7.939   3.893
13545TIP3    H140576   2.448   7.844   3.891
13545TIP3    H240577   2.386   7.959   3.968
13546TIP3   OH240578   5.213   6.712   0.061
13546TIP3    H140579   5.175   6.798   0.082
13546TIP3    H240580   5.304   6.731   0.037
13547TIP3   OH240581   3.274   7.120   6.153
13547TIP3    H140582   3.275   7.024   6.147
13547TIP3    H240583   3.183   7.142   6.171
13548TIP3   OH240584   5.186   7.465   4.738
13548TIP3    H140585   5.201   7.378   4.778
13548TIP3    H240586   5.216   7.527   4.805
13549TIP3   OH240587   0.121   4.695   2.119
13549TIP3    H140588   0.114   4.790   2.124
13549TIP3    H240589   0.180   4.680   2.045
13550TIP3   OH240590   8.199   4.456   3.982
13550TIP3    H140591   8.131   4.511   4.022
13550TIP3    H240592   8.157   4.421   3.903
13551TIP3   OH240593   5.872   6.234   2.622
13551TIP3    H140594   5.935   6.189   2.677
13551TIP3    H240595   5.906   6.323   2.614
13552TIP3   OH240596   1.345   6.324   5.785
13552TIP3    H140597   1.335   6.289   5.696
13552TIP3    H240598   1.423   6.280   5.819
13553TIP3   OH240599   1.948   1.727   2.917
13553TIP3    H140600   1.942   1.672   2.839
13553TIP3    H240601   1.878   1.791   2.907
13554TIP3   OH240602   4.174   0.339   1.929
13554TIP3    H140603   4.224   0.264   1.961
13554TIP3    H240604   4.229   0.415   1.950
13555TIP3   OH240605   3.443   1.938   3.035
13555TIP3    H140606   3.350   1.925   3.013
13555TIP3    H240607   3.443   1.960   3.128
13556TIP3   OH240608   3.977   0.819   3.526
13556TIP3    H140609   3.914   0.774   3.582
13556TIP3    H240610   4.007   0.752   3.465
13557TIP3   OH240611   6.272   2.724   4.583
13557TIP3    H140612   6.366   2.704   4.581
13557TIP3    H240613   6.252   2.753   4.494
13558TIP3   OH240614   2.419   7.654   2.494
13558TIP3    H140615   2.480   7.723   2.519
13558TIP3    H240616   2.475   7.579   2.474
13559TIP3   OH240617   2.775   0.331   1.528
13559TIP3    H140618   2.802   0.352   1.618
13559TIP3    H240619   2.836   0.264   1.500
13560TIP3   OH240620   0.487   1.867   2.915
13560TIP3    H140621   0.553   1.914   2.965
13560TIP3    H240622   0.523   1.862   2.827
13561TIP3   OH240623   5.558   7.470   4.333
13561TIP3    H140624   5.508   7.495   4.256
13561TIP3    H240625   5.610   7.395   4.306
13562TIP3   OH240626   8.376   0.815   2.608
13562TIP3    H140627   8.424   0.894   2.580
13562TIP3    H240628   8.435   0.743   2.585
13563TIP3   OH240629   2.090   1.533   4.134
13563TIP3    H140630   2.146   1.476   4.082
13563TIP3    H240631   2.072   1.484   4.214
13564TIP3   OH240632   5.286   4.246   6.559
13564TIP3    H140633   5.267   4.159   6.523
13564TIP3    H240634   5.354   4.281   6.501
13565TIP3   OH240635   2.659   1.337   4.613
13565TIP3    H140636   2.620   1.317   4.698
13565TIP3    H240637   2.735   1.279   4.608
13566TIP3   OH240638   1.934   2.470   2.733
13566TIP3    H140639   1.866   2.466   2.665
13566TIP3    H240640   1.941   2.563   2.754
13567TIP3   OH240641   2.099   1.342   1.072
13567TIP3    H140642   2.139   1.425   1.049
13567TIP3    H240643   2.154   1.307   1.143
13568TIP3   OH240644   1.869   4.206   6.625
13568TIP3    H140645   1.853   4.228   6.533
13568TIP3    H240646   1.932   4.272   6.655
13569TIP3   OH240647   6.748   6.750   6.433
13569TIP3    H140648   6.736   6.690   6.360
13569TIP3    H240649   6.836   6.732   6.465
13570TIP3   OH240650   7.430   2.557   4.174
13570TIP3    H140651   7.341   2.562   4.209
13570TIP3    H240652   7.484   2.539   4.251
13571TIP3   OH240653   4.641   3.082   2.431
13571TIP3    H140654   4.551   3.061   2.457
13571TIP3    H240655   4.688   3.093   2.514
13572TIP3   OH240656   0.074   1.913   0.041
13572TIP3    H140657   0.017   1.861   0.098
13572TIP3    H240658   0.081   1.861  -0.038
13573TIP3   OH240659   3.390   3.227   5.657
13573TIP3    H140660   3.366   3.249   5.747
13573TIP3    H240661   3.341   3.288   5.603
13574TIP3   OH240662   5.111   7.395   6.382
13574TIP3    H140663   5.063   7.463   6.334
13574TIP3    H240664   5.091   7.314   6.335
13575TIP3   OH240665   6.008   7.789   3.410
13575TIP3    H140666   6.079   7.735   3.446
13575TIP3    H240667   5.928   7.744   3.435
13576TIP3   OH240668   1.582   5.610   5.798
13576TIP3    H140669   1.580   5.704   5.813
13576TIP3    H240670   1.559   5.571   5.883
13577TIP3   OH240671   4.019   4.443   2.018
13577TIP3    H140672   4.094   4.428   2.075
13577TIP3    H240673   4.012   4.539   2.012
13578TIP3   OH240674   4.756   7.840   3.511
13578TIP3    H140675   4.670   7.880   3.499
13578TIP3    H240676   4.793   7.837   3.423
13579TIP3   OH240677   2.964   2.204   1.480
13579TIP3    H140678   3.011   2.247   1.551
13579TIP3    H240679   2.924   2.276   1.431
13580TIP3   OH240680   8.000   0.898   3.210
13580TIP3    H140681   8.022   0.983   3.172
13580TIP3    H240682   8.022   0.907   3.303
13581TIP3   OH240683   2.328   5.291   2.136
13581TIP3    H140684   2.322   5.348   2.060
13581TIP3    H240685   2.389   5.336   2.195
13582TIP3   OH240686  -0.015   0.368   1.787
13582TIP3    H140687  -0.006   0.445   1.732
13582TIP3    H240688  -0.090   0.321   1.750
13583TIP3   OH240689   2.836   6.166   5.759
13583TIP3    H140690   2.790   6.232   5.707
13583TIP3    H240691   2.882   6.112   5.695
13584TIP3   OH240692   1.061   4.148   2.044
13584TIP3    H140693   1.041   4.058   2.067
13584TIP3    H240694   1.001   4.201   2.096
13585TIP3   OH240695   4.491   0.261   6.855
13585TIP3    H140696   4.447   0.178   6.871
13585TIP3    H240697   4.432   0.327   6.892
13586TIP3   OH240698   7.649   0.767   3.379
13586TIP3    H140699   7.694   0.754   3.295
13586TIP3    H240700   7.707   0.728   3.444
13587TIP3   OH240701   3.630   1.380   4.546
13587TIP3    H140702   3.663   1.410   4.461
13587TIP3    H240703   3.543   1.347   4.527
13588TIP3   OH240704   6.155   3.739   3.099
13588TIP3    H140705   6.086   3.755   3.035
13588TIP3    H240706   6.174   3.646   3.092
13589TIP3   OH240707   3.000   1.558   2.211
13589TIP3    H140708   3.074   1.619   2.215
13589TIP3    H240709   3.037   1.474   2.240
13590TIP3   OH240710   7.402   3.415   3.763
13590TIP3    H140711   7.436   3.409   3.673
13590TIP3    H240712   7.379   3.508   3.774
13591TIP3   OH240713   7.635   2.481   4.345
13591TIP3    H140714   7.706   2.511   4.401
13591TIP3    H240715   7.678   2.441   4.269
13592TIP3   OH240716   7.501   5.450   6.832
13592TIP3    H140717   7.447   5.463   6.910
13592TIP3    H240718   7.527   5.358   6.835
13593TIP3   OH240719   2.810   2.080   3.686
13593TIP3    H140720   2.750   2.051   3.617
13593TIP3    H240721   2.823   2.002   3.741
13594TIP3   OH240722   7.015   6.247   5.374
13594TIP3    H140723   6.926   6.262   5.407
13594TIP3    H240724   7.058   6.333   5.380
13595TIP3   OH240725   2.296   6.520   2.564
13595TIP3    H140726   2.391   6.535   2.564
13595TIP3    H240727   2.271   6.525   2.656
13596TIP3   OH240728   8.213   7.862   5.359
13596TIP3    H140729   8.141   7.828   5.306
13596TIP3    H240730   8.247   7.786   5.405
13597TIP3   OH240731   7.092   2.925   1.879
13597TIP3    H140732   7.008   2.955   1.845
13597TIP3    H240733   7.082   2.830   1.889
13598TIP3   OH240734   6.890   3.047   5.101
13598TIP3    H140735   6.938   3.037   5.184
13598TIP3    H240736   6.938   3.115   5.054
13599TIP3   OH240737   2.244   7.024   2.685
13599TIP3    H140738   2.162   7.016   2.734
13599TIP3    H240739   2.289   6.941   2.701
13600TIP3   OH240740   0.667   6.332   5.476
13600TIP3    H140741   0.609   6.407   5.493
13600TIP3    H240742   0.607   6.258   5.464
13601TIP3   OH240743   5.228   6.025   0.934
13601TIP3    H140744   5.291   6.090   0.902
13601TIP3    H240745   5.173   6.075   0.994
13602TIP3   OH240746   2.020   3.239   3.849
13602TIP3    H140747   2.028   3.256   3.943
13602TIP3    H240748   2.110   3.232   3.818
13603TIP3   OH240749   5.353   1.151   5.733
13603TIP3    H140750   5.362   1.238   5.695
13603TIP3    H240751   5.286   1.108   5.680
13604TIP3   OH240752   6.263   4.505   2.454
13604TIP3    H140753   6.171   4.519   2.473
13604TIP3    H240754   6.301   4.477   2.537
13605TIP3   OH240755   5.408   2.621   1.972
13605TIP3    H140756   5.401   2.707   1.929
13605TIP3    H240757   5.414   2.559   1.899
13606TIP3   OH240758   8.277   0.919   0.935
13606TIP3    H140759   8.278   0.832   0.896
13606TIP3    H240760   8.368   0.948   0.933
13607TIP3   OH240761   8.384   6.280   2.974
13607TIP3    H140762   8.383   6.196   3.021
13607TIP3    H240763   8.343   6.261   2.890
13608TIP3   OH240764   0.162   1.073   4.349
13608TIP3    H140765   0.149   0.978   4.341
13608TIP3    H240766   0.141   1.091   4.441
13609TIP3   OH240767   0.669   2.294   3.073
13609TIP3    H140768   0.735   2.346   3.027
13609TIP3    H240769   0.699   2.294   3.164
13610TIP3   OH240770   0.382   2.567   2.614
13610TIP3    H140771   0.363   2.627   2.542
13610TIP3    H240772   0.476   2.551   2.608
13611TIP3   OH240773   0.914   4.994   5.360
13611TIP3    H140774   0.847   5.029   5.301
13611TIP3    H240775   0.997   5.027   5.324
13612TIP3   OH240776   2.971   1.840   0.544
13612TIP3    H140777   2.963   1.751   0.577
13612TIP3    H240778   2.954   1.832   0.450
13613TIP3   OH240779   1.256   4.177   3.031
13613TIP3    H140780   1.179   4.194   3.086
13613TIP3    H240781   1.221   4.128   2.956
13614TIP3   OH240782   2.682   3.751   5.483
13614TIP3    H140783   2.599   3.752   5.436
13614TIP3    H240784   2.743   3.709   5.423
13615TIP3   OH240785   4.628   7.362   3.947
13615TIP3    H140786   4.635   7.429   3.880
13615TIP3    H240787   4.590   7.286   3.902
13616TIP3   OH240788   3.945   6.630   4.634
13616TIP3    H140789   3.899   6.608   4.553
13616TIP3    H240790   3.910   6.716   4.659
13617TIP3   OH240791   0.702   3.863   0.403
13617TIP3    H140792   0.633   3.927   0.421
13617TIP3    H240793   0.732   3.834   0.490
13618TIP3   OH240794   3.269   1.215   3.624
13618TIP3    H140795   3.262   1.281   3.693
13618TIP3    H240796   3.213   1.143   3.654
13619TIP3   OH240797   2.944   5.949   6.465
13619TIP3    H140798   2.978   6.033   6.434
13619TIP3    H240799   2.967   5.887   6.395
13620TIP3   OH240800   4.486   2.598   4.835
13620TIP3    H140801   4.536   2.649   4.772
13620TIP3    H240802   4.500   2.507   4.809
13621TIP3   OH240803   8.038   4.687   4.026
13621TIP3    H140804   7.977   4.728   4.086
13621TIP3    H240805   8.001   4.702   3.939
13622TIP3   OH240806   1.208   2.693   5.104
13622TIP3    H140807   1.223   2.713   5.012
13622TIP3    H240808   1.240   2.771   5.151
13623TIP3   OH240809   3.491   4.512   2.968
13623TIP3    H140810   3.397   4.509   2.984
13623TIP3    H240811   3.511   4.431   2.921
13624TIP3   OH240812   5.410   4.932   5.149
13624TIP3    H140813   5.388   5.025   5.152
13624TIP3    H240814   5.455   4.916   5.232
13625TIP3   OH240815   6.586   0.430   5.840
13625TIP3    H140816   6.505   0.384   5.864
13625TIP3    H240817   6.623   0.378   5.769
13626TIP3   OH240818   4.000   4.872   5.507
13626TIP3    H140819   3.949   4.952   5.521
13626TIP3    H240820   3.934   4.803   5.496
13627TIP3   OH240821   1.864   0.570   4.396
13627TIP3    H140822   1.924   0.576   4.321
13627TIP3    H240823   1.805   0.645   4.385
13628TIP3   OH240824   3.946   4.731   1.967
13628TIP3    H140825   4.002   4.802   1.999
13628TIP3    H240826   3.874   4.727   2.031
13629TIP3   OH240827   3.563   7.535   1.762
13629TIP3    H140828   3.572   7.455   1.814
13629TIP3    H240829   3.653   7.560   1.742
13630TIP3   OH240830   3.136   3.270   4.508
13630TIP3    H140831   3.169   3.353   4.474
13630TIP3    H240832   3.055   3.254   4.460
13631TIP3   OH240833   0.615   6.273   3.390
13631TIP3    H140834   0.532   6.310   3.358
13631TIP3    H240835   0.613   6.181   3.364
13632TIP3   OH240836   2.608   5.658   3.625
13632TIP3    H140837   2.609   5.617   3.538
13632TIP3    H240838   2.689   5.709   3.628
13633TIP3   OH240839   7.515   3.183   5.083
13633TIP3    H140840   7.562   3.108   5.118
13633TIP3    H240841   7.431   3.182   5.128
13634TIP3   OH240842   3.524   1.344   2.917
13634TIP3    H140843   3.526   1.363   2.823
13634TIP3    H240844   3.595   1.280   2.930
13635TIP3   OH240845   0.347   7.843   1.552
13635TIP3    H140846   0.306   7.843   1.639
13635TIP3    H240847   0.438   7.869   1.568
13636TIP3   OH240848   1.750   4.796   1.415
13636TIP3    H140849   1.756   4.701   1.422
13636TIP3    H240850   1.839   4.827   1.428
13637TIP3   OH240851   2.811   3.949   1.840
13637TIP3    H140852   2.772   3.875   1.793
13637TIP3    H240853   2.838   4.010   1.770
13638TIP3   OH240854   4.553   1.268   3.593
13638TIP3    H140855   4.566   1.175   3.612
13638TIP3    H240856   4.502   1.269   3.511
13639TIP3   OH240857   4.615   6.364   0.052
13639TIP3    H140858   4.582   6.386   0.139
13639TIP3    H240859   4.651   6.276   0.062
13640TIP3   OH240860   8.017   1.372   0.170
13640TIP3    H140861   7.986   1.281   0.165
13640TIP3    H240862   7.944   1.420   0.209
13641TIP3   OH240863   6.601   7.749   2.516
13641TIP3    H140864   6.635   7.716   2.599
13641TIP3    H240865   6.624   7.842   2.516
13642TIP3   OH240866   5.728   2.114   5.762
13642TIP3    H140867   5.682   2.040   5.723
13642TIP3    H240868   5.770   2.077   5.840
13643TIP3   OH240869   1.270   3.114   5.732
13643TIP3    H140870   1.270   3.090   5.824
13643TIP3    H240871   1.180   3.139   5.713
13644TIP3   OH240872   4.383   5.928   4.038
13644TIP3    H140873   4.390   5.938   3.943
13644TIP3    H240874   4.473   5.911   4.066
13645TIP3   OH240875   4.799   3.348   3.048
13645TIP3    H140876   4.789   3.441   3.026
13645TIP3    H240877   4.879   3.321   3.002
13646TIP3   OH240878   4.821   6.180   0.251
13646TIP3    H140879   4.755   6.130   0.297
13646TIP3    H240880   4.819   6.146   0.161
13647TIP3   OH240881   7.659   5.617   2.539
13647TIP3    H140882   7.585   5.629   2.479
13647TIP3    H240883   7.646   5.529   2.575
13648TIP3   OH240884   7.109   7.595   2.506
13648TIP3    H140885   7.130   7.665   2.568
13648TIP3    H240886   7.144   7.626   2.423
13649TIP3   OH240887   1.148   0.479   2.981
13649TIP3    H140888   1.076   0.534   3.010
13649TIP3    H240889   1.216   0.491   3.047
13650TIP3   OH240890   5.284   4.176   2.566
13650TIP3    H140891   5.197   4.147   2.540
13650TIP3    H240892   5.338   4.163   2.487
13651TIP3   OH240893   7.305   1.494   2.503
13651TIP3    H140894   7.386   1.456   2.536
13651TIP3    H240895   7.236   1.448   2.550
13652TIP3   OH240896   1.155   7.381   0.206
13652TIP3    H140897   1.144   7.355   0.297
13652TIP3    H240898   1.198   7.305   0.165
13653TIP3   OH240899   4.395   1.930   0.363
13653TIP3    H140900   4.322   1.867   0.368
13653TIP3    H240901   4.452   1.894   0.295
13654TIP3   OH240902   7.069   0.838   4.727
13654TIP3    H140903   7.037   0.753   4.758
13654TIP3    H240904   7.118   0.818   4.648
13655TIP3   OH240905   3.817   7.935   5.752
13655TIP3    H140906   3.900   7.893   5.727
13655TIP3    H240907   3.751   7.870   5.727
13656TIP3   OH240908   6.410   5.179   3.520
13656TIP3    H140909   6.331   5.199   3.469
13656TIP3    H240910   6.392   5.216   3.606
13657TIP3   OH240911   4.224   0.382   4.944
13657TIP3    H140912   4.158   0.315   4.927
13657TIP3    H240913   4.207   0.449   4.878
13658TIP3   OH240914   7.797   3.250   1.279
13658TIP3    H140915   7.742   3.179   1.312
13658TIP3    H240916   7.737   3.304   1.227
13659TIP3   OH240917   7.980   6.700   4.070
13659TIP3    H140918   8.034   6.661   4.001
13659TIP3    H240919   7.963   6.789   4.038
13660TIP3   OH240920   0.055   1.440   0.209
13660TIP3    H140921   0.113   1.472   0.278
13660TIP3    H240922   0.102   1.366   0.171
13661TIP3   OH240923   6.333   1.414   2.815
13661TIP3    H140924   6.428   1.421   2.801
13661TIP3    H240925   6.322   1.431   2.909
13662TIP3   OH240926   6.179   7.281   4.334
13662TIP3    H140927   6.222   7.314   4.412
13662TIP3    H240928   6.241   7.218   4.297
13663TIP3   OH240929   4.254   0.785   3.522
13663TIP3    H140930   4.160   0.794   3.508
13663TIP3    H240931   4.279   0.866   3.566
13664TIP3   OH240932   4.476   4.877   2.891
13664TIP3    H140933   4.460   4.786   2.865
13664TIP3    H240934   4.493   4.923   2.809
13665TIP3   OH240935   4.487   7.226   1.234
13665TIP3    H140936   4.431   7.301   1.255
13665TIP3    H240937   4.550   7.222   1.306
13666TIP3   OH240938   4.023   6.801   3.705
13666TIP3    H140939   4.118   6.816   3.701
13666TIP3    H240940   4.012   6.736   3.775
13667TIP3   OH240941   6.727   6.069   4.701
13667TIP3    H140942   6.760   5.986   4.666
13667TIP3    H240943   6.802   6.128   4.697
13668TIP3   OH240944   6.626   5.783   3.541
13668TIP3    H140945   6.608   5.786   3.635
13668TIP3    H240946   6.617   5.873   3.512
13669TIP3   OH240947   4.955   5.278   0.166
13669TIP3    H140948   4.953   5.321   0.251
13669TIP3    H240949   4.991   5.344   0.106
13670TIP3   OH240950   2.825   7.280   1.969
13670TIP3    H140951   2.772   7.352   1.935
13670TIP3    H240952   2.894   7.268   1.904
13671TIP3   OH240953   1.100   2.249   2.019
13671TIP3    H140954   1.071   2.297   1.941
13671TIP3    H240955   1.191   2.225   2.000
13672TIP3   OH240956   1.126   5.942   5.968
13672TIP3    H140957   1.160   5.878   5.906
13672TIP3    H240958   1.043   5.905   5.999
13673TIP3   OH240959   6.844   3.857   5.543
13673TIP3    H140960   6.875   3.920   5.609
13673TIP3    H240961   6.895   3.778   5.561
13674TIP3   OH240962   2.790   7.215   6.340
13674TIP3    H140963   2.782   7.166   6.422
13674TIP3    H240964   2.776   7.306   6.366
13675TIP3   OH240965   8.307   1.797   3.262
13675TIP3    H140966   8.321   1.784   3.169
13675TIP3    H240967   8.216   1.826   3.270
13676TIP3   OH240968   0.885   3.334   1.493
13676TIP3    H140969   0.848   3.396   1.430
13676TIP3    H240970   0.829   3.257   1.486
13677TIP3   OH240971   5.215   3.535   1.723
13677TIP3    H140972   5.232   3.489   1.641
13677TIP3    H240973   5.278   3.499   1.784
13678TIP3   OH240974   2.190   2.727   0.287
13678TIP3    H140975   2.229   2.737   0.200
13678TIP3    H240976   2.250   2.772   0.346
13679TIP3   OH240977   4.241   2.405   2.369
13679TIP3    H140978   4.309   2.455   2.414
13679TIP3    H240979   4.288   2.350   2.307
13680TIP3   OH240980   2.437   2.727   4.373
13680TIP3    H140981   2.520   2.774   4.383
13680TIP3    H240982   2.454   2.662   4.305
13681TIP3   OH240983   7.124   7.809   6.521
13681TIP3    H140984   7.050   7.823   6.580
13681TIP3    H240985   7.090   7.834   6.435
13682TIP3   OH240986   3.958   3.353   6.610
13682TIP3    H140987   3.956   3.435   6.660
13682TIP3    H240988   4.044   3.315   6.630
13683TIP3   OH240989   3.690   7.130   2.351
13683TIP3    H140990   3.595   7.120   2.355
13683TIP3    H240991   3.719   7.057   2.296
13684TIP3   OH240992   7.856   4.305   6.165
13684TIP3    H140993   7.861   4.298   6.070
13684TIP3    H240994   7.846   4.399   6.182
13685TIP3   OH240995   0.603   6.177   1.470
13685TIP3    H140996   0.558   6.258   1.447
13685TIP3    H240997   0.547   6.108   1.436
13686TIP3   OH240998   8.119   4.203   1.035
13686TIP3    H140999   8.030   4.169   1.036
13686TIP3    H241000   8.134   4.228   0.943
13687TIP3   OH241001   1.351   0.247   3.308
13687TIP3    H141002   1.283   0.243   3.375
13687TIP3    H241003   1.305   0.234   3.226
13688TIP3   OH241004   4.726   6.752   1.230
13688TIP3    H141005   4.773   6.792   1.303
13688TIP3    H241006   4.700   6.825   1.174
13689TIP3   OH241007   4.685   1.855   5.889
13689TIP3    H141008   4.676   1.942   5.926
13689TIP3    H241009   4.759   1.816   5.936
13690TIP3   OH241010   7.093   5.852   6.206
13690TIP3    H141011   7.041   5.917   6.252
13690TIP3    H241012   7.161   5.827   6.268
13691TIP3   OH241013   3.571   5.770   3.367
13691TIP3    H141014   3.485   5.745   3.334
13691TIP3    H241015   3.580   5.723   3.450
13692TIP3   OH241016   3.203   3.587   0.444
13692TIP3    H141017   3.187   3.678   0.470
13692TIP3    H241018   3.292   3.569   0.474
13693TIP3   OH241019   4.444   0.337   0.881
13693TIP3    H141020   4.407   0.344   0.793
13693TIP3    H241021   4.422   0.248   0.909
13694TIP3   OH241022   7.934   3.841   4.565
13694TIP3    H141023   7.984   3.884   4.495
13694TIP3    H241024   7.881   3.910   4.603
13695TIP3   OH241025   2.124   2.516   4.162
13695TIP3    H141026   2.202   2.543   4.211
13695TIP3    H241027   2.151   2.437   4.116
13696TIP3   OH241028   8.022   2.254   6.039
13696TIP3    H141029   7.985   2.229   6.124
13696TIP3    H241030   8.026   2.350   6.043
13697TIP3   OH241031   2.197   4.231   2.232
13697TIP3    H141032   2.134   4.303   2.236
13697TIP3    H241033   2.277   4.271   2.199
13698TIP3   OH241034   8.025   5.595   4.492
13698TIP3    H141035   7.930   5.603   4.498
13698TIP3    H241036   8.054   5.580   4.582
13699TIP3   OH241037   3.531   0.793   4.021
13699TIP3    H141038   3.582   0.874   4.016
13699TIP3    H241039   3.452   0.817   4.068
13700TIP3   OH241040   1.637   0.922   2.166
13700TIP3    H141041   1.587   0.887   2.239
13700TIP3    H241042   1.606   1.012   2.155
13701TIP3   OH241043   6.443   1.837   0.159
13701TIP3    H141044   6.429   1.762   0.216
13701TIP3    H241045   6.366   1.837   0.101
13702TIP3   OH241046   6.635   6.788   1.253
13702TIP3    H141047   6.598   6.875   1.234
13702TIP3    H241048   6.627   6.741   1.170
13703TIP3   OH241049   8.090   6.553   3.152
13703TIP3    H141050   8.081   6.648   3.151
13703TIP3    H241051   8.067   6.527   3.241
13704TIP3   OH241052   0.929   0.286   5.868
13704TIP3    H141053   0.865   0.338   5.915
13704TIP3    H241054   0.921   0.198   5.904
13705TIP3   OH241055   5.709   2.912   1.902
13705TIP3    H141056   5.721   2.871   1.817
13705TIP3    H241057   5.793   2.952   1.922
13706TIP3   OH241058   6.129   3.807   1.747
13706TIP3    H141059   6.058   3.744   1.761
13706TIP3    H241060   6.173   3.777   1.667
13707TIP3   OH241061   1.282   5.074   0.350
13707TIP3    H141062   1.318   5.150   0.395
13707TIP3    H241063   1.347   5.051   0.284
13708TIP3   OH241064   1.909   3.621   5.305
13708TIP3    H141065   1.875   3.646   5.391
13708TIP3    H241066   1.964   3.695   5.279
13709TIP3   OH241067   5.518   7.165   3.225
13709TIP3    H141068   5.557   7.082   3.198
13709TIP3    H241069   5.565   7.190   3.304
13710TIP3   OH241070   4.465   5.697   3.827
13710TIP3    H141071   4.455   5.686   3.732
13710TIP3    H241072   4.378   5.683   3.863
13711TIP3   OH241073   2.185   0.386   6.854
13711TIP3    H141074   2.168   0.348   6.767
13711TIP3    H241075   2.166   0.479   6.844
13712TIP3   OH241076   7.876   2.109   4.744
13712TIP3    H141077   7.883   2.169   4.819
13712TIP3    H241078   7.959   2.118   4.698
13713TIP3   OH241079   0.795   3.050   5.389
13713TIP3    H141080   0.755   3.062   5.303
13713TIP3    H241081   0.721   3.053   5.450
13714TIP3   OH241082   0.230   4.322   4.206
13714TIP3    H141083   0.282   4.261   4.154
13714TIP3    H241084   0.150   4.273   4.228
13715TIP3   OH241085   0.345   0.930   1.609
13715TIP3    H141086   0.327   1.017   1.573
13715TIP3    H241087   0.391   0.948   1.691
13716TIP3   OH241088   6.399   3.999   5.842
13716TIP3    H141089   6.490   3.970   5.839
13716TIP3    H241090   6.377   4.019   5.751
13717TIP3   OH241091   7.379   4.213   0.335
13717TIP3    H141092   7.348   4.186   0.421
13717TIP3    H241093   7.415   4.132   0.297
13718TIP3   OH241094   1.818   1.555   0.920
13718TIP3    H141095   1.781   1.545   0.832
13718TIP3    H241096   1.750   1.599   0.970
13719TIP3   OH241097   4.060   5.417   6.666
13719TIP3    H141098   4.056   5.438   6.760
13719TIP3    H241099   4.125   5.478   6.631
13720TIP3   OH241100   2.041   4.936   5.518
13720TIP3    H141101   1.996   4.863   5.560
13720TIP3    H241102   2.088   4.897   5.445
13721TIP3   OH241103   2.167   3.988   4.565
13721TIP3    H141104   2.202   3.954   4.483
13721TIP3    H241105   2.119   4.067   4.540
13722TIP3   OH241106   7.052   7.129   2.117
13722TIP3    H141107   6.960   7.150   2.105
13722TIP3    H241108   7.056   7.034   2.111
13723TIP3   OH241109   6.835   5.456   1.926
13723TIP3    H141110   6.819   5.369   1.964
13723TIP3    H241111   6.755   5.505   1.943
13724TIP3   OH241112   6.523   4.538   0.145
13724TIP3    H141113   6.498   4.528   0.053
13724TIP3    H241114   6.491   4.626   0.168
13725TIP3   OH241115   1.855   1.113   0.381
13725TIP3    H141116   1.810   1.169   0.318
13725TIP3    H241117   1.915   1.061   0.329
13726TIP3   OH241118   0.150   5.487   3.334
13726TIP3    H141119   0.238   5.468   3.301
13726TIP3    H241120   0.143   5.434   3.413
13727TIP3   OH241121   7.119   1.713   0.966
13727TIP3    H141122   7.063   1.677   1.035
13727TIP3    H241123   7.205   1.720   1.007
13728TIP3   OH241124   5.112   4.272   3.826
13728TIP3    H141125   5.070   4.332   3.887
13728TIP3    H241126   5.203   4.266   3.856
13729TIP3   OH241127   0.625   3.289   1.740
13729TIP3    H141128   0.614   3.379   1.709
13729TIP3    H241129   0.584   3.235   1.673
13730TIP3   OH241130   2.689   4.716   6.431
13730TIP3    H141131   2.769   4.713   6.483
13730TIP3    H241132   2.619   4.706   6.495
13731TIP3   OH241133   3.083   7.974   5.292
13731TIP3    H141134   3.132   7.900   5.256
13731TIP3    H241135   3.004   7.934   5.329
13732TIP3   OH241136   5.828   5.842   6.819
13732TIP3    H141137   5.827   5.776   6.888
13732TIP3    H241138   5.853   5.794   6.740
13733TIP3   OH241139   1.596   2.745   4.627
13733TIP3    H141140   1.662   2.720   4.563
13733TIP3    H241141   1.622   2.701   4.707
13734TIP3   OH241142   3.012   7.135   5.722
13734TIP3    H141143   3.059   7.071   5.775
13734TIP3    H241144   2.951   7.084   5.669
13735TIP3   OH241145   6.512   4.305   1.324
13735TIP3    H141146   6.515   4.400   1.325
13735TIP3    H241147   6.436   4.284   1.269
13736TIP3   OH241148   0.307   6.150   3.621
13736TIP3    H141149   0.398   6.179   3.614
13736TIP3    H241150   0.256   6.219   3.577
13737TIP3   OH241151   1.911   0.641   3.797
13737TIP3    H141152   1.892   0.697   3.721
13737TIP3    H241153   1.845   0.572   3.794
13738TIP3   OH241154   1.635   1.226   0.549
13738TIP3    H141155   1.722   1.263   0.566
13738TIP3    H241156   1.635   1.210   0.455
13739TIP3   OH241157   5.789   5.993   1.069
13739TIP3    H141158   5.878   6.007   1.037
13739TIP3    H241159   5.735   6.046   1.011
13740TIP3   OH241160   0.847   4.109   3.204
13740TIP3    H141161   0.831   4.056   3.282
13740TIP3    H241162   0.892   4.050   3.143
13741TIP3   OH241163   0.871   4.627   3.287
13741TIP3    H141164   0.899   4.615   3.196
13741TIP3    H241165   0.928   4.697   3.321
13742TIP3   OH241166   1.251   5.014   5.307
13742TIP3    H141167   1.304   5.034   5.230
13742TIP3    H241168   1.294   4.939   5.347
13743TIP3   OH241169   5.523   2.729   6.272
13743TIP3    H141170   5.609   2.734   6.312
13743TIP3    H241171   5.503   2.635   6.270
13744TIP3   OH241172   5.894   6.981   2.014
13744TIP3    H141173   5.837   6.954   1.943
13744TIP3    H241174   5.837   7.030   2.074
13745TIP3   OH241175   4.153   6.158   3.344
13745TIP3    H141176   4.236   6.121   3.314
13745TIP3    H241177   4.136   6.231   3.284
13746TIP3   OH241178   8.164   7.061   2.889
13746TIP3    H141179   8.179   7.122   2.816
13746TIP3    H241180   8.071   7.072   2.911
13747TIP3   OH241181   8.358   3.471   5.069
13747TIP3    H141182   8.411   3.437   4.997
13747TIP3    H241183   8.279   3.418   5.068
13748TIP3   OH241184   5.069   6.209   0.344
13748TIP3    H141185   5.086   6.205   0.439
13748TIP3    H241186   4.975   6.195   0.336
13749TIP3   OH241187   4.467   0.432   5.879
13749TIP3    H141188   4.480   0.480   5.797
13749TIP3    H241189   4.389   0.472   5.918
13750TIP3   OH241190   4.794   2.501   2.303
13750TIP3    H141191   4.798   2.561   2.377
13750TIP3    H241192   4.824   2.553   2.228
13751TIP3   OH241193   6.211   1.974   1.130
13751TIP3    H141194   6.181   1.931   1.210
13751TIP3    H241195   6.130   2.004   1.088
13752TIP3   OH241196   2.179   3.478   2.771
13752TIP3    H141197   2.089   3.474   2.740
13752TIP3    H241198   2.206   3.386   2.778
13753TIP3   OH241199   8.038   3.008   0.530
13753TIP3    H141200   7.975   3.039   0.595
13753TIP3    H241201   8.121   3.004   0.577
13754TIP3   OH241202   6.663   3.894   4.558
13754TIP3    H141203   6.601   3.927   4.623
13754TIP3    H241204   6.635   3.804   4.541
13755TIP3   OH241205   4.435   5.869   6.658
13755TIP3    H141206   4.417   5.781   6.691
13755TIP3    H241207   4.460   5.856   6.566
13756TIP3   OH241208   0.331   1.822   3.160
13756TIP3    H141209   0.349   1.910   3.194
13756TIP3    H241210   0.380   1.819   3.077
13757TIP3   OH241211   0.329   1.494   4.710
13757TIP3    H141212   0.317   1.531   4.622
13757TIP3    H241213   0.313   1.400   4.699
13758TIP3   OH241214   0.030   5.547   4.336
13758TIP3    H141215   0.000   5.638   4.340
13758TIP3    H241216   0.050   5.533   4.243
13759TIP3   OH241217   2.113   3.210   3.427
13759TIP3    H141218   2.058   3.132   3.431
13759TIP3    H241219   2.101   3.245   3.339
13760TIP3   OH241220   2.719   5.724   5.956
13760TIP3    H141221   2.695   5.768   5.875
13760TIP3    H241222   2.716   5.792   6.023
13761TIP3   OH241223   1.403   7.681   3.011
13761TIP3    H141224   1.373   7.606   2.959
13761TIP3    H241225   1.369   7.665   3.099
13762TIP3   OH241226   1.280   6.324   3.347
13762TIP3    H141227   1.214   6.370   3.399
13762TIP3    H241228   1.229   6.274   3.283
13763TIP3   OH241229   5.974   4.706   5.079
13763TIP3    H141230   6.022   4.777   5.037
13763TIP3    H241231   6.040   4.639   5.095
13764TIP3   OH241232   1.715   3.934   5.450
13764TIP3    H141233   1.701   3.850   5.496
13764TIP3    H241234   1.742   3.994   5.520
13765TIP3   OH241235   4.484   3.227   2.128
13765TIP3    H141236   4.481   3.132   2.138
13765TIP3    H241237   4.482   3.261   2.217
13766TIP3   OH241238   0.822   7.090   5.346
13766TIP3    H141239   0.880   7.088   5.269
13766TIP3    H241240   0.881   7.086   5.421
13767TIP3   OH241241   1.771   1.267   3.895
13767TIP3    H141242   1.807   1.252   3.983
13767TIP3    H241243   1.808   1.351   3.868
13768TIP3   OH241244   5.068   6.591   1.689
13768TIP3    H141245   5.005   6.626   1.752
13768TIP3    H241246   5.023   6.597   1.604
13769TIP3   OH241247   4.730   5.437   4.393
13769TIP3    H141248   4.742   5.420   4.487
13769TIP3    H241249   4.799   5.387   4.350
13770TIP3   OH241250   3.627   2.746   3.565
13770TIP3    H141251   3.651   2.817   3.625
13770TIP3    H241252   3.550   2.778   3.518
13771TIP3   OH241253   0.640   3.638   6.181
13771TIP3    H141254   0.568   3.694   6.153
13771TIP3    H241255   0.596   3.558   6.212
13772TIP3   OH241256   1.174   1.335   6.163
13772TIP3    H141257   1.157   1.384   6.243
13772TIP3    H241258   1.248   1.380   6.123
13773TIP3   OH241259   0.361   4.300   1.638
13773TIP3    H141260   0.290   4.284   1.576
13773TIP3    H241261   0.432   4.242   1.609
13774TIP3   OH241262   5.608   0.685   4.625
13774TIP3    H141263   5.693   0.728   4.621
13774TIP3    H241264   5.549   0.752   4.660
13775TIP3   OH241265   3.922   2.031   4.985
13775TIP3    H141266   4.012   2.036   4.951
13775TIP3    H241267   3.874   2.096   4.933
13776TIP3   OH241268   6.898   5.451   5.601
13776TIP3    H141269   6.943   5.416   5.525
13776TIP3    H241270   6.939   5.407   5.676
13777TIP3   OH241271   8.341   4.412   0.827
13777TIP3    H141272   8.400   4.412   0.752
13777TIP3    H241273   8.256   4.385   0.791
13778TIP3   OH241274   1.162   0.961   0.733
13778TIP3    H141275   1.227   1.018   0.691
13778TIP3    H241276   1.078   1.006   0.719
13779TIP3   OH241277   1.676   0.863   3.453
13779TIP3    H141278   1.589   0.867   3.415
13779TIP3    H241279   1.691   0.950   3.490
13780TIP3   OH241280   0.200   1.740   2.850
13780TIP3    H141281   0.202   1.776   2.939
13780TIP3    H241282   0.214   1.816   2.793
13781TIP3   OH241283   6.431   5.222   0.571
13781TIP3    H141284   6.483   5.297   0.543
13781TIP3    H241285   6.350   5.261   0.605
13782TIP3   OH241286   1.088   1.793   0.925
13782TIP3    H141287   1.006   1.808   0.971
13782TIP3    H241288   1.144   1.749   0.988
13783TIP3   OH241289   0.301   1.743   6.075
13783TIP3    H141290   0.310   1.676   6.142
13783TIP3    H241291   0.305   1.695   5.992
13784TIP3   OH241292   3.696   2.704   0.261
13784TIP3    H141293   3.628   2.689   0.195
13784TIP3    H241294   3.777   2.713   0.210
13785TIP3   OH241295   2.915   5.489   3.855
13785TIP3    H141296   2.983   5.527   3.799
13785TIP3    H241297   2.925   5.395   3.844
13786TIP3   OH241298   6.496   1.861   4.658
13786TIP3    H141299   6.579   1.834   4.696
13786TIP3    H241300   6.519   1.926   4.593
13787TIP3   OH241301   5.854   5.377   4.414
13787TIP3    H141302   5.825   5.421   4.494
13787TIP3    H241303   5.813   5.290   4.419
13788TIP3   OH241304   2.460   4.764   4.316
13788TIP3    H141305   2.408   4.753   4.396
13788TIP3    H241306   2.460   4.678   4.275
13789TIP3   OH241307   2.991   1.411   4.039
13789TIP3    H141308   2.921   1.413   4.104
13789TIP3    H241309   3.034   1.496   4.048
13790TIP3   OH241310   4.555   1.262   4.461
13790TIP3    H141311   4.523   1.332   4.404
13790TIP3    H241312   4.650   1.274   4.461
13791TIP3   OH241313   5.431   5.615   3.616
13791TIP3    H141314   5.405   5.523   3.618
13791TIP3    H241315   5.398   5.652   3.698
13792TIP3   OH241316   3.272   1.255   4.831
13792TIP3    H141317   3.326   1.286   4.904
13792TIP3    H241318   3.234   1.334   4.794
13793TIP3   OH241319   1.906   5.983   2.646
13793TIP3    H141320   1.816   6.013   2.634
13793TIP3    H241321   1.919   5.987   2.741
13794TIP3   OH241322   5.341   7.668   4.352
13794TIP3    H141323   5.397   7.647   4.426
13794TIP3    H241324   5.399   7.666   4.276
13795TIP3   OH241325   0.162   3.768   6.237
13795TIP3    H141326   0.166   3.852   6.282
13795TIP3    H241327   0.140   3.789   6.147
13796TIP3   OH241328   2.386   6.523   4.373
13796TIP3    H141329   2.391   6.429   4.360
13796TIP3    H241330   2.293   6.544   4.364
13797TIP3   OH241331   3.680   1.442   5.450
13797TIP3    H141332   3.711   1.435   5.541
13797TIP3    H241333   3.739   1.385   5.401
13798TIP3   OH241334   4.656   4.003   4.349
13798TIP3    H141335   4.686   4.020   4.260
13798TIP3    H241336   4.608   4.082   4.373
13799TIP3   OH241337   0.573   4.527   3.009
13799TIP3    H141338   0.506   4.587   2.977
13799TIP3    H241339   0.640   4.583   3.048
13800TIP3   OH241340   0.894   4.037   6.735
13800TIP3    H141341   0.883   3.964   6.796
13800TIP3    H241342   0.807   4.049   6.695
13801TIP3   OH241343   2.618   2.708   3.669
13801TIP3    H141344   2.544   2.717   3.608
13801TIP3    H241345   2.660   2.794   3.668
13802TIP3   OH241346   2.691   1.290   2.803
13802TIP3    H141347   2.666   1.270   2.894
13802TIP3    H241348   2.764   1.351   2.811
13803TIP3   OH241349   4.048   2.801   6.369
13803TIP3    H141350   4.050   2.759   6.283
13803TIP3    H241351   3.955   2.810   6.390
13804TIP3   OH241352   4.173   7.078   3.510
13804TIP3    H141353   4.196   7.005   3.452
13804TIP3    H241354   4.187   7.156   3.457
13805TIP3   OH241355   0.563   4.440   0.909
13805TIP3    H141356   0.611   4.515   0.873
13805TIP3    H241357   0.471   4.468   0.907
13806TIP3   OH241358   3.253   4.879   5.875
13806TIP3    H141359   3.211   4.822   5.811
13806TIP3    H241360   3.307   4.938   5.823
13807TIP3   OH241361   1.908   3.112   2.418
13807TIP3    H141362   1.927   3.182   2.356
13807TIP3    H241363   1.816   3.126   2.442
13808TIP3   OH241364   0.566   3.582   6.530
13808TIP3    H141365   0.601   3.557   6.445
13808TIP3    H241366   0.539   3.673   6.519
13809TIP3   OH241367   2.657   2.981   3.149
13809TIP3    H141368   2.671   2.909   3.210
13809TIP3    H241369   2.736   3.035   3.158
13810TIP3   OH241370   6.463   4.738   2.001
13810TIP3    H141371   6.400   4.668   1.987
13810TIP3    H241372   6.541   4.711   1.953
13811TIP3   OH241373   6.879   1.587   6.123
13811TIP3    H141374   6.897   1.621   6.210
13811TIP3    H241375   6.913   1.497   6.125
13812TIP3   OH241376   6.158   7.030   3.661
13812TIP3    H141377   6.203   7.069   3.586
13812TIP3    H241378   6.065   7.039   3.640
13813TIP3   OH241379   8.305   0.018   0.585
13813TIP3    H141380   8.215   0.005   0.556
13813TIP3    H241381   8.306   0.104   0.625
13814TIP3   OH241382   7.809   0.330   4.427
13814TIP3    H141383   7.847   0.419   4.426
13814TIP3    H241384   7.846   0.288   4.350
13815TIP3   OH241385   6.088   4.377   3.282
13815TIP3    H141386   6.162   4.340   3.233
13815TIP3    H241387   6.127   4.407   3.365
13816TIP3   OH241388   4.162   5.001   5.297
13816TIP3    H141389   4.076   4.961   5.305
13816TIP3    H241390   4.192   4.978   5.209
13817TIP3   OH241391   3.761   2.175   1.646
13817TIP3    H141392   3.821   2.121   1.595
13817TIP3    H241393   3.680   2.124   1.649
13818TIP3   OH241394   5.205   0.860   6.716
13818TIP3    H141395   5.111   0.851   6.731
13818TIP3    H241396   5.212   0.900   6.629
13819TIP3   OH241397   2.490   1.016   0.908
13819TIP3    H141398   2.419   1.072   0.878
13819TIP3    H241399   2.507   1.045   0.998
13820TIP3   OH241400   3.419   3.836   0.248
13820TIP3    H141401   3.447   3.748   0.226
13820TIP3    H241402   3.343   3.852   0.192
13821TIP3   OH241403   2.887   3.430   0.063
13821TIP3    H141404   2.928   3.483   0.131
13821TIP3    H241405   2.935   3.348   0.064
13822TIP3   OH241406   0.462   5.239   2.658
13822TIP3    H141407   0.384   5.288   2.632
13822TIP3    H241408   0.437   5.147   2.650
13823TIP3   OH241409   3.993   2.392   0.799
13823TIP3    H141410   3.958   2.346   0.875
13823TIP3    H241411   3.919   2.400   0.739
13824TIP3   OH241412   7.556   2.142   1.131
13824TIP3    H141413   7.536   2.210   1.195
13824TIP3    H241414   7.572   2.063   1.183
13825TIP3   OH241415   6.851   1.684   5.055
13825TIP3    H141416   6.800   1.647   4.983
13825TIP3    H241417   6.797   1.667   5.133
13826TIP3   OH241418   6.557   5.833   6.559
13826TIP3    H141419   6.549   5.789   6.474
13826TIP3    H241420   6.467   5.838   6.592
13827TIP3   OH241421   8.225   4.319   5.847
13827TIP3    H141422   8.273   4.310   5.765
13827TIP3    H241423   8.160   4.387   5.829
13828TIP3   OH241424   4.998   2.269   0.210
13828TIP3    H141425   5.049   2.321   0.272
13828TIP3    H241426   4.964   2.332   0.147
13829TIP3   OH241427   7.040   6.744   6.045
13829TIP3    H141428   7.009   6.654   6.040
13829TIP3    H241429   6.961   6.797   6.057
13830TIP3   OH241430   3.301   7.571   4.883
13830TIP3    H141431   3.334   7.566   4.793
13830TIP3    H241432   3.294   7.665   4.901
13831TIP3   OH241433   0.483   1.791   0.313
13831TIP3    H141434   0.431   1.815   0.236
13831TIP3    H241435   0.572   1.819   0.291
13832TIP3   OH241436   0.833   7.628   0.839
13832TIP3    H141437   0.781   7.688   0.786
13832TIP3    H241438   0.770   7.588   0.899
13833TIP3   OH241439   0.279   2.736   4.114
13833TIP3    H141440   0.264   2.658   4.168
13833TIP3    H241441   0.374   2.736   4.098
13834TIP3   OH241442   7.676   7.549   3.918
13834TIP3    H141443   7.609   7.529   3.852
13834TIP3    H241444   7.650   7.497   3.994
13835TIP3   OH241445   1.954   2.351   3.590
13835TIP3    H141446   1.967   2.326   3.682
13835TIP3    H241447   2.015   2.296   3.542
13836TIP3   OH241448   1.565   2.830   5.034
13836TIP3    H141449   1.595   2.884   5.107
13836TIP3    H241450   1.505   2.888   4.986
13837TIP3   OH241451   6.743   7.170   0.769
13837TIP3    H141452   6.814   7.222   0.807
13837TIP3    H241453   6.772   7.153   0.680
13838TIP3   OH241454   7.421   7.608   5.429
13838TIP3    H141455   7.491   7.667   5.398
13838TIP3    H241456   7.453   7.520   5.408
13839TIP3   OH241457   1.032   1.502   3.415
13839TIP3    H141458   1.024   1.407   3.406
13839TIP3    H241459   0.952   1.529   3.460
13840TIP3   OH241460   7.907   2.527   3.548
13840TIP3    H141461   7.873   2.520   3.459
13840TIP3    H241462   7.841   2.483   3.603
13841TIP3   OH241463   5.877   4.584   0.985
13841TIP3    H141464   5.934   4.513   0.956
13841TIP3    H241465   5.790   4.544   0.989
13842TIP3   OH241466   7.013   3.120   5.999
13842TIP3    H141467   6.972   3.034   6.008
13842TIP3    H241468   7.103   3.107   6.031
13843TIP3   OH241469   0.471   6.026   1.058
13843TIP3    H141470   0.565   6.009   1.068
13843TIP3    H241471   0.434   5.942   1.032
13844TIP3   OH241472   6.296   3.429   0.276
13844TIP3    H141473   6.271   3.339   0.293
13844TIP3    H241474   6.253   3.480   0.344
13845TIP3   OH241475   0.072   5.847   0.095
13845TIP3    H141476   0.155   5.839   0.047
13845TIP3    H241477   0.098   5.865   0.185
13846TIP3   OH241478   2.401   5.368   4.789
13846TIP3    H141479   2.347   5.289   4.794
13846TIP3    H241480   2.386   5.401   4.700
13847TIP3   OH241481   4.928   1.894   6.035
13847TIP3    H141482   4.983   1.842   6.093
13847TIP3    H241483   4.944   1.985   6.061
13848TIP3   OH241484   6.943   7.070   2.401
13848TIP3    H141485   6.880   7.075   2.329
13848TIP3    H241486   7.009   7.007   2.371
13849TIP3   OH241487   4.684   7.635   3.259
13849TIP3    H141488   4.648   7.650   3.171
13849TIP3    H241489   4.734   7.554   3.251
13850TIP3   OH241490   0.299   0.535   5.379
13850TIP3    H141491   0.363   0.508   5.445
13850TIP3    H241492   0.227   0.573   5.428
13851TIP3   OH241493   5.570   2.253   1.707
13851TIP3    H141494   5.648   2.206   1.675
13851TIP3    H241495   5.591   2.274   1.798
13852TIP3   OH241496   0.486   6.214   2.349
13852TIP3    H141497   0.456   6.188   2.436
13852TIP3    H241498   0.434   6.161   2.289
13853TIP3   OH241499   5.672   6.777   0.315
13853TIP3    H141500   5.612   6.741   0.381
13853TIP3    H241501   5.757   6.778   0.358
13854TIP3   OH241502   3.839   5.046   2.949
13854TIP3    H141503   3.795   5.014   3.028
13854TIP3    H241504   3.929   5.061   2.976
13855TIP3   OH241505   4.158   4.888   1.612
13855TIP3    H141506   4.242   4.877   1.568
13855TIP3    H241507   4.160   4.979   1.643
13856TIP3   OH241508   7.352   0.295   0.134
13856TIP3    H141509   7.264   0.305   0.099
13856TIP3    H241510   7.382   0.212   0.098
13857TIP3   OH241511   3.338   3.554   6.764
13857TIP3    H141512   3.348   3.622   6.698
13857TIP3    H241513   3.280   3.489   6.723
13858TIP3   OH241514   3.251   5.119   2.799
13858TIP3    H141515   3.243   5.024   2.800
13858TIP3    H241516   3.265   5.141   2.707
13859TIP3   OH241517   1.288   1.429   5.557
13859TIP3    H141518   1.324   1.475   5.481
13859TIP3    H241519   1.355   1.364   5.580
13860TIP3   OH241520   7.236   1.869   0.343
13860TIP3    H141521   7.165   1.888   0.405
13860TIP3    H241522   7.229   1.775   0.327
13861TIP3   OH241523   5.089   7.508   2.544
13861TIP3    H141524   5.092   7.576   2.477
13861TIP3    H241525   5.158   7.446   2.519
13862TIP3   OH241526   2.600   0.456   2.707
13862TIP3    H141527   2.663   0.525   2.684
13862TIP3    H241528   2.539   0.455   2.633
13863TIP3   OH241529   8.185   1.980   5.559
13863TIP3    H141530   8.243   1.938   5.622
13863TIP3    H241531   8.181   1.918   5.486
13864TIP3   OH241532   3.366   4.493   0.294
13864TIP3    H141533   3.423   4.498   0.217
13864TIP3    H241534   3.414   4.439   0.356
13865TIP3   OH241535   6.885   3.328   1.922
13865TIP3    H141536   6.884   3.392   1.993
13865TIP3    H241537   6.953   3.265   1.947
13866TIP3   OH241538   7.148   2.145   0.352
13866TIP3    H141539   7.078   2.080   0.359
13866TIP3    H241540   7.109   2.216   0.301
13867TIP3   OH241541   2.861   2.314   6.155
13867TIP3    H141542   2.768   2.331   6.143
13867TIP3    H241543   2.867   2.269   6.239
13868TIP3   OH241544   6.263   3.320   3.996
13868TIP3    H141545   6.242   3.414   3.999
13868TIP3    H241546   6.283   3.297   4.086
13869TIP3   OH241547   3.733   6.234   4.141
13869TIP3    H141548   3.736   6.214   4.235
13869TIP3    H241549   3.788   6.166   4.101
13870TIP3   OH241550   4.069   1.923   1.705
13870TIP3    H141551   4.007   1.984   1.744
13870TIP3    H241552   4.154   1.950   1.740
13871TIP3   OH241553   0.863   4.530   6.305
13871TIP3    H141554   0.884   4.492   6.220
13871TIP3    H241555   0.907   4.473   6.368
13872TIP3   OH241556   4.750   5.235   6.205
13872TIP3    H141557   4.668   5.185   6.207
13872TIP3    H241558   4.818   5.168   6.212
13873TIP3   OH241559   7.305   4.222   2.688
13873TIP3    H141560   7.219   4.264   2.677
13873TIP3    H241561   7.301   4.146   2.629
13874TIP3   OH241562   7.180   1.950   1.791
13874TIP3    H141563   7.168   1.856   1.787
13874TIP3    H241564   7.118   1.985   1.727
13875TIP3   OH241565   5.335   3.407   1.969
13875TIP3    H141566   5.300   3.323   1.999
13875TIP3    H241567   5.259   3.464   1.964
13876TIP3   OH241568   5.799   2.971   6.120
13876TIP3    H141569   5.815   2.901   6.185
13876TIP3    H241570   5.782   3.049   6.173
13877TIP3   OH241571   6.847   2.440   4.908
13877TIP3    H141572   6.825   2.499   4.836
13877TIP3    H241573   6.843   2.495   4.986
13878TIP3   OH241574   2.419   3.257   4.678
13878TIP3    H141575   2.436   3.163   4.675
13878TIP3    H241576   2.499   3.295   4.714
13879TIP3   OH241577   2.172   1.244   0.060
13879TIP3    H141578   2.098   1.252  -0.001
13879TIP3    H241579   2.189   1.334   0.088
13880TIP3   OH241580   5.877   3.821   6.654
13880TIP3    H141581   5.922   3.845   6.735
13880TIP3    H241582   5.923   3.868   6.585
13881TIP3   OH241583   3.286   3.935   5.470
13881TIP3    H141584   3.191   3.931   5.473
13881TIP3    H241585   3.308   3.942   5.377
13882TIP3   OH241586   7.354   4.709   0.293
13882TIP3    H141587   7.358   4.614   0.285
13882TIP3    H241588   7.351   4.740   0.202
13883TIP3   OH241589   3.842   3.838   6.414
13883TIP3    H141590   3.831   3.775   6.344
13883TIP3    H241591   3.826   3.788   6.494
13884TIP3   OH241592   5.907   1.886   4.666
13884TIP3    H141593   5.891   1.918   4.577
13884TIP3    H241594   5.839   1.927   4.719
13885TIP3   OH241595   7.263   3.041   4.615
13885TIP3    H141596   7.321   2.968   4.594
13885TIP3    H241597   7.315   3.098   4.671
13886TIP3   OH241598   1.841   4.846   4.227
13886TIP3    H141599   1.931   4.868   4.205
13886TIP3    H241600   1.791   4.925   4.206
13887TIP3   OH241601   8.110   3.356   1.826
13887TIP3    H141602   8.176   3.361   1.757
13887TIP3    H241603   8.029   3.384   1.785
13888TIP3   OH241604   3.307   0.848   4.691
13888TIP3    H141605   3.281   0.837   4.599
13888TIP3    H241606   3.353   0.767   4.712
13889TIP3   OH241607   7.505   4.558   2.374
13889TIP3    H141608   7.471   4.634   2.421
13889TIP3    H241609   7.566   4.594   2.311
13890TIP3   OH241610   6.152   7.331   3.239
13890TIP3    H141611   6.141   7.406   3.297
13890TIP3    H241612   6.177   7.259   3.297
13891TIP3   OH241613   6.956   4.927   5.642
13891TIP3    H141614   6.973   4.939   5.549
13891TIP3    H241615   7.043   4.923   5.682
13892TIP3   OH241616   0.311   3.298   5.519
13892TIP3    H141617   0.229   3.262   5.488
13892TIP3    H241618   0.356   3.328   5.440
13893TIP3   OH241619   6.175   6.781   4.842
13893TIP3    H141620   6.113   6.854   4.845
13893TIP3    H241621   6.121   6.703   4.858
13894TIP3   OH241622   2.329   6.743   4.606
13894TIP3    H141623   2.392   6.736   4.679
13894TIP3    H241624   2.384   6.743   4.528
13895TIP3   OH241625   6.359   5.575   6.692
13895TIP3    H141626   6.452   5.591   6.701
13895TIP3    H241627   6.328   5.643   6.632
13896TIP3   OH241628   7.216   3.713   6.190
13896TIP3    H141629   7.221   3.619   6.169
13896TIP3    H241630   7.167   3.716   6.272
13897TIP3   OH241631   3.207   2.654   3.719
13897TIP3    H141632   3.252   2.577   3.684
13897TIP3    H241633   3.152   2.620   3.790
13898TIP3   OH241634   7.883   3.246   5.368
13898TIP3    H141635   7.822   3.290   5.307
13898TIP3    H241636   7.931   3.318   5.408
13899TIP3   OH241637   1.692   5.644   6.668
13899TIP3    H141638   1.661   5.553   6.674
13899TIP3    H241639   1.736   5.659   6.752
13900TIP3   OH241640   5.115   2.446   1.674
13900TIP3    H141641   5.121   2.446   1.578
13900TIP3    H241642   5.197   2.483   1.704
13901TIP3   OH241643   0.922   3.841   5.528
13901TIP3    H141644   1.012   3.812   5.518
13901TIP3    H241645   0.910   3.906   5.458
13902TIP3   OH241646   6.175   3.583   2.121
13902TIP3    H141647   6.165   3.520   2.192
13902TIP3    H241648   6.179   3.529   2.041
13903TIP3   OH241649   4.927   6.438   6.049
13903TIP3    H141650   4.969   6.396   5.974
13903TIP3    H241651   4.887   6.366   6.097
13904TIP3   OH241652   8.310   3.580   1.044
13904TIP3    H141653   8.229   3.596   0.996
13904TIP3    H241654   8.375   3.636   1.001
13905TIP3   OH241655   4.142   1.665   2.492
13905TIP3    H141656   4.235   1.645   2.481
13905TIP3    H241657   4.121   1.639   2.581
13906TIP3   OH241658   5.533   4.970   2.101
13906TIP3    H141659   5.510   4.886   2.060
13906TIP3    H241660   5.498   5.036   2.041
13907TIP3   OH241661   7.687   4.562   1.872
13907TIP3    H141662   7.662   4.480   1.915
13907TIP3    H241663   7.731   4.534   1.792
13908TIP3   OH241664   2.370   1.062   6.138
13908TIP3    H141665   2.433   1.114   6.088
13908TIP3    H241666   2.368   0.978   6.092
13909TIP3   OH241667   3.113   6.986   3.986
13909TIP3    H141668   3.125   7.080   4.003
13909TIP3    H241669   3.030   6.982   3.937
13910TIP3   OH241670   0.234   0.183   0.579
13910TIP3    H141671   0.283   0.224   0.651
13910TIP3    H241672   0.211   0.096   0.612
13911TIP3   OH241673   6.122   6.569   1.957
13911TIP3    H141674   6.111   6.480   1.990
13911TIP3    H241675   6.047   6.582   1.900
13912TIP3   OH241676   1.629   5.220   3.172
13912TIP3    H141677   1.534   5.225   3.182
13912TIP3    H241678   1.660   5.183   3.255
13913TIP3   OH241679   7.352   3.864   1.064
13913TIP3    H141680   7.420   3.800   1.046
13913TIP3    H241681   7.273   3.829   1.024
13914TIP3   OH241682   2.409   0.812   1.297
13914TIP3    H141683   2.395   0.747   1.366
13914TIP3    H241684   2.500   0.840   1.308
13915TIP3   OH241685   5.396   3.221   3.821
13915TIP3    H141686   5.380   3.175   3.738
13915TIP3    H241687   5.386   3.153   3.888
13916TIP3   OH241688   3.199   1.004   6.859
13916TIP3    H141689   3.214   1.091   6.822
13916TIP3    H241690   3.180   0.949   6.783
13917TIP3   OH241691   8.219   2.111   3.613
13917TIP3    H141692   8.129   2.094   3.641
13917TIP3    H241693   8.212   2.126   3.519
13918TIP3   OH241694   0.563   1.387   3.791
13918TIP3    H141695   0.524   1.473   3.772
13918TIP3    H241696   0.556   1.379   3.886
13919TIP3   OH241697   4.905   7.047   0.571
13919TIP3    H141698   4.875   7.040   0.662
13919TIP3    H241699   4.865   7.127   0.538
13920TIP3   OH241700   4.325   0.044   1.073
13920TIP3    H141701   4.381  -0.002   1.010
13920TIP3    H241702   4.272   0.102   1.019
13921TIP3   OH241703   2.346   0.320   4.784
13921TIP3    H141704   2.372   0.316   4.876
13921TIP3    H241705   2.424   0.293   4.735
13922TIP3   OH241706   0.860   2.810   4.176
13922TIP3    H141707   0.814   2.729   4.156
13922TIP3    H241708   0.863   2.858   4.093
13923TIP3   OH241709   3.306   4.040   4.304
13923TIP3    H141710   3.243   3.972   4.281
13923TIP3    H241711   3.267   4.086   4.378
13924TIP3   OH241712   5.710   7.740   2.843
13924TIP3    H141713   5.754   7.751   2.758
13924TIP3    H241714   5.761   7.672   2.888
13925TIP3   OH241715   6.183   4.512   1.303
13925TIP3    H141716   6.158   4.435   1.354
13925TIP3    H241717   6.112   4.575   1.319
13926TIP3   OH241718   4.046   1.779   4.821
13926TIP3    H141719   4.039   1.683   4.816
13926TIP3    H241720   4.118   1.795   4.881
13927TIP3   OH241721   3.568   6.717   0.775
13927TIP3    H141722   3.644   6.704   0.832
13927TIP3    H241723   3.500   6.751   0.834
13928TIP3   OH241724   5.666   0.111   1.198
13928TIP3    H141725   5.587   0.165   1.199
13928TIP3    H241726   5.653   0.053   1.122
13929TIP3   OH241727   6.385   6.966   2.128
13929TIP3    H141728   6.300   6.933   2.098
13929TIP3    H241729   6.443   6.890   2.120
13930TIP3   OH241730   1.407   0.052   1.878
13930TIP3    H141731   1.360  -0.005   1.817
13930TIP3    H241732   1.349   0.127   1.890
13931TIP3   OH241733   4.161   5.829   6.826
13931TIP3    H141734   4.237   5.859   6.874
13931TIP3    H241735   4.139   5.902   6.768
13932TIP3   OH241736   1.761   1.627   5.532
13932TIP3    H141737   1.806   1.546   5.558
13932TIP3    H241738   1.794   1.647   5.445
13933TIP3   OH241739   2.614   4.400   5.169
13933TIP3    H141740   2.692   4.360   5.209
13933TIP3    H241741   2.543   4.338   5.188
13934TIP3   OH241742   7.465   1.437   1.265
13934TIP3    H141743   7.503   1.386   1.337
13934TIP3    H241744   7.475   1.380   1.189
13935TIP3   OH241745   4.970   5.816   3.206
13935TIP3    H141746   4.988   5.723   3.223
13935TIP3    H241747   4.970   5.857   3.292
13936TIP3   OH241748   0.668   1.052   6.423
13936TIP3    H141749   0.754   1.028   6.391
13936TIP3    H241750   0.679   1.140   6.458
13937TIP3   OH241751   1.544   0.329   4.185
13937TIP3    H141752   1.533   0.411   4.233
13937TIP3    H241753   1.495   0.341   4.104
13938TIP3   OH241754   0.221   4.369   0.689
13938TIP3    H141755   0.263   4.449   0.722
13938TIP3    H241756   0.254   4.360   0.600
13939TIP3   OH241757   4.600   2.359   0.206
13939TIP3    H141758   4.513   2.397   0.214
13939TIP3    H241759   4.650   2.400   0.277
13940TIP3   OH241760   7.049   1.506   0.509
13940TIP3    H141761   7.090   1.575   0.562
13940TIP3    H241762   7.047   1.429   0.567
13941TIP3   OH241763   5.219   2.481   1.427
13941TIP3    H141764   5.187   2.532   1.352
13941TIP3    H241765   5.312   2.467   1.408
13942TIP3   OH241766   1.399   0.322   3.953
13942TIP3    H141767   1.367   0.232   3.959
13942TIP3    H241768   1.348   0.361   3.883
13943TIP3   OH241769   0.338   2.278   3.325
13943TIP3    H141770   0.273   2.264   3.255
13943TIP3    H241771   0.306   2.226   3.398
13944TIP3   OH241772   7.275   6.902   6.072
13944TIP3    H141773   7.217   6.837   6.033
13944TIP3    H241774   7.228   6.932   6.150
13945TIP3   OH241775   5.656   3.112   4.170
13945TIP3    H141776   5.645   3.193   4.221
13945TIP3    H241777   5.743   3.121   4.131
13946TIP3   OH241778   5.875   1.123   4.203
13946TIP3    H141779   5.946   1.182   4.176
13946TIP3    H241780   5.860   1.145   4.295
13947TIP3   OH241781   4.102   6.834   1.850
13947TIP3    H141782   4.117   6.854   1.942
13947TIP3    H241783   4.100   6.920   1.807
13948TIP3   OH241784   3.241   1.723   0.605
13948TIP3    H141785   3.166   1.783   0.603
13948TIP3    H241786   3.203   1.636   0.592
13949TIP3   OH241787   7.843   5.541   4.124
13949TIP3    H141788   7.783   5.507   4.058
13949TIP3    H241789   7.810   5.506   4.207
13950TIP3   OH241790   4.974   6.475   2.895
13950TIP3    H141791   4.910   6.524   2.946
13950TIP3    H241792   5.058   6.518   2.914
13951TIP3   OH241793   7.127   3.682   1.902
13951TIP3    H141794   7.114   3.752   1.967
13951TIP3    H241795   7.197   3.629   1.939
13952TIP3   OH241796   3.825   2.860   2.800
13952TIP3    H141797   3.891   2.839   2.866
13952TIP3    H241798   3.754   2.797   2.816
13953TIP3   OH241799   4.339   7.790   5.172
13953TIP3    H141800   4.330   7.811   5.079
13953TIP3    H241801   4.325   7.873   5.217
13954TIP3   OH241802   7.778   7.539   0.003
13954TIP3    H141803   7.802   7.606   0.067
13954TIP3    H241804   7.850   7.541  -0.061
13955TIP3   OH241805   8.199   5.340   3.243
13955TIP3    H141806   8.209   5.281   3.317
13955TIP3    H241807   8.288   5.350   3.208
13956TIP3   OH241808   0.953   2.879   4.782
13956TIP3    H141809   1.014   2.833   4.725
13956TIP3    H241810   0.881   2.818   4.794
13957TIP3   OH241811   7.730   3.303   2.161
13957TIP3    H141812   7.812   3.353   2.165
13957TIP3    H241813   7.751   3.229   2.104
13958TIP3   OH241814   4.443   2.292   6.016
13958TIP3    H141815   4.426   2.201   5.992
13958TIP3    H241816   4.382   2.343   5.964
13959TIP3   OH241817   4.462   6.877   0.411
13959TIP3    H141818   4.480   6.852   0.320
13959TIP3    H241819   4.475   6.796   0.461
13960TIP3   OH241820   2.123   7.932   0.215
13960TIP3    H141821   2.038   7.893   0.196
13960TIP3    H241822   2.103   8.023   0.240
13961TIP3   OH241823   1.519   4.527   3.867
13961TIP3    H141824   1.492   4.446   3.910
13961TIP3    H241825   1.439   4.580   3.861
13962TIP3   OH241826   8.255   5.038   0.634
13962TIP3    H141827   8.323   5.043   0.566
13962TIP3    H241828   8.207   5.121   0.626
13963TIP3   OH241829   2.018   5.578   2.793
13963TIP3    H141830   2.108   5.545   2.801
13963TIP3    H241831   2.022   5.639   2.720
13964TIP3   OH241832   7.637   7.276   1.947
13964TIP3    H141833   7.611   7.292   2.037
13964TIP3    H241834   7.729   7.251   1.952
13965TIP3   OH241835   7.449   4.701   1.828
13965TIP3    H141836   7.458   4.717   1.734
13965TIP3    H241837   7.519   4.638   1.848
13966TIP3   OH241838   1.061   2.138   2.284
13966TIP3    H141839   1.050   2.177   2.197
13966TIP3    H241840   1.072   2.213   2.342
13967TIP3   OH241841   5.463   1.670   5.922
13967TIP3    H141842   5.421   1.749   5.958
13967TIP3    H241843   5.457   1.682   5.827
13968TIP3   OH241844   0.103   3.076   0.330
13968TIP3    H141845   0.161   3.052   0.258
13968TIP3    H241846   0.025   3.112   0.287
13969TIP3   OH241847   7.151   4.931   5.832
13969TIP3    H141848   7.112   4.980   5.904
13969TIP3    H241849   7.197   4.859   5.875
13970TIP3   OH241850   0.883   0.462   2.834
13970TIP3    H141851   0.877   0.549   2.794
13970TIP3    H241852   0.968   0.463   2.880
13971TIP3   OH241853   5.806   5.930   2.721
13971TIP3    H141854   5.750   5.972   2.656
13971TIP3    H241855   5.750   5.863   2.762
13972TIP3   OH241856   1.693   3.571   5.124
13972TIP3    H141857   1.762   3.569   5.190
13972TIP3    H241858   1.722   3.509   5.057
13973TIP3   OH241859   1.009   7.343   2.690
13973TIP3    H141860   1.103   7.346   2.672
13973TIP3    H241861   0.970   7.319   2.606
13974TIP3   OH241862   7.056   5.574   0.529
13974TIP3    H141863   7.015   5.491   0.553
13974TIP3    H241864   6.993   5.616   0.471
13975TIP3   OH241865   1.001   2.258   3.089
13975TIP3    H141866   1.040   2.171   3.085
13975TIP3    H241867   0.975   2.269   3.181
13976TIP3   OH241868   5.572   6.062   3.048
13976TIP3    H141869   5.612   5.978   3.071
13976TIP3    H241870   5.483   6.056   3.082
13977TIP3   OH241871   5.399   2.507   3.530
13977TIP3    H141872   5.478   2.508   3.477
13977TIP3    H241873   5.369   2.416   3.526
13978TIP3   OH241874   5.779   3.949   6.383
13978TIP3    H141875   5.846   3.973   6.319
13978TIP3    H241876   5.726   4.028   6.393
13979TIP3   OH241877   8.206   3.746   1.617
13979TIP3    H141878   8.268   3.674   1.604
13979TIP3    H241879   8.230   3.783   1.702
13980TIP3   OH241880   2.949   7.270   3.007
13980TIP3    H141881   2.978   7.347   2.958
13980TIP3    H241882   2.919   7.208   2.940
13981TIP3   OH241883   4.204   3.394   1.670
13981TIP3    H141884   4.229   3.350   1.751
13981TIP3    H241885   4.164   3.477   1.699
13982TIP3   OH241886   6.609   7.141   1.458
13982TIP3    H141887   6.703   7.144   1.475
13982TIP3    H241888   6.576   7.071   1.514
13983TIP3   OH241889   2.108   0.292   2.473
13983TIP3    H141890   2.158   0.360   2.428
13983TIP3    H241891   2.174   0.237   2.515
13984TIP3   OH241892   0.323   6.019   6.098
13984TIP3    H141893   0.365   5.934   6.106
13984TIP3    H241894   0.239   6.000   6.055
13985TIP3   OH241895   3.197   0.536   3.973
13985TIP3    H141896   3.171   0.450   4.005
13985TIP3    H241897   3.289   0.526   3.951
13986TIP3   OH241898   4.418   7.879   6.214
13986TIP3    H141899   4.414   7.868   6.309
13986TIP3    H241900   4.457   7.798   6.182
13987TIP3   OH241901   2.333   5.980   4.997
13987TIP3    H141902   2.291   6.001   4.914
13987TIP3    H241903   2.369   6.063   5.028
13988TIP3   OH241904   5.930   1.799   5.787
13988TIP3    H141905   5.848   1.751   5.788
13988TIP3    H241906   5.932   1.845   5.872
13989TIP3   OH241907   2.630   5.490   1.551
13989TIP3    H141908   2.629   5.456   1.461
13989TIP3    H241909   2.704   5.551   1.552
13990TIP3   OH241910   2.727   7.325   5.672
13990TIP3    H141911   2.729   7.237   5.636
13990TIP3    H241912   2.740   7.313   5.766
13991TIP3   OH241913   6.567   5.233   6.488
13991TIP3    H141914   6.483   5.214   6.446
13991TIP3    H241915   6.544   5.282   6.567
13992TIP3   OH241916   5.628   6.536   1.302
13992TIP3    H141917   5.593   6.447   1.306
13992TIP3    H241918   5.571   6.581   1.240
13993TIP3   OH241919   2.793   4.002   2.639
13993TIP3    H141920   2.795   4.071   2.574
13993TIP3    H241921   2.746   4.039   2.713
13994TIP3   OH241922   3.411   7.466   3.762
13994TIP3    H141923   3.320   7.496   3.767
13994TIP3    H241924   3.462   7.534   3.806
13995TIP3   OH241925   4.673   1.044   6.672
13995TIP3    H141926   4.592   1.023   6.626
13995TIP3    H241927   4.685   1.138   6.657
13996TIP3   OH241928   6.376   5.752   4.685
13996TIP3    H141929   6.361   5.700   4.607
13996TIP3    H241930   6.400   5.839   4.653
13997TIP3   OH241931   4.894   3.318   1.794
13997TIP3    H141932   4.955   3.258   1.838
13997TIP3    H241933   4.846   3.359   1.866
13998TIP3   OH241934   2.681   0.144   3.617
13998TIP3    H141935   2.739   0.171   3.546
13998TIP3    H241936   2.619   0.217   3.626
13999TIP3   OH241937   4.330   3.622   1.909
13999TIP3    H141938   4.390   3.581   1.848
13999TIP3    H241939   4.374   3.703   1.936
14000TIP3   OH241940   4.048   1.966   6.216
14000TIP3    H141941   4.136   1.990   6.244
14000TIP3    H241942   4.000   2.049   6.214
14001TIP3   OH241943   7.888   5.685   3.381
14001TIP3    H141944   7.836   5.620   3.333
14001TIP3    H241945   7.977   5.671   3.348
14002TIP3   OH241946   5.999   5.097   5.629
14002TIP3    H141947   5.915   5.129   5.661
14002TIP3    H241948   6.008   5.135   5.541
14003TIP3   OH241949   6.878   4.388   2.404
14003TIP3    H141950   6.860   4.307   2.452
14003TIP3    H241951   6.822   4.453   2.445
14004TIP3   OH241952   7.072   0.895   0.716
14004TIP3    H141953   7.155   0.849   0.720
14004TIP3    H241954   7.009   0.829   0.688
14005TIP3   OH241955   7.190   2.374   3.687
14005TIP3    H141956   7.114   2.428   3.663
14005TIP3    H241957   7.230   2.421   3.760
14006TIP3   OH241958   0.380   4.968   6.557
14006TIP3    H141959   0.446   4.943   6.492
14006TIP3    H241960   0.428   4.973   6.639
14007TIP3   OH241961   3.011   0.870   2.112
14007TIP3    H141962   3.062   0.931   2.166
14007TIP3    H241963   2.958   0.927   2.056
14008TIP3   OH241964   4.193   0.858   4.843
14008TIP3    H141965   4.208   0.864   4.937
14008TIP3    H241966   4.100   0.839   4.833
14009TIP3   OH241967   3.288   3.712   5.636
14009TIP3    H141968   3.323   3.782   5.579
14009TIP3    H241969   3.259   3.758   5.714
14010TIP3   OH241970   2.151   3.068   5.784
14010TIP3    H141971   2.125   3.063   5.876
14010TIP3    H241972   2.167   3.161   5.769
14011TIP3   OH241973   2.651   2.343   3.708
14011TIP3    H141974   2.724   2.282   3.714
14011TIP3    H241975   2.683   2.424   3.747
14012TIP3   OH241976   4.362   7.082   5.673
14012TIP3    H141977   4.335   6.996   5.641
14012TIP3    H241978   4.282   7.121   5.708
14013TIP3   OH241979   0.187   7.777   5.366
14013TIP3    H141980   0.249   7.746   5.300
14013TIP3    H241981   0.100   7.759   5.328
14014TIP3   OH241982   3.041   4.087   2.169
14014TIP3    H141983   3.028   4.069   2.262
14014TIP3    H241984   3.098   4.017   2.138
14015TIP3   OH241985   5.408   5.951   0.207
14015TIP3    H141986   5.334   6.012   0.204
14015TIP3    H241987   5.405   5.905   0.123
14016TIP3   OH241988   0.717   3.012   4.517
14016TIP3    H141989   0.651   2.989   4.451
14016TIP3    H241990   0.676   2.989   4.600
14017TIP3   OH241991   5.965   3.932   5.887
14017TIP3    H141992   5.913   4.010   5.869
14017TIP3    H241993   5.964   3.883   5.805
14018TIP3   OH241994   2.207   3.803   6.749
14018TIP3    H141995   2.239   3.809   6.839
14018TIP3    H241996   2.281   3.832   6.695
14019TIP3   OH241997   2.880   0.662   4.266
14019TIP3    H141998   2.863   0.644   4.358
14019TIP3    H241999   2.818   0.731   4.242
14020TIP3   OH242000   5.802   0.139   4.154
14020TIP3    H142001   5.869   0.073   4.144
14020TIP3    H242002   5.720   0.090   4.161
14021TIP3   OH242003   6.596   0.461   1.891
14021TIP3    H142004   6.628   0.425   1.974
14021TIP3    H242005   6.594   0.386   1.832
14022TIP3   OH242006   6.325   3.438   1.343
14022TIP3    H142007   6.419   3.425   1.353
14022TIP3    H242008   6.317   3.492   1.264
14023TIP3   OH242009   3.894   7.298   6.469
14023TIP3    H142010   3.838   7.223   6.452
14023TIP3    H242011   3.859   7.368   6.415
14024TIP3   OH242012   8.058   6.703   4.330
14024TIP3    H142013   8.017   6.698   4.244
14024TIP3    H242014   8.131   6.641   4.326
14025TIP3   OH242015   1.483   7.359   1.722
14025TIP3    H142016   1.565   7.387   1.682
14025TIP3    H242017   1.508   7.305   1.796
14026TIP3   OH242018   1.133   0.102   6.068
14026TIP3    H142019   1.170   0.168   6.009
14026TIP3    H242020   1.185   0.110   6.148
14027TIP3   OH242021   2.998   2.194   5.914
14027TIP3    H142022   3.078   2.246   5.922
14027TIP3    H242023   2.954   2.204   5.998
14028TIP3   OH242024   1.454   2.995   4.645
14028TIP3    H142025   1.446   2.997   4.550
14028TIP3    H242026   1.506   2.916   4.663
14029TIP3   OH242027   2.035   1.401   4.394
14029TIP3    H142028   2.005   1.449   4.471
14029TIP3    H242029   2.055   1.313   4.426
14030TIP3   OH242030   2.577   0.220   2.868
14030TIP3    H142031   2.586   0.309   2.835
14030TIP3    H242032   2.667   0.188   2.874
14031TIP3   OH242033   0.952   7.111   2.833
14031TIP3    H142034   0.884   7.068   2.782
14031TIP3    H242035   0.966   7.195   2.790
14032TIP3   OH242036   0.481   6.956   4.219
14032TIP3    H142037   0.569   6.980   4.192
14032TIP3    H242038   0.481   6.968   4.314
14033TIP3   OH242039   3.343   6.014   5.348
14033TIP3    H142040   3.344   5.971   5.262
14033TIP3    H242041   3.424   5.985   5.391
14034TIP3   OH242042   8.210   6.607   5.858
14034TIP3    H142043   8.157   6.685   5.838
14034TIP3    H242044   8.151   6.534   5.842
14035TIP3   OH242045   5.901   3.241   3.312
14035TIP3    H142046   5.815   3.281   3.299
14035TIP3    H242047   5.954   3.310   3.352
14036TIP3   OH242048   4.562   7.188   4.527
14036TIP3    H142049   4.491   7.225   4.474
14036TIP3    H242050   4.538   7.208   4.617
14037TIP3   OH242051   4.714   4.315   6.599
14037TIP3    H142052   4.771   4.388   6.623
14037TIP3    H242053   4.718   4.255   6.674
14038TIP3   OH242054   8.210   2.042   1.697
14038TIP3    H142055   8.136   2.020   1.753
14038TIP3    H242056   8.221   1.965   1.641
14039TIP3   OH242057   6.432   6.013   5.634
14039TIP3    H142058   6.483   5.931   5.634
14039TIP3    H242059   6.487   6.075   5.682
14040TIP3   OH242060   1.912   3.503   3.095
14040TIP3    H142061   1.854   3.494   3.170
14040TIP3    H242062   1.858   3.546   3.028
14041TIP3   OH242063   6.009   7.619   2.637
14041TIP3    H142064   6.068   7.688   2.667
14041TIP3    H242065   5.928   7.664   2.615
14042TIP3   OH242066   2.160   6.055   4.762
14042TIP3    H142067   2.083   6.058   4.706
14042TIP3    H242068   2.195   6.145   4.759
14043TIP3   OH242069   7.135   2.731   0.363
14043TIP3    H142070   7.091   2.681   0.295
14043TIP3    H242071   7.221   2.754   0.326
14044TIP3   OH242072   5.785   2.879   5.649
14044TIP3    H142073   5.813   2.921   5.730
14044TIP3    H242074   5.758   2.951   5.592
14045TIP3   OH242075   2.875   5.649   1.525
14045TIP3    H142076   2.962   5.655   1.564
14045TIP3    H242077   2.836   5.735   1.539
14046TIP3   OH242078   7.962   2.354   2.404
14046TIP3    H142079   7.933   2.342   2.314
14046TIP3    H242080   7.973   2.448   2.414
14047TIP3   OH242081   0.079   0.124   1.560
14047TIP3    H142082   0.108   0.206   1.522
14047TIP3    H242083  -0.015   0.136   1.574
14048TIP3   OH242084   8.128   7.133   1.573
14048TIP3    H142085   8.094   7.065   1.631
14048TIP3    H242086   8.096   7.109   1.486
14049TIP3   OH242087   3.185   4.090   2.472
14049TIP3    H142088   3.245   4.026   2.435
14049TIP3    H242089   3.103   4.043   2.482
14050TIP3   OH242090   5.808   1.158   4.884
14050TIP3    H142091   5.903   1.160   4.885
14050TIP3    H242092   5.782   1.251   4.884
14051TIP3   OH242093   3.355   6.006   1.429
14051TIP3    H142094   3.410   5.933   1.456
14051TIP3    H242095   3.266   5.972   1.433
14052TIP3   OH242096   5.838   1.375   2.856
14052TIP3    H142097   5.915   1.362   2.800
14052TIP3    H242098   5.771   1.317   2.819
14053TIP3   OH242099   1.069   6.559   0.950
14053TIP3    H142100   1.035   6.495   1.013
14053TIP3    H242101   1.070   6.642   0.999
14054TIP3   OH242102   5.127   0.926   3.326
14054TIP3    H142103   5.189   0.877   3.380
14054TIP3    H242104   5.041   0.901   3.361
14055TIP3   OH242105   3.329   0.263   6.021
14055TIP3    H142106   3.406   0.311   6.051
14055TIP3    H242107   3.364   0.192   5.969
14056TIP3   OH242108   6.271   4.663   5.057
14056TIP3    H142109   6.359   4.638   5.027
14056TIP3    H242110   6.286   4.704   5.143
14057TIP3   OH242111   7.535   6.706   0.381
14057TIP3    H142112   7.581   6.623   0.367
14057TIP3    H242113   7.535   6.717   0.476
14058TIP3   OH242114   7.211   3.141   2.311
14058TIP3    H142115   7.293   3.091   2.309
14058TIP3    H242116   7.228   3.217   2.255
14059TIP3   OH242117   0.823   0.890   1.553
14059TIP3    H142118   0.885   0.882   1.480
14059TIP3    H242119   0.736   0.886   1.511
14060TIP3   OH242120   0.302   7.086   4.050
14060TIP3    H142121   0.361   7.035   4.105
14060TIP3    H242122   0.278   7.162   4.103
14061TIP3   OH242123   4.329   6.102   6.763
14061TIP3    H142124   4.377   6.018   6.767
14061TIP3    H242125   4.238   6.077   6.750
14062TIP3   OH242126   4.390   6.303   4.098
14062TIP3    H142127   4.435   6.260   4.171
14062TIP3    H242128   4.389   6.237   4.028
14063TIP3   OH242129   6.504   1.359   3.278
14063TIP3    H142130   6.589   1.394   3.253
14063TIP3    H242131   6.481   1.299   3.207
14064TIP3   OH242132   6.729   0.433   2.123
14064TIP3    H142133   6.824   0.451   2.125
14064TIP3    H242134   6.695   0.477   2.201
14065TIP3   OH242135   6.018   6.325   0.555
14065TIP3    H142136   6.081   6.261   0.522
14065TIP3    H242137   6.071   6.386   0.606
14066TIP3   OH242138   6.821   7.556   2.132
14066TIP3    H142139   6.845   7.618   2.201
14066TIP3    H242140   6.726   7.547   2.140
14067TIP3   OH242141   6.338   3.311   2.505
14067TIP3    H142142   6.417   3.318   2.452
14067TIP3    H242143   6.269   3.350   2.451
14068TIP3   OH242144   3.317   2.376   4.659
14068TIP3    H142145   3.222   2.386   4.656
14068TIP3    H242146   3.334   2.330   4.741
14069TIP3   OH242147   2.114   7.330   2.370
14069TIP3    H142148   2.204   7.349   2.394
14069TIP3    H242149   2.112   7.236   2.355
14070TIP3   OH242150   1.021   2.640   6.577
14070TIP3    H142151   0.975   2.690   6.645
14070TIP3    H242152   1.111   2.634   6.609
14071TIP3   OH242153   0.475   2.203   6.555
14071TIP3    H142154   0.503   2.294   6.556
14071TIP3    H242155   0.545   2.157   6.509
14072TIP3   OH242156   4.486   1.029   1.479
14072TIP3    H142157   4.410   0.992   1.525
14072TIP3    H242158   4.559   1.017   1.539
14073TIP3   OH242159   6.026   1.023   2.800
14073TIP3    H142160   6.054   1.093   2.741
14073TIP3    H242161   5.961   0.974   2.749
14074TIP3   OH242162   5.158   4.167   4.157
14074TIP3    H142163   5.079   4.168   4.103
14074TIP3    H242164   5.223   4.214   4.105
14075TIP3   OH242165   7.077   3.885   1.252
14075TIP3    H142166   7.016   3.876   1.178
14075TIP3    H242167   7.154   3.927   1.214
14076TIP3   OH242168   2.925   0.163  -0.025
14076TIP3    H142169   2.969   0.241   0.008
14076TIP3    H242170   2.997   0.106  -0.053
14077TIP3   OH242171   7.200   7.237   3.752
14077TIP3    H142172   7.287   7.204   3.728
14077TIP3    H242173   7.140   7.186   3.697
14078TIP3   OH242174   2.376   6.294   1.858
14078TIP3    H142175   2.313   6.244   1.911
14078TIP3    H242176   2.452   6.236   1.851
14079TIP3   OH242177   3.862   1.801   2.568
14079TIP3    H142178   3.798   1.871   2.577
14079TIP3    H242179   3.937   1.830   2.619
14080TIP3   OH242180   6.912   4.070   1.376
14080TIP3    H142181   6.967   4.130   1.426
14080TIP3    H242182   6.971   4.001   1.348
14081TIP3   OH242183   0.828   4.501   6.850
14081TIP3    H142184   0.799   4.446   6.777
14081TIP3    H242185   0.875   4.573   6.809
14082TIP3   OH242186   4.638   4.220   0.985
14082TIP3    H142187   4.652   4.125   0.991
14082TIP3    H242188   4.641   4.238   0.891
14083TIP3   OH242189   3.001   5.075   0.716
14083TIP3    H142190   3.002   4.999   0.657
14083TIP3    H242191   2.908   5.099   0.721
14084TIP3   OH242192   2.595   5.238   6.608
14084TIP3    H142193   2.553   5.154   6.628
14084TIP3    H242194   2.522   5.297   6.589
14085TIP3   OH242195   7.215   6.746   6.336
14085TIP3    H142196   7.309   6.764   6.334
14085TIP3    H242197   7.174   6.831   6.319
14086TIP3   OH242198   5.763   6.225   6.424
14086TIP3    H142199   5.807   6.197   6.344
14086TIP3    H242200   5.800   6.169   6.492
14087TIP3   OH242201   2.111   5.737   4.773
14087TIP3    H142202   2.028   5.777   4.799
14087TIP3    H242203   2.167   5.811   4.750
14088TIP3   OH242204   2.770   4.548   1.524
14088TIP3    H142205   2.791   4.632   1.484
14088TIP3    H242206   2.808   4.483   1.465
14089TIP3   OH242207   6.210   3.873   6.015
14089TIP3    H142208   6.276   3.936   5.986
14089TIP3    H242209   6.127   3.906   5.978
14090TIP3   OH242210   4.060   3.615   4.603
14090TIP3    H142211   3.989   3.631   4.542
14090TIP3    H242212   4.130   3.675   4.575
14091TIP3   OH242213   6.028   4.860   4.182
14091TIP3    H142214   6.081   4.927   4.225
14091TIP3    H242215   6.088   4.815   4.123
14092TIP3   OH242216   3.124   3.754   6.277
14092TIP3    H142217   3.209   3.793   6.299
14092TIP3    H242218   3.069   3.828   6.252
14093TIP3   OH242219   5.852   5.915   1.960
14093TIP3    H142220   5.946   5.936   1.960
14093TIP3    H242221   5.815   5.974   2.026
14094TIP3   OH242222   6.071   1.524   4.607
14094TIP3    H142223   6.041   1.573   4.684
14094TIP3    H242224   6.166   1.535   4.607
14095TIP3   OH242225   3.974   3.287   5.042
14095TIP3    H142226   3.932   3.204   5.018
14095TIP3    H242227   3.924   3.318   5.117
14096TIP3   OH242228   5.253   4.880   1.045
14096TIP3    H142229   5.331   4.923   1.079
14096TIP3    H242230   5.226   4.934   0.971
14097TIP3   OH242231   2.616   0.661   1.598
14097TIP3    H142232   2.594   0.603   1.526
14097TIP3    H242233   2.536   0.667   1.651
14098TIP3   OH242234   6.920   6.014   2.543
14098TIP3    H142235   6.897   6.021   2.451
14098TIP3    H242236   6.964   5.930   2.551
14099TIP3   OH242237   8.182   0.354   4.549
14099TIP3    H142238   8.141   0.274   4.516
14099TIP3    H242239   8.158   0.356   4.642
14100TIP3   OH242240   7.491   7.056   4.777
14100TIP3    H142241   7.430   7.027   4.844
14100TIP3    H242242   7.491   6.984   4.712
14101TIP3   OH242243   6.519   1.445   1.914
14101TIP3    H142244   6.482   1.475   1.831
14101TIP3    H242245   6.475   1.362   1.931
14102TIP3   OH242246   0.953   2.918   4.419
14102TIP3    H142247   0.873   2.942   4.465
14102TIP3    H242248   0.925   2.858   4.350
14103TIP3   OH242249   3.268   1.446   3.467
14103TIP3    H142250   3.270   1.373   3.529
14103TIP3    H242251   3.315   1.413   3.390
14104TIP3   OH242252   0.843   0.984   3.364
14104TIP3    H142253   0.890   0.977   3.448
14104TIP3    H242254   0.769   1.041   3.382
14105TIP3   OH242255   0.847   1.609   1.870
14105TIP3    H142256   0.759   1.601   1.834
14105TIP3    H242257   0.899   1.546   1.821
14106TIP3   OH242258   3.385   5.316   6.028
14106TIP3    H142259   3.327   5.334   6.102
14106TIP3    H242260   3.335   5.341   5.951
14107TIP3   OH242261   5.445   5.020   0.508
14107TIP3    H142262   5.486   5.091   0.557
14107TIP3    H242263   5.512   4.952   0.505
14108TIP3   OH242264   1.442   3.432   2.492
14108TIP3    H142265   1.451   3.343   2.457
14108TIP3    H242266   1.522   3.446   2.542
14109TIP3   OH242267   4.155   0.831   5.842
14109TIP3    H142268   4.062   0.812   5.838
14109TIP3    H242269   4.187   0.783   5.918
14110TIP3   OH242270   0.033   2.553   2.449
14110TIP3    H142271  -0.020   2.621   2.406
14110TIP3    H242272   0.044   2.486   2.382
14111TIP3   OH242273   7.914   2.887   6.413
14111TIP3    H142274   7.876   2.944   6.346
14111TIP3    H242275   7.981   2.941   6.455
14112TIP3   OH242276   6.101   5.618   2.896
14112TIP3    H142277   6.046   5.584   2.967
14112TIP3    H242278   6.165   5.674   2.939
14113TIP3   OH242279   5.829   2.885   3.661
14113TIP3    H142280   5.806   2.953   3.724
14113TIP3    H242281   5.898   2.923   3.607
14114TIP3   OH242282   0.095   2.652   2.715
14114TIP3    H142283   0.056   2.638   2.629
14114TIP3    H242284   0.114   2.746   2.718
14115TIP3   OH242285   5.048   4.321   1.945
14115TIP3    H142286   5.093   4.241   1.916
14115TIP3    H242287   5.057   4.382   1.872
14116TIP3   OH242288   6.374   2.249   5.926
14116TIP3    H142289   6.407   2.172   5.970
14116TIP3    H242290   6.439   2.269   5.858
14117TIP3   OH242291   5.022   2.126   3.506
14117TIP3    H142292   5.038   2.110   3.599
14117TIP3    H242293   4.928   2.117   3.495
14118TIP3   OH242294   3.108   6.658   5.209
14118TIP3    H142295   3.052   6.601   5.262
14118TIP3    H242296   3.047   6.705   5.152
14119TIP3   OH242297   6.364   0.734   6.231
14119TIP3    H142298   6.456   0.722   6.252
14119TIP3    H242299   6.319   0.660   6.271
14120TIP3   OH242300   1.883   6.722   3.908
14120TIP3    H142301   1.910   6.805   3.870
14120TIP3    H242302   1.828   6.681   3.840
14121TIP3   OH242303   4.525   5.658   3.189
14121TIP3    H142304   4.582   5.610   3.129
14121TIP3    H242305   4.475   5.589   3.234
14122TIP3   OH242306   5.227   7.155   3.246
14122TIP3    H142307   5.322   7.151   3.234
14122TIP3    H242308   5.215   7.179   3.338
14123TIP3   OH242309   3.815   5.896   0.426
14123TIP3    H142310   3.774   5.835   0.365
14123TIP3    H242311   3.909   5.881   0.415
14124TIP3   OH242312   4.785   7.664   4.845
14124TIP3    H142313   4.692   7.642   4.858
14124TIP3    H242314   4.787   7.706   4.759
14125TIP3   OH242315   7.719   6.757   0.972
14125TIP3    H142316   7.660   6.681   0.972
14125TIP3    H242317   7.661   6.833   0.974
14126TIP3   OH242318   4.503   1.166   6.440
14126TIP3    H142319   4.557   1.210   6.506
14126TIP3    H242320   4.449   1.237   6.404
14127TIP3   OH242321   4.621   1.146   1.077
14127TIP3    H142322   4.692   1.162   1.015
14127TIP3    H242323   4.628   1.053   1.099
14128TIP3   OH242324   6.912   6.517   4.643
14128TIP3    H142325   7.006   6.530   4.660
14128TIP3    H242326   6.870   6.589   4.689
14129TIP3   OH242327   4.507   7.565   5.307
14129TIP3    H142328   4.557   7.523   5.237
14129TIP3    H242329   4.453   7.630   5.262
14130TIP3   OH242330   6.998   4.427   6.888
14130TIP3    H142331   7.051   4.463   6.816
14130TIP3    H242332   6.914   4.472   6.881
14131TIP3   OH242333   6.962   0.353   1.302
14131TIP3    H142334   7.056   0.369   1.292
14131TIP3    H242335   6.929   0.348   1.212
14132TIP3   OH242336   4.044   4.364   5.612
14132TIP3    H142337   4.020   4.456   5.621
14132TIP3    H242338   4.094   4.360   5.531
14133TIP3   OH242339   5.112   5.617   5.184
14133TIP3    H142340   5.163   5.694   5.159
14133TIP3    H242341   5.165   5.543   5.156
14134TIP3   OH242342   1.504   2.053   3.170
14134TIP3    H142343   1.551   2.131   3.200
14134TIP3    H242344   1.536   2.038   3.082
14135TIP3   OH242345   2.261   2.674   5.035
14135TIP3    H142346   2.281   2.637   5.121
14135TIP3    H242347   2.306   2.758   5.034
14136TIP3   OH242348   7.018   1.873   0.516
14136TIP3    H142349   6.949   1.910   0.570
14136TIP3    H242350   7.079   1.834   0.578
14137TIP3   OH242351   3.378   3.947   5.196
14137TIP3    H142352   3.363   3.878   5.131
14137TIP3    H242353   3.335   4.024   5.158
14138TIP3   OH242354   1.782   3.914   2.245
14138TIP3    H142355   1.821   3.859   2.177
14138TIP3    H242356   1.777   3.856   2.321
14139TIP3   OH242357   6.011   3.136   2.085
14139TIP3    H142358   6.018   3.045   2.058
14139TIP3    H242359   6.006   3.133   2.180
14140TIP3   OH242360   1.507   4.168   3.139
14140TIP3    H142361   1.574   4.197   3.077
14140TIP3    H242362   1.429   4.155   3.085
14141TIP3   OH242363   4.522   7.921   5.878
14141TIP3    H142364   4.492   7.830   5.878
14141TIP3    H242365   4.617   7.915   5.892
14142TIP3   OH242366   5.600   0.805   6.261
14142TIP3    H142367   5.689   0.798   6.227
14142TIP3    H242368   5.611   0.829   6.353
14143TIP3   OH242369   2.693   1.547   4.003
14143TIP3    H142370   2.747   1.530   4.080
14143TIP3    H242371   2.620   1.600   4.036
14144TIP3   OH242372   7.952   6.197   5.418
14144TIP3    H142373   7.918   6.130   5.478
14144TIP3    H242374   7.983   6.147   5.342
14145TIP3   OH242375   3.098   6.063   0.594
14145TIP3    H142376   3.055   6.055   0.509
14145TIP3    H242377   3.069   5.987   0.644
14146TIP3   OH242378   8.144   5.584   1.041
14146TIP3    H142379   8.060   5.538   1.042
14146TIP3    H242380   8.165   5.599   1.133
14147TIP3   OH242381   5.254   3.760   0.448
14147TIP3    H142382   5.179   3.762   0.388
14147TIP3    H242383   5.316   3.823   0.411
14148TIP3   OH242384   5.636   5.134   1.477
14148TIP3    H142385   5.648   5.154   1.384
14148TIP3    H242386   5.723   5.150   1.516
14149TIP3   OH242387   5.248   0.291   3.807
14149TIP3    H142388   5.286   0.204   3.821
14149TIP3    H242389   5.323   0.349   3.800
14150TIP3   OH242390   7.394   1.993   2.048
14150TIP3    H142391   7.329   1.943   2.097
14150TIP3    H242392   7.460   2.018   2.113
14151TIP3   OH242393   2.307   0.241   5.527
14151TIP3    H142394   2.254   0.288   5.591
14151TIP3    H242395   2.365   0.187   5.580
14152TIP3   OH242396   7.375   4.959   3.508
14152TIP3    H142397   7.296   5.010   3.523
14152TIP3    H242398   7.350   4.869   3.530
14153TIP3   OH242399   3.460   5.189   2.381
14153TIP3    H142400   3.369   5.217   2.370
14153TIP3    H242401   3.479   5.136   2.304
14154TIP3   OH242402   6.423   1.238   0.470
14154TIP3    H142403   6.393   1.148   0.456
14154TIP3    H242404   6.371   1.290   0.408
14155TIP3   OH242405   5.056   3.622   4.290
14155TIP3    H142406   5.056   3.714   4.264
14155TIP3    H242407   4.966   3.605   4.319
14156TIP3   OH242408   3.718   7.283   3.338
14156TIP3    H142409   3.813   7.294   3.332
14156TIP3    H242410   3.697   7.301   3.430
14157TIP3   OH242411   1.908   4.958   1.707
14157TIP3    H142412   1.892   4.864   1.717
14157TIP3    H242413   1.905   4.972   1.613
14158TIP3   OH242414   3.729   2.997   0.571
14158TIP3    H142415   3.742   3.004   0.476
14158TIP3    H242416   3.817   2.998   0.608
14159TIP3   OH242417   4.280   0.851   1.289
14159TIP3    H142418   4.245   0.889   1.370
14159TIP3    H242419   4.274   0.922   1.225
14160TIP3   OH242420   3.874   0.952   3.319
14160TIP3    H142421   3.910   0.908   3.396
14160TIP3    H242422   3.932   0.928   3.248
14161TIP3   OH242423   7.686   6.283   2.636
14161TIP3    H142424   7.693   6.233   2.554
14161TIP3    H242425   7.767   6.265   2.682
14162TIP3   OH242426   1.547   3.285   0.716
14162TIP3    H142427   1.491   3.361   0.697
14162TIP3    H242428   1.522   3.221   0.649
14163TIP3   OH242429   6.018   7.088   1.125
14163TIP3    H142430   5.989   7.153   1.060
14163TIP3    H242431   6.113   7.099   1.130
14164TIP3   OH242432   2.255   1.908   0.143
14164TIP3    H142433   2.231   1.999   0.125
14164TIP3    H242434   2.316   1.885   0.073
14165TIP3   OH242435   2.054   7.037   5.062
14165TIP3    H142436   2.035   6.968   5.125
14165TIP3    H242437   2.120   7.092   5.105
14166TIP3   OH242438   2.128   7.753   4.981
14166TIP3    H142439   2.083   7.770   4.898
14166TIP3    H242440   2.067   7.783   5.048
14167TIP3   OH242441   8.308   4.444   2.433
14167TIP3    H142442   8.213   4.437   2.440
14167TIP3    H242443   8.331   4.384   2.362
14168TIP3   OH242444   3.647   3.504   2.863
14168TIP3    H142445   3.570   3.561   2.872
14168TIP3    H242446   3.686   3.530   2.780
14169TIP3   OH242447   6.813   4.150   5.040
14169TIP3    H142448   6.845   4.174   5.127
14169TIP3    H242449   6.806   4.055   5.043
14170TIP3   OH242450   0.388   2.045   2.332
14170TIP3    H142451   0.472   2.008   2.359
14170TIP3    H242452   0.386   2.132   2.372
14171TIP3   OH242453   6.661   2.021   3.927
14171TIP3    H142454   6.619   1.991   4.008
14171TIP3    H242455   6.607   2.093   3.897
14172TIP3   OH242456   3.973   7.729   6.401
14172TIP3    H142457   3.888   7.727   6.446
14172TIP3    H242458   4.034   7.757   6.469
14173TIP3   OH242459   6.568   7.172   2.461
14173TIP3    H142460   6.601   7.082   2.470
14173TIP3    H242461   6.476   7.161   2.439
14174TIP3   OH242462   2.567   5.428   5.402
14174TIP3    H142463   2.490   5.416   5.348
14174TIP3    H242464   2.618   5.347   5.391
14175TIP3   OH242465   3.398   6.833   1.531
14175TIP3    H142466   3.473   6.776   1.517
14175TIP3    H242467   3.324   6.774   1.546
14176TIP3   OH242468   4.652   2.113   2.096
14176TIP3    H142469   4.744   2.098   2.075
14176TIP3    H242470   4.604   2.047   2.045
14177TIP3   OH242471   1.181   0.674   4.005
14177TIP3    H142472   1.161   0.748   4.063
14177TIP3    H242473   1.214   0.606   4.063
14178TIP3   OH242474   4.776   2.630   1.096
14178TIP3    H142475   4.689   2.592   1.092
14178TIP3    H242476   4.761   2.724   1.104
14179TIP3   OH242477   1.861   4.140   5.607
14179TIP3    H142478   1.951   4.112   5.588
14179TIP3    H242479   1.870   4.231   5.636
14180TIP3   OH242480   3.567   4.198   3.630
14180TIP3    H142481   3.569   4.204   3.726
14180TIP3    H242482   3.656   4.173   3.605
14181TIP3   OH242483   3.520   5.563   6.389
14181TIP3    H142484   3.536   5.470   6.370
14181TIP3    H242485   3.492   5.600   6.306
14182TIP3   OH242486   2.545   5.227   0.760
14182TIP3    H142487   2.514   5.288   0.693
14182TIP3    H242488   2.469   5.174   0.781
14183TIP3   OH242489   8.387   5.228   4.075
14183TIP3    H142490   8.326   5.226   4.148
14183TIP3    H242491   8.360   5.156   4.018
14184TIP3   OH242492   7.750   2.305   1.046
14184TIP3    H142493   7.830   2.256   1.062
14184TIP3    H242494   7.679   2.242   1.058
14185TIP3   OH242495   3.141   2.647   0.753
14185TIP3    H142496   3.153   2.683   0.665
14185TIP3    H242497   3.196   2.703   0.809
14186TIP3   OH242498   7.814   2.294   5.405
14186TIP3    H142499   7.873   2.313   5.331
14186TIP3    H242500   7.800   2.200   5.401
14187TIP3   OH242501   5.540   6.185   2.317
14187TIP3    H142502   5.490   6.266   2.324
14187TIP3    H242503   5.476   6.116   2.329
14188TIP3   OH242504   5.392   0.440   6.419
14188TIP3    H142505   5.446   0.498   6.473
14188TIP3    H242506   5.302   0.455   6.450
14189TIP3   OH242507   4.570   5.747   1.178
14189TIP3    H142508   4.577   5.835   1.142
14189TIP3    H242509   4.605   5.754   1.267
14190TIP3   OH242510   3.756   5.887   2.846
14190TIP3    H142511   3.685   5.920   2.901
14190TIP3    H242512   3.832   5.884   2.904
14191TIP3   OH242513   7.938   0.131   4.989
14191TIP3    H142514   7.945   0.036   4.986
14191TIP3    H242515   7.872   0.153   4.924
14192TIP3   OH242516   0.413   0.836   3.639
14192TIP3    H142517   0.429   0.922   3.679
14192TIP3    H242518   0.415   0.853   3.545
14193TIP3   OH242519   5.612   3.011   4.860
14193TIP3    H142520   5.677   2.941   4.864
14193TIP3    H242521   5.661   3.090   4.884
14194TIP3   OH242522   4.037   2.690   5.756
14194TIP3    H142523   4.050   2.776   5.717
14194TIP3    H242524   3.993   2.707   5.839
14195TIP3   OH242525   1.683   0.490   1.791
14195TIP3    H142526   1.606   0.503   1.735
14195TIP3    H242527   1.691   0.572   1.840
14196TIP3   OH242528   7.512   5.469   1.889
14196TIP3    H142529   7.555   5.510   1.814
14196TIP3    H242530   7.556   5.384   1.899
14197TIP3   OH242531   6.485   0.182   5.078
14197TIP3    H142532   6.459   0.104   5.028
14197TIP3    H242533   6.462   0.256   5.022
14198TIP3   OH242534   7.460   3.891   0.643
14198TIP3    H142535   7.468   3.928   0.731
14198TIP3    H242536   7.408   3.812   0.654
14199TIP3   OH242537   6.653   5.766   0.510
14199TIP3    H142538   6.733   5.749   0.460
14199TIP3    H242539   6.623   5.680   0.537
14200TIP3   OH242540   4.253   6.234   0.112
14200TIP3    H142541   4.307   6.170   0.065
14200TIP3    H242542   4.304   6.315   0.110
14201TIP3   OH242543   0.447   7.407   0.362
14201TIP3    H142544   0.398   7.455   0.429
14201TIP3    H242545   0.448   7.317   0.394
14202TIP3   OH242546   6.217   7.576   6.365
14202TIP3    H142547   6.138   7.587   6.311
14202TIP3    H242548   6.228   7.661   6.408
14203TIP3   OH242549   7.365   3.552   5.761
14203TIP3    H142550   7.291   3.500   5.792
14203TIP3    H242551   7.432   3.541   5.828
14204TIP3   OH242552   2.077   0.617   4.228
14204TIP3    H142553   2.117   0.674   4.163
14204TIP3    H242554   2.146   0.555   4.252
14205TIP3   OH242555   0.602   3.108   1.953
14205TIP3    H142556   0.619   3.169   1.881
14205TIP3    H242557   0.678   3.049   1.954
14206TIP3   OH242558   0.759   1.204   3.659
14206TIP3    H142559   0.716   1.282   3.695
14206TIP3    H242560   0.831   1.187   3.719
14207TIP3   OH242561   2.029   7.362   1.095
14207TIP3    H142562   2.092   7.407   1.151
14207TIP3    H242563   1.965   7.429   1.072
14208TIP3   OH242564   0.065   4.198   3.590
14208TIP3    H142565   0.043   4.121   3.537
14208TIP3    H242566   0.000   4.263   3.566
14209TIP3   OH242567   3.102   3.321   1.845
14209TIP3    H142568   3.013   3.295   1.869
14209TIP3    H242569   3.113   3.290   1.755
14210TIP3   OH242570   5.184   6.358   3.944
14210TIP3    H142571   5.271   6.356   3.985
14210TIP3    H242572   5.199   6.404   3.861
14211TIP3   OH242573   6.171   4.694   0.239
14211TIP3    H142574   6.167   4.745   0.158
14211TIP3    H242575   6.238   4.737   0.291
14212TIP3   OH242576   1.431   0.637   1.273
14212TIP3    H142577   1.409   0.715   1.324
14212TIP3    H242578   1.358   0.627   1.212
14213TIP3   OH242579   3.123   6.841   5.969
14213TIP3    H142580   3.103   6.776   5.901
14213TIP3    H242581   3.041   6.848   6.019
14214TIP3   OH242582   8.304   7.197   4.249
14214TIP3    H142583   8.226   7.229   4.295
14214TIP3    H242584   8.364   7.171   4.319
14215TIP3   OH242585   5.580   3.862   0.688
14215TIP3    H142586   5.589   3.818   0.604
14215TIP3    H242587   5.591   3.955   0.667
14216TIP3   OH242588   6.139   3.324   6.405
14216TIP3    H142589   6.141   3.369   6.489
14216TIP3    H242590   6.195   3.247   6.417
14217TIP3   OH242591   4.624   1.737   5.658
14217TIP3    H142592   4.657   1.751   5.747
14217TIP3    H242593   4.530   1.730   5.668
14218TIP3   OH242594   1.937   1.943   5.189
14218TIP3    H142595   2.004   1.975   5.249
14218TIP3    H242596   1.944   1.847   5.193
14219TIP3   OH242597   4.775   7.237   1.751
14219TIP3    H142598   4.810   7.321   1.782
14219TIP3    H242599   4.681   7.243   1.766
14220TIP3   OH242600   3.848   0.850   1.333
14220TIP3    H142601   3.760   0.876   1.304
14220TIP3    H242602   3.890   0.816   1.254
14221TIP3   OH242603   3.338   0.585   5.755
14221TIP3    H142604   3.345   0.655   5.689
14221TIP3    H242605   3.334   0.504   5.703
14222TIP3   OH242606   5.711   0.404   1.427
14222TIP3    H142607   5.698   0.344   1.500
14222TIP3    H242608   5.633   0.395   1.373
14223TIP3   OH242609   5.218   3.691   5.933
14223TIP3    H142610   5.288   3.684   5.998
14223TIP3    H242611   5.150   3.632   5.964
14224TIP3   OH242612   4.090   5.349   4.052
14224TIP3    H142613   4.086   5.302   3.969
14224TIP3    H242614   4.032   5.424   4.040
14225TIP3   OH242615   4.808   5.833   5.482
14225TIP3    H142616   4.889   5.867   5.520
14225TIP3    H242617   4.830   5.744   5.454
14226TIP3   OH242618   1.092   2.171   2.715
14226TIP3    H142619   1.067   2.101   2.654
14226TIP3    H242620   1.143   2.126   2.783
14227TIP3   OH242621   2.363   6.914   6.678
14227TIP3    H142622   2.346   6.868   6.760
14227TIP3    H242623   2.362   6.846   6.611
14228TIP3   OH242624   6.643   3.483   4.521
14228TIP3    H142625   6.670   3.432   4.597
14228TIP3    H242626   6.724   3.506   4.477
14229TIP3   OH242627   4.514   3.556   3.620
14229TIP3    H142628   4.445   3.490   3.622
14229TIP3    H242629   4.573   3.532   3.691
14230TIP3   OH242630   5.503   6.819   3.401
14230TIP3    H142631   5.410   6.820   3.379
14230TIP3    H242632   5.547   6.853   3.323
14231TIP3   OH242633   0.195   1.030   2.577
14231TIP3    H142634   0.275   1.078   2.557
14231TIP3    H242635   0.220   0.970   2.648
14232TIP3   OH242636   4.357   4.373   2.920
14232TIP3    H142637   4.372   4.282   2.893
14232TIP3    H242638   4.344   4.367   3.015
14233TIP3   OH242639   1.291   3.963   6.770
14233TIP3    H142640   1.321   4.035   6.825
14233TIP3    H242641   1.331   3.980   6.684
14234TIP3   OH242642   2.485   3.414   4.019
14234TIP3    H142643   2.499   3.495   3.970
14234TIP3    H242644   2.406   3.430   4.070
14235TIP3   OH242645   7.467   1.889   5.498
14235TIP3    H142646   7.429   1.835   5.567
14235TIP3    H242647   7.561   1.868   5.501
14236TIP3   OH242648   8.102   7.745   3.271
14236TIP3    H142649   8.031   7.705   3.222
14236TIP3    H242650   8.117   7.686   3.345
14237TIP3   OH242651   3.167   7.805   1.370
14237TIP3    H142652   3.178   7.838   1.281
14237TIP3    H242653   3.197   7.876   1.426
14238TIP3   OH242654   6.617   1.496   2.165
14238TIP3    H142655   6.703   1.479   2.127
14238TIP3    H242656   6.557   1.496   2.091
14239TIP3   OH242657   0.660   6.694   4.366
14239TIP3    H142658   0.671   6.729   4.277
14239TIP3    H242659   0.702   6.608   4.364
14240TIP3   OH242660   8.180   3.382   4.395
14240TIP3    H142661   8.212   3.378   4.305
14240TIP3    H242662   8.181   3.475   4.417
14241TIP3   OH242663   8.185   7.774   0.844
14241TIP3    H142664   8.208   7.866   0.829
14241TIP3    H242665   8.091   7.771   0.833
14242TIP3   OH242666   0.539   5.548   5.922
14242TIP3    H142667   0.554   5.481   5.856
14242TIP3    H242668   0.546   5.501   6.006
14243TIP3   OH242669   0.125   1.692   2.142
14243TIP3    H142670   0.070   1.751   2.090
14243TIP3    H242671   0.064   1.653   2.205
14244TIP3   OH242672   6.017   2.830   6.730
14244TIP3    H142673   5.926   2.823   6.761
14244TIP3    H242674   6.017   2.780   6.648
14245TIP3   OH242675   7.192   1.248   1.060
14245TIP3    H142676   7.129   1.319   1.046
14245TIP3    H242677   7.138   1.170   1.075
14246TIP3   OH242678   1.412   5.571   0.700
14246TIP3    H142679   1.499   5.543   0.673
14246TIP3    H242680   1.413   5.666   0.691
14247TIP3   OH242681   2.618   7.512   1.969
14247TIP3    H142682   2.537   7.503   2.020
14247TIP3    H242683   2.681   7.548   2.032
14248TIP3   OH242684   4.513   1.702   5.185
14248TIP3    H142685   4.539   1.610   5.185
14248TIP3    H242686   4.585   1.747   5.141
14249TIP3   OH242687   8.174   3.425   4.789
14249TIP3    H142688   8.168   3.520   4.784
14249TIP3    H242689   8.175   3.396   4.698
14250TIP3   OH242690   7.550   2.931   6.332
14250TIP3    H142691   7.485   2.998   6.351
14250TIP3    H242692   7.631   2.979   6.314
14251TIP3   OH242693   0.131   6.783   4.833
14251TIP3    H142694   0.116   6.696   4.795
14251TIP3    H242695   0.063   6.792   4.900
14252TIP3   OH242696   7.731   2.090   3.995
14252TIP3    H142697   7.702   2.066   3.907
14252TIP3    H242698   7.819   2.053   4.003
14253TIP3   OH242699   0.631   2.045   0.308
14253TIP3    H142700   0.633   2.131   0.266
14253TIP3    H242701   0.671   2.060   0.394
14254TIP3   OH242702   4.223   4.583   6.108
14254TIP3    H142703   4.225   4.502   6.057
14254TIP3    H242704   4.201   4.650   6.044
14255TIP3   OH242705   5.347   4.768   2.756
14255TIP3    H142706   5.428   4.763   2.806
14255TIP3    H242707   5.361   4.708   2.683
14256TIP3   OH242708   6.557   4.170   4.311
14256TIP3    H142709   6.472   4.129   4.296
14256TIP3    H242710   6.618   4.119   4.258
14257TIP3   OH242711   0.430   1.656   4.911
14257TIP3    H142712   0.383   1.630   4.990
14257TIP3    H242713   0.391   1.602   4.842
14258TIP3   OH242714   5.334   7.727   4.712
14258TIP3    H142715   5.256   7.727   4.656
14258TIP3    H242716   5.385   7.652   4.683
14259TIP3   OH242717   4.700   7.531   5.806
14259TIP3    H142718   4.693   7.553   5.899
14259TIP3    H242719   4.739   7.443   5.805
14260TIP3   OH242720   2.826   5.092   5.003
14260TIP3    H142721   2.770   5.168   5.018
14260TIP3    H242722   2.854   5.065   5.091
14261TIP3   OH242723   8.226   3.316   5.572
14261TIP3    H142724   8.261   3.335   5.485
14261TIP3    H242725   8.304   3.301   5.626
14262TIP3   OH242726   7.388   3.394   4.587
14262TIP3    H142727   7.470   3.408   4.539
14262TIP3    H242728   7.405   3.318   4.643
14263TIP3   OH242729   3.917   7.386   1.968
14263TIP3    H142730   4.005   7.398   2.007
14263TIP3    H242731   3.863   7.357   2.041
14264TIP3   OH242732   8.205   0.379   2.508
14264TIP3    H142733   8.215   0.460   2.458
14264TIP3    H242734   8.159   0.406   2.588
14265TIP3   OH242735   7.943   6.065   4.610
14265TIP3    H142736   7.960   6.106   4.695
14265TIP3    H242737   7.921   5.975   4.630
14266TIP3   OH242738   2.094   3.416   3.624
14266TIP3    H142739   2.118   3.354   3.555
14266TIP3    H242740   2.049   3.363   3.690
14267TIP3   OH242741   4.726   5.917   4.640
14267TIP3    H142742   4.680   5.833   4.645
14267TIP3    H242743   4.812   5.900   4.678
14268TIP3   OH242744   7.875   3.665   0.568
14268TIP3    H142745   7.838   3.615   0.641
14268TIP3    H242746   7.945   3.608   0.534
14269TIP3   OH242747   0.466   4.044   3.706
14269TIP3    H142748   0.480   3.983   3.779
14269TIP3    H242749   0.552   4.082   3.690
14270TIP3   OH242750   5.945   2.425   4.126
14270TIP3    H142751   5.932   2.496   4.064
14270TIP3    H242752   5.867   2.428   4.182
14271TIP3   OH242753   2.751   3.233   0.562
14271TIP3    H142754   2.721   3.214   0.651
14271TIP3    H242755   2.779   3.324   0.565
14272TIP3   OH242756   0.869   3.380   1.862
14272TIP3    H142757   0.778   3.356   1.843
14272TIP3    H242758   0.918   3.298   1.852
14273TIP3   OH242759   8.368   7.654   5.207
14273TIP3    H142760   8.339   7.729   5.154
14273TIP3    H242761   8.334   7.671   5.294
14274TIP3   OH242762   3.749   2.027   2.252
14274TIP3    H142763   3.797   1.950   2.220
14274TIP3    H242764   3.682   2.042   2.186
14275TIP3   OH242765   3.153   7.469   3.333
14275TIP3    H142766   3.184   7.466   3.243
14275TIP3    H242767   3.233   7.468   3.386
14276TIP3   OH242768   7.787   6.911   2.044
14276TIP3    H142769   7.840   6.874   1.973
14276TIP3    H242770   7.799   7.006   2.036
14277TIP3   OH242771   1.692   5.785   3.448
14277TIP3    H142772   1.629   5.856   3.434
14277TIP3    H242773   1.717   5.757   3.360
14278TIP3   OH242774   3.294   1.594   5.110
14278TIP3    H142775   3.230   1.568   5.177
14278TIP3    H242776   3.377   1.559   5.142
14279TIP3   OH242777   7.513   3.448   0.018
14279TIP3    H142778   7.532   3.387  -0.053
14279TIP3    H242779   7.425   3.480   0.000
14280TIP3   OH242780   0.528   3.059   6.831
14280TIP3    H142781   0.501   2.972   6.800
14280TIP3    H242782   0.508   3.118   6.759
14281TIP3   OH242783   6.577   0.107   3.658
14281TIP3    H142784   6.627   0.167   3.713
14281TIP3    H242785   6.640   0.072   3.596
14282TIP3   OH242786   5.544   4.189   2.955
14282TIP3    H142787   5.637   4.173   2.936
14282TIP3    H242788   5.535   4.284   2.950
14283TIP3   OH242789   7.382   5.384   4.101
14283TIP3    H142790   7.389   5.422   4.189
14283TIP3    H242791   7.322   5.311   4.112
14284TIP3   OH242792   5.869   0.779   6.211
14284TIP3    H142793   5.914   0.812   6.133
14284TIP3    H242794   5.875   0.684   6.204
14285TIP3   OH242795   3.769   1.001   5.725
14285TIP3    H142796   3.679   1.032   5.741
14285TIP3    H242797   3.825   1.066   5.766
14286TIP3   OH242798   1.718   1.776   3.851
14286TIP3    H142799   1.623   1.759   3.848
14286TIP3    H242800   1.727   1.868   3.828
14287TIP3   OH242801   2.214   7.567   0.195
14287TIP3    H142802   2.124   7.569   0.163
14287TIP3    H242803   2.264   7.614   0.128
14288TIP3   OH242804   2.421   7.613   5.147
14288TIP3    H142805   2.395   7.613   5.054
14288TIP3    H242806   2.502   7.562   5.149
14289TIP3   OH242807   2.377   2.858   1.967
14289TIP3    H142808   2.448   2.794   1.961
14289TIP3    H242809   2.390   2.902   2.051
14290TIP3   OH242810   0.475   7.182   5.203
14290TIP3    H142811   0.441   7.269   5.222
14290TIP3    H242812   0.507   7.149   5.287
14291TIP3   OH242813   5.314   5.025   5.994
14291TIP3    H142814   5.266   4.954   5.952
14291TIP3    H242815   5.279   5.029   6.083
14292TIP3   OH242816   1.845   3.182   2.872
14292TIP3    H142817   1.879   3.179   2.962
14292TIP3    H242818   1.859   3.093   2.839
14293TIP3   OH242819   3.682   1.414   3.295
14293TIP3    H142820   3.661   1.507   3.297
14293TIP3    H242821   3.776   1.411   3.275
14294TIP3   OH242822   2.397   1.654   4.090
14294TIP3    H142823   2.357   1.567   4.094
14294TIP3    H242824   2.333   1.707   4.042
14295TIP3   OH242825   5.234   3.252   4.035
14295TIP3    H142826   5.155   3.203   4.010
14295TIP3    H242827   5.306   3.205   3.993
14296TIP3   OH242828   6.362   1.580   5.711
14296TIP3    H142829   6.426   1.600   5.778
14296TIP3    H242830   6.279   1.572   5.758
14297TIP3   OH242831   5.461   1.264   3.615
14297TIP3    H142832   5.404   1.193   3.645
14297TIP3    H242833   5.411   1.308   3.546
14298TIP3   OH242834   2.914   0.759   0.434
14298TIP3    H142835   2.849   0.802   0.491
14298TIP3    H242836   2.998   0.785   0.470
14299TIP3   OH242837   6.314   4.414   6.209
14299TIP3    H142838   6.251   4.384   6.274
14299TIP3    H242839   6.342   4.334   6.164
14300TIP3   OH242840   1.480   3.578   6.635
14300TIP3    H142841   1.568   3.540   6.630
14300TIP3    H242842   1.495   3.672   6.630
14301TIP3   OH242843   7.453   1.016   2.137
14301TIP3    H142844   7.448   1.078   2.064
14301TIP3    H242845   7.419   0.934   2.101
14302TIP3   OH242846   7.840   3.136   0.685
14302TIP3    H142847   7.754   3.110   0.719
14302TIP3    H242848   7.833   3.231   0.674
14303TIP3   OH242849   1.439   0.371   1.405
14303TIP3    H142850   1.389   0.350   1.326
14303TIP3    H242851   1.450   0.466   1.402
14304TIP3   OH242852   0.226   7.214   3.782
14304TIP3    H142853   0.168   7.289   3.769
14304TIP3    H242854   0.312   7.245   3.752
14305TIP3   OH242855   6.051   4.913   1.635
14305TIP3    H142856   5.986   4.972   1.671
14305TIP3    H242857   6.135   4.954   1.655
14306TIP3   OH242858   6.429   6.661   6.660
14306TIP3    H142859   6.471   6.744   6.636
14306TIP3    H242860   6.406   6.621   6.576
14307TIP3   OH242861   5.222   5.303   4.448
14307TIP3    H142862   5.248   5.394   4.433
14307TIP3    H242863   5.143   5.309   4.502
14308TIP3   OH242864   0.827   7.918   3.196
14308TIP3    H142865   0.780   7.840   3.166
14308TIP3    H242866   0.903   7.883   3.243
14309TIP3   OH242867   5.628   1.825   4.288
14309TIP3    H142868   5.588   1.814   4.375
14309TIP3    H242869   5.585   1.903   4.252
14310TIP3   OH242870   2.816   7.178   1.603
14310TIP3    H142871   2.747   7.239   1.577
14310TIP3    H242872   2.826   7.119   1.529
14311TIP3   OH242873   1.602   5.944   5.945
14311TIP3    H142874   1.526   5.907   5.989
14311TIP3    H242875   1.676   5.893   5.976
14312TIP3   OH242876   0.547   7.609   0.250
14312TIP3    H142877   0.507   7.594   0.165
14312TIP3    H242878   0.514   7.538   0.305
14313TIP3   OH242879   4.509   2.749   1.728
14313TIP3    H142880   4.582   2.697   1.696
14313TIP3    H242881   4.431   2.703   1.698
14314TIP3   OH242882   4.544   5.093   5.871
14314TIP3    H142883   4.502   5.007   5.870
14314TIP3    H242884   4.576   5.105   5.781
14315TIP3   OH242885   2.280   3.840   3.992
14315TIP3    H142886   2.237   3.903   3.934
14315TIP3    H242887   2.208   3.792   4.034
14316TIP3   OH242888   7.755   5.850   3.867
14316TIP3    H142889   7.754   5.818   3.776
14316TIP3    H242890   7.680   5.806   3.908
14317TIP3   OH242891   6.782   1.490   0.703
14317TIP3    H142892   6.779   1.531   0.789
14317TIP3    H242893   6.749   1.558   0.643
14318TIP3   OH242894   1.947   7.634   2.886
14318TIP3    H142895   1.938   7.695   2.814
14318TIP3    H242896   1.907   7.553   2.854
14319TIP3   OH242897   2.033   5.414   3.143
14319TIP3    H142898   1.977   5.357   3.195
14319TIP3    H242899   2.067   5.357   3.074
14320TIP3   OH242900   4.317   7.262   1.726
14320TIP3    H142901   4.342   7.188   1.671
14320TIP3    H242902   4.378   7.260   1.799
14321TIP3   OH242903   3.763   7.363   2.188
14321TIP3    H142904   3.798   7.431   2.246
14321TIP3    H242905   3.743   7.289   2.245
14322TIP3   OH242906   0.938   3.849   0.639
14322TIP3    H142907   0.873   3.789   0.676
14322TIP3    H242908   0.934   3.927   0.695
14323TIP3   OH242909   4.456   7.111   0.839
14323TIP3    H142910   4.550   7.117   0.818
14323TIP3    H242911   4.431   7.200   0.865
14324TIP3   OH242912   4.732   1.602   6.157
14324TIP3    H142913   4.753   1.600   6.064
14324TIP3    H242914   4.801   1.657   6.195
14325TIP3   OH242915   4.466   6.511   6.515
14325TIP3    H142916   4.528   6.569   6.471
14325TIP3    H242917   4.424   6.463   6.445
14326TIP3   OH242918   0.879   5.647   5.360
14326TIP3    H142919   0.851   5.711   5.295
14326TIP3    H242920   0.836   5.674   5.441
14327TIP3   OH242921   0.263   5.888   2.953
14327TIP3    H142922   0.303   5.831   2.888
14327TIP3    H242923   0.179   5.913   2.915
14328TIP3   OH242924   4.012   7.185   1.780
14328TIP3    H142925   4.105   7.206   1.767
14328TIP3    H242926   3.981   7.251   1.842
14329TIP3   OH242927   5.122   1.887   3.167
14329TIP3    H142928   5.184   1.960   3.172
14329TIP3    H242929   5.165   1.823   3.109
14330TIP3   OH242930   3.064   5.426   5.078
14330TIP3    H142931   3.125   5.376   5.132
14330TIP3    H242932   3.120   5.481   5.023
14331TIP3   OH242933   5.239   7.192   4.833
14331TIP3    H142934   5.261   7.133   4.762
14331TIP3    H242935   5.204   7.136   4.902
14332TIP3   OH242936   4.533   3.259   5.043
14332TIP3    H142937   4.622   3.229   5.026
14332TIP3    H242938   4.541   3.322   5.115
14333TIP3   OH242939   3.869   0.370   3.153
14333TIP3    H142940   3.899   0.341   3.239
14333TIP3    H242941   3.791   0.316   3.136
14334TIP3   OH242942   2.380   7.251   1.963
14334TIP3    H142943   2.395   7.208   1.879
14334TIP3    H242944   2.409   7.187   2.028
14335TIP3   OH242945   3.856   0.134   1.481
14335TIP3    H142946   3.923   0.167   1.540
14335TIP3    H242947   3.884   0.164   1.394
14336TIP3   OH242948   3.362   1.341   0.497
14336TIP3    H142949   3.403   1.262   0.463
14336TIP3    H242950   3.333   1.317   0.585
14337TIP3   OH242951   1.111   6.883   0.903
14337TIP3    H142952   1.068   6.964   0.874
14337TIP3    H242953   1.172   6.912   0.971
14338TIP3   OH242954   1.167   5.975   1.153
14338TIP3    H142955   1.092   6.034   1.149
14338TIP3    H242956   1.229   6.018   1.212
14339TIP3   OH242957   0.871   0.452   0.918
14339TIP3    H142958   0.899   0.498   0.998
14339TIP3    H242959   0.797   0.502   0.886
14340TIP3   OH242960   6.957   5.333   4.636
14340TIP3    H142961   6.977   5.415   4.591
14340TIP3    H242962   7.041   5.305   4.672
14341TIP3   OH242963   6.782   7.549   5.274
14341TIP3    H142964   6.835   7.619   5.234
14341TIP3    H242965   6.758   7.493   5.200
14342TIP3   OH242966   4.789   3.864   0.487
14342TIP3    H142967   4.844   3.942   0.500
14342TIP3    H242968   4.729   3.889   0.417
14343TIP3   OH242969  -0.061   1.829   1.275
14343TIP3    H142970  -0.051   1.883   1.196
14343TIP3    H242971   0.025   1.791   1.289
14344TIP3   OH242972   4.314   4.452   6.860
14344TIP3    H142973   4.317   4.547   6.852
14344TIP3    H242974   4.316   4.436   6.955
14345TIP3   OH242975   0.289   0.071   1.731
14345TIP3    H142976   0.227   0.065   1.658
14345TIP3    H242977   0.242   0.033   1.805
14346TIP3   OH242978   0.762   3.406   4.895
14346TIP3    H142979   0.798   3.318   4.894
14346TIP3    H242980   0.754   3.429   4.987
14347TIP3   OH242981   7.277   4.352   6.328
14347TIP3    H142982   7.297   4.366   6.420
14347TIP3    H242983   7.361   4.358   6.283
14348TIP3   OH242984   4.114   4.437   4.341
14348TIP3    H142985   4.047   4.462   4.406
14348TIP3    H242986   4.115   4.341   4.344
14349TIP3   OH242987   0.802   6.504   1.896
14349TIP3    H142988   0.809   6.457   1.813
14349TIP3    H242989   0.825   6.594   1.875
14350TIP3   OH242990   1.325   0.933   0.023
14350TIP3    H142991   1.309   0.845   0.056
14350TIP3    H242992   1.356   0.920  -0.066
14351TIP3   OH242993   7.922   5.618   0.456
14351TIP3    H142994   7.929   5.602   0.362
14351TIP3    H242995   7.978   5.552   0.496
14352TIP3   OH242996   3.412   2.726   6.142
14352TIP3    H142997   3.357   2.739   6.219
14352TIP3    H242998   3.361   2.762   6.069
14353TIP3   OH242999   0.192   2.250   6.494
14353TIP3    H143000   0.275   2.244   6.542
14353TIP3    H243001   0.210   2.211   6.409
14354TIP3   OH243002   4.539   3.673   5.249
14354TIP3    H143003   4.570   3.724   5.324
14354TIP3    H243004   4.523   3.737   5.180
14355TIP3   OH243005   3.673   0.313   4.060
14355TIP3    H143006   3.691   0.397   4.102
14355TIP3    H243007   3.756   0.288   4.019
14356TIP3   OH243008   5.884   6.171   5.004
14356TIP3    H143009   5.933   6.127   5.074
14356TIP3    H243010   5.942   6.166   4.928
14357TIP3   OH243011   5.290   4.392   1.723
14357TIP3    H143012   5.223   4.376   1.658
14357TIP3    H243013   5.266   4.475   1.764
14358TIP3   OH243014   3.178   2.037   0.442
14358TIP3    H143015   3.194   1.964   0.383
14358TIP3    H243016   3.094   2.017   0.484
14359TIP3   OH243017   6.273   5.114   5.658
14359TIP3    H143018   6.181   5.089   5.658
14359TIP3    H243019   6.284   5.166   5.578
14360TIP3   OH243020   3.812   4.551   2.694
14360TIP3    H143021   3.898   4.509   2.690
14360TIP3    H243022   3.830   4.643   2.674
14361TIP3   OH243023   3.420   1.878   4.591
14361TIP3    H143024   3.325   1.873   4.600
14361TIP3    H243025   3.434   1.929   4.512
14362TIP3   OH243026   6.328   3.066   6.478
14362TIP3    H143027   6.291   3.065   6.567
14362TIP3    H243028   6.284   2.994   6.433
14363TIP3   OH243029   2.355   3.193   0.714
14363TIP3    H143030   2.408   3.270   0.734
14363TIP3    H243031   2.292   3.223   0.649
14364TIP3   OH243032   4.371   4.239   4.286
14364TIP3    H143033   4.390   4.182   4.360
14364TIP3    H243034   4.278   4.225   4.268
14365TIP3   OH243035   4.178   2.276   4.507
14365TIP3    H143036   4.261   2.242   4.475
14365TIP3    H243037   4.201   2.354   4.557
14366TIP3   OH243038   0.384   3.072   2.625
14366TIP3    H143039   0.394   3.166   2.640
14366TIP3    H243040   0.333   3.042   2.700
14367TIP3   OH243041   1.400   4.078   4.835
14367TIP3    H143042   1.364   4.062   4.922
14367TIP3    H243043   1.350   4.019   4.777
14368TIP3   OH243044   6.924   4.116   2.183
14368TIP3    H143045   6.963   4.201   2.205
14368TIP3    H243046   6.830   4.129   2.193
14369TIP3   OH243047   7.446   0.755   6.067
14369TIP3    H143048   7.498   0.806   6.129
14369TIP3    H243049   7.356   0.781   6.084
14370TIP3   OH243050   1.661   5.161   3.448
14370TIP3    H143051   1.592   5.213   3.489
14370TIP3    H243052   1.639   5.070   3.469
14371TIP3   OH243053   1.066   1.947   2.533
14371TIP3    H143054   1.130   1.876   2.533
14371TIP3    H243055   1.050   1.965   2.440
14372TIP3   OH243056   7.959   3.129   1.719
14372TIP3    H143057   7.973   3.093   1.632
14372TIP3    H243058   7.905   3.207   1.705
14373TIP3   OH243059   6.813   1.051   0.616
14373TIP3    H143060   6.785   1.142   0.623
14373TIP3    H243061   6.806   1.017   0.705
14374TIP3   OH243062   7.981   3.986   1.234
14374TIP3    H143063   8.018   4.015   1.318
14374TIP3    H243064   7.936   3.905   1.255
14375TIP3   OH243065   8.211   6.334   0.712
14375TIP3    H143066   8.291   6.367   0.754
14375TIP3    H243067   8.229   6.241   0.698
14376TIP3   OH243068   2.121   3.511   2.011
14376TIP3    H143069   2.074   3.561   1.945
14376TIP3    H243070   2.176   3.451   1.961
14377TIP3   OH243071   8.021   4.998   5.172
14377TIP3    H143072   8.012   4.908   5.204
14377TIP3    H243073   8.078   5.041   5.236
14378TIP3   OH243074   7.756   4.417   0.849
14378TIP3    H143075   7.771   4.449   0.760
14378TIP3    H243076   7.818   4.467   0.902
14379TIP3   OH243077   5.837   6.903   1.167
14379TIP3    H143078   5.909   6.962   1.142
14379TIP3    H243079   5.764   6.962   1.186
14380TIP3   OH243080   6.390   7.339   0.512
14380TIP3    H143081   6.346   7.254   0.509
14380TIP3    H243082   6.441   7.342   0.431
14381TIP3   OH243083   0.691   0.836   2.170
14381TIP3    H143084   0.748   0.798   2.103
14381TIP3    H243085   0.739   0.911   2.204
14382TIP3   OH243086   5.162   7.048   5.579
14382TIP3    H143087   5.078   7.001   5.584
14382TIP3    H243088   5.227   6.980   5.564
14383TIP3   OH243089   3.153   7.436   6.457
14383TIP3    H143090   3.205   7.430   6.376
14383TIP3    H243091   3.087   7.367   6.447
14384TIP3   OH243092   1.753   6.310   3.596
14384TIP3    H143093   1.703   6.282   3.520
14384TIP3    H243094   1.796   6.231   3.628
14385TIP3   OH243095   1.867   0.201   6.685
14385TIP3    H143096   1.841   0.163   6.601
14385TIP3    H243097   1.820   0.149   6.750
14386TIP3   OH243098   3.996   5.679   5.364
14386TIP3    H143099   4.049   5.662   5.286
14386TIP3    H243100   4.057   5.674   5.437
14387TIP3   OH243101   7.044   6.331   4.979
14387TIP3    H143102   6.999   6.372   5.053
14387TIP3    H243103   6.977   6.276   4.938
14388TIP3   OH243104   3.860   1.212   1.977
14388TIP3    H143105   3.848   1.208   2.072
14388TIP3    H243106   3.858   1.306   1.957
14389TIP3   OH243107   5.399   2.658   2.903
14389TIP3    H143108   5.493   2.669   2.918
14389TIP3    H243109   5.386   2.684   2.812
14390TIP3   OH243110   5.047   1.984   0.699
14390TIP3    H143111   5.046   2.063   0.645
14390TIP3    H243112   4.968   1.937   0.674
14391TIP3   OH243113   4.416   5.509   5.354
14391TIP3    H143114   4.348   5.568   5.320
14391TIP3    H243115   4.421   5.439   5.289
14392TIP3   OH243116   6.842   3.987   1.878
14392TIP3    H143117   6.761   3.999   1.827
14392TIP3    H243118   6.866   4.075   1.905
14393TIP3   OH243119   7.430   4.482   3.116
14393TIP3    H143120   7.440   4.391   3.090
14393TIP3    H243121   7.436   4.532   3.035
14394TIP3   OH243122   6.124   2.029   2.428
14394TIP3    H143123   6.163   1.967   2.490
14394TIP3    H243124   6.175   2.109   2.439
14395TIP3   OH243125   2.538   2.558   3.361
14395TIP3    H143126   2.590   2.573   3.283
14395TIP3    H243127   2.500   2.643   3.382
14396TIP3   OH243128   6.752   0.913   1.564
14396TIP3    H143129   6.773   0.938   1.654
14396TIP3    H243130   6.731   0.820   1.569
14397TIP3   OH243131   2.381   3.960   1.848
14397TIP3    H143132   2.358   4.029   1.911
14397TIP3    H243133   2.432   3.898   1.899
14398TIP3   OH243134   2.023   6.835   3.517
14398TIP3    H143135   1.964   6.760   3.518
14398TIP3    H243136   2.107   6.800   3.546
14399TIP3   OH243137   1.516   5.026   4.835
14399TIP3    H143138   1.583   5.076   4.787
14399TIP3    H243139   1.557   5.007   4.920
14400TIP3   OH243140   6.860   3.220   2.599
14400TIP3    H143141   6.813   3.303   2.596
14400TIP3    H243142   6.900   3.212   2.512
14401TIP3   OH243143   2.743   5.175   2.941
14401TIP3    H143144   2.713   5.171   3.032
14401TIP3    H243145   2.832   5.211   2.948
14402TIP3   OH243146   5.565   3.861   2.603
14402TIP3    H143147   5.520   3.919   2.542
14402TIP3    H243148   5.645   3.908   2.626
14403TIP3   OH243149   6.792   7.173   1.145
14403TIP3    H143150   6.827   7.104   1.202
14403TIP3    H243151   6.839   7.162   1.062
14404TIP3   OH243152   6.370   1.841   1.741
14404TIP3    H143153   6.278   1.853   1.717
14404TIP3    H243154   6.419   1.871   1.664
14405TIP3   OH243155   1.536   5.167   0.952
14405TIP3    H143156   1.589   5.087   0.944
14405TIP3    H243157   1.463   5.154   0.892
14406TIP3   OH243158   3.690   7.232   1.107
14406TIP3    H143159   3.642   7.246   1.189
14406TIP3    H243160   3.669   7.142   1.082
14407TIP3   OH243161   1.679   7.491   3.662
14407TIP3    H143162   1.619   7.437   3.611
14407TIP3    H243163   1.629   7.516   3.740
14408TIP3   OH243164   6.961   6.642   1.714
14408TIP3    H143165   6.947   6.682   1.628
14408TIP3    H243166   6.931   6.552   1.703
14409TIP3   OH243167   0.653   5.729   6.833
14409TIP3    H143168   0.605   5.771   6.761
14409TIP3    H243169   0.589   5.667   6.871
14410TIP3   OH243170   1.085   0.787   5.203
14410TIP3    H143171   0.997   0.805   5.169
14410TIP3    H243172   1.072   0.718   5.268
14411TIP3   OH243173   6.230   2.837   1.120
14411TIP3    H143174   6.251   2.899   1.190
14411TIP3    H243175   6.313   2.824   1.074
14412TIP3   OH243176   3.092   2.572   3.998
14412TIP3    H143177   3.150   2.502   4.027
14412TIP3    H243178   3.005   2.546   4.027
14413TIP3   OH243179   8.031   3.425   5.701
14413TIP3    H143180   7.973   3.485   5.654
14413TIP3    H243181   8.076   3.377   5.632
14414TIP3   OH243182   3.974   0.756   1.096
14414TIP3    H143183   4.035   0.688   1.123
14414TIP3    H243184   3.917   0.714   1.032
14415TIP3   OH243185   3.768   1.757   1.108
14415TIP3    H143186   3.801   1.823   1.169
14415TIP3    H243187   3.818   1.771   1.028
14416TIP3   OH243188   7.782   6.527   2.068
14416TIP3    H143189   7.828   6.498   1.989
14416TIP3    H243190   7.849   6.574   2.118
14417TIP3   OH243191   7.634   6.267   1.516
14417TIP3    H143192   7.693   6.279   1.442
14417TIP3    H243193   7.653   6.179   1.548
14418TIP3   OH243194   8.215   6.793   6.372
14418TIP3    H143195   8.120   6.805   6.368
14418TIP3    H243196   8.233   6.780   6.466
14419TIP3   OH243197   0.575   5.982   3.467
14419TIP3    H143198   0.647   5.919   3.475
14419TIP3    H243199   0.553   6.004   3.558
14420TIP3   OH243200   8.377   0.602   1.637
14420TIP3    H143201   8.445   0.560   1.584
14420TIP3    H243202   8.391   0.696   1.625
14421TIP3   OH243203   1.464   5.838   1.005
14421TIP3    H143204   1.500   5.906   1.063
14421TIP3    H243205   1.539   5.785   0.980
14422TIP3   OH243206   2.966   0.089   6.725
14422TIP3    H143207   3.000   0.170   6.763
14422TIP3    H243208   2.871   0.098   6.730
14423TIP3   OH243209   2.913   7.470   2.312
14423TIP3    H143210   2.968   7.546   2.294
14423TIP3    H243211   2.957   7.426   2.385
14424TIP3   OH243212   4.071   4.362   3.526
14424TIP3    H143213   4.052   4.354   3.433
14424TIP3    H243214   4.158   4.325   3.537
14425TIP3   OH243215   4.732   3.606   6.326
14425TIP3    H143216   4.692   3.668   6.265
14425TIP3    H243217   4.816   3.583   6.286
14426TIP3   OH243218   4.378   5.329   0.663
14426TIP3    H143219   4.315   5.257   0.674
14426TIP3    H243220   4.352   5.393   0.728
14427TIP3   OH243221   2.263   0.877   1.990
14427TIP3    H143222   2.332   0.943   1.982
14427TIP3    H243223   2.217   0.880   1.906
14428TIP3   OH243224   2.964   0.171   6.135
14428TIP3    H143225   2.922   0.238   6.081
14428TIP3    H243226   3.026   0.220   6.189
14429TIP3   OH243227   0.851   2.579   1.703
14429TIP3    H143228   0.756   2.572   1.689
14429TIP3    H243229   0.866   2.536   1.787
14430TIP3   OH243230   8.086   7.549   3.474
14430TIP3    H143231   8.137   7.546   3.554
14430TIP3    H243232   7.995   7.550   3.504
14431TIP3   OH243233   1.096   6.111   2.587
14431TIP3    H143234   1.148   6.036   2.617
14431TIP3    H243235   1.148   6.148   2.515
14432TIP3   OH243236   4.830   6.585   1.512
14432TIP3    H143237   4.863   6.658   1.459
14432TIP3    H243238   4.754   6.619   1.557
14433TIP3   OH243239   2.611   2.369   0.504
14433TIP3    H143240   2.696   2.328   0.519
14433TIP3    H243241   2.569   2.370   0.590
14434TIP3   OH243242   3.788   5.674   4.568
14434TIP3    H143243   3.841   5.684   4.647
14434TIP3    H243244   3.756   5.762   4.550
14435TIP3   OH243245   3.345   5.966   3.361
14435TIP3    H143246   3.339   6.061   3.370
14435TIP3    H243247   3.418   5.941   3.418
14436TIP3   OH243248   7.648   5.230   1.930
14436TIP3    H143249   7.732   5.209   1.889
14436TIP3    H243250   7.606   5.145   1.944
14437TIP3   OH243251   0.701   4.610   5.708
14437TIP3    H143252   0.751   4.681   5.668
14437TIP3    H243253   0.728   4.610   5.799
14438TIP3   OH243254   2.906   0.587   5.396
14438TIP3    H143255   2.947   0.595   5.482
14438TIP3    H243256   2.861   0.503   5.398
14439TIP3   OH243257   0.322   7.414   5.943
14439TIP3    H143258   0.282   7.494   5.977
14439TIP3    H243259   0.409   7.442   5.913
14440TIP3   OH243260   8.241   0.530   3.740
14440TIP3    H143261   8.321   0.490   3.706
14440TIP3    H243262   8.170   0.471   3.712
14441TIP3   OH243263   5.719   1.054   3.487
14441TIP3    H143264   5.728   1.126   3.549
14441TIP3    H243265   5.808   1.030   3.464
14442TIP3   OH243266   0.455   7.526   5.449
14442TIP3    H143267   0.495   7.485   5.372
14442TIP3    H243268   0.424   7.452   5.502
14443TIP3   OH243269   1.438   4.555   3.266
14443TIP3    H143270   1.473   4.473   3.300
14443TIP3    H243271   1.498   4.580   3.196
14444TIP3   OH243272   6.323   5.359   6.497
14444TIP3    H143273   6.353   5.445   6.467
14444TIP3    H243274   6.364   5.349   6.583
14445TIP3   OH243275   2.244   6.814   2.220
14445TIP3    H143276   2.261   6.736   2.166
14445TIP3    H243277   2.329   6.858   2.224
14446TIP3   OH243278   6.819   4.265   5.292
14446TIP3    H143279   6.841   4.192   5.349
14446TIP3    H243280   6.758   4.318   5.344
14447TIP3   OH243281   0.952   5.463   3.023
14447TIP3    H143282   1.026   5.496   3.073
14447TIP3    H243283   0.987   5.445   2.936
14448TIP3   OH243284   6.016   4.909   2.619
14448TIP3    H143285   5.954   4.927   2.690
14448TIP3    H243286   5.968   4.931   2.539
14449TIP3   OH243287   1.682   2.324   0.251
14449TIP3    H143288   1.730   2.406   0.248
14449TIP3    H243289   1.671   2.299   0.159
14450TIP3   OH243290   6.612   0.559   2.388
14450TIP3    H143291   6.521   0.550   2.360
14450TIP3    H243292   6.624   0.653   2.400
14451TIP3   OH243293   4.733   5.252   2.548
14451TIP3    H143294   4.698   5.203   2.474
14451TIP3    H243295   4.688   5.337   2.545
14452TIP3   OH243296   0.913   6.761   1.817
14452TIP3    H143297   0.867   6.844   1.804
14452TIP3    H243298   1.006   6.784   1.815
14453TIP3   OH243299   4.394   6.517   1.154
14453TIP3    H143300   4.303   6.487   1.155
14453TIP3    H243301   4.395   6.585   1.086
14454TIP3   OH243302   7.864   1.572   5.138
14454TIP3    H143303   7.891   1.511   5.207
14454TIP3    H243304   7.779   1.540   5.109
14455TIP3   OH243305   5.610   3.074   2.290
14455TIP3    H143306   5.636   3.076   2.382
14455TIP3    H243307   5.558   3.154   2.278
14456TIP3   OH243308   2.535   6.626   3.079
14456TIP3    H143309   2.575   6.627   3.166
14456TIP3    H243310   2.442   6.612   3.095
14457TIP3   OH243311   8.346   1.710   0.192
14457TIP3    H143312   8.377   1.621   0.176
14457TIP3    H243313   8.259   1.713   0.153
14458TIP3   OH243314   0.523   0.884   1.089
14458TIP3    H143315   0.570   0.965   1.071
14458TIP3    H243316   0.431   0.907   1.084
14459TIP3   OH243317   3.103   5.519   6.118
14459TIP3    H143318   3.076   5.509   6.026
14459TIP3    H243319   3.132   5.432   6.144
14460TIP3   OH243320   1.573   1.200   2.107
14460TIP3    H143321   1.634   1.272   2.117
14460TIP3    H243322   1.493   1.240   2.073
14461TIP3   OH243323   8.070   3.055   4.628
14461TIP3    H143324   8.162   3.076   4.644
14461TIP3    H243325   8.022   3.133   4.659
14462TIP3   OH243326   7.718   3.104   2.768
14462TIP3    H143327   7.667   3.115   2.688
14462TIP3    H243328   7.747   3.013   2.765
14463TIP3   OH243329   5.965   2.908   1.300
14463TIP3    H143330   5.985   2.858   1.221
14463TIP3    H243331   6.013   2.990   1.289
14464TIP3   OH243332   8.144   2.384   5.748
14464TIP3    H143333   8.112   2.453   5.690
14464TIP3    H243334   8.069   2.362   5.803
14465TIP3   OH243335   3.688   6.991   0.958
14465TIP3    H143336   3.717   6.936   1.032
14465TIP3    H243337   3.758   6.982   0.893
14466TIP3   OH243338   7.521   2.259   2.711
14466TIP3    H143339   7.508   2.237   2.804
14466TIP3    H243340   7.614   2.247   2.696
14467TIP3   OH243341   4.857   4.732   3.632
14467TIP3    H143342   4.840   4.763   3.543
14467TIP3    H243343   4.877   4.811   3.682
14468TIP3   OH243344   1.028   0.221   0.575
14468TIP3    H143345   1.048   0.297   0.519
14468TIP3    H243346   0.955   0.178   0.530
14469TIP3   OH243347   2.061   5.469   1.555
14469TIP3    H143348   2.099   5.553   1.580
14469TIP3    H243349   2.040   5.479   1.462
14470TIP3   OH243350   3.115   5.919   1.042
14470TIP3    H143351   3.062   5.907   0.964
14470TIP3    H243352   3.205   5.906   1.012
14471TIP3   OH243353   8.116   5.064   5.849
14471TIP3    H143354   8.048   5.030   5.906
14471TIP3    H243355   8.160   4.987   5.814
14472TIP3   OH243356   7.799   3.869   4.129
14472TIP3    H143357   7.852   3.896   4.054
14472TIP3    H243358   7.857   3.811   4.179
14473TIP3   OH243359   6.861   4.397   6.177
14473TIP3    H143360   6.919   4.334   6.135
14473TIP3    H243361   6.804   4.344   6.233
14474TIP3   OH243362   3.929   1.923   4.416
14474TIP3    H143363   3.991   1.882   4.475
14474TIP3    H243364   3.953   1.891   4.329
14475TIP3   OH243365   5.142   6.208   3.530
14475TIP3    H143366   5.144   6.254   3.447
14475TIP3    H243367   5.122   6.276   3.595
14476TIP3   OH243368   7.604   1.327   6.273
14476TIP3    H143369   7.581   1.255   6.331
14476TIP3    H243370   7.520   1.368   6.251
14477TIP3   OH243371   1.318   0.331   1.884
14477TIP3    H143372   1.383   0.335   1.813
14477TIP3    H243373   1.311   0.421   1.915
14478TIP3   OH243374   2.742   4.455   3.452
14478TIP3    H143375   2.765   4.548   3.455
14478TIP3    H243376   2.682   4.443   3.526
14479TIP3   OH243377   2.267   0.025   0.459
14479TIP3    H143378   2.191  -0.019   0.422
14479TIP3    H243379   2.244   0.118   0.457
14480TIP3   OH243380   1.477   5.925   0.026
14480TIP3    H143381   1.411   5.985   0.060
14480TIP3    H243382   1.426   5.852  -0.011
14481TIP3   OH243383   2.493   4.143   2.105
14481TIP3    H143384   2.580   4.147   2.066
14481TIP3    H243385   2.443   4.210   2.058
14482TIP3   OH243386   6.961   7.594   0.742
14482TIP3    H143387   6.871   7.565   0.757
14482TIP3    H243388   6.984   7.557   0.657
14483TIP3   OH243389   8.012   3.454   6.603
14483TIP3    H143390   7.935   3.511   6.612
14483TIP3    H243391   8.073   3.507   6.552
14484TIP3   OH243392   6.209   0.765   2.085
14484TIP3    H143393   6.186   0.757   1.993
14484TIP3    H243394   6.198   0.858   2.105
14485TIP3   OH243395   7.183   3.545   2.813
14485TIP3    H143396   7.270   3.560   2.776
14485TIP3    H243397   7.150   3.632   2.834
14486TIP3   OH243398   6.247   6.760   3.966
14486TIP3    H143399   6.313   6.824   3.939
14486TIP3    H243400   6.294   6.700   4.023
14487TIP3   OH243401   2.813   2.817   4.204
14487TIP3    H143402   2.731   2.841   4.161
14487TIP3    H243403   2.877   2.878   4.166
14488TIP3   OH243404   7.778   1.721   0.333
14488TIP3    H143405   7.766   1.631   0.301
14488TIP3    H243406   7.694   1.763   0.317
14489TIP3   OH243407   5.532   7.789   0.272
14489TIP3    H143408   5.436   7.786   0.275
14489TIP3    H243409   5.557   7.703   0.237
14490TIP3   OH243410   7.267   5.800   6.433
14490TIP3    H143411   7.322   5.875   6.408
14490TIP3    H243412   7.283   5.789   6.527
14491TIP3   OH243413   4.333   6.538   0.387
14491TIP3    H143414   4.385   6.592   0.446
14491TIP3    H243415   4.267   6.497   0.443
14492TIP3   OH243416   5.603   4.528   1.001
14492TIP3    H143417   5.572   4.580   1.075
14492TIP3    H243418   5.626   4.443   1.038
14493TIP3   OH243419   5.498   1.829   3.086
14493TIP3    H143420   5.472   1.876   3.165
14493TIP3    H243421   5.522   1.742   3.117
14494TIP3   OH243422   7.378   6.460   4.794
14494TIP3    H143423   7.374   6.408   4.875
14494TIP3    H243424   7.360   6.398   4.724
14495TIP3   OH243425   1.145   7.312   6.386
14495TIP3    H143426   1.074   7.300   6.323
14495TIP3    H243427   1.217   7.349   6.334
14496TIP3   OH243428   5.069   3.964   5.757
14496TIP3    H143429   5.103   3.931   5.840
14496TIP3    H243430   5.133   3.934   5.692
14497TIP3   OH243431   1.591   5.986   5.498
14497TIP3    H143432   1.576   6.067   5.449
14497TIP3    H243433   1.521   5.927   5.469
14498TIP3   OH243434   7.451   0.592   5.486
14498TIP3    H143435   7.451   0.499   5.509
14498TIP3    H243436   7.511   0.633   5.549
14499TIP3   OH243437   7.149   1.119   0.598
14499TIP3    H143438   7.114   1.194   0.647
14499TIP3    H243439   7.106   1.043   0.637
14500TIP3   OH243440   1.167   7.843   0.288
14500TIP3    H143441   1.168   7.803   0.375
14500TIP3    H243442   1.249   7.893   0.283
14501TIP3   OH243443   3.359   1.750   1.983
14501TIP3    H143444   3.297   1.729   1.913
14501TIP3    H243445   3.399   1.666   2.005
14502TIP3   OH243446   2.057   7.220   3.962
14502TIP3    H143447   2.004   7.288   4.004
14502TIP3    H243448   2.146   7.255   3.962
14503TIP3   OH243449   5.628   5.852   6.216
14503TIP3    H143450   5.607   5.913   6.145
14503TIP3    H243451   5.649   5.770   6.172
14504TIP3   OH243452   1.249   0.229   4.706
14504TIP3    H143453   1.268   0.277   4.787
14504TIP3    H243454   1.211   0.147   4.735
14505TIP3   OH243455   3.246   1.687   3.052
14505TIP3    H143456   3.341   1.694   3.045
14505TIP3    H243457   3.217   1.661   2.964
14506TIP3   OH243458   5.568   3.457   6.672
14506TIP3    H143459   5.508   3.401   6.721
14506TIP3    H243460   5.624   3.396   6.624
14507TIP3   OH243461   4.427   7.774   0.199
14507TIP3    H143462   4.461   7.831   0.268
14507TIP3    H243463   4.332   7.789   0.200
14508TIP3   OH243464   2.690   0.312   5.010
14508TIP3    H143465   2.682   0.271   5.096
14508TIP3    H243466   2.609   0.362   4.999
14509TIP3   OH243467   2.310   3.999   2.635
14509TIP3    H143468   2.240   3.935   2.649
14509TIP3    H243469   2.318   4.044   2.720
14510TIP3   OH243470   6.683   2.772   3.441
14510TIP3    H143471   6.605   2.744   3.392
14510TIP3    H243472   6.756   2.748   3.384
14511TIP3   OH243473   0.462   4.289   5.853
14511TIP3    H143474   0.479   4.203   5.891
14511TIP3    H243475   0.379   4.278   5.806
14512TIP3   OH243476   8.183   5.485   0.799
14512TIP3    H143477   8.163   5.541   0.874
14512TIP3    H243478   8.276   5.466   0.807
14513TIP3   OH243479   7.673   3.603   0.415
14513TIP3    H143480   7.693   3.515   0.448
14513TIP3    H243481   7.748   3.656   0.441
14514TIP3   OH243482   0.132   3.356   4.468
14514TIP3    H143483   0.087   3.387   4.546
14514TIP3    H243484   0.184   3.282   4.499
14515TIP3   OH243485   8.323   2.602   0.558
14515TIP3    H143486   8.415   2.603   0.535
14515TIP3    H243487   8.278   2.571   0.479
14516TIP3   OH243488   5.090   4.225   5.932
14516TIP3    H143489   5.007   4.202   5.974
14516TIP3    H243490   5.147   4.150   5.950
14517TIP3   OH243491   7.562   0.814   4.939
14517TIP3    H143492   7.653   0.788   4.927
14517TIP3    H243493   7.512   0.733   4.929
14518TIP3   OH243494   0.858   3.274  -0.047
14518TIP3    H143495   0.917   3.214  -0.093
14518TIP3    H243496   0.796   3.217  -0.002
14519TIP3   OH243497   5.667   4.629   0.184
14519TIP3    H143498   5.716   4.557   0.142
14519TIP3    H243499   5.730   4.701   0.188
14520TIP3   OH243500   6.272   4.101   4.599
14520TIP3    H143501   6.192   4.152   4.582
14520TIP3    H243502   6.255   4.016   4.559
14521TIP3   OH243503   6.742   4.329   6.448
14521TIP3    H143504   6.734   4.233   6.450
14521TIP3    H243505   6.836   4.345   6.441
14522TIP3   OH243506   0.535   5.230   3.671
14522TIP3    H143507   0.568   5.202   3.756
14522TIP3    H243508   0.443   5.203   3.670
14523TIP3   OH243509   0.547   5.226   4.837
14523TIP3    H143510   0.565   5.136   4.810
14523TIP3    H243511   0.539   5.274   4.754
14524TIP3   OH243512   2.102   0.316   3.032
14524TIP3    H143513   2.180   0.260   3.036
14524TIP3    H243514   2.092   0.335   2.938
14525TIP3   OH243515   1.958   3.314   6.499
14525TIP3    H143516   2.030   3.253   6.514
14525TIP3    H243517   1.952   3.322   6.404
14526TIP3   OH243518   8.175   5.747   5.861
14526TIP3    H143519   8.237   5.689   5.905
14526TIP3    H243520   8.107   5.764   5.926
14527TIP3   OH243521   3.336   6.400   2.003
14527TIP3    H143522   3.326   6.495   2.011
14527TIP3    H243523   3.246   6.366   2.006
14528TIP3   OH243524   0.911   4.155   5.555
14528TIP3    H143525   0.925   4.108   5.473
14528TIP3    H243526   0.858   4.231   5.529
14529TIP3   OH243527   6.455   2.133   0.122
14529TIP3    H143528   6.376   2.138   0.069
14529TIP3    H243529   6.469   2.039   0.134
14530TIP3   OH243530   5.262   1.440   3.890
14530TIP3    H143531   5.337   1.390   3.922
14530TIP3    H243532   5.257   1.421   3.797
14531TIP3   OH243533   2.565   0.424   4.361
14531TIP3    H143534   2.575   0.355   4.295
14531TIP3    H243535   2.637   0.410   4.422
14532TIP3   OH243536   2.614   3.708   5.750
14532TIP3    H143537   2.641   3.706   5.659
14532TIP3    H243538   2.686   3.750   5.796
14533TIP3   OH243539   7.273   0.733   2.905
14533TIP3    H143540   7.319   0.699   2.828
14533TIP3    H243541   7.196   0.776   2.870
14534TIP3   OH243542   5.305   7.737   3.663
14534TIP3    H143543   5.330   7.829   3.670
14534TIP3    H243544   5.230   7.736   3.604
14535TIP3   OH243545   2.016   0.326   2.153
14535TIP3    H143546   1.971   0.252   2.194
14535TIP3    H243547   1.977   0.404   2.192
14536TIP3   OH243548   3.304   6.240   3.424
14536TIP3    H143549   3.306   6.267   3.516
14536TIP3    H243550   3.366   6.299   3.380
14537TIP3   OH243551   7.323   0.810   1.349
14537TIP3    H143552   7.343   0.861   1.427
14537TIP3    H243553   7.319   0.719   1.379
14538TIP3   OH243554   4.913   1.417   4.253
14538TIP3    H143555   4.985   1.459   4.205
14538TIP3    H243556   4.842   1.410   4.188
14539TIP3   OH243557   2.547   0.903   4.682
14539TIP3    H143558   2.636   0.922   4.653
14539TIP3    H243559   2.509   0.989   4.702
14540TIP3   OH243560   0.376   5.404   2.902
14540TIP3    H143561   0.431   5.349   2.847
14540TIP3    H243562   0.327   5.459   2.841
14541TIP3   OH243563   8.231   2.454   2.610
14541TIP3    H143564   8.319   2.449   2.572
14541TIP3    H243565   8.178   2.395   2.557
14542TIP3   OH243566   4.138   7.368   1.111
14542TIP3    H143567   4.172   7.418   1.038
14542TIP3    H243568   4.200   7.385   1.182
14543TIP3   OH243569   3.369   4.411   0.678
14543TIP3    H143570   3.398   4.382   0.591
14543TIP3    H243571   3.437   4.471   0.707
14544TIP3   OH243572   1.594   0.174   5.655
14544TIP3    H143573   1.580   0.224   5.735
14544TIP3    H243574   1.527   0.106   5.657
14545TIP3   OH243575   6.043   5.504   1.471
14545TIP3    H143576   6.029   5.568   1.402
14545TIP3    H243577   6.111   5.446   1.436
14546TIP3   OH243578   3.571   5.986   5.488
14546TIP3    H143579   3.656   5.941   5.487
14546TIP3    H243580   3.583   6.059   5.548
14547TIP3   OH243581   2.791   6.940   2.957
14547TIP3    H143582   2.697   6.952   2.943
14547TIP3    H243583   2.797   6.865   3.016
14548TIP3   OH243584   5.941   0.164   3.852
14548TIP3    H143585   5.896   0.126   3.927
14548TIP3    H243586   5.913   0.256   3.851
14549TIP3   OH243587   4.471   4.108   5.338
14549TIP3    H143588   4.562   4.115   5.368
14549TIP3    H243589   4.424   4.072   5.414
14550TIP3   OH243590   3.556   0.756   3.218
14550TIP3    H143591   3.624   0.695   3.247
14550TIP3    H243592   3.581   0.776   3.127
14551TIP3   OH243593   2.305   5.416   5.321
14551TIP3    H143594   2.223   5.431   5.274
14551TIP3    H243595   2.319   5.322   5.315
14552TIP3   OH243596   0.610   7.235   2.036
14552TIP3    H143597   0.537   7.287   2.069
14552TIP3    H243598   0.649   7.196   2.114
14553TIP3   OH243599   2.032   2.063   6.599
14553TIP3    H143600   2.125   2.048   6.582
14553TIP3    H243601   2.001   2.110   6.521
14554TIP3   OH243602   4.872   1.061   2.295
14554TIP3    H143603   4.829   0.978   2.312
14554TIP3    H243604   4.820   1.102   2.227
14555TIP3   OH243605   0.263   7.772   4.902
14555TIP3    H143606   0.236   7.706   4.837
14555TIP3    H243607   0.278   7.722   4.982
14556TIP3   OH243608   7.923   4.963   6.711
14556TIP3    H143609   7.981   4.967   6.635
14556TIP3    H243610   7.979   4.981   6.786
14557TIP3   OH243611   4.811   2.182   6.611
14557TIP3    H143612   4.726   2.149   6.642
14557TIP3    H243613   4.793   2.212   6.521
14558TIP3   OH243614   4.608   5.695   0.337
14558TIP3    H143615   4.611   5.644   0.418
14558TIP3    H243616   4.689   5.671   0.291
14559TIP3   OH243617   1.109   2.200   6.688
14559TIP3    H143618   1.144   2.283   6.723
14559TIP3    H243619   1.017   2.219   6.670
14560TIP3   OH243620   0.469   0.633   3.202
14560TIP3    H143621   0.408   0.702   3.230
14560TIP3    H243622   0.452   0.560   3.261
14561TIP3   OH243623   5.139   7.067   1.723
14561TIP3    H143624   5.176   7.124   1.656
14561TIP3    H243625   5.161   6.978   1.693
14562TIP3   OH243626   6.219   2.327   4.874
14562TIP3    H143627   6.223   2.413   4.832
14562TIP3    H243628   6.310   2.298   4.879
14563TIP3   OH243629   6.476   7.457   1.265
14563TIP3    H143630   6.497   7.511   1.340
14563TIP3    H243631   6.395   7.412   1.289
14564TIP3   OH243632   5.358   5.309   0.872
14564TIP3    H143633   5.418   5.375   0.906
14564TIP3    H243634   5.279   5.358   0.850
14565TIP3   OH243635   7.736   5.736   2.962
14565TIP3    H143636   7.707   5.782   3.041
14565TIP3    H243637   7.686   5.776   2.891
14566TIP3   OH243638   1.614   5.728   3.831
14566TIP3    H143639   1.557   5.797   3.865
14566TIP3    H243640   1.627   5.668   3.904
14567TIP3   OH243641   3.947   0.497   3.770
14567TIP3    H143642   3.946   0.573   3.829
14567TIP3    H243643   3.891   0.523   3.697
14568TIP3   OH243644   2.012   2.420   0.541
14568TIP3    H143645   1.985   2.511   0.532
14568TIP3    H243646   2.076   2.421   0.612
14569TIP3   OH243647   4.922   3.785   5.273
14569TIP3    H143648   4.863   3.860   5.260
14569TIP3    H243649   4.892   3.720   5.209
14570TIP3   OH243650   3.992   1.664   5.672
14570TIP3    H143651   4.082   1.639   5.649
14570TIP3    H243652   4.002   1.723   5.747
14571TIP3   OH243653   6.805   4.798   5.063
14571TIP3    H143654   6.786   4.845   4.981
14571TIP3    H243655   6.792   4.863   5.131
14572TIP3   OH243656   2.653   1.214   0.074
14572TIP3    H143657   2.608   1.289   0.036
14572TIP3    H243658   2.614   1.138   0.030
14573TIP3   OH243659   0.938   5.360   5.361
14573TIP3    H143660   0.923   5.455   5.355
14573TIP3    H243661   0.911   5.327   5.275
14574TIP3   OH243662   7.570   6.015   3.623
14574TIP3    H143663   7.494   6.070   3.642
14574TIP3    H243664   7.646   6.071   3.643
14575TIP3   OH243665   6.896   1.519   2.859
14575TIP3    H143666   6.856   1.597   2.896
14575TIP3    H243667   6.873   1.521   2.766
14576TIP3   OH243668   1.173   7.392   0.814
14576TIP3    H143669   1.146   7.442   0.891
14576TIP3    H243670   1.091   7.372   0.768
14577TIP3   OH243671   2.756   2.547   4.495
14577TIP3    H143672   2.672   2.585   4.468
14577TIP3    H243673   2.808   2.621   4.526
14578TIP3   OH243674   4.251   2.269   3.163
14578TIP3    H143675   4.218   2.181   3.180
14578TIP3    H243676   4.296   2.295   3.243
14579TIP3   OH243677   7.035   5.608   6.320
14579TIP3    H143678   7.032   5.685   6.263
14579TIP3    H243679   7.055   5.643   6.407
14580TIP3   OH243680   1.966   1.958   3.865
14580TIP3    H143681   1.980   1.891   3.931
14580TIP3    H243682   1.984   1.915   3.782
14581TIP3   OH243683   2.546   2.280   3.242
14581TIP3    H143684   2.507   2.368   3.236
14581TIP3    H243685   2.473   2.221   3.224
14582TIP3   OH243686   0.296   3.196   3.421
14582TIP3    H143687   0.351   3.154   3.356
14582TIP3    H243688   0.207   3.185   3.387
14583TIP3   OH243689   0.381   4.792   0.587
14583TIP3    H143690   0.430   4.718   0.551
14583TIP3    H243691   0.374   4.771   0.681
14584TIP3   OH243692   6.082   3.078   1.720
14584TIP3    H143693   6.026   3.001   1.707
14584TIP3    H243694   6.159   3.061   1.665
14585TIP3   OH243695   1.182   1.589   3.214
14585TIP3    H143696   1.121   1.586   3.140
14585TIP3    H243697   1.141   1.535   3.281
14586TIP3   OH243698   2.187   5.246   4.157
14586TIP3    H143699   2.123   5.202   4.101
14586TIP3    H243700   2.253   5.279   4.096
14587TIP3   OH243701   4.638   4.737   6.241
14587TIP3    H143702   4.546   4.758   6.256
14587TIP3    H243703   4.675   4.816   6.200
14588TIP3   OH243704   6.712   7.361   4.318
14588TIP3    H143705   6.793   7.413   4.310
14588TIP3    H243706   6.722   7.291   4.254
14589TIP3   OH243707   7.820   6.440   4.073
14589TIP3    H143708   7.906   6.411   4.040
14589TIP3    H243709   7.799   6.517   4.020
14590TIP3   OH243710   1.919   1.257   0.785
14590TIP3    H143711   1.903   1.318   0.713
14590TIP3    H243712   1.921   1.312   0.864
14591TIP3   OH243713   2.977   6.256   4.541
14591TIP3    H143714   2.971   6.249   4.446
14591TIP3    H243715   3.003   6.347   4.556
14592TIP3   OH243716   2.057   6.935   4.039
14592TIP3    H143717   2.034   7.028   4.047
14592TIP3    H243718   2.151   6.936   4.020
14593TIP3   OH243719   6.574   4.245   5.110
14593TIP3    H143720   6.508   4.176   5.098
14593TIP3    H243721   6.653   4.208   5.070
14594TIP3   OH243722   4.518   7.756   1.017
14594TIP3    H143723   4.523   7.851   1.029
14594TIP3    H243724   4.508   7.722   1.106
14595TIP3   OH243725   3.491   5.044   0.073
14595TIP3    H143726   3.529   5.044   0.161
14595TIP3    H243727   3.562   5.071   0.016
14596TIP3   OH243728   1.790   3.830   3.701
14596TIP3    H143729   1.853   3.764   3.671
14596TIP3    H243730   1.707   3.783   3.704
14597TIP3   OH243731   2.636   4.024   6.569
14597TIP3    H143732   2.684   3.950   6.606
14597TIP3    H243733   2.663   4.100   6.621
14598TIP3   OH243734   1.371   7.137   1.297
14598TIP3    H143735   1.439   7.184   1.249
14598TIP3    H243736   1.358   7.189   1.377
14599TIP3   OH243737   5.783   0.764   3.560
14599TIP3    H143738   5.747   0.853   3.557
14599TIP3    H243739   5.875   0.774   3.535
14600TIP3   OH243740   4.677   2.520   1.674
14600TIP3    H143741   4.742   2.545   1.608
14600TIP3    H243742   4.621   2.456   1.630
14601TIP3   OH243743   6.669   0.826   0.862
14601TIP3    H143744   6.724   0.807   0.938
14601TIP3    H243745   6.682   0.919   0.845
14602TIP3   OH243746   2.870   7.332   5.098
14602TIP3    H143747   2.958   7.334   5.060
14602TIP3    H243748   2.840   7.242   5.085
14603TIP3   OH243749   3.666   3.154   5.981
14603TIP3    H143750   3.592   3.129   6.037
14603TIP3    H243751   3.743   3.126   6.029
14604TIP3   OH243752   4.834   2.708   2.112
14604TIP3    H143753   4.911   2.742   2.065
14604TIP3    H243754   4.764   2.768   2.089
14605TIP3   OH243755   2.967   5.795   1.233
14605TIP3    H143756   2.874   5.812   1.221
14605TIP3    H243757   3.009   5.835   1.158
14606TIP3   OH243758   4.442   6.862   3.952
14606TIP3    H143759   4.435   6.930   4.018
14606TIP3    H243760   4.535   6.859   3.929
14607TIP3   OH243761   3.578   1.866   3.698
14607TIP3    H143762   3.559   1.943   3.644
14607TIP3    H243763   3.537   1.793   3.651
14608TIP3   OH243764   0.303   3.969   2.440
14608TIP3    H143765   0.330   3.912   2.368
14608TIP3    H243766   0.339   3.928   2.518
14609TIP3   OH243767   6.788   2.950   1.838
14609TIP3    H143768   6.764   2.876   1.893
14609TIP3    H243769   6.773   3.027   1.893
14610TIP3   OH243770   0.496   1.071   3.783
14610TIP3    H143771   0.478   1.165   3.784
14610TIP3    H243772   0.590   1.065   3.767
14611TIP3   OH243773   0.163   4.439   3.893
14611TIP3    H143774   0.241   4.484   3.924
14611TIP3    H243775   0.144   4.479   3.808
14612TIP3   OH243776   3.903   6.796   5.563
14612TIP3    H143777   3.885   6.786   5.657
14612TIP3    H243778   3.822   6.772   5.520
14613TIP3   OH243779   0.904   7.215   6.299
14613TIP3    H143780   0.905   7.153   6.372
14613TIP3    H243781   0.855   7.290   6.333
14614TIP3   OH243782   3.361   4.610   2.425
14614TIP3    H143783   3.269   4.637   2.425
14614TIP3    H243784   3.379   4.585   2.516
14615TIP3   OH243785   4.543   3.700   5.701
14615TIP3    H143786   4.549   3.761   5.628
14615TIP3    H243787   4.534   3.614   5.659
14616TIP3   OH243788   8.301   3.616   0.407
14616TIP3    H143789   8.221   3.583   0.447
14616TIP3    H243790   8.333   3.682   0.469
14617TIP3   OH243791   5.653   2.981   6.564
14617TIP3    H143792   5.692   3.060   6.600
14617TIP3    H243793   5.594   3.012   6.496
14618TIP3   OH243794   2.807   4.583   4.523
14618TIP3    H143795   2.716   4.588   4.495
14618TIP3    H243796   2.858   4.602   4.444
14619TIP3   OH243797   6.226   1.664   3.339
14619TIP3    H143798   6.152   1.712   3.375
14619TIP3    H243799   6.254   1.606   3.410
14620TIP3   OH243800   5.017   5.846   4.460
14620TIP3    H143801   5.037   5.844   4.367
14620TIP3    H243802   4.986   5.935   4.477
14621TIP3   OH243803   7.491   1.921   3.143
14621TIP3    H143804   7.403   1.885   3.141
14621TIP3    H243805   7.497   1.965   3.228
14622TIP3   OH243806   1.868   1.904   0.567
14622TIP3    H143807   1.827   1.929   0.650
14622TIP3    H243808   1.956   1.941   0.571
14623TIP3   OH243809   7.781   5.770   4.236
14623TIP3    H143810   7.822   5.715   4.169
14623TIP3    H243811   7.845   5.839   4.253
14624TIP3   OH243812   4.696   0.180   6.677
14624TIP3    H143813   4.773   0.134   6.644
14624TIP3    H243814   4.637   0.185   6.602
14625TIP3   OH243815   7.631   2.688   6.302
14625TIP3    H143816   7.580   2.765   6.327
14625TIP3    H243817   7.685   2.718   6.229
14626TIP3   OH243818   5.987   7.479   4.260
14626TIP3    H143819   6.057   7.430   4.302
14626TIP3    H243820   5.914   7.476   4.322
14627TIP3   OH243821   7.913   4.077   2.831
14627TIP3    H143822   7.941   4.152   2.885
14627TIP3    H243823   7.982   4.068   2.765
14628TIP3   OH243824   6.631   0.810   4.692
14628TIP3    H143825   6.569   0.739   4.706
14628TIP3    H243826   6.704   0.769   4.645
14629TIP3   OH243827   6.395   5.011   2.515
14629TIP3    H143828   6.413   4.984   2.605
14629TIP3    H243829   6.359   5.099   2.523
14630TIP3   OH243830   1.998   1.474   0.226
14630TIP3    H143831   2.061   1.412   0.262
14630TIP3    H243832   1.969   1.526   0.301
14631TIP3   OH243833   0.120   6.743   5.246
14631TIP3    H143834   0.057   6.743   5.174
14631TIP3    H243835   0.088   6.676   5.306
14632TIP3   OH243836   5.648   6.307   5.110
14632TIP3    H143837   5.714   6.246   5.076
14632TIP3    H243838   5.573   6.296   5.051
14633TIP3   OH243839   0.973   3.144   4.207
14633TIP3    H143840   0.993   3.073   4.268
14633TIP3    H243841   0.914   3.104   4.142
14634TIP3   OH243842   2.820   3.035   5.901
14634TIP3    H143843   2.840   3.115   5.950
14634TIP3    H243844   2.772   2.980   5.963
14635TIP3   OH243845   0.210   0.717   1.466
14635TIP3    H143846   0.258   0.786   1.511
14635TIP3    H243847   0.272   0.645   1.460
14636TIP3   OH243848   2.677   3.116   2.388
14636TIP3    H143849   2.608   3.173   2.421
14636TIP3    H243850   2.742   3.175   2.351
14637TIP3   OH243851   2.016   1.568   3.150
14637TIP3    H143852   2.053   1.624   3.082
14637TIP3    H243853   2.087   1.556   3.213
14638TIP3   OH243854   2.770   7.261   3.213
14638TIP3    H143855   2.840   7.309   3.168
14638TIP3    H243856   2.784   7.170   3.189
14639TIP3   OH243857   7.546   2.309   6.147
14639TIP3    H143858   7.629   2.351   6.169
14639TIP3    H243859   7.507   2.286   6.231
14640TIP3   OH243860   5.304   4.614   1.094
14640TIP3    H143861   5.368   4.606   1.165
14640TIP3    H243862   5.267   4.702   1.106
14641TIP3   OH243863   2.010   4.386   5.109
14641TIP3    H143864   2.081   4.430   5.062
14641TIP3    H243865   1.996   4.305   5.061
14642TIP3   OH243866   0.676   0.912   5.476
14642TIP3    H143867   0.699   0.886   5.566
14642TIP3    H243868   0.670   0.829   5.428
14643TIP3   OH243869   0.621   3.998   3.003
14643TIP3    H143870   0.631   4.093   2.996
14643TIP3    H243871   0.613   3.981   3.096
14644TIP3   OH243872   2.399   2.137   5.433
14644TIP3    H143873   2.413   2.075   5.505
14644TIP3    H243874   2.445   2.217   5.461
14645TIP3   OH243875   0.582   4.705   1.079
14645TIP3    H143876   0.539   4.759   1.013
14645TIP3    H243877   0.627   4.637   1.029
14646TIP3   OH243878   2.767   7.367   0.394
14646TIP3    H143879   2.816   7.304   0.447
14646TIP3    H243880   2.701   7.315   0.349
14647TIP3   OH243881   0.944   6.981   6.854
14647TIP3    H143882   0.983   7.056   6.898
14647TIP3    H243883   0.896   7.018   6.780
14648TIP3   OH243884   2.293   1.605   0.549
14648TIP3    H143885   2.276   1.683   0.495
14648TIP3    H243886   2.386   1.610   0.571
14649TIP3   OH243887   8.323   1.671   3.515
14649TIP3    H143888   8.328   1.729   3.591
14649TIP3    H243889   8.326   1.730   3.440
14650TIP3   OH243890   0.636   5.381   4.209
14650TIP3    H143891   0.565   5.323   4.182
14650TIP3    H243892   0.684   5.331   4.275
14651TIP3   OH243893   5.687   2.349   3.850
14651TIP3    H143894   5.705   2.374   3.760
14651TIP3    H243895   5.726   2.262   3.860
14652TIP3   OH243896   1.176   1.940   1.345
14652TIP3    H143897   1.231   1.866   1.320
14652TIP3    H243898   1.174   1.937   1.441
14653TIP3   OH243899   1.458   3.801   2.463
14653TIP3    H143900   1.478   3.895   2.462
14653TIP3    H243901   1.534   3.760   2.504
14654TIP3   OH243902   1.625   2.377   5.958
14654TIP3    H143903   1.610   2.471   5.943
14654TIP3    H243904   1.548   2.348   6.005
14655TIP3   OH243905   5.910   2.690   3.373
14655TIP3    H143906   5.931   2.781   3.396
14655TIP3    H243907   5.947   2.678   3.285
14656TIP3   OH243908   6.370   1.012   5.882
14656TIP3    H143909   6.329   1.000   5.968
14656TIP3    H243910   6.297   1.009   5.820
14657TIP3   OH243911   6.434   7.762   4.657
14657TIP3    H143912   6.526   7.736   4.654
14657TIP3    H243913   6.386   7.679   4.667
14658TIP3   OH243914   3.351   4.830   1.268
14658TIP3    H143915   3.431   4.882   1.264
14658TIP3    H243916   3.343   4.791   1.180
14659TIP3   OH243917   2.932   3.977   0.737
14659TIP3    H143918   2.917   4.021   0.821
14659TIP3    H243919   2.958   4.048   0.678
14660TIP3   OH243920   6.561   6.674   3.825
14660TIP3    H143921   6.520   6.695   3.741
14660TIP3    H243922   6.639   6.729   3.828
14661TIP3   OH243923   3.624   1.430   0.596
14661TIP3    H143924   3.676   1.496   0.549
14661TIP3    H243925   3.538   1.435   0.554
14662TIP3   OH243926   4.623   4.307   4.599
14662TIP3    H143927   4.600   4.379   4.540
14662TIP3    H243928   4.560   4.238   4.578
14663TIP3   OH243929   0.741   0.521   6.745
14663TIP3    H143930   0.706   0.567   6.669
14663TIP3    H243931   0.698   0.562   6.820
14664TIP3   OH243932   5.735   1.870   2.555
14664TIP3    H143933   5.641   1.879   2.538
14664TIP3    H243934   5.748   1.776   2.567
14665TIP3   OH243935   3.652   3.331   1.843
14665TIP3    H143936   3.672   3.405   1.785
14665TIP3    H243937   3.558   3.337   1.859
14666TIP3   OH243938   2.619   4.914   5.047
14666TIP3    H143939   2.558   4.970   5.095
14666TIP3    H243940   2.697   4.969   5.035
14667TIP3   OH243941   6.677   3.567   1.648
14667TIP3    H143942   6.592   3.545   1.685
14667TIP3    H243943   6.730   3.488   1.662
14668TIP3   OH243944   0.580   4.060   1.244
14668TIP3    H143945   0.647   4.113   1.288
14668TIP3    H243946   0.535   4.014   1.315
14669TIP3   OH243947   4.937   0.714   5.851
14669TIP3    H143948   4.925   0.643   5.788
14669TIP3    H243949   4.887   0.787   5.814
14670TIP3   OH243950   3.452   5.001   6.665
14670TIP3    H143951   3.438   4.932   6.730
14670TIP3    H243952   3.540   5.033   6.682
14671TIP3   OH243953   1.256   7.766   1.382
14671TIP3    H143954   1.260   7.861   1.370
14671TIP3    H243955   1.329   7.732   1.331
14672TIP3   OH243956   6.418   4.639   6.701
14672TIP3    H143957   6.423   4.559   6.649
14672TIP3    H243958   6.442   4.709   6.640
14673TIP3   OH243959   6.301   1.313   3.666
14673TIP3    H143960   6.348   1.240   3.705
14673TIP3    H243961   6.277   1.369   3.741
14674TIP3   OH243962   3.879   3.835   2.673
14674TIP3    H143963   3.809   3.825   2.737
14674TIP3    H243964   3.959   3.837   2.726
14675TIP3   OH243965   5.136   3.524   5.585
14675TIP3    H143966   5.118   3.557   5.497
14675TIP3    H243967   5.221   3.479   5.577
14676TIP3   OH243968   3.943   4.798   2.659
14676TIP3    H143969   4.028   4.786   2.616
14676TIP3    H243970   3.940   4.891   2.681
14677TIP3   OH243971   7.884   3.076   4.413
14677TIP3    H143972   7.947   3.028   4.360
14677TIP3    H243973   7.932   3.098   4.493
14678TIP3   OH243974   7.180   2.593   4.997
14678TIP3    H143975   7.137   2.531   5.057
14678TIP3    H243976   7.120   2.667   4.993
14679TIP3   OH243977   6.143   3.027   4.273
14679TIP3    H143978   6.196   3.099   4.240
14679TIP3    H243979   6.079   3.068   4.330
14680TIP3   OH243980   2.466   4.100   0.070
14680TIP3    H143981   2.522   4.026   0.095
14680TIP3    H243982   2.383   4.083   0.114
14681TIP3   OH243983   6.819   3.005   0.090
14681TIP3    H143984   6.842   2.996   0.182
14681TIP3    H243985   6.771   3.087   0.085
14682TIP3   OH243986   7.528   0.133   5.089
14682TIP3    H143987   7.517   0.039   5.100
14682TIP3    H243988   7.529   0.146   4.994
14683TIP3   OH243989   6.580   6.232   5.322
14683TIP3    H143990   6.626   6.301   5.371
14683TIP3    H243991   6.569   6.161   5.385
14684TIP3   OH243992   2.689   1.304   6.704
14684TIP3    H143993   2.752   1.295   6.776
14684TIP3    H243994   2.603   1.293   6.746
14685TIP3   OH243995   1.119   7.196   4.617
14685TIP3    H143996   1.199   7.210   4.566
14685TIP3    H243997   1.089   7.109   4.590
14686TIP3   OH243998   4.514   6.800   3.417
14686TIP3    H143999   4.571   6.725   3.402
14686TIP3    H244000   4.425   6.767   3.404
14687TIP3   OH244001   3.404   6.305   5.219
14687TIP3    H144002   3.409   6.313   5.314
14687TIP3    H244003   3.485   6.259   5.195
14688TIP3   OH244004   7.824   3.551   5.552
14688TIP3    H144005   7.868   3.574   5.471
14688TIP3    H244006   7.735   3.584   5.542
14689TIP3   OH244007   3.419   6.386   2.284
14689TIP3    H144008   3.388   6.390   2.194
14689TIP3    H244009   3.370   6.455   2.329
14690TIP3   OH244010   1.253   6.108   6.131
14690TIP3    H144011   1.315   6.042   6.162
14690TIP3    H244012   1.212   6.068   6.054
14691TIP3   OH244013   1.491   3.072   1.331
14691TIP3    H144014   1.433   3.012   1.284
14691TIP3    H244015   1.498   3.035   1.419
14692TIP3   OH244016   3.523   3.772   6.309
14692TIP3    H144017   3.494   3.763   6.218
14692TIP3    H244018   3.585   3.845   6.308
14693TIP3   OH244019   0.484   5.161   4.110
14693TIP3    H144020   0.541   5.099   4.066
14693TIP3    H244021   0.422   5.190   4.043
14694TIP3   OH244022   2.456   0.956   5.618
14694TIP3    H144023   2.457   0.898   5.694
14694TIP3    H244024   2.548   0.980   5.604
14695TIP3   OH244025   7.268   4.108   1.178
14695TIP3    H144026   7.329   4.178   1.151
14695TIP3    H244027   7.311   4.027   1.152
14696TIP3   OH244028   3.883   5.076   3.666
14696TIP3    H144029   3.880   5.148   3.729
14696TIP3    H244030   3.899   4.998   3.719
14697TIP3   OH244031   6.569   6.353   0.508
14697TIP3    H144032   6.477   6.378   0.520
14697TIP3    H244033   6.614   6.391   0.583
14698TIP3   OH244034   7.867   5.004   2.103
14698TIP3    H144035   7.864   4.929   2.043
14698TIP3    H244036   7.875   5.080   2.045
14699TIP3   OH244037   6.890   7.842   2.986
14699TIP3    H144038   6.895   7.887   2.902
14699TIP3    H244039   6.888   7.913   3.051
14700TIP3   OH244040   0.007   0.082   2.115
14700TIP3    H144041  -0.022   0.120   2.198
14700TIP3    H244042   0.055   0.003   2.140
14701TIP3   OH244043   0.596   4.622   5.210
14701TIP3    H144044   0.634   4.563   5.275
14701TIP3    H244045   0.592   4.707   5.254
14702TIP3   OH244046   2.421   3.600   0.923
14702TIP3    H144047   2.393   3.509   0.918
14702TIP3    H244048   2.505   3.597   0.968
14703TIP3   OH244049   2.707   3.327   5.630
14703TIP3    H144050   2.723   3.356   5.720
14703TIP3    H244051   2.790   3.341   5.585
14704TIP3   OH244052   8.360   6.612   0.329
14704TIP3    H144053   8.359   6.519   0.305
14704TIP3    H244054   8.330   6.614   0.420
14705TIP3   OH244055   8.277   2.744   0.239
14705TIP3    H144056   8.203   2.698   0.201
14705TIP3    H244057   8.244   2.832   0.258
14706TIP3   OH244058   5.475   6.279   0.590
14706TIP3    H144059   5.536   6.275   0.517
14706TIP3    H244060   5.392   6.307   0.551
14707TIP3   OH244061   6.606   7.549   4.499
14707TIP3    H144062   6.646   7.636   4.490
14707TIP3    H244063   6.642   7.499   4.426
14708TIP3   OH244064   4.933   1.355   6.709
14708TIP3    H144065   5.018   1.335   6.670
14708TIP3    H244066   4.938   1.448   6.730
14709TIP3   OH244067   0.602   1.828   4.730
14709TIP3    H144068   0.527   1.784   4.769
14709TIP3    H244069   0.673   1.814   4.793
14710TIP3   OH244070   4.159   6.824   5.801
14710TIP3    H144071   4.225   6.796   5.865
14710TIP3    H244072   4.203   6.817   5.717
14711TIP3   OH244073   4.790   3.335   0.494
14711TIP3    H144074   4.738   3.402   0.537
14711TIP3    H244075   4.833   3.288   0.565
14712TIP3   OH244076   7.542   3.635   6.571
14712TIP3    H144077   7.499   3.654   6.488
14712TIP3    H244078   7.476   3.589   6.622
14713TIP3   OH244079   4.348   1.439   4.989
14713TIP3    H144080   4.258   1.468   5.001
14713TIP3    H244081   4.377   1.482   4.908
14714TIP3   OH244082   6.003   1.868   2.777
14714TIP3    H144083   6.081   1.826   2.815
14714TIP3    H244084   5.971   1.805   2.713
14715TIP3   OH244085   3.512   2.756   4.022
14715TIP3    H144086   3.515   2.700   4.100
14715TIP3    H244087   3.600   2.791   4.013
14716TIP3   OH244088   6.316   2.543   1.163
14716TIP3    H144089   6.409   2.562   1.153
14716TIP3    H244090   6.305   2.527   1.257
14717TIP3   OH244091   5.556   4.467   2.953
14717TIP3    H144092   5.552   4.494   3.045
14717TIP3    H244093   5.576   4.547   2.906
14718TIP3   OH244094   5.878   4.157   1.845
14718TIP3    H144095   5.968   4.172   1.874
14718TIP3    H244096   5.885   4.141   1.751
14719TIP3   OH244097   4.586   4.301   0.713
14719TIP3    H144098   4.571   4.225   0.657
14719TIP3    H244099   4.591   4.375   0.652
14720TIP3   OH244100   1.802   2.783   3.132
14720TIP3    H144101   1.799   2.878   3.133
14720TIP3    H244102   1.895   2.762   3.127
14721TIP3   OH244103   6.788   6.857   3.833
14721TIP3    H144104   6.809   6.896   3.918
14721TIP3    H244105   6.716   6.911   3.799
14722TIP3   OH244106   6.630   5.164   6.178
14722TIP3    H144107   6.613   5.135   6.088
14722TIP3    H244108   6.559   5.126   6.230
14723TIP3   OH244109   3.905   2.868   1.586
14723TIP3    H144110   3.902   2.810   1.662
14723TIP3    H244111   3.968   2.935   1.610
14724TIP3   OH244112   2.522   2.709   4.692
14724TIP3    H144113   2.594   2.747   4.642
14724TIP3    H244114   2.564   2.665   4.765
14725TIP3   OH244115   7.497   7.106   0.066
14725TIP3    H144116   7.571   7.162   0.040
14725TIP3    H244117   7.510   7.090   0.159
14726TIP3   OH244118   4.118   5.016   3.950
14726TIP3    H144119   4.193   4.973   3.992
14726TIP3    H244120   4.045   5.001   4.009
14727TIP3   OH244121   5.977   7.122   2.780
14727TIP3    H144122   6.071   7.126   2.797
14727TIP3    H244123   5.951   7.213   2.767
14728TIP3   OH244124   4.035   5.332   0.914
14728TIP3    H144125   4.052   5.397   0.846
14728TIP3    H244126   3.989   5.262   0.869
14729TIP3   OH244127   6.707   4.730   4.731
14729TIP3    H144128   6.680   4.657   4.675
14729TIP3    H244129   6.643   4.799   4.712
14730TIP3   OH244130   3.502   1.108   4.303
14730TIP3    H144131   3.458   1.044   4.359
14730TIP3    H244132   3.583   1.130   4.349
14731TIP3   OH244133   0.355   3.464   3.792
14731TIP3    H144134   0.407   3.544   3.789
14731TIP3    H244135   0.270   3.488   3.755
14732TIP3   OH244136   7.268   4.697   5.956
14732TIP3    H144137   7.255   4.626   5.893
14732TIP3    H244138   7.259   4.655   6.041
14733TIP3   OH244139   1.608   4.740   0.300
14733TIP3    H144140   1.551   4.688   0.243
14733TIP3    H244141   1.685   4.758   0.247
14734TIP3   OH244142   2.286   0.462   4.457
14734TIP3    H144143   2.246   0.377   4.438
14734TIP3    H244144   2.380   0.444   4.462
14735TIP3   OH244145   1.367   4.132   5.634
14735TIP3    H144146   1.371   4.065   5.702
14735TIP3    H244147   1.456   4.169   5.632
14736TIP3   OH244148   7.672   3.310   4.686
14736TIP3    H144149   7.705   3.375   4.624
14736TIP3    H244150   7.744   3.299   4.748
14737TIP3   OH244151   3.745   0.834   1.992
14737TIP3    H144152   3.672   0.895   2.002
14737TIP3    H244153   3.710   0.764   1.936
14738TIP3   OH244154   6.048   2.163   5.631
14738TIP3    H144155   6.077   2.106   5.703
14738TIP3    H244156   6.128   2.183   5.583
14739TIP3   OH244157   0.573   6.867   0.661
14739TIP3    H144158   0.664   6.878   0.633
14739TIP3    H244159   0.571   6.898   0.751
14740TIP3   OH244160   6.707   5.561   0.774
14740TIP3    H144161   6.696   5.553   0.679
14740TIP3    H244162   6.747   5.647   0.786
14741TIP3   OH244163   0.832   1.332   1.095
14741TIP3    H144164   0.793   1.394   1.157
14741TIP3    H244165   0.875   1.388   1.029
14742TIP3   OH244166   5.897   3.765   3.917
14742TIP3    H144167   5.806   3.761   3.886
14742TIP3    H244168   5.897   3.714   3.998
14743TIP3   OH244169   3.362   1.446   6.008
14743TIP3    H144170   3.366   1.422   5.916
14743TIP3    H244171   3.366   1.542   6.008
14744TIP3   OH244172   8.012   1.749   2.862
14744TIP3    H144173   7.933   1.777   2.816
14744TIP3    H244174   7.992   1.661   2.892
14745TIP3   OH244175   8.269   7.369   4.869
14745TIP3    H144176   8.360   7.395   4.882
14745TIP3    H244177   8.268   7.324   4.785
14746TIP3   OH244178   3.452   7.682   1.564
14746TIP3    H144179   3.468   7.621   1.636
14746TIP3    H244180   3.516   7.658   1.497
14747TIP3   OH244181   5.039   0.859   0.506
14747TIP3    H144182   5.114   0.801   0.512
14747TIP3    H244183   5.026   0.893   0.594
14748TIP3   OH244184   7.610   1.522   5.095
14748TIP3    H144185   7.541   1.479   5.146
14748TIP3    H244186   7.570   1.604   5.065
14749TIP3   OH244187   3.783   4.243   1.262
14749TIP3    H144188   3.758   4.310   1.325
14749TIP3    H244189   3.818   4.293   1.187
14750TIP3   OH244190   6.785   7.801   0.006
14750TIP3    H144191   6.809   7.855   0.082
14750TIP3    H244192   6.868   7.786  -0.040
14751TIP3   OH244193   6.212   5.438   2.144
14751TIP3    H144194   6.174   5.352   2.163
14751TIP3    H244195   6.294   5.440   2.194
14752TIP3   OH244196   1.356   0.460   0.659
14752TIP3    H144197   1.444   0.446   0.692
14752TIP3    H244198   1.299   0.424   0.726
14753TIP3   OH244199   1.405   0.869   4.107
14753TIP3    H144200   1.449   0.837   4.028
14753TIP3    H244201   1.460   0.942   4.137
14754TIP3   OH244202   3.176   4.845   0.345
14754TIP3    H144203   3.239   4.796   0.398
14754TIP3    H244204   3.227   4.917   0.307
14755TIP3   OH244205   7.735   3.495   1.929
14755TIP3    H144206   7.736   3.591   1.933
14755TIP3    H244207   7.684   3.469   2.006
14756TIP3   OH244208   6.968   5.620   3.249
14756TIP3    H144209   7.061   5.601   3.237
14756TIP3    H244210   6.925   5.534   3.247
14757TIP3   OH244211   8.007   6.771   5.764
14757TIP3    H144212   8.028   6.802   5.676
14757TIP3    H244213   7.962   6.845   5.805
14758TIP3   OH244214   1.415   7.565   5.400
14758TIP3    H144215   1.421   7.585   5.493
14758TIP3    H244216   1.502   7.584   5.366
14759TIP3   OH244217   1.710   1.177   5.919
14759TIP3    H144218   1.684   1.169   5.828
14759TIP3    H244219   1.639   1.136   5.968
14760TIP3   OH244220   3.227   4.430   5.266
14760TIP3    H144221   3.211   4.367   5.196
14760TIP3    H244222   3.148   4.429   5.319
14761TIP3   OH244223   4.985   7.716   3.290
14761TIP3    H144224   4.964   7.624   3.306
14761TIP3    H244225   4.994   7.723   3.195
14762TIP3   OH244226   0.361   0.917   6.796
14762TIP3    H144227   0.350   1.011   6.808
14762TIP3    H244228   0.414   0.908   6.717
14763TIP3   OH244229   1.949   3.789   1.409
14763TIP3    H144230   1.977   3.699   1.396
14763TIP3    H244231   2.003   3.821   1.481
14764TIP3   OH244232   2.240   3.290   5.331
14764TIP3    H144233   2.185   3.306   5.254
14764TIP3    H244234   2.226   3.367   5.387
14765TIP3   OH244235   3.254   2.439   5.504
14765TIP3    H144236   3.203   2.394   5.437
14765TIP3    H244237   3.345   2.427   5.476
14766TIP3   OH244238   3.735   3.169   6.562
14766TIP3    H144239   3.727   3.227   6.487
14766TIP3    H244240   3.801   3.210   6.618
14767TIP3   OH244241   0.121   3.580   3.729
14767TIP3    H144242   0.066   3.635   3.673
14767TIP3    H244243   0.124   3.626   3.813
14768TIP3   OH244244   7.400   3.229   2.764
14768TIP3    H144245   7.412   3.266   2.677
14768TIP3    H244246   7.444   3.291   2.823
14769TIP3   OH244247   8.176   2.711   2.704
14769TIP3    H144248   8.223   2.735   2.784
14769TIP3    H244249   8.218   2.630   2.676
14770TIP3   OH244250   5.745   1.637   1.608
14770TIP3    H144251   5.721   1.645   1.700
14770TIP3    H244252   5.670   1.673   1.560
14771TIP3   OH244253   8.186   6.066   6.244
14771TIP3    H144254   8.105   6.031   6.206
14771TIP3    H244255   8.229   5.989   6.283
14772TIP3   OH244256   1.935   5.926   3.911
14772TIP3    H144257   1.940   5.888   3.823
14772TIP3    H244258   1.979   5.863   3.967
14773TIP3   OH244259   3.801   4.345   2.169
14773TIP3    H144260   3.874   4.352   2.108
14773TIP3    H244261   3.768   4.435   2.177
14774TIP3   OH244262   7.915   4.036   0.458
14774TIP3    H144263   7.858   4.083   0.520
14774TIP3    H244264   7.990   4.009   0.511
14775TIP3   OH244265   0.163   4.092   1.792
14775TIP3    H144266   0.203   4.076   1.877
14775TIP3    H244267   0.169   4.186   1.779
14776TIP3   OH244268   4.393   2.977   1.830
14776TIP3    H144269   4.443   2.896   1.822
14776TIP3    H244270   4.427   3.033   1.759
14777TIP3   OH244271   0.988   4.184   3.952
14777TIP3    H144272   0.998   4.123   3.879
14777TIP3    H244273   1.027   4.266   3.920
14778TIP3   OH244274   2.081   7.691   3.125
14778TIP3    H144275   2.039   7.665   3.043
14778TIP3    H244276   2.105   7.608   3.167
14779TIP3   OH244277   3.585   3.362   1.422
14779TIP3    H144278   3.601   3.438   1.366
14779TIP3    H244279   3.511   3.387   1.476
14780TIP3   OH244280   1.000   2.938   5.542
14780TIP3    H144281   0.952   2.969   5.465
14780TIP3    H244282   1.024   3.018   5.588
14781TIP3   OH244283   5.603   5.955   4.408
14781TIP3    H144284   5.544   5.934   4.481
14781TIP3    H244285   5.647   5.872   4.388
14782TIP3   OH244286   4.869   0.404   6.264
14782TIP3    H144287   4.865   0.326   6.319
14782TIP3    H244288   4.790   0.401   6.211
14783TIP3   OH244289   1.056   5.054   4.679
14783TIP3    H144290   1.143   5.016   4.692
14783TIP3    H244291   1.004   4.981   4.644
14784TIP3   OH244292   2.407   4.763   5.408
14784TIP3    H144293   2.429   4.682   5.361
14784TIP3    H244294   2.491   4.797   5.438
14785TIP3   OH244295   3.072   6.845   2.444
14785TIP3    H144296   3.038   6.884   2.525
14785TIP3    H244297   2.995   6.836   2.388
14786TIP3   OH244298   2.617   7.137   4.711
14786TIP3    H144299   2.655   7.099   4.790
14786TIP3    H244300   2.526   7.153   4.734
14787TIP3   OH244301   5.448   2.879   6.739
14787TIP3    H144302   5.427   2.890   6.646
14787TIP3    H244303   5.489   2.962   6.765
14788TIP3   OH244304   5.562   6.515   2.190
14788TIP3    H144305   5.546   6.601   2.150
14788TIP3    H244306   5.509   6.516   2.270
14789TIP3   OH244307   8.360   3.936   4.820
14789TIP3    H144308   8.423   3.926   4.749
14789TIP3    H244309   8.337   4.029   4.819
14790TIP3   OH244310   4.222   5.999   0.268
14790TIP3    H144311   4.283   6.041   0.330
14790TIP3    H244312   4.217   6.061   0.195
14791TIP3   OH244313   4.682   6.238   1.819
14791TIP3    H144314   4.694   6.317   1.872
14791TIP3    H244315   4.707   6.264   1.730
14792TIP3   OH244316   4.816   6.306   1.577
14792TIP3    H144317   4.828   6.401   1.569
14792TIP3    H244318   4.889   6.277   1.633
14793TIP3   OH244319   6.404   5.995   1.540
14793TIP3    H144320   6.342   6.049   1.491
14793TIP3    H244321   6.360   5.976   1.623
14794TIP3   OH244322   4.549   1.028   0.011
14794TIP3    H144323   4.561   0.934   0.027
14794TIP3    H244324   4.634   1.066   0.033
14795TIP3   OH244325   1.528   7.879   4.285
14795TIP3    H144326   1.589   7.912   4.219
14795TIP3    H244327   1.585   7.852   4.358
14796TIP3   OH244328   6.699   4.412   3.337
14796TIP3    H144329   6.617   4.437   3.295
14796TIP3    H244330   6.762   4.477   3.305
14797TIP3   OH244331   6.847   7.155   1.849
14797TIP3    H144332   6.928   7.125   1.808
14797TIP3    H244333   6.795   7.189   1.777
14798TIP3   OH244334   5.595   1.526   4.349
14798TIP3    H144335   5.679   1.503   4.388
14798TIP3    H244336   5.613   1.606   4.300
14799TIP3   OH244337   0.208   3.448   4.913
14799TIP3    H144338   0.303   3.463   4.917
14799TIP3    H244339   0.172   3.531   4.884
14800TIP3   OH244340   0.326   0.811   0.032
14800TIP3    H144341   0.366   0.725   0.046
14800TIP3    H244342   0.355   0.864   0.106
14801TIP3   OH244343   0.582   5.705   0.662
14801TIP3    H144344   0.555   5.797   0.668
14801TIP3    H244345   0.634   5.701   0.582
14802TIP3   OH244346   0.794   3.764   6.489
14802TIP3    H144347   0.744   3.805   6.419
14802TIP3    H244348   0.737   3.771   6.566
14803TIP3   OH244349   7.783   6.197   4.438
14803TIP3    H144350   7.842   6.149   4.496
14803TIP3    H244351   7.819   6.286   4.436
14804TIP3   OH244352   6.375   5.904   6.352
14804TIP3    H144353   6.316   5.975   6.327
14804TIP3    H244354   6.321   5.825   6.353
14805TIP3   OH244355   1.567   2.676   1.084
14805TIP3    H144356   1.632   2.608   1.065
14805TIP3    H244357   1.611   2.758   1.060
14806TIP3   OH244358   7.261   7.636   3.888
14806TIP3    H144359   7.172   7.641   3.922
14806TIP3    H244360   7.308   7.705   3.934
14807TIP3   OH244361   7.202   1.912   2.212
14807TIP3    H144362   7.216   1.865   2.294
14807TIP3    H244363   7.108   1.909   2.198
14808TIP3   OH244364   3.295   1.903   2.738
14808TIP3    H144365   3.309   1.817   2.779
14808TIP3    H244366   3.232   1.886   2.669
14809TIP3   OH244367   0.904   0.862   6.760
14809TIP3    H144368   0.993   0.836   6.784
14809TIP3    H244369   0.902   0.957   6.774
14810TIP3   OH244370   2.038   7.572   0.830
14810TIP3    H144371   2.022   7.645   0.771
14810TIP3    H244372   2.091   7.511   0.778
14811TIP3   OH244373   6.202   1.655   6.495
14811TIP3    H144374   6.249   1.623   6.573
14811TIP3    H244375   6.146   1.725   6.528
14812TIP3   OH244376   3.593   5.448   1.638
14812TIP3    H144377   3.601   5.523   1.697
14812TIP3    H244378   3.505   5.415   1.654
14813TIP3   OH244379   5.386   1.051   1.749
14813TIP3    H144380   5.355   0.975   1.699
14813TIP3    H244381   5.356   1.126   1.698
14814TIP3   OH244382   8.346   1.214   3.327
14814TIP3    H144383   8.410   1.285   3.327
14814TIP3    H244384   8.376   1.155   3.395
14815TIP3   OH244385   1.480   5.245   0.487
14815TIP3    H144386   1.549   5.310   0.501
14815TIP3    H244387   1.526   5.165   0.462
14816TIP3   OH244388   5.994   3.929   5.602
14816TIP3    H144389   5.952   3.845   5.618
14816TIP3    H244390   5.957   3.958   5.519
14817TIP3   OH244391   1.564   6.134   4.933
14817TIP3    H144392   1.503   6.190   4.885
14817TIP3    H244393   1.651   6.167   4.910
14818TIP3   OH244394   6.528   6.707   1.525
14818TIP3    H144395   6.502   6.713   1.433
14818TIP3    H244396   6.522   6.797   1.558
14819TIP3   OH244397   4.530   3.798   1.980
14819TIP3    H144398   4.613   3.751   1.979
14819TIP3    H244399   4.554   3.890   1.968
14820TIP3   OH244400   7.339   6.970   5.458
14820TIP3    H144401   7.263   7.025   5.475
14820TIP3    H244402   7.337   6.953   5.364
14821TIP3   OH244403   2.325   5.826   6.254
14821TIP3    H144404   2.302   5.737   6.279
14821TIP3    H244405   2.242   5.865   6.224
14822TIP3   OH244406   6.012   0.406   2.014
14822TIP3    H144407   5.983   0.359   1.936
14822TIP3    H244408   5.951   0.479   2.022
14823TIP3   OH244409   2.840   4.828   1.379
14823TIP3    H144410   2.913   4.888   1.365
14823TIP3    H244411   2.777   4.877   1.432
14824TIP3   OH244412   7.092   1.997   1.124
14824TIP3    H144413   7.172   1.988   1.176
14824TIP3    H244414   7.057   1.908   1.118
14825TIP3   OH244415   3.511   7.501   6.008
14825TIP3    H144416   3.537   7.557   6.081
14825TIP3    H244417   3.592   7.455   5.984
14826TIP3   OH244418   0.219   0.612   6.696
14826TIP3    H144419   0.136   0.584   6.734
14826TIP3    H244420   0.271   0.641   6.771
14827TIP3   OH244421   7.577   7.853   0.050
14827TIP3    H144422   7.583   7.781  -0.012
14827TIP3    H244423   7.509   7.911   0.015
14828TIP3   OH244424   4.801   0.595   3.405
14828TIP3    H144425   4.708   0.573   3.408
14828TIP3    H244426   4.844   0.528   3.458
14829TIP3   OH244427   6.395   0.991   0.749
14829TIP3    H144428   6.317   0.937   0.746
14829TIP3    H244429   6.364   1.077   0.777
14830TIP3   OH244430   4.608   5.979   5.586
14830TIP3    H144431   4.608   5.963   5.681
14830TIP3    H244432   4.687   5.933   5.555
14831TIP3   OH244433   4.877   4.510   1.819
14831TIP3    H144434   4.844   4.553   1.740
14831TIP3    H244435   4.941   4.572   1.855
14832TIP3   OH244436   4.379   0.116   1.318
14832TIP3    H144437   4.385   0.032   1.364
14832TIP3    H244438   4.386   0.093   1.225
14833TIP3   OH244439   0.079   0.549   0.491
14833TIP3    H144440   0.118   0.564   0.405
14833TIP3    H244441   0.131   0.602   0.551
14834TIP3   OH244442   4.321   6.533   0.102
14834TIP3    H144443   4.227   6.523   0.117
14834TIP3    H244444   4.348   6.600   0.164
14835TIP3   OH244445   5.059   5.171   2.521
14835TIP3    H144446   5.014   5.147   2.602
14835TIP3    H244447   5.021   5.256   2.498
14836TIP3   OH244448   3.884   0.223   3.860
14836TIP3    H144449   3.903   0.307   3.818
14836TIP3    H244450   3.960   0.169   3.839
14837TIP3   OH244451   1.327   7.595   6.089
14837TIP3    H144452   1.380   7.533   6.040
14837TIP3    H244453   1.370   7.679   6.075
14838TIP3   OH244454   2.140   4.153   5.545
14838TIP3    H144455   2.142   4.232   5.598
14838TIP3    H244456   2.119   4.183   5.457
14839TIP3   OH244457   3.848   5.699   6.116
14839TIP3    H144458   3.883   5.679   6.203
14839TIP3    H244459   3.770   5.750   6.132
14840TIP3   OH244460   5.979   2.604   4.871
14840TIP3    H144461   6.072   2.579   4.868
14840TIP3    H244462   5.955   2.614   4.779
14841TIP3   OH244463   3.180   1.179   5.628
14841TIP3    H144464   3.117   1.136   5.570
14841TIP3    H244465   3.266   1.150   5.595
14842TIP3   OH244466   1.066   6.951   6.109
14842TIP3    H144467   1.135   6.907   6.059
14842TIP3    H244468   0.986   6.904   6.086
14843TIP3   OH244469   4.802   1.089   5.366
14843TIP3    H144470   4.786   1.029   5.439
14843TIP3    H244471   4.716   1.099   5.325
14844TIP3   OH244472   8.092   4.006   4.395
14844TIP3    H144473   8.063   4.098   4.393
14844TIP3    H244474   8.152   3.999   4.321
14845TIP3   OH244475   0.810   4.267   2.141
14845TIP3    H144476   0.832   4.317   2.219
14845TIP3    H244477   0.811   4.330   2.069
14846TIP3   OH244478   1.107   4.132   0.308
14846TIP3    H144479   1.156   4.137   0.390
14846TIP3    H244480   1.065   4.046   0.309
14847TIP3   OH244481   6.335   2.793   2.194
14847TIP3    H144482   6.361   2.717   2.246
14847TIP3    H244483   6.240   2.787   2.189
14848TIP3   OH244484   3.935   7.369   5.398
14848TIP3    H144485   3.895   7.396   5.315
14848TIP3    H244486   3.863   7.365   5.460
14849TIP3   OH244487   0.230   6.225   1.180
14849TIP3    H144488   0.276   6.300   1.218
14849TIP3    H244489   0.258   6.225   1.089
14850TIP3   OH244490   7.472   4.121   4.663
14850TIP3    H144491   7.522   4.042   4.642
14850TIP3    H244492   7.477   4.128   4.758
14851TIP3   OH244493   1.475   2.931   0.877
14851TIP3    H144494   1.450   3.016   0.842
14851TIP3    H244495   1.564   2.917   0.846
14852TIP3   OH244496   4.363   0.944   3.150
14852TIP3    H144497   4.299   0.891   3.103
14852TIP3    H244498   4.440   0.944   3.094
14853TIP3   OH244499   3.068   3.293   5.718
14853TIP3    H144500   3.076   3.220   5.656
14853TIP3    H244501   3.080   3.253   5.804
14854TIP3   OH244502   3.331   0.039   1.022
14854TIP3    H144503   3.256   0.096   1.042
14854TIP3    H244504   3.396   0.098   0.985
14855TIP3   OH244505   3.816   5.617   2.314
14855TIP3    H144506   3.766   5.649   2.390
14855TIP3    H244507   3.853   5.696   2.275
14856TIP3   OH244508   5.014   5.876   0.539
14856TIP3    H144509   5.077   5.946   0.558
14856TIP3    H244510   4.929   5.914   0.557
14857TIP3   OH244511   8.178   3.713   6.581
14857TIP3    H144512   8.088   3.732   6.555
14857TIP3    H244513   8.232   3.766   6.522
14858TIP3   OH244514   8.116   0.655   2.359
14858TIP3    H144515   8.062   0.665   2.281
14858TIP3    H244516   8.205   0.674   2.330
14859TIP3   OH244517   3.356   6.851   0.868
14859TIP3    H144518   3.314   6.789   0.927
14859TIP3    H244519   3.302   6.849   0.789
14860TIP3   OH244520   6.382   4.413   4.403
14860TIP3    H144521   6.306   4.469   4.383
14860TIP3    H244522   6.378   4.343   4.338
14861TIP3   OH244523   3.769   4.092   1.689
14861TIP3    H144524   3.695   4.070   1.631
14861TIP3    H244525   3.832   4.137   1.632
14862TIP3   OH244526   7.261   6.410   5.295
14862TIP3    H144527   7.302   6.395   5.380
14862TIP3    H244528   7.253   6.505   5.288
14863TIP3   OH244529   2.651   1.164   1.860
14863TIP3    H144530   2.634   1.070   1.864
14863TIP3    H244531   2.738   1.175   1.896
14864TIP3   OH244532   1.296   2.212   4.607
14864TIP3    H144533   1.255   2.195   4.691
14864TIP3    H244534   1.382   2.249   4.629
14865TIP3   OH244535   1.708   5.199   0.039
14865TIP3    H144536   1.725   5.109   0.011
14865TIP3    H244537   1.720   5.251  -0.040
14866TIP3   OH244538   3.371   2.656   4.702
14866TIP3    H144539   3.333   2.570   4.718
14866TIP3    H244540   3.295   2.713   4.689
14867TIP3   OH244541   5.837   0.958   5.767
14867TIP3    H144542   5.754   0.968   5.813
14867TIP3    H244543   5.822   0.889   5.703
14868TIP3   OH244544   3.528   7.886   3.671
14868TIP3    H144545   3.619   7.915   3.676
14868TIP3    H244546   3.508   7.884   3.577
14869TIP3   OH244547   3.391   7.426   1.110
14869TIP3    H144548   3.404   7.332   1.125
14869TIP3    H244549   3.360   7.460   1.195
14870TIP3   OH244550   7.958   6.438   6.785
14870TIP3    H144551   8.028   6.449   6.721
14870TIP3    H244552   7.878   6.464   6.739
14871TIP3   OH244553   6.889   5.451   5.155
14871TIP3    H144554   6.813   5.495   5.116
14871TIP3    H244555   6.855   5.366   5.184
14872TIP3   OH244556   1.931   1.938   0.980
14872TIP3    H144557   1.961   1.851   0.952
14872TIP3    H244558   1.872   1.921   1.053
14873TIP3   OH244559   5.582   5.433   0.965
14873TIP3    H144560   5.635   5.511   0.982
14873TIP3    H244561   5.615   5.368   1.027
14874TIP3   OH244562   0.213   6.034   3.868
14874TIP3    H144563   0.266   5.954   3.864
14874TIP3    H244564   0.228   6.076   3.783
14875TIP3   OH244565   7.187   1.720   3.882
14875TIP3    H144566   7.130   1.738   3.957
14875TIP3    H244567   7.258   1.667   3.919
14876TIP3   OH244568   2.974   6.824   1.354
14876TIP3    H144569   3.001   6.867   1.273
14876TIP3    H244570   2.936   6.895   1.407
14877TIP3   OH244571   1.217   3.314   3.360
14877TIP3    H144572   1.221   3.384   3.425
14877TIP3    H244573   1.164   3.351   3.289
14878TIP3   OH244574   6.484   2.268   4.273
14878TIP3    H144575   6.500   2.176   4.251
14878TIP3    H244576   6.571   2.308   4.274
14879TIP3   OH244577   6.612   4.426   0.539
14879TIP3    H144578   6.527   4.471   0.540
14879TIP3    H244579   6.666   4.480   0.482
14880TIP3   OH244580   1.733   7.640  -0.001
14880TIP3    H144581   1.706   7.611   0.086
14880TIP3    H244582   1.654   7.629  -0.055
14881TIP3   OH244583   0.841   4.429   0.064
14881TIP3    H144584   0.842   4.509   0.116
14881TIP3    H244585   0.932   4.418   0.035
14882TIP3   OH244586   2.777   7.837   5.985
14882TIP3    H144587   2.851   7.853   6.045
14882TIP3    H244588   2.768   7.920   5.937
14883TIP3   OH244589   7.312   0.812   0.627
14883TIP3    H144590   7.351   0.888   0.584
14883TIP3    H244591   7.356   0.737   0.588
14884TIP3   OH244592   6.489   1.100   2.685
14884TIP3    H144593   6.566   1.064   2.728
14884TIP3    H244594   6.422   1.104   2.754
14885TIP3   OH244595   8.280   6.583   4.552
14885TIP3    H144596   8.259   6.676   4.551
14885TIP3    H244597   8.350   6.573   4.487
14886TIP3   OH244598   6.154   1.341   3.213
14886TIP3    H144599   6.149   1.327   3.308
14886TIP3    H244600   6.092   1.278   3.176
14887TIP3   OH244601   1.453   4.372   1.796
14887TIP3    H144602   1.417   4.283   1.797
14887TIP3    H244603   1.465   4.392   1.703
14888TIP3   OH244604   0.943   1.038   4.992
14888TIP3    H144605   0.913   0.954   5.027
14888TIP3    H244606   1.030   1.050   5.030
14889TIP3   OH244607   2.027   5.078   4.386
14889TIP3    H144608   1.971   5.131   4.443
14889TIP3    H244609   2.113   5.118   4.393
14890TIP3   OH244610   3.500   4.279   3.934
14890TIP3    H144611   3.444   4.204   3.916
14890TIP3    H244612   3.449   4.355   3.905
14891TIP3   OH244613   2.749   3.678   6.431
14891TIP3    H144614   2.782   3.753   6.381
14891TIP3    H244615   2.708   3.621   6.365
14892TIP3   OH244616   7.174   5.312   2.042
14892TIP3    H144617   7.179   5.217   2.049
14892TIP3    H244618   7.215   5.333   1.958
14893TIP3   OH244619   6.176   5.344   4.413
14893TIP3    H144620   6.186   5.325   4.319
14893TIP3    H244621   6.223   5.427   4.425
14894TIP3   OH244622   4.751   4.581   6.825
14894TIP3    H144623   4.834   4.558   6.783
14894TIP3    H244624   4.694   4.607   6.753
14895TIP3   OH244625   4.578   2.505   6.767
14895TIP3    H144626   4.622   2.534   6.687
14895TIP3    H244627   4.489   2.484   6.739
14896TIP3   OH244628   1.232   4.464   0.298
14896TIP3    H144629   1.280   4.522   0.240
14896TIP3    H244630   1.189   4.402   0.240
14897TIP3   OH244631   2.862   1.021   5.235
14897TIP3    H144632   2.896   0.955   5.296
14897TIP3    H244633   2.856   0.975   5.151
14898TIP3   OH244634   6.839   6.820   4.771
14898TIP3    H144635   6.776   6.890   4.787
14898TIP3    H244636   6.879   6.803   4.856
14899TIP3   OH244637   3.177   3.747   3.275
14899TIP3    H144638   3.090   3.714   3.300
14899TIP3    H244639   3.163   3.841   3.258
14900TIP3   OH244640   2.547   6.500   1.755
14900TIP3    H144641   2.464   6.466   1.788
14900TIP3    H244642   2.539   6.492   1.660
14901TIP3   OH244643   2.137   1.611   6.165
14901TIP3    H144644   2.114   1.686   6.111
14901TIP3    H244645   2.062   1.599   6.224
14902TIP3   OH244646   2.410   2.236   1.907
14902TIP3    H144647   2.323   2.263   1.877
14902TIP3    H244648   2.433   2.163   1.850
14903TIP3   OH244649   5.725   5.563   2.041
14903TIP3    H144650   5.719   5.483   1.988
14903TIP3    H244651   5.819   5.575   2.056
14904TIP3   OH244652   2.312   5.268   0.322
14904TIP3    H144653   2.240   5.220   0.361
14904TIP3    H244654   2.272   5.319   0.252
14905TIP3   OH244655   6.524   5.722   2.763
14905TIP3    H144656   6.488   5.792   2.817
14905TIP3    H244657   6.473   5.724   2.683
14906TIP3   OH244658   4.473   6.905   4.750
14906TIP3    H144659   4.455   6.872   4.838
14906TIP3    H244660   4.407   6.972   4.736
14907TIP3   OH244661   5.782   1.606   6.839
14907TIP3    H144662   5.730   1.525   6.834
14907TIP3    H244663   5.723   1.674   6.806
14908TIP3   OH244664   5.249   4.899   6.525
14908TIP3    H144665   5.244   4.919   6.618
14908TIP3    H244666   5.313   4.828   6.520
14909TIP3   OH244667   1.213   7.454   3.338
14909TIP3    H144668   1.224   7.397   3.414
14909TIP3    H244669   1.126   7.493   3.350
14910TIP3   OH244670   0.750   3.752   4.061
14910TIP3    H144671   0.739   3.819   3.994
14910TIP3    H244672   0.708   3.789   4.139
14911TIP3   OH244673   3.010   2.419   6.494
14911TIP3    H144674   2.952   2.356   6.450
14911TIP3    H244675   2.953   2.465   6.556
14912TIP3   OH244676  -0.012   4.442   4.653
14912TIP3    H144677   0.058   4.440   4.588
14912TIP3    H244678   0.020   4.501   4.721
14913TIP3   OH244679   4.365   0.579   6.508
14913TIP3    H144680   4.319   0.647   6.556
14913TIP3    H244681   4.439   0.555   6.564
14914TIP3   OH244682   6.984   2.350   1.315
14914TIP3    H144683   6.907   2.375   1.263
14914TIP3    H244684   7.057   2.362   1.255
14915TIP3   OH244685   5.421   5.315   6.178
14915TIP3    H144686   5.441   5.395   6.226
14915TIP3    H244687   5.333   5.330   6.143
14916TIP3   OH244688   0.200   0.472   6.360
14916TIP3    H144689   0.247   0.393   6.386
14916TIP3    H244690   0.254   0.544   6.394
14917TIP3   OH244691   2.273   0.723   6.389
14917TIP3    H144692   2.338   0.672   6.437
14917TIP3    H244693   2.288   0.813   6.416
14918TIP3   OH244694   0.657   3.007   1.156
14918TIP3    H144695   0.712   2.943   1.110
14918TIP3    H244696   0.572   2.965   1.163
14919TIP3   OH244697   8.225   0.286   6.388
14919TIP3    H144698   8.255   0.339   6.314
14919TIP3    H244699   8.261   0.199   6.372
14920TIP3   OH244700   2.963   5.478   0.472
14920TIP3    H144701   2.895   5.520   0.418
14920TIP3    H244702   2.986   5.545   0.536
14921TIP3   OH244703   6.545   6.952   3.696
14921TIP3    H144704   6.543   7.042   3.727
14921TIP3    H244705   6.456   6.919   3.710
14922TIP3   OH244706   8.480   6.870   0.165
14922TIP3    H144707   8.457   6.781   0.189
14922TIP3    H244708   8.401   6.921   0.182
14923TIP3   OH244709   0.166   0.336   3.232
14923TIP3    H144710   0.145   0.413   3.285
14923TIP3    H244711   0.085   0.285   3.232
14924TIP3   OH244712   4.015   5.422   2.979
14924TIP3    H144713   3.957   5.457   2.913
14924TIP3    H244714   3.972   5.443   3.062
14925TIP3   OH244715   0.443   2.365   2.017
14925TIP3    H144716   0.535   2.354   1.995
14925TIP3    H244717   0.414   2.439   1.962
14926TIP3   OH244718   6.134   0.544   2.219
14926TIP3    H144719   6.184   0.604   2.164
14926TIP3    H244720   6.083   0.492   2.157
14927TIP3   OH244721   6.842   6.008   3.280
14927TIP3    H144722   6.892   5.931   3.254
14927TIP3    H244723   6.882   6.036   3.363
14928TIP3   OH244724   4.195   3.753   2.407
14928TIP3    H144725   4.109   3.785   2.432
14928TIP3    H244726   4.254   3.783   2.476
14929TIP3   OH244727   3.739   7.387   4.930
14929TIP3    H144728   3.793   7.416   4.857
14929TIP3    H244729   3.721   7.295   4.912
14930TIP3   OH244730   0.896   4.496   3.648
14930TIP3    H144731   0.823   4.480   3.708
14930TIP3    H244732   0.867   4.458   3.565
14931TIP3   OH244733   1.851   2.990   5.931
14931TIP3    H144734   1.861   2.925   5.861
14931TIP3    H244735   1.806   3.064   5.889
14932TIP3   OH244736   7.949   3.519   3.208
14932TIP3    H144737   8.023   3.465   3.236
14932TIP3    H244738   7.941   3.503   3.114
14933TIP3   OH244739   6.705   1.106   1.158
14933TIP3    H144740   6.708   1.018   1.196
14933TIP3    H244741   6.763   1.158   1.213
14934TIP3   OH244742   0.344   6.749   2.841
14934TIP3    H144743   0.300   6.672   2.806
14934TIP3    H244744   0.275   6.816   2.846
14935TIP3   OH244745   3.371   2.171   6.727
14935TIP3    H144746   3.342   2.132   6.645
14935TIP3    H244747   3.359   2.266   6.714
14936TIP3   OH244748   1.158   3.448   0.950
14936TIP3    H144749   1.104   3.373   0.974
14936TIP3    H244750   1.161   3.502   1.029
14937TIP3   OH244751   6.468   2.297   4.953
14937TIP3    H144752   6.432   2.239   5.021
14937TIP3    H244753   6.498   2.374   5.001
14938TIP3   OH244754   7.343   7.930   1.613
14938TIP3    H144755   7.352   7.838   1.585
14938TIP3    H244756   7.251   7.950   1.601
14939TIP3   OH244757   2.059  -0.014   5.684
14939TIP3    H144758   2.036   0.079   5.680
14939TIP3    H244759   2.054  -0.037   5.776
14940TIP3   OH244760   7.433   2.395   0.678
14940TIP3    H144761   7.489   2.317   0.681
14940TIP3    H244762   7.350   2.363   0.642
14941TIP3   OH244763   5.783   7.565   3.659
14941TIP3    H144764   5.876   7.567   3.682
14941TIP3    H244765   5.781   7.570   3.564
14942TIP3   OH244766   6.613   1.741   6.724
14942TIP3    H144767   6.555   1.800   6.773
14942TIP3    H244768   6.570   1.728   6.640
14943TIP3   OH244769   7.887   0.377   0.521
14943TIP3    H144770   7.975   0.364   0.486
14943TIP3    H244771   7.876   0.472   0.523
14944TIP3   OH244772   2.621   1.858   3.176
14944TIP3    H144773   2.537   1.862   3.130
14944TIP3    H244774   2.646   1.950   3.187
14945TIP3   OH244775   1.108   6.825   4.806
14945TIP3    H144776   1.059   6.878   4.870
14945TIP3    H244777   1.055   6.747   4.794
14946TIP3   OH244778   4.108   6.378   4.355
14946TIP3    H144779   4.117   6.357   4.261
14946TIP3    H244780   4.173   6.322   4.398
14947TIP3   OH244781   0.096   6.821   2.383
14947TIP3    H144782   0.062   6.750   2.328
14947TIP3    H244783   0.021   6.878   2.399
14948TIP3   OH244784   1.150   1.092   0.190
14948TIP3    H144785   1.212   1.035   0.145
14948TIP3    H244786   1.123   1.156   0.123
14949TIP3   OH244787   1.135   1.105   2.264
14949TIP3    H144788   1.199   1.054   2.314
14949TIP3    H244789   1.172   1.111   2.176
14950TIP3   OH244790   7.096   6.265   1.617
14950TIP3    H144791   7.009   6.269   1.657
14950TIP3    H244792   7.080   6.224   1.532
14951TIP3   OH244793   0.528   3.271   6.651
14951TIP3    H144794   0.444   3.308   6.626
14951TIP3    H244795   0.552   3.319   6.731
14952TIP3   OH244796   0.266   3.670   1.939
14952TIP3    H144797   0.360   3.654   1.924
14952TIP3    H244798   0.234   3.590   1.979
14953TIP3   OH244799   2.420   5.351   4.022
14953TIP3    H144800   2.509   5.335   3.989
14953TIP3    H244801   2.415   5.446   4.032
14954TIP3   OH244802   3.992   5.184   1.170
14954TIP3    H144803   4.050   5.260   1.163
14954TIP3    H244804   3.946   5.197   1.253
14955TIP3   OH244805   8.042   6.365   2.964
14955TIP3    H144806   8.094   6.411   2.898
14955TIP3    H244807   8.040   6.424   3.039
14956TIP3   OH244808   1.644   4.565   4.921
14956TIP3    H144809   1.658   4.510   4.998
14956TIP3    H244810   1.592   4.639   4.954
14957TIP3   OH244811   1.321   4.297   6.134
14957TIP3    H144812   1.297   4.385   6.106
14957TIP3    H244813   1.238   4.255   6.158
14958TIP3   OH244814   6.775   5.515   6.501
14958TIP3    H144815   6.732   5.515   6.587
14958TIP3    H244816   6.845   5.580   6.510
14959TIP3   OH244817   7.813   1.255   1.781
14959TIP3    H144818   7.866   1.304   1.718
14959TIP3    H244819   7.869   1.249   1.859
14960TIP3   OH244820   3.290   3.518   4.673
14960TIP3    H144821   3.361   3.557   4.723
14960TIP3    H244822   3.251   3.454   4.733
14961TIP3   OH244823   7.750   0.819   3.100
14961TIP3    H144824   7.841   0.846   3.110
14961TIP3    H244825   7.700   0.900   3.096
14962TIP3   OH244826   6.066   4.298   4.520
14962TIP3    H144827   6.032   4.319   4.433
14962TIP3    H244828   6.136   4.361   4.534
14963TIP3   OH244829   5.150   2.331   5.855
14963TIP3    H144830   5.187   2.333   5.766
14963TIP3    H244831   5.164   2.419   5.889
14964TIP3   OH244832   0.218   4.736   6.845
14964TIP3    H144833   0.149   4.672   6.829
14964TIP3    H244834   0.180   4.819   6.816
14965TIP3   OH244835   2.828   2.595   2.237
14965TIP3    H144836   2.849   2.502   2.234
14965TIP3    H244837   2.733   2.599   2.226
14966TIP3   OH244838   5.720   1.059   2.085
14966TIP3    H144839   5.738   1.149   2.058
14966TIP3    H244840   5.801   1.011   2.066
14967TIP3   OH244841   5.315   3.775   3.887
14967TIP3    H144842   5.254   3.779   3.813
14967TIP3    H244843   5.281   3.704   3.942
14968TIP3   OH244844   1.929   1.573   6.327
14968TIP3    H144845   1.934   1.501   6.389
14968TIP3    H244846   1.844   1.563   6.284
14969TIP3   OH244847   6.463   6.880   4.109
14969TIP3    H144848   6.520   6.953   4.084
14969TIP3    H244849   6.517   6.827   4.168
14970TIP3   OH244850   6.349   7.533   2.472
14970TIP3    H144851   6.418   7.599   2.483
14970TIP3    H244852   6.337   7.496   2.560
14971TIP3   OH244853   6.261   0.988   3.270
14971TIP3    H144854   6.195   0.920   3.258
14971TIP3    H244855   6.315   0.984   3.191
14972TIP3   OH244856   4.387   3.534   4.942
14972TIP3    H144857   4.395   3.531   5.037
14972TIP3    H244858   4.310   3.481   4.922
14973TIP3   OH244859   7.709   3.862   3.248
14973TIP3    H144860   7.779   3.817   3.296
14973TIP3    H244861   7.730   3.848   3.156
14974TIP3   OH244862   5.573   1.364   2.300
14974TIP3    H144863   5.577   1.270   2.314
14974TIP3    H244864   5.561   1.402   2.387
14975TIP3   OH244865   0.789   6.340   3.009
14975TIP3    H144866   0.796   6.426   3.053
14975TIP3    H244867   0.726   6.355   2.939
14976TIP3   OH244868   0.869   5.591   3.588
14976TIP3    H144869   0.824   5.606   3.672
14976TIP3    H244870   0.899   5.500   3.592
14977TIP3   OH244871   5.065   2.080   3.758
14977TIP3    H144872   5.006   2.004   3.758
14977TIP3    H244873   5.113   2.072   3.841
14978TIP3   OH244874   4.888   6.416   1.132
14978TIP3    H144875   4.922   6.502   1.157
14978TIP3    H244876   4.803   6.410   1.175
14979TIP3   OH244877   6.942   0.182   5.038
14979TIP3    H144878   6.916   0.231   5.116
14979TIP3    H244879   6.894   0.099   5.045
14980TIP3   OH244880   6.375   1.208   3.061
14980TIP3    H144881   6.294   1.234   3.106
14980TIP3    H244882   6.347   1.145   2.995
14981TIP3   OH244883  -0.013   6.065   3.485
14981TIP3    H144884   0.056   5.999   3.481
14981TIP3    H244885  -0.071   6.034   3.555
14982TIP3   OH244886   0.230   2.212   3.699
14982TIP3    H144887   0.175   2.231   3.623
14982TIP3    H244888   0.296   2.281   3.699
14983TIP3   OH244889   4.572   4.159   4.109
14983TIP3    H144890   4.507   4.201   4.165
14983TIP3    H244891   4.553   4.190   4.021
14984TIP3   OH244892   4.134   1.837   4.552
14984TIP3    H144893   4.103   1.811   4.638
14984TIP3    H244894   4.202   1.902   4.569
14985TIP3   OH244895   5.220   6.000   5.770
14985TIP3    H144896   5.245   6.083   5.730
14985TIP3    H244897   5.301   5.949   5.773
14986TIP3   OH244898   5.361   3.940   4.123
14986TIP3    H144899   5.393   3.905   4.040
14986TIP3    H244900   5.274   3.974   4.103
14987TIP3   OH244901   5.608   2.275   4.122
14987TIP3    H144902   5.624   2.324   4.042
14987TIP3    H244903   5.580   2.341   4.186
14988TIP3   OH244904   4.664   6.038   6.045
14988TIP3    H144905   4.715   5.959   6.062
14988TIP3    H244906   4.616   6.020   5.964
14989TIP3   OH244907   3.153   6.746   3.628
14989TIP3    H144908   3.112   6.831   3.641
14989TIP3    H244909   3.247   6.763   3.633
14990TIP3   OH244910   4.131   7.530   5.342
14990TIP3    H144911   4.056   7.473   5.358
14990TIP3    H244912   4.207   7.474   5.358
14991TIP3   OH244913   3.165   4.987   0.938
14991TIP3    H144914   3.106   5.029   0.999
14991TIP3    H244915   3.134   5.014   0.851
14992TIP3   OH244916   2.408   6.243   3.462
14992TIP3    H144917   2.456   6.227   3.543
14992TIP3    H244918   2.419   6.162   3.412
14993TIP3   OH244919   5.515   3.155   0.153
14993TIP3    H144920   5.482   3.243   0.137
14993TIP3    H244921   5.575   3.165   0.227
14994TIP3   OH244922   2.641   6.610   1.219
14994TIP3    H144923   2.638   6.656   1.134
14994TIP3    H244924   2.734   6.593   1.233
14995TIP3   OH244925   3.794   5.117   6.402
14995TIP3    H144926   3.732   5.052   6.371
14995TIP3    H244927   3.804   5.099   6.495
14996TIP3   OH244928   1.543   6.887   0.331
14996TIP3    H144929   1.460   6.856   0.368
14996TIP3    H244930   1.539   6.863   0.239
14997TIP3   OH244931   5.847   5.521   4.652
14997TIP3    H144932   5.875   5.586   4.716
14997TIP3    H244933   5.913   5.452   4.656
14998TIP3   OH244934   6.412   5.134   0.028
14998TIP3    H144935   6.407   5.135   0.124
14998TIP3    H244936   6.447   5.220   0.005
14999TIP3   OH244937   6.895   6.040   2.256
14999TIP3    H144938   6.842   6.104   2.209
14999TIP3    H244939   6.937   5.988   2.187
15000TIP3   OH244940   6.219   2.747   5.573
15000TIP3    H144941   6.293   2.713   5.623
15000TIP3    H244942   6.162   2.671   5.561
15001TIP3   OH244943   5.787   2.643   1.280
15001TIP3    H144944   5.834   2.658   1.361
15001TIP3    H244945   5.836   2.692   1.214
15002TIP3   OH244946   7.835   1.582   6.127
15002TIP3    H144947   7.849   1.667   6.084
15002TIP3    H244948   7.875   1.593   6.213
15003TIP3   OH244949   2.869   7.575   3.144
15003TIP3    H144950   2.848   7.568   3.237
15003TIP3    H244951   2.814   7.647   3.112
15004TIP3   OH244952   4.338   4.023   0.828
15004TIP3    H144953   4.322   3.947   0.883
15004TIP3    H244954   4.387   3.989   0.753
15005TIP3   OH244955   6.688   2.048   2.162
15005TIP3    H144956   6.653   2.068   2.249
15005TIP3    H244957   6.653   1.962   2.141
15006TIP3   OH244958   6.311   4.971   4.094
15006TIP3    H144959   6.298   5.017   4.011
15006TIP3    H244960   6.283   5.033   4.161
15007TIP3   OH244961   1.783   5.849   1.956
15007TIP3    H144962   1.763   5.943   1.956
15007TIP3    H244963   1.732   5.814   2.030
15008TIP3   OH244964   7.095   5.977   4.181
15008TIP3    H144965   7.134   6.057   4.144
15008TIP3    H244966   7.120   5.908   4.120
15009TIP3   OH244967   0.921   2.149   5.840
15009TIP3    H144968   0.952   2.219   5.782
15009TIP3    H244969   0.827   2.144   5.823
15010TIP3   OH244970   0.876   4.990   5.799
15010TIP3    H144971   0.856   5.070   5.751
15010TIP3    H244972   0.820   4.923   5.758
15011TIP3   OH244973   6.288   4.427   0.813
15011TIP3    H144974   6.335   4.466   0.887
15011TIP3    H244975   6.340   4.450   0.736
15012TIP3   OH244976   1.141   0.233   1.453
15012TIP3    H144977   1.152   0.139   1.437
15012TIP3    H244978   1.159   0.274   1.369
15013TIP3   OH244979   6.719   7.789   4.348
15013TIP3    H144980   6.626   7.784   4.329
15013TIP3    H244981   6.730   7.871   4.396
15014TIP3   OH244982   5.350   6.965   1.201
15014TIP3    H144983   5.369   6.946   1.293
15014TIP3    H244984   5.259   6.995   1.201
15015TIP3   OH244985   5.134   2.467   5.608
15015TIP3    H144986   5.061   2.423   5.565
15015TIP3    H244987   5.206   2.462   5.545
15016TIP3   OH244988   3.978   1.471   6.142
15016TIP3    H144989   3.972   1.566   6.152
15016TIP3    H244990   3.984   1.437   6.231
15017TIP3   OH244991   1.534   7.015   3.554
15017TIP3    H144992   1.571   7.022   3.466
15017TIP3    H244993   1.516   6.921   3.564
15018TIP3   OH244994   7.450   1.990   2.843
15018TIP3    H144995   7.509   1.924   2.809
15018TIP3    H244996   7.440   1.968   2.936
15019TIP3   OH244997   1.297   3.054   4.172
15019TIP3    H144998   1.270   3.007   4.093
15019TIP3    H244999   1.257   3.140   4.163
15020TIP3   OH245000   2.377   5.976   0.101
15020TIP3    H145001   2.384   6.012   0.189
15020TIP3    H245002   2.287   5.944   0.096
15021TIP3   OH245003   2.128   4.548   4.287
15021TIP3    H145004   2.034   4.556   4.276
15021TIP3    H245005   2.165   4.612   4.226
15022TIP3   OH245006   1.622   4.091   6.695
15022TIP3    H145007   1.573   4.151   6.750
15022TIP3    H245008   1.694   4.144   6.659
15023TIP3   OH245009   3.190   0.460   5.292
15023TIP3    H145010   3.102   0.425   5.279
15023TIP3    H245011   3.193   0.538   5.236
15024TIP3   OH245012   7.010   6.811   5.020
15024TIP3    H145013   7.037   6.882   5.077
15024TIP3    H245014   7.070   6.739   5.040
15025TIP3   OH245015   6.651   5.888   4.914
15025TIP3    H145016   6.665   5.841   4.832
15025TIP3    H245017   6.695   5.971   4.902
15026TIP3   OH245018   7.960   5.180   1.915
15026TIP3    H145019   7.940   5.159   1.824
15026TIP3    H245020   8.054   5.197   1.915
15027TIP3   OH245021   0.059   3.843   1.244
15027TIP3    H145022   0.066   3.891   1.161
15027TIP3    H245023   0.090   3.755   1.224
15028TIP3   OH245024   7.679   5.029   4.034
15028TIP3    H145025   7.754   5.045   3.977
15028TIP3    H245026   7.609   4.999   3.976
15029TIP3   OH245027   4.583   0.747   5.934
15029TIP3    H145028   4.531   0.755   5.854
15029TIP3    H245029   4.670   0.778   5.909
15030TIP3   OH245030   2.932   6.722   3.337
15030TIP3    H145031   3.010   6.773   3.357
15030TIP3    H245032   2.966   6.639   3.304
15031TIP3   OH245033   6.031   0.230   3.129
15031TIP3    H145034   5.943   0.218   3.164
15031TIP3    H245035   6.063   0.310   3.173
15032TIP3   OH245036   7.735   7.351   1.232
15032TIP3    H145037   7.708   7.392   1.150
15032TIP3    H245038   7.780   7.420   1.280
15033TIP3   OH245039   0.281   1.489   3.104
15033TIP3    H145040   0.254   1.581   3.100
15033TIP3    H245041   0.376   1.492   3.111
15034TIP3   OH245042   5.425   6.660   2.393
15034TIP3    H145043   5.487   6.689   2.461
15034TIP3    H245044   5.342   6.698   2.419
15035TIP3   OH245045   4.262   5.134   1.769
15035TIP3    H145046   4.174   5.146   1.733
15035TIP3    H245047   4.317   5.190   1.714
15036TIP3   OH245048   0.272   5.780   4.537
15036TIP3    H145049   0.253   5.860   4.488
15036TIP3    H245050   0.193   5.764   4.589
15037TIP3   OH245051   6.461   3.605   6.516
15037TIP3    H145052   6.389   3.577   6.460
15037TIP3    H245053   6.527   3.537   6.505
15038TIP3   OH245054   5.865   7.479   5.630
15038TIP3    H145055   5.870   7.400   5.684
15038TIP3    H245056   5.865   7.446   5.540
15039TIP3   OH245057   6.959   4.161   6.178
15039TIP3    H145058   6.889   4.101   6.154
15039TIP3    H245059   7.030   4.105   6.209
15040TIP3   OH245060   7.103   3.130   1.146
15040TIP3    H145061   7.063   3.069   1.208
15040TIP3    H245062   7.073   3.217   1.174
15041TIP3   OH245063   5.802   5.096   0.327
15041TIP3    H145064   5.853   5.176   0.339
15041TIP3    H245065   5.804   5.054   0.413
15042TIP3   OH245066   7.334   4.429   0.691
15042TIP3    H145067   7.268   4.464   0.631
15042TIP3    H245068   7.416   4.432   0.641
15043TIP3   OH245069   0.837   6.240   5.278
15043TIP3    H145070   0.802   6.310   5.224
15043TIP3    H245071   0.797   6.253   5.364
15044TIP3   OH245072   4.749   5.395   4.667
15044TIP3    H145073   4.823   5.344   4.637
15044TIP3    H245074   4.672   5.342   4.644
15045TIP3   OH245075   7.551   2.408   5.350
15045TIP3    H145076   7.634   2.370   5.380
15045TIP3    H245077   7.489   2.335   5.353
15046TIP3   OH245078   8.336   1.030   3.545
15046TIP3    H145079   8.324   0.961   3.611
15046TIP3    H245080   8.428   1.023   3.519
15047TIP3   OH245081   8.028   5.852   0.276
15047TIP3    H145082   7.935   5.847   0.252
15047TIP3    H245083   8.057   5.937   0.241
15048TIP3   OH245084   0.616   1.769   3.421
15048TIP3    H145085   0.614   1.859   3.390
15048TIP3    H245086   0.591   1.716   3.346
15049TIP3   OH245087   3.361   1.331   5.750
15049TIP3    H145088   3.379   1.397   5.683
15049TIP3    H245089   3.288   1.280   5.714
15050TIP3   OH245090   1.459   7.432   3.855
15050TIP3    H145091   1.456   7.366   3.786
15050TIP3    H245092   1.374   7.475   3.852
15051TIP3   OH245093   2.689   3.318   6.808
15051TIP3    H145094   2.696   3.276   6.722
15051TIP3    H245095   2.626   3.389   6.795
15052TIP3   OH245096   5.234   6.160   6.836
15052TIP3    H145097   5.252   6.228   6.900
15052TIP3    H245098   5.143   6.134   6.853
15053TIP3   OH245099   7.279   7.644   4.533
15053TIP3    H145100   7.354   7.636   4.475
15053TIP3    H245101   7.216   7.696   4.483
15054TIP3   OH245102   8.232   2.411   6.873
15054TIP3    H145103   8.193   2.497   6.892
15054TIP3    H245104   8.173   2.372   6.808
15055TIP3   OH245105   1.862   1.255  -0.023
15055TIP3    H145106   1.858   1.312   0.054
15055TIP3    H245107   1.784   1.199  -0.015
15056TIP3   OH245108   3.728   3.037   1.779
15056TIP3    H145109   3.715   3.130   1.798
15056TIP3    H245110   3.703   3.027   1.688
15057TIP3   OH245111   1.035   3.379   4.073
15057TIP3    H145112   1.003   3.303   4.122
15057TIP3    H245113   1.063   3.342   3.989
15058TIP3   OH245114   2.621   7.373   1.304
15058TIP3    H145115   2.580   7.455   1.276
15058TIP3    H245116   2.602   7.311   1.233
15059TIP3   OH245117   0.250   1.806   2.433
15059TIP3    H145118   0.257   1.819   2.527
15059TIP3    H245119   0.313   1.868   2.395
15060TIP3   OH245120   5.273   5.766   0.366
15060TIP3    H145121   5.310   5.841   0.319
15060TIP3    H245122   5.320   5.763   0.449
15061TIP3   OH245123   6.331   5.722   1.126
15061TIP3    H145124   6.314   5.629   1.138
15061TIP3    H245125   6.407   5.725   1.067
15062TIP3   OH245126   1.511   3.557   3.882
15062TIP3    H145127   1.602   3.538   3.906
15062TIP3    H245128   1.468   3.471   3.880
15063TIP3   OH245129   5.787   7.753   6.112
15063TIP3    H145130   5.837   7.803   6.047
15063TIP3    H245131   5.712   7.719   6.064
15064TIP3   OH245132   3.310   0.885   4.111
15064TIP3    H145133   3.261   0.965   4.093
15064TIP3    H245134   3.247   0.815   4.097
15065TIP3   OH245135   2.953   2.832   0.927
15065TIP3    H145136   3.015   2.779   0.976
15065TIP3    H245137   2.992   2.920   0.926
15066TIP3   OH245138   5.406   0.131   4.992
15066TIP3    H145139   5.488   0.098   5.029
15066TIP3    H245140   5.402   0.093   4.904
15067TIP3   OH245141   7.240   0.787   4.515
15067TIP3    H145142   7.275   0.761   4.430
15067TIP3    H245143   7.271   0.719   4.576
15068TIP3   OH245144   1.093   6.295   4.167
15068TIP3    H145145   1.036   6.366   4.197
15068TIP3    H245146   1.118   6.321   4.078
15069TIP3   OH245147   7.793   3.727   3.032
15069TIP3    H145148   7.790   3.632   3.025
15069TIP3    H245149   7.808   3.758   2.942
15070TIP3   OH245150   3.503   0.933   0.157
15070TIP3    H145151   3.459   0.887   0.085
15070TIP3    H245152   3.593   0.946   0.126
15071TIP3   OH245153   8.281   1.464   6.763
15071TIP3    H145154   8.304   1.538   6.707
15071TIP3    H245155   8.319   1.486   6.848
15072TIP3   OH245156   8.325   6.371   1.432
15072TIP3    H145157   8.418   6.377   1.454
15072TIP3    H245158   8.322   6.323   1.349
15073TIP3   OH245159   7.748   7.026   3.583
15073TIP3    H145160   7.670   7.068   3.619
15073TIP3    H245161   7.812   7.096   3.577
15074TIP3   OH245162   2.915   5.359   1.550
15074TIP3    H145163   2.914   5.455   1.557
15074TIP3    H245164   2.842   5.330   1.605
15075TIP3   OH245165   5.505   3.789   2.882
15075TIP3    H145166   5.513   3.848   2.957
15075TIP3    H245167   5.464   3.843   2.814
15076TIP3   OH245168   2.774   7.145   5.487
15076TIP3    H145169   2.703   7.161   5.425
15076TIP3    H245170   2.836   7.088   5.439
15077TIP3   OH245171   0.766   3.658   5.598
15077TIP3    H145172   0.815   3.652   5.680
15077TIP3    H245173   0.822   3.712   5.541
15078TIP3   OH245174   5.208   7.590   0.476
15078TIP3    H145175   5.212   7.597   0.381
15078TIP3    H245176   5.204   7.681   0.506
15079TIP3   OH245177   1.038   0.154   5.446
15079TIP3    H145178   0.950   0.132   5.416
15079TIP3    H245179   1.087   0.072   5.442
15080TIP3   OH245180   5.145   0.463   0.795
15080TIP3    H145181   5.185   0.535   0.843
15080TIP3    H245182   5.060   0.496   0.768
15081TIP3   OH245183   5.031   1.635   6.015
15081TIP3    H145184   5.044   1.542   5.996
15081TIP3    H245185   4.955   1.660   5.963
15082TIP3   OH245186   0.211   6.502   6.313
15082TIP3    H145187   0.262   6.583   6.306
15082TIP3    H245188   0.260   6.438   6.262
15083TIP3   OH245189   3.206   4.746   6.099
15083TIP3    H145190   3.242   4.659   6.083
15083TIP3    H245191   3.219   4.793   6.017
15084TIP3   OH245192   1.262   7.069   6.298
15084TIP3    H145193   1.212   7.146   6.326
15084TIP3    H245194   1.197   7.011   6.258
15085TIP3   OH245195   7.698   4.586   1.200
15085TIP3    H145196   7.719   4.633   1.281
15085TIP3    H245197   7.603   4.590   1.194
15086TIP3   OH245198   4.304   2.337   1.237
15086TIP3    H145199   4.254   2.417   1.219
15086TIP3    H245200   4.272   2.306   1.321
15087TIP3   OH245201   0.090   4.573   1.431
15087TIP3    H145202   0.082   4.478   1.434
15087TIP3    H245203   0.174   4.588   1.387
15088TIP3   OH245204   7.317   6.280   5.014
15088TIP3    H145205   7.305   6.228   5.093
15088TIP3    H245206   7.232   6.322   5.001
15089TIP3   OH245207   8.192   6.949   2.586
15089TIP3    H145208   8.216   6.858   2.605
15089TIP3    H245209   8.199   6.993   2.671
15090TIP3   OH245210   1.384   3.050   4.978
15090TIP3    H145211   1.322   3.058   4.905
15090TIP3    H245212   1.461   3.100   4.949
15091TIP3   OH245213   3.503   3.205   2.057
15091TIP3    H145214   3.592   3.238   2.054
15091TIP3    H245215   3.456   3.255   1.990
15092TIP3   OH245216   1.237   6.746   0.722
15092TIP3    H145217   1.197   6.659   0.719
15092TIP3    H245218   1.207   6.783   0.805
15093TIP3   OH245219   0.513   5.887   0.074
15093TIP3    H145220   0.462   5.810   0.099
15093TIP3    H245221   0.459   5.932   0.009
15094TIP3   OH245222   5.044   6.897   4.149
15094TIP3    H145223   5.102   6.973   4.139
15094TIP3    H245224   4.962   6.923   4.108
15095TIP3   OH245225   1.952   5.400   3.891
15095TIP3    H145226   2.040   5.439   3.885
15095TIP3    H245227   1.921   5.400   3.801
15096TIP3   OH245228   1.189   6.512   0.583
15096TIP3    H145229   1.176   6.435   0.638
15096TIP3    H245230   1.104   6.556   0.582
15097TIP3   OH245231   3.919   1.479   2.439
15097TIP3    H145232   3.846   1.530   2.404
15097TIP3    H245233   3.991   1.541   2.447
15098TIP3   OH245234   7.966   3.651   4.221
15098TIP3    H145235   8.017   3.581   4.182
15098TIP3    H245236   7.879   3.613   4.233
15099TIP3   OH245237   4.223   1.294   2.410
15099TIP3    H145238   4.186   1.340   2.334
15099TIP3    H245239   4.223   1.202   2.384
15100TIP3   OH245240   7.418   7.282   4.507
15100TIP3    H145241   7.399   7.194   4.473
15100TIP3    H245242   7.348   7.299   4.569
15101TIP3   OH245243   0.357   4.296   4.982
15101TIP3    H145244   0.265   4.271   4.996
15101TIP3    H245245   0.353   4.389   4.961
15102TIP3   OH245246   1.012   6.194   4.529
15102TIP3    H145247   1.006   6.136   4.453
15102TIP3    H245248   1.102   6.227   4.526
15103TIP3   OH245249   3.036   2.003   3.430
15103TIP3    H145250   3.001   2.054   3.356
15103TIP3    H245251   3.033   1.913   3.400
15104TIP3   OH245252   0.468   3.223   1.520
15104TIP3    H145253   0.428   3.261   1.443
15104TIP3    H245254   0.460   3.128   1.507
15105TIP3   OH245255   6.975   7.390   0.299
15105TIP3    H145256   6.955   7.389   0.205
15105TIP3    H245257   7.002   7.480   0.316
15106TIP3   OH245258   4.285   7.766   2.937
15106TIP3    H145259   4.310   7.696   2.876
15106TIP3    H245260   4.212   7.810   2.894
15107TIP3   OH245261   3.197   3.941   0.067
15107TIP3    H145262   3.178   3.989  -0.014
15107TIP3    H245263   3.148   3.987   0.134
15108TIP3   OH245264   1.423   1.836   2.744
15108TIP3    H145265   1.376   1.769   2.694
15108TIP3    H245266   1.479   1.880   2.680
15109TIP3   OH245267   0.479   3.621   0.988
15109TIP3    H145268   0.395   3.611   0.945
15109TIP3    H245269   0.459   3.669   1.068
15110TIP3   OH245270   2.104   5.200   5.043
15110TIP3    H145271   2.097   5.296   5.047
15110TIP3    H245272   2.014   5.170   5.030
15111TIP3   OH245273   7.090   6.984   6.309
15111TIP3    H145274   7.061   7.048   6.375
15111TIP3    H245275   7.061   7.021   6.226
15112TIP3   OH245276   5.865   1.993   5.980
15112TIP3    H145277   5.884   2.079   6.017
15112TIP3    H245278   5.882   1.932   6.052
15113TIP3   OH245279   4.816   7.690   5.622
15113TIP3    H145280   4.751   7.639   5.670
15113TIP3    H245281   4.784   7.692   5.532
15114TIP3   OH245282   2.067   2.539   0.062
15114TIP3    H145283   2.126   2.612   0.080
15114TIP3    H245284   2.057   2.539  -0.033
15115TIP3   OH245285   5.089   2.176   1.708
15115TIP3    H145286   5.010   2.195   1.758
15115TIP3    H245287   5.141   2.256   1.714
15116TIP3   OH245288   1.520   1.881   2.194
15116TIP3    H145289   1.443   1.851   2.147
15116TIP3    H245290   1.507   1.851   2.284
15117TIP3   OH245291   2.013   4.003   0.932
15117TIP3    H145292   1.965   3.957   0.863
15117TIP3    H245293   1.999   3.949   1.010
15118TIP3   OH245294   7.806   4.638   3.172
15118TIP3    H145295   7.747   4.713   3.166
15118TIP3    H245296   7.757   4.573   3.223
15119TIP3   OH245297   1.467   0.685   5.482
15119TIP3    H145298   1.502   0.598   5.503
15119TIP3    H245299   1.378   0.684   5.515
15120TIP3   OH245300   4.843   5.553   0.208
15120TIP3    H145301   4.906   5.540   0.278
15120TIP3    H245302   4.886   5.614   0.148
15121TIP3   OH245303   0.995   5.459   4.821
15121TIP3    H145304   1.047   5.500   4.890
15121TIP3    H245305   1.057   5.441   4.751
15122TIP3   OH245306  -0.020   7.398   0.200
15122TIP3    H145307   0.039   7.464   0.164
15122TIP3    H245308  -0.005   7.400   0.294
15123TIP3   OH245309   3.984   6.186   2.186
15123TIP3    H145310   3.959   6.200   2.277
15123TIP3    H245311   3.904   6.202   2.136
15124TIP3   OH245312   5.197   1.131   5.959
15124TIP3    H145313   5.191   1.037   5.973
15124TIP3    H245314   5.259   1.140   5.886
15125TIP3   OH245315   1.836   3.465   4.788
15125TIP3    H145316   1.912   3.521   4.772
15125TIP3    H245317   1.854   3.425   4.873
15126TIP3   OH245318   3.920   1.985   5.606
15126TIP3    H145319   3.921   1.942   5.691
15126TIP3    H245320   3.898   1.916   5.544
15127TIP3   OH245321   5.195   5.551   1.238
15127TIP3    H145322   5.276   5.505   1.215
15127TIP3    H245323   5.225   5.622   1.295
15128TIP3   OH245324   3.448   3.105   3.584
15128TIP3    H145325   3.529   3.101   3.635
15128TIP3    H245326   3.452   3.028   3.527
15129TIP3   OH245327   7.681   1.518   4.277
15129TIP3    H145328   7.749   1.575   4.313
15129TIP3    H245329   7.719   1.430   4.280
15130TIP3   OH245330   6.512   2.824   1.029
15130TIP3    H145331   6.534   2.743   1.075
15130TIP3    H245332   6.596   2.862   1.004
15131TIP3   OH245333   6.441   5.969   0.496
15131TIP3    H145334   6.518   5.912   0.504
15131TIP3    H245335   6.390   5.950   0.575
15132TIP3   OH245336   8.223   2.612   1.011
15132TIP3    H145337   8.129   2.627   1.013
15132TIP3    H245338   8.239   2.564   0.930
15133TIP3   OH245339   3.016   0.684   0.188
15133TIP3    H145340   3.049   0.770   0.162
15133TIP3    H245341   2.969   0.700   0.269
15134TIP3   OH245342   3.113   5.127  -0.044
15134TIP3    H145343   3.139   5.210  -0.083
15134TIP3    H245344   3.031   5.146   0.002
15135TIP3   OH245345   0.989   6.206   1.605
15135TIP3    H145346   0.923   6.272   1.584
15135TIP3    H245347   0.954   6.161   1.682
15136TIP3   OH245348   4.435   0.812   2.099
15136TIP3    H145349   4.366   0.791   2.036
15136TIP3    H245350   4.484   0.883   2.057
15137TIP3   OH245351   5.938   1.532   3.225
15137TIP3    H145352   5.932   1.438   3.242
15137TIP3    H245353   5.968   1.570   3.307
15138TIP3   OH245354   1.160   6.170   3.121
15138TIP3    H145355   1.123   6.143   3.038
15138TIP3    H245356   1.138   6.099   3.182
15139TIP3   OH245357   2.066   1.871   1.282
15139TIP3    H145358   2.112   1.950   1.256
15139TIP3    H245359   2.093   1.856   1.372
15140TIP3   OH245360   0.086   3.544   5.868
15140TIP3    H145361   0.094   3.591   5.951
15140TIP3    H245362  -0.007   3.528   5.858
15141TIP3   OH245363   5.289   5.919   4.532
15141TIP3    H145364   5.196   5.909   4.554
15141TIP3    H245365   5.306   5.849   4.469
15142TIP3   OH245366   1.706   5.882   2.329
15142TIP3    H145367   1.637   5.868   2.264
15142TIP3    H245368   1.738   5.794   2.349
15143TIP3   OH245369   6.670   0.735   5.203
15143TIP3    H145370   6.735   0.685   5.253
15143TIP3    H245371   6.706   0.823   5.198
15144TIP3   OH245372   2.862   2.698   1.870
15144TIP3    H145373   2.897   2.612   1.848
15144TIP3    H245374   2.935   2.759   1.857
15145TIP3   OH245375   2.391   7.299   3.945
15145TIP3    H145376   2.404   7.290   3.851
15145TIP3    H245377   2.429   7.219   3.982
15146TIP3   OH245378   1.178   4.714   1.609
15146TIP3    H145379   1.086   4.724   1.586
15146TIP3    H245380   1.225   4.759   1.538
15147TIP3   OH245381   8.353   4.074   2.028
15147TIP3    H145382   8.406   3.996   2.013
15147TIP3    H245383   8.280   4.065   1.967
15148TIP3   OH245384   2.210   2.422   6.343
15148TIP3    H145385   2.178   2.411   6.433
15148TIP3    H245386   2.137   2.464   6.297
15149TIP3   OH245387   0.998   1.577   3.007
15149TIP3    H145388   0.998   1.660   2.960
15149TIP3    H245389   0.917   1.533   2.980
15150TIP3   OH245390   7.242   2.901   5.016
15150TIP3    H145391   7.297   2.890   4.938
15150TIP3    H245392   7.168   2.842   5.000
15151TIP3   OH245393   4.421   2.171   4.415
15151TIP3    H145394   4.489   2.216   4.366
15151TIP3    H245395   4.413   2.085   4.372
15152TIP3   OH245396   3.577   5.346   4.714
15152TIP3    H145397   3.643   5.374   4.651
15152TIP3    H245398   3.604   5.385   4.796
15153TIP3   OH245399   3.947   0.093   2.861
15153TIP3    H145400   3.944   0.095   2.765
15153TIP3    H245401   3.922   0.182   2.887
15154TIP3   OH245402   3.968   1.176   1.687
15154TIP3    H145403   3.911   1.173   1.763
15154TIP3    H245404   3.940   1.253   1.638
15155TIP3   OH245405   8.162   3.676   6.150
15155TIP3    H145406   8.248   3.705   6.118
15155TIP3    H245407   8.103   3.747   6.126
15156TIP3   OH245408   6.514   7.724   3.054
15156TIP3    H145409   6.466   7.689   2.979
15156TIP3    H245410   6.449   7.770   3.106
15157TIP3   OH245411   6.539   1.393   5.340
15157TIP3    H145412   6.544   1.373   5.433
15157TIP3    H245413   6.455   1.437   5.329
15158TIP3   OH245414   0.480   5.752   6.624
15158TIP3    H145415   0.494   5.730   6.532
15158TIP3    H245416   0.388   5.731   6.640
15159TIP3   OH245417   2.110   2.155   5.948
15159TIP3    H145418   2.059   2.187   6.022
15159TIP3    H245419   2.056   2.174   5.872
15160TIP3   OH245420   7.056   3.318   0.923
15160TIP3    H145421   7.111   3.273   0.987
15160TIP3    H245422   7.020   3.393   0.970
15161TIP3   OH245423   3.389   0.252   3.750
15161TIP3    H145424   3.423   0.164   3.739
15161TIP3    H245425   3.364   0.258   3.843
15162TIP3   OH245426   3.139   7.635   0.598
15162TIP3    H145427   3.190   7.692   0.541
15162TIP3    H245428   3.154   7.547   0.563
15163TIP3   OH245429   1.188   5.246   3.899
15163TIP3    H145430   1.135   5.314   3.941
15163TIP3    H245431   1.205   5.183   3.969
15164TIP3   OH245432   6.150   4.472   0.021
15164TIP3    H145433   6.205   4.535  -0.025
15164TIP3    H245434   6.209   4.402   0.048
15165TIP3   OH245435   6.580   3.975   2.597
15165TIP3    H145436   6.594   4.015   2.512
15165TIP3    H245437   6.591   4.046   2.660
15166TIP3   OH245438   1.568   0.420   3.657
15166TIP3    H145439   1.473   0.434   3.658
15166TIP3    H245440   1.581   0.358   3.585
15167TIP3   OH245441   6.178   5.291   3.220
15167TIP3    H145442   6.177   5.280   3.315
15167TIP3    H245443   6.182   5.201   3.186
15168TIP3   OH245444   6.896   1.445   5.789
15168TIP3    H145445   6.952   1.491   5.851
15168TIP3    H245446   6.822   1.415   5.842
15169TIP3   OH245447   5.006   4.669   2.664
15169TIP3    H145448   4.916   4.685   2.636
15169TIP3    H245449   5.049   4.630   2.588
15170TIP3   OH245450   0.080   7.462   1.855
15170TIP3    H145451   0.097   7.388   1.912
15170TIP3    H245452   0.162   7.511   1.855
15171TIP3   OH245453   3.255   0.608   0.698
15171TIP3    H145454   3.210   0.674   0.750
15171TIP3    H245455   3.297   0.551   0.763
15172TIP3   OH245456   6.834   6.151   6.241
15172TIP3    H145457   6.892   6.115   6.309
15172TIP3    H245458   6.778   6.078   6.216
15173TIP3   OH245459   2.701   5.800   0.632
15173TIP3    H145460   2.697   5.783   0.726
15173TIP3    H245461   2.733   5.890   0.626
15174TIP3   OH245462   0.617   5.201   1.779
15174TIP3    H145463   0.681   5.222   1.711
15174TIP3    H245464   0.607   5.106   1.774
15175TIP3   OH245465   0.737   4.453   5.031
15175TIP3    H145466   0.703   4.517   4.969
15175TIP3    H245467   0.720   4.491   5.117
15176TIP3   OH245468   7.118   0.216   5.657
15176TIP3    H145469   7.061   0.292   5.660
15176TIP3    H245470   7.204   0.248   5.683
15177TIP3   OH245471   6.730   2.938   0.886
15177TIP3    H145472   6.690   2.905   0.806
15177TIP3    H245473   6.780   3.014   0.858
15178TIP3   OH245474   7.072   7.066   1.011
15178TIP3    H145475   7.097   7.054   1.103
15178TIP3    H245476   7.148   7.104   0.969
15179TIP3   OH245477   4.347   5.510   0.874
15179TIP3    H145478   4.358   5.476   0.962
15179TIP3    H245479   4.301   5.593   0.886
15180TIP3   OH245480   2.948   5.555   5.893
15180TIP3    H145481   2.969   5.585   5.805
15180TIP3    H245482   2.872   5.608   5.919
15181TIP3   OH245483   2.969   1.507   3.484
15181TIP3    H145484   3.058   1.484   3.456
15181TIP3    H245485   2.967   1.485   3.577
15182TIP3   OH245486   6.890   6.159   0.834
15182TIP3    H145487   6.910   6.067   0.852
15182TIP3    H245488   6.909   6.204   0.916
15183TIP3   OH245489   7.566   7.558   3.643
15183TIP3    H145490   7.497   7.624   3.643
15183TIP3    H245491   7.520   7.475   3.657
15184TIP3   OH245492   7.190   3.307   4.132
15184TIP3    H145493   7.186   3.257   4.050
15184TIP3    H245494   7.106   3.289   4.175
15185TIP3   OH245495   3.556   6.507   1.043
15185TIP3    H145496   3.611   6.467   0.975
15185TIP3    H245497   3.471   6.464   1.033
15186TIP3   OH245498   3.601   5.197   2.986
15186TIP3    H145499   3.571   5.107   2.974
15186TIP3    H245500   3.685   5.189   3.031
15187TIP3   OH245501   2.130   2.732   2.310
15187TIP3    H145502   2.098   2.645   2.287
15187TIP3    H245503   2.057   2.775   2.354
15188TIP3   OH245504   0.844   5.969   0.273
15188TIP3    H145505   0.922   5.913   0.271
15188TIP3    H245506   0.863   6.033   0.342
15189TIP3   OH245507   1.860   2.447   4.004
15189TIP3    H145508   1.853   2.431   4.098
15189TIP3    H245509   1.772   2.473   3.978
15190TIP3   OH245510   5.501   5.597   6.272
15190TIP3    H145511   5.592   5.568   6.282
15190TIP3    H245512   5.507   5.692   6.259
15191TIP3   OH245513   5.441   3.540   4.311
15191TIP3    H145514   5.381   3.555   4.383
15191TIP3    H245515   5.388   3.549   4.232
15192TIP3   OH245516   4.735   2.852   6.479
15192TIP3    H145517   4.824   2.883   6.466
15192TIP3    H245518   4.680   2.913   6.429
15193TIP3   OH245519   0.723   2.377   1.889
15193TIP3    H145520   0.758   2.445   1.947
15193TIP3    H245521   0.678   2.425   1.820
15194TIP3   OH245522   2.798   1.102   4.721
15194TIP3    H145523   2.873   1.142   4.679
15194TIP3    H245524   2.826   1.087   4.811
15195TIP3   OH245525   7.646   5.271   1.391
15195TIP3    H145526   7.729   5.296   1.432
15195TIP3    H245527   7.671   5.233   1.307
15196TIP3   OH245528   4.618   0.968   3.298
15196TIP3    H145529   4.657   1.022   3.229
15196TIP3    H245530   4.533   0.941   3.263
15197TIP3   OH245531   3.135   0.543   1.517
15197TIP3    H145532   3.063   0.572   1.573
15197TIP3    H245533   3.188   0.621   1.504
15198TIP3   OH245534   1.396   0.992   5.650
15198TIP3    H145535   1.481   0.975   5.609
15198TIP3    H245536   1.394   0.934   5.726
15199TIP3   OH245537   8.133   2.978   0.268
15199TIP3    H145538   8.105   3.002   0.356
15199TIP3    H245539   8.167   3.059   0.230
15200TIP3   OH245540   7.811   0.889   5.383
15200TIP3    H145541   7.841   0.859   5.297
15200TIP3    H245542   7.816   0.811   5.439
15201TIP3   OH245543   3.576   0.008   1.950
15201TIP3    H145544   3.645  -0.044   1.909
15201TIP3    H245545   3.502   0.003   1.889
15202TIP3   OH245546   7.217   6.337   2.308
15202TIP3    H145547   7.211   6.322   2.214
15202TIP3    H245548   7.295   6.288   2.336
15203TIP3   OH245549   6.868   6.984   5.709
15203TIP3    H145550   6.800   7.038   5.751
15203TIP3    H245551   6.949   7.008   5.754
15204TIP3   OH245552   4.708   7.625   6.357
15204TIP3    H145553   4.651   7.689   6.400
15204TIP3    H245554   4.792   7.632   6.403
15205TIP3   OH245555   6.609   0.458   1.238
15205TIP3    H145556   6.593   0.542   1.195
15205TIP3    H245557   6.651   0.404   1.171
15206TIP3   OH245558   5.182   7.823   4.179
15206TIP3    H145559   5.229   7.769   4.243
15206TIP3    H245560   5.189   7.775   4.097
15207TIP3   OH245561   0.361   1.514   6.225
15207TIP3    H145562   0.325   1.524   6.313
15207TIP3    H245563   0.343   1.423   6.201
15208TIP3   OH245564   6.053   7.376   2.506
15208TIP3    H145565   6.069   7.463   2.541
15208TIP3    H245566   6.139   7.345   2.477
15209TIP3   OH245567   2.794   0.941   4.205
15209TIP3    H145568   2.721   0.986   4.248
15209TIP3    H245569   2.813   0.995   4.128
15210TIP3   OH245570   1.485   2.482   5.364
15210TIP3    H145571   1.402   2.444   5.336
15210TIP3    H245572   1.543   2.472   5.288
15211TIP3   OH245573   2.571   0.668   3.612
15211TIP3    H145574   2.550   0.584   3.654
15211TIP3    H245575   2.488   0.715   3.607
15212TIP3   OH245576   1.384   3.110   3.094
15212TIP3    H145577   1.387   3.093   3.000
15212TIP3    H245578   1.475   3.104   3.123
15213TIP3   OH245579   7.904   0.756   0.371
15213TIP3    H145580   7.844   0.830   0.364
15213TIP3    H245581   7.943   0.749   0.284
15214TIP3   OH245582   0.934   6.864   0.338
15214TIP3    H145583   0.905   6.882   0.428
15214TIP3    H245584   0.883   6.788   0.311
15215TIP3   OH245585   4.627   1.137   3.899
15215TIP3    H145586   4.618   1.207   3.835
15215TIP3    H245587   4.550   1.145   3.955
15216TIP3   OH245588   7.830   1.481   6.395
15216TIP3    H145589   7.807   1.526   6.476
15216TIP3    H245590   7.746   1.456   6.357
15217TIP3   OH245591   7.811   1.973   5.867
15217TIP3    H145592   7.748   2.042   5.889
15217TIP3    H245593   7.866   2.011   5.799
15218TIP3   OH245594   2.650   5.825   5.660
15218TIP3    H145595   2.644   5.729   5.667
15218TIP3    H245596   2.650   5.842   5.566
15219TIP3   OH245597   3.387   5.265   3.606
15219TIP3    H145598   3.482   5.263   3.590
15219TIP3    H245599   3.360   5.352   3.578
15220TIP3   OH245600   8.259   2.235   3.323
15220TIP3    H145601   8.212   2.205   3.245
15220TIP3    H245602   8.221   2.320   3.343
15221TIP3   OH245603   3.380   5.907   0.910
15221TIP3    H145604   3.402   5.817   0.884
15221TIP3    H245605   3.463   5.946   0.935
15222TIP3   OH245606   6.586   3.186   5.887
15222TIP3    H145607   6.597   3.262   5.944
15222TIP3    H245608   6.542   3.221   5.809
15223TIP3   OH245609   0.853   2.214   6.090
15223TIP3    H145610   0.862   2.308   6.107
15223TIP3    H245611   0.894   2.202   6.004
15224TIP3   OH245612   0.963   4.049   5.002
15224TIP3    H145613   0.873   4.016   4.995
15224TIP3    H245614   1.016   3.983   4.958
15225TIP3   OH245615   2.376   4.800   1.989
15225TIP3    H145616   2.331   4.883   1.973
15225TIP3    H245617   2.332   4.737   1.932
15226TIP3   OH245618   2.556   1.174   5.968
15226TIP3    H145619   2.613   1.224   6.027
15226TIP3    H245620   2.601   1.090   5.956
15227TIP3   OH245621   4.033   0.368   1.224
15227TIP3    H145622   3.960   0.364   1.162
15227TIP3    H245623   4.095   0.430   1.185
15228TIP3   OH245624   0.016   1.610   1.610
15228TIP3    H145625  -0.063   1.556   1.608
15228TIP3    H245626   0.073   1.571   1.544
15229TIP3   OH245627   4.472   4.109   1.512
15229TIP3    H145628   4.523   4.044   1.560
15229TIP3    H245629   4.498   4.193   1.551
15230TIP3   OH245630   1.951   4.572   6.624
15230TIP3    H145631   2.041   4.595   6.601
15230TIP3    H245632   1.958   4.491   6.674
15231TIP3   OH245633   1.848   3.088   1.420
15231TIP3    H145634   1.826   3.000   1.391
15231TIP3    H245635   1.878   3.077   1.510
15232TIP3   OH245636   4.942   6.351   6.684
15232TIP3    H145637   4.884   6.275   6.690
15232TIP3    H245638   5.005   6.340   6.755
15233TIP3   OH245639   1.946   4.135   3.131
15233TIP3    H145640   1.859   4.175   3.122
15233TIP3    H245641   1.971   4.151   3.222
15234TIP3   OH245642   0.734   3.952   1.849
15234TIP3    H145643   0.697   4.040   1.848
15234TIP3    H245644   0.711   3.914   1.764
15235TIP3   OH245645   0.251   0.801   3.280
15235TIP3    H145646   0.252   0.855   3.359
15235TIP3    H245647   0.185   0.734   3.297
15236TIP3   OH245648   4.406   6.099   0.462
15236TIP3    H145649   4.406   6.186   0.423
15236TIP3    H245650   4.497   6.069   0.455
15237TIP3   OH245651   3.870   1.228   2.241
15237TIP3    H145652   3.892   1.293   2.307
15237TIP3    H245653   3.788   1.188   2.272
15238TIP3   OH245654   1.442   2.932   0.374
15238TIP3    H145655   1.444   2.954   0.281
15238TIP3    H245656   1.522   2.881   0.389
15239TIP3   OH245657   5.596   2.554   2.207
15239TIP3    H145658   5.564   2.524   2.292
15239TIP3    H245659   5.519   2.591   2.164
15240TIP3   OH245660   1.184   3.021   0.785
15240TIP3    H145661   1.181   2.926   0.791
15240TIP3    H245662   1.219   3.049   0.870
15241TIP3   OH245663   3.663   3.925   0.179
15241TIP3    H145664   3.734   3.893   0.234
15241TIP3    H245665   3.586   3.875   0.208
15242TIP3   OH245666   7.071   2.985   0.896
15242TIP3    H145667   6.997   3.036   0.862
15242TIP3    H245668   7.097   3.031   0.975
15243TIP3   OH245669   5.503   6.187   3.660
15243TIP3    H145670   5.566   6.223   3.722
15243TIP3    H245671   5.547   6.190   3.576
15244TIP3   OH245672   5.284   0.943   2.216
15244TIP3    H145673   5.222   0.903   2.156
15244TIP3    H245674   5.342   0.994   2.160
15245TIP3   OH245675   2.530   2.628   0.825
15245TIP3    H145676   2.546   2.685   0.750
15245TIP3    H245677   2.589   2.660   0.893
15246TIP3   OH245678   0.664   2.650   4.655
15246TIP3    H145679   0.715   2.613   4.726
15246TIP3    H245680   0.604   2.711   4.697
15247TIP3   OH245681   4.191   6.417   2.039
15247TIP3    H145682   4.114   6.417   1.982
15247TIP3    H245683   4.250   6.481   2.000
15248TIP3   OH245684   2.646   2.976   0.410
15248TIP3    H145685   2.691   2.991   0.493
15248TIP3    H245686   2.582   3.047   0.403
15249TIP3   OH245687   1.777   7.669   1.306
15249TIP3    H145688   1.690   7.707   1.314
15249TIP3    H245689   1.781   7.635   1.216
15250TIP3   OH245690   1.358   5.115   0.756
15250TIP3    H145691   1.278   5.065   0.769
15250TIP3    H245692   1.359   5.134   0.662
15251TIP3   OH245693   2.052   1.951   4.738
15251TIP3    H145694   2.055   2.013   4.665
15251TIP3    H245695   2.018   2.002   4.811
15252TIP3   OH245696   1.016   5.175   0.798
15252TIP3    H145697   1.025   5.117   0.874
15252TIP3    H245698   0.991   5.116   0.726
15253TIP3   OH245699   6.196   7.688   3.968
15253TIP3    H145700   6.118   7.645   3.935
15253TIP3    H245701   6.241   7.622   4.020
15254TIP3   OH245702   2.592   5.397   3.249
15254TIP3    H145703   2.555   5.472   3.296
15254TIP3    H245704   2.682   5.424   3.228
15255TIP3   OH245705   6.277   4.066   1.770
15255TIP3    H145706   6.228   3.984   1.777
15255TIP3    H245707   6.299   4.073   1.677
15256TIP3   OH245708   5.883   3.390   5.405
15256TIP3    H145709   5.948   3.457   5.384
15256TIP3    H245710   5.928   3.307   5.391
15257TIP3   OH245711   0.205   0.149   6.171
15257TIP3    H145712   0.274   0.172   6.233
15257TIP3    H245713   0.229   0.061   6.141
15258TIP3   OH245714   0.331   0.082   1.301
15258TIP3    H145715   0.337   0.041   1.388
15258TIP3    H245716   0.248   0.051   1.265
15259TIP3   OH245717   5.029   7.212   4.076
15259TIP3    H145718   5.088   7.219   4.152
15259TIP3    H245719   4.979   7.293   4.077
15260TIP3   OH245720   4.744   3.586   4.215
15260TIP3    H145721   4.693   3.656   4.255
15260TIP3    H245722   4.729   3.510   4.272
15261TIP3   OH245723   2.047   6.788   1.436
15261TIP3    H145724   2.082   6.790   1.526
15261TIP3    H245725   2.073   6.702   1.403
15262TIP3   OH245726   1.323   5.787   3.464
15262TIP3    H145727   1.248   5.777   3.523
15262TIP3    H245728   1.392   5.733   3.503
15263TIP3   OH245729   1.883   0.465   6.859
15263TIP3    H145730   1.864   0.442   6.950
15263TIP3    H245731   1.952   0.405   6.833
15264TIP3   OH245732   0.893   1.511   0.873
15264TIP3    H145733   0.837   1.446   0.830
15264TIP3    H245734   0.857   1.595   0.847
15265TIP3   OH245735   5.412   6.830   5.018
15265TIP3    H145736   5.397   6.766   4.949
15265TIP3    H245737   5.480   6.887   4.983
15266TIP3   OH245738   2.261   3.456   1.568
15266TIP3    H145739   2.287   3.521   1.633
15266TIP3    H245740   2.342   3.435   1.521
15267TIP3   OH245741   4.052   7.336   4.390
15267TIP3    H145742   3.961   7.363   4.400
15267TIP3    H245743   4.086   7.391   4.319
15268TIP3   OH245744   1.080   1.952   5.961
15268TIP3    H145745   1.003   1.899   5.983
15268TIP3    H245746   1.045   2.033   5.926
15269TIP3   OH245747   4.683   1.545   1.943
15269TIP3    H145748   4.666   1.531   2.036
15269TIP3    H245749   4.598   1.570   1.907
15270TIP3   OH245750   0.966   4.352   6.481
15270TIP3    H145751   0.999   4.266   6.509
15270TIP3    H245752   0.886   4.364   6.530
15271TIP3   OH245753   1.925   6.459   4.786
15271TIP3    H145754   1.837   6.470   4.822
15271TIP3    H245755   1.924   6.506   4.703
15272TIP3   OH245756   0.510   7.502   3.166
15272TIP3    H145757   0.583   7.449   3.200
15272TIP3    H245758   0.470   7.447   3.099
15273TIP3   OH245759   2.972   6.436   5.335
15273TIP3    H145760   2.960   6.383   5.415
15273TIP3    H245761   2.988   6.371   5.266
15274TIP3   OH245762   5.844   0.906   2.619
15274TIP3    H145763   5.786   0.893   2.693
15274TIP3    H245764   5.820   0.992   2.585
15275TIP3   OH245765   0.591   2.191   0.786
15275TIP3    H145766   0.507   2.159   0.753
15275TIP3    H245767   0.593   2.283   0.761
15276TIP3   OH245768   2.132   7.889   3.300
15276TIP3    H145769   2.093   7.840   3.227
15276TIP3    H245770   2.111   7.837   3.377
15277TIP3   OH245771   7.829   1.940   0.706
15277TIP3    H145772   7.852   1.870   0.766
15277TIP3    H245773   7.884   1.925   0.629
15278TIP3   OH245774   2.553   3.005   1.031
15278TIP3    H145775   2.471   3.007   0.981
15278TIP3    H245776   2.558   3.091   1.072
15279TIP3   OH245777   4.455   2.813   6.605
15279TIP3    H145778   4.520   2.845   6.668
15279TIP3    H245779   4.506   2.764   6.541
15280TIP3   OH245780   6.830   3.534   0.780
15280TIP3    H145781   6.780   3.519   0.700
15280TIP3    H245782   6.903   3.589   0.753
15281TIP3   OH245783   7.492   2.770   1.607
15281TIP3    H145784   7.506   2.858   1.571
15281TIP3    H245785   7.439   2.785   1.686
15282TIP3   OH245786   2.633   0.536   0.759
15282TIP3    H145787   2.664   0.615   0.802
15282TIP3    H245788   2.538   0.547   0.753
15283TIP3   OH245789   6.458   3.923   1.397
15283TIP3    H145790   6.381   3.927   1.340
15283TIP3    H245791   6.451   3.838   1.441
15284TIP3   OH245792   4.731   2.025   6.299
15284TIP3    H145793   4.817   2.063   6.281
15284TIP3    H245794   4.670   2.096   6.282
15285TIP3   OH245795   4.308   1.624   6.480
15285TIP3    H145796   4.389   1.670   6.459
15285TIP3    H245797   4.243   1.694   6.491
15286TIP3   OH245798   5.317   4.693   5.392
15286TIP3    H145799   5.373   4.697   5.470
15286TIP3    H245800   5.236   4.653   5.422
15287TIP3   OH245801   1.896   7.821   4.432
15287TIP3    H145802   1.852   7.790   4.353
15287TIP3    H245803   1.979   7.858   4.401
15288TIP3   OH245804   0.563   2.867   4.317
15288TIP3    H145805   0.572   2.835   4.227
15288TIP3    H245806   0.548   2.788   4.369
15289TIP3   OH245807   6.530   3.115   3.285
15289TIP3    H145808   6.529   3.201   3.328
15289TIP3    H245809   6.441   3.082   3.295
15290TIP3   OH245810   5.550   6.528   2.804
15290TIP3    H145811   5.528   6.605   2.856
15290TIP3    H245812   5.641   6.510   2.824
15291TIP3   OH245813   8.288   1.202   4.820
15291TIP3    H145814   8.273   1.109   4.836
15291TIP3    H245815   8.200   1.241   4.820
15292TIP3   OH245816   8.305   2.193   6.504
15292TIP3    H145817   8.401   2.186   6.505
15292TIP3    H245818   8.287   2.276   6.459
15293TIP3   OH245819   6.362   6.700   3.640
15293TIP3    H145820   6.384   6.611   3.666
15293TIP3    H245821   6.267   6.701   3.632
15294TIP3   OH245822   1.718   3.644   6.033
15294TIP3    H145823   1.730   3.706   6.104
15294TIP3    H245824   1.626   3.617   6.039
15295TIP3   OH245825   4.628   7.793   5.103
15295TIP3    H145826   4.621   7.710   5.057
15295TIP3    H245827   4.538   7.818   5.122
15296TIP3   OH245828   0.244   6.198   2.891
15296TIP3    H145829   0.162   6.217   2.936
15296TIP3    H245830   0.223   6.128   2.829
15297TIP3   OH245831   2.209   2.910   2.552
15297TIP3    H145832   2.127   2.864   2.537
15297TIP3    H245833   2.246   2.923   2.464
15298TIP3   OH245834   2.233   6.424   3.717
15298TIP3    H145835   2.246   6.505   3.765
15298TIP3    H245836   2.179   6.370   3.774
15299TIP3   OH245837   4.162   7.213   5.007
15299TIP3    H145838   4.175   7.218   5.101
15299TIP3    H245839   4.108   7.136   4.994
15300TIP3   OH245840   3.975   4.226   1.874
15300TIP3    H145841   3.989   4.313   1.911
15300TIP3    H245842   4.064   4.192   1.860
15301TIP3   OH245843   1.116   7.522   4.272
15301TIP3    H145844   1.056   7.579   4.320
15301TIP3    H245845   1.069   7.499   4.192
15302TIP3   OH245846   1.184   3.035   5.155
15302TIP3    H145847   1.207   3.010   5.245
15302TIP3    H245848   1.269   3.043   5.111
15303TIP3   OH245849   1.328   5.886   5.352
15303TIP3    H145850   1.255   5.850   5.403
15303TIP3    H245851   1.356   5.814   5.295
15304TIP3   OH245852   0.235   4.751   5.127
15304TIP3    H145853   0.166   4.721   5.187
15304TIP3    H245854   0.240   4.682   5.060
15305TIP3   OH245855   4.324   2.747   4.223
15305TIP3    H145856   4.286   2.748   4.311
15305TIP3    H245857   4.373   2.665   4.219
15306TIP3   OH245858   0.663   6.990   4.899
15306TIP3    H145859   0.582   7.020   4.940
15306TIP3    H245860   0.706   6.937   4.966
15307TIP3   OH245861   2.855   7.186   6.662
15307TIP3    H145862   2.809   7.244   6.723
15307TIP3    H245863   2.947   7.198   6.682
15308TIP3   OH245864   3.768   3.563   2.277
15308TIP3    H145865   3.807   3.644   2.310
15308TIP3    H245866   3.843   3.506   2.260
15309TIP3   OH245867   3.900   2.586   4.700
15309TIP3    H145868   3.873   2.495   4.686
15309TIP3    H245869   3.994   2.586   4.677
15310TIP3   OH245870   5.827   7.606   6.347
15310TIP3    H145871   5.794   7.672   6.407
15310TIP3    H245872   5.831   7.650   6.262
15311TIP3   OH245873   3.452   1.491   4.004
15311TIP3    H145874   3.534   1.528   3.973
15311TIP3    H245875   3.407   1.565   4.046
15312TIP3   OH245876   6.932   0.361   5.293
15312TIP3    H145877   6.922   0.283   5.348
15312TIP3    H245878   6.842   0.389   5.274
15313TIP3   OH245879   5.037   2.466   5.337
15313TIP3    H145880   5.032   2.559   5.317
15313TIP3    H245881   4.948   2.441   5.361
15314TIP3   OH245882   6.297   4.529   1.895
15314TIP3    H145883   6.337   4.465   1.837
15314TIP3    H245884   6.263   4.597   1.836
15315TIP3   OH245885   2.986   1.934   1.917
15315TIP3    H145886   2.892   1.950   1.911
15315TIP3    H245887   2.993   1.841   1.941
15316TIP3   OH245888   1.452   6.210   5.381
15316TIP3    H145889   1.373   6.215   5.436
15316TIP3    H245890   1.511   6.277   5.418
15317TIP3   OH245891   6.600   0.957   6.147
15317TIP3    H145892   6.639   0.997   6.069
15317TIP3    H245893   6.509   0.941   6.124
15318TIP3   OH245894   2.472   7.331   0.040
15318TIP3    H145895   2.517   7.339  -0.044
15318TIP3    H245896   2.383   7.306   0.017
15319TIP3   OH245897   7.957   1.353   1.154
15319TIP3    H145898   7.870   1.315   1.157
15319TIP3    H245899   8.015   1.279   1.136
15320TIP3   OH245900   3.139   5.852   2.861
15320TIP3    H145901   3.165   5.886   2.947
15320TIP3    H245902   3.215   5.867   2.805
15321TIP3   OH245903   5.431   1.203   6.111
15321TIP3    H145904   5.354   1.154   6.082
15321TIP3    H245905   5.428   1.285   6.062
15322TIP3   OH245906   1.531   5.978   4.352
15322TIP3    H145907   1.573   5.901   4.312
15322TIP3    H245908   1.494   5.945   4.434
15323TIP3   OH245909   5.766   1.368   0.106
15323TIP3    H145910   5.679   1.331   0.120
15323TIP3    H245911   5.750   1.458   0.079
15324TIP3   OH245912   7.294   4.333   1.915
15324TIP3    H145913   7.315   4.369   1.828
15324TIP3    H245914   7.201   4.352   1.926
15325TIP3   OH245915   2.183   4.180   4.032
15325TIP3    H145916   2.121   4.251   4.012
15325TIP3    H245917   2.128   4.108   4.064
15326TIP3   OH245918   3.583   5.763   4.254
15326TIP3    H145919   3.599   5.698   4.322
15326TIP3    H245920   3.516   5.820   4.291
15327TIP3   OH245921   4.128   0.365   6.468
15327TIP3    H145922   4.141   0.458   6.485
15327TIP3    H245923   4.215   0.325   6.478
15328TIP3   OH245924   3.665   4.273   1.901
15328TIP3    H145925   3.625   4.300   1.984
15328TIP3    H245926   3.643   4.343   1.840
15329TIP3   OH245927   5.856   2.055   4.936
15329TIP3    H145928   5.865   2.070   5.030
15329TIP3    H245929   5.764   2.030   4.925
15330TIP3   OH245930   1.494   7.340   5.668
15330TIP3    H145931   1.421   7.309   5.614
15330TIP3    H245932   1.571   7.297   5.630
15331TIP3   OH245933   1.912   7.017   4.500
15331TIP3    H145934   1.996   6.981   4.469
15331TIP3    H245935   1.937   7.077   4.570
15332TIP3   OH245936   3.745   2.315   3.073
15332TIP3    H145937   3.662   2.360   3.055
15332TIP3    H245938   3.765   2.270   2.991
15333TIP3   OH245939   5.434   6.851   4.391
15333TIP3    H145940   5.511   6.794   4.402
15333TIP3    H245941   5.455   6.906   4.315
15334TIP3   OH245942   4.133   1.067   3.857
15334TIP3    H145943   4.119   1.080   3.951
15334TIP3    H245944   4.138   1.155   3.821
15335TIP3   OH245945   0.793   7.225   4.755
15335TIP3    H145946   0.832   7.296   4.806
15335TIP3    H245947   0.740   7.176   4.818
15336TIP3   OH245948   0.442   1.961   1.657
15336TIP3    H145949   0.351   1.932   1.652
15336TIP3    H245950   0.451   1.997   1.745
15337TIP3   OH245951   6.620   1.201   3.961
15337TIP3    H145952   6.669   1.272   3.919
15337TIP3    H245953   6.559   1.246   4.019
15338TIP3   OH245954   4.219   0.213   4.158
15338TIP3    H145955   4.230   0.214   4.063
15338TIP3    H245956   4.308   0.205   4.192
15339TIP3   OH245957   3.072   4.287   6.261
15339TIP3    H145958   3.034   4.306   6.175
15339TIP3    H245959   3.012   4.329   6.323
15340TIP3   OH245960   1.195   3.114   4.732
15340TIP3    H145961   1.272   3.145   4.686
15340TIP3    H245962   1.180   3.025   4.698
15341TIP3   OH245963   6.437   1.513   4.135
15341TIP3    H145964   6.437   1.602   4.170
15341TIP3    H245965   6.506   1.468   4.184
15342TIP3   OH245966   0.903   5.768   4.504
15342TIP3    H145967   0.962   5.824   4.555
15342TIP3    H245968   0.949   5.754   4.422
15343TIP3   OH245969   5.382   1.503   0.402
15343TIP3    H145970   5.403   1.448   0.326
15343TIP3    H245971   5.382   1.442   0.476
15344TIP3   OH245972   7.800   7.739   4.530
15344TIP3    H145973   7.821   7.649   4.556
15344TIP3    H245974   7.716   7.731   4.485
15345TIP3   OH245975   1.739   2.310   3.413
15345TIP3    H145976   1.751   2.216   3.420
15345TIP3    H245977   1.814   2.347   3.460
15346TIP3   OH245978   4.511   0.054   0.444
15346TIP3    H145979   4.528   0.012   0.360
15346TIP3    H245980   4.584   0.027   0.499
15347TIP3   OH245981   6.008   3.330   0.542
15347TIP3    H145982   6.002   3.375   0.458
15347TIP3    H245983   5.918   3.334   0.577
15348TIP3   OH245984   3.498   0.533   0.869
15348TIP3    H145985   3.549   0.570   0.797
15348TIP3    H245986   3.473   0.446   0.839
15349TIP3   OH245987   0.574   7.099   2.994
15349TIP3    H145988   0.577   7.039   3.068
15349TIP3    H245989   0.574   7.041   2.917
15350TIP3   OH245990   2.520   2.483   5.163
15350TIP3    H145991   2.589   2.420   5.144
15350TIP3    H245992   2.439   2.432   5.161
15351TIP3   OH245993   5.038   7.011   2.709
15351TIP3    H145994   5.053   7.030   2.802
15351TIP3    H245995   4.946   7.034   2.694
15352TIP3   OH245996   2.703   6.018   6.584
15352TIP3    H145997   2.786   6.012   6.537
15352TIP3    H245998   2.640   5.971   6.529
15353TIP3   OH245999   3.229   6.525  -0.045
15353TIP3    H146000   3.191   6.462   0.017
15353TIP3    H246001   3.316   6.544  -0.009
15354TIP3   OH246002   7.164   3.097   6.516
15354TIP3    H146003   7.240   3.154   6.530
15354TIP3    H246004   7.104   3.119   6.587
15355TIP3   OH246005   3.741   6.682   3.517
15355TIP3    H146006   3.806   6.617   3.545
15355TIP3    H246007   3.672   6.677   3.583
15356TIP3   OH246008   5.407   0.290   5.952
15356TIP3    H146009   5.356   0.371   5.954
15356TIP3    H246010   5.387   0.251   5.867
15357TIP3   OH246011   5.274   6.530   0.467
15357TIP3    H146012   5.334   6.566   0.532
15357TIP3    H246013   5.271   6.595   0.398
15358TIP3   OH246014   6.406   6.516   6.385
15358TIP3    H146015   6.436   6.425   6.379
15358TIP3    H246016   6.319   6.515   6.345
15359TIP3   OH246017   0.728   5.657   5.588
15359TIP3    H146018   0.639   5.622   5.588
15359TIP3    H246019   0.759   5.646   5.678
15360TIP3   OH246020   6.485   4.436   5.857
15360TIP3    H146021   6.543   4.450   5.932
15360TIP3    H246022   6.402   4.407   5.895
15361TIP3   OH246023   7.504   1.517   3.909
15361TIP3    H146024   7.531   1.519   3.817
15361TIP3    H246025   7.482   1.426   3.926
15362TIP3   OH246026   6.113   3.755   2.469
15362TIP3    H146027   6.188   3.698   2.485
15362TIP3    H246028   6.136   3.800   2.387
15363TIP3   OH246029   3.348   7.425   5.576
15363TIP3    H146030   3.433   7.426   5.620
15363TIP3    H246031   3.284   7.430   5.647
15364TIP3   OH246032   1.489   7.873   2.807
15364TIP3    H146033   1.438   7.954   2.814
15364TIP3    H246034   1.478   7.830   2.891
15365TIP3   OH246035   2.237   5.162   3.774
15365TIP3    H146036   2.206   5.155   3.683
15365TIP3    H246037   2.182   5.100   3.823
15366TIP3   OH246038   1.014   7.531   3.529
15366TIP3    H146039   0.977   7.619   3.534
15366TIP3    H246040   0.938   7.473   3.530
15367TIP3   OH246041   4.415   4.520   2.383
15367TIP3    H146042   4.370   4.604   2.380
15367TIP3    H246043   4.449   4.515   2.473
15368TIP3   OH246044   1.771   1.791   1.542
15368TIP3    H146045   1.824   1.714   1.520
15368TIP3    H246046   1.803   1.818   1.628
15369TIP3   OH246047   0.492   6.264   3.880
15369TIP3    H146048   0.578   6.292   3.912
15369TIP3    H246049   0.503   6.255   3.786
15370TIP3   OH246050   4.307   6.783   6.038
15370TIP3    H146051   4.292   6.866   6.082
15370TIP3    H246052   4.255   6.720   6.088
15371TIP3   OH246053   2.841   5.292   5.934
15371TIP3    H146054   2.881   5.378   5.926
15371TIP3    H246055   2.800   5.292   6.021
   8.39857   7.91825   6.85740   0.00000   0.00000  -2.79952   0.00000  -2.79952  -3.95912
